Title t= 372.00000 step= 186000
44389
    1GLY      N    1   6.056   4.145   1.296
    1GLY    HT1    2   6.124   4.183   1.227
    1GLY    HT2    3   5.963   4.152   1.249
    1GLY    HT3    4   6.087   4.048   1.315
    1GLY     CA    5   6.058   4.220   1.428
    1GLY    HA1    6   6.004   4.310   1.402
    1GLY    HA2    7   6.161   4.231   1.456
    1GLY      C    8   5.990   4.150   1.538
    1GLY      O    9   6.040   4.046   1.577
    2PRO      N   10   5.876   4.197   1.597
    2PRO     CD   11   5.790   4.306   1.543
    2PRO    HD1   12   5.766   4.292   1.435
    2PRO    HD2   13   5.849   4.399   1.558
    2PRO     CA   14   5.792   4.106   1.679
    2PRO     HA   15   5.859   4.083   1.761
    2PRO     CB   16   5.676   4.200   1.729
    2PRO    HB1   17   5.714   4.264   1.812
    2PRO    HB2   18   5.594   4.133   1.761
    2PRO     CG   19   5.651   4.291   1.613
    2PRO    HG1   20   5.577   4.253   1.539
    2PRO    HG2   21   5.628   4.398   1.634
    2PRO      C   22   5.744   3.984   1.603
    2PRO      O   23   5.700   3.992   1.488
    3GLY      N   24   5.760   3.869   1.664
    3GLY     HN   25   5.801   3.869   1.755
    3GLY     CA   26   5.711   3.740   1.624
    3GLY    HA1   27   5.604   3.744   1.606
    3GLY    HA2   28   5.725   3.672   1.706
    3GLY      C   29   5.776   3.682   1.499
    3GLY      O   30   5.861   3.741   1.435
    4ASP      N   31   5.730   3.565   1.465
    4ASP     HN   32   5.655   3.523   1.515
    4ASP     CA   33   5.781   3.490   1.354
    4ASP     HA   34   5.887   3.506   1.369
    4ASP     CB   35   5.753   3.335   1.372
    4ASP    HB1   36   5.764   3.284   1.274
    4ASP    HB2   37   5.645   3.329   1.400
    4ASP     CG   38   5.839   3.268   1.483
    4ASP    OD1   39   5.929   3.337   1.535
    4ASP    OD2   40   5.829   3.142   1.504
    4ASP      C   41   5.732   3.544   1.212
    4ASP      O   42   5.611   3.581   1.202
    5PRO      N   43   5.813   3.553   1.114
    5PRO     CD   44   5.948   3.507   1.120
    5PRO    HD1   45   5.944   3.396   1.126
    5PRO    HD2   46   6.003   3.562   1.200
    5PRO     CA   47   5.773   3.581   0.974
    5PRO     HA   48   5.753   3.686   0.960
    5PRO     CB   49   5.895   3.538   0.895
    5PRO    HB1   50   5.901   3.603   0.806
    5PRO    HB2   51   5.881   3.429   0.876
    5PRO     CG   52   6.009   3.556   0.988
    5PRO    HG1   53   6.097   3.493   0.963
    5PRO    HG2   54   6.035   3.664   0.991
    5PRO      C   55   5.638   3.519   0.923
    5PRO      O   56   5.596   3.410   0.960
    6GLY      N   57   5.562   3.592   0.839
    6GLY     HN   58   5.595   3.684   0.819
    6GLY     CA   59   5.432   3.545   0.788
    6GLY    HA1   60   5.438   3.441   0.761
    6GLY    HA2   61   5.406   3.621   0.714
    6GLY      C   62   5.314   3.551   0.880
    6GLY      O   63   5.325   3.597   0.997
    7SER      N   64   5.200   3.516   0.820
    7SER     HN   65   5.198   3.481   0.727
    7SER     CA   66   5.067   3.523   0.884
    7SER     HA   67   5.055   3.614   0.941
    7SER     CB   68   4.950   3.517   0.779
    7SER    HB1   69   4.853   3.525   0.834
    7SER    HB2   70   4.961   3.424   0.718
    7SER     OG   71   4.961   3.632   0.693
    7SER    HG1   72   5.045   3.618   0.648
    7SER      C   73   5.051   3.404   0.983
    7SER      O   74   5.091   3.287   0.956
    8GLY      N   75   4.992   3.426   1.103
    8GLY     HN   76   4.961   3.519   1.120
    8GLY     CA   77   4.939   3.330   1.205
    8GLY    HA1   78   4.927   3.395   1.291
    8GLY    HA2   79   5.017   3.257   1.220
    8GLY      C   80   4.810   3.269   1.169
    8GLY      O   81   4.761   3.271   1.058
    9ASN      N   82   4.742   3.214   1.272
    9ASN     HN   83   4.788   3.214   1.360
    9ASN     CA   84   4.612   3.146   1.268
    9ASN     HA   85   4.576   3.145   1.166
    9ASN     CB   86   4.620   2.997   1.313
    9ASN    HB1   87   4.657   2.970   1.415
    9ASN    HB2   88   4.706   2.950   1.261
    9ASN     CG   89   4.496   2.915   1.280
    9ASN    OD1   90   4.428   2.942   1.181
    9ASN    ND2   91   4.452   2.826   1.373
    9ASN   HD21   92   4.372   2.767   1.364
    9ASN   HD22   93   4.515   2.792   1.444
    9ASN      C   94   4.509   3.210   1.360
    9ASN      O   95   4.525   3.194   1.481
   10PRO      N   96   4.403   3.279   1.318
   10PRO     CD   97   4.370   3.312   1.181
   10PRO    HD1   98   4.392   3.225   1.115
   10PRO    HD2   99   4.414   3.407   1.143
   10PRO     CA  100   4.295   3.323   1.405
   10PRO     HA  101   4.337   3.391   1.478
   10PRO     CB  102   4.191   3.395   1.319
   10PRO    HB1  103   4.210   3.504   1.305
   10PRO    HB2  104   4.085   3.387   1.351
   10PRO     CG  105   4.219   3.335   1.176
   10PRO    HG1  106   4.172   3.235   1.164
   10PRO    HG2  107   4.174   3.401   1.099
   10PRO      C  108   4.240   3.212   1.501
   10PRO      O  109   4.252   3.091   1.470
   11GLY      N  110   4.204   3.258   1.625
   11GLY     HN  111   4.196   3.355   1.646
   11GLY     CA  112   4.184   3.163   1.736
   11GLY    HA1  113   4.177   3.227   1.823
   11GLY    HA2  114   4.267   3.094   1.736
   11GLY      C  115   4.052   3.082   1.714
   11GLY      O  116   3.970   3.093   1.617
   12SER      N  117   4.035   2.985   1.804
   12SER     HN  118   4.083   2.974   1.891
   12SER     CA  119   3.940   2.875   1.785
   12SER     HA  120   3.949   2.853   1.679
   12SER     CB  121   3.987   2.750   1.862
   12SER    HB1  122   4.085   2.724   1.817
   12SER    HB2  123   3.915   2.666   1.850
   12SER     OG  124   4.010   2.784   2.005
   12SER    HG1  125   4.100   2.811   2.023
   12SER      C  126   3.801   2.919   1.819
   12SER      O  127   3.707   2.852   1.785
   13GLY      N  128   3.774   3.032   1.880
   13GLY     HN  129   3.853   3.092   1.873
   13GLY     CA  130   3.646   3.089   1.929
   13GLY    HA1  131   3.577   3.110   1.849
   13GLY    HA2  132   3.668   3.178   1.986
   13GLY      C  133   3.566   3.007   2.035
   13GLY      O  134   3.609   2.898   2.072
   14ASP      N  135   3.453   3.065   2.078
   14ASP     HN  136   3.438   3.159   2.047
   14ASP     CA  137   3.368   3.013   2.186
   14ASP     HA  138   3.407   2.922   2.229
   14ASP     CB  139   3.341   3.129   2.282
   14ASP    HB1  140   3.253   3.109   2.346
   14ASP    HB2  141   3.335   3.222   2.220
   14ASP     CG  142   3.459   3.145   2.373
   14ASP    OD1  143   3.539   3.051   2.403
   14ASP    OD2  144   3.461   3.249   2.441
   14ASP      C  145   3.236   2.994   2.115
   14ASP      O  146   3.218   3.048   2.004
   15PRO      N  147   3.141   2.913   2.168
   15PRO     CD  148   3.163   2.805   2.263
   15PRO    HD1  149   3.148   2.842   2.367
   15PRO    HD2  150   3.260   2.752   2.249
   15PRO     CA  151   3.009   2.898   2.109
   15PRO     HA  152   3.030   2.876   2.006
   15PRO     CB  153   2.938   2.780   2.180
   15PRO    HB1  154   2.871   2.730   2.107
   15PRO    HB2  155   2.885   2.824   2.267
   15PRO     CG  156   3.053   2.700   2.234
   15PRO    HG1  157   3.031   2.644   2.327
   15PRO    HG2  158   3.084   2.628   2.155
   15PRO      C  159   2.929   3.027   2.124
   15PRO    OT1  160   2.947   3.105   2.225
   15PRO    OT2  161   2.836   3.049   2.046
   16SOD    SOD  162   4.807   5.107   0.587
   17SOD    SOD  163   0.829   2.503   1.849
   18SOD    SOD  164   3.574   6.416   4.476
   19SOD    SOD  165   7.529   5.569   5.172
   20SOD    SOD  166   2.895   2.260   3.779
   21SOD    SOD  167   6.616   1.326   6.413
   22SOD    SOD  168   4.512   5.067   4.003
   23SOD    SOD  169   5.204   0.409   4.860
   24SOD    SOD  170   6.774   3.212   6.588
   25SOD    SOD  171   5.319   6.606   5.435
   26SOD    SOD  172   2.299   3.834   3.913
   27SOD    SOD  173   0.035   4.769   2.815
   28SOD    SOD  174   6.969   1.624   4.552
   29SOD    SOD  175   1.074   7.646   0.890
   30SOD    SOD  176   2.353   0.584   5.917
   31SOD    SOD  177   3.541   2.363   2.317
   32SOD    SOD  178   6.181   2.397   3.935
   33SOD    SOD  179   7.034   4.729   1.454
   34SOD    SOD  180   6.119   1.753   0.108
   35SOD    SOD  181   7.458   4.495   0.461
   36SOD    SOD  182   5.725   1.911   6.557
   37SOD    SOD  183   1.077   4.106   4.477
   38SOD    SOD  184   6.962   3.471   5.191
   39SOD    SOD  185   4.853   4.092   4.224
   40SOD    SOD  186   7.476   7.524   0.797
   41SOD    SOD  187   4.030   7.373   1.752
   42SOD    SOD  188   7.298   5.420   3.648
   43SOD    SOD  189   6.509   3.364   4.320
   44SOD    SOD  190   8.050   1.963   5.438
   45SOD    SOD  191   2.408   3.089   1.684
   46SOD    SOD  192   1.113   3.479   6.158
   47SOD    SOD  193   4.157   4.759   2.684
   48SOD    SOD  194   2.674   0.226   3.717
   49SOD    SOD  195   0.115   1.819   1.333
   50SOD    SOD  196   5.166   4.602   3.168
   51SOD    SOD  197   5.776   4.020   0.748
   52SOD    SOD  198   2.733   4.202   6.370
   53SOD    SOD  199   0.507   4.702   6.490
   54SOD    SOD  200   0.292   5.798   2.553
   55SOD    SOD  201   1.612   7.703   2.204
   56SOD    SOD  202   1.737   2.666   5.187
   57SOD    SOD  203   6.780   0.771   6.240
   58SOD    SOD  204   5.109   3.489   6.289
   59SOD    SOD  205   1.598   4.317   3.030
   60CLA    CLA  206   3.002   0.719   4.022
   61CLA    CLA  207   4.741   0.167   3.947
   62CLA    CLA  208   0.738   2.604   5.552
   63CLA    CLA  209   2.698   2.205   1.642
   64CLA    CLA  210   1.351   7.406   0.192
   65CLA    CLA  211   0.143   5.195   5.664
   66CLA    CLA  212   0.222   7.008   0.956
   67CLA    CLA  213   4.175   7.108   3.582
   68CLA    CLA  214   4.522   5.120   5.239
   69CLA    CLA  215   1.811   5.628   1.640
   70CLA    CLA  216   0.240   2.511   3.431
   71CLA    CLA  217   3.226   6.586   5.331
   72CLA    CLA  218   6.435   0.911   6.722
   73CLA    CLA  219   8.119   4.292   1.426
   74CLA    CLA  220   7.335   5.971   5.090
   75CLA    CLA  221   7.796   3.238   0.849
   76CLA    CLA  222   2.682   0.706   5.665
   77CLA    CLA  223   5.908   7.502   2.175
   78CLA    CLA  224   2.529   1.503   6.117
   79CLA    CLA  225   3.728   3.227   0.750
   80CLA    CLA  226   0.582   1.373   1.163
   81CLA    CLA  227   4.946   1.079   4.032
   82CLA    CLA  228   0.180   3.389   3.682
   83CLA    CLA  229   7.185   5.956   6.229
   84CLA    CLA  230   6.455   5.193   4.293
   85CLA    CLA  231   5.343   4.385   2.288
   86CLA    CLA  232   7.136   7.328   3.801
   87CLA    CLA  233   1.746   7.299   1.458
   88CLA    CLA  234   7.950   4.561   4.915
   89CLA    CLA  235   1.516   7.564   3.894
   90CLA    CLA  236   6.363   5.840   2.987
   91CLA    CLA  237   7.017   5.435   1.860
   92CLA    CLA  238   1.434   1.389   3.877
   93CLA    CLA  239   7.034   4.961   1.964
   94CLA    CLA  240   2.752   3.078   3.678
   95CLA    CLA  241   3.853   4.158   3.352
   96CLA    CLA  242   5.871   0.265   4.377
   97CLA    CLA  243   0.254   2.131   0.943
   98CLA    CLA  244   6.510   4.020   3.937
   99CLA    CLA  245   3.245   4.965   5.525
  100CLA    CLA  246   3.382   5.848   5.692
  101CLA    CLA  247   4.991   3.180   4.851
  102TIP3   OH2  248   1.033   3.000   4.244
  102TIP3    H1  249   1.026   3.038   4.157
  102TIP3    H2  250   1.048   2.906   4.228
  103TIP3   OH2  251   7.521   3.034   5.605
  103TIP3    H1  252   7.464   3.017   5.529
  103TIP3    H2  253   7.460   3.043   5.679
  104TIP3   OH2  254   8.322   5.056   0.180
  104TIP3    H1  255   8.235   5.049   0.141
  104TIP3    H2  256   8.308   5.104   0.262
  105TIP3   OH2  257   2.739   4.568   5.087
  105TIP3    H1  258   2.827   4.601   5.107
  105TIP3    H2  259   2.680   4.638   5.114
  106TIP3   OH2  260   4.556   3.961   1.711
  106TIP3    H1  261   4.523   4.047   1.687
  106TIP3    H2  262   4.646   3.978   1.740
  107TIP3   OH2  263   3.290   7.769   3.137
  107TIP3    H1  264   3.200   7.793   3.113
  107TIP3    H2  265   3.323   7.845   3.184
  108TIP3   OH2  266   7.701   1.378   4.877
  108TIP3    H1  267   7.743   1.401   4.794
  108TIP3    H2  268   7.669   1.289   4.865
  109TIP3   OH2  269   2.482   2.466   0.026
  109TIP3    H1  270   2.494   2.545   0.079
  109TIP3    H2  271   2.469   2.396   0.090
  110TIP3   OH2  272   3.377   0.253   3.526
  110TIP3    H1  273   3.413   0.189   3.587
  110TIP3    H2  274   3.453   0.282   3.474
  111TIP3   OH2  275   2.328   4.391   0.889
  111TIP3    H1  276   2.291   4.310   0.853
  111TIP3    H2  277   2.417   4.395   0.853
  112TIP3   OH2  278   4.853   0.704   3.760
  112TIP3    H1  279   4.761   0.680   3.764
  112TIP3    H2  280   4.853   0.799   3.746
  113TIP3   OH2  281   5.664   7.566   4.846
  113TIP3    H1  282   5.593   7.507   4.818
  113TIP3    H2  283   5.724   7.510   4.895
  114TIP3   OH2  284   6.063   4.647   6.015
  114TIP3    H1  285   6.011   4.714   5.971
  114TIP3    H2  286   6.028   4.643   6.104
  115TIP3   OH2  287   0.153   0.955   6.044
  115TIP3    H1  288   0.140   0.931   6.136
  115TIP3    H2  289   0.067   0.943   6.004
  116TIP3   OH2  290   7.034   4.450   3.753
  116TIP3    H1  291   6.971   4.404   3.697
  116TIP3    H2  292   7.084   4.380   3.795
  117TIP3   OH2  293   4.778   1.162   3.112
  117TIP3    H1  294   4.747   1.092   3.171
  117TIP3    H2  295   4.707   1.225   3.110
  118TIP3   OH2  296   1.765   7.103   4.559
  118TIP3    H1  297   1.842   7.153   4.531
  118TIP3    H2  298   1.747   7.132   4.648
  119TIP3   OH2  299   0.232   6.700   3.781
  119TIP3    H1  300   0.236   6.728   3.872
  119TIP3    H2  301   0.163   6.634   3.779
  120TIP3   OH2  302   3.120   4.976   3.339
  120TIP3    H1  303   3.082   5.020   3.263
  120TIP3    H2  304   3.086   5.025   3.414
  121TIP3   OH2  305   2.356   6.556   0.789
  121TIP3    H1  306   2.429   6.548   0.727
  121TIP3    H2  307   2.285   6.507   0.749
  122TIP3   OH2  308   4.949   3.593   6.140
  122TIP3    H1  309   4.868   3.587   6.192
  122TIP3    H2  310   4.921   3.577   6.050
  123TIP3   OH2  311   4.195   1.255   1.904
  123TIP3    H1  312   4.125   1.280   1.844
  123TIP3    H2  313   4.245   1.336   1.917
  124TIP3   OH2  314   0.723   4.295   0.998
  124TIP3    H1  315   0.635   4.331   0.983
  124TIP3    H2  316   0.735   4.231   0.928
  125TIP3   OH2  317   1.670   4.119   3.131
  125TIP3    H1  318   1.760   4.110   3.163
  125TIP3    H2  319   1.650   4.034   3.091
  126TIP3   OH2  320   6.520   7.414   5.408
  126TIP3    H1  321   6.553   7.466   5.481
  126TIP3    H2  322   6.578   7.338   5.404
  127TIP3   OH2  323   7.916   4.223   0.475
  127TIP3    H1  324   8.006   4.254   0.468
  127TIP3    H2  325   7.924   4.128   0.480
  128TIP3   OH2  326   2.169   7.192   3.302
  128TIP3    H1  327   2.110   7.117   3.310
  128TIP3    H2  328   2.139   7.254   3.368
  129TIP3   OH2  329   1.145   7.143   6.560
  129TIP3    H1  330   1.125   7.078   6.628
  129TIP3    H2  331   1.070   7.138   6.500
  130TIP3   OH2  332   2.855   2.233   0.128
  130TIP3    H1  333   2.906   2.293   0.074
  130TIP3    H2  334   2.797   2.289   0.178
  131TIP3   OH2  335   4.473   6.629   5.603
  131TIP3    H1  336   4.382   6.642   5.576
  131TIP3    H2  337   4.478   6.537   5.628
  132TIP3   OH2  338   0.873   6.374   0.206
  132TIP3    H1  339   0.964   6.396   0.223
  132TIP3    H2  340   0.869   6.278   0.214
  133TIP3   OH2  341   1.622   4.963   0.776
  133TIP3    H1  342   1.587   4.939   0.689
  133TIP3    H2  343   1.586   4.897   0.835
  134TIP3   OH2  344   3.197   1.500   3.056
  134TIP3    H1  345   3.151   1.423   3.088
  134TIP3    H2  346   3.273   1.509   3.114
  135TIP3   OH2  347   0.988   1.848   6.454
  135TIP3    H1  348   0.988   1.755   6.476
  135TIP3    H2  349   1.023   1.891   6.531
  136TIP3   OH2  350   8.170   6.326   0.763
  136TIP3    H1  351   8.248   6.374   0.792
  136TIP3    H2  352   8.195   6.287   0.680
  137TIP3   OH2  353   2.189   1.240   0.342
  137TIP3    H1  354   2.220   1.150   0.353
  137TIP3    H2  355   2.267   1.293   0.354
  138TIP3   OH2  356   2.251   1.003   4.955
  138TIP3    H1  357   2.194   0.942   5.002
  138TIP3    H2  358   2.243   0.977   4.864
  139TIP3   OH2  359   6.073   3.574   1.619
  139TIP3    H1  360   6.043   3.586   1.528
  139TIP3    H2  361   6.024   3.497   1.650
  140TIP3   OH2  362   7.424   5.776   1.627
  140TIP3    H1  363   7.482   5.715   1.580
  140TIP3    H2  364   7.412   5.735   1.713
  141TIP3   OH2  365   6.253   0.704   0.294
  141TIP3    H1  366   6.228   0.725   0.383
  141TIP3    H2  367   6.308   0.777   0.266
  142TIP3   OH2  368   2.421   3.734   0.899
  142TIP3    H1  369   2.456   3.818   0.929
  142TIP3    H2  370   2.474   3.669   0.944
  143TIP3   OH2  371   6.762   1.310   4.638
  143TIP3    H1  372   6.705   1.258   4.582
  143TIP3    H2  373   6.731   1.400   4.627
  144TIP3   OH2  374   2.573   0.440   4.306
  144TIP3    H1  375   2.518   0.502   4.352
  144TIP3    H2  376   2.581   0.366   4.365
  145TIP3   OH2  377   2.764   0.607   6.591
  145TIP3    H1  378   2.843   0.555   6.582
  145TIP3    H2  379   2.786   0.691   6.551
  146TIP3   OH2  380   4.392   6.792   3.152
  146TIP3    H1  381   4.446   6.837   3.218
  146TIP3    H2  382   4.306   6.834   3.159
  147TIP3   OH2  383   3.993   7.808   5.274
  147TIP3    H1  384   3.899   7.806   5.293
  147TIP3    H2  385   3.999   7.789   5.181
  148TIP3   OH2  386   0.504   1.304   3.332
  148TIP3    H1  387   0.508   1.340   3.420
  148TIP3    H2  388   0.558   1.225   3.334
  149TIP3   OH2  389   1.292   7.732   0.353
  149TIP3    H1  390   1.334   7.720   0.268
  149TIP3    H2  391   1.357   7.702   0.416
  150TIP3   OH2  392   2.849   1.626   4.063
  150TIP3    H1  393   2.917   1.691   4.042
  150TIP3    H2  394   2.795   1.622   3.984
  151TIP3   OH2  395   5.465   0.425   2.469
  151TIP3    H1  396   5.555   0.409   2.440
  151TIP3    H2  397   5.433   0.340   2.497
  152TIP3   OH2  398   6.974   1.923   5.000
  152TIP3    H1  399   6.902   1.945   4.940
  152TIP3    H2  400   7.002   2.007   5.036
  153TIP3   OH2  401   2.383   6.208   4.787
  153TIP3    H1  402   2.290   6.193   4.799
  153TIP3    H2  403   2.425   6.128   4.819
  154TIP3   OH2  404   3.855   4.581   5.335
  154TIP3    H1  405   3.859   4.676   5.346
  154TIP3    H2  406   3.937   4.559   5.290
  155TIP3   OH2  407   3.286   5.099   4.714
  155TIP3    H1  408   3.242   5.062   4.637
  155TIP3    H2  409   3.270   5.035   4.783
  156TIP3   OH2  410   0.828   7.487   6.758
  156TIP3    H1  411   0.918   7.513   6.775
  156TIP3    H2  412   0.833   7.428   6.682
  157TIP3   OH2  413   4.553   0.456   2.666
  157TIP3    H1  414   4.488   0.421   2.604
  157TIP3    H2  415   4.626   0.484   2.611
  158TIP3   OH2  416   7.776   5.992   5.552
  158TIP3    H1  417   7.703   5.929   5.551
  158TIP3    H2  418   7.797   6.003   5.644
  159TIP3   OH2  419   6.998   1.117   1.721
  159TIP3    H1  420   6.977   1.025   1.705
  159TIP3    H2  421   6.974   1.131   1.813
  160TIP3   OH2  422   3.467   6.000   0.476
  160TIP3    H1  423   3.380   5.960   0.465
  160TIP3    H2  424   3.521   5.957   0.410
  161TIP3   OH2  425   6.377   5.264   6.667
  161TIP3    H1  426   6.401   5.180   6.628
  161TIP3    H2  427   6.322   5.241   6.742
  162TIP3   OH2  428   1.742   1.833   0.523
  162TIP3    H1  429   1.653   1.803   0.542
  162TIP3    H2  430   1.759   1.802   0.434
  163TIP3   OH2  431   6.707   5.590   2.326
  163TIP3    H1  432   6.786   5.638   2.302
  163TIP3    H2  433   6.684   5.542   2.246
  164TIP3   OH2  434   1.174   4.744   5.256
  164TIP3    H1  435   1.094   4.706   5.220
  164TIP3    H2  436   1.160   4.838   5.251
  165TIP3   OH2  437   4.909   2.529   2.429
  165TIP3    H1  438   4.991   2.578   2.431
  165TIP3    H2  439   4.936   2.439   2.412
  166TIP3   OH2  440   7.719   5.534   3.578
  166TIP3    H1  441   7.785   5.516   3.510
  166TIP3    H2  442   7.701   5.627   3.570
  167TIP3   OH2  443   2.510   2.447   4.425
  167TIP3    H1  444   2.521   2.532   4.383
  167TIP3    H2  445   2.547   2.384   4.363
  168TIP3   OH2  446   2.023   1.579   3.280
  168TIP3    H1  447   1.928   1.576   3.281
  168TIP3    H2  448   2.049   1.504   3.227
  169TIP3   OH2  449   7.320   0.196   0.810
  169TIP3    H1  450   7.256   0.142   0.856
  169TIP3    H2  451   7.279   0.282   0.803
  170TIP3   OH2  452   3.206   3.299   2.536
  170TIP3    H1  453   3.189   3.214   2.577
  170TIP3    H2  454   3.294   3.290   2.499
  171TIP3   OH2  455   8.251   4.747   0.769
  171TIP3    H1  456   8.270   4.655   0.784
  171TIP3    H2  457   8.163   4.748   0.730
  172TIP3   OH2  458   5.078   4.108   2.654
  172TIP3    H1  459   5.124   4.163   2.718
  172TIP3    H2  460   5.105   4.019   2.676
  173TIP3   OH2  461   7.414   4.702   2.020
  173TIP3    H1  462   7.324   4.674   2.000
  173TIP3    H2  463   7.421   4.790   1.983
  174TIP3   OH2  464   2.220   2.425   6.608
  174TIP3    H1  465   2.211   2.480   6.685
  174TIP3    H2  466   2.261   2.482   6.542
  175TIP3   OH2  467   6.665   7.708   4.863
  175TIP3    H1  468   6.677   7.760   4.942
  175TIP3    H2  469   6.585   7.659   4.879
  176TIP3   OH2  470   0.270   1.133   1.987
  176TIP3    H1  471   0.226   1.207   1.947
  176TIP3    H2  472   0.334   1.172   2.047
  177TIP3   OH2  473   3.142   2.767   5.360
  177TIP3    H1  474   3.145   2.765   5.265
  177TIP3    H2  475   3.232   2.751   5.387
  178TIP3   OH2  476   6.598   3.774   3.653
  178TIP3    H1  477   6.643   3.814   3.727
  178TIP3    H2  478   6.509   3.808   3.659
  179TIP3   OH2  479   3.852   7.135   0.594
  179TIP3    H1  480   3.812   7.063   0.546
  179TIP3    H2  481   3.826   7.121   0.685
  180TIP3   OH2  482   7.820   6.798   6.114
  180TIP3    H1  483   7.888   6.858   6.084
  180TIP3    H2  484   7.740   6.830   6.072
  181TIP3   OH2  485   5.680   4.347   2.739
  181TIP3    H1  486   5.595   4.335   2.697
  181TIP3    H2  487   5.663   4.404   2.813
  182TIP3   OH2  488   4.463   0.100   1.039
  182TIP3    H1  489   4.429   0.045   1.110
  182TIP3    H2  490   4.526   0.158   1.083
  183TIP3   OH2  491   1.482   1.523   1.849
  183TIP3    H1  492   1.464   1.435   1.881
  183TIP3    H2  493   1.570   1.518   1.813
  184TIP3   OH2  494   1.364   5.046   1.628
  184TIP3    H1  495   1.413   5.112   1.580
  184TIP3    H2  496   1.360   5.080   1.718
  185TIP3   OH2  497   4.923   3.081   0.418
  185TIP3    H1  498   4.862   3.124   0.358
  185TIP3    H2  499   4.984   3.150   0.444
  186TIP3   OH2  500   4.526   6.544   3.344
  186TIP3    H1  501   4.474   6.496   3.279
  186TIP3    H2  502   4.517   6.636   3.319
  187TIP3   OH2  503   4.327   0.487   2.297
  187TIP3    H1  504   4.316   0.452   2.385
  187TIP3    H2  505   4.410   0.450   2.267
  188TIP3   OH2  506   3.990   4.407   3.781
  188TIP3    H1  507   3.946   4.325   3.758
  188TIP3    H2  508   3.933   4.476   3.746
  189TIP3   OH2  509   3.771   5.392   3.997
  189TIP3    H1  510   3.799   5.381   3.906
  189TIP3    H2  511   3.734   5.307   4.021
  190TIP3   OH2  512   7.198   7.181   5.559
  190TIP3    H1  513   7.143   7.259   5.562
  190TIP3    H2  514   7.281   7.211   5.522
  191TIP3   OH2  515   5.403   0.095   0.702
  191TIP3    H1  516   5.359   0.174   0.668
  191TIP3    H2  517   5.458   0.127   0.773
  192TIP3   OH2  518   2.196   2.085   2.585
  192TIP3    H1  519   2.161   2.093   2.674
  192TIP3    H2  520   2.234   2.170   2.567
  193TIP3   OH2  521   5.070   5.993   4.146
  193TIP3    H1  522   4.993   6.042   4.119
  193TIP3    H2  523   5.040   5.903   4.153
  194TIP3   OH2  524   7.321   4.335   2.583
  194TIP3    H1  525   7.383   4.353   2.653
  194TIP3    H2  526   7.310   4.240   2.585
  195TIP3   OH2  527   5.701   7.160   6.599
  195TIP3    H1  528   5.634   7.227   6.591
  195TIP3    H2  529   5.777   7.196   6.554
  196TIP3   OH2  530   5.326   5.808   1.826
  196TIP3    H1  531   5.351   5.812   1.734
  196TIP3    H2  532   5.387   5.868   1.870
  197TIP3   OH2  533   5.084   1.492   4.765
  197TIP3    H1  534   5.011   1.483   4.827
  197TIP3    H2  535   5.042   1.490   4.679
  198TIP3   OH2  536   6.643   0.239   1.566
  198TIP3    H1  537   6.559   0.214   1.528
  198TIP3    H2  538   6.619   0.295   1.640
  199TIP3   OH2  539   5.951   5.849   0.302
  199TIP3    H1  540   5.977   5.785   0.368
  199TIP3    H2  541   5.884   5.902   0.345
  200TIP3   OH2  542   7.723   2.285   2.174
  200TIP3    H1  543   7.637   2.323   2.153
  200TIP3    H2  544   7.716   2.261   2.267
  201TIP3   OH2  545   5.179   6.275   0.807
  201TIP3    H1  546   5.241   6.347   0.798
  201TIP3    H2  547   5.158   6.273   0.900
  202TIP3   OH2  548   1.480   6.866   0.913
  202TIP3    H1  549   1.545   6.840   0.978
  202TIP3    H2  550   1.411   6.909   0.963
  203TIP3   OH2  551   6.079   5.952   1.980
  203TIP3    H1  552   6.117   5.864   1.983
  203TIP3    H2  553   6.096   5.989   2.066
  204TIP3   OH2  554   0.962   6.201   6.466
  204TIP3    H1  555   1.013   6.274   6.432
  204TIP3    H2  556   0.907   6.240   6.534
  205TIP3   OH2  557   3.457   5.285   4.795
  205TIP3    H1  558   3.401   5.222   4.750
  205TIP3    H2  559   3.487   5.238   4.873
  206TIP3   OH2  560   7.291   6.253   5.155
  206TIP3    H1  561   7.231   6.251   5.230
  206TIP3    H2  562   7.307   6.161   5.135
  207TIP3   OH2  563   5.887   1.900   5.455
  207TIP3    H1  564   5.875   1.995   5.453
  207TIP3    H2  565   5.933   1.883   5.537
  208TIP3   OH2  566   1.070   7.283   1.490
  208TIP3    H1  567   0.981   7.313   1.477
  208TIP3    H2  568   1.075   7.261   1.584
  209TIP3   OH2  569   2.095   5.556   4.350
  209TIP3    H1  570   2.045   5.475   4.342
  209TIP3    H2  571   2.152   5.541   4.426
  210TIP3   OH2  572   1.340   7.231   1.131
  210TIP3    H1  573   1.400   7.302   1.109
  210TIP3    H2  574   1.371   7.199   1.216
  211TIP3   OH2  575   3.046   5.865   3.243
  211TIP3    H1  576   3.038   5.796   3.177
  211TIP3    H2  577   3.121   5.839   3.296
  212TIP3   OH2  578   5.134   5.073   4.303
  212TIP3    H1  579   5.174   5.159   4.287
  212TIP3    H2  580   5.044   5.093   4.328
  213TIP3   OH2  581   1.416   5.161   6.439
  213TIP3    H1  582   1.498   5.118   6.415
  213TIP3    H2  583   1.366   5.166   6.357
  214TIP3   OH2  584   2.004   2.488   6.146
  214TIP3    H1  585   2.008   2.449   6.059
  214TIP3    H2  586   1.946   2.564   6.135
  215TIP3   OH2  587   8.176   1.417   2.153
  215TIP3    H1  588   8.169   1.488   2.217
  215TIP3    H2  589   8.088   1.411   2.114
  216TIP3   OH2  590   6.934   2.883   4.077
  216TIP3    H1  591   6.990   2.805   4.077
  216TIP3    H2  592   6.992   2.954   4.049
  217TIP3   OH2  593   2.649   7.672   1.989
  217TIP3    H1  594   2.668   7.645   1.899
  217TIP3    H2  595   2.576   7.617   2.016
  218TIP3   OH2  596   7.106   1.554   1.538
  218TIP3    H1  597   7.095   1.493   1.465
  218TIP3    H2  598   7.091   1.641   1.499
  219TIP3   OH2  599   7.089   6.193   2.222
  219TIP3    H1  600   6.998   6.209   2.197
  219TIP3    H2  601   7.096   6.230   2.310
  220TIP3   OH2  602   6.032   2.959   5.708
  220TIP3    H1  603   6.035   2.865   5.689
  220TIP3    H2  604   6.107   2.996   5.660
  221TIP3   OH2  605   4.404   3.952   2.261
  221TIP3    H1  606   4.427   4.002   2.339
  221TIP3    H2  607   4.449   3.998   2.190
  222TIP3   OH2  608   3.606   3.017   1.012
  222TIP3    H1  609   3.618   3.111   1.003
  222TIP3    H2  610   3.691   2.984   1.039
  223TIP3   OH2  611   4.866   4.406   1.625
  223TIP3    H1  612   4.842   4.494   1.596
  223TIP3    H2  613   4.925   4.373   1.557
  224TIP3   OH2  614   2.471   6.141   3.159
  224TIP3    H1  615   2.399   6.132   3.221
  224TIP3    H2  616   2.448   6.083   3.087
  225TIP3   OH2  617   2.274   5.539   5.133
  225TIP3    H1  618   2.249   5.465   5.078
  225TIP3    H2  619   2.192   5.587   5.147
  226TIP3   OH2  620   0.933   7.001   5.315
  226TIP3    H1  621   0.845   7.008   5.351
  226TIP3    H2  622   0.945   7.082   5.266
  227TIP3   OH2  623   7.808   1.025   1.164
  227TIP3    H1  624   7.872   1.093   1.185
  227TIP3    H2  625   7.780   0.992   1.250
  228TIP3   OH2  626   0.618   5.913   1.289
  228TIP3    H1  627   0.523   5.926   1.297
  228TIP3    H2  628   0.656   5.996   1.321
  229TIP3   OH2  629   6.551   7.312   1.518
  229TIP3    H1  630   6.513   7.338   1.601
  229TIP3    H2  631   6.475   7.297   1.460
  230TIP3   OH2  632   0.925   5.624   3.348
  230TIP3    H1  633   0.938   5.681   3.272
  230TIP3    H2  634   0.831   5.608   3.350
  231TIP3   OH2  635   3.133   5.621   3.117
  231TIP3    H1  636   3.096   5.533   3.123
  231TIP3    H2  637   3.202   5.622   3.183
  232TIP3   OH2  638   5.510   1.613   4.311
  232TIP3    H1  639   5.605   1.613   4.298
  232TIP3    H2  640   5.499   1.643   4.401
  233TIP3   OH2  641   1.548   5.644   2.760
  233TIP3    H1  642   1.557   5.651   2.665
  233TIP3    H2  643   1.623   5.694   2.795
  234TIP3   OH2  644   2.977   6.335   6.376
  234TIP3    H1  645   3.042   6.266   6.391
  234TIP3    H2  646   2.991   6.397   6.448
  235TIP3   OH2  647   1.801   5.280   4.835
  235TIP3    H1  648   1.833   5.243   4.917
  235TIP3    H2  649   1.748   5.210   4.796
  236TIP3   OH2  650  -0.022   1.476   3.504
  236TIP3    H1  651   0.042   1.463   3.575
  236TIP3    H2  652   0.026   1.454   3.425
  237TIP3   OH2  653   3.365   5.972   3.194
  237TIP3    H1  654   3.356   5.923   3.276
  237TIP3    H2  655   3.297   6.039   3.198
  238TIP3   OH2  656   7.662   4.614   5.113
  238TIP3    H1  657   7.726   4.677   5.147
  238TIP3    H2  658   7.714   4.556   5.057
  239TIP3   OH2  659   0.805   5.180   1.941
  239TIP3    H1  660   0.780   5.262   1.900
  239TIP3    H2  661   0.889   5.199   1.983
  240TIP3   OH2  662   4.958   5.688   6.227
  240TIP3    H1  663   4.892   5.644   6.172
  240TIP3    H2  664   4.978   5.769   6.181
  241TIP3   OH2  665   2.662   2.753   0.056
  241TIP3    H1  666   2.584   2.737   0.003
  241TIP3    H2  667   2.650   2.842   0.090
  242TIP3   OH2  668   3.972   6.095   3.126
  242TIP3    H1  669   4.021   6.162   3.078
  242TIP3    H2  670   3.959   6.025   3.062
  243TIP3   OH2  671   0.977   2.045   4.188
  243TIP3    H1  672   1.040   1.987   4.230
  243TIP3    H2  673   0.911   2.061   4.255
  244TIP3   OH2  674   8.187   1.186   5.291
  244TIP3    H1  675   8.169   1.218   5.203
  244TIP3    H2  676   8.222   1.098   5.278
  245TIP3   OH2  677   6.511   3.865   0.734
  245TIP3    H1  678   6.435   3.872   0.676
  245TIP3    H2  679   6.506   3.776   0.770
  246TIP3   OH2  680   4.920   4.223   6.254
  246TIP3    H1  681   4.844   4.278   6.272
  246TIP3    H2  682   4.986   4.251   6.318
  247TIP3   OH2  683   6.049   1.748   3.883
  247TIP3    H1  684   6.121   1.809   3.900
  247TIP3    H2  685   6.092   1.670   3.848
  248TIP3   OH2  686   4.475   6.438   0.437
  248TIP3    H1  687   4.530   6.387   0.496
  248TIP3    H2  688   4.478   6.390   0.354
  249TIP3   OH2  689   4.087   2.683   2.563
  249TIP3    H1  690   4.028   2.739   2.511
  249TIP3    H2  691   4.030   2.616   2.600
  250TIP3   OH2  692   4.520   7.685   5.630
  250TIP3    H1  693   4.521   7.610   5.689
  250TIP3    H2  694   4.494   7.759   5.685
  251TIP3   OH2  695   3.660   6.179   5.206
  251TIP3    H1  696   3.681   6.212   5.293
  251TIP3    H2  697   3.566   6.164   5.207
  252TIP3   OH2  698   0.942   1.292   0.998
  252TIP3    H1  699   0.906   1.203   1.005
  252TIP3    H2  700   0.872   1.343   0.956
  253TIP3   OH2  701   5.072   6.572   3.601
  253TIP3    H1  702   5.053   6.637   3.533
  253TIP3    H2  703   5.017   6.497   3.578
  254TIP3   OH2  704   3.839   4.427   3.186
  254TIP3    H1  705   3.835   4.344   3.234
  254TIP3    H2  706   3.928   4.430   3.151
  255TIP3   OH2  707   7.429   1.702   3.826
  255TIP3    H1  708   7.523   1.715   3.816
  255TIP3    H2  709   7.409   1.624   3.775
  256TIP3   OH2  710   1.485   0.634   1.086
  256TIP3    H1  711   1.462   0.722   1.058
  256TIP3    H2  712   1.523   0.645   1.173
  257TIP3   OH2  713   4.241   2.917   4.997
  257TIP3    H1  714   4.289   2.999   4.983
  257TIP3    H2  715   4.155   2.946   5.029
  258TIP3   OH2  716   4.132   5.458   1.677
  258TIP3    H1  717   4.114   5.526   1.742
  258TIP3    H2  718   4.102   5.495   1.594
  259TIP3   OH2  719   5.145   0.326   1.960
  259TIP3    H1  720   5.173   0.412   1.989
  259TIP3    H2  721   5.216   0.267   1.984
  260TIP3   OH2  722   3.077   2.928   3.056
  260TIP3    H1  723   2.999   2.982   3.042
  260TIP3    H2  724   3.094   2.936   3.150
  261TIP3   OH2  725   5.208   3.177   3.826
  261TIP3    H1  726   5.205   3.106   3.762
  261TIP3    H2  727   5.116   3.201   3.839
  262TIP3   OH2  728   5.149   6.382   3.309
  262TIP3    H1  729   5.145   6.290   3.335
  262TIP3    H2  730   5.235   6.412   3.339
  263TIP3   OH2  731   7.577   1.330   4.444
  263TIP3    H1  732   7.482   1.335   4.434
  263TIP3    H2  733   7.592   1.244   4.485
  264TIP3   OH2  734   6.935   0.649   2.370
  264TIP3    H1  735   6.899   0.561   2.363
  264TIP3    H2  736   6.955   0.660   2.463
  265TIP3   OH2  737   3.659   4.488   5.526
  265TIP3    H1  738   3.705   4.529   5.452
  265TIP3    H2  739   3.594   4.554   5.553
  266TIP3   OH2  740   6.234   1.911   6.214
  266TIP3    H1  741   6.268   1.947   6.296
  266TIP3    H2  742   6.194   1.827   6.239
  267TIP3   OH2  743   6.395   0.053   2.816
  267TIP3    H1  744   6.382   0.064   2.910
  267TIP3    H2  745   6.400   0.142   2.781
  268TIP3   OH2  746   7.431   3.452   4.303
  268TIP3    H1  747   7.417   3.379   4.362
  268TIP3    H2  748   7.366   3.517   4.330
  269TIP3   OH2  749   0.421   2.455   6.582
  269TIP3    H1  750   0.433   2.549   6.590
  269TIP3    H2  751   0.357   2.432   6.649
  270TIP3   OH2  752   1.029   7.804   4.425
  270TIP3    H1  753   1.036   7.710   4.406
  270TIP3    H2  754   1.058   7.847   4.344
  271TIP3   OH2  755   3.361   3.348   3.706
  271TIP3    H1  756   3.430   3.293   3.667
  271TIP3    H2  757   3.298   3.361   3.635
  272TIP3   OH2  758   4.877   7.625   5.951
  272TIP3    H1  759   4.795   7.666   5.979
  272TIP3    H2  760   4.856   7.587   5.866
  273TIP3   OH2  761   7.528   0.358   3.158
  273TIP3    H1  762   7.503   0.296   3.227
  273TIP3    H2  763   7.618   0.382   3.178
  274TIP3   OH2  764   0.683   7.465   5.564
  274TIP3    H1  765   0.611   7.404   5.579
  274TIP3    H2  766   0.707   7.452   5.472
  275TIP3   OH2  767   1.322   2.908   6.110
  275TIP3    H1  768   1.392   2.940   6.167
  275TIP3    H2  769   1.368   2.862   6.039
  276TIP3   OH2  770   1.247   6.275   3.020
  276TIP3    H1  771   1.247   6.347   3.083
  276TIP3    H2  772   1.231   6.318   2.936
  277TIP3   OH2  773   0.044   7.514   1.611
  277TIP3    H1  774   0.084   7.589   1.655
  277TIP3    H2  775   0.109   7.486   1.546
  278TIP3   OH2  776   7.241   5.963   0.840
  278TIP3    H1  777   7.292   5.890   0.875
  278TIP3    H2  778   7.298   6.039   0.853
  279TIP3   OH2  779   7.691   1.400   1.303
  279TIP3    H1  780   7.602   1.375   1.327
  279TIP3    H2  781   7.720   1.456   1.375
  280TIP3   OH2  782   2.302   1.466   5.480
  280TIP3    H1  783   2.227   1.467   5.420
  280TIP3    H2  784   2.319   1.373   5.495
  281TIP3   OH2  785   2.654   3.362   4.142
  281TIP3    H1  786   2.697   3.355   4.057
  281TIP3    H2  787   2.673   3.451   4.172
  282TIP3   OH2  788   5.358   7.189   6.747
  282TIP3    H1  789   5.348   7.171   6.653
  282TIP3    H2  790   5.273   7.224   6.773
  283TIP3   OH2  791   5.929   4.684   3.615
  283TIP3    H1  792   5.953   4.672   3.707
  283TIP3    H2  793   5.932   4.596   3.577
  284TIP3   OH2  794   7.740   2.584   4.007
  284TIP3    H1  795   7.654   2.580   4.051
  284TIP3    H2  796   7.749   2.676   3.981
  285TIP3   OH2  797   4.252   0.611   3.600
  285TIP3    H1  798   4.284   0.691   3.642
  285TIP3    H2  799   4.157   0.613   3.615
  286TIP3   OH2  800   2.499   5.784   4.058
  286TIP3    H1  801   2.478   5.797   3.966
  286TIP3    H2  802   2.424   5.735   4.093
  287TIP3   OH2  803   7.975   0.857   6.612
  287TIP3    H1  804   7.937   0.776   6.578
  287TIP3    H2  805   7.909   0.891   6.673
  288TIP3   OH2  806   4.457   4.025   0.751
  288TIP3    H1  807   4.532   3.966   0.745
  288TIP3    H2  808   4.382   3.967   0.765
  289TIP3   OH2  809   1.637   1.246   4.224
  289TIP3    H1  810   1.633   1.185   4.298
  289TIP3    H2  811   1.641   1.189   4.147
  290TIP3   OH2  812   1.286   3.296   2.572
  290TIP3    H1  813   1.323   3.384   2.566
  290TIP3    H2  814   1.274   3.269   2.481
  291TIP3   OH2  815   3.135   5.083   1.510
  291TIP3    H1  816   3.228   5.071   1.493
  291TIP3    H2  817   3.123   5.177   1.513
  292TIP3   OH2  818   8.099   6.686   4.058
  292TIP3    H1  819   8.077   6.631   4.133
  292TIP3    H2  820   8.087   6.629   3.982
  293TIP3   OH2  821   0.695   6.651   0.500
  293TIP3    H1  822   0.613   6.626   0.458
  293TIP3    H2  823   0.739   6.568   0.519
  294TIP3   OH2  824   7.094   6.172   3.505
  294TIP3    H1  825   7.040   6.251   3.513
  294TIP3    H2  826   7.034   6.104   3.475
  295TIP3   OH2  827   3.195   5.119   3.774
  295TIP3    H1  828   3.206   5.043   3.831
  295TIP3    H2  829   3.125   5.094   3.713
  296TIP3   OH2  830   7.309   5.114   5.672
  296TIP3    H1  831   7.280   5.045   5.731
  296TIP3    H2  832   7.327   5.069   5.589
  297TIP3   OH2  833   7.153   7.025   2.734
  297TIP3    H1  834   7.104   7.092   2.782
  297TIP3    H2  835   7.219   6.994   2.796
  298TIP3   OH2  836   3.660   3.029   3.392
  298TIP3    H1  837   3.573   3.032   3.431
  298TIP3    H2  838   3.667   3.112   3.344
  299TIP3   OH2  839   2.262   3.683   3.505
  299TIP3    H1  840   2.306   3.610   3.462
  299TIP3    H2  841   2.179   3.691   3.458
  300TIP3   OH2  842   6.629   1.802   1.307
  300TIP3    H1  843   6.664   1.806   1.396
  300TIP3    H2  844   6.592   1.888   1.292
  301TIP3   OH2  845   1.997   0.870   4.587
  301TIP3    H1  846   2.023   0.832   4.671
  301TIP3    H2  847   1.981   0.794   4.531
  302TIP3   OH2  848   0.251   5.515   2.244
  302TIP3    H1  849   0.340   5.549   2.233
  302TIP3    H2  850   0.220   5.502   2.154
  303TIP3   OH2  851   5.793   0.963   0.058
  303TIP3    H1  852   5.869   0.950   0.116
  303TIP3    H2  853   5.762   1.051   0.079
  304TIP3   OH2  854   2.745   3.343   5.988
  304TIP3    H1  855   2.799   3.307   6.058
  304TIP3    H2  856   2.776   3.433   5.978
  305TIP3   OH2  857   6.448   4.846   5.753
  305TIP3    H1  858   6.515   4.792   5.712
  305TIP3    H2  859   6.373   4.788   5.765
  306TIP3   OH2  860   3.607   1.829   0.955
  306TIP3    H1  861   3.512   1.823   0.947
  306TIP3    H2  862   3.625   1.806   1.047
  307TIP3   OH2  863   3.279   2.525   4.312
  307TIP3    H1  864   3.318   2.448   4.353
  307TIP3    H2  865   3.349   2.590   4.311
  308TIP3   OH2  866   5.014   6.811   3.495
  308TIP3    H1  867   4.963   6.882   3.534
  308TIP3    H2  868   4.960   6.780   3.422
  309TIP3   OH2  869   4.282   7.618   5.462
  309TIP3    H1  870   4.349   7.671   5.506
  309TIP3    H2  871   4.287   7.645   5.370
  310TIP3   OH2  872   7.868   7.105   6.675
  310TIP3    H1  873   7.859   7.098   6.770
  310TIP3    H2  874   7.855   7.198   6.657
  311TIP3   OH2  875   6.830   5.317   0.293
  311TIP3    H1  876   6.902   5.355   0.343
  311TIP3    H2  877   6.778   5.392   0.264
  312TIP3   OH2  878   4.373   1.166   2.724
  312TIP3    H1  879   4.333   1.079   2.712
  312TIP3    H2  880   4.416   1.183   2.640
  313TIP3   OH2  881   7.607   5.747   3.073
  313TIP3    H1  882   7.623   5.838   3.048
  313TIP3    H2  883   7.686   5.722   3.121
  314TIP3   OH2  884   2.500   7.210   3.015
  314TIP3    H1  885   2.428   7.165   2.971
  314TIP3    H2  886   2.579   7.171   2.978
  315TIP3   OH2  887   3.983   4.010   4.594
  315TIP3    H1  888   3.907   4.055   4.629
  315TIP3    H2  889   4.058   4.061   4.625
  316TIP3   OH2  890   1.614   0.876   3.753
  316TIP3    H1  891   1.669   0.921   3.689
  316TIP3    H2  892   1.540   0.843   3.702
  317TIP3   OH2  893   1.703   6.632   4.061
  317TIP3    H1  894   1.709   6.718   4.102
  317TIP3    H2  895   1.779   6.627   4.004
  318TIP3   OH2  896   7.749   5.509   5.535
  318TIP3    H1  897   7.731   5.545   5.622
  318TIP3    H2  898   7.748   5.414   5.547
  319TIP3   OH2  899   6.867   7.581   2.826
  319TIP3    H1  900   6.834   7.669   2.806
  319TIP3    H2  901   6.909   7.553   2.745
  320TIP3   OH2  902   7.090   7.509   3.048
  320TIP3    H1  903   7.019   7.513   3.113
  320TIP3    H2  904   7.126   7.597   3.047
  321TIP3   OH2  905   5.845   4.719   1.009
  321TIP3    H1  906   5.769   4.752   0.961
  321TIP3    H2  907   5.856   4.780   1.082
  322TIP3   OH2  908   2.997   1.494   4.496
  322TIP3    H1  909   3.048   1.413   4.501
  322TIP3    H2  910   2.935   1.479   4.424
  323TIP3   OH2  911   0.569   7.538   3.205
  323TIP3    H1  912   0.527   7.577   3.128
  323TIP3    H2  913   0.509   7.555   3.277
  324TIP3   OH2  914   6.421   1.593   4.898
  324TIP3    H1  915   6.506   1.555   4.918
  324TIP3    H2  916   6.396   1.641   4.977
  325TIP3   OH2  917   5.074   6.304   1.543
  325TIP3    H1  918   5.135   6.234   1.519
  325TIP3    H2  919   4.993   6.258   1.566
  326TIP3   OH2  920   7.705   3.087   3.974
  326TIP3    H1  921   7.706   3.107   4.068
  326TIP3    H2  922   7.756   3.006   3.966
  327TIP3   OH2  923   6.003   3.474   3.925
  327TIP3    H1  924   6.021   3.544   3.988
  327TIP3    H2  925   6.070   3.408   3.943
  328TIP3   OH2  926   0.958   7.669   3.693
  328TIP3    H1  927   0.910   7.588   3.676
  328TIP3    H2  928   1.044   7.654   3.654
  329TIP3   OH2  929   1.804   4.534   1.334
  329TIP3    H1  930   1.805   4.594   1.259
  329TIP3    H2  931   1.881   4.560   1.386
  330TIP3   OH2  932   1.189   2.292   4.801
  330TIP3    H1  933   1.280   2.301   4.828
  330TIP3    H2  934   1.160   2.382   4.788
  331TIP3   OH2  935   4.262   2.498   1.397
  331TIP3    H1  936   4.231   2.527   1.311
  331TIP3    H2  937   4.264   2.402   1.390
  332TIP3   OH2  938   3.210   6.256   0.223
  332TIP3    H1  939   3.137   6.255   0.285
  332TIP3    H2  940   3.283   6.218   0.271
  333TIP3   OH2  941   6.945   6.697   0.549
  333TIP3    H1  942   6.890   6.705   0.627
  333TIP3    H2  943   7.026   6.656   0.580
  334TIP3   OH2  944   3.103   0.819   5.624
  334TIP3    H1  945   3.032   0.828   5.687
  334TIP3    H2  946   3.061   0.828   5.539
  335TIP3   OH2  947   8.173   6.546   6.466
  335TIP3    H1  948   8.214   6.633   6.465
  335TIP3    H2  949   8.086   6.560   6.428
  336TIP3   OH2  950   7.507   6.199   1.989
  336TIP3    H1  951   7.454   6.160   1.919
  336TIP3    H2  952   7.447   6.258   2.034
  337TIP3   OH2  953   1.899   4.808   2.785
  337TIP3    H1  954   1.962   4.797   2.714
  337TIP3    H2  955   1.815   4.785   2.746
  338TIP3   OH2  956   6.091   2.026   2.981
  338TIP3    H1  957   5.999   2.021   3.007
  338TIP3    H2  958   6.128   1.940   3.004
  339TIP3   OH2  959   5.949   5.763   1.395
  339TIP3    H1  960   5.914   5.851   1.379
  339TIP3    H2  961   6.044   5.773   1.387
  340TIP3   OH2  962   3.445   3.140   6.381
  340TIP3    H1  963   3.395   3.069   6.423
  340TIP3    H2  964   3.534   3.105   6.374
  341TIP3   OH2  965   1.482   2.987   2.379
  341TIP3    H1  966   1.438   2.996   2.295
  341TIP3    H2  967   1.536   2.908   2.370
  342TIP3   OH2  968   7.023   7.028   4.165
  342TIP3    H1  969   7.077   7.101   4.193
  342TIP3    H2  970   6.999   7.049   4.074
  343TIP3   OH2  971   3.047   3.705   2.255
  343TIP3    H1  972   2.998   3.689   2.175
  343TIP3    H2  973   3.059   3.618   2.294
  344TIP3   OH2  974   6.883   6.126   0.269
  344TIP3    H1  975   6.907   6.201   0.323
  344TIP3    H2  976   6.843   6.064   0.330
  345TIP3   OH2  977   5.938   4.180   5.235
  345TIP3    H1  978   5.953   4.213   5.146
  345TIP3    H2  979   5.933   4.259   5.288
  346TIP3   OH2  980   5.754   0.082   6.152
  346TIP3    H1  981   5.750   0.034   6.069
  346TIP3    H2  982   5.840   0.064   6.187
  347TIP3   OH2  983   3.915   1.228   5.840
  347TIP3    H1  984   3.819   1.237   5.846
  347TIP3    H2  985   3.927   1.151   5.784
  348TIP3   OH2  986   7.494   1.291   1.501
  348TIP3    H1  987   7.405   1.314   1.475
  348TIP3    H2  988   7.523   1.365   1.554
  349TIP3   OH2  989   0.338   4.747   2.648
  349TIP3    H1  990   0.278   4.702   2.707
  349TIP3    H2  991   0.296   4.743   2.562
  350TIP3   OH2  992   8.064   5.140   2.261
  350TIP3    H1  993   7.994   5.099   2.210
  350TIP3    H2  994   8.142   5.089   2.240
  351TIP3   OH2  995   5.640   3.759   5.842
  351TIP3    H1  996   5.657   3.693   5.775
  351TIP3    H2  997   5.697   3.734   5.915
  352TIP3   OH2  998   5.479   5.147   6.238
  352TIP3    H1  999   5.462   5.141   6.144
  352TIP3    H2 1000   5.427   5.076   6.277
  353TIP3   OH2 1001   6.694   4.747   0.671
  353TIP3    H1 1002   6.715   4.841   0.679
  353TIP3    H2 1003   6.631   4.743   0.599
  354TIP3   OH2 1004   3.739   0.557   1.788
  354TIP3    H1 1005   3.817   0.605   1.816
  354TIP3    H2 1006   3.704   0.518   1.868
  355TIP3   OH2 1007   2.376   2.339   0.521
  355TIP3    H1 1008   2.309   2.286   0.565
  355TIP3    H2 1009   2.346   2.429   0.533
  356TIP3   OH2 1010   7.834   4.385   4.673
  356TIP3    H1 1011   7.871   4.449   4.733
  356TIP3    H2 1012   7.883   4.397   4.592
  357TIP3   OH2 1013   4.071   3.065   5.181
  357TIP3    H1 1014   4.149   3.101   5.223
  357TIP3    H2 1015   4.029   3.013   5.250
  358TIP3   OH2 1016   6.688   2.226   6.374
  358TIP3    H1 1017   6.731   2.231   6.459
  358TIP3    H2 1018   6.696   2.314   6.337
  359TIP3   OH2 1019   0.483   5.081   0.104
  359TIP3    H1 1020   0.417   5.067   0.036
  359TIP3    H2 1021   0.566   5.084   0.057
  360TIP3   OH2 1022   3.470   6.600   4.914
  360TIP3    H1 1023   3.454   6.694   4.903
  360TIP3    H2 1024   3.565   6.590   4.907
  361TIP3   OH2 1025   2.864   7.369   1.779
  361TIP3    H1 1026   2.855   7.378   1.874
  361TIP3    H2 1027   2.831   7.452   1.744
  362TIP3   OH2 1028   1.489   1.785   1.941
  362TIP3    H1 1029   1.570   1.812   1.898
  362TIP3    H2 1030   1.470   1.698   1.905
  363TIP3   OH2 1031   7.484   4.821   3.036
  363TIP3    H1 1032   7.520   4.785   2.955
  363TIP3    H2 1033   7.442   4.747   3.079
  364TIP3   OH2 1034   7.149   4.987   3.445
  364TIP3    H1 1035   7.078   5.004   3.383
  364TIP3    H2 1036   7.104   4.967   3.527
  365TIP3   OH2 1037   3.219   1.913   6.255
  365TIP3    H1 1038   3.255   1.832   6.219
  365TIP3    H2 1039   3.267   1.926   6.337
  366TIP3   OH2 1040   1.556   4.395   2.324
  366TIP3    H1 1041   1.554   4.448   2.404
  366TIP3    H2 1042   1.490   4.435   2.268
  367TIP3   OH2 1043   3.922   0.899   2.020
  367TIP3    H1 1044   4.009   0.926   1.990
  367TIP3    H2 1045   3.913   0.808   1.991
  368TIP3   OH2 1046   4.716   1.868   3.897
  368TIP3    H1 1047   4.692   1.869   3.989
  368TIP3    H2 1048   4.651   1.923   3.854
  369TIP3   OH2 1049   7.855   3.265   2.994
  369TIP3    H1 1050   7.907   3.344   2.984
  369TIP3    H2 1051   7.804   3.260   2.912
  370TIP3   OH2 1052   7.929   6.551   3.243
  370TIP3    H1 1053   7.843   6.534   3.283
  370TIP3    H2 1054   7.917   6.532   3.150
  371TIP3   OH2 1055   2.828   3.833   0.382
  371TIP3    H1 1056   2.770   3.885   0.327
  371TIP3    H2 1057   2.886   3.897   0.423
  372TIP3   OH2 1058   2.868   0.952   3.694
  372TIP3    H1 1059   2.862   0.982   3.603
  372TIP3    H2 1060   2.865   0.857   3.688
  373TIP3   OH2 1061   5.432   1.778   1.025
  373TIP3    H1 1062   5.403   1.839   1.092
  373TIP3    H2 1063   5.393   1.694   1.050
  374TIP3   OH2 1064   4.211   4.763   5.470
  374TIP3    H1 1065   4.125   4.750   5.429
  374TIP3    H2 1066   4.214   4.699   5.541
  375TIP3   OH2 1067   7.551   4.904   5.591
  375TIP3    H1 1068   7.546   4.988   5.547
  375TIP3    H2 1069   7.630   4.862   5.556
  376TIP3   OH2 1070   6.065   2.751   2.299
  376TIP3    H1 1071   5.992   2.767   2.239
  376TIP3    H2 1072   6.023   2.717   2.378
  377TIP3   OH2 1073   7.321   0.502   3.702
  377TIP3    H1 1074   7.391   0.509   3.637
  377TIP3    H2 1075   7.366   0.514   3.786
  378TIP3   OH2 1076   4.232   6.721   0.714
  378TIP3    H1 1077   4.197   6.792   0.768
  378TIP3    H2 1078   4.236   6.645   0.773
  379TIP3   OH2 1079   3.591   5.672   6.384
  379TIP3    H1 1080   3.592   5.610   6.311
  379TIP3    H2 1081   3.499   5.677   6.410
  380TIP3   OH2 1082   2.642   7.291   1.281
  380TIP3    H1 1083   2.551   7.303   1.309
  380TIP3    H2 1084   2.688   7.367   1.316
  381TIP3   OH2 1085   6.765   1.351   1.862
  381TIP3    H1 1086   6.761   1.257   1.877
  381TIP3    H2 1087   6.796   1.360   1.772
  382TIP3   OH2 1088   0.890   3.667   5.799
  382TIP3    H1 1089   0.819   3.662   5.735
  382TIP3    H2 1090   0.846   3.671   5.883
  383TIP3   OH2 1091   2.424   0.891   2.974
  383TIP3    H1 1092   2.346   0.945   2.966
  383TIP3    H2 1093   2.399   0.807   2.936
  384TIP3   OH2 1094   1.047   4.000   1.781
  384TIP3    H1 1095   0.970   4.045   1.745
  384TIP3    H2 1096   1.110   4.070   1.797
  385TIP3   OH2 1097   1.955   6.624   0.296
  385TIP3    H1 1098   1.904   6.704   0.307
  385TIP3    H2 1099   2.042   6.647   0.329
  386TIP3   OH2 1100   0.319   0.121   3.960
  386TIP3    H1 1101   0.320   0.146   3.868
  386TIP3    H2 1102   0.264   0.043   3.963
  387TIP3   OH2 1103   7.593   7.670   5.877
  387TIP3    H1 1104   7.680   7.631   5.867
  387TIP3    H2 1105   7.565   7.689   5.787
  388TIP3   OH2 1106   0.979   7.374   3.904
  388TIP3    H1 1107   1.067   7.379   3.867
  388TIP3    H2 1108   0.982   7.431   3.981
  389TIP3   OH2 1109   2.348   2.394   5.083
  389TIP3    H1 1110   2.320   2.324   5.143
  389TIP3    H2 1111   2.299   2.378   5.003
  390TIP3   OH2 1112   0.231   2.227   4.362
  390TIP3    H1 1113   0.305   2.287   4.363
  390TIP3    H2 1114   0.261   2.153   4.309
  391TIP3   OH2 1115   1.889   1.240   6.014
  391TIP3    H1 1116   1.818   1.286   6.058
  391TIP3    H2 1117   1.913   1.297   5.941
  392TIP3   OH2 1118   5.648   1.572   6.385
  392TIP3    H1 1119   5.598   1.507   6.433
  392TIP3    H2 1120   5.611   1.656   6.413
  393TIP3   OH2 1121   6.298   5.382   4.951
  393TIP3    H1 1122   6.383   5.341   4.938
  393TIP3    H2 1123   6.243   5.313   4.989
  394TIP3   OH2 1124   6.109   6.073   0.867
  394TIP3    H1 1125   6.084   6.155   0.825
  394TIP3    H2 1126   6.167   6.031   0.804
  395TIP3   OH2 1127   3.219   4.468   4.612
  395TIP3    H1 1128   3.180   4.385   4.585
  395TIP3    H2 1129   3.203   4.473   4.706
  396TIP3   OH2 1130   8.220   7.562   1.368
  396TIP3    H1 1131   8.246   7.570   1.460
  396TIP3    H2 1132   8.169   7.482   1.364
  397TIP3   OH2 1133   7.576   6.326   0.067
  397TIP3    H1 1134   7.583   6.331  -0.029
  397TIP3    H2 1135   7.509   6.260   0.083
  398TIP3   OH2 1136   5.005   7.528   6.387
  398TIP3    H1 1137   4.962   7.528   6.302
  398TIP3    H2 1138   5.095   7.500   6.369
  399TIP3   OH2 1139   1.679   2.803   2.279
  399TIP3    H1 1140   1.752   2.753   2.242
  399TIP3    H2 1141   1.679   2.782   2.372
  400TIP3   OH2 1142   6.590   4.650   1.230
  400TIP3    H1 1143   6.576   4.567   1.275
  400TIP3    H2 1144   6.630   4.626   1.146
  401TIP3   OH2 1145   7.411   6.862   3.645
  401TIP3    H1 1146   7.370   6.890   3.727
  401TIP3    H2 1147   7.505   6.871   3.661
  402TIP3   OH2 1148   5.661   5.577   3.370
  402TIP3    H1 1149   5.595   5.552   3.305
  402TIP3    H2 1150   5.730   5.512   3.361
  403TIP3   OH2 1151   1.026   4.831   2.782
  403TIP3    H1 1152   0.962   4.903   2.784
  403TIP3    H2 1153   1.048   4.817   2.874
  404TIP3   OH2 1154   3.522   6.683   3.169
  404TIP3    H1 1155   3.587   6.616   3.147
  404TIP3    H2 1156   3.441   6.653   3.127
  405TIP3   OH2 1157   5.011   3.447   5.445
  405TIP3    H1 1158   5.047   3.369   5.403
  405TIP3    H2 1159   4.937   3.473   5.389
  406TIP3   OH2 1160   0.294   4.651   6.679
  406TIP3    H1 1161   0.333   4.590   6.742
  406TIP3    H2 1162   0.270   4.728   6.731
  407TIP3   OH2 1163   6.507   2.020   6.315
  407TIP3    H1 1164   6.590   2.059   6.342
  407TIP3    H2 1165   6.449   2.030   6.390
  408TIP3   OH2 1166   0.913   6.936   2.128
  408TIP3    H1 1167   1.002   6.932   2.162
  408TIP3    H2 1168   0.909   6.867   2.062
  409TIP3   OH2 1169   7.195   6.641   6.014
  409TIP3    H1 1170   7.102   6.655   6.031
  409TIP3    H2 1171   7.234   6.626   6.100
  410TIP3   OH2 1172   7.098   6.808   4.324
  410TIP3    H1 1173   7.017   6.774   4.361
  410TIP3    H2 1174   7.073   6.890   4.281
  411TIP3   OH2 1175   2.085   6.541   5.161
  411TIP3    H1 1176   2.108   6.557   5.069
  411TIP3    H2 1177   1.995   6.574   5.169
  412TIP3   OH2 1178   2.556   4.721   1.143
  412TIP3    H1 1179   2.482   4.764   1.185
  412TIP3    H2 1180   2.528   4.630   1.131
  413TIP3   OH2 1181   6.444   6.842   0.752
  413TIP3    H1 1182   6.483   6.925   0.780
  413TIP3    H2 1183   6.476   6.829   0.663
  414TIP3   OH2 1184   6.365   3.021   5.821
  414TIP3    H1 1185   6.411   3.077   5.883
  414TIP3    H2 1186   6.285   2.995   5.867
  415TIP3   OH2 1187   4.853   6.143   3.673
  415TIP3    H1 1188   4.850   6.227   3.627
  415TIP3    H2 1189   4.928   6.097   3.635
  416TIP3   OH2 1190   1.419   1.912   3.638
  416TIP3    H1 1191   1.434   1.819   3.627
  416TIP3    H2 1192   1.428   1.926   3.733
  417TIP3   OH2 1193   7.078   2.411   6.723
  417TIP3    H1 1194   7.088   2.409   6.818
  417TIP3    H2 1195   7.168   2.410   6.690
  418TIP3   OH2 1196   7.378   0.655   1.733
  418TIP3    H1 1197   7.423   0.730   1.695
  418TIP3    H2 1198   7.419   0.642   1.818
  419TIP3   OH2 1199   1.186   5.800   4.406
  419TIP3    H1 1200   1.258   5.739   4.391
  419TIP3    H2 1201   1.227   5.873   4.454
  420TIP3   OH2 1202   1.805   7.168   3.663
  420TIP3    H1 1203   1.776   7.258   3.647
  420TIP3    H2 1204   1.742   7.134   3.726
  421TIP3   OH2 1205   3.687   2.581   1.190
  421TIP3    H1 1206   3.729   2.515   1.134
  421TIP3    H2 1207   3.594   2.561   1.186
  422TIP3   OH2 1208   0.743   0.988   4.007
  422TIP3    H1 1209   0.783   0.968   4.092
  422TIP3    H2 1210   0.804   1.049   3.967
  423TIP3   OH2 1211   8.244   4.051   0.259
  423TIP3    H1 1212   8.174   4.035   0.323
  423TIP3    H2 1213   8.310   3.985   0.280
  424TIP3   OH2 1214   5.003   0.506   0.608
  424TIP3    H1 1215   5.005   0.469   0.520
  424TIP3    H2 1216   4.982   0.599   0.594
  425TIP3   OH2 1217   3.491   5.663   1.355
  425TIP3    H1 1218   3.405   5.669   1.396
  425TIP3    H2 1219   3.486   5.721   1.280
  426TIP3   OH2 1220   2.474   0.508   5.506
  426TIP3    H1 1221   2.408   0.558   5.457
  426TIP3    H2 1222   2.534   0.574   5.540
  427TIP3   OH2 1223   0.207   2.804   6.469
  427TIP3    H1 1224   0.175   2.714   6.465
  427TIP3    H2 1225   0.128   2.858   6.465
  428TIP3   OH2 1226   2.514   2.554   3.708
  428TIP3    H1 1227   2.420   2.566   3.700
  428TIP3    H2 1228   2.528   2.537   3.802
  429TIP3   OH2 1229   7.155   0.780   4.442
  429TIP3    H1 1230   7.139   0.874   4.445
  429TIP3    H2 1231   7.106   0.749   4.365
  430TIP3   OH2 1232   2.938   4.188   3.303
  430TIP3    H1 1233   3.020   4.139   3.302
  430TIP3    H2 1234   2.932   4.227   3.216
  431TIP3   OH2 1235   2.625   7.022   1.813
  431TIP3    H1 1236   2.587   7.103   1.846
  431TIP3    H2 1237   2.607   7.024   1.719
  432TIP3   OH2 1238   8.086   5.724   3.389
  432TIP3    H1 1239   8.097   5.730   3.484
  432TIP3    H2 1240   8.079   5.815   3.360
  433TIP3   OH2 1241   2.385   3.876   3.695
  433TIP3    H1 1242   2.446   3.913   3.631
  433TIP3    H2 1243   2.341   3.805   3.649
  434TIP3   OH2 1244   5.044   4.819   4.186
  434TIP3    H1 1245   4.988   4.811   4.264
  434TIP3    H2 1246   5.132   4.805   4.219
  435TIP3   OH2 1247   5.034   6.069   3.265
  435TIP3    H1 1248   4.949   6.109   3.246
  435TIP3    H2 1249   5.049   6.088   3.357
  436TIP3   OH2 1250   0.595   7.762   3.866
  436TIP3    H1 1251   0.572   7.842   3.913
  436TIP3    H2 1252   0.638   7.792   3.786
  437TIP3   OH2 1253   3.483   5.116   4.210
  437TIP3    H1 1254   3.561   5.077   4.249
  437TIP3    H2 1255   3.513   5.150   4.125
  438TIP3   OH2 1256   7.682   4.776   6.547
  438TIP3    H1 1257   7.700   4.716   6.474
  438TIP3    H2 1258   7.757   4.835   6.548
  439TIP3   OH2 1259   3.608   0.075   6.783
  439TIP3    H1 1260   3.593   0.034   6.697
  439TIP3    H2 1261   3.697   0.049   6.806
  440TIP3   OH2 1262   6.039   2.616   0.528
  440TIP3    H1 1263   6.132   2.633   0.518
  440TIP3    H2 1264   5.998   2.702   0.530
  441TIP3   OH2 1265   5.988   6.898   1.290
  441TIP3    H1 1266   6.003   6.807   1.317
  441TIP3    H2 1267   5.896   6.899   1.263
  442TIP3   OH2 1268   2.159   5.564   1.256
  442TIP3    H1 1269   2.138   5.554   1.163
  442TIP3    H2 1270   2.095   5.509   1.302
  443TIP3   OH2 1271   6.712   0.353   2.179
  443TIP3    H1 1272   6.775   0.371   2.110
  443TIP3    H2 1273   6.759   0.376   2.260
  444TIP3   OH2 1274   2.797   4.514   1.441
  444TIP3    H1 1275   2.809   4.600   1.400
  444TIP3    H2 1276   2.740   4.531   1.516
  445TIP3   OH2 1277   7.301   4.128   3.262
  445TIP3    H1 1278   7.304   4.033   3.249
  445TIP3    H2 1279   7.393   4.153   3.274
  446TIP3   OH2 1280   1.677   2.459   4.535
  446TIP3    H1 1281   1.607   2.511   4.496
  446TIP3    H2 1282   1.652   2.450   4.627
  447TIP3   OH2 1283   7.085   7.111   4.839
  447TIP3    H1 1284   7.159   7.102   4.778
  447TIP3    H2 1285   7.116   7.071   4.920
  448TIP3   OH2 1286   0.224   2.604   4.713
  448TIP3    H1 1287   0.146   2.654   4.735
  448TIP3    H2 1288   0.241   2.625   4.621
  449TIP3   OH2 1289   5.999   4.123   4.413
  449TIP3    H1 1290   5.969   4.170   4.336
  449TIP3    H2 1291   6.049   4.049   4.378
  450TIP3   OH2 1292   0.590   5.290   3.855
  450TIP3    H1 1293   0.597   5.302   3.950
  450TIP3    H2 1294   0.496   5.288   3.837
  451TIP3   OH2 1295   6.815   4.774   1.367
  451TIP3    H1 1296   6.787   4.704   1.307
  451TIP3    H2 1297   6.758   4.763   1.444
  452TIP3   OH2 1298   2.531   5.935   1.674
  452TIP3    H1 1299   2.613   5.891   1.650
  452TIP3    H2 1300   2.558   6.024   1.697
  453TIP3   OH2 1301   6.403   7.367   6.237
  453TIP3    H1 1302   6.430   7.398   6.151
  453TIP3    H2 1303   6.340   7.296   6.218
  454TIP3   OH2 1304   8.205   7.338   4.796
  454TIP3    H1 1305   8.200   7.433   4.781
  454TIP3    H2 1306   8.251   7.304   4.719
  455TIP3   OH2 1307   1.788   3.263   2.052
  455TIP3    H1 1308   1.860   3.218   2.097
  455TIP3    H2 1309   1.725   3.194   2.033
  456TIP3   OH2 1310   5.631   1.465   3.973
  456TIP3    H1 1311   5.655   1.513   4.052
  456TIP3    H2 1312   5.538   1.445   3.984
  457TIP3   OH2 1313   5.778   6.956   6.752
  457TIP3    H1 1314   5.774   7.021   6.822
  457TIP3    H2 1315   5.746   7.002   6.674
  458TIP3   OH2 1316   5.430   0.417   6.627
  458TIP3    H1 1317   5.463   0.337   6.668
  458TIP3    H2 1318   5.496   0.483   6.647
  459TIP3   OH2 1319   2.115   2.794   2.427
  459TIP3    H1 1320   2.177   2.838   2.486
  459TIP3    H2 1321   2.171   2.748   2.364
  460TIP3   OH2 1322   8.177   6.595   5.873
  460TIP3    H1 1323   8.172   6.502   5.852
  460TIP3    H2 1324   8.088   6.627   5.858
  461TIP3   OH2 1325   4.510   4.203   0.093
  461TIP3    H1 1326   4.469   4.206   0.006
  461TIP3    H2 1327   4.592   4.156   0.078
  462TIP3   OH2 1328   0.930   2.489   5.338
  462TIP3    H1 1329   0.886   2.524   5.261
  462TIP3    H2 1330   0.869   2.505   5.410
  463TIP3   OH2 1331   4.743   2.398   4.604
  463TIP3    H1 1332   4.737   2.379   4.698
  463TIP3    H2 1333   4.661   2.365   4.568
  464TIP3   OH2 1334   3.520   2.695   1.641
  464TIP3    H1 1335   3.600   2.644   1.629
  464TIP3    H2 1336   3.530   2.735   1.728
  465TIP3   OH2 1337   1.071   1.244   1.518
  465TIP3    H1 1338   0.998   1.297   1.486
  465TIP3    H2 1339   1.080   1.268   1.610
  466TIP3   OH2 1340   7.002   3.596   5.387
  466TIP3    H1 1341   6.962   3.677   5.418
  466TIP3    H2 1342   7.030   3.551   5.466
  467TIP3   OH2 1343   1.682   6.138   4.673
  467TIP3    H1 1344   1.753   6.130   4.736
  467TIP3    H2 1345   1.727   6.145   4.588
  468TIP3   OH2 1346   4.582   6.768   2.965
  468TIP3    H1 1347   4.615   6.857   2.962
  468TIP3    H2 1348   4.526   6.766   3.043
  469TIP3   OH2 1349   3.205   6.286   6.584
  469TIP3    H1 1350   3.165   6.370   6.604
  469TIP3    H2 1351   3.299   6.304   6.581
  470TIP3   OH2 1352   2.774   0.952   3.986
  470TIP3    H1 1353   2.797   0.967   3.895
  470TIP3    H2 1354   2.834   0.883   4.015
  471TIP3   OH2 1355   2.938   6.713   0.113
  471TIP3    H1 1356   2.871   6.779   0.131
  471TIP3    H2 1357   3.019   6.749   0.150
  472TIP3   OH2 1358   3.676   5.432   2.400
  472TIP3    H1 1359   3.712   5.516   2.371
  472TIP3    H2 1360   3.751   5.384   2.435
  473TIP3   OH2 1361   6.109   2.246   4.672
  473TIP3    H1 1362   6.137   2.320   4.725
  473TIP3    H2 1363   6.136   2.269   4.583
  474TIP3   OH2 1364   6.081   0.150   6.643
  474TIP3    H1 1365   6.005   0.206   6.652
  474TIP3    H2 1366   6.147   0.205   6.600
  475TIP3   OH2 1367   4.643   6.927   3.629
  475TIP3    H1 1368   4.608   6.872   3.700
  475TIP3    H2 1369   4.721   6.968   3.668
  476TIP3   OH2 1370   3.466   2.864   2.796
  476TIP3    H1 1371   3.373   2.840   2.800
  476TIP3    H2 1372   3.508   2.804   2.857
  477TIP3   OH2 1373   3.872   4.502   5.684
  477TIP3    H1 1374   3.786   4.492   5.644
  477TIP3    H2 1375   3.858   4.483   5.776
  478TIP3   OH2 1376   1.079   0.138   2.740
  478TIP3    H1 1377   1.169   0.168   2.735
  478TIP3    H2 1378   1.078   0.076   2.813
  479TIP3   OH2 1379   5.983   1.999   6.190
  479TIP3    H1 1380   5.934   1.952   6.123
  479TIP3    H2 1381   6.074   1.971   6.177
  480TIP3   OH2 1382   5.652   0.055   2.399
  480TIP3    H1 1383   5.729   0.072   2.453
  480TIP3    H2 1384   5.648  -0.041   2.393
  481TIP3   OH2 1385   3.439   3.876   5.222
  481TIP3    H1 1386   3.354   3.834   5.237
  481TIP3    H2 1387   3.419   3.951   5.167
  482TIP3   OH2 1388   0.724   0.610   6.342
  482TIP3    H1 1389   0.766   0.536   6.297
  482TIP3    H2 1390   0.796   0.658   6.381
  483TIP3   OH2 1391   3.988   7.516  -0.034
  483TIP3    H1 1392   3.947   7.564   0.037
  483TIP3    H2 1393   4.004   7.429   0.002
  484TIP3   OH2 1394   1.990   7.574   6.336
  484TIP3    H1 1395   2.020   7.634   6.405
  484TIP3    H2 1396   1.989   7.628   6.256
  485TIP3   OH2 1397   5.102   0.013   0.611
  485TIP3    H1 1398   5.098  -0.014   0.703
  485TIP3    H2 1399   5.152   0.094   0.612
  486TIP3   OH2 1400   7.545   0.317   5.890
  486TIP3    H1 1401   7.547   0.269   5.972
  486TIP3    H2 1402   7.458   0.299   5.854
  487TIP3   OH2 1403   3.210   3.043   2.634
  487TIP3    H1 1404   3.210   3.017   2.726
  487TIP3    H2 1405   3.263   2.976   2.590
  488TIP3   OH2 1406   0.573   4.405   2.053
  488TIP3    H1 1407   0.487   4.443   2.034
  488TIP3    H2 1408   0.566   4.314   2.024
  489TIP3   OH2 1409   1.453   7.067   3.185
  489TIP3    H1 1410   1.401   7.147   3.197
  489TIP3    H2 1411   1.543   7.093   3.204
  490TIP3   OH2 1412   2.772   5.155   5.455
  490TIP3    H1 1413   2.821   5.185   5.532
  490TIP3    H2 1414   2.811   5.204   5.382
  491TIP3   OH2 1415   8.304   4.033   1.349
  491TIP3    H1 1416   8.251   4.105   1.382
  491TIP3    H2 1417   8.307   3.970   1.420
  492TIP3   OH2 1418   7.700   6.273   2.778
  492TIP3    H1 1419   7.642   6.322   2.836
  492TIP3    H2 1420   7.672   6.297   2.690
  493TIP3   OH2 1421   1.660   6.884   0.645
  493TIP3    H1 1422   1.728   6.823   0.672
  493TIP3    H2 1423   1.580   6.831   0.640
  494TIP3   OH2 1424   6.846   6.160   6.334
  494TIP3    H1 1425   6.902   6.120   6.267
  494TIP3    H2 1426   6.773   6.100   6.344
  495TIP3   OH2 1427   0.772   5.838   0.322
  495TIP3    H1 1428   0.867   5.828   0.318
  495TIP3    H2 1429   0.742   5.821   0.232
  496TIP3   OH2 1430   1.293   3.232   3.494
  496TIP3    H1 1431   1.266   3.204   3.582
  496TIP3    H2 1432   1.211   3.256   3.451
  497TIP3   OH2 1433   0.513   5.190   0.528
  497TIP3    H1 1434   0.496   5.249   0.601
  497TIP3    H2 1435   0.588   5.138   0.557
  498TIP3   OH2 1436   4.905   2.644   3.019
  498TIP3    H1 1437   4.943   2.648   2.931
  498TIP3    H2 1438   4.954   2.709   3.069
  499TIP3   OH2 1439   1.092   1.942   2.960
  499TIP3    H1 1440   1.145   1.982   3.029
  499TIP3    H2 1441   1.022   2.006   2.944
  500TIP3   OH2 1442   2.393   6.096   1.146
  500TIP3    H1 1443   2.365   6.188   1.153
  500TIP3    H2 1444   2.322   6.054   1.096
  501TIP3   OH2 1445   2.731   7.690   3.151
  501TIP3    H1 1446   2.663   7.624   3.161
  501TIP3    H2 1447   2.795   7.669   3.219
  502TIP3   OH2 1448   4.607   4.659   6.224
  502TIP3    H1 1449   4.645   4.730   6.171
  502TIP3    H2 1450   4.513   4.679   6.226
  503TIP3   OH2 1451   3.638   4.677   1.176
  503TIP3    H1 1452   3.659   4.583   1.174
  503TIP3    H2 1453   3.628   4.701   1.084
  504TIP3   OH2 1454   4.835   2.936   5.008
  504TIP3    H1 1455   4.918   2.900   4.976
  504TIP3    H2 1456   4.819   3.012   4.952
  505TIP3   OH2 1457   5.501   6.286   4.849
  505TIP3    H1 1458   5.464   6.374   4.860
  505TIP3    H2 1459   5.525   6.259   4.937
  506TIP3   OH2 1460   0.305   3.156   3.497
  506TIP3    H1 1461   0.222   3.175   3.541
  506TIP3    H2 1462   0.355   3.237   3.502
  507TIP3   OH2 1463   1.070   6.510   2.543
  507TIP3    H1 1464   1.073   6.584   2.604
  507TIP3    H2 1465   1.014   6.541   2.472
  508TIP3   OH2 1466   7.922   2.190   6.163
  508TIP3    H1 1467   7.855   2.132   6.199
  508TIP3    H2 1468   8.004   2.157   6.200
  509TIP3   OH2 1469   1.471   2.848   4.363
  509TIP3    H1 1470   1.461   2.856   4.268
  509TIP3    H2 1471   1.389   2.884   4.399
  510TIP3   OH2 1472   7.010   0.804   5.392
  510TIP3    H1 1473   7.081   0.776   5.450
  510TIP3    H2 1474   6.935   0.815   5.449
  511TIP3   OH2 1475   6.311   6.719   2.472
  511TIP3    H1 1476   6.350   6.658   2.535
  511TIP3    H2 1477   6.374   6.790   2.465
  512TIP3   OH2 1478   7.798   0.761   5.870
  512TIP3    H1 1479   7.844   0.772   5.953
  512TIP3    H2 1480   7.867   0.761   5.804
  513TIP3   OH2 1481   8.145   6.192   5.338
  513TIP3    H1 1482   8.200   6.158   5.267
  513TIP3    H2 1483   8.166   6.137   5.413
  514TIP3   OH2 1484   3.341   2.441   4.796
  514TIP3    H1 1485   3.286   2.394   4.859
  514TIP3    H2 1486   3.288   2.516   4.770
  515TIP3   OH2 1487   7.589   0.326   2.880
  515TIP3    H1 1488   7.584   0.338   2.975
  515TIP3    H2 1489   7.683   0.331   2.860
  516TIP3   OH2 1490   3.914   6.777   4.715
  516TIP3    H1 1491   3.987   6.734   4.669
  516TIP3    H2 1492   3.955   6.821   4.789
  517TIP3   OH2 1493   3.525   5.554   3.459
  517TIP3    H1 1494   3.523   5.647   3.481
  517TIP3    H2 1495   3.534   5.510   3.544
  518TIP3   OH2 1496   0.846   7.738   5.183
  518TIP3    H1 1497   0.931   7.698   5.166
  518TIP3    H2 1498   0.824   7.783   5.101
  519TIP3   OH2 1499   6.293   3.045   1.710
  519TIP3    H1 1500   6.237   2.968   1.727
  519TIP3    H2 1501   6.328   3.067   1.796
  520TIP3   OH2 1502   1.941   3.938   0.941
  520TIP3    H1 1503   1.904   3.987   0.867
  520TIP3    H2 1504   1.994   3.869   0.899
  521TIP3   OH2 1505   3.594   5.574   6.104
  521TIP3    H1 1506   3.518   5.516   6.100
  521TIP3    H2 1507   3.669   5.515   6.109
  522TIP3   OH2 1508   4.729   4.466   4.630
  522TIP3    H1 1509   4.795   4.396   4.629
  522TIP3    H2 1510   4.716   4.486   4.723
  523TIP3   OH2 1511   2.079   6.904   1.464
  523TIP3    H1 1512   2.112   6.815   1.453
  523TIP3    H2 1513   2.073   6.939   1.375
  524TIP3   OH2 1514   4.246   4.843   0.795
  524TIP3    H1 1515   4.314   4.813   0.734
  524TIP3    H2 1516   4.188   4.898   0.742
  525TIP3   OH2 1517   3.244   1.032   5.710
  525TIP3    H1 1518   3.183   0.965   5.678
  525TIP3    H2 1519   3.199   1.115   5.692
  526TIP3   OH2 1520   4.080   6.708   6.724
  526TIP3    H1 1521   4.171   6.678   6.727
  526TIP3    H2 1522   4.032   6.648   6.781
  527TIP3   OH2 1523   3.091   5.632   2.340
  527TIP3    H1 1524   3.064   5.625   2.248
  527TIP3    H2 1525   3.149   5.708   2.342
  528TIP3   OH2 1526   4.995   3.818   4.302
  528TIP3    H1 1527   4.915   3.807   4.353
  528TIP3    H2 1528   5.039   3.733   4.306
  529TIP3   OH2 1529   2.434   4.773   4.388
  529TIP3    H1 1530   2.423   4.835   4.461
  529TIP3    H2 1531   2.429   4.687   4.430
  530TIP3   OH2 1532   4.165   1.171   3.960
  530TIP3    H1 1533   4.094   1.123   4.004
  530TIP3    H2 1534   4.188   1.241   4.020
  531TIP3   OH2 1535   6.952   2.790   2.396
  531TIP3    H1 1536   7.036   2.799   2.351
  531TIP3    H2 1537   6.890   2.768   2.327
  532TIP3   OH2 1538   4.484   6.658   0.591
  532TIP3    H1 1539   4.402   6.689   0.628
  532TIP3    H2 1540   4.458   6.589   0.529
  533TIP3   OH2 1541   7.535   5.436   4.648
  533TIP3    H1 1542   7.552   5.352   4.605
  533TIP3    H2 1543   7.484   5.485   4.584
  534TIP3   OH2 1544   6.169   2.461   5.787
  534TIP3    H1 1545   6.189   2.531   5.724
  534TIP3    H2 1546   6.081   2.480   5.818
  535TIP3   OH2 1547   8.238   1.780   2.636
  535TIP3    H1 1548   8.145   1.801   2.643
  535TIP3    H2 1549   8.277   1.858   2.596
  536TIP3   OH2 1550   7.961   5.882   5.384
  536TIP3    H1 1551   8.052   5.859   5.404
  536TIP3    H2 1552   7.920   5.891   5.470
  537TIP3   OH2 1553   4.207   5.225   0.774
  537TIP3    H1 1554   4.221   5.319   0.765
  537TIP3    H2 1555   4.135   5.206   0.714
  538TIP3   OH2 1556   0.529   7.586   4.964
  538TIP3    H1 1557   0.576   7.628   4.892
  538TIP3    H2 1558   0.449   7.552   4.924
  539TIP3   OH2 1559   3.014   7.140   1.660
  539TIP3    H1 1560   3.107   7.159   1.648
  539TIP3    H2 1561   2.977   7.219   1.699
  540TIP3   OH2 1562   2.346   3.051   6.404
  540TIP3    H1 1563   2.308   3.118   6.461
  540TIP3    H2 1564   2.341   2.971   6.455
  541TIP3   OH2 1565   6.990   0.098   1.014
  541TIP3    H1 1566   6.924   0.047   1.061
  541TIP3    H2 1567   7.025   0.158   1.079
  542TIP3   OH2 1568   6.466   6.429   5.816
  542TIP3    H1 1569   6.416   6.348   5.823
  542TIP3    H2 1570   6.470   6.447   5.722
  543TIP3   OH2 1571   4.255   2.872   3.599
  543TIP3    H1 1572   4.297   2.799   3.645
  543TIP3    H2 1573   4.221   2.833   3.519
  544TIP3   OH2 1574   6.507   5.511   6.649
  544TIP3    H1 1575   6.493   5.417   6.642
  544TIP3    H2 1576   6.526   5.525   6.742
  545TIP3   OH2 1577   0.439   0.891   6.774
  545TIP3    H1 1578   0.363   0.849   6.734
  545TIP3    H2 1579   0.417   0.985   6.773
  546TIP3   OH2 1580   0.859   2.081   2.978
  546TIP3    H1 1581   0.843   2.142   2.906
  546TIP3    H2 1582   0.794   2.104   3.044
  547TIP3   OH2 1583   0.195   6.561   0.435
  547TIP3    H1 1584   0.125   6.601   0.486
  547TIP3    H2 1585   0.227   6.490   0.490
  548TIP3   OH2 1586   0.814   1.449   0.818
  548TIP3    H1 1587   0.761   1.375   0.789
  548TIP3    H2 1588   0.848   1.487   0.737
  549TIP3   OH2 1589   2.516   5.508   3.282
  549TIP3    H1 1590   2.503   5.602   3.298
  549TIP3    H2 1591   2.544   5.473   3.366
  550TIP3   OH2 1592   6.136   7.376   5.757
  550TIP3    H1 1593   6.151   7.469   5.771
  550TIP3    H2 1594   6.175   7.334   5.834
  551TIP3   OH2 1595   1.126   3.182   1.700
  551TIP3    H1 1596   1.156   3.173   1.610
  551TIP3    H2 1597   1.143   3.273   1.723
  552TIP3   OH2 1598   1.809   7.084   6.544
  552TIP3    H1 1599   1.755   7.129   6.479
  552TIP3    H2 1600   1.895   7.125   6.536
  553TIP3   OH2 1601   4.196   5.847   1.944
  553TIP3    H1 1602   4.262   5.905   1.982
  553TIP3    H2 1603   4.234   5.818   1.861
  554TIP3   OH2 1604   0.510   1.140   5.937
  554TIP3    H1 1605   0.556   1.218   5.966
  554TIP3    H2 1606   0.423   1.147   5.976
  555TIP3   OH2 1607   6.684   1.299   4.314
  555TIP3    H1 1608   6.668   1.218   4.362
  555TIP3    H2 1609   6.652   1.282   4.225
  556TIP3   OH2 1610   3.501   1.521   0.208
  556TIP3    H1 1611   3.483   1.535   0.301
  556TIP3    H2 1612   3.509   1.610   0.172
  557TIP3   OH2 1613   3.214   0.796   0.001
  557TIP3    H1 1614   3.122   0.812  -0.020
  557TIP3    H2 1615   3.217   0.703   0.025
  558TIP3   OH2 1616   4.904   2.356   2.968
  558TIP3    H1 1617   4.943   2.437   3.001
  558TIP3    H2 1618   4.884   2.375   2.877
  559TIP3   OH2 1619   4.701   0.115   4.527
  559TIP3    H1 1620   4.623   0.169   4.542
  559TIP3    H2 1621   4.730   0.139   4.439
  560TIP3   OH2 1622   5.571   0.410   4.148
  560TIP3    H1 1623   5.599   0.325   4.113
  560TIP3    H2 1624   5.556   0.393   4.241
  561TIP3   OH2 1625   0.167   0.554   2.039
  561TIP3    H1 1626   0.083   0.520   2.009
  561TIP3    H2 1627   0.185   0.627   1.980
  562TIP3   OH2 1628   6.627   7.168   1.800
  562TIP3    H1 1629   6.610   7.095   1.740
  562TIP3    H2 1630   6.552   7.169   1.860
  563TIP3   OH2 1631   0.288   5.202   0.298
  563TIP3    H1 1632   0.378   5.215   0.326
  563TIP3    H2 1633   0.295   5.163   0.211
  564TIP3   OH2 1634   7.790   4.847   5.228
  564TIP3    H1 1635   7.749   4.862   5.313
  564TIP3    H2 1636   7.881   4.871   5.240
  565TIP3   OH2 1637   6.823   3.981   2.590
  565TIP3    H1 1638   6.799   4.034   2.513
  565TIP3    H2 1639   6.739   3.951   2.626
  566TIP3   OH2 1640   5.916   4.835   0.687
  566TIP3    H1 1641   5.901   4.742   0.705
  566TIP3    H2 1642   5.885   4.848   0.597
  567TIP3   OH2 1643   0.168   1.693   6.016
  567TIP3    H1 1644   0.147   1.762   6.079
  567TIP3    H2 1645   0.264   1.689   6.016
  568TIP3   OH2 1646   3.975   6.366   2.101
  568TIP3    H1 1647   3.899   6.368   2.159
  568TIP3    H2 1648   3.989   6.273   2.084
  569TIP3   OH2 1649   5.362   0.134   1.996
  569TIP3    H1 1650   5.378   0.040   1.998
  569TIP3    H2 1651   5.392   0.165   2.081
  570TIP3   OH2 1652   4.120   6.191   5.698
  570TIP3    H1 1653   4.062   6.141   5.755
  570TIP3    H2 1654   4.079   6.185   5.611
  571TIP3   OH2 1655   1.981   4.279   2.133
  571TIP3    H1 1656   2.058   4.260   2.187
  571TIP3    H2 1657   1.978   4.375   2.130
  572TIP3   OH2 1658   7.310   2.287   3.891
  572TIP3    H1 1659   7.311   2.261   3.799
  572TIP3    H2 1660   7.291   2.206   3.939
  573TIP3   OH2 1661   6.388   4.257   0.756
  573TIP3    H1 1662   6.338   4.335   0.730
  573TIP3    H2 1663   6.334   4.183   0.728
  574TIP3   OH2 1664   0.970   3.728   3.196
  574TIP3    H1 1665   0.884   3.769   3.182
  574TIP3    H2 1666   1.032   3.801   3.194
  575TIP3   OH2 1667   7.083   1.085   5.600
  575TIP3    H1 1668   7.043   1.118   5.680
  575TIP3    H2 1669   7.015   1.031   5.560
  576TIP3   OH2 1670   3.731   7.402   2.158
  576TIP3    H1 1671   3.727   7.480   2.213
  576TIP3    H2 1672   3.779   7.337   2.210
  577TIP3   OH2 1673   2.056   0.495   0.854
  577TIP3    H1 1674   2.044   0.440   0.932
  577TIP3    H2 1675   2.032   0.438   0.781
  578TIP3   OH2 1676   7.213   4.725   5.221
  578TIP3    H1 1677   7.288   4.668   5.205
  578TIP3    H2 1678   7.240   4.779   5.296
  579TIP3   OH2 1679   2.968   1.871   2.081
  579TIP3    H1 1680   2.960   1.844   2.172
  579TIP3    H2 1681   2.890   1.836   2.038
  580TIP3   OH2 1682   4.295   5.728   0.693
  580TIP3    H1 1683   4.387   5.733   0.667
  580TIP3    H2 1684   4.262   5.647   0.654
  581TIP3   OH2 1685   2.428   1.265   4.690
  581TIP3    H1 1686   2.488   1.301   4.625
  581TIP3    H2 1687   2.341   1.277   4.652
  582TIP3   OH2 1688   2.409   3.041   3.258
  582TIP3    H1 1689   2.355   2.991   3.320
  582TIP3    H2 1690   2.455   3.105   3.312
  583TIP3   OH2 1691   6.479   3.841   3.010
  583TIP3    H1 1692   6.447   3.795   2.933
  583TIP3    H2 1693   6.426   3.921   3.014
  584TIP3   OH2 1694   0.740   3.469   3.711
  584TIP3    H1 1695   0.706   3.388   3.674
  584TIP3    H2 1696   0.834   3.467   3.692
  585TIP3   OH2 1697   0.733   5.401   3.623
  585TIP3    H1 1698   0.715   5.370   3.712
  585TIP3    H2 1699   0.675   5.477   3.612
  586TIP3   OH2 1700   3.226   4.656   6.209
  586TIP3    H1 1701   3.275   4.574   6.209
  586TIP3    H2 1702   3.281   4.717   6.260
  587TIP3   OH2 1703   1.606   2.848   5.546
  587TIP3    H1 1704   1.701   2.859   5.535
  587TIP3    H2 1705   1.595   2.755   5.566
  588TIP3   OH2 1706   8.098   3.266   5.321
  588TIP3    H1 1707   8.027   3.311   5.365
  588TIP3    H2 1708   8.174   3.323   5.334
  589TIP3   OH2 1709   7.348   7.167   2.994
  589TIP3    H1 1710   7.363   7.254   2.957
  589TIP3    H2 1711   7.253   7.158   2.998
  590TIP3   OH2 1712   5.761   3.107   5.980
  590TIP3    H1 1713   5.753   3.185   5.924
  590TIP3    H2 1714   5.830   3.131   6.043
  591TIP3   OH2 1715   2.247   5.634   4.111
  591TIP3    H1 1716   2.202   5.607   4.191
  591TIP3    H2 1717   2.319   5.571   4.101
  592TIP3   OH2 1718   7.269   2.552   2.337
  592TIP3    H1 1719   7.223   2.592   2.263
  592TIP3    H2 1720   7.203   2.542   2.405
  593TIP3   OH2 1721   3.981   7.368   3.925
  593TIP3    H1 1722   3.905   7.346   3.872
  593TIP3    H2 1723   3.993   7.463   3.912
  594TIP3   OH2 1724   2.709   1.879   5.460
  594TIP3    H1 1725   2.788   1.824   5.463
  594TIP3    H2 1726   2.733   1.957   5.510
  595TIP3   OH2 1727   3.404   7.462   1.169
  595TIP3    H1 1728   3.418   7.554   1.190
  595TIP3    H2 1729   3.386   7.460   1.075
  596TIP3   OH2 1730   4.728   1.033   6.412
  596TIP3    H1 1731   4.738   0.956   6.468
  596TIP3    H2 1732   4.815   1.072   6.410
  597TIP3   OH2 1733   3.972   7.291   0.108
  597TIP3    H1 1734   4.014   7.209   0.084
  597TIP3    H2 1735   3.878   7.274   0.098
  598TIP3   OH2 1736   6.165   7.344   4.760
  598TIP3    H1 1737   6.198   7.336   4.849
  598TIP3    H2 1738   6.168   7.438   4.742
  599TIP3   OH2 1739   3.535   4.807   5.512
  599TIP3    H1 1740   3.565   4.832   5.424
  599TIP3    H2 1741   3.457   4.860   5.526
  600TIP3   OH2 1742   5.564   5.380   1.285
  600TIP3    H1 1743   5.539   5.310   1.345
  600TIP3    H2 1744   5.652   5.355   1.254
  601TIP3   OH2 1745   3.883   2.503   2.505
  601TIP3    H1 1746   3.826   2.519   2.430
  601TIP3    H2 1747   3.936   2.428   2.479
  602TIP3   OH2 1748   4.827   1.994   6.313
  602TIP3    H1 1749   4.769   1.919   6.322
  602TIP3    H2 1750   4.824   2.016   6.220
  603TIP3   OH2 1751   0.639   7.048   3.732
  603TIP3    H1 1752   0.547   7.056   3.758
  603TIP3    H2 1753   0.683   7.121   3.777
  604TIP3   OH2 1754   7.654   5.242   2.307
  604TIP3    H1 1755   7.673   5.149   2.319
  604TIP3    H2 1756   7.580   5.243   2.246
  605TIP3   OH2 1757   3.602   0.436   3.096
  605TIP3    H1 1758   3.618   0.366   3.034
  605TIP3    H2 1759   3.689   0.464   3.125
  606TIP3   OH2 1760   1.656   4.435   3.686
  606TIP3    H1 1761   1.681   4.473   3.770
  606TIP3    H2 1762   1.615   4.507   3.638
  607TIP3   OH2 1763   2.644   0.288   4.058
  607TIP3    H1 1764   2.598   0.299   4.141
  607TIP3    H2 1765   2.729   0.330   4.072
  608TIP3   OH2 1766   1.254   2.018   5.069
  608TIP3    H1 1767   1.309   1.947   5.102
  608TIP3    H2 1768   1.289   2.097   5.111
  609TIP3   OH2 1769   5.243   3.665   6.367
  609TIP3    H1 1770   5.196   3.726   6.424
  609TIP3    H2 1771   5.336   3.686   6.381
  610TIP3   OH2 1772   6.561   1.081   4.777
  610TIP3    H1 1773   6.521   1.163   4.808
  610TIP3    H2 1774   6.560   1.024   4.854
  611TIP3   OH2 1775   0.605   1.524   3.806
  611TIP3    H1 1776   0.663   1.597   3.782
  611TIP3    H2 1777   0.582   1.542   3.897
  612TIP3   OH2 1778   3.579   6.287   3.655
  612TIP3    H1 1779   3.551   6.346   3.584
  612TIP3    H2 1780   3.531   6.206   3.638
  613TIP3   OH2 1781   0.692   3.482   5.425
  613TIP3    H1 1782   0.692   3.433   5.507
  613TIP3    H2 1783   0.737   3.425   5.363
  614TIP3   OH2 1784   4.611   1.044   1.589
  614TIP3    H1 1785   4.624   1.139   1.590
  614TIP3    H2 1786   4.520   1.033   1.563
  615TIP3   OH2 1787   2.438   0.846   6.239
  615TIP3    H1 1788   2.448   0.915   6.305
  615TIP3    H2 1789   2.442   0.893   6.155
  616TIP3   OH2 1790   6.855   0.242   5.037
  616TIP3    H1 1791   6.881   0.152   5.055
  616TIP3    H2 1792   6.882   0.291   5.114
  617TIP3   OH2 1793   1.667   0.087   3.285
  617TIP3    H1 1794   1.688   0.063   3.375
  617TIP3    H2 1795   1.679   0.182   3.283
  618TIP3   OH2 1796   5.440   6.007   5.381
  618TIP3    H1 1797   5.387   5.959   5.318
  618TIP3    H2 1798   5.390   6.004   5.462
  619TIP3   OH2 1799   3.700   4.131   6.700
  619TIP3    H1 1800   3.681   4.050   6.747
  619TIP3    H2 1801   3.617   4.155   6.659
  620TIP3   OH2 1802   4.812   6.264   1.339
  620TIP3    H1 1803   4.886   6.264   1.278
  620TIP3    H2 1804   4.837   6.203   1.408
  621TIP3   OH2 1805   3.464   3.995   1.468
  621TIP3    H1 1806   3.368   3.998   1.469
  621TIP3    H2 1807   3.487   3.998   1.375
  622TIP3   OH2 1808   8.156   5.089   5.530
  622TIP3    H1 1809   8.239   5.090   5.577
  622TIP3    H2 1810   8.169   5.151   5.458
  623TIP3   OH2 1811   0.236   7.513   3.634
  623TIP3    H1 1812   0.163   7.470   3.678
  623TIP3    H2 1813   0.314   7.480   3.679
  624TIP3   OH2 1814   3.056   0.089   2.169
  624TIP3    H1 1815   3.078   0.075   2.077
  624TIP3    H2 1816   2.996   0.164   2.168
  625TIP3   OH2 1817   8.064   4.963   1.130
  625TIP3    H1 1818   8.073   4.977   1.035
  625TIP3    H2 1819   8.044   4.870   1.138
  626TIP3   OH2 1820   4.584   2.282   2.327
  626TIP3    H1 1821   4.586   2.317   2.417
  626TIP3    H2 1822   4.556   2.191   2.337
  627TIP3   OH2 1823   1.583   1.584   5.087
  627TIP3    H1 1824   1.677   1.591   5.074
  627TIP3    H2 1825   1.570   1.496   5.122
  628TIP3   OH2 1826   0.591   3.533   6.577
  628TIP3    H1 1827   0.534   3.559   6.505
  628TIP3    H2 1828   0.669   3.588   6.568
  629TIP3   OH2 1829   2.552   4.373   5.140
  629TIP3    H1 1830   2.467   4.411   5.120
  629TIP3    H2 1831   2.612   4.448   5.141
  630TIP3   OH2 1832   5.450   3.286   6.316
  630TIP3    H1 1833   5.489   3.345   6.252
  630TIP3    H2 1834   5.476   3.198   6.287
  631TIP3   OH2 1835   6.208   5.402   0.125
  631TIP3    H1 1836   6.231   5.495   0.123
  631TIP3    H2 1837   6.140   5.395   0.192
  632TIP3   OH2 1838   6.316   4.697   4.158
  632TIP3    H1 1839   6.278   4.613   4.185
  632TIP3    H2 1840   6.402   4.675   4.124
  633TIP3   OH2 1841   7.628   1.681   0.484
  633TIP3    H1 1842   7.677   1.723   0.413
  633TIP3    H2 1843   7.536   1.694   0.461
  634TIP3   OH2 1844   1.690   4.192   2.579
  634TIP3    H1 1845   1.677   4.160   2.490
  634TIP3    H2 1846   1.612   4.245   2.597
  635TIP3   OH2 1847   2.554   3.228   1.234
  635TIP3    H1 1848   2.621   3.166   1.205
  635TIP3    H2 1849   2.555   3.297   1.168
  636TIP3   OH2 1850   0.896   3.790   5.143
  636TIP3    H1 1851   0.877   3.860   5.205
  636TIP3    H2 1852   0.968   3.741   5.183
  637TIP3   OH2 1853   3.455   7.761   2.555
  637TIP3    H1 1854   3.447   7.838   2.610
  637TIP3    H2 1855   3.433   7.688   2.613
  638TIP3   OH2 1856   2.830   4.399   3.959
  638TIP3    H1 1857   2.753   4.390   4.015
  638TIP3    H2 1858   2.888   4.328   3.985
  639TIP3   OH2 1859   2.358   4.562   6.377
  639TIP3    H1 1860   2.435   4.563   6.434
  639TIP3    H2 1861   2.292   4.612   6.425
  640TIP3   OH2 1862   4.261   0.073   2.615
  640TIP3    H1 1863   4.325   0.039   2.552
  640TIP3    H2 1864   4.252   0.003   2.680
  641TIP3   OH2 1865   5.018   6.617   3.249
  641TIP3    H1 1866   5.074   6.542   3.271
  641TIP3    H2 1867   4.942   6.578   3.206
  642TIP3   OH2 1868   4.347   0.166   4.158
  642TIP3    H1 1869   4.396   0.102   4.107
  642TIP3    H2 1870   4.395   0.248   4.148
  643TIP3   OH2 1871   0.416   5.671   6.359
  643TIP3    H1 1872   0.502   5.677   6.317
  643TIP3    H2 1873   0.357   5.642   6.289
  644TIP3   OH2 1874   1.880   0.158   1.100
  644TIP3    H1 1875   1.920   0.084   1.147
  644TIP3    H2 1876   1.809   0.186   1.157
  645TIP3   OH2 1877   5.214   7.690   2.173
  645TIP3    H1 1878   5.125   7.665   2.200
  645TIP3    H2 1879   5.204   7.718   2.083
  646TIP3   OH2 1880   4.497   6.217   0.192
  646TIP3    H1 1881   4.527   6.161   0.120
  646TIP3    H2 1882   4.481   6.302   0.151
  647TIP3   OH2 1883   5.283   1.736   2.133
  647TIP3    H1 1884   5.299   1.685   2.212
  647TIP3    H2 1885   5.272   1.670   2.064
  648TIP3   OH2 1886   8.212   1.156   6.380
  648TIP3    H1 1887   8.220   1.251   6.373
  648TIP3    H2 1888   8.221   1.138   6.474
  649TIP3   OH2 1889   7.701   4.339   1.390
  649TIP3    H1 1890   7.668   4.267   1.444
  649TIP3    H2 1891   7.632   4.354   1.326
  650TIP3   OH2 1892   3.830   5.468   1.753
  650TIP3    H1 1893   3.794   5.463   1.664
  650TIP3    H2 1894   3.866   5.380   1.768
  651TIP3   OH2 1895   0.999   0.597   3.693
  651TIP3    H1 1896   1.041   0.675   3.658
  651TIP3    H2 1897   0.914   0.628   3.726
  652TIP3   OH2 1898   6.393   1.236   5.163
  652TIP3    H1 1899   6.306   1.259   5.197
  652TIP3    H2 1900   6.385   1.246   5.068
  653TIP3   OH2 1901   2.168   5.518   0.928
  653TIP3    H1 1902   2.083   5.505   0.886
  653TIP3    H2 1903   2.231   5.521   0.856
  654TIP3   OH2 1904   2.986   6.953   5.572
  654TIP3    H1 1905   2.929   6.879   5.593
  654TIP3    H2 1906   2.926   7.020   5.537
  655TIP3   OH2 1907   6.783   6.194   5.684
  655TIP3    H1 1908   6.850   6.194   5.752
  655TIP3    H2 1909   6.750   6.104   5.683
  656TIP3   OH2 1910   0.520   0.693   1.033
  656TIP3    H1 1911   0.469   0.761   0.990
  656TIP3    H2 1912   0.564   0.738   1.105
  657TIP3   OH2 1913   1.057   7.192   1.175
  657TIP3    H1 1914   1.119   7.265   1.181
  657TIP3    H2 1915   0.974   7.233   1.150
  658TIP3   OH2 1916   6.557   0.452   4.218
  658TIP3    H1 1917   6.466   0.459   4.188
  658TIP3    H2 1918   6.553   0.467   4.312
  659TIP3   OH2 1919   7.782   5.100   5.842
  659TIP3    H1 1920   7.771   5.195   5.848
  659TIP3    H2 1921   7.711   5.064   5.895
  660TIP3   OH2 1922   0.279   6.566   6.511
  660TIP3    H1 1923   0.323   6.528   6.587
  660TIP3    H2 1924   0.244   6.490   6.464
  661TIP3   OH2 1925   0.378   1.913   1.298
  661TIP3    H1 1926   0.386   1.864   1.380
  661TIP3    H2 1927   0.457   1.967   1.295
  662TIP3   OH2 1928   4.175   3.410   5.850
  662TIP3    H1 1929   4.168   3.361   5.768
  662TIP3    H2 1930   4.131   3.493   5.832
  663TIP3   OH2 1931   5.087   3.996   5.763
  663TIP3    H1 1932   5.181   3.978   5.756
  663TIP3    H2 1933   5.059   4.009   5.672
  664TIP3   OH2 1934   2.432   5.180   2.634
  664TIP3    H1 1935   2.369   5.230   2.687
  664TIP3    H2 1936   2.462   5.242   2.567
  665TIP3   OH2 1937   3.609   6.464   5.125
  665TIP3    H1 1938   3.540   6.509   5.077
  665TIP3    H2 1939   3.591   6.371   5.114
  666TIP3   OH2 1940   7.911   5.290   5.403
  666TIP3    H1 1941   7.968   5.293   5.480
  666TIP3    H2 1942   7.924   5.374   5.360
  667TIP3   OH2 1943   6.236   3.930   1.270
  667TIP3    H1 1944   6.323   3.945   1.234
  667TIP3    H2 1945   6.236   3.838   1.298
  668TIP3   OH2 1946   4.826   0.612   4.600
  668TIP3    H1 1947   4.769   0.681   4.634
  668TIP3    H2 1948   4.893   0.658   4.550
  669TIP3   OH2 1949   6.509   3.070   3.617
  669TIP3    H1 1950   6.521   3.021   3.536
  669TIP3    H2 1951   6.416   3.063   3.636
  670TIP3   OH2 1952   6.381   3.513   1.578
  670TIP3    H1 1953   6.472   3.517   1.549
  670TIP3    H2 1954   6.373   3.583   1.642
  671TIP3   OH2 1955   1.330   4.619   0.430
  671TIP3    H1 1956   1.411   4.666   0.447
  671TIP3    H2 1957   1.355   4.549   0.371
  672TIP3   OH2 1958   1.540   2.012   1.677
  672TIP3    H1 1959   1.593   2.061   1.615
  672TIP3    H2 1960   1.602   1.981   1.742
  673TIP3   OH2 1961   6.010   7.752   1.446
  673TIP3    H1 1962   5.976   7.667   1.418
  673TIP3    H2 1963   5.969   7.769   1.531
  674TIP3   OH2 1964   1.845   1.907   1.169
  674TIP3    H1 1965   1.899   1.832   1.144
  674TIP3    H2 1966   1.824   1.891   1.261
  675TIP3   OH2 1967   0.513   4.317   5.575
  675TIP3    H1 1968   0.444   4.328   5.641
  675TIP3    H2 1969   0.465   4.300   5.494
  676TIP3   OH2 1970   3.718   7.308   5.231
  676TIP3    H1 1971   3.799   7.338   5.272
  676TIP3    H2 1972   3.685   7.385   5.184
  677TIP3   OH2 1973   1.128   1.628   0.584
  677TIP3    H1 1974   1.155   1.539   0.562
  677TIP3    H2 1975   1.062   1.617   0.652
  678TIP3   OH2 1976   0.545   1.414   3.079
  678TIP3    H1 1977   0.529   1.400   3.172
  678TIP3    H2 1978   0.474   1.366   3.035
  679TIP3   OH2 1979   3.391   7.669   6.303
  679TIP3    H1 1980   3.333   7.604   6.264
  679TIP3    H2 1981   3.350   7.691   6.386
  680TIP3   OH2 1982   5.247   0.984   0.717
  680TIP3    H1 1983   5.201   1.043   0.657
  680TIP3    H2 1984   5.241   0.898   0.675
  681TIP3   OH2 1985   7.635   0.050   1.955
  681TIP3    H1 1986   7.622  -0.014   1.886
  681TIP3    H2 1987   7.572   0.119   1.935
  682TIP3   OH2 1988   2.515   6.471   3.447
  682TIP3    H1 1989   2.570   6.541   3.483
  682TIP3    H2 1990   2.492   6.503   3.360
  683TIP3   OH2 1991   2.488   7.084   6.515
  683TIP3    H1 1992   2.396   7.088   6.540
  683TIP3    H2 1993   2.509   6.991   6.513
  684TIP3   OH2 1994   5.318   5.787   6.451
  684TIP3    H1 1995   5.399   5.768   6.499
  684TIP3    H2 1996   5.260   5.714   6.473
  685TIP3   OH2 1997   2.379   5.599   2.369
  685TIP3    H1 1998   2.370   5.667   2.302
  685TIP3    H2 1999   2.413   5.644   2.445
  686TIP3   OH2 2000   1.095   5.400   6.538
  686TIP3    H1 2001   1.025   5.416   6.602
  686TIP3    H2 2002   1.120   5.309   6.552
  687TIP3   OH2 2003   7.645   4.578   2.090
  687TIP3    H1 2004   7.636   4.576   2.185
  687TIP3    H2 2005   7.559   4.604   2.058
  688TIP3   OH2 2006   0.557   2.282   3.721
  688TIP3    H1 2007   0.528   2.242   3.639
  688TIP3    H2 2008   0.493   2.351   3.738
  689TIP3   OH2 2009   6.214   0.753   6.039
  689TIP3    H1 2010   6.140   0.771   5.981
  689TIP3    H2 2011   6.278   0.821   6.017
  690TIP3   OH2 2012   0.754   1.290   6.074
  690TIP3    H1 2013   0.765   1.286   5.979
  690TIP3    H2 2014   0.720   1.378   6.091
  691TIP3   OH2 2015   7.057   7.338   2.830
  691TIP3    H1 2016   7.036   7.263   2.886
  691TIP3    H2 2017   7.058   7.413   2.889
  692TIP3   OH2 2018   6.725   4.016   0.780
  692TIP3    H1 2019   6.751   3.963   0.855
  692TIP3    H2 2020   6.671   3.958   0.727
  693TIP3   OH2 2021   5.047   4.104   4.697
  693TIP3    H1 2022   5.023   4.138   4.783
  693TIP3    H2 2023   5.008   4.166   4.635
  694TIP3   OH2 2024   6.707   6.529   6.561
  694TIP3    H1 2025   6.746   6.470   6.626
  694TIP3    H2 2026   6.760   6.517   6.482
  695TIP3   OH2 2027   3.974   7.440   5.297
  695TIP3    H1 2028   4.049   7.499   5.291
  695TIP3    H2 2029   4.011   7.353   5.285
  696TIP3   OH2 2030   3.306   2.237   6.740
  696TIP3    H1 2031   3.363   2.167   6.709
  696TIP3    H2 2032   3.249   2.257   6.665
  697TIP3   OH2 2033   7.345   6.735   2.445
  697TIP3    H1 2034   7.303   6.707   2.526
  697TIP3    H2 2035   7.301   6.686   2.376
  698TIP3   OH2 2036   1.988   5.318   4.361
  698TIP3    H1 2037   2.004   5.311   4.455
  698TIP3    H2 2038   1.944   5.236   4.338
  699TIP3   OH2 2039   6.808   3.354   1.963
  699TIP3    H1 2040   6.901   3.379   1.960
  699TIP3    H2 2041   6.806   3.278   2.020
  700TIP3   OH2 2042   2.347   7.506   3.554
  700TIP3    H1 2043   2.306   7.519   3.468
  700TIP3    H2 2044   2.300   7.432   3.592
  701TIP3   OH2 2045   7.234   4.460   5.978
  701TIP3    H1 2046   7.212   4.519   5.905
  701TIP3    H2 2047   7.327   4.475   5.993
  702TIP3   OH2 2048   0.062   5.473   6.335
  702TIP3    H1 2049   0.005   5.445   6.407
  702TIP3    H2 2050   0.020   5.436   6.257
  703TIP3   OH2 2051   0.198   2.276   0.178
  703TIP3    H1 2052   0.233   2.207   0.235
  703TIP3    H2 2053   0.183   2.232   0.094
  704TIP3   OH2 2054   5.605   1.439   5.113
  704TIP3    H1 2055   5.531   1.432   5.053
  704TIP3    H2 2056   5.645   1.523   5.092
  705TIP3   OH2 2057   2.581   5.935   5.691
  705TIP3    H1 2058   2.544   6.023   5.685
  705TIP3    H2 2059   2.652   5.943   5.754
  706TIP3   OH2 2060   4.392   4.620   1.118
  706TIP3    H1 2061   4.318   4.639   1.062
  706TIP3    H2 2062   4.376   4.670   1.198
  707TIP3   OH2 2063   6.962   5.302   0.606
  707TIP3    H1 2064   7.037   5.332   0.556
  707TIP3    H2 2065   6.900   5.375   0.602
  708TIP3   OH2 2066   1.940   5.530   5.740
  708TIP3    H1 2067   2.004   5.592   5.707
  708TIP3    H2 2068   1.877   5.584   5.788
  709TIP3   OH2 2069   1.358   6.509   5.792
  709TIP3    H1 2070   1.281   6.471   5.834
  709TIP3    H2 2071   1.431   6.479   5.846
  710TIP3   OH2 2072   3.196   0.464   6.718
  710TIP3    H1 2073   3.221   0.554   6.700
  710TIP3    H2 2074   3.279   0.417   6.726
  711TIP3   OH2 2075   6.112   4.830   6.323
  711TIP3    H1 2076   6.048   4.760   6.310
  711TIP3    H2 2077   6.063   4.911   6.306
  712TIP3   OH2 2078   6.520   2.893   5.134
  712TIP3    H1 2079   6.579   2.832   5.092
  712TIP3    H2 2080   6.545   2.892   5.226
  713TIP3   OH2 2081   6.039   6.679   2.410
  713TIP3    H1 2082   6.022   6.766   2.375
  713TIP3    H2 2083   6.126   6.686   2.449
  714TIP3   OH2 2084   6.607   1.628   2.208
  714TIP3    H1 2085   6.692   1.602   2.174
  714TIP3    H2 2086   6.627   1.680   2.286
  715TIP3   OH2 2087   4.637   4.675   1.027
  715TIP3    H1 2088   4.546   4.652   1.046
  715TIP3    H2 2089   4.631   4.754   0.973
  716TIP3   OH2 2090   4.203   0.845  -0.015
  716TIP3    H1 2091   4.186   0.798   0.067
  716TIP3    H2 2092   4.149   0.924  -0.009
  717TIP3   OH2 2093   3.483   4.163   6.320
  717TIP3    H1 2094   3.506   4.111   6.397
  717TIP3    H2 2095   3.543   4.238   6.323
  718TIP3   OH2 2096   7.570   7.476   6.687
  718TIP3    H1 2097   7.523   7.448   6.766
  718TIP3    H2 2098   7.662   7.465   6.708
  719TIP3   OH2 2099   5.723   7.203   6.198
  719TIP3    H1 2100   5.728   7.121   6.247
  719TIP3    H2 2101   5.745   7.270   6.262
  720TIP3   OH2 2102   2.833   3.513   3.056
  720TIP3    H1 2103   2.873   3.495   3.140
  720TIP3    H2 2104   2.781   3.435   3.037
  721TIP3   OH2 2105   4.092   0.485   2.686
  721TIP3    H1 2106   4.082   0.497   2.780
  721TIP3    H2 2107   4.003   0.474   2.654
  722TIP3   OH2 2108   5.920   4.444   4.277
  722TIP3    H1 2109   5.976   4.483   4.345
  722TIP3    H2 2110   5.981   4.397   4.221
  723TIP3   OH2 2111   0.438   1.392   4.255
  723TIP3    H1 2112   0.478   1.306   4.237
  723TIP3    H2 2113   0.431   1.395   4.350
  724TIP3   OH2 2114   0.098   0.057   1.194
  724TIP3    H1 2115   0.155  -0.017   1.211
  724TIP3    H2 2116   0.059   0.079   1.279
  725TIP3   OH2 2117   6.584   4.808   4.652
  725TIP3    H1 2118   6.563   4.868   4.580
  725TIP3    H2 2119   6.633   4.861   4.715
  726TIP3   OH2 2120   5.007   2.958   5.302
  726TIP3    H1 2121   5.006   2.880   5.358
  726TIP3    H2 2122   4.978   2.926   5.216
  727TIP3   OH2 2123   3.716   2.242   0.061
  727TIP3    H1 2124   3.624   2.235   0.087
  727TIP3    H2 2125   3.715   2.303  -0.013
  728TIP3   OH2 2126   5.517   5.658   2.898
  728TIP3    H1 2127   5.561   5.704   2.827
  728TIP3    H2 2128   5.478   5.581   2.858
  729TIP3   OH2 2129   2.016   3.978   1.553
  729TIP3    H1 2130   1.953   3.939   1.492
  729TIP3    H2 2131   2.034   3.908   1.617
  730TIP3   OH2 2132   1.066   4.088   3.511
  730TIP3    H1 2133   1.002   4.024   3.481
  730TIP3    H2 2134   1.116   4.044   3.579
  731TIP3   OH2 2135   8.051   0.942   6.284
  731TIP3    H1 2136   8.094   1.024   6.304
  731TIP3    H2 2137   8.094   0.877   6.340
  732TIP3   OH2 2138   6.347   6.983   4.123
  732TIP3    H1 2139   6.365   7.012   4.212
  732TIP3    H2 2140   6.380   7.054   4.068
  733TIP3   OH2 2141   4.302   1.418   4.707
  733TIP3    H1 2142   4.373   1.438   4.646
  733TIP3    H2 2143   4.252   1.500   4.712
  734TIP3   OH2 2144   3.249   6.387   5.685
  734TIP3    H1 2145   3.261   6.339   5.767
  734TIP3    H2 2146   3.183   6.453   5.705
  735TIP3   OH2 2147   5.038   2.355   3.898
  735TIP3    H1 2148   4.960   2.391   3.940
  735TIP3    H2 2149   5.035   2.261   3.917
  736TIP3   OH2 2150   2.412   6.032   4.409
  736TIP3    H1 2151   2.446   6.015   4.321
  736TIP3    H2 2152   2.437   5.955   4.460
  737TIP3   OH2 2153   6.675   7.713   1.190
  737TIP3    H1 2154   6.592   7.746   1.226
  737TIP3    H2 2155   6.654   7.624   1.161
  738TIP3   OH2 2156   1.080   0.573   5.462
  738TIP3    H1 2157   1.055   0.481   5.451
  738TIP3    H2 2158   1.035   0.601   5.541
  739TIP3   OH2 2159   0.609   3.828   0.586
  739TIP3    H1 2160   0.564   3.745   0.576
  739TIP3    H2 2161   0.700   3.809   0.561
  740TIP3   OH2 2162   4.804   3.300   6.551
  740TIP3    H1 2163   4.713   3.312   6.579
  740TIP3    H2 2164   4.816   3.205   6.552
  741TIP3   OH2 2165   5.888   2.895   1.613
  741TIP3    H1 2166   5.935   2.934   1.687
  741TIP3    H2 2167   5.874   2.968   1.553
  742TIP3   OH2 2168   3.310   4.662   5.424
  742TIP3    H1 2169   3.379   4.693   5.483
  742TIP3    H2 2170   3.235   4.718   5.442
  743TIP3   OH2 2171   3.054   7.148   5.006
  743TIP3    H1 2172   2.959   7.160   5.007
  743TIP3    H2 2173   3.079   7.144   5.099
  744TIP3   OH2 2174   5.818   4.570   3.167
  744TIP3    H1 2175   5.912   4.589   3.170
  744TIP3    H2 2176   5.813   4.474   3.159
  745TIP3   OH2 2177   2.882   5.601   0.988
  745TIP3    H1 2178   2.803   5.644   1.018
  745TIP3    H2 2179   2.852   5.517   0.953
  746TIP3   OH2 2180   4.583   5.062   4.937
  746TIP3    H1 2181   4.550   5.087   5.023
  746TIP3    H2 2182   4.614   4.972   4.949
  747TIP3   OH2 2183   1.247   0.332   1.776
  747TIP3    H1 2184   1.262   0.422   1.805
  747TIP3    H2 2185   1.188   0.341   1.701
  748TIP3   OH2 2186   4.987   1.101   6.742
  748TIP3    H1 2187   4.956   1.014   6.719
  748TIP3    H2 2188   4.911   1.158   6.730
  749TIP3   OH2 2189   1.669   2.032   6.648
  749TIP3    H1 2190   1.625   2.115   6.667
  749TIP3    H2 2191   1.744   2.030   6.708
  750TIP3   OH2 2192   3.250   5.263   3.466
  750TIP3    H1 2193   3.172   5.214   3.491
  750TIP3    H2 2194   3.220   5.330   3.405
  751TIP3   OH2 2195   2.347   2.755   0.469
  751TIP3    H1 2196   2.325   2.679   0.523
  751TIP3    H2 2197   2.312   2.830   0.516
  752TIP3   OH2 2198   6.927   1.381   5.576
  752TIP3    H1 2199   6.966   1.300   5.610
  752TIP3    H2 2200   6.980   1.451   5.613
  753TIP3   OH2 2201   7.026   5.009   1.130
  753TIP3    H1 2202   6.986   5.055   1.204
  753TIP3    H2 2203   6.983   5.046   1.053
  754TIP3   OH2 2204   7.696   5.375   0.354
  754TIP3    H1 2205   7.685   5.417   0.439
  754TIP3    H2 2206   7.776   5.323   0.363
  755TIP3   OH2 2207   2.276   6.323   0.304
  755TIP3    H1 2208   2.299   6.408   0.341
  755TIP3    H2 2209   2.308   6.260   0.369
  756TIP3   OH2 2210   1.156   3.485   4.999
  756TIP3    H1 2211   1.204   3.448   4.925
  756TIP3    H2 2212   1.064   3.465   4.981
  757TIP3   OH2 2213   5.996   2.383   3.185
  757TIP3    H1 2214   5.978   2.412   3.096
  757TIP3    H2 2215   6.076   2.429   3.209
  758TIP3   OH2 2216   5.723   4.794   4.907
  758TIP3    H1 2217   5.748   4.712   4.865
  758TIP3    H2 2218   5.799   4.819   4.959
  759TIP3   OH2 2219   2.099   2.472   0.516
  759TIP3    H1 2220   2.109   2.482   0.611
  759TIP3    H2 2221   2.004   2.472   0.503
  760TIP3   OH2 2222   6.802   4.347   3.643
  760TIP3    H1 2223   6.766   4.436   3.636
  760TIP3    H2 2224   6.806   4.316   3.552
  761TIP3   OH2 2225   5.428   2.882   3.653
  761TIP3    H1 2226   5.485   2.950   3.689
  761TIP3    H2 2227   5.342   2.923   3.647
  762TIP3   OH2 2228   6.895   7.381   0.339
  762TIP3    H1 2229   6.859   7.297   0.310
  762TIP3    H2 2230   6.835   7.409   0.409
  763TIP3   OH2 2231   4.890   5.975   1.292
  763TIP3    H1 2232   4.966   5.929   1.330
  763TIP3    H2 2233   4.814   5.929   1.327
  764TIP3   OH2 2234   7.593   7.228   3.072
  764TIP3    H1 2235   7.515   7.207   3.020
  764TIP3    H2 2236   7.558   7.257   3.156
  765TIP3   OH2 2237   5.144   0.395   2.592
  765TIP3    H1 2238   5.155   0.487   2.567
  765TIP3    H2 2239   5.170   0.346   2.514
  766TIP3   OH2 2240   2.575   5.160   6.206
  766TIP3    H1 2241   2.493   5.126   6.169
  766TIP3    H2 2242   2.578   5.252   6.177
  767TIP3   OH2 2243   8.093   7.811   1.661
  767TIP3    H1 2244   8.172   7.757   1.657
  767TIP3    H2 2245   8.079   7.839   1.570
  768TIP3   OH2 2246   4.428   0.335   1.384
  768TIP3    H1 2247   4.504   0.368   1.432
  768TIP3    H2 2248   4.395   0.411   1.337
  769TIP3   OH2 2249   3.548   6.138   4.053
  769TIP3    H1 2250   3.551   6.190   3.972
  769TIP3    H2 2251   3.638   6.140   4.087
  770TIP3   OH2 2252   4.588   2.002   4.422
  770TIP3    H1 2253   4.579   1.914   4.458
  770TIP3    H2 2254   4.499   2.037   4.420
  771TIP3   OH2 2255   1.473   6.260   2.511
  771TIP3    H1 2256   1.392   6.226   2.474
  771TIP3    H2 2257   1.541   6.235   2.447
  772TIP3   OH2 2258   3.646   1.687   1.234
  772TIP3    H1 2259   3.690   1.603   1.246
  772TIP3    H2 2260   3.716   1.749   1.217
  773TIP3   OH2 2261   0.258   4.353   5.738
  773TIP3    H1 2262   0.224   4.378   5.824
  773TIP3    H2 2263   0.187   4.303   5.697
  774TIP3   OH2 2264   3.971   2.161   0.973
  774TIP3    H1 2265   4.024   2.081   0.960
  774TIP3    H2 2266   3.902   2.154   0.907
  775TIP3   OH2 2267   1.159   0.771   4.508
  775TIP3    H1 2268   1.247   0.802   4.533
  775TIP3    H2 2269   1.099   0.825   4.559
  776TIP3   OH2 2270   4.307   7.717   6.171
  776TIP3    H1 2271   4.251   7.705   6.094
  776TIP3    H2 2272   4.310   7.812   6.184
  777TIP3   OH2 2273   2.766   5.986   4.360
  777TIP3    H1 2274   2.703   6.054   4.334
  777TIP3    H2 2275   2.717   5.904   4.352
  778TIP3   OH2 2276   1.848   3.337   0.003
  778TIP3    H1 2277   1.885   3.248   0.000
  778TIP3    H2 2278   1.832   3.353   0.096
  779TIP3   OH2 2279   1.161   1.468   2.407
  779TIP3    H1 2280   1.234   1.428   2.455
  779TIP3    H2 2281   1.086   1.412   2.425
  780TIP3   OH2 2282   0.075   2.647   3.959
  780TIP3    H1 2283   0.119   2.563   3.946
  780TIP3    H2 2284   0.087   2.693   3.876
  781TIP3   OH2 2285   4.479   1.421   2.730
  781TIP3    H1 2286   4.438   1.338   2.755
  781TIP3    H2 2287   4.485   1.416   2.635
  782TIP3   OH2 2288   2.576   6.177   1.777
  782TIP3    H1 2289   2.566   6.231   1.855
  782TIP3    H2 2290   2.669   6.182   1.755
  783TIP3   OH2 2291   0.292   6.570   1.754
  783TIP3    H1 2292   0.274   6.636   1.687
  783TIP3    H2 2293   0.221   6.506   1.745
  784TIP3   OH2 2294   1.149   1.851   1.198
  784TIP3    H1 2295   1.136   1.765   1.159
  784TIP3    H2 2296   1.067   1.870   1.242
  785TIP3   OH2 2297   3.244   5.768   1.641
  785TIP3    H1 2298   3.255   5.762   1.546
  785TIP3    H2 2299   3.290   5.691   1.675
  786TIP3   OH2 2300   1.102   7.515   2.151
  786TIP3    H1 2301   1.028   7.564   2.116
  786TIP3    H2 2302   1.154   7.491   2.073
  787TIP3   OH2 2303   0.475   3.608   4.889
  787TIP3    H1 2304   0.452   3.558   4.967
  787TIP3    H2 2305   0.563   3.641   4.906
  788TIP3   OH2 2306   2.738   6.829   4.596
  788TIP3    H1 2307   2.689   6.750   4.618
  788TIP3    H2 2308   2.673   6.888   4.558
  789TIP3   OH2 2309   1.409   0.477   0.450
  789TIP3    H1 2310   1.416   0.543   0.381
  789TIP3    H2 2311   1.499   0.443   0.458
  790TIP3   OH2 2312   5.825   6.062   2.396
  790TIP3    H1 2313   5.885   5.998   2.433
  790TIP3    H2 2314   5.763   6.009   2.344
  791TIP3   OH2 2315   5.195   5.016   6.631
  791TIP3    H1 2316   5.106   4.986   6.612
  791TIP3    H2 2317   5.191   5.045   6.722
  792TIP3   OH2 2318   7.054   1.447   2.461
  792TIP3    H1 2319   7.051   1.516   2.395
  792TIP3    H2 2320   7.148   1.427   2.470
  793TIP3   OH2 2321   7.448   5.364   5.640
  793TIP3    H1 2322   7.512   5.361   5.711
  793TIP3    H2 2323   7.414   5.274   5.634
  794TIP3   OH2 2324   1.961   3.055   5.286
  794TIP3    H1 2325   1.918   3.141   5.289
  794TIP3    H2 2326   1.968   3.035   5.192
  795TIP3   OH2 2327   1.432   5.885   0.703
  795TIP3    H1 2328   1.384   5.916   0.780
  795TIP3    H2 2329   1.445   5.791   0.720
  796TIP3   OH2 2330   5.140   3.108   1.429
  796TIP3    H1 2331   5.175   3.195   1.448
  796TIP3    H2 2332   5.054   3.107   1.469
  797TIP3   OH2 2333   6.691   5.940   2.312
  797TIP3    H1 2334   6.766   5.920   2.257
  797TIP3    H2 2335   6.721   5.921   2.401
  798TIP3   OH2 2336   1.044   1.505   2.019
  798TIP3    H1 2337   0.986   1.544   2.084
  798TIP3    H2 2338   1.003   1.523   1.935
  799TIP3   OH2 2339   6.342   5.460   6.026
  799TIP3    H1 2340   6.305   5.394   6.085
  799TIP3    H2 2341   6.307   5.543   6.058
  800TIP3   OH2 2342   5.293   7.656   0.303
  800TIP3    H1 2343   5.311   7.739   0.259
  800TIP3    H2 2344   5.379   7.615   0.315
  801TIP3   OH2 2345   1.772   3.065   2.306
  801TIP3    H1 2346   1.755   2.970   2.308
  801TIP3    H2 2347   1.706   3.103   2.364
  802TIP3   OH2 2348   2.690   3.811   3.168
  802TIP3    H1 2349   2.644   3.732   3.197
  802TIP3    H2 2350   2.706   3.860   3.249
  803TIP3   OH2 2351   5.090   0.501   1.751
  803TIP3    H1 2352   5.040   0.434   1.704
  803TIP3    H2 2353   5.124   0.456   1.829
  804TIP3   OH2 2354   4.406   1.814   4.696
  804TIP3    H1 2355   4.368   1.900   4.711
  804TIP3    H2 2356   4.330   1.756   4.685
  805TIP3   OH2 2357   5.960   1.417   1.776
  805TIP3    H1 2358   5.868   1.433   1.755
  805TIP3    H2 2359   5.984   1.489   1.834
  806TIP3   OH2 2360   2.641   4.321   6.713
  806TIP3    H1 2361   2.556   4.326   6.668
  806TIP3    H2 2362   2.619   4.330   6.805
  807TIP3   OH2 2363   4.104   4.797   5.920
  807TIP3    H1 2364   4.022   4.784   5.968
  807TIP3    H2 2365   4.146   4.871   5.965
  808TIP3   OH2 2366   3.925   7.270   1.467
  808TIP3    H1 2367   3.870   7.230   1.400
  808TIP3    H2 2368   3.940   7.359   1.436
  809TIP3   OH2 2369   3.726   1.243   2.369
  809TIP3    H1 2370   3.779   1.221   2.446
  809TIP3    H2 2371   3.708   1.159   2.327
  810TIP3   OH2 2372   4.737   3.784   3.671
  810TIP3    H1 2373   4.804   3.829   3.723
  810TIP3    H2 2374   4.665   3.769   3.732
  811TIP3   OH2 2375   3.286   1.273   0.592
  811TIP3    H1 2376   3.210   1.331   0.583
  811TIP3    H2 2377   3.355   1.329   0.628
  812TIP3   OH2 2378   7.444   6.559   3.165
  812TIP3    H1 2379   7.399   6.643   3.174
  812TIP3    H2 2380   7.374   6.494   3.163
  813TIP3   OH2 2381   5.490   3.236   2.041
  813TIP3    H1 2382   5.498   3.272   1.953
  813TIP3    H2 2383   5.436   3.158   2.030
  814TIP3   OH2 2384   8.195   2.692   4.597
  814TIP3    H1 2385   8.203   2.607   4.555
  814TIP3    H2 2386   8.107   2.691   4.637
  815TIP3   OH2 2387   1.030   5.910   2.408
  815TIP3    H1 2388   0.999   5.998   2.427
  815TIP3    H2 2389   1.072   5.917   2.322
  816TIP3   OH2 2390   0.613   1.818   2.696
  816TIP3    H1 2391   0.693   1.831   2.644
  816TIP3    H2 2392   0.542   1.839   2.636
  817TIP3   OH2 2393   6.944   7.782   3.616
  817TIP3    H1 2394   6.853   7.764   3.641
  817TIP3    H2 2395   6.987   7.696   3.620
  818TIP3   OH2 2396   7.041   3.218   0.994
  818TIP3    H1 2397   7.041   3.261   1.080
  818TIP3    H2 2398   7.081   3.283   0.936
  819TIP3   OH2 2399   4.592   2.382   3.268
  819TIP3    H1 2400   4.523   2.442   3.298
  819TIP3    H2 2401   4.548   2.298   3.260
  820TIP3   OH2 2402   6.366   1.934   3.570
  820TIP3    H1 2403   6.288   1.889   3.538
  820TIP3    H2 2404   6.377   1.902   3.659
  821TIP3   OH2 2405   7.388   2.055   4.224
  821TIP3    H1 2406   7.384   1.988   4.155
  821TIP3    H2 2407   7.408   2.136   4.178
  822TIP3   OH2 2408   7.049   1.029   3.903
  822TIP3    H1 2409   6.974   0.977   3.932
  822TIP3    H2 2410   7.084   0.982   3.828
  823TIP3   OH2 2411   6.280   4.687   2.137
  823TIP3    H1 2412   6.271   4.633   2.216
  823TIP3    H2 2413   6.345   4.641   2.084
  824TIP3   OH2 2414   3.973   0.086   6.157
  824TIP3    H1 2415   3.890   0.044   6.178
  824TIP3    H2 2416   4.010   0.110   6.242
  825TIP3   OH2 2417   2.380   7.791   3.227
  825TIP3    H1 2418   2.418   7.703   3.218
  825TIP3    H2 2419   2.406   7.819   3.315
  826TIP3   OH2 2420   0.199   7.299   2.774
  826TIP3    H1 2421   0.108   7.277   2.756
  826TIP3    H2 2422   0.242   7.298   2.688
  827TIP3   OH2 2423   7.644   4.906   4.308
  827TIP3    H1 2424   7.624   4.986   4.260
  827TIP3    H2 2425   7.658   4.840   4.240
  828TIP3   OH2 2426   4.105   7.647   4.445
  828TIP3    H1 2427   4.191   7.667   4.410
  828TIP3    H2 2428   4.106   7.552   4.457
  829TIP3   OH2 2429   1.542   2.225   6.219
  829TIP3    H1 2430   1.484   2.278   6.165
  829TIP3    H2 2431   1.510   2.237   6.308
  830TIP3   OH2 2432   5.028   0.790   5.059
  830TIP3    H1 2433   5.078   0.866   5.089
  830TIP3    H2 2434   4.981   0.761   5.137
  831TIP3   OH2 2435   6.052   6.305   0.351
  831TIP3    H1 2436   6.034   6.398   0.340
  831TIP3    H2 2437   6.039   6.289   0.444
  832TIP3   OH2 2438   2.246   3.532   4.794
  832TIP3    H1 2439   2.186   3.598   4.759
  832TIP3    H2 2440   2.313   3.583   4.841
  833TIP3   OH2 2441   0.723   2.222   3.175
  833TIP3    H1 2442   0.638   2.183   3.153
  833TIP3    H2 2443   0.717   2.240   3.269
  834TIP3   OH2 2444   2.812   1.672   5.168
  834TIP3    H1 2445   2.856   1.598   5.211
  834TIP3    H2 2446   2.721   1.666   5.197
  835TIP3   OH2 2447   3.004   4.071   0.068
  835TIP3    H1 2448   3.097   4.051   0.071
  835TIP3    H2 2449   2.973   4.027  -0.011
  836TIP3   OH2 2450   5.612   1.165   5.882
  836TIP3    H1 2451   5.613   1.070   5.890
  836TIP3    H2 2452   5.527   1.191   5.918
  837TIP3   OH2 2453   1.958   0.773   5.311
  837TIP3    H1 2454   1.892   0.824   5.357
  837TIP3    H2 2455   1.945   0.683   5.340
  838TIP3   OH2 2456   4.508   4.612   4.545
  838TIP3    H1 2457   4.580   4.554   4.571
  838TIP3    H2 2458   4.519   4.623   4.450
  839TIP3   OH2 2459   6.815   0.339   4.738
  839TIP3    H1 2460   6.813   0.251   4.700
  839TIP3    H2 2461   6.849   0.327   4.826
  840TIP3   OH2 2462   5.463   3.181   0.306
  840TIP3    H1 2463   5.473   3.270   0.340
  840TIP3    H2 2464   5.368   3.170   0.295
  841TIP3   OH2 2465   1.889   6.337   5.584
  841TIP3    H1 2466   1.827   6.402   5.552
  841TIP3    H2 2467   1.857   6.314   5.671
  842TIP3   OH2 2468   6.868   6.011   0.634
  842TIP3    H1 2469   6.858   5.932   0.582
  842TIP3    H2 2470   6.915   5.983   0.712
  843TIP3   OH2 2471   0.274   6.815   4.974
  843TIP3    H1 2472   0.239   6.889   4.924
  843TIP3    H2 2473   0.332   6.770   4.912
  844TIP3   OH2 2474   2.864   6.005   6.723
  844TIP3    H1 2475   2.848   5.945   6.795
  844TIP3    H2 2476   2.777   6.025   6.689
  845TIP3   OH2 2477   6.744   3.865   6.136
  845TIP3    H1 2478   6.771   3.814   6.060
  845TIP3    H2 2479   6.655   3.894   6.116
  846TIP3   OH2 2480   0.284   1.305   0.287
  846TIP3    H1 2481   0.211   1.261   0.244
  846TIP3    H2 2482   0.245   1.348   0.363
  847TIP3   OH2 2483   3.693   4.625   4.103
  847TIP3    H1 2484   3.727   4.539   4.080
  847TIP3    H2 2485   3.722   4.639   4.193
  848TIP3   OH2 2486   3.131   7.620   6.495
  848TIP3    H1 2487   3.052   7.668   6.521
  848TIP3    H2 2488   3.099   7.549   6.440
  849TIP3   OH2 2489   1.232   7.689   2.492
  849TIP3    H1 2490   1.232   7.610   2.547
  849TIP3    H2 2491   1.141   7.719   2.494
  850TIP3   OH2 2492   3.713   7.214   2.940
  850TIP3    H1 2493   3.797   7.181   2.910
  850TIP3    H2 2494   3.651   7.190   2.872
  851TIP3   OH2 2495   2.734   3.367   3.864
  851TIP3    H1 2496   2.770   3.289   3.822
  851TIP3    H2 2497   2.642   3.368   3.837
  852TIP3   OH2 2498   0.503   6.168   1.434
  852TIP3    H1 2499   0.531   6.253   1.400
  852TIP3    H2 2500   0.421   6.186   1.478
  853TIP3   OH2 2501   3.101   3.661   6.503
  853TIP3    H1 2502   3.157   3.600   6.551
  853TIP3    H2 2503   3.130   3.653   6.412
  854TIP3   OH2 2504   6.834   7.703   5.571
  854TIP3    H1 2505   6.874   7.617   5.560
  854TIP3    H2 2506   6.813   7.709   5.664
  855TIP3   OH2 2507   6.390   5.818   5.123
  855TIP3    H1 2508   6.324   5.750   5.114
  855TIP3    H2 2509   6.399   5.832   5.217
  856TIP3   OH2 2510   5.453   6.458   4.001
  856TIP3    H1 2511   5.501   6.376   3.991
  856TIP3    H2 2512   5.521   6.525   4.011
  857TIP3   OH2 2513   6.114   2.249   0.930
  857TIP3    H1 2514   6.055   2.217   0.862
  857TIP3    H2 2515   6.125   2.342   0.911
  858TIP3   OH2 2516   5.530   5.319   1.999
  858TIP3    H1 2517   5.526   5.402   1.951
  858TIP3    H2 2518   5.623   5.303   2.013
  859TIP3   OH2 2519   5.921   2.375   0.452
  859TIP3    H1 2520   5.958   2.462   0.468
  859TIP3    H2 2521   5.846   2.370   0.511
  860TIP3   OH2 2522   6.421   6.535   1.971
  860TIP3    H1 2523   6.393   6.591   2.044
  860TIP3    H2 2524   6.487   6.477   2.009
  861TIP3   OH2 2525   6.483   3.820   5.032
  861TIP3    H1 2526   6.472   3.913   5.051
  861TIP3    H2 2527   6.572   3.800   5.063
  862TIP3   OH2 2528   5.550   1.239   5.284
  862TIP3    H1 2529   5.571   1.316   5.231
  862TIP3    H2 2530   5.467   1.260   5.326
  863TIP3   OH2 2531   4.565   7.047   6.270
  863TIP3    H1 2532   4.614   6.997   6.335
  863TIP3    H2 2533   4.518   6.980   6.220
  864TIP3   OH2 2534   1.373   3.921   6.132
  864TIP3    H1 2535   1.417   3.866   6.067
  864TIP3    H2 2536   1.419   4.005   6.127
  865TIP3   OH2 2537   7.111   1.301   6.358
  865TIP3    H1 2538   7.126   1.381   6.408
  865TIP3    H2 2539   7.198   1.261   6.350
  866TIP3   OH2 2540   8.210   2.853   1.943
  866TIP3    H1 2541   8.161   2.914   1.888
  866TIP3    H2 2542   8.164   2.853   2.026
  867TIP3   OH2 2543   8.009   2.840   2.632
  867TIP3    H1 2544   8.023   2.809   2.542
  867TIP3    H2 2545   8.052   2.774   2.686
  868TIP3   OH2 2546   2.599   5.726   4.304
  868TIP3    H1 2547   2.575   5.770   4.223
  868TIP3    H2 2548   2.638   5.643   4.276
  869TIP3   OH2 2549   4.572   4.296   1.509
  869TIP3    H1 2550   4.603   4.280   1.598
  869TIP3    H2 2551   4.517   4.374   1.516
  870TIP3   OH2 2552   1.633   3.318   3.726
  870TIP3    H1 2553   1.710   3.297   3.779
  870TIP3    H2 2554   1.608   3.234   3.688
  871TIP3   OH2 2555   6.957   4.842   0.290
  871TIP3    H1 2556   6.973   4.820   0.198
  871TIP3    H2 2557   7.009   4.921   0.305
  872TIP3   OH2 2558   5.603   4.724   1.294
  872TIP3    H1 2559   5.522   4.775   1.291
  872TIP3    H2 2560   5.610   4.694   1.384
  873TIP3   OH2 2561   5.771   3.875   4.737
  873TIP3    H1 2562   5.680   3.861   4.711
  873TIP3    H2 2563   5.806   3.788   4.752
  874TIP3   OH2 2564   0.699   3.886   6.009
  874TIP3    H1 2565   0.771   3.919   6.062
  874TIP3    H2 2566   0.688   3.951   5.940
  875TIP3   OH2 2567   8.239   6.454   2.875
  875TIP3    H1 2568   8.318   6.403   2.893
  875TIP3    H2 2569   8.261   6.543   2.902
  876TIP3   OH2 2570   3.108   3.398   4.588
  876TIP3    H1 2571   3.120   3.304   4.572
  876TIP3    H2 2572   3.163   3.441   4.522
  877TIP3   OH2 2573   1.744   4.012   5.910
  877TIP3    H1 2574   1.799   4.058   5.847
  877TIP3    H2 2575   1.765   3.919   5.897
  878TIP3   OH2 2576   3.734   2.060   2.672
  878TIP3    H1 2577   3.695   2.032   2.755
  878TIP3    H2 2578   3.784   1.984   2.642
  879TIP3   OH2 2579   0.852   5.373   6.723
  879TIP3    H1 2580   0.857   5.278   6.732
  879TIP3    H2 2581   0.795   5.386   6.647
  880TIP3   OH2 2582   1.781   3.737   1.096
  880TIP3    H1 2583   1.836   3.659   1.089
  880TIP3    H2 2584   1.830   3.805   1.050
  881TIP3   OH2 2585   7.257   4.044   5.621
  881TIP3    H1 2586   7.275   4.079   5.708
  881TIP3    H2 2587   7.342   4.016   5.589
  882TIP3   OH2 2588   5.193   2.216   5.206
  882TIP3    H1 2589   5.160   2.126   5.203
  882TIP3    H2 2590   5.283   2.210   5.175
  883TIP3   OH2 2591   6.596   5.769   0.105
  883TIP3    H1 2592   6.532   5.711   0.063
  883TIP3    H2 2593   6.559   5.857   0.097
  884TIP3   OH2 2594   1.740   4.455   5.090
  884TIP3    H1 2595   1.758   4.546   5.064
  884TIP3    H2 2596   1.744   4.457   5.185
  885TIP3   OH2 2597   4.461   0.023   3.340
  885TIP3    H1 2598   4.488   0.063   3.423
  885TIP3    H2 2599   4.514   0.066   3.274
  886TIP3   OH2 2600   7.954   3.026   1.464
  886TIP3    H1 2601   8.034   3.077   1.478
  886TIP3    H2 2602   7.975   2.971   1.388
  887TIP3   OH2 2603   3.224   3.719   6.258
  887TIP3    H1 2604   3.185   3.806   6.263
  887TIP3    H2 2605   3.213   3.692   6.167
  888TIP3   OH2 2606   6.168   3.425   0.139
  888TIP3    H1 2607   6.245   3.437   0.083
  888TIP3    H2 2608   6.094   3.430   0.079
  889TIP3   OH2 2609   1.069   5.261   0.158
  889TIP3    H1 2610   1.142   5.244   0.217
  889TIP3    H2 2611   0.999   5.204   0.189
  890TIP3   OH2 2612   5.984   1.770   2.677
  890TIP3    H1 2613   5.978   1.676   2.657
  890TIP3    H2 2614   6.040   1.774   2.754
  891TIP3   OH2 2615   5.416   3.062   6.563
  891TIP3    H1 2616   5.342   3.038   6.507
  891TIP3    H2 2617   5.388   3.042   6.652
  892TIP3   OH2 2618   6.103   3.486   5.199
  892TIP3    H1 2619   6.016   3.473   5.161
  892TIP3    H2 2620   6.158   3.511   5.124
  893TIP3   OH2 2621   5.366   7.668   2.721
  893TIP3    H1 2622   5.377   7.589   2.668
  893TIP3    H2 2623   5.342   7.736   2.658
  894TIP3   OH2 2624   7.945   2.764   2.976
  894TIP3    H1 2625   7.954   2.850   3.018
  894TIP3    H2 2626   7.916   2.706   3.046
  895TIP3   OH2 2627   0.146   4.885   1.978
  895TIP3    H1 2628   0.097   4.859   1.900
  895TIP3    H2 2629   0.221   4.934   1.944
  896TIP3   OH2 2630   3.270   3.316   6.223
  896TIP3    H1 2631   3.316   3.243   6.264
  896TIP3    H2 2632   3.200   3.337   6.285
  897TIP3   OH2 2633   1.452   0.908   5.697
  897TIP3    H1 2634   1.385   0.879   5.634
  897TIP3    H2 2635   1.402   0.932   5.775
  898TIP3   OH2 2636   6.465   1.487   5.279
  898TIP3    H1 2637   6.559   1.501   5.278
  898TIP3    H2 2638   6.453   1.400   5.240
  899TIP3   OH2 2639   6.374   0.445   1.345
  899TIP3    H1 2640   6.363   0.357   1.310
  899TIP3    H2 2641   6.426   0.491   1.279
  900TIP3   OH2 2642   7.201   2.114   5.589
  900TIP3    H1 2643   7.107   2.104   5.597
  900TIP3    H2 2644   7.213   2.202   5.553
  901TIP3   OH2 2645   1.901   3.496   1.158
  901TIP3    H1 2646   1.932   3.487   1.249
  901TIP3    H2 2647   1.812   3.461   1.159
  902TIP3   OH2 2648   4.752   5.054   2.828
  902TIP3    H1 2649   4.753   5.149   2.818
  902TIP3    H2 2650   4.845   5.030   2.834
  903TIP3   OH2 2651   4.349   4.062   1.474
  903TIP3    H1 2652   4.369   4.103   1.558
  903TIP3    H2 2653   4.270   4.107   1.444
  904TIP3   OH2 2654   3.654   6.953   4.129
  904TIP3    H1 2655   3.653   6.968   4.035
  904TIP3    H2 2656   3.747   6.939   4.150
  905TIP3   OH2 2657   1.449   4.085   4.817
  905TIP3    H1 2658   1.537   4.048   4.826
  905TIP3    H2 2659   1.422   4.106   4.906
  906TIP3   OH2 2660   5.367   3.239   3.543
  906TIP3    H1 2661   5.334   3.182   3.473
  906TIP3    H2 2662   5.308   3.315   3.542
  907TIP3   OH2 2663   5.427   3.961   3.781
  907TIP3    H1 2664   5.427   4.041   3.834
  907TIP3    H2 2665   5.419   3.991   3.691
  908TIP3   OH2 2666   6.210   1.688   1.573
  908TIP3    H1 2667   6.282   1.682   1.636
  908TIP3    H2 2668   6.253   1.692   1.488
  909TIP3   OH2 2669   5.636   5.568   1.100
  909TIP3    H1 2670   5.588   5.636   1.146
  909TIP3    H2 2671   5.635   5.493   1.160
  910TIP3   OH2 2672   1.273   2.106   4.413
  910TIP3    H1 2673   1.314   2.187   4.381
  910TIP3    H2 2674   1.303   2.098   4.504
  911TIP3   OH2 2675   5.417   1.149   3.987
  911TIP3    H1 2676   5.504   1.128   3.954
  911TIP3    H2 2677   5.432   1.209   4.060
  912TIP3   OH2 2678   4.777   1.367   4.730
  912TIP3    H1 2679   4.810   1.354   4.641
  912TIP3    H2 2680   4.738   1.454   4.728
  913TIP3   OH2 2681   0.881   1.371   1.305
  913TIP3    H1 2682   0.929   1.436   1.255
  913TIP3    H2 2683   0.798   1.360   1.258
  914TIP3   OH2 2684   5.361   1.447   4.665
  914TIP3    H1 2685   5.301   1.373   4.666
  914TIP3    H2 2686   5.314   1.516   4.620
  915TIP3   OH2 2687   6.627   4.282   4.916
  915TIP3    H1 2688   6.607   4.374   4.900
  915TIP3    H2 2689   6.722   4.278   4.924
  916TIP3   OH2 2690   7.075   5.942   5.284
  916TIP3    H1 2691   7.007   6.008   5.297
  916TIP3    H2 2692   7.138   5.985   5.226
  917TIP3   OH2 2693   4.187   3.532   1.723
  917TIP3    H1 2694   4.219   3.614   1.761
  917TIP3    H2 2695   4.096   3.527   1.751
  918TIP3   OH2 2696   3.528   4.238   3.203
  918TIP3    H1 2697   3.480   4.156   3.202
  918TIP3    H2 2698   3.597   4.225   3.268
  919TIP3   OH2 2699   1.967   3.126   6.209
  919TIP3    H1 2700   2.053   3.165   6.190
  919TIP3    H2 2701   1.922   3.194   6.259
  920TIP3   OH2 2702   4.634   5.413   4.769
  920TIP3    H1 2703   4.571   5.386   4.835
  920TIP3    H2 2704   4.718   5.414   4.815
  921TIP3   OH2 2705   2.171   0.722   6.329
  921TIP3    H1 2706   2.149   0.691   6.241
  921TIP3    H2 2707   2.265   0.742   6.325
  922TIP3   OH2 2708   3.539   6.542   5.425
  922TIP3    H1 2709   3.455   6.566   5.385
  922TIP3    H2 2710   3.584   6.492   5.357
  923TIP3   OH2 2711   0.437   1.592   4.889
  923TIP3    H1 2712   0.439   1.506   4.848
  923TIP3    H2 2713   0.520   1.633   4.862
  924TIP3   OH2 2714   6.572   4.891   2.912
  924TIP3    H1 2715   6.511   4.823   2.941
  924TIP3    H2 2716   6.564   4.960   2.978
  925TIP3   OH2 2717   5.536   7.148   5.898
  925TIP3    H1 2718   5.621   7.175   5.933
  925TIP3    H2 2719   5.530   7.193   5.814
  926TIP3   OH2 2720   2.453   0.347   4.552
  926TIP3    H1 2721   2.505   0.400   4.613
  926TIP3    H2 2722   2.427   0.271   4.602
  927TIP3   OH2 2723   5.396   2.970   3.950
  927TIP3    H1 2724   5.315   3.012   3.923
  927TIP3    H2 2725   5.466   3.027   3.916
  928TIP3   OH2 2726   1.289   4.478   5.842
  928TIP3    H1 2727   1.217   4.533   5.810
  928TIP3    H2 2728   1.245   4.401   5.880
  929TIP3   OH2 2729   2.906   3.250   0.937
  929TIP3    H1 2730   2.909   3.181   0.870
  929TIP3    H2 2731   2.935   3.328   0.891
  930TIP3   OH2 2732   8.215   1.673   0.400
  930TIP3    H1 2733   8.139   1.619   0.380
  930TIP3    H2 2734   8.183   1.739   0.460
  931TIP3   OH2 2735   1.347   0.637   3.685
  931TIP3    H1 2736   1.314   0.552   3.715
  931TIP3    H2 2737   1.268   0.691   3.675
  932TIP3   OH2 2738   0.344   5.159   2.177
  932TIP3    H1 2739   0.360   5.066   2.191
  932TIP3    H2 2740   0.410   5.203   2.230
  933TIP3   OH2 2741   2.077   3.404   3.782
  933TIP3    H1 2742   2.037   3.323   3.750
  933TIP3    H2 2743   2.153   3.374   3.833
  934TIP3   OH2 2744   0.237   7.346   3.228
  934TIP3    H1 2745   0.288   7.328   3.149
  934TIP3    H2 2746   0.154   7.301   3.214
  935TIP3   OH2 2747   7.878   5.391   2.766
  935TIP3    H1 2748   7.807   5.327   2.755
  935TIP3    H2 2749   7.834   5.476   2.758
  936TIP3   OH2 2750   3.651   2.067   5.601
  936TIP3    H1 2751   3.666   2.068   5.696
  936TIP3    H2 2752   3.738   2.086   5.563
  937TIP3   OH2 2753   4.562   1.146   1.217
  937TIP3    H1 2754   4.482   1.158   1.268
  937TIP3    H2 2755   4.612   1.227   1.231
  938TIP3   OH2 2756   1.975   7.563   4.892
  938TIP3    H1 2757   1.994   7.652   4.863
  938TIP3    H2 2758   1.957   7.572   4.985
  939TIP3   OH2 2759   6.491   1.502   3.930
  939TIP3    H1 2760   6.544   1.468   4.002
  939TIP3    H2 2761   6.512   1.595   3.928
  940TIP3   OH2 2762   7.864   6.905   1.122
  940TIP3    H1 2763   7.786   6.921   1.069
  940TIP3    H2 2764   7.879   6.811   1.115
  941TIP3   OH2 2765   0.100   6.659   5.629
  941TIP3    H1 2766   0.112   6.692   5.718
  941TIP3    H2 2767   0.131   6.568   5.633
  942TIP3   OH2 2768   6.435   3.746   1.716
  942TIP3    H1 2769   6.392   3.821   1.675
  942TIP3    H2 2770   6.512   3.730   1.661
  943TIP3   OH2 2771   1.468   4.277   5.519
  943TIP3    H1 2772   1.498   4.210   5.457
  943TIP3    H2 2773   1.464   4.231   5.603
  944TIP3   OH2 2774   1.736   3.436   4.578
  944TIP3    H1 2775   1.757   3.443   4.671
  944TIP3    H2 2776   1.815   3.467   4.533
  945TIP3   OH2 2777   7.623   2.921   6.119
  945TIP3    H1 2778   7.707   2.934   6.074
  945TIP3    H2 2779   7.632   2.971   6.200
  946TIP3   OH2 2780   2.710   7.635   1.706
  946TIP3    H1 2781   2.646   7.620   1.636
  946TIP3    H2 2782   2.727   7.729   1.704
  947TIP3   OH2 2783   0.370   0.793   5.304
  947TIP3    H1 2784   0.390   0.760   5.217
  947TIP3    H2 2785   0.454   0.795   5.349
  948TIP3   OH2 2786   0.628   5.198   2.327
  948TIP3    H1 2787   0.653   5.107   2.340
  948TIP3    H2 2788   0.709   5.244   2.308
  949TIP3   OH2 2789   5.055   2.083   4.198
  949TIP3    H1 2790   5.131   2.077   4.139
  949TIP3    H2 2791   5.035   2.177   4.201
  950TIP3   OH2 2792   2.396   3.468   2.926
  950TIP3    H1 2793   2.422   3.487   2.836
  950TIP3    H2 2794   2.301   3.483   2.928
  951TIP3   OH2 2795   3.824   5.018   0.737
  951TIP3    H1 2796   3.855   5.103   0.768
  951TIP3    H2 2797   3.749   5.039   0.681
  952TIP3   OH2 2798   7.481   0.686   1.424
  952TIP3    H1 2799   7.458   0.749   1.493
  952TIP3    H2 2800   7.417   0.615   1.434
  953TIP3   OH2 2801   5.233   3.569   6.691
  953TIP3    H1 2802   5.161   3.631   6.677
  953TIP3    H2 2803   5.312   3.619   6.670
  954TIP3   OH2 2804   2.207   4.147   4.669
  954TIP3    H1 2805   2.157   4.145   4.587
  954TIP3    H2 2806   2.208   4.239   4.695
  955TIP3   OH2 2807   0.660   7.222   4.530
  955TIP3    H1 2808   0.574   7.219   4.573
  955TIP3    H2 2809   0.705   7.296   4.572
  956TIP3   OH2 2810   2.458   5.272   0.635
  956TIP3    H1 2811   2.419   5.184   0.633
  956TIP3    H2 2812   2.482   5.289   0.544
  957TIP3   OH2 2813   7.143   2.480   0.752
  957TIP3    H1 2814   7.062   2.434   0.774
  957TIP3    H2 2815   7.159   2.537   0.828
  958TIP3   OH2 2816   3.840   6.468   5.584
  958TIP3    H1 2817   3.910   6.478   5.519
  958TIP3    H2 2818   3.782   6.401   5.547
  959TIP3   OH2 2819   7.734   7.667   4.558
  959TIP3    H1 2820   7.696   7.750   4.585
  959TIP3    H2 2821   7.659   7.614   4.530
  960TIP3   OH2 2822   1.738   2.278   3.309
  960TIP3    H1 2823   1.697   2.362   3.288
  960TIP3    H2 2824   1.697   2.215   3.249
  961TIP3   OH2 2825   0.817   3.703   1.753
  961TIP3    H1 2826   0.807   3.643   1.827
  961TIP3    H2 2827   0.745   3.765   1.762
  962TIP3   OH2 2828   2.943   4.924   1.614
  962TIP3    H1 2829   2.882   4.906   1.543
  962TIP3    H2 2830   2.999   4.994   1.582
  963TIP3   OH2 2831   2.330   7.495   0.248
  963TIP3    H1 2832   2.364   7.532   0.166
  963TIP3    H2 2833   2.337   7.567   0.311
  964TIP3   OH2 2834   6.490   4.019   6.446
  964TIP3    H1 2835   6.537   4.080   6.389
  964TIP3    H2 2836   6.419   3.986   6.391
  965TIP3   OH2 2837   0.294   3.067   1.437
  965TIP3    H1 2838   0.220   3.059   1.498
  965TIP3    H2 2839   0.306   2.978   1.403
  966TIP3   OH2 2840   2.009   5.858   5.359
  966TIP3    H1 2841   2.096   5.872   5.396
  966TIP3    H2 2842   1.967   5.944   5.362
  967TIP3   OH2 2843   2.342   5.387  -0.008
  967TIP3    H1 2844   2.391   5.306   0.004
  967TIP3    H2 2845   2.270   5.381   0.055
  968TIP3   OH2 2846   1.088   0.406   2.496
  968TIP3    H1 2847   1.083   0.364   2.411
  968TIP3    H2 2848   1.181   0.402   2.519
  969TIP3   OH2 2849   6.379   4.771   6.085
  969TIP3    H1 2850   6.375   4.805   5.996
  969TIP3    H2 2851   6.288   4.751   6.107
  970TIP3   OH2 2852   0.044   2.865   1.026
  970TIP3    H1 2853  -0.047   2.841   1.008
  970TIP3    H2 2854   0.067   2.815   1.105
  971TIP3   OH2 2855   4.353   5.465   3.716
  971TIP3    H1 2856   4.365   5.437   3.806
  971TIP3    H2 2857   4.393   5.396   3.663
  972TIP3   OH2 2858   3.742   6.338   4.324
  972TIP3    H1 2859   3.823   6.306   4.362
  972TIP3    H2 2860   3.745   6.311   4.232
  973TIP3   OH2 2861   1.410   3.873   6.424
  973TIP3    H1 2862   1.331   3.820   6.425
  973TIP3    H2 2863   1.452   3.852   6.341
  974TIP3   OH2 2864   2.627   1.636   2.139
  974TIP3    H1 2865   2.632   1.568   2.206
  974TIP3    H2 2866   2.550   1.613   2.087
  975TIP3   OH2 2867   1.006   0.396   1.193
  975TIP3    H1 2868   0.957   0.473   1.222
  975TIP3    H2 2869   0.964   0.323   1.239
  976TIP3   OH2 2870   5.404   2.416   3.723
  976TIP3    H1 2871   5.321   2.376   3.750
  976TIP3    H2 2872   5.463   2.401   3.797
  977TIP3   OH2 2873   3.677   2.313   4.103
  977TIP3    H1 2874   3.681   2.231   4.054
  977TIP3    H2 2875   3.671   2.286   4.195
  978TIP3   OH2 2876   1.777   4.383   2.914
  978TIP3    H1 2877   1.828   4.453   2.954
  978TIP3    H2 2878   1.813   4.373   2.826
  979TIP3   OH2 2879   3.220   4.640   0.239
  979TIP3    H1 2880   3.222   4.703   0.167
  979TIP3    H2 2881   3.154   4.673   0.300
  980TIP3   OH2 2882   1.995   2.684   1.679
  980TIP3    H1 2883   2.005   2.656   1.588
  980TIP3    H2 2884   1.934   2.757   1.675
  981TIP3   OH2 2885   7.152   0.791   6.020
  981TIP3    H1 2886   7.144   0.800   5.925
  981TIP3    H2 2887   7.195   0.706   6.032
  982TIP3   OH2 2888   6.238   1.385   2.197
  982TIP3    H1 2889   6.291   1.329   2.253
  982TIP3    H2 2890   6.149   1.351   2.206
  983TIP3   OH2 2891   4.662   4.691   5.869
  983TIP3    H1 2892   4.598   4.695   5.798
  983TIP3    H2 2893   4.692   4.600   5.870
  984TIP3   OH2 2894   1.186   5.434   4.280
  984TIP3    H1 2895   1.196   5.356   4.226
  984TIP3    H2 2896   1.092   5.438   4.301
  985TIP3   OH2 2897   2.471   6.026   0.495
  985TIP3    H1 2898   2.396   6.062   0.543
  985TIP3    H2 2899   2.443   6.028   0.403
  986TIP3   OH2 2900   3.177   2.084   1.657
  986TIP3    H1 2901   3.116   2.014   1.678
  986TIP3    H2 2902   3.248   2.042   1.608
  987TIP3   OH2 2903   0.053   5.812   6.180
  987TIP3    H1 2904  -0.038   5.794   6.204
  987TIP3    H2 2905   0.091   5.725   6.165
  988TIP3   OH2 2906   4.257   2.731   4.115
  988TIP3    H1 2907   4.273   2.648   4.071
  988TIP3    H2 2908   4.291   2.718   4.204
  989TIP3   OH2 2909   7.650   1.594   2.712
  989TIP3    H1 2910   7.710   1.544   2.656
  989TIP3    H2 2911   7.605   1.654   2.652
  990TIP3   OH2 2912   4.793   2.915   2.125
  990TIP3    H1 2913   4.740   2.863   2.066
  990TIP3    H2 2914   4.862   2.952   2.069
  991TIP3   OH2 2915   3.868   7.508   2.753
  991TIP3    H1 2916   3.809   7.568   2.799
  991TIP3    H2 2917   3.810   7.447   2.708
  992TIP3   OH2 2918   1.551   4.747   4.721
  992TIP3    H1 2919   1.469   4.773   4.763
  992TIP3    H2 2920   1.528   4.667   4.673
  993TIP3   OH2 2921   4.329   4.881   4.446
  993TIP3    H1 2922   4.319   4.971   4.478
  993TIP3    H2 2923   4.370   4.834   4.519
  994TIP3   OH2 2924   0.457   7.420   0.845
  994TIP3    H1 2925   0.493   7.333   0.862
  994TIP3    H2 2926   0.519   7.480   0.886
  995TIP3   OH2 2927   3.994   7.435   0.677
  995TIP3    H1 2928   3.996   7.451   0.583
  995TIP3    H2 2929   4.029   7.347   0.688
  996TIP3   OH2 2930   3.983   7.378   0.365
  996TIP3    H1 2931   4.068   7.421   0.362
  996TIP3    H2 2932   3.974   7.336   0.280
  997TIP3   OH2 2933   7.608   4.439   1.814
  997TIP3    H1 2934   7.595   4.380   1.888
  997TIP3    H2 2935   7.692   4.412   1.775
  998TIP3   OH2 2936   7.507   2.752   0.684
  998TIP3    H1 2937   7.442   2.801   0.634
  998TIP3    H2 2938   7.543   2.815   0.745
  999TIP3   OH2 2939   6.615   4.242   4.265
  999TIP3    H1 2940   6.616   4.317   4.205
  999TIP3    H2 2941   6.659   4.273   4.344
 1000TIP3   OH2 2942   0.018   2.218   5.613
 1000TIP3    H1 2943   0.102   2.248   5.579
 1000TIP3    H2 2944  -0.024   2.174   5.538
 1001TIP3   OH2 2945   7.466   0.305   5.044
 1001TIP3    H1 2946   7.532   0.352   4.992
 1001TIP3    H2 2947   7.386   0.356   5.033
 1002TIP3   OH2 2948   7.358   5.507   0.081
 1002TIP3    H1 2949   7.304   5.587   0.083
 1002TIP3    H2 2950   7.440   5.535   0.040
 1003TIP3   OH2 2951   8.251   5.763   5.392
 1003TIP3    H1 2952   8.296   5.731   5.469
 1003TIP3    H2 2953   8.312   5.747   5.320
 1004TIP3   OH2 2954   3.098   1.300   5.979
 1004TIP3    H1 2955   3.064   1.278   5.892
 1004TIP3    H2 2956   3.053   1.381   6.002
 1005TIP3   OH2 2957   4.622   6.761   1.053
 1005TIP3    H1 2958   4.702   6.713   1.072
 1005TIP3    H2 2959   4.559   6.693   1.027
 1006TIP3   OH2 2960   0.472   0.147   1.883
 1006TIP3    H1 2961   0.426   0.063   1.873
 1006TIP3    H2 2962   0.419   0.209   1.833
 1007TIP3   OH2 2963   5.945   6.739   1.600
 1007TIP3    H1 2964   5.945   6.670   1.666
 1007TIP3    H2 2965   6.027   6.786   1.613
 1008TIP3   OH2 2966   6.350   4.292   2.167
 1008TIP3    H1 2967   6.370   4.274   2.075
 1008TIP3    H2 2968   6.381   4.381   2.182
 1009TIP3   OH2 2969   1.961   2.427   0.122
 1009TIP3    H1 2970   2.020   2.452   0.193
 1009TIP3    H2 2971   1.944   2.334   0.137
 1010TIP3   OH2 2972   6.908   6.078   4.950
 1010TIP3    H1 2973   6.981   6.017   4.937
 1010TIP3    H2 2974   6.919   6.109   5.040
 1011TIP3   OH2 2975   3.720   1.119   5.196
 1011TIP3    H1 2976   3.658   1.191   5.192
 1011TIP3    H2 2977   3.690   1.065   5.269
 1012TIP3   OH2 2978   7.128   6.864   1.421
 1012TIP3    H1 2979   7.171   6.835   1.341
 1012TIP3    H2 2980   7.044   6.898   1.393
 1013TIP3   OH2 2981   7.275   4.595   0.898
 1013TIP3    H1 2982   7.278   4.577   0.992
 1013TIP3    H2 2983   7.210   4.534   0.864
 1014TIP3   OH2 2984   4.664   7.331   2.928
 1014TIP3    H1 2985   4.590   7.324   2.988
 1014TIP3    H2 2986   4.726   7.389   2.973
 1015TIP3   OH2 2987   1.235   6.574   4.933
 1015TIP3    H1 2988   1.211   6.540   5.019
 1015TIP3    H2 2989   1.283   6.503   4.892
 1016TIP3   OH2 2990   1.434   6.295   1.882
 1016TIP3    H1 2991   1.397   6.376   1.917
 1016TIP3    H2 2992   1.417   6.229   1.950
 1017TIP3   OH2 2993   2.999   5.788   2.551
 1017TIP3    H1 2994   2.912   5.819   2.527
 1017TIP3    H2 2995   3.016   5.714   2.493
 1018TIP3   OH2 2996   7.961   4.395   6.388
 1018TIP3    H1 2997   7.992   4.466   6.444
 1018TIP3    H2 2998   7.948   4.322   6.448
 1019TIP3   OH2 2999   4.479   2.928   0.495
 1019TIP3    H1 3000   4.506   3.005   0.446
 1019TIP3    H2 3001   4.507   2.946   0.585
 1020TIP3   OH2 3002   6.755   4.913   5.408
 1020TIP3    H1 3003   6.801   4.837   5.372
 1020TIP3    H2 3004   6.809   4.940   5.483
 1021TIP3   OH2 3005   3.849   6.613   0.524
 1021TIP3    H1 3006   3.833   6.547   0.592
 1021TIP3    H2 3007   3.944   6.611   0.512
 1022TIP3   OH2 3008   2.903   7.585   2.382
 1022TIP3    H1 3009   2.843   7.540   2.322
 1022TIP3    H2 3010   2.878   7.553   2.468
 1023TIP3   OH2 3011   7.663   7.724   6.412
 1023TIP3    H1 3012   7.747   7.746   6.453
 1023TIP3    H2 3013   7.597   7.759   6.472
 1024TIP3   OH2 3014   6.927   4.548   1.275
 1024TIP3    H1 3015   6.952   4.575   1.187
 1024TIP3    H2 3016   6.955   4.457   1.281
 1025TIP3   OH2 3017   2.045   3.381   4.154
 1025TIP3    H1 3018   2.107   3.345   4.091
 1025TIP3    H2 3019   2.049   3.321   4.229
 1026TIP3   OH2 3020   1.569   1.620   6.587
 1026TIP3    H1 3021   1.552   1.701   6.538
 1026TIP3    H2 3022   1.560   1.551   6.521
 1027TIP3   OH2 3023   3.613   0.911   5.351
 1027TIP3    H1 3024   3.683   0.932   5.414
 1027TIP3    H2 3025   3.546   0.867   5.404
 1028TIP3   OH2 3026   4.373   1.224   3.812
 1028TIP3    H1 3027   4.296   1.184   3.851
 1028TIP3    H2 3028   4.439   1.156   3.813
 1029TIP3   OH2 3029   6.757   0.257   4.265
 1029TIP3    H1 3030   6.696   0.194   4.305
 1029TIP3    H2 3031   6.701   0.320   4.221
 1030TIP3   OH2 3032   6.089   5.241   4.571
 1030TIP3    H1 3033   6.092   5.208   4.481
 1030TIP3    H2 3034   6.180   5.238   4.601
 1031TIP3   OH2 3035   1.049   7.396   0.094
 1031TIP3    H1 3036   1.006   7.316   0.126
 1031TIP3    H2 3037   1.126   7.406   0.150
 1032TIP3   OH2 3038   2.331   4.132   5.475
 1032TIP3    H1 3039   2.393   4.203   5.489
 1032TIP3    H2 3040   2.264   4.146   5.542
 1033TIP3   OH2 3041   4.179   1.766   1.921
 1033TIP3    H1 3042   4.271   1.749   1.901
 1033TIP3    H2 3043   4.182   1.815   2.004
 1034TIP3   OH2 3044   1.167   5.043  -0.008
 1034TIP3    H1 3045   1.158   5.136   0.014
 1034TIP3    H2 3046   1.081   5.006   0.012
 1035TIP3   OH2 3047   4.084   1.737   2.869
 1035TIP3    H1 3048   4.163   1.704   2.913
 1035TIP3    H2 3049   4.057   1.812   2.922
 1036TIP3   OH2 3050   0.521   3.930   4.679
 1036TIP3    H1 3051   0.478   3.928   4.765
 1036TIP3    H2 3052   0.503   3.844   4.641
 1037TIP3   OH2 3053   5.877   2.150   3.195
 1037TIP3    H1 3054   5.914   2.237   3.187
 1037TIP3    H2 3055   5.794   2.155   3.147
 1038TIP3   OH2 3056   8.030   0.596   2.129
 1038TIP3    H1 3057   7.951   0.546   2.150
 1038TIP3    H2 3058   8.030   0.668   2.193
 1039TIP3   OH2 3059   1.559   6.957   6.541
 1039TIP3    H1 3060   1.552   7.051   6.562
 1039TIP3    H2 3061   1.651   6.945   6.518
 1040TIP3   OH2 3062   0.994   3.339   2.564
 1040TIP3    H1 3063   0.968   3.409   2.504
 1040TIP3    H2 3064   1.090   3.345   2.567
 1041TIP3   OH2 3065   3.865   5.723   6.420
 1041TIP3    H1 3066   3.917   5.680   6.352
 1041TIP3    H2 3067   3.774   5.705   6.396
 1042TIP3   OH2 3068   8.107   7.074   4.528
 1042TIP3    H1 3069   8.116   7.021   4.606
 1042TIP3    H2 3070   8.075   7.013   4.461
 1043TIP3   OH2 3071   5.135   1.931   3.950
 1043TIP3    H1 3072   5.068   1.989   3.914
 1043TIP3    H2 3073   5.110   1.844   3.920
 1044TIP3   OH2 3074   4.313   2.051   4.385
 1044TIP3    H1 3075   4.258   1.976   4.407
 1044TIP3    H2 3076   4.267   2.126   4.423
 1045TIP3   OH2 3077   3.188   3.586   5.660
 1045TIP3    H1 3078   3.112   3.636   5.634
 1045TIP3    H2 3079   3.182   3.581   5.756
 1046TIP3   OH2 3080   2.799   3.662   0.654
 1046TIP3    H1 3081   2.861   3.735   0.654
 1046TIP3    H2 3082   2.736   3.683   0.585
 1047TIP3   OH2 3083   1.441   7.606   0.627
 1047TIP3    H1 3084   1.514   7.651   0.585
 1047TIP3    H2 3085   1.475   7.519   0.647
 1048TIP3   OH2 3086   5.666   2.839   3.025
 1048TIP3    H1 3087   5.761   2.841   3.039
 1048TIP3    H2 3088   5.632   2.906   3.084
 1049TIP3   OH2 3089   7.276   6.844   1.149
 1049TIP3    H1 3090   7.204   6.821   1.090
 1049TIP3    H2 3091   7.355   6.816   1.103
 1050TIP3   OH2 3092   1.192   3.851   2.871
 1050TIP3    H1 3093   1.107   3.807   2.867
 1050TIP3    H2 3094   1.172   3.939   2.903
 1051TIP3   OH2 3095   1.984   5.886   6.706
 1051TIP3    H1 3096   2.027   5.834   6.773
 1051TIP3    H2 3097   1.892   5.860   6.711
 1052TIP3   OH2 3098   5.873   3.645   4.511
 1052TIP3    H1 3099   5.818   3.600   4.575
 1052TIP3    H2 3100   5.847   3.737   4.518
 1053TIP3   OH2 3101   7.504   2.596   4.175
 1053TIP3    H1 3102   7.542   2.669   4.224
 1053TIP3    H2 3103   7.412   2.595   4.202
 1054TIP3   OH2 3104   7.446   5.106   1.651
 1054TIP3    H1 3105   7.476   5.124   1.562
 1054TIP3    H2 3106   7.470   5.184   1.701
 1055TIP3   OH2 3107   7.902   2.463   4.371
 1055TIP3    H1 3108   7.832   2.402   4.349
 1055TIP3    H2 3109   7.964   2.455   4.298
 1056TIP3   OH2 3110   1.314   2.448   0.666
 1056TIP3    H1 3111   1.233   2.451   0.717
 1056TIP3    H2 3112   1.287   2.422   0.578
 1057TIP3   OH2 3113   6.951   4.646   0.468
 1057TIP3    H1 3114   6.943   4.718   0.405
 1057TIP3    H2 3115   7.009   4.681   0.536
 1058TIP3   OH2 3116   3.015   2.084   5.379
 1058TIP3    H1 3117   3.058   2.061   5.461
 1058TIP3    H2 3118   2.934   2.127   5.406
 1059TIP3   OH2 3119   6.750   1.907   3.085
 1059TIP3    H1 3120   6.732   1.970   3.155
 1059TIP3    H2 3121   6.733   1.821   3.125
 1060TIP3   OH2 3122   6.706   6.338   2.968
 1060TIP3    H1 3123   6.767   6.295   3.028
 1060TIP3    H2 3124   6.641   6.379   3.025
 1061TIP3   OH2 3125   6.405   5.589   1.267
 1061TIP3    H1 3126   6.477   5.648   1.290
 1061TIP3    H2 3127   6.448   5.513   1.228
 1062TIP3   OH2 3128   7.518   6.335   5.306
 1062TIP3    H1 3129   7.422   6.336   5.306
 1062TIP3    H2 3130   7.541   6.251   5.344
 1063TIP3   OH2 3131   3.655   1.770   5.873
 1063TIP3    H1 3132   3.750   1.759   5.867
 1063TIP3    H2 3133   3.627   1.698   5.930
 1064TIP3   OH2 3134   0.171   3.835   0.053
 1064TIP3    H1 3135   0.171   3.854   0.147
 1064TIP3    H2 3136   0.193   3.742   0.048
 1065TIP3   OH2 3137   3.461   4.559   5.722
 1065TIP3    H1 3138   3.366   4.561   5.713
 1065TIP3    H2 3139   3.480   4.473   5.759
 1066TIP3   OH2 3140   4.372   1.059   3.173
 1066TIP3    H1 3141   4.435   1.071   3.102
 1066TIP3    H2 3142   4.366   0.964   3.184
 1067TIP3   OH2 3143   2.761   2.097   2.385
 1067TIP3    H1 3144   2.685   2.151   2.405
 1067TIP3    H2 3145   2.747   2.067   2.295
 1068TIP3   OH2 3146   7.902   7.231   5.128
 1068TIP3    H1 3147   7.928   7.197   5.214
 1068TIP3    H2 3148   7.975   7.209   5.071
 1069TIP3   OH2 3149   1.322   5.844   5.864
 1069TIP3    H1 3150   1.268   5.769   5.885
 1069TIP3    H2 3151   1.260   5.917   5.856
 1070TIP3   OH2 3152   4.203   0.097   5.209
 1070TIP3    H1 3153   4.246   0.159   5.149
 1070TIP3    H2 3154   4.110   0.118   5.202
 1071TIP3   OH2 3155   2.770   2.024   5.903
 1071TIP3    H1 3156   2.847   1.994   5.951
 1071TIP3    H2 3157   2.731   1.943   5.868
 1072TIP3   OH2 3158   0.572   1.380   6.438
 1072TIP3    H1 3159   0.644   1.384   6.501
 1072TIP3    H2 3160   0.535   1.469   6.439
 1073TIP3   OH2 3161   1.847   0.327   0.427
 1073TIP3    H1 3162   1.761   0.304   0.463
 1073TIP3    H2 3163   1.867   0.254   0.368
 1074TIP3   OH2 3164   5.516   0.845   0.159
 1074TIP3    H1 3165   5.592   0.900   0.143
 1074TIP3    H2 3166   5.441   0.902   0.142
 1075TIP3   OH2 3167   5.854   4.800   2.897
 1075TIP3    H1 3168   5.890   4.835   2.978
 1075TIP3    H2 3169   5.774   4.850   2.883
 1076TIP3   OH2 3170   0.962   5.770   2.654
 1076TIP3    H1 3171   0.871   5.772   2.624
 1076TIP3    H2 3172   1.011   5.815   2.584
 1077TIP3   OH2 3173   7.650   1.504   5.735
 1077TIP3    H1 3174   7.620   1.574   5.677
 1077TIP3    H2 3175   7.609   1.425   5.700
 1078TIP3   OH2 3176   0.797   1.592   5.228
 1078TIP3    H1 3177   0.733   1.539   5.180
 1078TIP3    H2 3178   0.882   1.563   5.195
 1079TIP3   OH2 3179   4.349   4.404   3.200
 1079TIP3    H1 3180   4.272   4.348   3.190
 1079TIP3    H2 3181   4.330   4.458   3.277
 1080TIP3   OH2 3182   2.174   4.351   0.141
 1080TIP3    H1 3183   2.174   4.255   0.138
 1080TIP3    H2 3184   2.195   4.373   0.232
 1081TIP3   OH2 3185   0.408   2.873   5.749
 1081TIP3    H1 3186   0.394   2.783   5.777
 1081TIP3    H2 3187   0.377   2.875   5.658
 1082TIP3   OH2 3188   7.937   0.916   4.781
 1082TIP3    H1 3189   7.850   0.878   4.774
 1082TIP3    H2 3190   7.983   0.886   4.703
 1083TIP3   OH2 3191   5.271   0.299   1.442
 1083TIP3    H1 3192   5.302   0.259   1.523
 1083TIP3    H2 3193   5.241   0.386   1.468
 1084TIP3   OH2 3194   6.824   4.485   6.648
 1084TIP3    H1 3195   6.797   4.444   6.566
 1084TIP3    H2 3196   6.807   4.579   6.635
 1085TIP3   OH2 3197   2.071   3.729   5.456
 1085TIP3    H1 3198   2.072   3.648   5.405
 1085TIP3    H2 3199   2.163   3.750   5.468
 1086TIP3   OH2 3200   1.184   4.713   4.923
 1086TIP3    H1 3201   1.241   4.773   4.971
 1086TIP3    H2 3202   1.152   4.764   4.849
 1087TIP3   OH2 3203   2.639   3.768   6.746
 1087TIP3    H1 3204   2.693   3.794   6.671
 1087TIP3    H2 3205   2.695   3.710   6.797
 1088TIP3   OH2 3206   2.162   7.215   2.092
 1088TIP3    H1 3207   2.104   7.167   2.033
 1088TIP3    H2 3208   2.141   7.308   2.077
 1089TIP3   OH2 3209   1.490   0.895   0.999
 1089TIP3    H1 3210   1.559   0.897   0.933
 1089TIP3    H2 3211   1.465   0.987   1.010
 1090TIP3   OH2 3212   0.156   4.407   0.754
 1090TIP3    H1 3213   0.075   4.449   0.782
 1090TIP3    H2 3214   0.205   4.477   0.710
 1091TIP3   OH2 3215   0.007   1.113   2.724
 1091TIP3    H1 3216   0.062   1.105   2.802
 1091TIP3    H2 3217   0.058   1.071   2.655
 1092TIP3   OH2 3218   6.672   4.579   3.636
 1092TIP3    H1 3219   6.653   4.673   3.632
 1092TIP3    H2 3220   6.586   4.537   3.645
 1093TIP3   OH2 3221   6.290   1.111   3.025
 1093TIP3    H1 3222   6.206   1.127   3.068
 1093TIP3    H2 3223   6.331   1.197   3.019
 1094TIP3   OH2 3224   6.609   6.818   2.887
 1094TIP3    H1 3225   6.574   6.889   2.833
 1094TIP3    H2 3226   6.702   6.817   2.868
 1095TIP3   OH2 3227   2.809   3.822   2.316
 1095TIP3    H1 3228   2.892   3.776   2.309
 1095TIP3    H2 3229   2.829   3.901   2.367
 1096TIP3   OH2 3230   2.028   3.944   3.855
 1096TIP3    H1 3231   2.041   3.974   3.765
 1096TIP3    H2 3232   1.947   3.892   3.851
 1097TIP3   OH2 3233   5.836   6.362   5.084
 1097TIP3    H1 3234   5.891   6.286   5.101
 1097TIP3    H2 3235   5.898   6.433   5.066
 1098TIP3   OH2 3236   5.665   6.239   6.036
 1098TIP3    H1 3237   5.715   6.245   5.955
 1098TIP3    H2 3238   5.728   6.258   6.105
 1099TIP3   OH2 3239   1.823   0.842   6.173
 1099TIP3    H1 3240   1.897   0.836   6.113
 1099TIP3    H2 3241   1.849   0.908   6.237
 1100TIP3   OH2 3242   6.783   1.618   0.783
 1100TIP3    H1 3243   6.781   1.693   0.842
 1100TIP3    H2 3244   6.758   1.654   0.697
 1101TIP3   OH2 3245   2.388   4.700   5.923
 1101TIP3    H1 3246   2.300   4.664   5.907
 1101TIP3    H2 3247   2.390   4.720   6.016
 1102TIP3   OH2 3248   0.218   0.403   6.575
 1102TIP3    H1 3249   0.310   0.416   6.553
 1102TIP3    H2 3250   0.216   0.403   6.671
 1103TIP3   OH2 3251   4.431   3.391   3.074
 1103TIP3    H1 3252   4.481   3.411   2.994
 1103TIP3    H2 3253   4.389   3.307   3.055
 1104TIP3   OH2 3254   5.832   3.498   3.101
 1104TIP3    H1 3255   5.917   3.467   3.071
 1104TIP3    H2 3256   5.768   3.447   3.051
 1105TIP3   OH2 3257   4.661   0.562   5.222
 1105TIP3    H1 3258   4.588   0.604   5.267
 1105TIP3    H2 3259   4.737   0.578   5.278
 1106TIP3   OH2 3260   5.673   5.683   1.364
 1106TIP3    H1 3261   5.638   5.649   1.447
 1106TIP3    H2 3262   5.764   5.706   1.385
 1107TIP3   OH2 3263   5.048   5.507   1.736
 1107TIP3    H1 3264   4.953   5.502   1.748
 1107TIP3    H2 3265   5.083   5.436   1.790
 1108TIP3   OH2 3266   3.888   6.004   4.379
 1108TIP3    H1 3267   3.845   5.952   4.447
 1108TIP3    H2 3268   3.894   6.092   4.416
 1109TIP3   OH2 3269   1.862   7.352   2.346
 1109TIP3    H1 3270   1.945   7.330   2.389
 1109TIP3    H2 3271   1.796   7.303   2.395
 1110TIP3   OH2 3272   5.029   6.276   0.536
 1110TIP3    H1 3273   5.078   6.283   0.618
 1110TIP3    H2 3274   4.950   6.328   0.551
 1111TIP3   OH2 3275   4.587   5.526   3.126
 1111TIP3    H1 3276   4.559   5.487   3.043
 1111TIP3    H2 3277   4.506   5.555   3.167
 1112TIP3   OH2 3278   7.177   4.603   5.750
 1112TIP3    H1 3279   7.236   4.665   5.708
 1112TIP3    H2 3280   7.101   4.655   5.775
 1113TIP3   OH2 3281   6.769   5.011   0.696
 1113TIP3    H1 3282   6.758   5.041   0.606
 1113TIP3    H2 3283   6.851   5.052   0.725
 1114TIP3   OH2 3284   4.709   4.921   5.674
 1114TIP3    H1 3285   4.764   4.910   5.751
 1114TIP3    H2 3286   4.623   4.889   5.700
 1115TIP3   OH2 3287   2.230   6.220   2.272
 1115TIP3    H1 3288   2.228   6.276   2.194
 1115TIP3    H2 3289   2.269   6.276   2.339
 1116TIP3   OH2 3290   8.121   5.248   5.808
 1116TIP3    H1 3291   8.107   5.281   5.719
 1116TIP3    H2 3292   8.212   5.220   5.810
 1117TIP3   OH2 3293   3.730   0.061   5.467
 1117TIP3    H1 3294   3.733   0.109   5.384
 1117TIP3    H2 3295   3.782   0.115   5.527
 1118TIP3   OH2 3296   5.051   4.107   4.366
 1118TIP3    H1 3297   5.096   4.179   4.410
 1118TIP3    H2 3298   5.117   4.037   4.361
 1119TIP3   OH2 3299   6.316   5.233   2.167
 1119TIP3    H1 3300   6.400   5.241   2.121
 1119TIP3    H2 3301   6.296   5.139   2.162
 1120TIP3   OH2 3302   8.055   5.705   6.569
 1120TIP3    H1 3303   7.973   5.689   6.617
 1120TIP3    H2 3304   8.046   5.794   6.535
 1121TIP3   OH2 3305   0.801   3.141   6.701
 1121TIP3    H1 3306   0.811   3.052   6.667
 1121TIP3    H2 3307   0.719   3.172   6.662
 1122TIP3   OH2 3308   2.336   1.855   1.570
 1122TIP3    H1 3309   2.412   1.810   1.532
 1122TIP3    H2 3310   2.267   1.846   1.505
 1123TIP3   OH2 3311   1.647   7.133   0.086
 1123TIP3    H1 3312   1.617   7.219   0.056
 1123TIP3    H2 3313   1.587   7.071   0.044
 1124TIP3   OH2 3314   5.397   6.603   0.117
 1124TIP3    H1 3315   5.333   6.599   0.045
 1124TIP3    H2 3316   5.390   6.692   0.150
 1125TIP3   OH2 3317   6.417   6.747   3.993
 1125TIP3    H1 3318   6.400   6.836   4.025
 1125TIP3    H2 3319   6.434   6.759   3.899
 1126TIP3   OH2 3320   3.119   5.577   2.861
 1126TIP3    H1 3321   3.103   5.670   2.846
 1126TIP3    H2 3322   3.153   5.573   2.951
 1127TIP3   OH2 3323   1.168   4.587   3.281
 1127TIP3    H1 3324   1.205   4.503   3.310
 1127TIP3    H2 3325   1.242   4.648   3.283
 1128TIP3   OH2 3326   5.130   7.603   3.266
 1128TIP3    H1 3327   5.216   7.642   3.276
 1128TIP3    H2 3328   5.130   7.530   3.329
 1129TIP3   OH2 3329   5.779   5.723   3.979
 1129TIP3    H1 3330   5.684   5.732   3.970
 1129TIP3    H2 3331   5.810   5.809   4.006
 1130TIP3   OH2 3332   2.803   7.003   2.613
 1130TIP3    H1 3333   2.713   7.022   2.585
 1130TIP3    H2 3334   2.792   6.942   2.686
 1131TIP3   OH2 3335   0.150   6.092   5.446
 1131TIP3    H1 3336   0.106   6.089   5.361
 1131TIP3    H2 3337   0.224   6.151   5.432
 1132TIP3   OH2 3338   4.808   6.610   2.968
 1132TIP3    H1 3339   4.793   6.521   2.998
 1132TIP3    H2 3340   4.721   6.650   2.967
 1133TIP3   OH2 3341   6.656   3.288   2.377
 1133TIP3    H1 3342   6.747   3.296   2.347
 1133TIP3    H2 3343   6.607   3.348   2.320
 1134TIP3   OH2 3344   5.153   7.338   0.030
 1134TIP3    H1 3345   5.242   7.353  -0.003
 1134TIP3    H2 3346   5.133   7.415   0.082
 1135TIP3   OH2 3347   6.961   3.602   5.704
 1135TIP3    H1 3348   6.997   3.677   5.750
 1135TIP3    H2 3349   7.005   3.526   5.741
 1136TIP3   OH2 3350   8.161   6.799   3.615
 1136TIP3    H1 3351   8.119   6.809   3.701
 1136TIP3    H2 3352   8.092   6.820   3.552
 1137TIP3   OH2 3353   2.096   0.442   2.483
 1137TIP3    H1 3354   2.151   0.394   2.545
 1137TIP3    H2 3355   2.144   0.523   2.467
 1138TIP3   OH2 3356   1.866   5.317   0.239
 1138TIP3    H1 3357   1.823   5.279   0.162
 1138TIP3    H2 3358   1.901   5.400   0.208
 1139TIP3   OH2 3359   3.054   4.215   1.372
 1139TIP3    H1 3360   2.982   4.163   1.407
 1139TIP3    H2 3361   3.015   4.262   1.298
 1140TIP3   OH2 3362   2.991   7.018   2.990
 1140TIP3    H1 3363   2.997   7.090   2.927
 1140TIP3    H2 3364   3.082   6.991   3.004
 1141TIP3   OH2 3365   5.492   2.539   4.386
 1141TIP3    H1 3366   5.412   2.509   4.344
 1141TIP3    H2 3367   5.473   2.537   4.480
 1142TIP3   OH2 3368   2.613   6.527   4.038
 1142TIP3    H1 3369   2.628   6.451   3.982
 1142TIP3    H2 3370   2.522   6.517   4.067
 1143TIP3   OH2 3371   1.517   0.825   6.313
 1143TIP3    H1 3372   1.542   0.912   6.344
 1143TIP3    H2 3373   1.593   0.794   6.265
 1144TIP3   OH2 3374   4.908   2.983   4.612
 1144TIP3    H1 3375   4.841   3.035   4.567
 1144TIP3    H2 3376   4.949   3.044   4.672
 1145TIP3   OH2 3377   3.933   7.058   2.876
 1145TIP3    H1 3378   3.934   6.987   2.939
 1145TIP3    H2 3379   4.003   7.036   2.814
 1146TIP3   OH2 3380   3.605   3.183   3.643
 1146TIP3    H1 3381   3.623   3.220   3.557
 1146TIP3    H2 3382   3.689   3.147   3.672
 1147TIP3   OH2 3383   4.954   1.642   5.019
 1147TIP3    H1 3384   4.876   1.612   5.065
 1147TIP3    H2 3385   5.022   1.578   5.043
 1148TIP3   OH2 3386   2.937   2.009   0.912
 1148TIP3    H1 3387   2.890   2.071   0.968
 1148TIP3    H2 3388   3.014   2.057   0.883
 1149TIP3   OH2 3389   2.801   4.017   5.876
 1149TIP3    H1 3390   2.710   3.985   5.881
 1149TIP3    H2 3391   2.847   3.967   5.943
 1150TIP3   OH2 3392   5.637   7.395   1.193
 1150TIP3    H1 3393   5.675   7.484   1.193
 1150TIP3    H2 3394   5.651   7.364   1.283
 1151TIP3   OH2 3395   4.306   3.551   3.578
 1151TIP3    H1 3396   4.308   3.530   3.485
 1151TIP3    H2 3397   4.238   3.617   3.587
 1152TIP3   OH2 3398   7.057   3.666   6.271
 1152TIP3    H1 3399   7.064   3.732   6.202
 1152TIP3    H2 3400   7.145   3.658   6.306
 1153TIP3   OH2 3401   5.271   5.445   4.516
 1153TIP3    H1 3402   5.348   5.418   4.566
 1153TIP3    H2 3403   5.197   5.407   4.564
 1154TIP3   OH2 3404   2.948   0.373   1.348
 1154TIP3    H1 3405   2.869   0.372   1.402
 1154TIP3    H2 3406   2.953   0.285   1.310
 1155TIP3   OH2 3407   2.551   7.454   1.475
 1155TIP3    H1 3408   2.528   7.447   1.568
 1155TIP3    H2 3409   2.479   7.505   1.437
 1156TIP3   OH2 3410   8.000   6.271   4.010
 1156TIP3    H1 3411   8.049   6.238   4.085
 1156TIP3    H2 3412   8.025   6.214   3.937
 1157TIP3   OH2 3413   0.701   3.330   5.680
 1157TIP3    H1 3414   0.748   3.366   5.755
 1157TIP3    H2 3415   0.633   3.275   5.719
 1158TIP3   OH2 3416   0.071   4.247   1.953
 1158TIP3    H1 3417   0.065   4.319   1.891
 1158TIP3    H2 3418   0.028   4.280   2.032
 1159TIP3   OH2 3419   5.707   5.531   5.856
 1159TIP3    H1 3420   5.800   5.513   5.872
 1159TIP3    H2 3421   5.674   5.563   5.940
 1160TIP3   OH2 3422   8.054   4.245   0.140
 1160TIP3    H1 3423   8.119   4.183   0.172
 1160TIP3    H2 3424   7.972   4.219   0.182
 1161TIP3   OH2 3425   6.631   0.797   6.437
 1161TIP3    H1 3426   6.630   0.880   6.486
 1161TIP3    H2 3427   6.539   0.774   6.427
 1162TIP3   OH2 3428   8.062   0.649   1.098
 1162TIP3    H1 3429   8.111   0.688   1.025
 1162TIP3    H2 3430   8.106   0.682   1.177
 1163TIP3   OH2 3431   4.514   2.279   2.631
 1163TIP3    H1 3432   4.421   2.255   2.631
 1163TIP3    H2 3433   4.523   2.340   2.705
 1164TIP3   OH2 3434   5.634   4.746   0.388
 1164TIP3    H1 3435   5.548   4.704   0.389
 1164TIP3    H2 3436   5.691   4.684   0.435
 1165TIP3   OH2 3437   0.533   7.028   4.950
 1165TIP3    H1 3438   0.483   7.067   5.022
 1165TIP3    H2 3439   0.618   7.008   4.988
 1166TIP3   OH2 3440   4.116   6.922   4.105
 1166TIP3    H1 3441   4.148   6.991   4.047
 1166TIP3    H2 3442   4.081   6.968   4.181
 1167TIP3   OH2 3443   2.339   2.044   0.394
 1167TIP3    H1 3444   2.307   2.125   0.432
 1167TIP3    H2 3445   2.338   2.059   0.299
 1168TIP3   OH2 3446   2.882   2.218   1.357
 1168TIP3    H1 3447   2.861   2.311   1.352
 1168TIP3    H2 3448   2.873   2.196   1.449
 1169TIP3   OH2 3449   6.195   5.000   5.536
 1169TIP3    H1 3450   6.268   4.943   5.514
 1169TIP3    H2 3451   6.229   5.055   5.607
 1170TIP3   OH2 3452   0.551   1.354   0.647
 1170TIP3    H1 3453   0.553   1.382   0.556
 1170TIP3    H2 3454   0.475   1.296   0.653
 1171TIP3   OH2 3455   1.121   0.917   2.073
 1171TIP3    H1 3456   1.140   0.843   2.130
 1171TIP3    H2 3457   1.143   0.994   2.126
 1172TIP3   OH2 3458   1.761   0.347   2.823
 1172TIP3    H1 3459   1.699   0.420   2.822
 1172TIP3    H2 3460   1.777   0.330   2.915
 1173TIP3   OH2 3461   6.141   3.965   3.578
 1173TIP3    H1 3462   6.214   3.948   3.638
 1173TIP3    H2 3463   6.063   3.955   3.632
 1174TIP3   OH2 3464   6.236   6.962   1.574
 1174TIP3    H1 3465   6.146   6.990   1.586
 1174TIP3    H2 3466   6.248   6.891   1.637
 1175TIP3   OH2 3467   3.599   5.806   3.732
 1175TIP3    H1 3468   3.657   5.851   3.794
 1175TIP3    H2 3469   3.645   5.725   3.711
 1176TIP3   OH2 3470   6.802   4.351   1.044
 1176TIP3    H1 3471   6.751   4.344   0.963
 1176TIP3    H2 3472   6.820   4.444   1.053
 1177TIP3   OH2 3473   4.082   1.151   2.142
 1177TIP3    H1 3474   4.114   1.158   2.051
 1177TIP3    H2 3475   3.989   1.132   2.133
 1178TIP3   OH2 3476   1.619   5.186   3.134
 1178TIP3    H1 3477   1.539   5.168   3.084
 1178TIP3    H2 3478   1.589   5.236   3.210
 1179TIP3   OH2 3479   5.076   0.550   4.236
 1179TIP3    H1 3480   5.024   0.478   4.200
 1179TIP3    H2 3481   5.164   0.536   4.201
 1180TIP3   OH2 3482   6.763   5.104   4.416
 1180TIP3    H1 3483   6.674   5.138   4.405
 1180TIP3    H2 3484   6.790   5.136   4.502
 1181TIP3   OH2 3485   1.869   5.075   5.502
 1181TIP3    H1 3486   1.909   5.151   5.543
 1181TIP3    H2 3487   1.781   5.104   5.479
 1182TIP3   OH2 3488   3.861   2.853   2.456
 1182TIP3    H1 3489   3.862   2.944   2.486
 1182TIP3    H2 3490   3.795   2.852   2.386
 1183TIP3   OH2 3491   6.404   6.062   6.174
 1183TIP3    H1 3492   6.397   6.071   6.269
 1183TIP3    H2 3493   6.346   5.988   6.153
 1184TIP3   OH2 3494   4.649   0.928   0.714
 1184TIP3    H1 3495   4.733   0.934   0.760
 1184TIP3    H2 3496   4.600   1.004   0.744
 1185TIP3   OH2 3497   2.356   6.363   2.493
 1185TIP3    H1 3498   2.349   6.281   2.541
 1185TIP3    H2 3499   2.276   6.411   2.518
 1186TIP3   OH2 3500   4.095   1.774   3.372
 1186TIP3    H1 3501   4.029   1.804   3.435
 1186TIP3    H2 3502   4.083   1.679   3.368
 1187TIP3   OH2 3503   7.883   0.881   0.950
 1187TIP3    H1 3504   7.975   0.853   0.960
 1187TIP3    H2 3505   7.859   0.914   1.037
 1188TIP3   OH2 3506   4.326   2.678   4.376
 1188TIP3    H1 3507   4.418   2.671   4.403
 1188TIP3    H2 3508   4.281   2.611   4.428
 1189TIP3   OH2 3509   8.193   3.629   0.485
 1189TIP3    H1 3510   8.134   3.568   0.529
 1189TIP3    H2 3511   8.207   3.590   0.398
 1190TIP3   OH2 3512   4.774   5.913   4.611
 1190TIP3    H1 3513   4.688   5.876   4.630
 1190TIP3    H2 3514   4.756   5.994   4.565
 1191TIP3   OH2 3515   8.153   4.743   3.513
 1191TIP3    H1 3516   8.079   4.785   3.469
 1191TIP3    H2 3517   8.212   4.717   3.443
 1192TIP3   OH2 3518   0.343   0.205   1.117
 1192TIP3    H1 3519   0.261   0.156   1.110
 1192TIP3    H2 3520   0.317   0.293   1.144
 1193TIP3   OH2 3521   4.783   0.985   4.570
 1193TIP3    H1 3522   4.713   0.922   4.589
 1193TIP3    H2 3523   4.786   0.988   4.474
 1194TIP3   OH2 3524   2.946   7.039   6.406
 1194TIP3    H1 3525   2.929   7.111   6.345
 1194TIP3    H2 3526   3.042   7.034   6.410
 1195TIP3   OH2 3527   2.618   2.477   5.819
 1195TIP3    H1 3528   2.676   2.461   5.744
 1195TIP3    H2 3529   2.650   2.418   5.887
 1196TIP3   OH2 3530   7.665   7.031   4.687
 1196TIP3    H1 3531   7.616   7.000   4.611
 1196TIP3    H2 3532   7.645   7.124   4.692
 1197TIP3   OH2 3533   1.673   4.659   5.969
 1197TIP3    H1 3534   1.627   4.604   5.906
 1197TIP3    H2 3535   1.616   4.736   5.979
 1198TIP3   OH2 3536   7.838   6.161   2.173
 1198TIP3    H1 3537   7.839   6.203   2.087
 1198TIP3    H2 3538   7.784   6.218   2.227
 1199TIP3   OH2 3539   1.568   5.855   6.310
 1199TIP3    H1 3540   1.478   5.822   6.322
 1199TIP3    H2 3541   1.615   5.825   6.387
 1200TIP3   OH2 3542   7.012   6.480   5.218
 1200TIP3    H1 3543   6.962   6.451   5.295
 1200TIP3    H2 3544   7.067   6.551   5.251
 1201TIP3   OH2 3545   6.027   2.548   3.840
 1201TIP3    H1 3546   6.048   2.639   3.817
 1201TIP3    H2 3547   5.949   2.555   3.894
 1202TIP3   OH2 3548   4.389   1.706   0.926
 1202TIP3    H1 3549   4.333   1.691   0.850
 1202TIP3    H2 3550   4.369   1.796   0.952
 1203TIP3   OH2 3551   6.602   0.083   5.630
 1203TIP3    H1 3552   6.559   0.146   5.688
 1203TIP3    H2 3553   6.551   0.002   5.640
 1204TIP3   OH2 3554   8.273   7.831   4.593
 1204TIP3    H1 3555   8.332   7.763   4.626
 1204TIP3    H2 3556   8.189   7.813   4.636
 1205TIP3   OH2 3557   7.773   6.754   2.321
 1205TIP3    H1 3558   7.704   6.783   2.380
 1205TIP3    H2 3559   7.801   6.834   2.276
 1206TIP3   OH2 3560   2.526   7.351   6.513
 1206TIP3    H1 3561   2.494   7.359   6.603
 1206TIP3    H2 3562   2.512   7.259   6.491
 1207TIP3   OH2 3563   2.578   6.955   5.095
 1207TIP3    H1 3564   2.618   6.900   5.162
 1207TIP3    H2 3565   2.544   6.893   5.031
 1208TIP3   OH2 3566   4.475   7.157   5.945
 1208TIP3    H1 3567   4.380   7.169   5.944
 1208TIP3    H2 3568   4.509   7.232   5.993
 1209TIP3   OH2 3569   3.676   0.738   3.889
 1209TIP3    H1 3570   3.740   0.669   3.873
 1209TIP3    H2 3571   3.728   0.816   3.905
 1210TIP3   OH2 3572   1.270   2.242   2.139
 1210TIP3    H1 3573   1.332   2.225   2.068
 1210TIP3    H2 3574   1.320   2.224   2.219
 1211TIP3   OH2 3575   6.015   3.518   3.486
 1211TIP3    H1 3576   5.979   3.507   3.574
 1211TIP3    H2 3577   6.110   3.517   3.499
 1212TIP3   OH2 3578   4.230   7.591   2.711
 1212TIP3    H1 3579   4.254   7.591   2.804
 1212TIP3    H2 3580   4.267   7.673   2.677
 1213TIP3   OH2 3581   2.676   6.461   1.172
 1213TIP3    H1 3582   2.719   6.397   1.115
 1213TIP3    H2 3583   2.604   6.496   1.119
 1214TIP3   OH2 3584   7.736   4.579   3.973
 1214TIP3    H1 3585   7.816   4.538   4.005
 1214TIP3    H2 3586   7.702   4.626   4.048
 1215TIP3   OH2 3587   1.048   3.540   1.693
 1215TIP3    H1 3588   0.987   3.496   1.634
 1215TIP3    H2 3589   1.007   3.625   1.712
 1216TIP3   OH2 3590   2.606   3.566   0.433
 1216TIP3    H1 3591   2.680   3.558   0.374
 1216TIP3    H2 3592   2.538   3.511   0.394
 1217TIP3   OH2 3593   0.352   1.011   4.115
 1217TIP3    H1 3594   0.298   1.076   4.071
 1217TIP3    H2 3595   0.341   0.931   4.063
 1218TIP3   OH2 3596   7.704   6.703   0.178
 1218TIP3    H1 3597   7.707   6.653   0.260
 1218TIP3    H2 3598   7.726   6.640   0.110
 1219TIP3   OH2 3599   7.546   5.766   1.198
 1219TIP3    H1 3600   7.490   5.831   1.240
 1219TIP3    H2 3601   7.518   5.683   1.238
 1220TIP3   OH2 3602   3.605   7.806   1.970
 1220TIP3    H1 3603   3.599   7.711   1.959
 1220TIP3    H2 3604   3.614   7.819   2.064
 1221TIP3   OH2 3605   7.626   4.322   6.691
 1221TIP3    H1 3606   7.553   4.370   6.651
 1221TIP3    H2 3607   7.684   4.390   6.724
 1222TIP3   OH2 3608   2.196   4.645   0.222
 1222TIP3    H1 3609   2.203   4.560   0.179
 1222TIP3    H2 3610   2.180   4.706   0.151
 1223TIP3   OH2 3611   6.501   5.428   0.454
 1223TIP3    H1 3612   6.470   5.397   0.370
 1223TIP3    H2 3613   6.596   5.426   0.447
 1224TIP3   OH2 3614   2.684   0.366   1.830
 1224TIP3    H1 3615   2.750   0.341   1.765
 1224TIP3    H2 3616   2.735   0.392   1.907
 1225TIP3   OH2 3617   0.985   6.084   3.917
 1225TIP3    H1 3618   1.000   6.109   3.826
 1225TIP3    H2 3619   0.890   6.074   3.923
 1226TIP3   OH2 3620   4.513   5.915   4.924
 1226TIP3    H1 3621   4.531   5.856   4.851
 1226TIP3    H2 3622   4.455   5.865   4.982
 1227TIP3   OH2 3623   2.600   4.578   6.562
 1227TIP3    H1 3624   2.541   4.617   6.627
 1227TIP3    H2 3625   2.618   4.490   6.596
 1228TIP3   OH2 3626   8.011   4.507   0.535
 1228TIP3    H1 3627   8.067   4.435   0.508
 1228TIP3    H2 3628   7.982   4.484   0.623
 1229TIP3   OH2 3629   0.806   3.336   5.215
 1229TIP3    H1 3630   0.842   3.247   5.214
 1229TIP3    H2 3631   0.713   3.324   5.195
 1230TIP3   OH2 3632   5.061   7.620   4.761
 1230TIP3    H1 3633   5.025   7.540   4.799
 1230TIP3    H2 3634   5.017   7.691   4.807
 1231TIP3   OH2 3635   4.895   7.366   0.900
 1231TIP3    H1 3636   4.980   7.336   0.868
 1231TIP3    H2 3637   4.915   7.428   0.970
 1232TIP3   OH2 3638   5.869   6.757   6.124
 1232TIP3    H1 3639   5.804   6.727   6.189
 1232TIP3    H2 3640   5.940   6.794   6.176
 1233TIP3   OH2 3641   5.872   3.564   5.560
 1233TIP3    H1 3642   5.920   3.521   5.631
 1233TIP3    H2 3643   5.930   3.634   5.531
 1234TIP3   OH2 3644   0.991   7.112   0.133
 1234TIP3    H1 3645   0.977   7.041   0.196
 1234TIP3    H2 3646   0.902   7.139   0.109
 1235TIP3   OH2 3647   4.835   2.257   3.211
 1235TIP3    H1 3648   4.748   2.293   3.229
 1235TIP3    H2 3649   4.854   2.284   3.121
 1236TIP3   OH2 3650   0.682   7.287   1.881
 1236TIP3    H1 3651   0.684   7.235   1.961
 1236TIP3    H2 3652   0.595   7.328   1.882
 1237TIP3   OH2 3653   5.341   2.792   3.360
 1237TIP3    H1 3654   5.311   2.718   3.413
 1237TIP3    H2 3655   5.353   2.756   3.272
 1238TIP3   OH2 3656   4.705   6.782   5.661
 1238TIP3    H1 3657   4.614   6.757   5.647
 1238TIP3    H2 3658   4.701   6.873   5.691
 1239TIP3   OH2 3659   2.227   2.307   4.863
 1239TIP3    H1 3660   2.286   2.340   4.796
 1239TIP3    H2 3661   2.212   2.216   4.840
 1240TIP3   OH2 3662   3.418   4.157   0.660
 1240TIP3    H1 3663   3.439   4.250   0.649
 1240TIP3    H2 3664   3.435   4.118   0.574
 1241TIP3   OH2 3665   7.521   7.478   5.308
 1241TIP3    H1 3666   7.610   7.490   5.273
 1241TIP3    H2 3667   7.470   7.547   5.265
 1242TIP3   OH2 3668   1.791   6.563   5.114
 1242TIP3    H1 3669   1.769   6.639   5.061
 1242TIP3    H2 3670   1.757   6.488   5.065
 1243TIP3   OH2 3671   1.526   2.336   5.649
 1243TIP3    H1 3672   1.581   2.325   5.727
 1243TIP3    H2 3673   1.445   2.374   5.682
 1244TIP3   OH2 3674   2.719   7.678   5.774
 1244TIP3    H1 3675   2.633   7.639   5.757
 1244TIP3    H2 3676   2.775   7.604   5.798
 1245TIP3   OH2 3677   4.863   6.121   1.569
 1245TIP3    H1 3678   4.845   6.027   1.575
 1245TIP3    H2 3679   4.872   6.150   1.659
 1246TIP3   OH2 3680   7.988   6.916   6.521
 1246TIP3    H1 3681   7.923   6.977   6.555
 1246TIP3    H2 3682   8.070   6.966   6.521
 1247TIP3   OH2 3683   4.761   7.527   2.597
 1247TIP3    H1 3684   4.789   7.456   2.540
 1247TIP3    H2 3685   4.676   7.554   2.562
 1248TIP3   OH2 3686   0.800   0.089   3.015
 1248TIP3    H1 3687   0.776   0.045   3.097
 1248TIP3    H2 3688   0.838   0.020   2.961
 1249TIP3   OH2 3689   4.521   7.254   4.892
 1249TIP3    H1 3690   4.598   7.245   4.835
 1249TIP3    H2 3691   4.515   7.348   4.908
 1250TIP3   OH2 3692   2.708   5.246   4.849
 1250TIP3    H1 3693   2.684   5.313   4.913
 1250TIP3    H2 3694   2.763   5.291   4.786
 1251TIP3   OH2 3695   4.429   1.292   0.587
 1251TIP3    H1 3696   4.383   1.364   0.630
 1251TIP3    H2 3697   4.473   1.245   0.659
 1252TIP3   OH2 3698   5.740   3.785   6.416
 1252TIP3    H1 3699   5.779   3.718   6.473
 1252TIP3    H2 3700   5.661   3.743   6.381
 1253TIP3   OH2 3701   3.133   5.741   0.538
 1253TIP3    H1 3702   3.063   5.804   0.520
 1253TIP3    H2 3703   3.093   5.674   0.593
 1254TIP3   OH2 3704   5.999   5.410   5.401
 1254TIP3    H1 3705   5.986   5.321   5.434
 1254TIP3    H2 3706   5.989   5.403   5.306
 1255TIP3   OH2 3707   2.895   6.181   2.637
 1255TIP3    H1 3708   2.958   6.249   2.662
 1255TIP3    H2 3709   2.948   6.107   2.609
 1256TIP3   OH2 3710   4.115   2.219   0.133
 1256TIP3    H1 3711   4.186   2.183   0.187
 1256TIP3    H2 3712   4.115   2.165   0.054
 1257TIP3   OH2 3713   3.870   6.883   0.467
 1257TIP3    H1 3714   3.832   6.881   0.380
 1257TIP3    H2 3715   3.889   6.791   0.487
 1258TIP3   OH2 3716   7.543   0.837   5.762
 1258TIP3    H1 3717   7.565   0.768   5.825
 1258TIP3    H2 3718   7.593   0.913   5.791
 1259TIP3   OH2 3719   4.902   0.714   6.097
 1259TIP3    H1 3720   4.861   0.784   6.046
 1259TIP3    H2 3721   4.834   0.647   6.106
 1260TIP3   OH2 3722   1.869   5.202   6.602
 1260TIP3    H1 3723   1.965   5.196   6.603
 1260TIP3    H2 3724   1.850   5.292   6.576
 1261TIP3   OH2 3725   8.072   3.393   6.006
 1261TIP3    H1 3726   8.102   3.423   6.092
 1261TIP3    H2 3727   8.069   3.298   6.014
 1262TIP3   OH2 3728   6.352   5.758   6.620
 1262TIP3    H1 3729   6.394   5.682   6.579
 1262TIP3    H2 3730   6.290   5.790   6.555
 1263TIP3   OH2 3731   1.676   2.248   5.008
 1263TIP3    H1 3732   1.726   2.233   5.088
 1263TIP3    H2 3733   1.743   2.262   4.940
 1264TIP3   OH2 3734   2.808   0.394   3.078
 1264TIP3    H1 3735   2.756   0.383   2.998
 1264TIP3    H2 3736   2.753   0.358   3.147
 1265TIP3   OH2 3737   0.717   6.980   0.877
 1265TIP3    H1 3738   0.738   6.889   0.858
 1265TIP3    H2 3739   0.800   7.018   0.908
 1266TIP3   OH2 3740   7.314   3.070   3.833
 1266TIP3    H1 3741   7.344   3.016   3.906
 1266TIP3    H2 3742   7.365   3.039   3.758
 1267TIP3   OH2 3743   5.849   5.040   3.426
 1267TIP3    H1 3744   5.900   5.008   3.500
 1267TIP3    H2 3745   5.883   4.992   3.351
 1268TIP3   OH2 3746   0.433   5.638   5.042
 1268TIP3    H1 3747   0.355   5.687   5.016
 1268TIP3    H2 3748   0.400   5.553   5.070
 1269TIP3   OH2 3749   2.635   6.889   3.667
 1269TIP3    H1 3750   2.562   6.847   3.713
 1269TIP3    H2 3751   2.671   6.951   3.730
 1270TIP3   OH2 3752   3.811   0.280   3.633
 1270TIP3    H1 3753   3.727   0.321   3.653
 1270TIP3    H2 3754   3.839   0.241   3.715
 1271TIP3   OH2 3755   7.945   3.950   1.302
 1271TIP3    H1 3756   7.903   3.876   1.257
 1271TIP3    H2 3757   7.989   3.911   1.377
 1272TIP3   OH2 3758   4.683   0.654   5.617
 1272TIP3    H1 3759   4.760   0.629   5.566
 1272TIP3    H2 3760   4.615   0.670   5.552
 1273TIP3   OH2 3761   7.151   7.267   4.277
 1273TIP3    H1 3762   7.150   7.360   4.256
 1273TIP3    H2 3763   7.131   7.263   4.371
 1274TIP3   OH2 3764   3.348   1.008   5.079
 1274TIP3    H1 3765   3.254   0.991   5.070
 1274TIP3    H2 3766   3.377   0.944   5.144
 1275TIP3   OH2 3767   3.943   6.339   6.267
 1275TIP3    H1 3768   3.940   6.251   6.229
 1275TIP3    H2 3769   3.979   6.326   6.354
 1276TIP3   OH2 3770   3.592   4.857   0.452
 1276TIP3    H1 3771   3.522   4.875   0.515
 1276TIP3    H2 3772   3.554   4.794   0.391
 1277TIP3   OH2 3773   6.970   2.419   6.346
 1277TIP3    H1 3774   6.950   2.349   6.408
 1277TIP3    H2 3775   6.932   2.498   6.385
 1278TIP3   OH2 3776   4.423   4.312   1.954
 1278TIP3    H1 3777   4.354   4.349   2.009
 1278TIP3    H2 3778   4.466   4.389   1.916
 1279TIP3   OH2 3779   2.795   5.926   1.938
 1279TIP3    H1 3780   2.883   5.951   1.964
 1279TIP3    H2 3781   2.739   5.997   1.970
 1280TIP3   OH2 3782   7.105   6.142   2.919
 1280TIP3    H1 3783   7.180   6.192   2.886
 1280TIP3    H2 3784   7.075   6.091   2.844
 1281TIP3   OH2 3785   0.327   2.098   5.053
 1281TIP3    H1 3786   0.323   2.004   5.067
 1281TIP3    H2 3787   0.312   2.109   4.959
 1282TIP3   OH2 3788   4.775   5.513   1.666
 1282TIP3    H1 3789   4.760   5.457   1.742
 1282TIP3    H2 3790   4.798   5.453   1.596
 1283TIP3   OH2 3791   5.957   0.592   1.972
 1283TIP3    H1 3792   5.881   0.640   2.006
 1283TIP3    H2 3793   5.919   0.520   1.921
 1284TIP3   OH2 3794   1.089   6.021   0.445
 1284TIP3    H1 3795   1.041   5.964   0.506
 1284TIP3    H2 3796   1.181   6.009   0.468
 1285TIP3   OH2 3797   3.675   2.993   6.516
 1285TIP3    H1 3798   3.615   3.017   6.587
 1285TIP3    H2 3799   3.748   3.055   6.524
 1286TIP3   OH2 3800   3.652   0.446   1.362
 1286TIP3    H1 3801   3.641   0.517   1.425
 1286TIP3    H2 3802   3.565   0.409   1.351
 1287TIP3   OH2 3803   7.098   3.388   3.777
 1287TIP3    H1 3804   7.066   3.474   3.805
 1287TIP3    H2 3805   7.193   3.394   3.786
 1288TIP3   OH2 3806   1.743   2.616   3.154
 1288TIP3    H1 3807   1.817   2.588   3.208
 1288TIP3    H2 3808   1.675   2.640   3.218
 1289TIP3   OH2 3809   2.717   4.254   1.489
 1289TIP3    H1 3810   2.751   4.331   1.444
 1289TIP3    H2 3811   2.674   4.289   1.567
 1290TIP3   OH2 3812   6.079   1.130   3.259
 1290TIP3    H1 3813   5.999   1.175   3.285
 1290TIP3    H2 3814   6.069   1.041   3.294
 1291TIP3   OH2 3815   6.760   0.707   0.095
 1291TIP3    H1 3816   6.669   0.680   0.104
 1291TIP3    H2 3817   6.767   0.732   0.002
 1292TIP3   OH2 3818   6.298   1.922   0.739
 1292TIP3    H1 3819   6.255   1.976   0.673
 1292TIP3    H2 3820   6.250   1.939   0.820
 1293TIP3   OH2 3821   4.893   5.204   3.730
 1293TIP3    H1 3822   4.988   5.204   3.719
 1293TIP3    H2 3823   4.867   5.295   3.712
 1294TIP3   OH2 3824   5.324   1.327   1.481
 1294TIP3    H1 3825   5.399   1.341   1.424
 1294TIP3    H2 3826   5.255   1.382   1.444
 1295TIP3   OH2 3827   3.221   2.938   4.743
 1295TIP3    H1 3828   3.314   2.920   4.757
 1295TIP3    H2 3829   3.215   3.033   4.742
 1296TIP3   OH2 3830   0.588   6.511   3.009
 1296TIP3    H1 3831   0.570   6.472   3.094
 1296TIP3    H2 3832   0.589   6.605   3.025
 1297TIP3   OH2 3833   8.164   5.626   2.685
 1297TIP3    H1 3834   8.133   5.630   2.594
 1297TIP3    H2 3835   8.127   5.703   2.727
 1298TIP3   OH2 3836   4.844   5.556   4.585
 1298TIP3    H1 3837   4.921   5.583   4.535
 1298TIP3    H2 3838   4.817   5.474   4.545
 1299TIP3   OH2 3839   3.732   2.048   5.892
 1299TIP3    H1 3840   3.687   1.964   5.894
 1299TIP3    H2 3841   3.814   2.033   5.940
 1300TIP3   OH2 3842   4.616   1.989   1.747
 1300TIP3    H1 3843   4.652   2.057   1.691
 1300TIP3    H2 3844   4.663   1.909   1.723
 1301TIP3   OH2 3845   5.483   3.301   4.862
 1301TIP3    H1 3846   5.496   3.244   4.786
 1301TIP3    H2 3847   5.486   3.243   4.937
 1302TIP3   OH2 3848   2.427   4.904   4.662
 1302TIP3    H1 3849   2.345   4.889   4.613
 1302TIP3    H2 3850   2.402   4.895   4.754
 1303TIP3   OH2 3851   7.533   4.338   4.999
 1303TIP3    H1 3852   7.528   4.390   4.919
 1303TIP3    H2 3853   7.614   4.289   4.991
 1304TIP3   OH2 3854   1.975   1.326   3.553
 1304TIP3    H1 3855   1.949   1.364   3.637
 1304TIP3    H2 3856   2.038   1.258   3.576
 1305TIP3   OH2 3857   2.891   3.814   4.142
 1305TIP3    H1 3858   2.925   3.767   4.066
 1305TIP3    H2 3859   2.832   3.752   4.185
 1306TIP3   OH2 3860   6.875   6.132   5.231
 1306TIP3    H1 3861   6.807   6.068   5.251
 1306TIP3    H2 3862   6.827   6.213   5.215
 1307TIP3   OH2 3863   1.104   2.731   5.283
 1307TIP3    H1 3864   1.136   2.776   5.205
 1307TIP3    H2 3865   1.068   2.801   5.338
 1308TIP3   OH2 3866   6.641   3.859   0.453
 1308TIP3    H1 3867   6.580   3.928   0.480
 1308TIP3    H2 3868   6.589   3.779   0.453
 1309TIP3   OH2 3869   2.695   2.325   3.862
 1309TIP3    H1 3870   2.654   2.249   3.902
 1309TIP3    H2 3871   2.623   2.388   3.850
 1310TIP3   OH2 3872   2.432   5.798   1.922
 1310TIP3    H1 3873   2.457   5.863   1.857
 1310TIP3    H2 3874   2.337   5.807   1.930
 1311TIP3   OH2 3875   6.430   3.624   1.982
 1311TIP3    H1 3876   6.401   3.670   1.903
 1311TIP3    H2 3877   6.493   3.560   1.950
 1312TIP3   OH2 3878   4.962   2.205   6.687
 1312TIP3    H1 3879   5.026   2.180   6.620
 1312TIP3    H2 3880   4.898   2.134   6.686
 1313TIP3   OH2 3881   1.255   1.380   4.527
 1313TIP3    H1 3882   1.347   1.404   4.539
 1313TIP3    H2 3883   1.227   1.432   4.451
 1314TIP3   OH2 3884   4.814   0.007   6.524
 1314TIP3    H1 3885   4.875  -0.023   6.457
 1314TIP3    H2 3886   4.822   0.103   6.523
 1315TIP3   OH2 3887   3.355   7.047   0.683
 1315TIP3    H1 3888   3.422   6.986   0.652
 1315TIP3    H2 3889   3.363   7.047   0.778
 1316TIP3   OH2 3890   7.188   2.116   6.664
 1316TIP3    H1 3891   7.148   2.046   6.612
 1316TIP3    H2 3892   7.272   2.132   6.620
 1317TIP3   OH2 3893   0.586   6.777   3.001
 1317TIP3    H1 3894   0.550   6.844   2.943
 1317TIP3    H2 3895   0.653   6.823   3.051
 1318TIP3   OH2 3896   1.277   3.876   4.743
 1318TIP3    H1 3897   1.345   3.936   4.775
 1318TIP3    H2 3898   1.217   3.866   4.817
 1319TIP3   OH2 3899   4.346   5.823   5.882
 1319TIP3    H1 3900   4.411   5.754   5.894
 1319TIP3    H2 3901   4.302   5.831   5.966
 1320TIP3   OH2 3902   1.097   3.604   0.627
 1320TIP3    H1 3903   1.040   3.575   0.698
 1320TIP3    H2 3904   1.136   3.685   0.660
 1321TIP3   OH2 3905   3.912   6.964   3.669
 1321TIP3    H1 3906   3.953   6.880   3.690
 1321TIP3    H2 3907   3.985   7.021   3.645
 1322TIP3   OH2 3908   7.510   3.622   3.575
 1322TIP3    H1 3909   7.534   3.702   3.529
 1322TIP3    H2 3910   7.552   3.552   3.524
 1323TIP3   OH2 3911   1.969   7.597   2.848
 1323TIP3    H1 3912   2.038   7.661   2.863
 1323TIP3    H2 3913   1.908   7.610   2.921
 1324TIP3   OH2 3914   2.445   7.307   0.408
 1324TIP3    H1 3915   2.538   7.321   0.427
 1324TIP3    H2 3916   2.421   7.382   0.354
 1325TIP3   OH2 3917   3.826   6.721   1.622
 1325TIP3    H1 3918   3.737   6.721   1.588
 1325TIP3    H2 3919   3.871   6.788   1.571
 1326TIP3   OH2 3920   1.680   0.333   2.325
 1326TIP3    H1 3921   1.728   0.336   2.408
 1326TIP3    H2 3922   1.665   0.425   2.303
 1327TIP3   OH2 3923   0.774   7.807   5.929
 1327TIP3    H1 3924   0.758   7.792   5.836
 1327TIP3    H2 3925   0.822   7.729   5.958
 1328TIP3   OH2 3926   1.065   7.643   5.377
 1328TIP3    H1 3927   1.054   7.719   5.434
 1328TIP3    H2 3928   1.133   7.670   5.315
 1329TIP3   OH2 3929   4.730   7.114   1.747
 1329TIP3    H1 3930   4.668   7.186   1.754
 1329TIP3    H2 3931   4.691   7.055   1.682
 1330TIP3   OH2 3932   5.870   5.554   0.161
 1330TIP3    H1 3933   5.833   5.632   0.202
 1330TIP3    H2 3934   5.905   5.585   0.077
 1331TIP3   OH2 3935   3.041   6.441   4.723
 1331TIP3    H1 3936   2.966   6.421   4.779
 1331TIP3    H2 3937   3.082   6.517   4.765
 1332TIP3   OH2 3938   0.983   7.545   5.668
 1332TIP3    H1 3939   0.933   7.616   5.628
 1332TIP3    H2 3940   0.918   7.494   5.716
 1333TIP3   OH2 3941   6.474   5.018   0.996
 1333TIP3    H1 3942   6.542   5.083   0.975
 1333TIP3    H2 3943   6.493   4.992   1.086
 1334TIP3   OH2 3944   1.569   3.102   3.972
 1334TIP3    H1 3945   1.652   3.144   3.995
 1334TIP3    H2 3946   1.579   3.078   3.879
 1335TIP3   OH2 3947   5.662   3.822   4.329
 1335TIP3    H1 3948   5.666   3.726   4.329
 1335TIP3    H2 3949   5.589   3.842   4.387
 1336TIP3   OH2 3950   4.836   1.865   4.896
 1336TIP3    H1 3951   4.898   1.792   4.907
 1336TIP3    H2 3952   4.751   1.827   4.919
 1337TIP3   OH2 3953   0.791   2.710   0.407
 1337TIP3    H1 3954   0.800   2.782   0.470
 1337TIP3    H2 3955   0.776   2.754   0.323
 1338TIP3   OH2 3956   4.106   4.636   5.692
 1338TIP3    H1 3957   4.020   4.616   5.654
 1338TIP3    H2 3958   4.087   4.692   5.766
 1339TIP3   OH2 3959   2.086   1.121   5.568
 1339TIP3    H1 3960   2.060   1.039   5.610
 1339TIP3    H2 3961   2.091   1.185   5.639
 1340TIP3   OH2 3962   0.848   6.784   1.864
 1340TIP3    H1 3963   0.758   6.758   1.882
 1340TIP3    H2 3964   0.896   6.702   1.853
 1341TIP3   OH2 3965   4.142   3.719   4.865
 1341TIP3    H1 3966   4.078   3.715   4.794
 1341TIP3    H2 3967   4.165   3.812   4.871
 1342TIP3   OH2 3968   7.925   0.803   3.850
 1342TIP3    H1 3969   8.006   0.768   3.814
 1342TIP3    H2 3970   7.944   0.814   3.943
 1343TIP3   OH2 3971   3.541   0.217   6.266
 1343TIP3    H1 3972   3.587   0.296   6.292
 1343TIP3    H2 3973   3.449   0.243   6.261
 1344TIP3   OH2 3974   7.628   2.555   5.117
 1344TIP3    H1 3975   7.578   2.635   5.102
 1344TIP3    H2 3976   7.719   2.581   5.100
 1345TIP3   OH2 3977   2.475   0.164   6.503
 1345TIP3    H1 3978   2.425   0.163   6.422
 1345TIP3    H2 3979   2.536   0.237   6.494
 1346TIP3   OH2 3980   1.088   4.711   0.552
 1346TIP3    H1 3981   1.168   4.665   0.528
 1346TIP3    H2 3982   1.114   4.804   0.555
 1347TIP3   OH2 3983   0.931   7.581   6.075
 1347TIP3    H1 3984   0.940   7.539   5.990
 1347TIP3    H2 3985   0.916   7.509   6.136
 1348TIP3   OH2 3986   4.640   3.080   2.285
 1348TIP3    H1 3987   4.681   3.004   2.244
 1348TIP3    H2 3988   4.547   3.058   2.288
 1349TIP3   OH2 3989   2.308   3.579   2.150
 1349TIP3    H1 3990   2.356   3.660   2.164
 1349TIP3    H2 3991   2.375   3.513   2.135
 1350TIP3   OH2 3992   7.182   6.590   1.069
 1350TIP3    H1 3993   7.199   6.561   1.158
 1350TIP3    H2 3994   7.090   6.616   1.069
 1351TIP3   OH2 3995   3.052   5.228   4.570
 1351TIP3    H1 3996   3.017   5.140   4.565
 1351TIP3    H2 3997   3.119   5.224   4.639
 1352TIP3   OH2 3998   6.556   2.049   1.252
 1352TIP3    H1 3999   6.531   2.052   1.159
 1352TIP3    H2 4000   6.513   2.125   1.291
 1353TIP3   OH2 4001   5.431   2.966   2.415
 1353TIP3    H1 4002   5.355   3.011   2.378
 1353TIP3    H2 4003   5.497   2.968   2.345
 1354TIP3   OH2 4004   7.162   2.663   6.379
 1354TIP3    H1 4005   7.131   2.617   6.457
 1354TIP3    H2 4006   7.171   2.594   6.313
 1355TIP3   OH2 4007   6.494   5.303   5.647
 1355TIP3    H1 4008   6.547   5.376   5.615
 1355TIP3    H2 4009   6.525   5.227   5.598
 1356TIP3   OH2 4010   6.567   6.623   0.086
 1356TIP3    H1 4011   6.486   6.587   0.122
 1356TIP3    H2 4012   6.569   6.591  -0.004
 1357TIP3   OH2 4013   1.798   7.391   0.497
 1357TIP3    H1 4014   1.845   7.445   0.434
 1357TIP3    H2 4015   1.707   7.421   0.491
 1358TIP3   OH2 4016   7.574   1.379   4.056
 1358TIP3    H1 4017   7.628   1.406   3.981
 1358TIP3    H2 4018   7.637   1.365   4.126
 1359TIP3   OH2 4019   7.491   5.398   5.367
 1359TIP3    H1 4020   7.463   5.382   5.457
 1359TIP3    H2 4021   7.430   5.346   5.313
 1360TIP3   OH2 4022   6.476   3.994   1.209
 1360TIP3    H1 4023   6.536   3.961   1.142
 1360TIP3    H2 4024   6.534   4.028   1.277
 1361TIP3   OH2 4025   3.722   3.595   2.525
 1361TIP3    H1 4026   3.702   3.679   2.565
 1361TIP3    H2 4027   3.637   3.554   2.511
 1362TIP3   OH2 4028   8.141   3.353   6.279
 1362TIP3    H1 4029   8.206   3.295   6.317
 1362TIP3    H2 4030   8.150   3.435   6.328
 1363TIP3   OH2 4031   4.554   4.942   4.250
 1363TIP3    H1 4032   4.618   4.936   4.322
 1363TIP3    H2 4033   4.469   4.939   4.294
 1364TIP3   OH2 4034   3.021   6.384   3.076
 1364TIP3    H1 4035   2.998   6.415   3.164
 1364TIP3    H2 4036   3.012   6.289   3.082
 1365TIP3   OH2 4037   5.574   0.926   3.554
 1365TIP3    H1 4038   5.595   1.017   3.532
 1365TIP3    H2 4039   5.572   0.924   3.649
 1366TIP3   OH2 4040   1.953   3.437   2.805
 1366TIP3    H1 4041   1.896   3.360   2.796
 1366TIP3    H2 4042   2.020   3.425   2.737
 1367TIP3   OH2 4043   2.290   0.541   3.237
 1367TIP3    H1 4044   2.358   0.550   3.170
 1367TIP3    H2 4045   2.338   0.523   3.318
 1368TIP3   OH2 4046   3.548   2.584   4.900
 1368TIP3    H1 4047   3.515   2.620   4.982
 1368TIP3    H2 4048   3.487   2.513   4.878
 1369TIP3   OH2 4049   1.259   0.777   5.469
 1369TIP3    H1 4050   1.311   0.749   5.393
 1369TIP3    H2 4051   1.203   0.702   5.489
 1370TIP3   OH2 4052   6.261   2.713   1.752
 1370TIP3    H1 4053   6.260   2.721   1.848
 1370TIP3    H2 4054   6.173   2.681   1.730
 1371TIP3   OH2 4055   8.036   5.353   3.623
 1371TIP3    H1 4056   8.015   5.409   3.549
 1371TIP3    H2 4057   8.132   5.349   3.624
 1372TIP3   OH2 4058   8.102   3.949   1.542
 1372TIP3    H1 4059   8.114   4.032   1.495
 1372TIP3    H2 4060   8.103   3.974   1.634
 1373TIP3   OH2 4061   7.046   7.131   3.583
 1373TIP3    H1 4062   7.138   7.118   3.559
 1373TIP3    H2 4063   7.049   7.195   3.655
 1374TIP3   OH2 4064   5.280   6.094   1.578
 1374TIP3    H1 4065   5.245   6.094   1.667
 1374TIP3    H2 4066   5.363   6.141   1.585
 1375TIP3   OH2 4067   7.495   1.841   5.993
 1375TIP3    H1 4068   7.460   1.928   5.978
 1375TIP3    H2 4069   7.567   1.833   5.931
 1376TIP3   OH2 4070   4.700   3.897   4.909
 1376TIP3    H1 4071   4.762   3.827   4.892
 1376TIP3    H2 4072   4.627   3.855   4.955
 1377TIP3   OH2 4073   6.231   2.603   0.094
 1377TIP3    H1 4074   6.274   2.655   0.027
 1377TIP3    H2 4075   6.303   2.555   0.136
 1378TIP3   OH2 4076   6.892   2.427   4.703
 1378TIP3    H1 4077   6.883   2.360   4.771
 1378TIP3    H2 4078   6.966   2.397   4.650
 1379TIP3   OH2 4079   1.322   0.717   2.615
 1379TIP3    H1 4080   1.386   0.676   2.557
 1379TIP3    H2 4081   1.373   0.783   2.664
 1380TIP3   OH2 4082   5.408   1.421   1.723
 1380TIP3    H1 4083   5.455   1.349   1.766
 1380TIP3    H2 4084   5.365   1.380   1.648
 1381TIP3   OH2 4085   5.705   1.883   2.313
 1381TIP3    H1 4086   5.655   1.890   2.231
 1381TIP3    H2 4087   5.737   1.971   2.330
 1382TIP3   OH2 4088   3.382   4.779   2.089
 1382TIP3    H1 4089   3.423   4.864   2.102
 1382TIP3    H2 4090   3.293   4.790   2.121
 1383TIP3   OH2 4091   4.151   4.149   4.111
 1383TIP3    H1 4092   4.061   4.157   4.141
 1383TIP3    H2 4093   4.172   4.056   4.122
 1384TIP3   OH2 4094   2.122   7.339   0.923
 1384TIP3    H1 4095   2.092   7.305   1.008
 1384TIP3    H2 4096   2.049   7.321   0.864
 1385TIP3   OH2 4097   5.767   2.548   4.292
 1385TIP3    H1 4098   5.827   2.518   4.360
 1385TIP3    H2 4099   5.680   2.532   4.328
 1386TIP3   OH2 4100   4.626   7.317   6.247
 1386TIP3    H1 4101   4.604   7.224   6.248
 1386TIP3    H2 4102   4.717   7.319   6.216
 1387TIP3   OH2 4103   2.947   0.704   1.790
 1387TIP3    H1 4104   2.940   0.636   1.856
 1387TIP3    H2 4105   2.893   0.776   1.824
 1388TIP3   OH2 4106   4.970   3.850   3.040
 1388TIP3    H1 4107   4.884   3.876   3.007
 1388TIP3    H2 4108   4.985   3.764   3.000
 1389TIP3   OH2 4109   7.296   1.572   5.662
 1389TIP3    H1 4110   7.354   1.601   5.591
 1389TIP3    H2 4111   7.351   1.575   5.741
 1390TIP3   OH2 4112   4.787   3.037   1.735
 1390TIP3    H1 4113   4.804   2.953   1.693
 1390TIP3    H2 4114   4.848   3.040   1.809
 1391TIP3   OH2 4115   0.804   5.648   6.767
 1391TIP3    H1 4116   0.828   5.556   6.781
 1391TIP3    H2 4117   0.882   5.687   6.726
 1392TIP3   OH2 4118   2.213   7.082   4.526
 1392TIP3    H1 4119   2.291   7.118   4.569
 1392TIP3    H2 4120   2.226   7.102   4.433
 1393TIP3   OH2 4121   3.334   7.112   0.975
 1393TIP3    H1 4122   3.285   7.064   1.041
 1393TIP3    H2 4123   3.282   7.191   0.959
 1394TIP3   OH2 4124   2.122   1.150   3.964
 1394TIP3    H1 4125   2.037   1.117   3.934
 1394TIP3    H2 4126   2.100   1.213   4.033
 1395TIP3   OH2 4127   5.082   3.419   0.224
 1395TIP3    H1 4128   5.017   3.411   0.294
 1395TIP3    H2 4129   5.119   3.331   0.216
 1396TIP3   OH2 4130   3.960   4.060   0.882
 1396TIP3    H1 4131   3.938   4.113   0.805
 1396TIP3    H2 4132   3.890   3.995   0.887
 1397TIP3   OH2 4133   3.885   6.740   4.107
 1397TIP3    H1 4134   3.967   6.791   4.102
 1397TIP3    H2 4135   3.880   6.714   4.199
 1398TIP3   OH2 4136   3.242   1.927   4.102
 1398TIP3    H1 4137   3.244   2.022   4.087
 1398TIP3    H2 4138   3.333   1.905   4.124
 1399TIP3   OH2 4139   6.274   4.930   4.682
 1399TIP3    H1 4140   6.286   4.937   4.777
 1399TIP3    H2 4141   6.325   5.003   4.647
 1400TIP3   OH2 4142   8.021   2.543   3.155
 1400TIP3    H1 4143   8.076   2.496   3.092
 1400TIP3    H2 4144   7.933   2.509   3.138
 1401TIP3   OH2 4145   6.205   0.688   0.866
 1401TIP3    H1 4146   6.149   0.763   0.887
 1401TIP3    H2 4147   6.144   0.618   0.844
 1402TIP3   OH2 4148   5.822   5.204   1.478
 1402TIP3    H1 4149   5.855   5.266   1.544
 1402TIP3    H2 4150   5.867   5.229   1.398
 1403TIP3   OH2 4151   2.098   4.120   6.522
 1403TIP3    H1 4152   2.055   4.059   6.582
 1403TIP3    H2 4153   2.190   4.092   6.522
 1404TIP3   OH2 4154   6.629   5.241   0.828
 1404TIP3    H1 4155   6.695   5.248   0.760
 1404TIP3    H2 4156   6.641   5.320   0.881
 1405TIP3   OH2 4157   8.117   2.377   1.301
 1405TIP3    H1 4158   8.178   2.303   1.302
 1405TIP3    H2 4159   8.051   2.353   1.236
 1406TIP3   OH2 4160   0.877   4.544   6.442
 1406TIP3    H1 4161   0.848   4.620   6.391
 1406TIP3    H2 4162   0.933   4.495   6.383
 1407TIP3   OH2 4163   5.201   0.171   6.197
 1407TIP3    H1 4164   5.261   0.109   6.155
 1407TIP3    H2 4165   5.258   0.224   6.254
 1408TIP3   OH2 4166   6.879   6.025   3.458
 1408TIP3    H1 4167   6.855   5.933   3.448
 1408TIP3    H2 4168   6.812   6.073   3.410
 1409TIP3   OH2 4169   4.946   7.017   2.971
 1409TIP3    H1 4170   4.998   7.056   2.901
 1409TIP3    H2 4171   5.007   6.962   3.019
 1410TIP3   OH2 4172   8.171   2.267   6.489
 1410TIP3    H1 4173   8.123   2.223   6.559
 1410TIP3    H2 4174   8.147   2.218   6.410
 1411TIP3   OH2 4175   4.612   5.224   4.125
 1411TIP3    H1 4176   4.550   5.260   4.188
 1411TIP3    H2 4177   4.689   5.280   4.133
 1412TIP3   OH2 4178   2.098   3.325   5.466
 1412TIP3    H1 4179   2.171   3.375   5.503
 1412TIP3    H2 4180   2.127   3.234   5.469
 1413TIP3   OH2 4181   0.311   4.919   4.112
 1413TIP3    H1 4182   0.335   4.826   4.105
 1413TIP3    H2 4183   0.394   4.966   4.108
 1414TIP3   OH2 4184   2.769   2.114   5.608
 1414TIP3    H1 4185   2.778   2.207   5.626
 1414TIP3    H2 4186   2.786   2.071   5.692
 1415TIP3   OH2 4187   5.101   4.310   3.759
 1415TIP3    H1 4188   5.073   4.251   3.690
 1415TIP3    H2 4189   5.037   4.297   3.829
 1416TIP3   OH2 4190   2.254   0.155   2.395
 1416TIP3    H1 4191   2.285   0.167   2.305
 1416TIP3    H2 4192   2.316   0.092   2.433
 1417TIP3   OH2 4193   1.935   3.081   1.325
 1417TIP3    H1 4194   1.949   3.131   1.244
 1417TIP3    H2 4195   2.021   3.082   1.368
 1418TIP3   OH2 4196   0.094   1.080   3.672
 1418TIP3    H1 4197   0.021   1.065   3.611
 1418TIP3    H2 4198   0.145   1.149   3.632
 1419TIP3   OH2 4199   6.942   2.340   1.128
 1419TIP3    H1 4200   6.913   2.430   1.142
 1419TIP3    H2 4201   7.033   2.340   1.160
 1420TIP3   OH2 4202   6.275   4.908   3.634
 1420TIP3    H1 4203   6.303   4.860   3.556
 1420TIP3    H2 4204   6.183   4.929   3.617
 1421TIP3   OH2 4205   7.351   6.616   6.234
 1421TIP3    H1 4206   7.428   6.672   6.224
 1421TIP3    H2 4207   7.368   6.567   6.315
 1422TIP3   OH2 4208   4.063   2.073   1.273
 1422TIP3    H1 4209   4.071   2.043   1.182
 1422TIP3    H2 4210   4.001   2.145   1.270
 1423TIP3   OH2 4211   4.505   6.705   1.460
 1423TIP3    H1 4212   4.454   6.742   1.388
 1423TIP3    H2 4213   4.504   6.611   1.444
 1424TIP3   OH2 4214   0.555   2.262   6.452
 1424TIP3    H1 4215   0.477   2.253   6.397
 1424TIP3    H2 4216   0.538   2.339   6.506
 1425TIP3   OH2 4217   3.968   0.175   2.652
 1425TIP3    H1 4218   4.015   0.130   2.582
 1425TIP3    H2 4219   3.957   0.265   2.619
 1426TIP3   OH2 4220   5.146   1.484   1.317
 1426TIP3    H1 4221   5.062   1.438   1.328
 1426TIP3    H2 4222   5.124   1.576   1.323
 1427TIP3   OH2 4223   6.776   1.144   3.848
 1427TIP3    H1 4224   6.807   1.078   3.911
 1427TIP3    H2 4225   6.786   1.102   3.763
 1428TIP3   OH2 4226   1.468   7.784   6.037
 1428TIP3    H1 4227   1.383   7.805   6.076
 1428TIP3    H2 4228   1.471   7.689   6.033
 1429TIP3   OH2 4229   3.470   4.414   0.623
 1429TIP3    H1 4230   3.499   4.486   0.678
 1429TIP3    H2 4231   3.493   4.441   0.534
 1430TIP3   OH2 4232   0.793   1.672   3.626
 1430TIP3    H1 4233   0.795   1.684   3.531
 1430TIP3    H2 4234   0.749   1.749   3.659
 1431TIP3   OH2 4235   7.833   4.776   1.406
 1431TIP3    H1 4236   7.849   4.686   1.378
 1431TIP3    H2 4237   7.738   4.782   1.414
 1432TIP3   OH2 4238   1.674   5.007   4.752
 1432TIP3    H1 4239   1.630   4.931   4.713
 1432TIP3    H2 4240   1.611   5.079   4.741
 1433TIP3   OH2 4241   8.118   6.683   5.593
 1433TIP3    H1 4242   8.062   6.706   5.667
 1433TIP3    H2 4243   8.200   6.653   5.634
 1434TIP3   OH2 4244   5.192   6.803   4.127
 1434TIP3    H1 4245   5.134   6.773   4.056
 1434TIP3    H2 4246   5.280   6.798   4.090
 1435TIP3   OH2 4247   3.653   0.946   4.964
 1435TIP3    H1 4248   3.714   0.873   4.958
 1435TIP3    H2 4249   3.689   1.002   5.033
 1436TIP3   OH2 4250   6.537   7.454   0.439
 1436TIP3    H1 4251   6.620   7.450   0.487
 1436TIP3    H2 4252   6.555   7.512   0.365
 1437TIP3   OH2 4253   6.765   3.631   4.025
 1437TIP3    H1 4254   6.847   3.658   3.985
 1437TIP3    H2 4255   6.765   3.536   4.018
 1438TIP3   OH2 4256   0.749   4.273   4.083
 1438TIP3    H1 4257   0.742   4.203   4.018
 1438TIP3    H2 4258   0.719   4.233   4.165
 1439TIP3   OH2 4259   0.306   4.397   3.480
 1439TIP3    H1 4260   0.232   4.433   3.528
 1439TIP3    H2 4261   0.370   4.469   3.479
 1440TIP3   OH2 4262   3.432   1.563   0.500
 1440TIP3    H1 4263   3.343   1.590   0.522
 1440TIP3    H2 4264   3.447   1.485   0.554
 1441TIP3   OH2 4265   8.191   6.065   5.583
 1441TIP3    H1 4266   8.282   6.068   5.553
 1441TIP3    H2 4267   8.191   6.003   5.656
 1442TIP3   OH2 4268   5.424   2.337   3.078
 1442TIP3    H1 4269   5.466   2.420   3.053
 1442TIP3    H2 4270   5.411   2.292   2.995
 1443TIP3   OH2 4271   6.848   7.422   5.456
 1443TIP3    H1 4272   6.893   7.440   5.374
 1443TIP3    H2 4273   6.794   7.345   5.437
 1444TIP3   OH2 4274   6.403   2.302   5.777
 1444TIP3    H1 4275   6.356   2.247   5.714
 1444TIP3    H2 4276   6.342   2.373   5.796
 1445TIP3   OH2 4277   7.153   4.390   4.515
 1445TIP3    H1 4278   7.169   4.307   4.469
 1445TIP3    H2 4279   7.209   4.386   4.592
 1446TIP3   OH2 4280   0.722   4.972   2.086
 1446TIP3    H1 4281   0.780   5.016   2.147
 1446TIP3    H2 4282   0.707   5.036   2.017
 1447TIP3   OH2 4283   3.048   2.038   2.520
 1447TIP3    H1 4284   2.960   2.043   2.483
 1447TIP3    H2 4285   3.066   1.944   2.528
 1448TIP3   OH2 4286   4.734   2.450   6.554
 1448TIP3    H1 4287   4.825   2.473   6.533
 1448TIP3    H2 4288   4.710   2.386   6.487
 1449TIP3   OH2 4289   0.840   2.512   0.592
 1449TIP3    H1 4290   0.816   2.560   0.513
 1449TIP3    H2 4291   0.759   2.508   0.643
 1450TIP3   OH2 4292   2.648   4.119   4.345
 1450TIP3    H1 4293   2.563   4.158   4.325
 1450TIP3    H2 4294   2.654   4.123   4.441
 1451TIP3   OH2 4295   3.943   4.049   0.355
 1451TIP3    H1 4296   3.915   4.139   0.339
 1451TIP3    H2 4297   4.034   4.047   0.325
 1452TIP3   OH2 4298   3.633   0.542   4.583
 1452TIP3    H1 4299   3.649   0.637   4.580
 1452TIP3    H2 4300   3.613   0.525   4.675
 1453TIP3   OH2 4301   7.074   1.792   6.745
 1453TIP3    H1 4302   7.148   1.783   6.685
 1453TIP3    H2 4303   7.111   1.836   6.821
 1454TIP3   OH2 4304   7.172   7.315   5.187
 1454TIP3    H1 4305   7.129   7.230   5.181
 1454TIP3    H2 4306   7.256   7.296   5.229
 1455TIP3   OH2 4307   6.791   1.248   0.417
 1455TIP3    H1 4308   6.831   1.310   0.477
 1455TIP3    H2 4309   6.706   1.228   0.456
 1456TIP3   OH2 4310   2.908   0.870   2.071
 1456TIP3    H1 4311   2.942   0.923   2.143
 1456TIP3    H2 4312   2.972   0.800   2.061
 1457TIP3   OH2 4313   0.872   3.786   3.515
 1457TIP3    H1 4314   0.889   3.721   3.447
 1457TIP3    H2 4315   0.949   3.783   3.571
 1458TIP3   OH2 4316   8.223   4.274   4.874
 1458TIP3    H1 4317   8.239   4.195   4.925
 1458TIP3    H2 4318   8.223   4.245   4.783
 1459TIP3   OH2 4319   3.116   3.952   5.615
 1459TIP3    H1 4320   3.204   3.950   5.577
 1459TIP3    H2 4321   3.080   4.036   5.588
 1460TIP3   OH2 4322   1.834   4.740   2.389
 1460TIP3    H1 4323   1.778   4.817   2.376
 1460TIP3    H2 4324   1.821   4.688   2.310
 1461TIP3   OH2 4325   3.760   3.746   1.113
 1461TIP3    H1 4326   3.776   3.655   1.090
 1461TIP3    H2 4327   3.741   3.789   1.029
 1462TIP3   OH2 4328   5.583   5.938   1.857
 1462TIP3    H1 4329   5.659   5.941   1.917
 1462TIP3    H2 4330   5.612   5.884   1.784
 1463TIP3   OH2 4331   5.337   5.486   6.227
 1463TIP3    H1 4332   5.426   5.482   6.261
 1463TIP3    H2 4333   5.287   5.426   6.282
 1464TIP3   OH2 4334   5.608   2.890   3.395
 1464TIP3    H1 4335   5.604   2.972   3.346
 1464TIP3    H2 4336   5.517   2.863   3.405
 1465TIP3   OH2 4337   4.997   1.008   4.736
 1465TIP3    H1 4338   5.060   0.951   4.691
 1465TIP3    H2 4339   4.926   1.020   4.674
 1466TIP3   OH2 4340   8.074   2.885   4.463
 1466TIP3    H1 4341   8.125   2.871   4.383
 1466TIP3    H2 4342   8.111   2.822   4.526
 1467TIP3   OH2 4343   7.472   1.327   2.649
 1467TIP3    H1 4344   7.431   1.411   2.627
 1467TIP3    H2 4345   7.508   1.341   2.737
 1468TIP3   OH2 4346   6.183   7.689   6.749
 1468TIP3    H1 4347   6.190   7.604   6.793
 1468TIP3    H2 4348   6.270   7.706   6.714
 1469TIP3   OH2 4349   1.621   7.147   6.286
 1469TIP3    H1 4350   1.535   7.182   6.308
 1469TIP3    H2 4351   1.605   7.086   6.215
 1470TIP3   OH2 4352   7.800   3.769   3.556
 1470TIP3    H1 4353   7.778   3.853   3.515
 1470TIP3    H2 4354   7.863   3.792   3.624
 1471TIP3   OH2 4355   6.812   2.081   1.093
 1471TIP3    H1 4356   6.868   2.009   1.125
 1471TIP3    H2 4357   6.845   2.158   1.140
 1472TIP3   OH2 4358   0.160   3.454   6.248
 1472TIP3    H1 4359   0.178   3.525   6.187
 1472TIP3    H2 4360   0.243   3.409   6.258
 1473TIP3   OH2 4361   5.211   6.512   0.647
 1473TIP3    H1 4362   5.229   6.570   0.573
 1473TIP3    H2 4363   5.126   6.540   0.679
 1474TIP3   OH2 4364   4.312   3.785   0.470
 1474TIP3    H1 4365   4.233   3.795   0.524
 1474TIP3    H2 4366   4.311   3.861   0.412
 1475TIP3   OH2 4367   4.601   0.310   5.094
 1475TIP3    H1 4368   4.642   0.362   5.162
 1475TIP3    H2 4369   4.507   0.321   5.108
 1476TIP3   OH2 4370   1.700   5.371   2.293
 1476TIP3    H1 4371   1.699   5.461   2.324
 1476TIP3    H2 4372   1.781   5.363   2.244
 1477TIP3   OH2 4373   4.810   1.057   5.064
 1477TIP3    H1 4374   4.761   1.070   5.145
 1477TIP3    H2 4375   4.746   1.018   5.004
 1478TIP3   OH2 4376   2.594   2.828   5.593
 1478TIP3    H1 4377   2.665   2.804   5.534
 1478TIP3    H2 4378   2.627   2.805   5.680
 1479TIP3   OH2 4379   7.847   4.678   0.072
 1479TIP3    H1 4380   7.858   4.732   0.150
 1479TIP3    H2 4381   7.932   4.681   0.028
 1480TIP3   OH2 4382   4.152   2.072   2.140
 1480TIP3    H1 4383   4.186   2.103   2.056
 1480TIP3    H2 4384   4.205   1.995   2.160
 1481TIP3   OH2 4385   6.263   3.651   5.019
 1481TIP3    H1 4386   6.217   3.735   5.024
 1481TIP3    H2 4387   6.353   3.670   5.045
 1482TIP3   OH2 4388   1.169   7.227   4.068
 1482TIP3    H1 4389   1.093   7.188   4.025
 1482TIP3    H2 4390   1.161   7.201   4.160
 1483TIP3   OH2 4391   1.027   3.073   5.014
 1483TIP3    H1 4392   0.986   3.112   4.938
 1483TIP3    H2 4393   0.964   3.086   5.085
 1484TIP3   OH2 4394   0.860   6.687   1.465
 1484TIP3    H1 4395   0.828   6.633   1.392
 1484TIP3    H2 4396   0.781   6.707   1.516
 1485TIP3   OH2 4397   0.582   0.201   6.273
 1485TIP3    H1 4398   0.518   0.138   6.239
 1485TIP3    H2 4399   0.555   0.215   6.364
 1486TIP3   OH2 4400   0.999   2.159   3.338
 1486TIP3    H1 4401   0.938   2.138   3.267
 1486TIP3    H2 4402   1.051   2.231   3.305
 1487TIP3   OH2 4403   2.776   4.919   1.051
 1487TIP3    H1 4404   2.792   5.004   1.091
 1487TIP3    H2 4405   2.729   4.869   1.119
 1488TIP3   OH2 4406   6.663   7.046   3.826
 1488TIP3    H1 4407   6.710   7.064   3.745
 1488TIP3    H2 4408   6.704   6.967   3.861
 1489TIP3   OH2 4409   7.428   2.429   1.728
 1489TIP3    H1 4410   7.426   2.422   1.633
 1489TIP3    H2 4411   7.418   2.339   1.760
 1490TIP3   OH2 4412   3.083   1.504   1.291
 1490TIP3    H1 4413   3.141   1.525   1.218
 1490TIP3    H2 4414   3.048   1.418   1.270
 1491TIP3   OH2 4415   7.829   6.934   0.417
 1491TIP3    H1 4416   7.869   6.946   0.331
 1491TIP3    H2 4417   7.749   6.885   0.399
 1492TIP3   OH2 4418   2.980   7.069   1.236
 1492TIP3    H1 4419   3.066   7.027   1.243
 1492TIP3    H2 4420   2.999   7.158   1.204
 1493TIP3   OH2 4421   6.081   2.202   5.952
 1493TIP3    H1 4422   6.117   2.291   5.960
 1493TIP3    H2 4423   6.032   2.189   6.033
 1494TIP3   OH2 4424   7.567   4.736   3.312
 1494TIP3    H1 4425   7.485   4.725   3.361
 1494TIP3    H2 4426   7.554   4.817   3.263
 1495TIP3   OH2 4427   6.683   3.105   6.410
 1495TIP3    H1 4428   6.721   3.023   6.381
 1495TIP3    H2 4429   6.616   3.080   6.473
 1496TIP3   OH2 4430   4.735   2.679   3.761
 1496TIP3    H1 4431   4.734   2.704   3.853
 1496TIP3    H2 4432   4.687   2.749   3.717
 1497TIP3   OH2 4433   0.473   3.423   3.590
 1497TIP3    H1 4434   0.473   3.502   3.536
 1497TIP3    H2 4435   0.383   3.415   3.621
 1498TIP3   OH2 4436   8.039   0.241   6.528
 1498TIP3    H1 4437   8.092   0.314   6.495
 1498TIP3    H2 4438   7.982   0.218   6.455
 1499TIP3   OH2 4439   7.091   6.405   5.673
 1499TIP3    H1 4440   7.127   6.318   5.688
 1499TIP3    H2 4441   7.012   6.390   5.621
 1500TIP3   OH2 4442   3.928   2.035   0.663
 1500TIP3    H1 4443   4.007   2.089   0.671
 1500TIP3    H2 4444   3.899   2.049   0.573
 1501TIP3   OH2 4445   1.257   5.697   1.885
 1501TIP3    H1 4446   1.284   5.610   1.856
 1501TIP3    H2 4447   1.338   5.748   1.888
 1502TIP3   OH2 4448   0.201   2.698   2.620
 1502TIP3    H1 4449   0.221   2.641   2.545
 1502TIP3    H2 4450   0.160   2.775   2.581
 1503TIP3   OH2 4451   4.439   0.367   5.437
 1503TIP3    H1 4452   4.492   0.287   5.438
 1503TIP3    H2 4453   4.396   0.369   5.523
 1504TIP3   OH2 4454   4.304   7.812   0.766
 1504TIP3    H1 4455   4.322   7.720   0.786
 1504TIP3    H2 4456   4.277   7.850   0.850
 1505TIP3   OH2 4457   6.149   7.611   6.375
 1505TIP3    H1 4458   6.087   7.635   6.444
 1505TIP3    H2 4459   6.215   7.558   6.421
 1506TIP3   OH2 4460   1.660   6.162   0.856
 1506TIP3    H1 4461   1.685   6.097   0.791
 1506TIP3    H2 4462   1.676   6.120   0.941
 1507TIP3   OH2 4463   6.280   5.966   3.895
 1507TIP3    H1 4464   6.223   5.989   3.968
 1507TIP3    H2 4465   6.224   5.917   3.835
 1508TIP3   OH2 4466   3.742   2.315   3.160
 1508TIP3    H1 4467   3.748   2.370   3.238
 1508TIP3    H2 4468   3.706   2.372   3.092
 1509TIP3   OH2 4469   6.380   1.312   1.893
 1509TIP3    H1 4470   6.351   1.279   1.979
 1509TIP3    H2 4471   6.389   1.406   1.905
 1510TIP3   OH2 4472   5.905   7.300   0.317
 1510TIP3    H1 4473   5.869   7.277   0.231
 1510TIP3    H2 4474   5.931   7.391   0.309
 1511TIP3   OH2 4475   2.571   0.119   1.151
 1511TIP3    H1 4476   2.521   0.063   1.092
 1511TIP3    H2 4477   2.556   0.207   1.118
 1512TIP3   OH2 4478   0.482   6.313   5.908
 1512TIP3    H1 4479   0.387   6.309   5.902
 1512TIP3    H2 4480   0.506   6.394   5.863
 1513TIP3   OH2 4481   0.854   2.654   6.592
 1513TIP3    H1 4482   0.949   2.648   6.593
 1513TIP3    H2 4483   0.824   2.575   6.637
 1514TIP3   OH2 4484   0.341   2.220   6.284
 1514TIP3    H1 4485   0.341   2.220   6.188
 1514TIP3    H2 4486   0.248   2.220   6.308
 1515TIP3   OH2 4487   1.293   6.558   6.199
 1515TIP3    H1 4488   1.261   6.645   6.175
 1515TIP3    H2 4489   1.378   6.573   6.238
 1516TIP3   OH2 4490   0.315   6.992   3.386
 1516TIP3    H1 4491   0.273   6.940   3.455
 1516TIP3    H2 4492   0.265   6.974   3.307
 1517TIP3   OH2 4493   3.188   4.513   5.777
 1517TIP3    H1 4494   3.207   4.493   5.869
 1517TIP3    H2 4495   3.176   4.608   5.775
 1518TIP3   OH2 4496   3.281   1.149   1.068
 1518TIP3    H1 4497   3.274   1.203   0.989
 1518TIP3    H2 4498   3.219   1.189   1.129
 1519TIP3   OH2 4499   3.523   6.381   5.683
 1519TIP3    H1 4500   3.436   6.398   5.721
 1519TIP3    H2 4501   3.522   6.427   5.599
 1520TIP3   OH2 4502   7.654   7.173   5.033
 1520TIP3    H1 4503   7.736   7.186   5.080
 1520TIP3    H2 4504   7.633   7.080   5.046
 1521TIP3   OH2 4505   6.483   1.494   3.249
 1521TIP3    H1 4506   6.412   1.553   3.271
 1521TIP3    H2 4507   6.460   1.411   3.291
 1522TIP3   OH2 4508   6.251   3.832   6.375
 1522TIP3    H1 4509   6.328   3.789   6.412
 1522TIP3    H2 4510   6.194   3.848   6.450
 1523TIP3   OH2 4511   7.617   3.271   6.587
 1523TIP3    H1 4512   7.534   3.228   6.608
 1523TIP3    H2 4513   7.658   3.287   6.672
 1524TIP3   OH2 4514   5.646   1.253   6.401
 1524TIP3    H1 4515   5.694   1.180   6.362
 1524TIP3    H2 4516   5.554   1.229   6.390
 1525TIP3   OH2 4517   0.816   2.546   3.091
 1525TIP3    H1 4518   0.880   2.476   3.101
 1525TIP3    H2 4519   0.731   2.502   3.097
 1526TIP3   OH2 4520   3.319   2.108   3.255
 1526TIP3    H1 4521   3.279   2.146   3.177
 1526TIP3    H2 4522   3.411   2.098   3.232
 1527TIP3   OH2 4523   4.356   1.569   0.045
 1527TIP3    H1 4524   4.344   1.564  -0.049
 1527TIP3    H2 4525   4.282   1.622   0.076
 1528TIP3   OH2 4526   2.444   0.798   5.878
 1528TIP3    H1 4527   2.511   0.797   5.809
 1528TIP3    H2 4528   2.449   0.885   5.916
 1529TIP3   OH2 4529   4.791   1.815   5.526
 1529TIP3    H1 4530   4.708   1.770   5.542
 1529TIP3    H2 4531   4.856   1.745   5.520
 1530TIP3   OH2 4532   3.429   0.476   1.119
 1530TIP3    H1 4533   3.460   0.554   1.073
 1530TIP3    H2 4534   3.504   0.418   1.121
 1531TIP3   OH2 4535   3.329   6.374   0.843
 1531TIP3    H1 4536   3.378   6.419   0.911
 1531TIP3    H2 4537   3.317   6.285   0.877
 1532TIP3   OH2 4538   5.393   5.817   4.426
 1532TIP3    H1 4539   5.346   5.891   4.388
 1532TIP3    H2 4540   5.477   5.853   4.453
 1533TIP3   OH2 4541   3.727   1.190   6.146
 1533TIP3    H1 4542   3.786   1.152   6.211
 1533TIP3    H2 4543   3.786   1.225   6.078
 1534TIP3   OH2 4544   7.336   7.428   3.122
 1534TIP3    H1 4545   7.276   7.447   3.050
 1534TIP3    H2 4546   7.279   7.401   3.195
 1535TIP3   OH2 4547   1.995   7.271   4.261
 1535TIP3    H1 4548   1.909   7.311   4.252
 1535TIP3    H2 4549   2.049   7.314   4.194
 1536TIP3   OH2 4550   1.715   3.785   4.640
 1536TIP3    H1 4551   1.792   3.777   4.583
 1536TIP3    H2 4552   1.654   3.719   4.605
 1537TIP3   OH2 4553   0.439   7.645   2.205
 1537TIP3    H1 4554   0.362   7.699   2.188
 1537TIP3    H2 4555   0.452   7.651   2.299
 1538TIP3   OH2 4556   4.595   2.615   0.924
 1538TIP3    H1 4557   4.592   2.544   0.988
 1538TIP3    H2 4558   4.687   2.619   0.897
 1539TIP3   OH2 4559   1.722   2.604   0.734
 1539TIP3    H1 4560   1.656   2.570   0.796
 1539TIP3    H2 4561   1.805   2.569   0.767
 1540TIP3   OH2 4562   0.447   3.676   0.806
 1540TIP3    H1 4563   0.395   3.678   0.886
 1540TIP3    H2 4564   0.401   3.615   0.749
 1541TIP3   OH2 4565   6.887   0.716   1.162
 1541TIP3    H1 4566   6.848   0.678   1.083
 1541TIP3    H2 4567   6.974   0.676   1.167
 1542TIP3   OH2 4568   3.901   1.768   5.370
 1542TIP3    H1 4569   3.956   1.842   5.345
 1542TIP3    H2 4570   3.826   1.774   5.310
 1543TIP3   OH2 4571   1.066   0.756   2.480
 1543TIP3    H1 4572   1.130   0.739   2.549
 1543TIP3    H2 4573   1.071   0.679   2.423
 1544TIP3   OH2 4574   1.424   5.720   3.379
 1544TIP3    H1 4575   1.430   5.768   3.296
 1544TIP3    H2 4576   1.350   5.661   3.367
 1545TIP3   OH2 4577   0.617   5.250   5.440
 1545TIP3    H1 4578   0.614   5.245   5.345
 1545TIP3    H2 4579   0.545   5.195   5.470
 1546TIP3   OH2 4580   4.133   6.786   1.307
 1546TIP3    H1 4581   4.064   6.837   1.263
 1546TIP3    H2 4582   4.177   6.850   1.363
 1547TIP3   OH2 4583   6.356   3.770   2.792
 1547TIP3    H1 4584   6.360   3.682   2.756
 1547TIP3    H2 4585   6.277   3.771   2.846
 1548TIP3   OH2 4586   1.232   5.385   2.054
 1548TIP3    H1 4587   1.159   5.323   2.062
 1548TIP3    H2 4588   1.298   5.352   2.115
 1549TIP3   OH2 4589   4.237   6.600   4.775
 1549TIP3    H1 4590   4.226   6.674   4.835
 1549TIP3    H2 4591   4.323   6.615   4.735
 1550TIP3   OH2 4592   4.541   3.157   6.499
 1550TIP3    H1 4593   4.479   3.086   6.482
 1550TIP3    H2 4594   4.577   3.179   6.413
 1551TIP3   OH2 4595   0.861   4.174   1.246
 1551TIP3    H1 4596   0.857   4.179   1.150
 1551TIP3    H2 4597   0.920   4.245   1.271
 1552TIP3   OH2 4598   1.726   1.988   6.211
 1552TIP3    H1 4599   1.809   2.014   6.250
 1552TIP3    H2 4600   1.684   2.070   6.188
 1553TIP3   OH2 4601   4.483   4.622   0.378
 1553TIP3    H1 4602   4.487   4.528   0.359
 1553TIP3    H2 4603   4.469   4.663   0.293
 1554TIP3   OH2 4604   7.627   6.466   2.584
 1554TIP3    H1 4605   7.566   6.462   2.510
 1554TIP3    H2 4606   7.570   6.468   2.661
 1555TIP3   OH2 4607   2.898   7.462   5.157
 1555TIP3    H1 4608   2.814   7.441   5.116
 1555TIP3    H2 4609   2.882   7.545   5.203
 1556TIP3   OH2 4610   7.263   4.405   2.028
 1556TIP3    H1 4611   7.302   4.449   2.103
 1556TIP3    H2 4612   7.170   4.398   2.050
 1557TIP3   OH2 4613   2.855   3.243   0.378
 1557TIP3    H1 4614   2.855   3.267   0.285
 1557TIP3    H2 4615   2.891   3.319   0.423
 1558TIP3   OH2 4616   6.131   5.157   4.287
 1558TIP3    H1 4617   6.220   5.186   4.270
 1558TIP3    H2 4618   6.125   5.071   4.246
 1559TIP3   OH2 4619   2.020   4.698   0.819
 1559TIP3    H1 4620   1.975   4.654   0.747
 1559TIP3    H2 4621   2.056   4.627   0.872
 1560TIP3   OH2 4622   7.294   2.703   1.169
 1560TIP3    H1 4623   7.230   2.677   1.103
 1560TIP3    H2 4624   7.297   2.799   1.164
 1561TIP3   OH2 4625   7.360   5.641   2.649
 1561TIP3    H1 4626   7.382   5.664   2.739
 1561TIP3    H2 4627   7.272   5.675   2.635
 1562TIP3   OH2 4628   6.575   5.188   2.966
 1562TIP3    H1 4629   6.646   5.225   2.915
 1562TIP3    H2 4630   6.597   5.209   3.057
 1563TIP3   OH2 4631   8.181   6.362   6.679
 1563TIP3    H1 4632   8.169   6.419   6.603
 1563TIP3    H2 4633   8.244   6.296   6.651
 1564TIP3   OH2 4634   7.851   2.703   3.586
 1564TIP3    H1 4635   7.763   2.717   3.552
 1564TIP3    H2 4636   7.908   2.749   3.525
 1565TIP3   OH2 4637   7.209   0.682   1.226
 1565TIP3    H1 4638   7.181   0.606   1.277
 1565TIP3    H2 4639   7.300   0.664   1.204
 1566TIP3   OH2 4640   8.050   2.915   1.217
 1566TIP3    H1 4641   7.996   2.933   1.139
 1566TIP3    H2 4642   8.135   2.955   1.197
 1567TIP3   OH2 4643   2.607   7.139   4.860
 1567TIP3    H1 4644   2.680   7.185   4.819
 1567TIP3    H2 4645   2.642   7.053   4.882
 1568TIP3   OH2 4646   5.421   7.369   1.685
 1568TIP3    H1 4647   5.470   7.299   1.729
 1568TIP3    H2 4648   5.447   7.449   1.730
 1569TIP3   OH2 4649   1.514   4.696   6.478
 1569TIP3    H1 4650   1.510   4.735   6.565
 1569TIP3    H2 4651   1.483   4.765   6.419
 1570TIP3   OH2 4652   6.379   7.674   2.878
 1570TIP3    H1 4653   6.419   7.613   2.939
 1570TIP3    H2 4654   6.398   7.638   2.792
 1571TIP3   OH2 4655   3.246   3.896   4.878
 1571TIP3    H1 4656   3.307   3.917   4.808
 1571TIP3    H2 4657   3.160   3.903   4.838
 1572TIP3   OH2 4658   2.198   0.507   4.412
 1572TIP3    H1 4659   2.259   0.567   4.370
 1572TIP3    H2 4660   2.249   0.465   4.481
 1573TIP3   OH2 4661   4.536   6.486   1.094
 1573TIP3    H1 4662   4.578   6.455   1.174
 1573TIP3    H2 4663   4.446   6.506   1.119
 1574TIP3   OH2 4664   3.432   0.466   5.200
 1574TIP3    H1 4665   3.390   0.387   5.233
 1574TIP3    H2 4666   3.501   0.485   5.263
 1575TIP3   OH2 4667   4.866   2.573   3.349
 1575TIP3    H1 4668   4.956   2.562   3.380
 1575TIP3    H2 4669   4.869   2.548   3.256
 1576TIP3   OH2 4670   6.484   1.328   3.009
 1576TIP3    H1 4671   6.553   1.373   2.959
 1576TIP3    H2 4672   6.491   1.364   3.097
 1577TIP3   OH2 4673   5.927   4.398   6.761
 1577TIP3    H1 4674   6.015   4.398   6.798
 1577TIP3    H2 4675   5.936   4.349   6.678
 1578TIP3   OH2 4676   4.173   4.920   3.240
 1578TIP3    H1 4677   4.151   4.994   3.183
 1578TIP3    H2 4678   4.093   4.904   3.289
 1579TIP3   OH2 4679   4.530   1.034   4.980
 1579TIP3    H1 4680   4.551   1.060   4.890
 1579TIP3    H2 4681   4.456   1.089   5.004
 1580TIP3   OH2 4682   3.053   6.444   0.989
 1580TIP3    H1 4683   3.003   6.524   0.973
 1580TIP3    H2 4684   2.989   6.382   1.023
 1581TIP3   OH2 4685   7.127   6.560   3.364
 1581TIP3    H1 4686   7.173   6.504   3.427
 1581TIP3    H2 4687   7.184   6.563   3.287
 1582TIP3   OH2 4688   3.467   0.823   4.815
 1582TIP3    H1 4689   3.500   0.832   4.726
 1582TIP3    H2 4690   3.535   0.863   4.869
 1583TIP3   OH2 4691   4.046   6.310   2.956
 1583TIP3    H1 4692   3.971   6.311   2.896
 1583TIP3    H2 4693   4.122   6.322   2.899
 1584TIP3   OH2 4694   0.457   6.603   0.337
 1584TIP3    H1 4695   0.374   6.559   0.357
 1584TIP3    H2 4696   0.433   6.677   0.282
 1585TIP3   OH2 4697   0.642   6.936   3.488
 1585TIP3    H1 4698   0.559   6.921   3.444
 1585TIP3    H2 4699   0.621   6.991   3.564
 1586TIP3   OH2 4700   5.704   5.034   4.749
 1586TIP3    H1 4701   5.697   4.956   4.804
 1586TIP3    H2 4702   5.736   5.001   4.665
 1587TIP3   OH2 4703   1.526   5.374   0.474
 1587TIP3    H1 4704   1.564   5.461   0.493
 1587TIP3    H2 4705   1.545   5.323   0.553
 1588TIP3   OH2 4706   0.992   2.163   4.504
 1588TIP3    H1 4707   1.041   2.083   4.523
 1588TIP3    H2 4708   0.910   2.132   4.464
 1589TIP3   OH2 4709   4.083   4.976   0.602
 1589TIP3    H1 4710   4.051   5.031   0.530
 1589TIP3    H2 4711   4.006   4.964   0.658
 1590TIP3   OH2 4712   5.472   7.567   4.089
 1590TIP3    H1 4713   5.412   7.506   4.046
 1590TIP3    H2 4714   5.533   7.511   4.137
 1591TIP3   OH2 4715   6.936   6.324   1.589
 1591TIP3    H1 4716   6.992   6.270   1.644
 1591TIP3    H2 4717   6.877   6.262   1.546
 1592TIP3   OH2 4718   1.839   1.199   1.932
 1592TIP3    H1 4719   1.791   1.240   1.860
 1592TIP3    H2 4720   1.890   1.130   1.890
 1593TIP3   OH2 4721   3.777   1.593   3.871
 1593TIP3    H1 4722   3.732   1.606   3.955
 1593TIP3    H2 4723   3.752   1.670   3.819
 1594TIP3   OH2 4724   5.736   0.620   1.648
 1594TIP3    H1 4725   5.766   0.547   1.702
 1594TIP3    H2 4726   5.682   0.580   1.580
 1595TIP3   OH2 4727   1.944   1.241   1.590
 1595TIP3    H1 4728   1.938   1.308   1.521
 1595TIP3    H2 4729   2.035   1.243   1.617
 1596TIP3   OH2 4730   6.497   0.868   2.812
 1596TIP3    H1 4731   6.492   0.903   2.901
 1596TIP3    H2 4732   6.517   0.944   2.758
 1597TIP3   OH2 4733   4.635   7.686   1.555
 1597TIP3    H1 4734   4.612   7.595   1.574
 1597TIP3    H2 4735   4.551   7.728   1.535
 1598TIP3   OH2 4736   0.320   1.884   6.499
 1598TIP3    H1 4737   0.225   1.873   6.501
 1598TIP3    H2 4738   0.344   1.904   6.589
 1599TIP3   OH2 4739   0.460   0.507   2.454
 1599TIP3    H1 4740   0.384   0.523   2.510
 1599TIP3    H2 4741   0.423   0.473   2.373
 1600TIP3   OH2 4742   3.684   2.956   5.892
 1600TIP3    H1 4743   3.627   2.921   5.961
 1600TIP3    H2 4744   3.750   3.008   5.939
 1601TIP3   OH2 4745   2.422   0.401   2.481
 1601TIP3    H1 4746   2.354   0.337   2.501
 1601TIP3    H2 4747   2.377   0.486   2.488
 1602TIP3   OH2 4748   3.265   3.987   0.061
 1602TIP3    H1 4749   3.285   3.985   0.154
 1602TIP3    H2 4750   3.307   3.909   0.026
 1603TIP3   OH2 4751   1.010   7.681   0.340
 1603TIP3    H1 4752   0.999   7.761   0.391
 1603TIP3    H2 4753   1.105   7.670   0.334
 1604TIP3   OH2 4754   7.372   1.396   5.153
 1604TIP3    H1 4755   7.434   1.328   5.179
 1604TIP3    H2 4756   7.378   1.399   5.057
 1605TIP3   OH2 4757   3.600   3.381   3.408
 1605TIP3    H1 4758   3.572   3.344   3.324
 1605TIP3    H2 4759   3.537   3.451   3.425
 1606TIP3   OH2 4760   5.083   7.520   0.225
 1606TIP3    H1 4761   5.145   7.566   0.281
 1606TIP3    H2 4762   5.048   7.450   0.281
 1607TIP3   OH2 4763   1.319   0.846   6.523
 1607TIP3    H1 4764   1.258   0.829   6.451
 1607TIP3    H2 4765   1.363   0.927   6.498
 1608TIP3   OH2 4766   5.943   7.359   6.039
 1608TIP3    H1 4767   6.028   7.316   6.029
 1608TIP3    H2 4768   5.883   7.289   6.063
 1609TIP3   OH2 4769   6.609   7.318   4.348
 1609TIP3    H1 4770   6.573   7.405   4.367
 1609TIP3    H2 4771   6.611   7.274   4.434
 1610TIP3   OH2 4772   7.911   4.875   2.317
 1610TIP3    H1 4773   7.949   4.885   2.404
 1610TIP3    H2 4774   7.823   4.913   2.324
 1611TIP3   OH2 4775   6.782   4.621   5.448
 1611TIP3    H1 4776   6.719   4.659   5.386
 1611TIP3    H2 4777   6.806   4.537   5.410
 1612TIP3   OH2 4778   1.026   1.946   2.056
 1612TIP3    H1 4779   1.120   1.939   2.075
 1612TIP3    H2 4780   1.012   1.889   1.980
 1613TIP3   OH2 4781   1.111   3.719   4.279
 1613TIP3    H1 4782   1.084   3.785   4.343
 1613TIP3    H2 4783   1.139   3.770   4.203
 1614TIP3   OH2 4784   3.561   7.796   3.457
 1614TIP3    H1 4785   3.500   7.846   3.403
 1614TIP3    H2 4786   3.512   7.775   3.536
 1615TIP3   OH2 4787   5.611   1.187   1.577
 1615TIP3    H1 4788   5.656   1.234   1.506
 1615TIP3    H2 4789   5.584   1.104   1.537
 1616TIP3   OH2 4790   6.868   6.471   4.739
 1616TIP3    H1 4791   6.913   6.477   4.824
 1616TIP3    H2 4792   6.821   6.553   4.732
 1617TIP3   OH2 4793   1.313   3.006   0.721
 1617TIP3    H1 4794   1.252   2.933   0.720
 1617TIP3    H2 4795   1.296   3.050   0.805
 1618TIP3   OH2 4796   5.923   0.180   1.432
 1618TIP3    H1 4797   5.996   0.121   1.413
 1618TIP3    H2 4798   5.909   0.171   1.526
 1619TIP3   OH2 4799   1.785   1.867   1.447
 1619TIP3    H1 4800   1.701   1.822   1.450
 1619TIP3    H2 4801   1.767   1.954   1.482
 1620TIP3   OH2 4802   0.928   0.353   2.722
 1620TIP3    H1 4803   0.935   0.384   2.632
 1620TIP3    H2 4804   0.993   0.284   2.729
 1621TIP3   OH2 4805   5.227   1.906   1.686
 1621TIP3    H1 4806   5.217   1.907   1.591
 1621TIP3    H2 4807   5.288   1.834   1.702
 1622TIP3   OH2 4808   6.611   7.686   0.687
 1622TIP3    H1 4809   6.625   7.740   0.765
 1622TIP3    H2 4810   6.517   7.671   0.685
 1623TIP3   OH2 4811   0.102   3.144   3.205
 1623TIP3    H1 4812   0.085   3.199   3.281
 1623TIP3    H2 4813   0.122   3.205   3.135
 1624TIP3   OH2 4814   6.036   4.647   0.115
 1624TIP3    H1 4815   6.070   4.655   0.026
 1624TIP3    H2 4816   6.106   4.603   0.163
 1625TIP3   OH2 4817   1.653   4.750   1.923
 1625TIP3    H1 4818   1.626   4.677   1.867
 1625TIP3    H2 4819   1.654   4.826   1.864
 1626TIP3   OH2 4820   7.471   1.995   5.563
 1626TIP3    H1 4821   7.393   2.051   5.572
 1626TIP3    H2 4822   7.436   1.907   5.555
 1627TIP3   OH2 4823   5.817   7.114   3.406
 1627TIP3    H1 4824   5.751   7.132   3.473
 1627TIP3    H2 4825   5.897   7.095   3.456
 1628TIP3   OH2 4826   1.931   5.949   0.874
 1628TIP3    H1 4827   1.888   5.878   0.825
 1628TIP3    H2 4828   1.862   5.984   0.930
 1629TIP3   OH2 4829   7.409   2.900   4.634
 1629TIP3    H1 4830   7.394   2.817   4.588
 1629TIP3    H2 4831   7.482   2.881   4.693
 1630TIP3   OH2 4832   1.000   6.187   0.774
 1630TIP3    H1 4833   1.056   6.258   0.805
 1630TIP3    H2 4834   1.039   6.160   0.691
 1631TIP3   OH2 4835   7.648   1.025   3.876
 1631TIP3    H1 4836   7.578   0.965   3.849
 1631TIP3    H2 4837   7.617   1.111   3.847
 1632TIP3   OH2 4838   4.786   2.724   4.706
 1632TIP3    H1 4839   4.787   2.819   4.690
 1632TIP3    H2 4840   4.829   2.713   4.791
 1633TIP3   OH2 4841   7.526   3.538   2.399
 1633TIP3    H1 4842   7.542   3.630   2.378
 1633TIP3    H2 4843   7.470   3.540   2.476
 1634TIP3   OH2 4844   7.311   4.744   5.538
 1634TIP3    H1 4845   7.385   4.803   5.528
 1634TIP3    H2 4846   7.343   4.659   5.506
 1635TIP3   OH2 4847   7.659   0.422   1.231
 1635TIP3    H1 4848   7.697   0.416   1.318
 1635TIP3    H2 4849   7.564   0.422   1.246
 1636TIP3   OH2 4850   5.994   4.169   2.705
 1636TIP3    H1 4851   5.913   4.150   2.751
 1636TIP3    H2 4852   6.033   4.084   2.688
 1637TIP3   OH2 4853   7.296   5.412   2.194
 1637TIP3    H1 4854   7.245   5.492   2.204
 1637TIP3    H2 4855   7.238   5.351   2.150
 1638TIP3   OH2 4856   6.836   0.786   4.956
 1638TIP3    H1 4857   6.872   0.769   4.869
 1638TIP3    H2 4858   6.851   0.705   5.005
 1639TIP3   OH2 4859   6.858   1.343   1.316
 1639TIP3    H1 4860   6.879   1.252   1.340
 1639TIP3    H2 4861   6.931   1.370   1.259
 1640TIP3   OH2 4862   2.062   3.679   2.412
 1640TIP3    H1 4863   2.061   3.775   2.408
 1640TIP3    H2 4864   1.975   3.655   2.446
 1641TIP3   OH2 4865   5.132   2.873   6.672
 1641TIP3    H1 4866   5.062   2.814   6.702
 1641TIP3    H2 4867   5.213   2.828   6.698
 1642TIP3   OH2 4868   7.272   6.414   1.886
 1642TIP3    H1 4869   7.341   6.369   1.837
 1642TIP3    H2 4870   7.237   6.478   1.824
 1643TIP3   OH2 4871   0.707   2.462   6.681
 1643TIP3    H1 4872   0.729   2.507   6.763
 1643TIP3    H2 4873   0.612   2.469   6.674
 1644TIP3   OH2 4874   0.535   1.069   1.025
 1644TIP3    H1 4875   0.551   1.152   1.069
 1644TIP3    H2 4876   0.601   1.066   0.955
 1645TIP3   OH2 4877   1.599   0.429   0.216
 1645TIP3    H1 4878   1.547   0.428   0.136
 1645TIP3    H2 4879   1.637   0.517   0.219
 1646TIP3   OH2 4880   7.673   3.228   2.557
 1646TIP3    H1 4881   7.681   3.306   2.612
 1646TIP3    H2 4882   7.763   3.204   2.535
 1647TIP3   OH2 4883   5.860   1.617   2.923
 1647TIP3    H1 4884   5.787   1.628   2.863
 1647TIP3    H2 4885   5.821   1.622   3.010
 1648TIP3   OH2 4886   1.073   4.230   1.472
 1648TIP3    H1 4887   1.025   4.291   1.417
 1648TIP3    H2 4888   1.165   4.240   1.445
 1649TIP3   OH2 4889   5.454   1.299   1.218
 1649TIP3    H1 4890   5.420   1.249   1.144
 1649TIP3    H2 4891   5.545   1.317   1.195
 1650TIP3   OH2 4892   1.847   7.688   3.085
 1650TIP3    H1 4893   1.782   7.737   3.136
 1650TIP3    H2 4894   1.931   7.717   3.120
 1651TIP3   OH2 4895   1.669   2.026   5.848
 1651TIP3    H1 4896   1.715   1.994   5.770
 1651TIP3    H2 4897   1.627   1.948   5.884
 1652TIP3   OH2 4898   8.124   7.405   6.447
 1652TIP3    H1 4899   8.076   7.438   6.523
 1652TIP3    H2 4900   8.076   7.439   6.372
 1653TIP3   OH2 4901   1.275   4.306   5.229
 1653TIP3    H1 4902   1.207   4.311   5.296
 1653TIP3    H2 4903   1.291   4.397   5.205
 1654TIP3   OH2 4904   1.112   2.294   5.571
 1654TIP3    H1 4905   1.168   2.266   5.644
 1654TIP3    H2 4906   1.071   2.213   5.540
 1655TIP3   OH2 4907   4.053   3.775   1.981
 1655TIP3    H1 4908   4.093   3.804   1.899
 1655TIP3    H2 4909   3.981   3.835   1.995
 1656TIP3   OH2 4910   2.874   1.281   3.888
 1656TIP3    H1 4911   2.883   1.376   3.883
 1656TIP3    H2 4912   2.963   1.248   3.896
 1657TIP3   OH2 4913   7.196   3.737   0.924
 1657TIP3    H1 4914   7.243   3.752   1.006
 1657TIP3    H2 4915   7.265   3.727   0.859
 1658TIP3   OH2 4916   7.414   6.275   0.736
 1658TIP3    H1 4917   7.392   6.255   0.827
 1658TIP3    H2 4918   7.330   6.284   0.692
 1659TIP3   OH2 4919   8.087   6.504   0.348
 1659TIP3    H1 4920   8.148   6.430   0.344
 1659TIP3    H2 4921   8.001   6.465   0.337
 1660TIP3   OH2 4922   0.669   6.936   4.674
 1660TIP3    H1 4923   0.747   6.985   4.700
 1660TIP3    H2 4924   0.596   6.996   4.691
 1661TIP3   OH2 4925   7.402   4.131   2.280
 1661TIP3    H1 4926   7.355   4.185   2.216
 1661TIP3    H2 4927   7.490   4.120   2.243
 1662TIP3   OH2 4928   0.440   7.808   1.499
 1662TIP3    H1 4929   0.424   7.856   1.580
 1662TIP3    H2 4930   0.514   7.750   1.519
 1663TIP3   OH2 4931   3.877   0.912   1.675
 1663TIP3    H1 4932   3.877   0.847   1.604
 1663TIP3    H2 4933   3.834   0.867   1.748
 1664TIP3   OH2 4934   4.643   0.183   1.760
 1664TIP3    H1 4935   4.650   0.163   1.853
 1664TIP3    H2 4936   4.719   0.141   1.720
 1665TIP3   OH2 4937   4.421   5.682   6.545
 1665TIP3    H1 4938   4.428   5.768   6.502
 1665TIP3    H2 4939   4.434   5.619   6.474
 1666TIP3   OH2 4940   3.443   3.278   3.966
 1666TIP3    H1 4941   3.438   3.183   3.953
 1666TIP3    H2 4942   3.417   3.316   3.882
 1667TIP3   OH2 4943   1.116   4.401   1.017
 1667TIP3    H1 4944   1.065   4.396   1.098
 1667TIP3    H2 4945   1.051   4.391   0.947
 1668TIP3   OH2 4946   2.796   1.780   3.022
 1668TIP3    H1 4947   2.715   1.765   2.974
 1668TIP3    H2 4948   2.840   1.695   3.023
 1669TIP3   OH2 4949   8.213   2.903   4.239
 1669TIP3    H1 4950   8.286   2.842   4.230
 1669TIP3    H2 4951   8.215   2.955   4.158
 1670TIP3   OH2 4952   0.943   1.132   3.902
 1670TIP3    H1 4953   0.942   1.199   3.834
 1670TIP3    H2 4954   1.034   1.129   3.932
 1671TIP3   OH2 4955   2.223   3.591   2.749
 1671TIP3    H1 4956   2.259   3.642   2.676
 1671TIP3    H2 4957   2.156   3.648   2.786
 1672TIP3   OH2 4958   0.553   1.124   2.580
 1672TIP3    H1 4959   0.586   1.044   2.538
 1672TIP3    H2 4960   0.516   1.175   2.508
 1673TIP3   OH2 4961   6.989   6.064   0.873
 1673TIP3    H1 4962   7.032   6.131   0.927
 1673TIP3    H2 4963   7.057   5.998   0.858
 1674TIP3   OH2 4964   7.818   5.052   6.754
 1674TIP3    H1 4965   7.776   5.137   6.765
 1674TIP3    H2 4966   7.848   5.051   6.663
 1675TIP3   OH2 4967   4.078   6.457   1.836
 1675TIP3    H1 4968   4.034   6.430   1.917
 1675TIP3    H2 4969   4.006   6.482   1.778
 1676TIP3   OH2 4970   4.577   5.309   1.887
 1676TIP3    H1 4971   4.593   5.285   1.979
 1676TIP3    H2 4972   4.484   5.333   1.885
 1677TIP3   OH2 4973   8.025   6.228   0.336
 1677TIP3    H1 4974   8.059   6.170   0.404
 1677TIP3    H2 4975   7.949   6.182   0.300
 1678TIP3   OH2 4976   3.316   0.424   3.283
 1678TIP3    H1 4977   3.290   0.337   3.315
 1678TIP3    H2 4978   3.410   0.428   3.298
 1679TIP3   OH2 4979   2.529   6.253   6.336
 1679TIP3    H1 4980   2.583   6.312   6.284
 1679TIP3    H2 4981   2.586   6.225   6.408
 1680TIP3   OH2 4982   6.914   0.185   3.973
 1680TIP3    H1 4983   6.995   0.201   4.022
 1680TIP3    H2 4984   6.862   0.128   4.030
 1681TIP3   OH2 4985   0.642   4.187   6.475
 1681TIP3    H1 4986   0.578   4.115   6.474
 1681TIP3    H2 4987   0.630   4.230   6.390
 1682TIP3   OH2 4988   0.594   6.386   0.249
 1682TIP3    H1 4989   0.685   6.416   0.249
 1682TIP3    H2 4990   0.543   6.462   0.276
 1683TIP3   OH2 4991   0.648   0.181   0.168
 1683TIP3    H1 4992   0.704   0.110   0.136
 1683TIP3    H2 4993   0.619   0.226   0.089
 1684TIP3   OH2 4994   2.474   7.638   6.037
 1684TIP3    H1 4995   2.416   7.715   6.036
 1684TIP3    H2 4996   2.415   7.563   6.045
 1685TIP3   OH2 4997   0.626   7.029   0.620
 1685TIP3    H1 4998   0.633   6.992   0.708
 1685TIP3    H2 4999   0.697   7.094   0.616
 1686TIP3   OH2 5000   6.906   5.666   1.487
 1686TIP3    H1 5001   6.889   5.574   1.467
 1686TIP3    H2 5002   6.869   5.679   1.574
 1687TIP3   OH2 5003   1.717   2.355   5.442
 1687TIP3    H1 5004   1.644   2.362   5.503
 1687TIP3    H2 5005   1.682   2.384   5.358
 1688TIP3   OH2 5006   6.147   0.702   6.408
 1688TIP3    H1 5007   6.120   0.777   6.462
 1688TIP3    H2 5008   6.101   0.627   6.447
 1689TIP3   OH2 5009   3.556   5.290   1.734
 1689TIP3    H1 5010   3.589   5.251   1.653
 1689TIP3    H2 5011   3.516   5.217   1.780
 1690TIP3   OH2 5012   8.117   0.116   6.020
 1690TIP3    H1 5013   8.102   0.042   6.079
 1690TIP3    H2 5014   8.159   0.182   6.075
 1691TIP3   OH2 5015   6.483   1.744   6.197
 1691TIP3    H1 5016   6.391   1.767   6.182
 1691TIP3    H2 5017   6.521   1.821   6.240
 1692TIP3   OH2 5018   8.200   2.093   0.730
 1692TIP3    H1 5019   8.145   2.134   0.797
 1692TIP3    H2 5020   8.222   2.163   0.670
 1693TIP3   OH2 5021   4.056   1.275   4.731
 1693TIP3    H1 5022   4.144   1.313   4.724
 1693TIP3    H2 5023   4.009   1.335   4.789
 1694TIP3   OH2 5024   7.644   6.451   4.644
 1694TIP3    H1 5025   7.651   6.370   4.593
 1694TIP3    H2 5026   7.694   6.516   4.593
 1695TIP3   OH2 5027   7.206   7.631   6.662
 1695TIP3    H1 5028   7.194   7.641   6.756
 1695TIP3    H2 5029   7.118   7.638   6.626
 1696TIP3   OH2 5030   0.677   2.222   1.108
 1696TIP3    H1 5031   0.751   2.162   1.108
 1696TIP3    H2 5032   0.715   2.308   1.090
 1697TIP3   OH2 5033   6.174   1.252   0.733
 1697TIP3    H1 5034   6.240   1.187   0.708
 1697TIP3    H2 5035   6.147   1.225   0.821
 1698TIP3   OH2 5036   0.937   5.225   1.329
 1698TIP3    H1 5037   0.995   5.156   1.361
 1698TIP3    H2 5038   0.963   5.303   1.378
 1699TIP3   OH2 5039   7.863   0.305   2.761
 1699TIP3    H1 5040   7.900   0.392   2.747
 1699TIP3    H2 5041   7.885   0.256   2.682
 1700TIP3   OH2 5042   3.325   2.945   6.507
 1700TIP3    H1 5043   3.233   2.931   6.485
 1700TIP3    H2 5044   3.328   2.935   6.603
 1701TIP3   OH2 5045   6.480   7.092   3.035
 1701TIP3    H1 5046   6.444   7.121   2.951
 1701TIP3    H2 5047   6.404   7.059   3.083
 1702TIP3   OH2 5048   7.217   2.756   3.405
 1702TIP3    H1 5049   7.247   2.670   3.376
 1702TIP3    H2 5050   7.269   2.818   3.355
 1703TIP3   OH2 5051   6.478   3.200   5.993
 1703TIP3    H1 5052   6.427   3.153   6.059
 1703TIP3    H2 5053   6.517   3.273   6.041
 1704TIP3   OH2 5054   7.944   1.436   2.848
 1704TIP3    H1 5055   7.936   1.376   2.922
 1704TIP3    H2 5056   7.969   1.519   2.887
 1705TIP3   OH2 5057   0.895   5.945   2.048
 1705TIP3    H1 5058   0.953   6.011   2.089
 1705TIP3    H2 5059   0.807   5.978   2.064
 1706TIP3   OH2 5060   6.680   1.890   0.825
 1706TIP3    H1 5061   6.606   1.849   0.869
 1706TIP3    H2 5062   6.660   1.983   0.826
 1707TIP3   OH2 5063   1.722   7.466   0.928
 1707TIP3    H1 5064   1.737   7.544   0.875
 1707TIP3    H2 5065   1.772   7.397   0.885
 1708TIP3   OH2 5066   7.934   1.938   5.627
 1708TIP3    H1 5067   7.898   2.021   5.658
 1708TIP3    H2 5068   7.939   1.884   5.705
 1709TIP3   OH2 5069   7.966   1.039   3.700
 1709TIP3    H1 5070   7.889   1.064   3.649
 1709TIP3    H2 5071   7.937   0.964   3.752
 1710TIP3   OH2 5072   5.867   6.866   0.213
 1710TIP3    H1 5073   5.819   6.783   0.220
 1710TIP3    H2 5074   5.821   6.925   0.272
 1711TIP3   OH2 5075   0.522   0.951   0.732
 1711TIP3    H1 5076   0.488   1.039   0.716
 1711TIP3    H2 5077   0.482   0.897   0.664
 1712TIP3   OH2 5078   2.028   2.898   2.963
 1712TIP3    H1 5079   2.083   2.975   2.949
 1712TIP3    H2 5080   2.091   2.827   2.978
 1713TIP3   OH2 5081   4.724   2.203   2.088
 1713TIP3    H1 5082   4.811   2.241   2.077
 1713TIP3    H2 5083   4.689   2.245   2.167
 1714TIP3   OH2 5084   3.030   4.761   5.442
 1714TIP3    H1 5085   2.986   4.742   5.525
 1714TIP3    H2 5086   3.095   4.828   5.464
 1715TIP3   OH2 5087   5.247   3.509   2.071
 1715TIP3    H1 5088   5.300   3.506   2.151
 1715TIP3    H2 5089   5.172   3.565   2.094
 1716TIP3   OH2 5090   7.214   0.103   1.264
 1716TIP3    H1 5091   7.213   0.139   1.353
 1716TIP3    H2 5092   7.147   0.153   1.217
 1717TIP3   OH2 5093   1.008   0.540   3.337
 1717TIP3    H1 5094   1.039   0.489   3.263
 1717TIP3    H2 5095   1.063   0.618   3.337
 1718TIP3   OH2 5096   7.218   0.122   2.951
 1718TIP3    H1 5097   7.173   0.049   2.908
 1718TIP3    H2 5098   7.204   0.107   3.045
 1719TIP3   OH2 5099   2.630   0.541   1.367
 1719TIP3    H1 5100   2.592   0.619   1.406
 1719TIP3    H2 5101   2.603   0.469   1.424
 1720TIP3   OH2 5102   2.352   5.320   6.128
 1720TIP3    H1 5103   2.307   5.284   6.205
 1720TIP3    H2 5104   2.286   5.372   6.083
 1721TIP3   OH2 5105   4.112   0.955   3.393
 1721TIP3    H1 5106   4.116   0.921   3.483
 1721TIP3    H2 5107   4.183   0.910   3.347
 1722TIP3   OH2 5108   0.366   5.437   3.369
 1722TIP3    H1 5109   0.343   5.344   3.359
 1722TIP3    H2 5110   0.356   5.474   3.281
 1723TIP3   OH2 5111   8.192   3.720   6.768
 1723TIP3    H1 5112   8.156   3.676   6.690
 1723TIP3    H2 5113   8.274   3.675   6.785
 1724TIP3   OH2 5114   7.594   5.168   4.153
 1724TIP3    H1 5115   7.547   5.188   4.235
 1724TIP3    H2 5116   7.610   5.254   4.114
 1725TIP3   OH2 5117   3.844   0.161   4.207
 1725TIP3    H1 5118   3.895   0.226   4.256
 1725TIP3    H2 5119   3.897   0.140   4.131
 1726TIP3   OH2 5120   5.978   0.204   4.677
 1726TIP3    H1 5121   6.065   0.242   4.671
 1726TIP3    H2 5122   5.926   0.251   4.612
 1727TIP3   OH2 5123   7.321   2.249   2.638
 1727TIP3    H1 5124   7.271   2.319   2.681
 1727TIP3    H2 5125   7.401   2.293   2.608
 1728TIP3   OH2 5126   6.495   2.375   2.336
 1728TIP3    H1 5127   6.421   2.377   2.397
 1728TIP3    H2 5128   6.505   2.465   2.306
 1729TIP3   OH2 5129   1.152   4.330   3.080
 1729TIP3    H1 5130   1.181   4.249   3.036
 1729TIP3    H2 5131   1.112   4.300   3.161
 1730TIP3   OH2 5132   7.369   7.447   2.471
 1730TIP3    H1 5133   7.400   7.498   2.547
 1730TIP3    H2 5134   7.342   7.364   2.508
 1731TIP3   OH2 5135   0.782   5.182   3.117
 1731TIP3    H1 5136   0.878   5.186   3.118
 1731TIP3    H2 5137   0.761   5.100   3.161
 1732TIP3   OH2 5138   6.137   7.129   0.817
 1732TIP3    H1 5139   6.163   7.178   0.739
 1732TIP3    H2 5140   6.052   7.165   0.840
 1733TIP3   OH2 5141   3.685   1.060   4.719
 1733TIP3    H1 5142   3.677   1.030   4.810
 1733TIP3    H2 5143   3.733   0.990   4.675
 1734TIP3   OH2 5144   0.562   2.940   5.183
 1734TIP3    H1 5145   0.651   2.944   5.148
 1734TIP3    H2 5146   0.558   2.856   5.229
 1735TIP3   OH2 5147   6.849   3.173   1.739
 1735TIP3    H1 5148   6.800   3.216   1.809
 1735TIP3    H2 5149   6.914   3.120   1.784
 1736TIP3   OH2 5150   7.128   5.247   1.470
 1736TIP3    H1 5151   7.172   5.317   1.518
 1736TIP3    H2 5152   7.159   5.258   1.380
 1737TIP3   OH2 5153   3.601   3.717   1.461
 1737TIP3    H1 5154   3.564   3.796   1.501
 1737TIP3    H2 5155   3.554   3.707   1.379
 1738TIP3   OH2 5156   3.610   6.897   3.327
 1738TIP3    H1 5157   3.570   6.829   3.273
 1738TIP3    H2 5158   3.657   6.952   3.265
 1739TIP3   OH2 5159   4.406   1.256   5.443
 1739TIP3    H1 5160   4.409   1.200   5.521
 1739TIP3    H2 5161   4.335   1.317   5.460
 1740TIP3   OH2 5162   1.838   2.764   2.538
 1740TIP3    H1 5163   1.844   2.835   2.602
 1740TIP3    H2 5164   1.929   2.742   2.518
 1741TIP3   OH2 5165   3.756   6.785   3.523
 1741TIP3    H1 5166   3.703   6.836   3.462
 1741TIP3    H2 5167   3.794   6.851   3.582
 1742TIP3   OH2 5168   7.834   7.499   6.678
 1742TIP3    H1 5169   7.887   7.564   6.632
 1742TIP3    H2 5170   7.876   7.491   6.764
 1743TIP3   OH2 5171   3.514   4.105   2.900
 1743TIP3    H1 5172   3.466   4.080   2.979
 1743TIP3    H2 5173   3.597   4.057   2.907
 1744TIP3   OH2 5174   0.065   7.548   2.038
 1744TIP3    H1 5175  -0.015   7.585   2.000
 1744TIP3    H2 5176   0.080   7.598   2.118
 1745TIP3   OH2 5177   5.909   6.604   2.886
 1745TIP3    H1 5178   5.985   6.594   2.828
 1745TIP3    H2 5179   5.873   6.690   2.863
 1746TIP3   OH2 5180   6.339   6.738   4.666
 1746TIP3    H1 5181   6.356   6.777   4.580
 1746TIP3    H2 5182   6.359   6.808   4.728
 1747TIP3   OH2 5183   1.151   1.135   2.274
 1747TIP3    H1 5184   1.237   1.162   2.307
 1747TIP3    H2 5185   1.105   1.101   2.351
 1748TIP3   OH2 5186   6.332   0.175   4.301
 1748TIP3    H1 5187   6.399   0.159   4.368
 1748TIP3    H2 5188   6.249   0.167   4.347
 1749TIP3   OH2 5189   6.303   2.203   2.771
 1749TIP3    H1 5190   6.215   2.231   2.795
 1749TIP3    H2 5191   6.344   2.180   2.855
 1750TIP3   OH2 5192   2.643   3.438   6.732
 1750TIP3    H1 5193   2.703   3.508   6.705
 1750TIP3    H2 5194   2.672   3.414   6.820
 1751TIP3   OH2 5195   5.204   6.765   0.890
 1751TIP3    H1 5196   5.120   6.748   0.847
 1751TIP3    H2 5197   5.180   6.784   0.981
 1752TIP3   OH2 5198   5.282   2.203   4.014
 1752TIP3    H1 5199   5.233   2.281   4.036
 1752TIP3    H2 5200   5.255   2.182   3.925
 1753TIP3   OH2 5201   2.321   6.951   4.153
 1753TIP3    H1 5202   2.313   7.037   4.111
 1753TIP3    H2 5203   2.414   6.930   4.144
 1754TIP3   OH2 5204   4.840   1.522   4.164
 1754TIP3    H1 5205   4.920   1.487   4.204
 1754TIP3    H2 5206   4.857   1.520   4.070
 1755TIP3   OH2 5207   7.905   7.348   4.523
 1755TIP3    H1 5208   7.988   7.367   4.478
 1755TIP3    H2 5209   7.931   7.300   4.602
 1756TIP3   OH2 5210   7.812   5.879   0.212
 1756TIP3    H1 5211   7.833   5.922   0.295
 1756TIP3    H2 5212   7.724   5.910   0.191
 1757TIP3   OH2 5213   2.893   0.760   5.443
 1757TIP3    H1 5214   2.836   0.825   5.402
 1757TIP3    H2 5215   2.844   0.729   5.518
 1758TIP3   OH2 5216   1.822   7.576   3.972
 1758TIP3    H1 5217   1.859   7.488   3.963
 1758TIP3    H2 5218   1.732   7.567   3.939
 1759TIP3   OH2 5219   3.237   6.795   0.994
 1759TIP3    H1 5220   3.331   6.797   1.010
 1759TIP3    H2 5221   3.229   6.788   0.899
 1760TIP3   OH2 5222   7.433   7.195   2.007
 1760TIP3    H1 5223   7.345   7.181   1.973
 1760TIP3    H2 5224   7.488   7.135   1.956
 1761TIP3   OH2 5225   5.535   2.655   6.427
 1761TIP3    H1 5226   5.441   2.637   6.420
 1761TIP3    H2 5227   5.551   2.722   6.361
 1762TIP3   OH2 5228   1.682   5.375   4.461
 1762TIP3    H1 5229   1.670   5.344   4.550
 1762TIP3    H2 5230   1.687   5.295   4.408
 1763TIP3   OH2 5231   6.050   5.116   1.886
 1763TIP3    H1 5232   6.029   5.032   1.845
 1763TIP3    H2 5233   6.121   5.097   1.947
 1764TIP3   OH2 5234   5.472   5.825   1.582
 1764TIP3    H1 5235   5.551   5.870   1.610
 1764TIP3    H2 5236   5.457   5.856   1.493
 1765TIP3   OH2 5237   6.796   1.825   6.083
 1765TIP3    H1 5238   6.813   1.918   6.100
 1765TIP3    H2 5239   6.783   1.787   6.170
 1766TIP3   OH2 5240   4.635   6.372   3.979
 1766TIP3    H1 5241   4.715   6.369   3.926
 1766TIP3    H2 5242   4.636   6.459   4.019
 1767TIP3   OH2 5243   3.652   7.229   6.167
 1767TIP3    H1 5244   3.731   7.175   6.156
 1767TIP3    H2 5245   3.686   7.315   6.191
 1768TIP3   OH2 5246   3.053   0.134   4.685
 1768TIP3    H1 5247   3.042   0.200   4.616
 1768TIP3    H2 5248   2.986   0.156   4.750
 1769TIP3   OH2 5249   7.650   6.875   6.499
 1769TIP3    H1 5250   7.557   6.889   6.517
 1769TIP3    H2 5251   7.692   6.887   6.584
 1770TIP3   OH2 5252   2.322   3.600   0.370
 1770TIP3    H1 5253   2.284   3.643   0.447
 1770TIP3    H2 5254   2.283   3.512   0.370
 1771TIP3   OH2 5255   2.923   4.480   5.694
 1771TIP3    H1 5256   2.916   4.570   5.663
 1771TIP3    H2 5257   2.996   4.481   5.756
 1772TIP3   OH2 5258   4.013   5.282   0.540
 1772TIP3    H1 5259   3.921   5.261   0.520
 1772TIP3    H2 5260   4.009   5.367   0.584
 1773TIP3   OH2 5261   5.909   0.106   1.093
 1773TIP3    H1 5262   5.836   0.063   1.138
 1773TIP3    H2 5263   5.941   0.171   1.155
 1774TIP3   OH2 5264   5.943   2.593   6.360
 1774TIP3    H1 5265   5.933   2.558   6.272
 1774TIP3    H2 5266   6.031   2.566   6.387
 1775TIP3   OH2 5267   6.911   0.629   3.987
 1775TIP3    H1 5268   6.886   0.692   3.920
 1775TIP3    H2 5269   6.897   0.544   3.946
 1776TIP3   OH2 5270   7.857   3.701   1.326
 1776TIP3    H1 5271   7.874   3.609   1.304
 1776TIP3    H2 5272   7.874   3.706   1.420
 1777TIP3   OH2 5273   1.415   1.097   6.458
 1777TIP3    H1 5274   1.508   1.102   6.433
 1777TIP3    H2 5275   1.413   1.131   6.547
 1778TIP3   OH2 5276   5.670   5.013   1.161
 1778TIP3    H1 5277   5.604   4.977   1.221
 1778TIP3    H2 5278   5.623   5.079   1.110
 1779TIP3   OH2 5279   1.797   7.723   1.876
 1779TIP3    H1 5280   1.712   7.683   1.892
 1779TIP3    H2 5281   1.842   7.661   1.818
 1780TIP3   OH2 5282   1.098   6.178   3.683
 1780TIP3    H1 5283   1.051   6.221   3.612
 1780TIP3    H2 5284   1.164   6.125   3.640
 1781TIP3   OH2 5285   2.011   3.648   4.611
 1781TIP3    H1 5286   2.013   3.618   4.520
 1781TIP3    H2 5287   2.035   3.740   4.607
 1782TIP3   OH2 5288   3.440   2.283   0.075
 1782TIP3    H1 5289   3.395   2.314   0.154
 1782TIP3    H2 5290   3.434   2.355   0.013
 1783TIP3   OH2 5291   7.437   5.113   2.482
 1783TIP3    H1 5292   7.349   5.078   2.467
 1783TIP3    H2 5293   7.440   5.195   2.433
 1784TIP3   OH2 5294   1.160   2.454   3.931
 1784TIP3    H1 5295   1.135   2.449   3.838
 1784TIP3    H2 5296   1.134   2.542   3.958
 1785TIP3   OH2 5297   5.053   2.460   3.631
 1785TIP3    H1 5298   5.028   2.383   3.579
 1785TIP3    H2 5299   5.054   2.428   3.721
 1786TIP3   OH2 5300   4.810   0.864   1.457
 1786TIP3    H1 5301   4.753   0.788   1.442
 1786TIP3    H2 5302   4.751   0.935   1.480
 1787TIP3   OH2 5303   2.671   7.064   1.119
 1787TIP3    H1 5304   2.759   7.028   1.130
 1787TIP3    H2 5305   2.657   7.118   1.197
 1788TIP3   OH2 5306   1.867   3.984   2.702
 1788TIP3    H1 5307   1.793   3.931   2.673
 1788TIP3    H2 5308   1.832   4.073   2.708
 1789TIP3   OH2 5309   2.703   0.884   0.097
 1789TIP3    H1 5310   2.777   0.903   0.041
 1789TIP3    H2 5311   2.679   0.969   0.135
 1790TIP3   OH2 5312   3.016   4.284   3.052
 1790TIP3    H1 5313   3.073   4.217   3.016
 1790TIP3    H2 5314   2.964   4.315   2.977
 1791TIP3   OH2 5315   7.367   3.561   5.243
 1791TIP3    H1 5316   7.414   3.572   5.325
 1791TIP3    H2 5317   7.311   3.639   5.236
 1792TIP3   OH2 5318   6.477   0.327   3.180
 1792TIP3    H1 5319   6.545   0.326   3.112
 1792TIP3    H2 5320   6.450   0.419   3.186
 1793TIP3   OH2 5321   8.195   3.426   2.187
 1793TIP3    H1 5322   8.282   3.400   2.215
 1793TIP3    H2 5323   8.140   3.413   2.264
 1794TIP3   OH2 5324   2.772   1.910   5.010
 1794TIP3    H1 5325   2.792   1.872   4.925
 1794TIP3    H2 5326   2.787   1.838   5.072
 1795TIP3   OH2 5327   5.354   2.755   3.047
 1795TIP3    H1 5328   5.377   2.823   2.984
 1795TIP3    H2 5329   5.341   2.676   2.994
 1796TIP3   OH2 5330   1.474   2.863   4.086
 1796TIP3    H1 5331   1.460   2.807   4.009
 1796TIP3    H2 5332   1.496   2.949   4.050
 1797TIP3   OH2 5333   5.177   7.346   0.877
 1797TIP3    H1 5334   5.235   7.416   0.845
 1797TIP3    H2 5335   5.228   7.266   0.865
 1798TIP3   OH2 5336   7.819   3.092   6.735
 1798TIP3    H1 5337   7.771   3.154   6.789
 1798TIP3    H2 5338   7.752   3.048   6.682
 1799TIP3   OH2 5339   0.052   7.227   4.609
 1799TIP3    H1 5340   0.055   7.301   4.549
 1799TIP3    H2 5341  -0.010   7.165   4.569
 1800TIP3   OH2 5342   5.974   3.115   6.158
 1800TIP3    H1 5343   5.922   3.067   6.222
 1800TIP3    H2 5344   6.046   3.056   6.136
 1801TIP3   OH2 5345   0.738   7.516   2.277
 1801TIP3    H1 5346   0.699   7.518   2.365
 1801TIP3    H2 5347   0.717   7.429   2.244
 1802TIP3   OH2 5348   2.288   2.800   2.013
 1802TIP3    H1 5349   2.207   2.851   2.022
 1802TIP3    H2 5350   2.294   2.750   2.095
 1803TIP3   OH2 5351   0.158   5.712   0.548
 1803TIP3    H1 5352   0.206   5.629   0.551
 1803TIP3    H2 5353   0.075   5.692   0.592
 1804TIP3   OH2 5354   5.940   6.253   3.916
 1804TIP3    H1 5355   6.015   6.279   3.970
 1804TIP3    H2 5356   5.933   6.321   3.849
 1805TIP3   OH2 5357   2.265   4.209   3.736
 1805TIP3    H1 5358   2.195   4.154   3.701
 1805TIP3    H2 5359   2.341   4.188   3.681
 1806TIP3   OH2 5360   7.610   5.132   0.495
 1806TIP3    H1 5361   7.593   5.226   0.492
 1806TIP3    H2 5362   7.533   5.095   0.538
 1807TIP3   OH2 5363   7.281   6.013   2.080
 1807TIP3    H1 5364   7.216   6.082   2.098
 1807TIP3    H2 5365   7.248   5.937   2.128
 1808TIP3   OH2 5366   1.927   1.642   3.616
 1808TIP3    H1 5367   1.966   1.718   3.658
 1808TIP3    H2 5368   1.991   1.615   3.551
 1809TIP3   OH2 5369   3.285   5.954   1.853
 1809TIP3    H1 5370   3.249   5.898   1.783
 1809TIP3    H2 5371   3.338   5.895   1.906
 1810TIP3   OH2 5372   0.230   5.689   1.479
 1810TIP3    H1 5373   0.284   5.743   1.421
 1810TIP3    H2 5374   0.140   5.711   1.455
 1811TIP3   OH2 5375   5.891   0.925   2.678
 1811TIP3    H1 5376   5.932   0.967   2.602
 1811TIP3    H2 5377   5.862   0.997   2.733
 1812TIP3   OH2 5378   2.975   1.591   3.567
 1812TIP3    H1 5379   2.928   1.674   3.558
 1812TIP3    H2 5380   2.982   1.558   3.477
 1813TIP3   OH2 5381   5.050   3.057   3.191
 1813TIP3    H1 5382   5.055   2.962   3.186
 1813TIP3    H2 5383   5.001   3.074   3.272
 1814TIP3   OH2 5384   4.307   3.529   4.991
 1814TIP3    H1 5385   4.259   3.503   5.070
 1814TIP3    H2 5386   4.249   3.591   4.947
 1815TIP3   OH2 5387   0.349   6.093   5.679
 1815TIP3    H1 5388   0.281   6.041   5.636
 1815TIP3    H2 5389   0.307   6.125   5.759
 1816TIP3   OH2 5390   4.136   7.622   0.441
 1816TIP3    H1 5391   4.160   7.624   0.348
 1816TIP3    H2 5392   4.189   7.553   0.479
 1817TIP3   OH2 5393   1.979   7.640   3.434
 1817TIP3    H1 5394   2.038   7.571   3.403
 1817TIP3    H2 5395   2.038   7.710   3.463
 1818TIP3   OH2 5396   5.744   0.514   4.523
 1818TIP3    H1 5397   5.756   0.577   4.452
 1818TIP3    H2 5398   5.778   0.432   4.487
 1819TIP3   OH2 5399   0.186   0.079   4.799
 1819TIP3    H1 5400   0.249   0.043   4.737
 1819TIP3    H2 5401   0.220   0.055   4.885
 1820TIP3   OH2 5402   8.010   1.540   3.261
 1820TIP3    H1 5403   7.981   1.571   3.347
 1820TIP3    H2 5404   8.019   1.619   3.208
 1821TIP3   OH2 5405   3.527   2.186   6.289
 1821TIP3    H1 5406   3.590   2.223   6.352
 1821TIP3    H2 5407   3.539   2.239   6.210
 1822TIP3   OH2 5408   3.977   7.044   4.300
 1822TIP3    H1 5409   3.917   7.027   4.373
 1822TIP3    H2 5410   3.933   7.111   4.248
 1823TIP3   OH2 5411   2.478   1.784   3.251
 1823TIP3    H1 5412   2.558   1.835   3.262
 1823TIP3    H2 5413   2.468   1.773   3.157
 1824TIP3   OH2 5414   5.012   4.417   4.625
 1824TIP3    H1 5415   5.085   4.467   4.663
 1824TIP3    H2 5416   5.037   4.405   4.533
 1825TIP3   OH2 5417   1.223   6.874   2.506
 1825TIP3    H1 5418   1.145   6.826   2.533
 1825TIP3    H2 5419   1.192   6.964   2.491
 1826TIP3   OH2 5420   2.365   6.040   2.120
 1826TIP3    H1 5421   2.336   6.050   2.029
 1826TIP3    H2 5422   2.303   6.092   2.170
 1827TIP3   OH2 5423   8.079   2.307   3.850
 1827TIP3    H1 5424   8.034   2.321   3.934
 1827TIP3    H2 5425   8.116   2.392   3.828
 1828TIP3   OH2 5426   1.950   2.639   1.393
 1828TIP3    H1 5427   2.034   2.676   1.368
 1828TIP3    H2 5428   1.892   2.658   1.319
 1829TIP3   OH2 5429   3.627   7.621   0.720
 1829TIP3    H1 5430   3.608   7.545   0.666
 1829TIP3    H2 5431   3.703   7.662   0.678
 1830TIP3   OH2 5432   1.526   5.095   4.157
 1830TIP3    H1 5433   1.598   5.069   4.214
 1830TIP3    H2 5434   1.537   5.189   4.147
 1831TIP3   OH2 5435   6.302   5.775   1.725
 1831TIP3    H1 5436   6.305   5.680   1.734
 1831TIP3    H2 5437   6.363   5.808   1.790
 1832TIP3   OH2 5438   0.343   2.402   0.792
 1832TIP3    H1 5439   0.332   2.334   0.859
 1832TIP3    H2 5440   0.254   2.428   0.769
 1833TIP3   OH2 5441   6.798   7.548   2.532
 1833TIP3    H1 5442   6.798   7.572   2.439
 1833TIP3    H2 5443   6.718   7.496   2.543
 1834TIP3   OH2 5444   1.846   6.090   4.887
 1834TIP3    H1 5445   1.909   6.131   4.947
 1834TIP3    H2 5446   1.860   5.996   4.901
 1835TIP3   OH2 5447   5.542   0.354   3.232
 1835TIP3    H1 5448   5.531   0.352   3.327
 1835TIP3    H2 5449   5.453   0.349   3.197
 1836TIP3   OH2 5450   7.738   5.262   0.777
 1836TIP3    H1 5451   7.806   5.243   0.842
 1836TIP3    H2 5452   7.657   5.261   0.828
 1837TIP3   OH2 5453   1.305   4.136   4.517
 1837TIP3    H1 5454   1.343   4.155   4.431
 1837TIP3    H2 5455   1.379   4.105   4.569
 1838TIP3   OH2 5456   5.444   7.162   5.229
 1838TIP3    H1 5457   5.385   7.170   5.304
 1838TIP3    H2 5458   5.525   7.126   5.265
 1839TIP3   OH2 5459   3.765   5.234   0.474
 1839TIP3    H1 5460   3.706   5.180   0.526
 1839TIP3    H2 5461   3.750   5.205   0.384
 1840TIP3   OH2 5462   6.309   3.717   4.198
 1840TIP3    H1 5463   6.374   3.717   4.128
 1840TIP3    H2 5464   6.258   3.637   4.184
 1841TIP3   OH2 5465   5.480   7.429   3.191
 1841TIP3    H1 5466   5.544   7.360   3.173
 1841TIP3    H2 5467   5.404   7.405   3.139
 1842TIP3   OH2 5468   2.953   3.389   4.251
 1842TIP3    H1 5469   2.909   3.464   4.290
 1842TIP3    H2 5470   3.010   3.426   4.183
 1843TIP3   OH2 5471   4.721   0.778   1.997
 1843TIP3    H1 5472   4.701   0.739   2.082
 1843TIP3    H2 5473   4.764   0.861   2.018
 1844TIP3   OH2 5474   6.696   3.310   6.223
 1844TIP3    H1 5475   6.711   3.392   6.269
 1844TIP3    H2 5476   6.687   3.245   6.292
 1845TIP3   OH2 5477   5.794   5.871   6.096
 1845TIP3    H1 5478   5.783   5.947   6.038
 1845TIP3    H2 5479   5.723   5.812   6.072
 1846TIP3   OH2 5480   4.812   4.438   5.084
 1846TIP3    H1 5481   4.780   4.459   5.171
 1846TIP3    H2 5482   4.740   4.389   5.043
 1847TIP3   OH2 5483   0.820   4.300   5.562
 1847TIP3    H1 5484   0.897   4.332   5.608
 1847TIP3    H2 5485   0.750   4.306   5.627
 1848TIP3   OH2 5486   8.033   5.006   5.928
 1848TIP3    H1 5487   7.938   5.016   5.939
 1848TIP3    H2 5488   8.065   5.095   5.912
 1849TIP3   OH2 5489   5.419   5.367   0.770
 1849TIP3    H1 5490   5.469   5.289   0.747
 1849TIP3    H2 5491   5.328   5.345   0.749
 1850TIP3   OH2 5492   3.314   1.135   4.816
 1850TIP3    H1 5493   3.366   1.110   4.892
 1850TIP3    H2 5494   3.229   1.161   4.852
 1851TIP3   OH2 5495   5.366   1.047   5.611
 1851TIP3    H1 5496   5.378   0.952   5.613
 1851TIP3    H2 5497   5.455   1.082   5.615
 1852TIP3   OH2 5498   7.533   0.334   0.112
 1852TIP3    H1 5499   7.515   0.395   0.183
 1852TIP3    H2 5500   7.628   0.321   0.113
 1853TIP3   OH2 5501   0.125   3.894   1.559
 1853TIP3    H1 5502   0.198   3.956   1.565
 1853TIP3    H2 5503   0.129   3.844   1.641
 1854TIP3   OH2 5504   4.829   5.982   1.922
 1854TIP3    H1 5505   4.856   6.004   2.011
 1854TIP3    H2 5506   4.898   5.923   1.890
 1855TIP3   OH2 5507   0.404   4.876   3.258
 1855TIP3    H1 5508   0.308   4.867   3.259
 1855TIP3    H2 5509   0.419   4.969   3.276
 1856TIP3   OH2 5510   4.490   4.473   2.758
 1856TIP3    H1 5511   4.428   4.501   2.691
 1856TIP3    H2 5512   4.451   4.504   2.840
 1857TIP3   OH2 5513   2.039   7.236   6.494
 1857TIP3    H1 5514   2.124   7.223   6.535
 1857TIP3    H2 5515   2.059   7.269   6.406
 1858TIP3   OH2 5516   8.180   4.408   1.110
 1858TIP3    H1 5517   8.121   4.340   1.079
 1858TIP3    H2 5518   8.189   4.392   1.204
 1859TIP3   OH2 5519   2.529   0.298   5.361
 1859TIP3    H1 5520   2.512   0.366   5.427
 1859TIP3    H2 5521   2.587   0.339   5.298
 1860TIP3   OH2 5522   5.770   2.563   0.990
 1860TIP3    H1 5523   5.727   2.479   1.002
 1860TIP3    H2 5524   5.828   2.572   1.066
 1861TIP3   OH2 5525   0.271   4.539   4.941
 1861TIP3    H1 5526   0.348   4.543   4.884
 1861TIP3    H2 5527   0.235   4.451   4.925
 1862TIP3   OH2 5528   4.236   7.571   5.808
 1862TIP3    H1 5529   4.165   7.516   5.841
 1862TIP3    H2 5530   4.231   7.650   5.861
 1863TIP3   OH2 5531   7.460   1.696   4.979
 1863TIP3    H1 5532   7.499   1.763   5.034
 1863TIP3    H2 5533   7.376   1.676   5.021
 1864TIP3   OH2 5534   2.229   2.101   5.475
 1864TIP3    H1 5535   2.311   2.079   5.519
 1864TIP3    H2 5536   2.167   2.117   5.547
 1865TIP3   OH2 5537   0.662   6.326   2.618
 1865TIP3    H1 5538   0.707   6.410   2.627
 1865TIP3    H2 5539   0.647   6.296   2.707
 1866TIP3   OH2 5540   0.833   4.416   5.173
 1866TIP3    H1 5541   0.740   4.406   5.192
 1866TIP3    H2 5542   0.843   4.507   5.147
 1867TIP3   OH2 5543   5.257   3.650   2.513
 1867TIP3    H1 5544   5.226   3.662   2.423
 1867TIP3    H2 5545   5.339   3.601   2.504
 1868TIP3   OH2 5546   8.011   2.740   3.328
 1868TIP3    H1 5547   8.106   2.731   3.327
 1868TIP3    H2 5548   7.979   2.668   3.273
 1869TIP3   OH2 5549   8.138   3.025   5.760
 1869TIP3    H1 5550   8.053   3.002   5.723
 1869TIP3    H2 5551   8.198   2.958   5.726
 1870TIP3   OH2 5552   0.330   2.243   6.011
 1870TIP3    H1 5553   0.265   2.277   5.950
 1870TIP3    H2 5554   0.404   2.304   6.003
 1871TIP3   OH2 5555   5.102   6.884   2.001
 1871TIP3    H1 5556   5.059   6.958   1.957
 1871TIP3    H2 5557   5.147   6.923   2.075
 1872TIP3   OH2 5558   3.965   0.630   5.808
 1872TIP3    H1 5559   3.993   0.679   5.731
 1872TIP3    H2 5560   4.023   0.554   5.811
 1873TIP3   OH2 5561   2.890   5.928   3.755
 1873TIP3    H1 5562   2.845   5.854   3.795
 1873TIP3    H2 5563   2.961   5.890   3.704
 1874TIP3   OH2 5564   7.651   7.250   2.472
 1874TIP3    H1 5565   7.566   7.243   2.427
 1874TIP3    H2 5566   7.628   7.257   2.565
 1875TIP3   OH2 5567   3.366   7.086   0.139
 1875TIP3    H1 5568   3.410   7.031   0.074
 1875TIP3    H2 5569   3.406   7.172   0.128
 1876TIP3   OH2 5570   6.458   1.243   1.636
 1876TIP3    H1 5571   6.449   1.248   1.732
 1876TIP3    H2 5572   6.546   1.208   1.623
 1877TIP3   OH2 5573   7.028   3.620   3.908
 1877TIP3    H1 5574   7.062   3.676   3.838
 1877TIP3    H2 5575   7.105   3.598   3.960
 1878TIP3   OH2 5576   8.035   4.482   4.485
 1878TIP3    H1 5577   8.075   4.465   4.399
 1878TIP3    H2 5578   8.107   4.475   4.547
 1879TIP3   OH2 5579   2.040   7.694   6.756
 1879TIP3    H1 5580   1.995   7.609   6.755
 1879TIP3    H2 5581   2.030   7.727   6.666
 1880TIP3   OH2 5582   0.211   4.414   2.497
 1880TIP3    H1 5583   0.175   4.453   2.417
 1880TIP3    H2 5584   0.304   4.436   2.495
 1881TIP3   OH2 5585   1.152   6.534   2.247
 1881TIP3    H1 5586   1.100   6.454   2.240
 1881TIP3    H2 5587   1.243   6.505   2.238
 1882TIP3   OH2 5588   2.912   4.534   2.342
 1882TIP3    H1 5589   2.849   4.470   2.309
 1882TIP3    H2 5590   2.880   4.557   2.429
 1883TIP3   OH2 5591   5.870   0.658   5.221
 1883TIP3    H1 5592   5.780   0.651   5.190
 1883TIP3    H2 5593   5.867   0.626   5.311
 1884TIP3   OH2 5594   4.546   1.366   6.160
 1884TIP3    H1 5595   4.494   1.287   6.176
 1884TIP3    H2 5596   4.492   1.438   6.194
 1885TIP3   OH2 5597   0.356   7.088   0.049
 1885TIP3    H1 5598   0.403   7.047  -0.023
 1885TIP3    H2 5599   0.264   7.084   0.023
 1886TIP3   OH2 5600   7.436   1.740   5.294
 1886TIP3    H1 5601   7.510   1.782   5.249
 1886TIP3    H2 5602   7.363   1.801   5.281
 1887TIP3   OH2 5603   4.492   3.894   3.130
 1887TIP3    H1 5604   4.482   3.894   3.225
 1887TIP3    H2 5605   4.435   3.824   3.099
 1888TIP3   OH2 5606   2.422   6.397   6.597
 1888TIP3    H1 5607   2.475   6.387   6.518
 1888TIP3    H2 5608   2.350   6.335   6.586
 1889TIP3   OH2 5609   1.878   2.103   0.472
 1889TIP3    H1 5610   1.815   2.154   0.422
 1889TIP3    H2 5611   1.838   2.016   0.482
 1890TIP3   OH2 5612   0.264   1.641   5.087
 1890TIP3    H1 5613   0.317   1.605   5.016
 1890TIP3    H2 5614   0.204   1.571   5.111
 1891TIP3   OH2 5615   3.715   4.092   1.115
 1891TIP3    H1 5616   3.754   4.046   1.189
 1891TIP3    H2 5617   3.620   4.080   1.125
 1892TIP3   OH2 5618   2.725   6.665   3.513
 1892TIP3    H1 5619   2.762   6.661   3.601
 1892TIP3    H2 5620   2.689   6.753   3.506
 1893TIP3   OH2 5621   6.852   4.018   6.329
 1893TIP3    H1 5622   6.887   3.949   6.385
 1893TIP3    H2 5623   6.815   3.970   6.254
 1894TIP3   OH2 5624   7.999   0.751   5.217
 1894TIP3    H1 5625   7.981   0.782   5.306
 1894TIP3    H2 5626   7.994   0.656   5.222
 1895TIP3   OH2 5627   5.860   0.573   0.977
 1895TIP3    H1 5628   5.771   0.605   0.962
 1895TIP3    H2 5629   5.890   0.622   1.054
 1896TIP3   OH2 5630   1.688   5.979   0.650
 1896TIP3    H1 5631   1.597   5.953   0.663
 1896TIP3    H2 5632   1.683   6.060   0.600
 1897TIP3   OH2 5633   8.208   4.187   6.325
 1897TIP3    H1 5634   8.126   4.164   6.368
 1897TIP3    H2 5635   8.273   4.185   6.394
 1898TIP3   OH2 5636   3.641   7.671   3.975
 1898TIP3    H1 5637   3.658   7.742   4.037
 1898TIP3    H2 5638   3.727   7.651   3.937
 1899TIP3   OH2 5639   3.235   4.124   1.014
 1899TIP3    H1 5640   3.176   4.049   1.020
 1899TIP3    H2 5641   3.194   4.182   0.950
 1900TIP3   OH2 5642   6.711   2.408   3.988
 1900TIP3    H1 5643   6.806   2.412   3.996
 1900TIP3    H2 5644   6.693   2.442   3.901
 1901TIP3   OH2 5645   3.515   4.721   4.813
 1901TIP3    H1 5646   3.492   4.630   4.797
 1901TIP3    H2 5647   3.439   4.771   4.781
 1902TIP3   OH2 5648   2.003   0.121   0.319
 1902TIP3    H1 5649   2.070   0.082   0.263
 1902TIP3    H2 5650   2.040   0.116   0.407
 1903TIP3   OH2 5651   5.867   1.980   4.323
 1903TIP3    H1 5652   5.827   1.962   4.238
 1903TIP3    H2 5653   5.925   2.054   4.306
 1904TIP3   OH2 5654   3.166   7.586   5.521
 1904TIP3    H1 5655   3.127   7.644   5.456
 1904TIP3    H2 5656   3.260   7.595   5.508
 1905TIP3   OH2 5657   2.781   0.835   6.420
 1905TIP3    H1 5658   2.860   0.797   6.381
 1905TIP3    H2 5659   2.733   0.871   6.346
 1906TIP3   OH2 5660   2.288   0.838   0.774
 1906TIP3    H1 5661   2.359   0.808   0.717
 1906TIP3    H2 5662   2.209   0.833   0.720
 1907TIP3   OH2 5663   5.456   2.025   0.337
 1907TIP3    H1 5664   5.466   2.117   0.313
 1907TIP3    H2 5665   5.366   2.003   0.313
 1908TIP3   OH2 5666   6.215   5.618   5.063
 1908TIP3    H1 5667   6.133   5.574   5.083
 1908TIP3    H2 5668   6.269   5.550   5.020
 1909TIP3   OH2 5669   2.732   5.943   0.148
 1909TIP3    H1 5670   2.749   5.988   0.065
 1909TIP3    H2 5671   2.769   6.001   0.215
 1910TIP3   OH2 5672   3.423   0.299   6.747
 1910TIP3    H1 5673   3.494   0.348   6.706
 1910TIP3    H2 5674   3.464   0.217   6.775
 1911TIP3   OH2 5675   5.669   1.787   1.620
 1911TIP3    H1 5676   5.622   1.813   1.541
 1911TIP3    H2 5677   5.757   1.767   1.590
 1912TIP3   OH2 5678   6.365   2.628   6.740
 1912TIP3    H1 5679   6.459   2.618   6.724
 1912TIP3    H2 5680   6.342   2.554   6.796
 1913TIP3   OH2 5681   3.312   7.165   6.134
 1913TIP3    H1 5682   3.250   7.158   6.207
 1913TIP3    H2 5683   3.393   7.126   6.168
 1914TIP3   OH2 5684   1.789   6.416   3.369
 1914TIP3    H1 5685   1.817   6.383   3.454
 1914TIP3    H2 5686   1.695   6.434   3.379
 1915TIP3   OH2 5687   3.596   0.321   3.366
 1915TIP3    H1 5688   3.599   0.367   3.283
 1915TIP3    H2 5689   3.687   0.312   3.393
 1916TIP3   OH2 5690   5.966   6.111   2.636
 1916TIP3    H1 5691   5.999   6.043   2.695
 1916TIP3    H2 5692   5.873   6.117   2.657
 1917TIP3   OH2 5693   2.723   0.060   5.010
 1917TIP3    H1 5694   2.650   0.104   5.054
 1917TIP3    H2 5695   2.764   0.130   4.959
 1918TIP3   OH2 5696   4.457   3.160   0.361
 1918TIP3    H1 5697   4.475   3.192   0.272
 1918TIP3    H2 5698   4.449   3.240   0.414
 1919TIP3   OH2 5699   2.453   4.939   0.082
 1919TIP3    H1 5700   2.430   4.916   0.172
 1919TIP3    H2 5701   2.517   4.873   0.055
 1920TIP3   OH2 5702   5.694   7.035   5.011
 1920TIP3    H1 5703   5.732   6.959   5.055
 1920TIP3    H2 5704   5.720   7.110   5.064
 1921TIP3   OH2 5705   0.727   5.815   4.312
 1921TIP3    H1 5706   0.763   5.873   4.244
 1921TIP3    H2 5707   0.804   5.782   4.359
 1922TIP3   OH2 5708   3.379   5.925   2.603
 1922TIP3    H1 5709   3.431   5.885   2.533
 1922TIP3    H2 5710   3.440   5.931   2.677
 1923TIP3   OH2 5711   0.441   4.630   3.463
 1923TIP3    H1 5712   0.469   4.656   3.375
 1923TIP3    H2 5713   0.422   4.713   3.507
 1924TIP3   OH2 5714   3.333   5.080   2.162
 1924TIP3    H1 5715   3.306   5.044   2.077
 1924TIP3    H2 5716   3.281   5.160   2.171
 1925TIP3   OH2 5717   3.428   4.258   2.482
 1925TIP3    H1 5718   3.394   4.197   2.547
 1925TIP3    H2 5719   3.488   4.314   2.531
 1926TIP3   OH2 5720   4.325   6.339   3.964
 1926TIP3    H1 5721   4.419   6.338   3.981
 1926TIP3    H2 5722   4.314   6.285   3.885
 1927TIP3   OH2 5723   6.484   2.575   0.237
 1927TIP3    H1 5724   6.500   2.540   0.324
 1927TIP3    H2 5725   6.560   2.632   0.220
 1928TIP3   OH2 5726   0.907   0.914   0.465
 1928TIP3    H1 5727   0.944   0.870   0.388
 1928TIP3    H2 5728   0.910   1.007   0.444
 1929TIP3   OH2 5729   5.135   4.129   0.835
 1929TIP3    H1 5730   5.142   4.054   0.894
 1929TIP3    H2 5731   5.067   4.184   0.875
 1930TIP3   OH2 5732   5.805   7.688   4.611
 1930TIP3    H1 5733   5.769   7.613   4.658
 1930TIP3    H2 5734   5.760   7.687   4.526
 1931TIP3   OH2 5735   7.046   1.603   0.095
 1931TIP3    H1 5736   6.985   1.536   0.065
 1931TIP3    H2 5737   7.003   1.642   0.171
 1932TIP3   OH2 5738   1.801   4.612   2.116
 1932TIP3    H1 5739   1.749   4.657   2.050
 1932TIP3    H2 5740   1.892   4.621   2.086
 1933TIP3   OH2 5741   2.560   1.419   1.788
 1933TIP3    H1 5742   2.527   1.460   1.868
 1933TIP3    H2 5743   2.648   1.391   1.810
 1934TIP3   OH2 5744   0.873   5.494   3.975
 1934TIP3    H1 5745   0.860   5.440   4.052
 1934TIP3    H2 5746   0.808   5.564   3.982
 1935TIP3   OH2 5747   6.853   0.046   1.700
 1935TIP3    H1 5748   6.852   0.079   1.610
 1935TIP3    H2 5749   6.789   0.100   1.746
 1936TIP3   OH2 5750   2.042   1.118   0.541
 1936TIP3    H1 5751   2.112   1.054   0.543
 1936TIP3    H2 5752   2.062   1.174   0.466
 1937TIP3   OH2 5753   4.126   0.294   6.629
 1937TIP3    H1 5754   4.047   0.345   6.649
 1937TIP3    H2 5755   4.151   0.255   6.713
 1938TIP3   OH2 5756   4.646   2.750   0.367
 1938TIP3    H1 5757   4.572   2.808   0.386
 1938TIP3    H2 5758   4.649   2.689   0.441
 1939TIP3   OH2 5759   4.795   6.324   5.818
 1939TIP3    H1 5760   4.806   6.363   5.731
 1939TIP3    H2 5761   4.707   6.350   5.845
 1940TIP3   OH2 5762   1.331   5.955   4.569
 1940TIP3    H1 5763   1.400   6.003   4.524
 1940TIP3    H2 5764   1.363   5.948   4.659
 1941TIP3   OH2 5765   2.757   4.104   5.617
 1941TIP3    H1 5766   2.776   4.043   5.688
 1941TIP3    H2 5767   2.840   4.148   5.601
 1942TIP3   OH2 5768   0.129   3.718   1.144
 1942TIP3    H1 5769   0.203   3.679   1.099
 1942TIP3    H2 5770   0.151   3.811   1.153
 1943TIP3   OH2 5771   1.255   4.608   4.170
 1943TIP3    H1 5772   1.271   4.570   4.084
 1943TIP3    H2 5773   1.342   4.630   4.204
 1944TIP3   OH2 5774   4.275   4.518   4.417
 1944TIP3    H1 5775   4.354   4.512   4.472
 1944TIP3    H2 5776   4.291   4.595   4.362
 1945TIP3   OH2 5777   6.392   3.430   6.441
 1945TIP3    H1 5778   6.333   3.361   6.471
 1945TIP3    H2 5779   6.412   3.408   6.350
 1946TIP3   OH2 5780   3.167   4.230   6.512
 1946TIP3    H1 5781   3.151   4.136   6.501
 1946TIP3    H2 5782   3.242   4.235   6.571
 1947TIP3   OH2 5783   6.819   6.382   5.406
 1947TIP3    H1 5784   6.748   6.350   5.350
 1947TIP3    H2 5785   6.833   6.313   5.470
 1948TIP3   OH2 5786   1.876   0.482   1.687
 1948TIP3    H1 5787   1.883   0.387   1.694
 1948TIP3    H2 5788   1.888   0.500   1.593
 1949TIP3   OH2 5789   0.743   2.394   6.248
 1949TIP3    H1 5790   0.683   2.379   6.321
 1949TIP3    H2 5791   0.790   2.311   6.238
 1950TIP3   OH2 5792   1.544   6.659   5.202
 1950TIP3    H1 5793   1.449   6.663   5.212
 1950TIP3    H2 5794   1.557   6.642   5.109
 1951TIP3   OH2 5795   5.334   6.803   4.867
 1951TIP3    H1 5796   5.328   6.809   4.772
 1951TIP3    H2 5797   5.383   6.881   4.893
 1952TIP3   OH2 5798   4.840   7.696   4.025
 1952TIP3    H1 5799   4.817   7.677   3.934
 1952TIP3    H2 5800   4.789   7.635   4.077
 1953TIP3   OH2 5801   7.049   3.903   3.037
 1953TIP3    H1 5802   7.047   3.892   3.132
 1953TIP3    H2 5803   6.970   3.954   3.017
 1954TIP3   OH2 5804   7.209   6.569   4.740
 1954TIP3    H1 5805   7.141   6.512   4.778
 1954TIP3    H2 5806   7.291   6.536   4.776
 1955TIP3   OH2 5807   2.645   3.557   0.064
 1955TIP3    H1 5808   2.611   3.469   0.053
 1955TIP3    H2 5809   2.711   3.549   0.133
 1956TIP3   OH2 5810   1.151   1.171   0.190
 1956TIP3    H1 5811   1.240   1.194   0.217
 1956TIP3    H2 5812   1.123   1.245   0.135
 1957TIP3   OH2 5813   4.084   3.592   0.340
 1957TIP3    H1 5814   4.043   3.516   0.299
 1957TIP3    H2 5815   4.013   3.634   0.389
 1958TIP3   OH2 5816   1.907   2.633   5.054
 1958TIP3    H1 5817   1.932   2.596   4.970
 1958TIP3    H2 5818   1.975   2.697   5.074
 1959TIP3   OH2 5819   2.599   5.473   3.760
 1959TIP3    H1 5820   2.610   5.467   3.854
 1959TIP3    H2 5821   2.570   5.563   3.744
 1960TIP3   OH2 5822   7.467   7.164   6.674
 1960TIP3    H1 5823   7.475   7.259   6.671
 1960TIP3    H2 5824   7.407   7.142   6.603
 1961TIP3   OH2 5825   1.533  -0.014   1.031
 1961TIP3    H1 5826   1.503   0.059   0.978
 1961TIP3    H2 5827   1.499   0.005   1.119
 1962TIP3   OH2 5828   1.019   2.991   3.473
 1962TIP3    H1 5829   0.994   2.977   3.564
 1962TIP3    H2 5830   1.094   2.933   3.460
 1963TIP3   OH2 5831   3.757   5.928   2.168
 1963TIP3    H1 5832   3.705   5.989   2.221
 1963TIP3    H2 5833   3.841   5.973   2.155
 1964TIP3   OH2 5834   7.187   1.675   5.126
 1964TIP3    H1 5835   7.198   1.612   5.197
 1964TIP3    H2 5836   7.180   1.760   5.171
 1965TIP3   OH2 5837   4.674   5.359   6.554
 1965TIP3    H1 5838   4.674   5.382   6.461
 1965TIP3    H2 5839   4.618   5.424   6.596
 1966TIP3   OH2 5840   4.266   7.110   0.148
 1966TIP3    H1 5841   4.345   7.070   0.184
 1966TIP3    H2 5842   4.199   7.095   0.215
 1967TIP3   OH2 5843   7.586   2.415   2.888
 1967TIP3    H1 5844   7.618   2.386   2.803
 1967TIP3    H2 5845   7.596   2.511   2.887
 1968TIP3   OH2 5846   1.061   3.456   0.861
 1968TIP3    H1 5847   1.037   3.522   0.925
 1968TIP3    H2 5848   1.157   3.462   0.854
 1969TIP3   OH2 5849   1.221   7.002   1.024
 1969TIP3    H1 5850   1.217   7.080   1.080
 1969TIP3    H2 5851   1.202   6.929   1.083
 1970TIP3   OH2 5852   6.169   5.346   2.763
 1970TIP3    H1 5853   6.148   5.260   2.800
 1970TIP3    H2 5854   6.214   5.391   2.835
 1971TIP3   OH2 5855   1.622   1.396   2.628
 1971TIP3    H1 5856   1.584   1.445   2.554
 1971TIP3    H2 5857   1.634   1.462   2.696
 1972TIP3   OH2 5858   7.533   4.273   5.515
 1972TIP3    H1 5859   7.511   4.242   5.602
 1972TIP3    H2 5860   7.539   4.368   5.524
 1973TIP3   OH2 5861   3.257   1.916   2.357
 1973TIP3    H1 5862   3.215   1.843   2.311
 1973TIP3    H2 5863   3.238   1.899   2.450
 1974TIP3   OH2 5864   3.851   7.588   6.000
 1974TIP3    H1 5865   3.861   7.571   5.906
 1974TIP3    H2 5866   3.937   7.570   6.037
 1975TIP3   OH2 5867   3.665   7.472   3.018
 1975TIP3    H1 5868   3.749   7.518   3.026
 1975TIP3    H2 5869   3.690   7.380   3.004
 1976TIP3   OH2 5870   4.080   3.002   4.705
 1976TIP3    H1 5871   4.149   3.055   4.745
 1976TIP3    H2 5872   4.117   2.915   4.698
 1977TIP3   OH2 5873   7.359   6.936   0.288
 1977TIP3    H1 5874   7.382   6.857   0.338
 1977TIP3    H2 5875   7.348   7.004   0.355
 1978TIP3   OH2 5876   6.329   5.991   0.654
 1978TIP3    H1 5877   6.409   6.001   0.602
 1978TIP3    H2 5878   6.297   5.903   0.634
 1979TIP3   OH2 5879   5.701   7.029   2.989
 1979TIP3    H1 5880   5.736   6.969   2.923
 1979TIP3    H2 5881   5.607   7.016   2.986
 1980TIP3   OH2 5882   4.315   6.907   2.114
 1980TIP3    H1 5883   4.285   6.885   2.202
 1980TIP3    H2 5884   4.312   6.824   2.066
 1981TIP3   OH2 5885   2.070   0.577   6.686
 1981TIP3    H1 5886   2.135   0.509   6.706
 1981TIP3    H2 5887   2.006   0.533   6.631
 1982TIP3   OH2 5888   1.896   4.294   4.938
 1982TIP3    H1 5889   1.849   4.349   5.001
 1982TIP3    H2 5890   1.888   4.205   4.972
 1983TIP3   OH2 5891   3.400   2.367   4.500
 1983TIP3    H1 5892   3.374   2.318   4.578
 1983TIP3    H2 5893   3.418   2.456   4.532
 1984TIP3   OH2 5894   5.893   3.001   4.500
 1984TIP3    H1 5895   5.915   2.927   4.556
 1984TIP3    H2 5896   5.843   2.963   4.428
 1985TIP3   OH2 5897   3.518   7.826   5.573
 1985TIP3    H1 5898   3.492   7.753   5.517
 1985TIP3    H2 5899   3.536   7.785   5.658
 1986TIP3   OH2 5900   0.161   6.696   1.562
 1986TIP3    H1 5901   0.105   6.638   1.512
 1986TIP3    H2 5902   0.101   6.745   1.618
 1987TIP3   OH2 5903   0.325   4.170   0.338
 1987TIP3    H1 5904   0.416   4.180   0.366
 1987TIP3    H2 5905   0.319   4.221   0.257
 1988TIP3   OH2 5906   7.452   6.496   2.799
 1988TIP3    H1 5907   7.486   6.518   2.886
 1988TIP3    H2 5908   7.394   6.569   2.777
 1989TIP3   OH2 5909   4.127   3.934   4.329
 1989TIP3    H1 5910   4.057   3.914   4.267
 1989TIP3    H2 5911   4.081   3.950   4.412
 1990TIP3   OH2 5912   8.286   0.730   0.052
 1990TIP3    H1 5913   8.251   0.675   0.123
 1990TIP3    H2 5914   8.249   0.816   0.068
 1991TIP3   OH2 5915   5.153   6.608   5.607
 1991TIP3    H1 5916   5.068   6.617   5.565
 1991TIP3    H2 5917   5.134   6.605   5.701
 1992TIP3   OH2 5918   6.465   1.870   1.913
 1992TIP3    H1 5919   6.475   1.782   1.877
 1992TIP3    H2 5920   6.506   1.927   1.848
 1993TIP3   OH2 5921   7.421   4.242   1.882
 1993TIP3    H1 5922   7.372   4.311   1.926
 1993TIP3    H2 5923   7.355   4.176   1.859
 1994TIP3   OH2 5924   1.232   5.032   1.158
 1994TIP3    H1 5925   1.164   5.031   1.090
 1994TIP3    H2 5926   1.184   5.048   1.240
 1995TIP3   OH2 5927   0.869   3.937   5.433
 1995TIP3    H1 5928   0.827   3.855   5.458
 1995TIP3    H2 5929   0.811   4.005   5.466
 1996TIP3   OH2 5930   5.602   2.155   6.217
 1996TIP3    H1 5931   5.550   2.206   6.279
 1996TIP3    H2 5932   5.537   2.115   6.159
 1997TIP3   OH2 5933   2.192   5.597   3.322
 1997TIP3    H1 5934   2.175   5.646   3.403
 1997TIP3    H2 5935   2.209   5.508   3.351
 1998TIP3   OH2 5936   4.713   6.371   1.658
 1998TIP3    H1 5937   4.692   6.298   1.600
 1998TIP3    H2 5938   4.797   6.347   1.698
 1999TIP3   OH2 5939   1.093   1.613   1.077
 1999TIP3    H1 5940   1.161   1.563   1.031
 1999TIP3    H2 5941   1.011   1.569   1.054
 2000TIP3   OH2 5942   4.751   6.226   6.234
 2000TIP3    H1 5943   4.830   6.267   6.198
 2000TIP3    H2 5944   4.770   6.132   6.231
 2001TIP3   OH2 5945   7.982   1.545   0.392
 2001TIP3    H1 5946   8.012   1.465   0.434
 2001TIP3    H2 5947   7.942   1.596   0.463
 2002TIP3   OH2 5948   8.170   7.371   5.778
 2002TIP3    H1 5949   8.262   7.390   5.759
 2002TIP3    H2 5950   8.122   7.438   5.729
 2003TIP3   OH2 5951   6.380   3.466   5.340
 2003TIP3    H1 5952   6.449   3.533   5.344
 2003TIP3    H2 5953   6.308   3.509   5.293
 2004TIP3   OH2 5954   4.484   1.542   5.386
 2004TIP3    H1 5955   4.540   1.580   5.454
 2004TIP3    H2 5956   4.461   1.455   5.419
 2005TIP3   OH2 5957   4.183   2.278   6.455
 2005TIP3    H1 5958   4.252   2.333   6.417
 2005TIP3    H2 5959   4.216   2.256   6.543
 2006TIP3   OH2 5960   5.975   2.526   4.728
 2006TIP3    H1 5961   6.044   2.536   4.793
 2006TIP3    H2 5962   5.925   2.450   4.758
 2007TIP3   OH2 5963   5.232   2.560   2.229
 2007TIP3    H1 5964   5.182   2.625   2.277
 2007TIP3    H2 5965   5.257   2.603   2.147
 2008TIP3   OH2 5966   6.657   5.940   4.360
 2008TIP3    H1 5967   6.749   5.963   4.345
 2008TIP3    H2 5968   6.638   5.873   4.295
 2009TIP3   OH2 5969   5.171   1.356   5.815
 2009TIP3    H1 5970   5.260   1.339   5.844
 2009TIP3    H2 5971   5.127   1.395   5.890
 2010TIP3   OH2 5972   6.745   2.656   4.676
 2010TIP3    H1 5973   6.816   2.697   4.626
 2010TIP3    H2 5974   6.771   2.564   4.684
 2011TIP3   OH2 5975   0.350   0.212   3.682
 2011TIP3    H1 5976   0.395   0.295   3.671
 2011TIP3    H2 5977   0.419   0.147   3.692
 2012TIP3   OH2 5978   5.804   6.713   2.076
 2012TIP3    H1 5979   5.842   6.655   2.010
 2012TIP3    H2 5980   5.761   6.654   2.138
 2013TIP3   OH2 5981   7.591   7.667   3.457
 2013TIP3    H1 5982   7.578   7.708   3.542
 2013TIP3    H2 5983   7.509   7.620   3.440
 2014TIP3   OH2 5984   2.687   0.945   2.999
 2014TIP3    H1 5985   2.596   0.932   2.972
 2014TIP3    H2 5986   2.739   0.916   2.923
 2015TIP3   OH2 5987   6.316   7.216   5.306
 2015TIP3    H1 5988   6.355   7.298   5.335
 2015TIP3    H2 5989   6.323   7.158   5.383
 2016TIP3   OH2 5990   5.515   6.891   6.584
 2016TIP3    H1 5991   5.487   6.972   6.541
 2016TIP3    H2 5992   5.462   6.886   6.663
 2017TIP3   OH2 5993   3.936   5.840   4.110
 2017TIP3    H1 5994   3.877   5.813   4.181
 2017TIP3    H2 5995   4.005   5.889   4.155
 2018TIP3   OH2 5996   8.228   7.758   0.096
 2018TIP3    H1 5997   8.215   7.849   0.120
 2018TIP3    H2 5998   8.183   7.747   0.013
 2019TIP3   OH2 5999   4.356   7.633   1.229
 2019TIP3    H1 6000   4.380   7.718   1.266
 2019TIP3    H2 6001   4.428   7.611   1.169
 2020TIP3   OH2 6002   4.985   1.365   0.368
 2020TIP3    H1 6003   5.016   1.434   0.427
 2020TIP3    H2 6004   4.890   1.363   0.382
 2021TIP3   OH2 6005   6.858   5.431   4.879
 2021TIP3    H1 6006   6.811   5.511   4.904
 2021TIP3    H2 6007   6.915   5.458   4.807
 2022TIP3   OH2 6008   2.739   6.035   1.371
 2022TIP3    H1 6009   2.734   5.967   1.439
 2022TIP3    H2 6010   2.736   6.117   1.419
 2023TIP3   OH2 6011   2.121   3.199   0.741
 2023TIP3    H1 6012   2.132   3.274   0.682
 2023TIP3    H2 6013   2.027   3.185   0.745
 2024TIP3   OH2 6014   4.309   5.101   4.115
 2024TIP3    H1 6015   4.263   5.017   4.111
 2024TIP3    H2 6016   4.250   5.158   4.166
 2025TIP3   OH2 6017   3.059   1.692   1.070
 2025TIP3    H1 6018   2.989   1.705   1.005
 2025TIP3    H2 6019   3.054   1.770   1.125
 2026TIP3   OH2 6020   3.820   5.469   4.407
 2026TIP3    H1 6021   3.861   5.424   4.481
 2026TIP3    H2 6022   3.878   5.453   4.333
 2027TIP3   OH2 6023   3.017   6.281   0.449
 2027TIP3    H1 6024   3.007   6.199   0.498
 2027TIP3    H2 6025   3.017   6.349   0.516
 2028TIP3   OH2 6026   8.142   5.338   2.681
 2028TIP3    H1 6027   8.173   5.423   2.712
 2028TIP3    H2 6028   8.054   5.330   2.718
 2029TIP3   OH2 6029   6.521   6.963   1.005
 2029TIP3    H1 6030   6.520   7.051   0.967
 2029TIP3    H2 6031   6.438   6.957   1.052
 2030TIP3   OH2 6032   0.586   5.875   4.563
 2030TIP3    H1 6033   0.600   5.848   4.473
 2030TIP3    H2 6034   0.673   5.868   4.604
 2031TIP3   OH2 6035   7.235   0.291   4.766
 2031TIP3    H1 6036   7.276   0.345   4.698
 2031TIP3    H2 6037   7.214   0.352   4.836
 2032TIP3   OH2 6038   0.895   7.569   1.046
 2032TIP3    H1 6039   0.873   7.480   1.019
 2032TIP3    H2 6040   0.856   7.577   1.133
 2033TIP3   OH2 6041   2.600   0.628   4.094
 2033TIP3    H1 6042   2.675   0.622   4.034
 2033TIP3    H2 6043   2.616   0.559   4.158
 2034TIP3   OH2 6044   2.370   2.139   1.288
 2034TIP3    H1 6045   2.461   2.115   1.306
 2034TIP3    H2 6046   2.330   2.059   1.254
 2035TIP3   OH2 6047   4.495   3.821   3.426
 2035TIP3    H1 6048   4.553   3.745   3.427
 2035TIP3    H2 6049   4.520   3.871   3.504
 2036TIP3   OH2 6050   2.588   7.281   0.954
 2036TIP3    H1 6051   2.590   7.202   1.007
 2036TIP3    H2 6052   2.679   7.295   0.929
 2037TIP3   OH2 6053   4.960   3.183   2.668
 2037TIP3    H1 6054   4.954   3.138   2.752
 2037TIP3    H2 6055   4.899   3.257   2.676
 2038TIP3   OH2 6056   4.695   5.612   3.818
 2038TIP3    H1 6057   4.700   5.518   3.835
 2038TIP3    H2 6058   4.633   5.644   3.884
 2039TIP3   OH2 6059   4.506   4.262   4.458
 2039TIP3    H1 6060   4.520   4.194   4.523
 2039TIP3    H2 6061   4.418   4.245   4.424
 2040TIP3   OH2 6062   6.470   4.126   5.406
 2040TIP3    H1 6063   6.546   4.175   5.375
 2040TIP3    H2 6064   6.404   4.193   5.423
 2041TIP3   OH2 6065   3.917   4.848   5.351
 2041TIP3    H1 6066   3.822   4.860   5.353
 2041TIP3    H2 6067   3.952   4.935   5.332
 2042TIP3   OH2 6068   3.504   3.861   2.188
 2042TIP3    H1 6069   3.441   3.845   2.118
 2042TIP3    H2 6070   3.451   3.868   2.268
 2043TIP3   OH2 6071   5.696   0.208   2.146
 2043TIP3    H1 6072   5.648   0.188   2.226
 2043TIP3    H2 6073   5.772   0.150   2.149
 2044TIP3   OH2 6074   7.053  -0.026   2.371
 2044TIP3    H1 6075   6.970  -0.005   2.327
 2044TIP3    H2 6076   7.117   0.033   2.330
 2045TIP3   OH2 6077   4.952   4.330   4.025
 2045TIP3    H1 6078   4.859   4.351   4.019
 2045TIP3    H2 6079   4.996   4.415   4.029
 2046TIP3   OH2 6080   5.807   1.121   2.852
 2046TIP3    H1 6081   5.847   1.073   2.923
 2046TIP3    H2 6082   5.851   1.206   2.852
 2047TIP3   OH2 6083   6.117   4.444   1.767
 2047TIP3    H1 6084   6.074   4.493   1.837
 2047TIP3    H2 6085   6.116   4.353   1.797
 2048TIP3   OH2 6086   3.812   7.190   0.886
 2048TIP3    H1 6087   3.775   7.147   0.963
 2048TIP3    H2 6088   3.903   7.206   0.909
 2049TIP3   OH2 6089   1.596   4.228   3.483
 2049TIP3    H1 6090   1.688   4.220   3.457
 2049TIP3    H2 6091   1.595   4.296   3.550
 2050TIP3   OH2 6092   1.384   5.653   1.577
 2050TIP3    H1 6093   1.453   5.711   1.610
 2050TIP3    H2 6094   1.400   5.569   1.620
 2051TIP3   OH2 6095   1.820   7.666   3.673
 2051TIP3    H1 6096   1.848   7.638   3.760
 2051TIP3    H2 6097   1.870   7.611   3.612
 2052TIP3   OH2 6098   1.470   1.807   1.150
 2052TIP3    H1 6099   1.498   1.725   1.110
 2052TIP3    H2 6100   1.530   1.873   1.115
 2053TIP3   OH2 6101   1.686   0.042   3.577
 2053TIP3    H1 6102   1.708   0.122   3.624
 2053TIP3    H2 6103   1.590   0.042   3.572
 2054TIP3   OH2 6104   0.039   2.386   1.570
 2054TIP3    H1 6105   0.017   2.295   1.586
 2054TIP3    H2 6106   0.083   2.414   1.650
 2055TIP3   OH2 6107   3.103   4.454   3.560
 2055TIP3    H1 6108   3.066   4.520   3.501
 2055TIP3    H2 6109   3.187   4.490   3.586
 2056TIP3   OH2 6110   1.064   2.996   6.050
 2056TIP3    H1 6111   1.018   2.931   5.997
 2056TIP3    H2 6112   1.141   2.949   6.083
 2057TIP3   OH2 6113   7.275   3.691   4.348
 2057TIP3    H1 6114   7.265   3.660   4.438
 2057TIP3    H2 6115   7.187   3.714   4.320
 2058TIP3   OH2 6116   0.694   5.710   0.075
 2058TIP3    H1 6117   0.641   5.727  -0.003
 2058TIP3    H2 6118   0.728   5.622   0.063
 2059TIP3   OH2 6119   2.535   0.242   0.449
 2059TIP3    H1 6120   2.497   0.176   0.391
 2059TIP3    H2 6121   2.610   0.199   0.489
 2060TIP3   OH2 6122   7.856   2.327   0.441
 2060TIP3    H1 6123   7.886   2.260   0.379
 2060TIP3    H2 6124   7.867   2.410   0.393
 2061TIP3   OH2 6125   3.279   1.180   5.396
 2061TIP3    H1 6126   3.253   1.246   5.459
 2061TIP3    H2 6127   3.357   1.140   5.434
 2062TIP3   OH2 6128   3.266   6.963   5.771
 2062TIP3    H1 6129   3.264   7.048   5.727
 2062TIP3    H2 6130   3.341   6.917   5.732
 2063TIP3   OH2 6131   5.888   3.726   0.161
 2063TIP3    H1 6132   5.932   3.670   0.225
 2063TIP3    H2 6133   5.942   3.719   0.082
 2064TIP3   OH2 6134   8.288   4.143   4.126
 2064TIP3    H1 6135   8.210   4.105   4.084
 2064TIP3    H2 6136   8.336   4.068   4.160
 2065TIP3   OH2 6137   0.349   4.360   1.202
 2065TIP3    H1 6138   0.319   4.301   1.133
 2065TIP3    H2 6139   0.270   4.383   1.250
 2066TIP3   OH2 6140   3.916   0.763   4.357
 2066TIP3    H1 6141   4.009   0.744   4.345
 2066TIP3    H2 6142   3.874   0.728   4.277
 2067TIP3   OH2 6143   1.055   1.782   5.864
 2067TIP3    H1 6144   1.015   1.803   5.948
 2067TIP3    H2 6145   1.079   1.690   5.871
 2068TIP3   OH2 6146   0.487   5.107   3.058
 2068TIP3    H1 6147   0.456   5.136   3.143
 2068TIP3    H2 6148   0.568   5.060   3.076
 2069TIP3   OH2 6149   6.637   5.464   1.013
 2069TIP3    H1 6150   6.628   5.542   1.068
 2069TIP3    H2 6151   6.709   5.415   1.052
 2070TIP3   OH2 6152   2.655   3.917   3.889
 2070TIP3    H1 6153   2.715   3.939   3.817
 2070TIP3    H2 6154   2.657   3.822   3.893
 2071TIP3   OH2 6155   5.104   2.467   6.229
 2071TIP3    H1 6156   5.156   2.389   6.208
 2071TIP3    H2 6157   5.068   2.494   6.144
 2072TIP3   OH2 6158   7.267   4.344   5.646
 2072TIP3    H1 6159   7.273   4.292   5.727
 2072TIP3    H2 6160   7.234   4.429   5.675
 2073TIP3   OH2 6161   0.295   7.449   5.601
 2073TIP3    H1 6162   0.206   7.431   5.571
 2073TIP3    H2 6163   0.289   7.534   5.644
 2074TIP3   OH2 6164   0.546   4.892   0.306
 2074TIP3    H1 6165   0.614   4.857   0.249
 2074TIP3    H2 6166   0.502   4.959   0.253
 2075TIP3   OH2 6167   0.124   1.405   5.154
 2075TIP3    H1 6168   0.119   1.413   5.249
 2075TIP3    H2 6169   0.038   1.372   5.128
 2076TIP3   OH2 6170   7.475   5.406   3.521
 2076TIP3    H1 6171   7.561   5.438   3.547
 2076TIP3    H2 6172   7.478   5.403   3.425
 2077TIP3   OH2 6173   5.459   2.723   2.551
 2077TIP3    H1 6174   5.382   2.723   2.608
 2077TIP3    H2 6175   5.451   2.802   2.498
 2078TIP3   OH2 6176   0.318   2.612   5.863
 2078TIP3    H1 6177   0.378   2.543   5.837
 2078TIP3    H2 6178   0.289   2.588   5.951
 2079TIP3   OH2 6179   5.105   4.003   2.044
 2079TIP3    H1 6180   5.126   4.071   2.108
 2079TIP3    H2 6181   5.187   3.956   2.031
 2080TIP3   OH2 6182   6.509   3.335   3.559
 2080TIP3    H1 6183   6.488   3.246   3.589
 2080TIP3    H2 6184   6.500   3.389   3.638
 2081TIP3   OH2 6185   2.124   7.615   0.976
 2081TIP3    H1 6186   2.110   7.522   0.961
 2081TIP3    H2 6187   2.055   7.641   1.036
 2082TIP3   OH2 6188   2.347   2.201   6.221
 2082TIP3    H1 6189   2.372   2.109   6.209
 2082TIP3    H2 6190   2.330   2.210   6.314
 2083TIP3   OH2 6191   4.715   2.177   3.757
 2083TIP3    H1 6192   4.678   2.138   3.677
 2083TIP3    H2 6193   4.752   2.261   3.728
 2084TIP3   OH2 6194   7.073   3.880   4.820
 2084TIP3    H1 6195   6.983   3.876   4.788
 2084TIP3    H2 6196   7.110   3.957   4.777
 2085TIP3   OH2 6197   5.535   3.460   6.102
 2085TIP3    H1 6198   5.498   3.437   6.017
 2085TIP3    H2 6199   5.624   3.487   6.082
 2086TIP3   OH2 6200   3.086   0.362   6.070
 2086TIP3    H1 6201   2.999   0.390   6.100
 2086TIP3    H2 6202   3.069   0.309   5.992
 2087TIP3   OH2 6203   6.406   4.785   5.442
 2087TIP3    H1 6204   6.358   4.703   5.456
 2087TIP3    H2 6205   6.497   4.762   5.458
 2088TIP3   OH2 6206   5.380   7.102   6.457
 2088TIP3    H1 6207   5.404   7.184   6.413
 2088TIP3    H2 6208   5.347   7.046   6.386
 2089TIP3   OH2 6209   5.689   6.764   4.577
 2089TIP3    H1 6210   5.695   6.712   4.657
 2089TIP3    H2 6211   5.699   6.700   4.506
 2090TIP3   OH2 6212   0.983   0.607   4.379
 2090TIP3    H1 6213   0.957   0.665   4.308
 2090TIP3    H2 6214   1.058   0.651   4.419
 2091TIP3   OH2 6215   3.159   7.460   2.085
 2091TIP3    H1 6216   3.227   7.496   2.143
 2091TIP3    H2 6217   3.102   7.535   2.066
 2092TIP3   OH2 6218   7.691   2.891   5.339
 2092TIP3    H1 6219   7.786   2.891   5.326
 2092TIP3    H2 6220   7.675   2.964   5.399
 2093TIP3   OH2 6221   6.051   6.050   3.289
 2093TIP3    H1 6222   6.061   5.968   3.240
 2093TIP3    H2 6223   5.968   6.040   3.335
 2094TIP3   OH2 6224   5.258   0.148   1.725
 2094TIP3    H1 6225   5.177   0.200   1.724
 2094TIP3    H2 6226   5.274   0.131   1.818
 2095TIP3   OH2 6227   0.472   3.898   5.403
 2095TIP3    H1 6228   0.498   3.812   5.372
 2095TIP3    H2 6229   0.554   3.944   5.420
 2096TIP3   OH2 6230   0.451   1.642   0.248
 2096TIP3    H1 6231   0.363   1.624   0.215
 2096TIP3    H2 6232   0.497   1.682   0.174
 2097TIP3   OH2 6233   4.726   4.365   5.561
 2097TIP3    H1 6234   4.821   4.363   5.553
 2097TIP3    H2 6235   4.710   4.375   5.655
 2098TIP3   OH2 6236   8.164   1.517   4.196
 2098TIP3    H1 6237   8.145   1.456   4.124
 2098TIP3    H2 6238   8.254   1.498   4.220
 2099TIP3   OH2 6239   6.592   0.958   3.496
 2099TIP3    H1 6240   6.657   0.960   3.426
 2099TIP3    H2 6241   6.528   0.893   3.467
 2100TIP3   OH2 6242   8.188   3.076   4.021
 2100TIP3    H1 6243   8.161   3.165   4.043
 2100TIP3    H2 6244   8.248   3.086   3.948
 2101TIP3   OH2 6245   8.228   0.988   0.072
 2101TIP3    H1 6246   8.259   1.001  -0.018
 2101TIP3    H2 6247   8.225   1.076   0.109
 2102TIP3   OH2 6248   2.493   0.142   3.113
 2102TIP3    H1 6249   2.451   0.202   3.050
 2102TIP3    H2 6250   2.549   0.199   3.165
 2103TIP3   OH2 6251   4.715   0.029   2.412
 2103TIP3    H1 6252   4.700   0.010   2.505
 2103TIP3    H2 6253   4.792   0.086   2.411
 2104TIP3   OH2 6254   0.992   5.494   1.798
 2104TIP3    H1 6255   0.988   5.589   1.798
 2104TIP3    H2 6256   1.051   5.471   1.869
 2105TIP3   OH2 6257   6.491  -0.003   5.349
 2105TIP3    H1 6258   6.436   0.046   5.288
 2105TIP3    H2 6259   6.435  -0.016   5.426
 2106TIP3   OH2 6260   1.783   1.075   0.631
 2106TIP3    H1 6261   1.874   1.088   0.604
 2106TIP3    H2 6262   1.766   1.146   0.692
 2107TIP3   OH2 6263   4.847   3.814   2.560
 2107TIP3    H1 6264   4.800   3.810   2.477
 2107TIP3    H2 6265   4.933   3.851   2.537
 2108TIP3   OH2 6266   3.400   4.654   4.209
 2108TIP3    H1 6267   3.490   4.680   4.228
 2108TIP3    H2 6268   3.404   4.618   4.120
 2109TIP3   OH2 6269   1.744   5.203   1.689
 2109TIP3    H1 6270   1.711   5.281   1.644
 2109TIP3    H2 6271   1.813   5.170   1.631
 2110TIP3   OH2 6272   4.000   2.183   3.231
 2110TIP3    H1 6273   3.911   2.216   3.219
 2110TIP3    H2 6274   4.050   2.224   3.160
 2111TIP3   OH2 6275   5.415   6.812   0.392
 2111TIP3    H1 6276   5.359   6.736   0.375
 2111TIP3    H2 6277   5.430   6.810   0.487
 2112TIP3   OH2 6278   5.394   1.698   1.712
 2112TIP3    H1 6279   5.425   1.609   1.695
 2112TIP3    H2 6280   5.459   1.736   1.770
 2113TIP3   OH2 6281   7.424   0.987   0.112
 2113TIP3    H1 6282   7.475   1.067   0.126
 2113TIP3    H2 6283   7.333   1.014   0.120
 2114TIP3   OH2 6284   5.629   7.761   3.921
 2114TIP3    H1 6285   5.572   7.828   3.882
 2114TIP3    H2 6286   5.568   7.697   3.958
 2115TIP3   OH2 6287   5.734   2.114   1.598
 2115TIP3    H1 6288   5.802   2.082   1.539
 2115TIP3    H2 6289   5.656   2.062   1.577
 2116TIP3   OH2 6290   6.097   3.361   4.459
 2116TIP3    H1 6291   6.065   3.330   4.374
 2116TIP3    H2 6292   6.081   3.455   4.457
 2117TIP3   OH2 6293   3.348   5.537   5.762
 2117TIP3    H1 6294   3.366   5.625   5.728
 2117TIP3    H2 6295   3.434   5.495   5.766
 2118TIP3   OH2 6296   4.486   2.321   4.466
 2118TIP3    H1 6297   4.503   2.334   4.373
 2118TIP3    H2 6298   4.471   2.409   4.500
 2119TIP3   OH2 6299   6.894   2.685   0.841
 2119TIP3    H1 6300   6.975   2.644   0.871
 2119TIP3    H2 6301   6.922   2.772   0.811
 2120TIP3   OH2 6302   0.739   7.133   5.443
 2120TIP3    H1 6303   0.656   7.153   5.486
 2120TIP3    H2 6304   0.803   7.130   5.514
 2121TIP3   OH2 6305   5.483   2.291   5.365
 2121TIP3    H1 6306   5.543   2.326   5.431
 2121TIP3    H2 6307   5.416   2.245   5.417
 2122TIP3   OH2 6308   6.657   1.503   4.950
 2122TIP3    H1 6309   6.702   1.559   5.014
 2122TIP3    H2 6310   6.710   1.423   4.948
 2123TIP3   OH2 6311   3.912   1.647   5.930
 2123TIP3    H1 6312   3.908   1.592   6.008
 2123TIP3    H2 6313   3.980   1.711   5.948
 2124TIP3   OH2 6314   2.714   2.511   0.208
 2124TIP3    H1 6315   2.702   2.566   0.131
 2124TIP3    H2 6316   2.675   2.562   0.280
 2125TIP3   OH2 6317   0.654   0.346   3.287
 2125TIP3    H1 6318   0.663   0.305   3.201
 2125TIP3    H2 6319   0.644   0.272   3.347
 2126TIP3   OH2 6320   2.242   2.164   4.212
 2126TIP3    H1 6321   2.332   2.137   4.233
 2126TIP3    H2 6322   2.187   2.094   4.247
 2127TIP3   OH2 6323   0.113   7.255   6.653
 2127TIP3    H1 6324   0.135   7.183   6.712
 2127TIP3    H2 6325   0.075   7.322   6.710
 2128TIP3   OH2 6326   3.383   2.929   3.146
 2128TIP3    H1 6327   3.357   2.929   3.054
 2128TIP3    H2 6328   3.320   2.869   3.188
 2129TIP3   OH2 6329   0.944   1.434   5.505
 2129TIP3    H1 6330   0.995   1.515   5.506
 2129TIP3    H2 6331   0.968   1.392   5.423
 2130TIP3   OH2 6332   4.973   5.415   4.875
 2130TIP3    H1 6333   4.914   5.371   4.936
 2130TIP3    H2 6334   4.925   5.494   4.849
 2131TIP3   OH2 6335   3.965   2.125   2.371
 2131TIP3    H1 6336   4.011   2.087   2.296
 2131TIP3    H2 6337   3.997   2.215   2.375
 2132TIP3   OH2 6338   5.531   2.102   2.491
 2132TIP3    H1 6339   5.613   2.134   2.528
 2132TIP3    H2 6340   5.539   2.007   2.492
 2133TIP3   OH2 6341   0.270   1.368   1.137
 2133TIP3    H1 6342   0.363   1.370   1.161
 2133TIP3    H2 6343   0.271   1.353   1.042
 2134TIP3   OH2 6344   6.920   5.654   0.992
 2134TIP3    H1 6345   6.987   5.625   1.054
 2134TIP3    H2 6346   6.847   5.680   1.047
 2135TIP3   OH2 6347   7.943   2.097   0.316
 2135TIP3    H1 6348   7.913   2.043   0.389
 2135TIP3    H2 6349   7.883   2.075   0.245
 2136TIP3   OH2 6350   6.207   1.663   0.895
 2136TIP3    H1 6351   6.129   1.695   0.849
 2136TIP3    H2 6352   6.176   1.644   0.983
 2137TIP3   OH2 6353   1.462   0.282   1.966
 2137TIP3    H1 6354   1.383   0.303   1.916
 2137TIP3    H2 6355   1.533   0.324   1.916
 2138TIP3   OH2 6356   0.661   1.936   0.803
 2138TIP3    H1 6357   0.620   1.865   0.852
 2138TIP3    H2 6358   0.587   1.990   0.774
 2139TIP3   OH2 6359   8.024   2.183   5.481
 2139TIP3    H1 6360   7.968   2.202   5.406
 2139TIP3    H2 6361   8.013   2.258   5.539
 2140TIP3   OH2 6362   1.964   6.837   1.722
 2140TIP3    H1 6363   2.044   6.880   1.753
 2140TIP3    H2 6364   1.975   6.832   1.627
 2141TIP3   OH2 6365   8.239   6.985   5.650
 2141TIP3    H1 6366   8.311   7.036   5.612
 2141TIP3    H2 6367   8.213   6.925   5.580
 2142TIP3   OH2 6368   1.481   3.510   5.743
 2142TIP3    H1 6369   1.442   3.511   5.655
 2142TIP3    H2 6370   1.526   3.425   5.748
 2143TIP3   OH2 6371   2.736   4.176   2.609
 2143TIP3    H1 6372   2.673   4.104   2.607
 2143TIP3    H2 6373   2.801   4.153   2.543
 2144TIP3   OH2 6374   7.359   3.903   0.337
 2144TIP3    H1 6375   7.327   3.840   0.272
 2144TIP3    H2 6376   7.295   3.898   0.408
 2145TIP3   OH2 6377   0.802   5.296   1.071
 2145TIP3    H1 6378   0.777   5.355   1.142
 2145TIP3    H2 6379   0.869   5.240   1.109
 2146TIP3   OH2 6380   3.092   5.362   3.261
 2146TIP3    H1 6381   2.999   5.348   3.278
 2146TIP3    H2 6382   3.109   5.316   3.178
 2147TIP3   OH2 6383   6.167   2.615   4.487
 2147TIP3    H1 6384   6.238   2.640   4.428
 2147TIP3    H2 6385   6.201   2.634   4.574
 2148TIP3   OH2 6386   4.958   7.507   1.119
 2148TIP3    H1 6387   4.927   7.557   1.194
 2148TIP3    H2 6388   5.014   7.568   1.071
 2149TIP3   OH2 6389   5.876   4.279   4.942
 2149TIP3    H1 6390   5.826   4.351   4.979
 2149TIP3    H2 6391   5.812   4.209   4.930
 2150TIP3   OH2 6392   4.693   3.492   1.971
 2150TIP3    H1 6393   4.711   3.582   1.945
 2150TIP3    H2 6394   4.693   3.443   1.888
 2151TIP3   OH2 6395   6.342   5.114   5.979
 2151TIP3    H1 6396   6.300   5.104   6.064
 2151TIP3    H2 6397   6.434   5.128   5.999
 2152TIP3   OH2 6398   7.967   6.416   2.928
 2152TIP3    H1 6399   7.947   6.324   2.909
 2152TIP3    H2 6400   8.062   6.419   2.936
 2153TIP3   OH2 6401   0.078   1.590   2.817
 2153TIP3    H1 6402   0.017   1.517   2.828
 2153TIP3    H2 6403   0.030   1.653   2.764
 2154TIP3   OH2 6404   7.268   7.209   4.051
 2154TIP3    H1 6405   7.227   7.244   4.130
 2154TIP3    H2 6406   7.210   7.237   3.980
 2155TIP3   OH2 6407   2.962   7.642   4.168
 2155TIP3    H1 6408   3.037   7.642   4.227
 2155TIP3    H2 6409   2.902   7.707   4.206
 2156TIP3   OH2 6410   5.003   0.420   0.298
 2156TIP3    H1 6411   5.068   0.486   0.273
 2156TIP3    H2 6412   4.930   0.471   0.334
 2157TIP3   OH2 6413   6.123   6.037   5.587
 2157TIP3    H1 6414   6.083   6.116   5.625
 2157TIP3    H2 6415   6.217   6.056   5.588
 2158TIP3   OH2 6416   7.834   5.565   5.779
 2158TIP3    H1 6417   7.775   5.641   5.780
 2158TIP3    H2 6418   7.918   5.599   5.808
 2159TIP3   OH2 6419   5.337   7.280   2.127
 2159TIP3    H1 6420   5.276   7.240   2.190
 2159TIP3    H2 6421   5.331   7.225   2.050
 2160TIP3   OH2 6422   5.735   1.185   3.501
 2160TIP3    H1 6423   5.752   1.230   3.418
 2160TIP3    H2 6424   5.736   1.255   3.567
 2161TIP3   OH2 6425   2.674   4.454   2.605
 2161TIP3    H1 6426   2.623   4.441   2.685
 2161TIP3    H2 6427   2.688   4.366   2.572
 2162TIP3   OH2 6428   2.049   3.816   6.017
 2162TIP3    H1 6429   1.981   3.773   6.070
 2162TIP3    H2 6430   2.002   3.849   5.941
 2163TIP3   OH2 6431   5.805   4.854   5.409
 2163TIP3    H1 6432   5.729   4.815   5.454
 2163TIP3    H2 6433   5.768   4.896   5.332
 2164TIP3   OH2 6434   7.083   2.799   0.320
 2164TIP3    H1 6435   6.996   2.836   0.338
 2164TIP3    H2 6436   7.121   2.858   0.256
 2165TIP3   OH2 6437   0.809   1.523   4.750
 2165TIP3    H1 6438   0.871   1.543   4.679
 2165TIP3    H2 6439   0.842   1.572   4.825
 2166TIP3   OH2 6440   3.764   7.377   3.748
 2166TIP3    H1 6441   3.800   7.356   3.662
 2166TIP3    H2 6442   3.741   7.470   3.741
 2167TIP3   OH2 6443   7.958   3.366   4.814
 2167TIP3    H1 6444   8.007   3.391   4.892
 2167TIP3    H2 6445   7.973   3.272   4.804
 2168TIP3   OH2 6446   7.936   7.322   2.651
 2168TIP3    H1 6447   7.938   7.287   2.562
 2168TIP3    H2 6448   7.844   7.342   2.667
 2169TIP3   OH2 6449   0.805   3.321   1.811
 2169TIP3    H1 6450   0.810   3.351   1.720
 2169TIP3    H2 6451   0.762   3.236   1.806
 2170TIP3   OH2 6452   5.892   7.572   0.815
 2170TIP3    H1 6453   5.973   7.564   0.865
 2170TIP3    H2 6454   5.913   7.634   0.745
 2171TIP3   OH2 6455   5.218   4.961   0.561
 2171TIP3    H1 6456   5.143   5.020   0.551
 2171TIP3    H2 6457   5.294   5.017   0.547
 2172TIP3   OH2 6458   6.461   7.820   4.114
 2172TIP3    H1 6459   6.448   7.859   4.028
 2172TIP3    H2 6460   6.529   7.755   4.102
 2173TIP3   OH2 6461   4.277   1.460   0.294
 2173TIP3    H1 6462   4.263   1.367   0.273
 2173TIP3    H2 6463   4.351   1.486   0.239
 2174TIP3   OH2 6464   8.288   3.407   5.481
 2174TIP3    H1 6465   8.245   3.341   5.536
 2174TIP3    H2 6466   8.256   3.491   5.514
 2175TIP3   OH2 6467   0.144   1.969   3.089
 2175TIP3    H1 6468   0.066   2.023   3.087
 2175TIP3    H2 6469   0.189   1.995   3.170
 2176TIP3   OH2 6470   1.071   6.847   1.171
 2176TIP3    H1 6471   0.985   6.888   1.176
 2176TIP3    H2 6472   1.096   6.831   1.262
 2177TIP3   OH2 6473   7.725   4.548   6.361
 2177TIP3    H1 6474   7.693   4.540   6.271
 2177TIP3    H2 6475   7.798   4.486   6.366
 2178TIP3   OH2 6476   6.244   7.199   5.580
 2178TIP3    H1 6477   6.200   7.124   5.539
 2178TIP3    H2 6478   6.201   7.209   5.665
 2179TIP3   OH2 6479   5.940   2.603   1.188
 2179TIP3    H1 6480   5.926   2.635   1.278
 2179TIP3    H2 6481   6.020   2.550   1.194
 2180TIP3   OH2 6482   7.719   7.769   6.788
 2180TIP3    H1 6483   7.660   7.741   6.719
 2180TIP3    H2 6484   7.778   7.695   6.801
 2181TIP3   OH2 6485   5.226   0.411   0.714
 2181TIP3    H1 6486   5.191   0.358   0.786
 2181TIP3    H2 6487   5.149   0.453   0.676
 2182TIP3   OH2 6488   6.952   7.407   0.016
 2182TIP3    H1 6489   6.923   7.489   0.057
 2182TIP3    H2 6490   7.031   7.382   0.064
 2183TIP3   OH2 6491   0.106   4.725   3.366
 2183TIP3    H1 6492   0.157   4.752   3.443
 2183TIP3    H2 6493   0.130   4.788   3.298
 2184TIP3   OH2 6494   7.226   4.502   0.374
 2184TIP3    H1 6495   7.208   4.413   0.346
 2184TIP3    H2 6496   7.141   4.534   0.406
 2185TIP3   OH2 6497   1.064   0.200   5.731
 2185TIP3    H1 6498   1.108   0.277   5.697
 2185TIP3    H2 6499   1.045   0.147   5.654
 2186TIP3   OH2 6500   4.411   4.914   6.679
 2186TIP3    H1 6501   4.364   4.833   6.697
 2186TIP3    H2 6502   4.378   4.976   6.745
 2187TIP3   OH2 6503   5.997   3.122   6.582
 2187TIP3    H1 6504   5.926   3.133   6.519
 2187TIP3    H2 6505   6.051   3.052   6.545
 2188TIP3   OH2 6506   1.353   4.680   2.779
 2188TIP3    H1 6507   1.315   4.691   2.692
 2188TIP3    H2 6508   1.278   4.660   2.835
 2189TIP3   OH2 6509   7.315   2.305   0.027
 2189TIP3    H1 6510   7.358   2.299   0.112
 2189TIP3    H2 6511   7.303   2.214   0.000
 2190TIP3   OH2 6512   1.690   6.357   1.391
 2190TIP3    H1 6513   1.692   6.360   1.487
 2190TIP3    H2 6514   1.642   6.278   1.370
 2191TIP3   OH2 6515   5.804   6.922   1.887
 2191TIP3    H1 6516   5.804   6.899   1.980
 2191TIP3    H2 6517   5.739   6.864   1.848
 2192TIP3   OH2 6518   2.062   7.346   6.244
 2192TIP3    H1 6519   2.151   7.380   6.231
 2192TIP3    H2 6520   2.015   7.419   6.287
 2193TIP3   OH2 6521   3.459   6.032   3.675
 2193TIP3    H1 6522   3.510   5.952   3.680
 2193TIP3    H2 6523   3.384   6.017   3.732
 2194TIP3   OH2 6524   0.759   3.087   3.399
 2194TIP3    H1 6525   0.692   3.021   3.419
 2194TIP3    H2 6526   0.841   3.038   3.397
 2195TIP3   OH2 6527   3.018   7.201   2.813
 2195TIP3    H1 6528   3.066   7.284   2.810
 2195TIP3    H2 6529   3.015   7.172   2.722
 2196TIP3   OH2 6530   5.381   6.984   1.540
 2196TIP3    H1 6531   5.421   6.936   1.613
 2196TIP3    H2 6532   5.351   6.915   1.480
 2197TIP3   OH2 6533   6.923   2.333   2.882
 2197TIP3    H1 6534   6.897   2.412   2.834
 2197TIP3    H2 6535   6.868   2.334   2.960
 2198TIP3   OH2 6536   2.374   4.829   2.781
 2198TIP3    H1 6537   2.370   4.854   2.689
 2198TIP3    H2 6538   2.468   4.817   2.798
 2199TIP3   OH2 6539   1.768   3.383   4.071
 2199TIP3    H1 6540   1.725   3.389   4.156
 2199TIP3    H2 6541   1.856   3.417   4.086
 2200TIP3   OH2 6542   0.222   3.571   2.830
 2200TIP3    H1 6543   0.264   3.619   2.902
 2200TIP3    H2 6544   0.282   3.499   2.811
 2201TIP3   OH2 6545   8.246   6.409   1.943
 2201TIP3    H1 6546   8.218   6.318   1.942
 2201TIP3    H2 6547   8.335   6.407   1.908
 2202TIP3   OH2 6548   7.122   0.276   2.741
 2202TIP3    H1 6549   7.182   0.245   2.809
 2202TIP3    H2 6550   7.079   0.352   2.781
 2203TIP3   OH2 6551   7.558   0.029   3.449
 2203TIP3    H1 6552   7.468   0.051   3.472
 2203TIP3    H2 6553   7.562   0.039   3.354
 2204TIP3   OH2 6554   1.844   0.367   2.527
 2204TIP3    H1 6555   1.829   0.462   2.531
 2204TIP3    H2 6556   1.936   0.358   2.505
 2205TIP3   OH2 6557   4.782   0.553   0.364
 2205TIP3    H1 6558   4.737   0.606   0.430
 2205TIP3    H2 6559   4.712   0.522   0.306
 2206TIP3   OH2 6560   7.923   2.795   5.730
 2206TIP3    H1 6561   7.932   2.712   5.776
 2206TIP3    H2 6562   7.939   2.774   5.638
 2207TIP3   OH2 6563   7.671   4.404   0.490
 2207TIP3    H1 6564   7.720   4.327   0.518
 2207TIP3    H2 6565   7.737   4.462   0.452
 2208TIP3   OH2 6566   4.230   0.048   3.890
 2208TIP3    H1 6567   4.228  -0.048   3.881
 2208TIP3    H2 6568   4.321   0.068   3.911
 2209TIP3   OH2 6569   2.502   6.752   3.918
 2209TIP3    H1 6570   2.556   6.674   3.928
 2209TIP3    H2 6571   2.500   6.792   4.005
 2210TIP3   OH2 6572   7.727   5.835   3.573
 2210TIP3    H1 6573   7.709   5.888   3.495
 2210TIP3    H2 6574   7.800   5.880   3.616
 2211TIP3   OH2 6575   6.267   4.141   6.098
 2211TIP3    H1 6576   6.278   4.215   6.158
 2211TIP3    H2 6577   6.207   4.082   6.144
 2212TIP3   OH2 6578   4.877   0.985   2.081
 2212TIP3    H1 6579   4.970   1.007   2.072
 2212TIP3    H2 6580   4.850   1.028   2.162
 2213TIP3   OH2 6581   8.225   7.031   2.355
 2213TIP3    H1 6582   8.193   6.954   2.308
 2213TIP3    H2 6583   8.315   7.009   2.379
 2214TIP3   OH2 6584   2.696   7.339   0.495
 2214TIP3    H1 6585   2.697   7.373   0.584
 2214TIP3    H2 6586   2.762   7.391   0.449
 2215TIP3   OH2 6587   6.436   3.336   0.785
 2215TIP3    H1 6588   6.415   3.329   0.693
 2215TIP3    H2 6589   6.352   3.329   0.830
 2216TIP3   OH2 6590   7.623   6.333   5.032
 2216TIP3    H1 6591   7.579   6.313   5.114
 2216TIP3    H2 6592   7.552   6.350   4.970
 2217TIP3   OH2 6593   3.652   7.683   6.377
 2217TIP3    H1 6594   3.596   7.716   6.307
 2217TIP3    H2 6595   3.591   7.655   6.446
 2218TIP3   OH2 6596   1.063   2.694   4.532
 2218TIP3    H1 6597   1.052   2.604   4.563
 2218TIP3    H2 6598   1.039   2.748   4.607
 2219TIP3   OH2 6599   6.387   7.428   1.093
 2219TIP3    H1 6600   6.413   7.466   1.177
 2219TIP3    H2 6601   6.304   7.383   1.111
 2220TIP3   OH2 6602   6.164   7.234   0.118
 2220TIP3    H1 6603   6.120   7.227   0.202
 2220TIP3    H2 6604   6.095   7.253   0.056
 2221TIP3   OH2 6605   5.538   6.086   4.404
 2221TIP3    H1 6606   5.629   6.092   4.433
 2221TIP3    H2 6607   5.486   6.097   4.484
 2222TIP3   OH2 6608   3.728   5.009   2.392
 2222TIP3    H1 6609   3.686   5.051   2.317
 2222TIP3    H2 6610   3.744   5.080   2.454
 2223TIP3   OH2 6611   5.141   1.432   3.650
 2223TIP3    H1 6612   5.235   1.440   3.635
 2223TIP3    H2 6613   5.132   1.357   3.709
 2224TIP3   OH2 6614   7.862   2.942   5.950
 2224TIP3    H1 6615   7.879   2.903   5.864
 2224TIP3    H2 6616   7.896   3.031   5.943
 2225TIP3   OH2 6617   2.620   2.454   4.938
 2225TIP3    H1 6618   2.649   2.521   4.876
 2225TIP3    H2 6619   2.537   2.487   4.972
 2226TIP3   OH2 6620   3.535   3.809   0.533
 2226TIP3    H1 6621   3.519   3.807   0.627
 2226TIP3    H2 6622   3.617   3.858   0.524
 2227TIP3   OH2 6623   1.083   0.320   0.551
 2227TIP3    H1 6624   1.032   0.286   0.477
 2227TIP3    H2 6625   1.086   0.414   0.536
 2228TIP3   OH2 6626   3.737   4.886   2.068
 2228TIP3    H1 6627   3.706   4.833   2.142
 2228TIP3    H2 6628   3.720   4.976   2.094
 2229TIP3   OH2 6629   6.253   4.427   0.175
 2229TIP3    H1 6630   6.307   4.465   0.106
 2229TIP3    H2 6631   6.229   4.340   0.142
 2230TIP3   OH2 6632   4.671   5.754   3.428
 2230TIP3    H1 6633   4.602   5.809   3.391
 2230TIP3    H2 6634   4.699   5.801   3.507
 2231TIP3   OH2 6635   3.929   4.104   6.552
 2231TIP3    H1 6636   4.009   4.128   6.598
 2231TIP3    H2 6637   3.861   4.109   6.620
 2232TIP3   OH2 6638   2.424   2.042   5.812
 2232TIP3    H1 6639   2.503   2.075   5.854
 2232TIP3    H2 6640   2.442   2.047   5.719
 2233TIP3   OH2 6641   5.298   6.284   2.503
 2233TIP3    H1 6642   5.269   6.319   2.587
 2233TIP3    H2 6643   5.318   6.192   2.520
 2234TIP3   OH2 6644   6.630   0.858   4.332
 2234TIP3    H1 6645   6.681   0.808   4.269
 2234TIP3    H2 6646   6.541   0.822   4.325
 2235TIP3   OH2 6647   1.167   0.778   3.310
 2235TIP3    H1 6648   1.239   0.816   3.260
 2235TIP3    H2 6649   1.098   0.844   3.305
 2236TIP3   OH2 6650   0.721   0.365   4.884
 2236TIP3    H1 6651   0.657   0.377   4.955
 2236TIP3    H2 6652   0.670   0.324   4.814
 2237TIP3   OH2 6653   2.905   5.167   5.184
 2237TIP3    H1 6654   2.984   5.183   5.235
 2237TIP3    H2 6655   2.935   5.121   5.106
 2238TIP3   OH2 6656   5.550   0.069   2.973
 2238TIP3    H1 6657   5.564   0.157   3.008
 2238TIP3    H2 6658   5.502   0.023   3.041
 2239TIP3   OH2 6659   3.602   4.921   4.391
 2239TIP3    H1 6660   3.663   4.852   4.362
 2239TIP3    H2 6661   3.550   4.879   4.459
 2240TIP3   OH2 6662   2.548   1.744   4.479
 2240TIP3    H1 6663   2.456   1.766   4.463
 2240TIP3    H2 6664   2.575   1.696   4.401
 2241TIP3   OH2 6665   1.264   6.309   1.066
 2241TIP3    H1 6666   1.303   6.378   1.119
 2241TIP3    H2 6667   1.328   6.238   1.066
 2242TIP3   OH2 6668   1.764   0.628   3.750
 2242TIP3    H1 6669   1.714   0.702   3.716
 2242TIP3    H2 6670   1.812   0.662   3.824
 2243TIP3   OH2 6671   1.380   7.629   3.104
 2243TIP3    H1 6672   1.421   7.574   3.037
 2243TIP3    H2 6673   1.427   7.607   3.185
 2244TIP3   OH2 6674   3.079   7.472   4.861
 2244TIP3    H1 6675   3.131   7.409   4.811
 2244TIP3    H2 6676   2.988   7.453   4.836
 2245TIP3   OH2 6677   6.401   1.443   1.404
 2245TIP3    H1 6678   6.424   1.376   1.340
 2245TIP3    H2 6679   6.406   1.398   1.489
 2246TIP3   OH2 6680   7.821   4.184   0.806
 2246TIP3    H1 6681   7.776   4.149   0.729
 2246TIP3    H2 6682   7.890   4.121   0.824
 2247TIP3   OH2 6683   1.873   2.707   2.097
 2247TIP3    H1 6684   1.963   2.739   2.101
 2247TIP3    H2 6685   1.844   2.730   2.009
 2248TIP3   OH2 6686   1.560   0.801   2.853
 2248TIP3    H1 6687   1.544   0.827   2.944
 2248TIP3    H2 6688   1.518   0.869   2.800
 2249TIP3   OH2 6689   3.376   5.340   4.336
 2249TIP3    H1 6690   3.440   5.385   4.281
 2249TIP3    H2 6691   3.409   5.250   4.342
 2250TIP3   OH2 6692   2.048   1.575   1.549
 2250TIP3    H1 6693   2.143   1.566   1.555
 2250TIP3    H2 6694   2.025   1.526   1.470
 2251TIP3   OH2 6695   1.017   3.219   2.230
 2251TIP3    H1 6696   1.020   3.276   2.153
 2251TIP3    H2 6697   0.924   3.205   2.246
 2252TIP3   OH2 6698   2.649   6.770   5.864
 2252TIP3    H1 6699   2.569   6.718   5.865
 2252TIP3    H2 6700   2.690   6.753   5.949
 2253TIP3   OH2 6701   5.249   3.521   0.537
 2253TIP3    H1 6702   5.212   3.585   0.476
 2253TIP3    H2 6703   5.322   3.483   0.489
 2254TIP3   OH2 6704   1.533   7.217   5.045
 2254TIP3    H1 6705   1.585   7.146   5.009
 2254TIP3    H2 6706   1.442   7.187   5.039
 2255TIP3   OH2 6707   3.094   4.609   2.001
 2255TIP3    H1 6708   3.074   4.687   2.053
 2255TIP3    H2 6709   3.124   4.643   1.917
 2256TIP3   OH2 6710   4.746   2.115   0.116
 2256TIP3    H1 6711   4.732   2.053   0.045
 2256TIP3    H2 6712   4.835   2.147   0.103
 2257TIP3   OH2 6713   4.737   2.345   5.469
 2257TIP3    H1 6714   4.751   2.390   5.552
 2257TIP3    H2 6715   4.694   2.263   5.494
 2258TIP3   OH2 6716   3.068   5.760   3.609
 2258TIP3    H1 6717   3.075   5.701   3.684
 2258TIP3    H2 6718   3.059   5.702   3.533
 2259TIP3   OH2 6719   1.997   1.328   4.774
 2259TIP3    H1 6720   2.044   1.379   4.840
 2259TIP3    H2 6721   2.065   1.284   4.724
 2260TIP3   OH2 6722   0.104   6.110   6.216
 2260TIP3    H1 6723   0.110   6.169   6.141
 2260TIP3    H2 6724   0.105   6.022   6.177
 2261TIP3   OH2 6725   4.332   5.252   5.021
 2261TIP3    H1 6726   4.351   5.186   4.954
 2261TIP3    H2 6727   4.354   5.209   5.104
 2262TIP3   OH2 6728   6.740   1.262   0.704
 2262TIP3    H1 6729   6.822   1.257   0.753
 2262TIP3    H2 6730   6.699   1.343   0.734
 2263TIP3   OH2 6731   3.575   3.539   0.943
 2263TIP3    H1 6732   3.528   3.459   0.919
 2263TIP3    H2 6733   3.664   3.509   0.964
 2264TIP3   OH2 6734   4.719   3.748   5.430
 2264TIP3    H1 6735   4.785   3.692   5.471
 2264TIP3    H2 6736   4.673   3.789   5.504
 2265TIP3   OH2 6737   7.717   6.015   0.565
 2265TIP3    H1 6738   7.643   6.056   0.522
 2265TIP3    H2 6739   7.712   6.044   0.656
 2266TIP3   OH2 6740   2.633   4.538   5.686
 2266TIP3    H1 6741   2.572   4.466   5.675
 2266TIP3    H2 6742   2.718   4.502   5.660
 2267TIP3   OH2 6743   3.804   7.255   4.827
 2267TIP3    H1 6744   3.861   7.207   4.887
 2267TIP3    H2 6745   3.731   7.284   4.881
 2268TIP3   OH2 6746   1.719   7.827   3.972
 2268TIP3    H1 6747   1.756   7.739   3.968
 2268TIP3    H2 6748   1.796   7.885   3.973
 2269TIP3   OH2 6749   5.395   0.221   1.166
 2269TIP3    H1 6750   5.390   0.260   1.253
 2269TIP3    H2 6751   5.352   0.136   1.175
 2270TIP3   OH2 6752   3.103   2.013   5.650
 2270TIP3    H1 6753   3.193   2.041   5.635
 2270TIP3    H2 6754   3.112   1.931   5.699
 2271TIP3   OH2 6755   0.445   6.465   3.664
 2271TIP3    H1 6756   0.462   6.478   3.757
 2271TIP3    H2 6757   0.518   6.413   3.633
 2272TIP3   OH2 6758   3.131   6.667   1.805
 2272TIP3    H1 6759   3.087   6.654   1.888
 2272TIP3    H2 6760   3.080   6.734   1.761
 2273TIP3   OH2 6761   4.431   3.613   0.651
 2273TIP3    H1 6762   4.522   3.645   0.654
 2273TIP3    H2 6763   4.387   3.672   0.589
 2274TIP3   OH2 6764   1.580   0.508   5.727
 2274TIP3    H1 6765   1.515   0.528   5.794
 2274TIP3    H2 6766   1.536   0.526   5.644
 2275TIP3   OH2 6767   2.560   3.464   2.666
 2275TIP3    H1 6768   2.567   3.528   2.595
 2275TIP3    H2 6769   2.563   3.517   2.746
 2276TIP3   OH2 6770   7.781   2.359   6.510
 2276TIP3    H1 6771   7.807   2.361   6.602
 2276TIP3    H2 6772   7.818   2.439   6.474
 2277TIP3   OH2 6773   3.569   2.742   0.864
 2277TIP3    H1 6774   3.489   2.747   0.916
 2277TIP3    H2 6775   3.563   2.816   0.803
 2278TIP3   OH2 6776   2.288   4.319   1.322
 2278TIP3    H1 6777   2.281   4.266   1.401
 2278TIP3    H2 6778   2.203   4.308   1.278
 2279TIP3   OH2 6779   5.297   4.148   1.904
 2279TIP3    H1 6780   5.294   4.061   1.864
 2279TIP3    H2 6781   5.213   4.188   1.881
 2280TIP3   OH2 6782   7.898   0.083   0.447
 2280TIP3    H1 6783   7.805   0.105   0.450
 2280TIP3    H2 6784   7.900  -0.006   0.412
 2281TIP3   OH2 6785   2.493   0.451   4.824
 2281TIP3    H1 6786   2.588   0.439   4.819
 2281TIP3    H2 6787   2.481   0.537   4.864
 2282TIP3   OH2 6788   1.387   5.369   3.252
 2282TIP3    H1 6789   1.346   5.351   3.167
 2282TIP3    H2 6790   1.326   5.429   3.295
 2283TIP3   OH2 6791   7.352   0.251   3.931
 2283TIP3    H1 6792   7.293   0.224   4.001
 2283TIP3    H2 6793   7.429   0.286   3.975
 2284TIP3   OH2 6794   4.897   0.352   3.076
 2284TIP3    H1 6795   4.831   0.358   3.006
 2284TIP3    H2 6796   4.969   0.408   3.047
 2285TIP3   OH2 6797   7.830   2.174   5.698
 2285TIP3    H1 6798   7.773   2.251   5.688
 2285TIP3    H2 6799   7.894   2.200   5.765
 2286TIP3   OH2 6800   4.083   6.999   0.646
 2286TIP3    H1 6801   4.131   6.959   0.573
 2286TIP3    H2 6802   3.997   7.020   0.609
 2287TIP3   OH2 6803   3.138   1.487   3.767
 2287TIP3    H1 6804   3.086   1.526   3.696
 2287TIP3    H2 6805   3.149   1.396   3.741
 2288TIP3   OH2 6806   6.378   3.619   3.176
 2288TIP3    H1 6807   6.407   3.629   3.266
 2288TIP3    H2 6808   6.393   3.705   3.136
 2289TIP3   OH2 6809   7.022   0.411   0.137
 2289TIP3    H1 6810   7.056   0.322   0.145
 2289TIP3    H2 6811   7.100   0.466   0.129
 2290TIP3   OH2 6812   6.213   2.907   6.023
 2290TIP3    H1 6813   6.129   2.866   6.002
 2290TIP3    H2 6814   6.236   2.872   6.109
 2291TIP3   OH2 6815   5.866   4.452   2.554
 2291TIP3    H1 6816   5.856   4.546   2.570
 2291TIP3    H2 6817   5.834   4.411   2.634
 2292TIP3   OH2 6818   1.739   0.487   4.475
 2292TIP3    H1 6819   1.764   0.450   4.559
 2292TIP3    H2 6820   1.665   0.433   4.446
 2293TIP3   OH2 6821   7.181   7.366   1.514
 2293TIP3    H1 6822   7.219   7.280   1.531
 2293TIP3    H2 6823   7.162   7.402   1.601
 2294TIP3   OH2 6824   7.996   5.137   4.634
 2294TIP3    H1 6825   8.045   5.055   4.638
 2294TIP3    H2 6826   8.046   5.197   4.689
 2295TIP3   OH2 6827   5.915   1.533   3.448
 2295TIP3    H1 6828   5.915   1.606   3.510
 2295TIP3    H2 6829   5.969   1.466   3.491
 2296TIP3   OH2 6830   0.736   1.294   2.704
 2296TIP3    H1 6831   0.703   1.378   2.737
 2296TIP3    H2 6832   0.657   1.241   2.690
 2297TIP3   OH2 6833   3.725   6.523   2.757
 2297TIP3    H1 6834   3.744   6.590   2.822
 2297TIP3    H2 6835   3.762   6.557   2.676
 2298TIP3   OH2 6836   1.443   5.612   0.760
 2298TIP3    H1 6837   1.482   5.525   0.770
 2298TIP3    H2 6838   1.368   5.612   0.820
 2299TIP3   OH2 6839   7.272   4.918   2.236
 2299TIP3    H1 6840   7.242   4.890   2.149
 2299TIP3    H2 6841   7.205   4.886   2.296
 2300TIP3   OH2 6842   3.437   2.675   5.119
 2300TIP3    H1 6843   3.343   2.678   5.102
 2300TIP3    H2 6844   3.460   2.764   5.144
 2301TIP3   OH2 6845   4.360   1.350   6.444
 2301TIP3    H1 6846   4.354   1.353   6.539
 2301TIP3    H2 6847   4.280   1.392   6.413
 2302TIP3   OH2 6848   5.620   7.000   5.374
 2302TIP3    H1 6849   5.676   6.964   5.305
 2302TIP3    H2 6850   5.670   6.987   5.454
 2303TIP3   OH2 6851   3.094   2.397   1.060
 2303TIP3    H1 6852   3.185   2.391   1.090
 2303TIP3    H2 6853   3.094   2.351   0.976
 2304TIP3   OH2 6854   7.793   0.093   3.602
 2304TIP3    H1 6855   7.866   0.037   3.575
 2304TIP3    H2 6856   7.720   0.063   3.548
 2305TIP3   OH2 6857   8.029   7.697   4.033
 2305TIP3    H1 6858   7.949   7.741   4.062
 2305TIP3    H2 6859   8.000   7.610   4.005
 2306TIP3   OH2 6860   7.320   7.352   0.820
 2306TIP3    H1 6861   7.251   7.353   0.752
 2306TIP3    H2 6862   7.273   7.365   0.902
 2307TIP3   OH2 6863   4.972   2.662   6.724
 2307TIP3    H1 6864   4.951   2.630   6.636
 2307TIP3    H2 6865   4.926   2.603   6.783
 2308TIP3   OH2 6866   7.179   6.529   0.573
 2308TIP3    H1 6867   7.157   6.437   0.559
 2308TIP3    H2 6868   7.262   6.542   0.527
 2309TIP3   OH2 6869   5.606   6.487   3.743
 2309TIP3    H1 6870   5.600   6.465   3.650
 2309TIP3    H2 6871   5.518   6.476   3.777
 2310TIP3   OH2 6872   1.520   4.443   0.937
 2310TIP3    H1 6873   1.455   4.508   0.966
 2310TIP3    H2 6874   1.595   4.458   0.994
 2311TIP3   OH2 6875   1.630   2.143   0.823
 2311TIP3    H1 6876   1.617   2.075   0.889
 2311TIP3    H2 6877   1.583   2.111   0.746
 2312TIP3   OH2 6878   5.444   6.832   0.672
 2312TIP3    H1 6879   5.476   6.898   0.734
 2312TIP3    H2 6880   5.387   6.776   0.724
 2313TIP3   OH2 6881   5.822   3.744   3.450
 2313TIP3    H1 6882   5.894   3.799   3.417
 2313TIP3    H2 6883   5.866   3.667   3.487
 2314TIP3   OH2 6884   1.347   4.565   3.898
 2314TIP3    H1 6885   1.442   4.560   3.903
 2314TIP3    H2 6886   1.329   4.647   3.852
 2315TIP3   OH2 6887   2.005   2.487   0.810
 2315TIP3    H1 6888   2.034   2.477   0.900
 2315TIP3    H2 6889   1.970   2.401   0.786
 2316TIP3   OH2 6890   6.142   5.607   2.553
 2316TIP3    H1 6891   6.175   5.523   2.588
 2316TIP3    H2 6892   6.199   5.673   2.594
 2317TIP3   OH2 6893   5.378   6.699   6.429
 2317TIP3    H1 6894   5.389   6.784   6.386
 2317TIP3    H2 6895   5.422   6.707   6.513
 2318TIP3   OH2 6896   4.138   3.630   2.513
 2318TIP3    H1 6897   4.059   3.580   2.534
 2318TIP3    H2 6898   4.196   3.565   2.472
 2319TIP3   OH2 6899   3.381   0.958   6.578
 2319TIP3    H1 6900   3.303   0.994   6.620
 2319TIP3    H2 6901   3.449   0.963   6.645
 2320TIP3   OH2 6902   8.000   5.961   6.523
 2320TIP3    H1 6903   8.060   6.015   6.472
 2320TIP3    H2 6904   7.915   6.004   6.514
 2321TIP3   OH2 6905   7.334   6.061   5.940
 2321TIP3    H1 6906   7.322   6.110   6.021
 2321TIP3    H2 6907   7.423   6.027   5.945
 2322TIP3   OH2 6908   0.419   2.641   0.219
 2322TIP3    H1 6909   0.423   2.732   0.247
 2322TIP3    H2 6910   0.490   2.598   0.266
 2323TIP3   OH2 6911   4.218   2.557   5.876
 2323TIP3    H1 6912   4.243   2.470   5.843
 2323TIP3    H2 6913   4.267   2.618   5.820
 2324TIP3   OH2 6914   1.347   5.290   2.985
 2324TIP3    H1 6915   1.413   5.350   2.952
 2324TIP3    H2 6916   1.375   5.204   2.955
 2325TIP3   OH2 6917   3.884   0.384   2.512
 2325TIP3    H1 6918   3.939   0.399   2.436
 2325TIP3    H2 6919   3.801   0.352   2.476
 2326TIP3   OH2 6920   7.977   6.695   2.480
 2326TIP3    H1 6921   7.949   6.634   2.548
 2326TIP3    H2 6922   7.902   6.701   2.421
 2327TIP3   OH2 6923   0.252   5.321   6.515
 2327TIP3    H1 6924   0.203   5.381   6.459
 2327TIP3    H2 6925   0.231   5.350   6.604
 2328TIP3   OH2 6926   1.808   0.262   3.683
 2328TIP3    H1 6927   1.823   0.292   3.593
 2328TIP3    H2 6928   1.747   0.326   3.720
 2329TIP3   OH2 6929   5.629   2.378   6.577
 2329TIP3    H1 6930   5.623   2.443   6.507
 2329TIP3    H2 6931   5.553   2.397   6.633
 2330TIP3   OH2 6932   8.102   2.695   0.873
 2330TIP3    H1 6933   8.031   2.631   0.886
 2330TIP3    H2 6934   8.165   2.675   0.942
 2331TIP3   OH2 6935   1.654   6.142   0.157
 2331TIP3    H1 6936   1.627   6.081   0.088
 2331TIP3    H2 6937   1.738   6.108   0.187
 2332TIP3   OH2 6938   8.276   3.401   0.760
 2332TIP3    H1 6939   8.239   3.428   0.844
 2332TIP3    H2 6940   8.219   3.329   0.730
 2333TIP3   OH2 6941   7.222   1.682   2.747
 2333TIP3    H1 6942   7.152   1.723   2.695
 2333TIP3    H2 6943   7.257   1.614   2.690
 2334TIP3   OH2 6944   6.384   0.736   6.276
 2334TIP3    H1 6945   6.311   0.713   6.333
 2334TIP3    H2 6946   6.344   0.754   6.191
 2335TIP3   OH2 6947   1.676   3.452   1.919
 2335TIP3    H1 6948   1.731   3.530   1.928
 2335TIP3    H2 6949   1.710   3.390   1.984
 2336TIP3   OH2 6950   1.002   6.429   5.116
 2336TIP3    H1 6951   1.093   6.398   5.116
 2336TIP3    H2 6952   1.009   6.523   5.133
 2337TIP3   OH2 6953   3.399   0.667   6.154
 2337TIP3    H1 6954   3.369   0.745   6.107
 2337TIP3    H2 6955   3.415   0.602   6.084
 2338TIP3   OH2 6956   3.363   5.978   5.099
 2338TIP3    H1 6957   3.413   6.028   5.034
 2338TIP3    H2 6958   3.284   6.030   5.114
 2339TIP3   OH2 6959   1.788   0.011   0.611
 2339TIP3    H1 6960   1.777   0.093   0.659
 2339TIP3    H2 6961   1.778  -0.057   0.677
 2340TIP3   OH2 6962   2.251   6.581   4.880
 2340TIP3    H1 6963   2.264   6.534   4.798
 2340TIP3    H2 6964   2.184   6.646   4.861
 2341TIP3   OH2 6965   7.140   0.388   0.752
 2341TIP3    H1 6966   7.093   0.463   0.715
 2341TIP3    H2 6967   7.174   0.342   0.675
 2342TIP3   OH2 6968   3.467   3.141   2.814
 2342TIP3    H1 6969   3.518   3.178   2.742
 2342TIP3    H2 6970   3.473   3.046   2.801
 2343TIP3   OH2 6971   1.872   0.495   1.426
 2343TIP3    H1 6972   1.819   0.449   1.361
 2343TIP3    H2 6973   1.955   0.514   1.381
 2344TIP3   OH2 6974   3.558   2.170   0.650
 2344TIP3    H1 6975   3.645   2.211   0.654
 2344TIP3    H2 6976   3.556   2.129   0.563
 2345TIP3   OH2 6977   1.783   2.197   1.182
 2345TIP3    H1 6978   1.843   2.244   1.240
 2345TIP3    H2 6979   1.821   2.110   1.173
 2346TIP3   OH2 6980   0.842   3.578   3.952
 2346TIP3    H1 6981   0.890   3.651   3.914
 2346TIP3    H2 6982   0.806   3.531   3.877
 2347TIP3   OH2 6983   2.706   0.703   2.289
 2347TIP3    H1 6984   2.708   0.652   2.208
 2347TIP3    H2 6985   2.638   0.661   2.342
 2348TIP3   OH2 6986   1.311   4.782   1.555
 2348TIP3    H1 6987   1.324   4.877   1.556
 2348TIP3    H2 6988   1.349   4.752   1.638
 2349TIP3   OH2 6989   6.444   0.349   2.167
 2349TIP3    H1 6990   6.536   0.325   2.182
 2349TIP3    H2 6991   6.422   0.405   2.242
 2350TIP3   OH2 6992   7.750   7.182   4.374
 2350TIP3    H1 6993   7.801   7.208   4.451
 2350TIP3    H2 6994   7.750   7.260   4.319
 2351TIP3   OH2 6995   4.279   0.618   5.956
 2351TIP3    H1 6996   4.342   0.607   5.884
 2351TIP3    H2 6997   4.204   0.563   5.930
 2352TIP3   OH2 6998   4.444   3.634   6.607
 2352TIP3    H1 6999   4.480   3.675   6.685
 2352TIP3    H2 7000   4.467   3.541   6.616
 2353TIP3   OH2 7001   8.039   1.901   3.596
 2353TIP3    H1 7002   8.092   1.850   3.535
 2353TIP3    H2 7003   8.083   1.986   3.601
 2354TIP3   OH2 7004   1.416   5.609   4.305
 2354TIP3    H1 7005   1.398   5.680   4.244
 2354TIP3    H2 7006   1.335   5.558   4.309
 2355TIP3   OH2 7007   6.507   2.777   3.829
 2355TIP3    H1 7008   6.553   2.808   3.751
 2355TIP3    H2 7009   6.564   2.799   3.902
 2356TIP3   OH2 7010   6.428   0.358   6.596
 2356TIP3    H1 7011   6.405   0.441   6.637
 2356TIP3    H2 7012   6.364   0.346   6.526
 2357TIP3   OH2 7013   4.921   5.071   2.398
 2357TIP3    H1 7014   4.917   4.997   2.458
 2357TIP3    H2 7015   4.970   5.038   2.322
 2358TIP3   OH2 7016   4.993   5.457   5.879
 2358TIP3    H1 7017   4.980   5.513   5.802
 2358TIP3    H2 7018   4.990   5.368   5.844
 2359TIP3   OH2 7019   4.590   5.581   2.070
 2359TIP3    H1 7020   4.569   5.521   2.143
 2359TIP3    H2 7021   4.517   5.572   2.010
 2360TIP3   OH2 7022   4.639   0.107   1.351
 2360TIP3    H1 7023   4.701   0.177   1.374
 2360TIP3    H2 7024   4.555   0.152   1.341
 2361TIP3   OH2 7025   5.334   0.952   4.486
 2361TIP3    H1 7026   5.330   0.900   4.405
 2361TIP3    H2 7027   5.418   0.998   4.481
 2362TIP3   OH2 7028   1.436   6.832   4.836
 2362TIP3    H1 7029   1.501   6.882   4.886
 2362TIP3    H2 7030   1.351   6.860   4.872
 2363TIP3   OH2 7031   1.897   2.977   2.714
 2363TIP3    H1 7032   1.922   2.988   2.806
 2363TIP3    H2 7033   1.886   3.066   2.681
 2364TIP3   OH2 7034   1.363   7.329   4.780
 2364TIP3    H1 7035   1.343   7.240   4.810
 2364TIP3    H2 7036   1.308   7.340   4.701
 2365TIP3   OH2 7037   7.865   3.678   2.958
 2365TIP3    H1 7038   7.938   3.736   2.980
 2365TIP3    H2 7039   7.891   3.593   2.993
 2366TIP3   OH2 7040   6.982   7.209   1.369
 2366TIP3    H1 7041   6.913   7.270   1.343
 2366TIP3    H2 7042   7.047   7.264   1.413
 2367TIP3   OH2 7043   4.988   7.815   2.412
 2367TIP3    H1 7044   4.960   7.782   2.327
 2367TIP3    H2 7045   4.991   7.738   2.468
 2368TIP3   OH2 7046   1.827   0.900   2.901
 2368TIP3    H1 7047   1.740   0.872   2.873
 2368TIP3    H2 7048   1.821   0.908   2.996
 2369TIP3   OH2 7049   3.526   6.537   1.342
 2369TIP3    H1 7050   3.463   6.468   1.323
 2369TIP3    H2 7051   3.604   6.491   1.374
 2370TIP3   OH2 7052   8.246   1.245   0.079
 2370TIP3    H1 7053   8.167   1.294   0.105
 2370TIP3    H2 7054   8.269   1.280  -0.007
 2371TIP3   OH2 7055   7.663   2.814   2.287
 2371TIP3    H1 7056   7.719   2.882   2.324
 2371TIP3    H2 7057   7.645   2.844   2.198
 2372TIP3   OH2 7058   7.280   1.427   2.874
 2372TIP3    H1 7059   7.265   1.513   2.834
 2372TIP3    H2 7060   7.225   1.367   2.823
 2373TIP3   OH2 7061   8.001   5.794   2.297
 2373TIP3    H1 7062   8.006   5.716   2.353
 2373TIP3    H2 7063   7.979   5.865   2.357
 2374TIP3   OH2 7064   4.169   2.341   1.068
 2374TIP3    H1 7065   4.095   2.281   1.075
 2374TIP3    H2 7066   4.148   2.412   1.129
 2375TIP3   OH2 7067   2.115   4.111   4.173
 2375TIP3    H1 7068   2.030   4.071   4.154
 2375TIP3    H2 7069   2.099   4.206   4.169
 2376TIP3   OH2 7070   2.057   7.178   1.146
 2376TIP3    H1 7071   1.975   7.135   1.122
 2376TIP3    H2 7072   2.126   7.123   1.108
 2377TIP3   OH2 7073   4.773   3.369   2.556
 2377TIP3    H1 7074   4.862   3.404   2.546
 2377TIP3    H2 7075   4.721   3.444   2.587
 2378TIP3   OH2 7076   2.496   7.158   0.141
 2378TIP3    H1 7077   2.501   7.249   0.173
 2378TIP3    H2 7078   2.430   7.161   0.072
 2379TIP3   OH2 7079   1.936   5.314   0.496
 2379TIP3    H1 7080   2.001   5.383   0.486
 2379TIP3    H2 7081   1.891   5.311   0.412
 2380TIP3   OH2 7082   3.760   2.592   6.604
 2380TIP3    H1 7083   3.669   2.566   6.615
 2380TIP3    H2 7084   3.810   2.514   6.624
 2381TIP3   OH2 7085   6.215   5.916   4.811
 2381TIP3    H1 7086   6.161   5.937   4.735
 2381TIP3    H2 7087   6.151   5.897   4.880
 2382TIP3   OH2 7088   1.818   1.329   6.375
 2382TIP3    H1 7089   1.746   1.392   6.369
 2382TIP3    H2 7090   1.779   1.245   6.350
 2383TIP3   OH2 7091   3.440   0.741   5.102
 2383TIP3    H1 7092   3.452   0.648   5.121
 2383TIP3    H2 7093   3.469   0.751   5.011
 2384TIP3   OH2 7094   7.708   3.335   5.361
 2384TIP3    H1 7095   7.745   3.357   5.276
 2384TIP3    H2 7096   7.628   3.286   5.340
 2385TIP3   OH2 7097   4.094   6.165   0.890
 2385TIP3    H1 7098   4.086   6.259   0.904
 2385TIP3    H2 7099   4.031   6.145   0.821
 2386TIP3   OH2 7100   7.474   5.153   6.550
 2386TIP3    H1 7101   7.447   5.225   6.607
 2386TIP3    H2 7102   7.475   5.077   6.607
 2387TIP3   OH2 7103   5.544   6.480   1.937
 2387TIP3    H1 7104   5.506   6.392   1.927
 2387TIP3    H2 7105   5.639   6.465   1.935
 2388TIP3   OH2 7106   0.285   6.312   1.085
 2388TIP3    H1 7107   0.312   6.221   1.076
 2388TIP3    H2 7108   0.331   6.357   1.014
 2389TIP3   OH2 7109   1.373   1.393   0.164
 2389TIP3    H1 7110   1.371   1.430   0.252
 2389TIP3    H2 7111   1.322   1.454   0.111
 2390TIP3   OH2 7112   4.547   2.109   2.945
 2390TIP3    H1 7113   4.521   2.199   2.928
 2390TIP3    H2 7114   4.535   2.098   3.040
 2391TIP3   OH2 7115   7.972   6.785   4.426
 2391TIP3    H1 7116   8.066   6.798   4.439
 2391TIP3    H2 7117   7.948   6.853   4.362
 2392TIP3   OH2 7118   3.358   3.480   5.279
 2392TIP3    H1 7119   3.310   3.538   5.221
 2392TIP3    H2 7120   3.300   3.466   5.354
 2393TIP3   OH2 7121   1.887   3.933   6.495
 2393TIP3    H1 7122   1.975   3.898   6.508
 2393TIP3    H2 7123   1.881   3.949   6.401
 2394TIP3   OH2 7124   5.646   0.659   5.040
 2394TIP3    H1 7125   5.685   0.710   4.969
 2394TIP3    H2 7126   5.552   0.675   5.032
 2395TIP3   OH2 7127   3.960   2.675   5.404
 2395TIP3    H1 7128   3.971   2.591   5.448
 2395TIP3    H2 7129   3.998   2.662   5.317
 2396TIP3   OH2 7130   0.596  -0.013   2.785
 2396TIP3    H1 7131   0.681  -0.019   2.829
 2396TIP3    H2 7132   0.598   0.074   2.744
 2397TIP3   OH2 7133   5.542   0.494   0.659
 2397TIP3    H1 7134   5.467   0.519   0.605
 2397TIP3    H2 7135   5.503   0.459   0.739
 2398TIP3   OH2 7136   0.217   6.282   1.368
 2398TIP3    H1 7137   0.190   6.373   1.381
 2398TIP3    H2 7138   0.245   6.277   1.277
 2399TIP3   OH2 7139   8.088   3.327   1.810
 2399TIP3    H1 7140   8.047   3.342   1.725
 2399TIP3    H2 7141   8.033   3.261   1.852
 2400TIP3   OH2 7142   7.797   1.403   0.607
 2400TIP3    H1 7143   7.889   1.400   0.581
 2400TIP3    H2 7144   7.750   1.360   0.536
 2401TIP3   OH2 7145   2.486   5.192   1.766
 2401TIP3    H1 7146   2.505   5.253   1.837
 2401TIP3    H2 7147   2.550   5.214   1.698
 2402TIP3   OH2 7148   1.974   4.021   2.969
 2402TIP3    H1 7149   1.954   4.037   2.877
 2402TIP3    H2 7150   2.068   4.038   2.976
 2403TIP3   OH2 7151   8.144   2.471   5.910
 2403TIP3    H1 7152   8.089   2.393   5.904
 2403TIP3    H2 7153   8.103   2.524   5.978
 2404TIP3   OH2 7154   8.128   3.482   3.258
 2404TIP3    H1 7155   8.201   3.435   3.299
 2404TIP3    H2 7156   8.090   3.534   3.329
 2405TIP3   OH2 7157   7.790   1.792   4.900
 2405TIP3    H1 7158   7.855   1.855   4.868
 2405TIP3    H2 7159   7.824   1.764   4.985
 2406TIP3   OH2 7160   8.026   4.887   1.605
 2406TIP3    H1 7161   7.989   4.869   1.518
 2406TIP3    H2 7162   7.994   4.974   1.627
 2407TIP3   OH2 7163   1.044   3.078   6.552
 2407TIP3    H1 7164   1.007   3.004   6.503
 2407TIP3    H2 7165   0.981   3.149   6.540
 2408TIP3   OH2 7166   2.528   3.612   1.301
 2408TIP3    H1 7167   2.476   3.637   1.378
 2408TIP3    H2 7168   2.523   3.689   1.244
 2409TIP3   OH2 7169   5.418   0.445   4.952
 2409TIP3    H1 7170   5.437   0.366   5.003
 2409TIP3    H2 7171   5.505   0.478   4.926
 2410TIP3   OH2 7172   1.857   6.673   2.497
 2410TIP3    H1 7173   1.830   6.669   2.589
 2410TIP3    H2 7174   1.880   6.765   2.483
 2411TIP3   OH2 7175   6.169   5.546   4.743
 2411TIP3    H1 7176   6.194   5.592   4.823
 2411TIP3    H2 7177   6.161   5.454   4.770
 2412TIP3   OH2 7178   2.380   7.712   0.879
 2412TIP3    H1 7179   2.287   7.705   0.899
 2412TIP3    H2 7180   2.408   7.622   0.860
 2413TIP3   OH2 7181   4.306   2.953   3.891
 2413TIP3    H1 7182   4.371   3.016   3.922
 2413TIP3    H2 7183   4.335   2.869   3.927
 2414TIP3   OH2 7184   2.116   6.426   3.433
 2414TIP3    H1 7185   2.203   6.458   3.409
 2414TIP3    H2 7186   2.068   6.505   3.459
 2415TIP3   OH2 7187   1.260   4.953   2.666
 2415TIP3    H1 7188   1.169   4.927   2.672
 2415TIP3    H2 7189   1.278   4.997   2.749
 2416TIP3   OH2 7190   3.895   3.459   3.336
 2416TIP3    H1 7191   3.818   3.486   3.386
 2416TIP3    H2 7192   3.871   3.473   3.245
 2417TIP3   OH2 7193   2.448   5.469   4.829
 2417TIP3    H1 7194   2.428   5.378   4.847
 2417TIP3    H2 7195   2.535   5.483   4.869
 2418TIP3   OH2 7196   7.959   3.463   5.431
 2418TIP3    H1 7197   7.872   3.427   5.415
 2418TIP3    H2 7198   7.973   3.449   5.525
 2419TIP3   OH2 7199   7.960   1.735   5.864
 2419TIP3    H1 7200   8.019   1.695   5.800
 2419TIP3    H2 7201   8.016   1.757   5.938
 2420TIP3   OH2 7202   2.443   7.809   5.724
 2420TIP3    H1 7203   2.405   7.798   5.637
 2420TIP3    H2 7204   2.468   7.721   5.752
 2421TIP3   OH2 7205   2.702   3.888   0.936
 2421TIP3    H1 7206   2.742   3.930   0.861
 2421TIP3    H2 7207   2.753   3.808   0.949
 2422TIP3   OH2 7208   5.340   4.576   4.374
 2422TIP3    H1 7209   5.385   4.539   4.298
 2422TIP3    H2 7210   5.336   4.670   4.355
 2423TIP3   OH2 7211   5.492   5.195   2.440
 2423TIP3    H1 7212   5.403   5.170   2.417
 2423TIP3    H2 7213   5.548   5.136   2.390
 2424TIP3   OH2 7214   6.380   1.572   5.889
 2424TIP3    H1 7215   6.441   1.638   5.858
 2424TIP3    H2 7216   6.379   1.506   5.819
 2425TIP3   OH2 7217   2.075   5.772   6.085
 2425TIP3    H1 7218   2.077   5.853   6.138
 2425TIP3    H2 7219   2.141   5.787   6.017
 2426TIP3   OH2 7220   1.730   4.732   5.450
 2426TIP3    H1 7221   1.763   4.717   5.539
 2426TIP3    H2 7222   1.675   4.656   5.432
 2427TIP3   OH2 7223   5.530   0.098   1.656
 2427TIP3    H1 7224   5.460   0.162   1.647
 2427TIP3    H2 7225   5.534   0.054   1.571
 2428TIP3   OH2 7226   2.943   4.511   2.811
 2428TIP3    H1 7227   2.984   4.465   2.737
 2428TIP3    H2 7228   2.875   4.451   2.842
 2429TIP3   OH2 7229   4.501   4.537   1.808
 2429TIP3    H1 7230   4.551   4.487   1.744
 2429TIP3    H2 7231   4.552   4.618   1.820
 2430TIP3   OH2 7232   1.061   3.280   3.386
 2430TIP3    H1 7233   1.036   3.369   3.412
 2430TIP3    H2 7234   0.977   3.235   3.374
 2431TIP3   OH2 7235   1.254   4.822   3.789
 2431TIP3    H1 7236   1.224   4.812   3.698
 2431TIP3    H2 7237   1.243   4.915   3.808
 2432TIP3   OH2 7238   4.026   5.108   3.599
 2432TIP3    H1 7239   4.027   5.072   3.688
 2432TIP3    H2 7240   4.013   5.032   3.543
 2433TIP3   OH2 7241   7.773   6.711   3.585
 2433TIP3    H1 7242   7.811   6.791   3.549
 2433TIP3    H2 7243   7.716   6.742   3.655
 2434TIP3   OH2 7244   3.104   3.720   1.420
 2434TIP3    H1 7245   3.009   3.711   1.413
 2434TIP3    H2 7246   3.139   3.651   1.364
 2435TIP3   OH2 7247   7.158   6.006   0.577
 2435TIP3    H1 7248   7.174   6.001   0.671
 2435TIP3    H2 7249   7.229   5.956   0.537
 2436TIP3   OH2 7250   6.521   0.060   4.144
 2436TIP3    H1 7251   6.582   0.021   4.206
 2436TIP3    H2 7252   6.451   0.097   4.198
 2437TIP3   OH2 7253   8.042   6.092   2.353
 2437TIP3    H1 7254   8.122   6.083   2.301
 2437TIP3    H2 7255   7.971   6.084   2.290
 2438TIP3   OH2 7256   5.747   4.465   5.830
 2438TIP3    H1 7257   5.706   4.503   5.907
 2438TIP3    H2 7258   5.841   4.480   5.844
 2439TIP3   OH2 7259   7.998   5.559   6.284
 2439TIP3    H1 7260   7.917   5.590   6.324
 2439TIP3    H2 7261   8.029   5.633   6.231
 2440TIP3   OH2 7262   7.272   5.779   4.691
 2440TIP3    H1 7263   7.340   5.715   4.667
 2440TIP3    H2 7264   7.213   5.780   4.617
 2441TIP3   OH2 7265   5.695   0.679   3.480
 2441TIP3    H1 7266   5.653   0.756   3.520
 2441TIP3    H2 7267   5.661   0.678   3.391
 2442TIP3   OH2 7268   1.697   0.322   1.241
 2442TIP3    H1 7269   1.616   0.355   1.280
 2442TIP3    H2 7270   1.708   0.374   1.161
 2443TIP3   OH2 7271   5.626   1.634   2.433
 2443TIP3    H1 7272   5.647   1.713   2.382
 2443TIP3    H2 7273   5.531   1.625   2.424
 2444TIP3   OH2 7274   3.386   0.394   0.448
 2444TIP3    H1 7275   3.339   0.323   0.491
 2444TIP3    H2 7276   3.369   0.471   0.502
 2445TIP3   OH2 7277   4.787   1.881   5.977
 2445TIP3    H1 7278   4.829   1.796   5.980
 2445TIP3    H2 7279   4.830   1.927   5.905
 2446TIP3   OH2 7280   2.353   7.211   4.291
 2446TIP3    H1 7281   2.324   7.232   4.202
 2446TIP3    H2 7282   2.330   7.288   4.343
 2447TIP3   OH2 7283   7.164   6.815   3.451
 2447TIP3    H1 7284   7.139   6.727   3.423
 2447TIP3    H2 7285   7.245   6.802   3.501
 2448TIP3   OH2 7286   7.265   5.765   0.097
 2448TIP3    H1 7287   7.251   5.789   0.005
 2448TIP3    H2 7288   7.348   5.805   0.120
 2449TIP3   OH2 7289   3.935   1.044   5.058
 2449TIP3    H1 7290   3.870   1.080   5.117
 2449TIP3    H2 7291   3.969   1.120   5.010
 2450TIP3   OH2 7292   3.701   0.695   5.201
 2450TIP3    H1 7293   3.731   0.699   5.110
 2450TIP3    H2 7294   3.653   0.777   5.214
 2451TIP3   OH2 7295   0.596   3.485   3.093
 2451TIP3    H1 7296   0.651   3.524   3.024
 2451TIP3    H2 7297   0.558   3.407   3.052
 2452TIP3   OH2 7298   7.919   1.440   5.752
 2452TIP3    H1 7299   7.913   1.391   5.670
 2452TIP3    H2 7300   7.832   1.432   5.791
 2453TIP3   OH2 7301   0.281   2.092   3.292
 2453TIP3    H1 7302   0.261   2.168   3.236
 2453TIP3    H2 7303   0.313   2.131   3.374
 2454TIP3   OH2 7304   8.085   4.151   2.703
 2454TIP3    H1 7305   8.172   4.189   2.708
 2454TIP3    H2 7306   8.027   4.219   2.735
 2455TIP3   OH2 7307   7.840   2.675   5.019
 2455TIP3    H1 7308   7.790   2.754   5.038
 2455TIP3    H2 7309   7.903   2.667   5.091
 2456TIP3   OH2 7310   1.437   6.595   1.911
 2456TIP3    H1 7311   1.482   6.597   1.827
 2456TIP3    H2 7312   1.383   6.674   1.912
 2457TIP3   OH2 7313   0.233   5.796   5.786
 2457TIP3    H1 7314   0.195   5.749   5.712
 2457TIP3    H2 7315   0.327   5.799   5.767
 2458TIP3   OH2 7316   5.359   1.268   3.038
 2458TIP3    H1 7317   5.335   1.354   3.073
 2458TIP3    H2 7318   5.282   1.213   3.053
 2459TIP3   OH2 7319   1.426   3.703   5.924
 2459TIP3    H1 7320   1.449   3.616   5.893
 2459TIP3    H2 7321   1.333   3.713   5.903
 2460TIP3   OH2 7322   1.159   6.483   0.859
 2460TIP3    H1 7323   1.186   6.567   0.897
 2460TIP3    H2 7324   1.194   6.417   0.918
 2461TIP3   OH2 7325   1.423   2.604   2.313
 2461TIP3    H1 7326   1.498   2.545   2.304
 2461TIP3    H2 7327   1.414   2.618   2.407
 2462TIP3   OH2 7328   5.415   6.291   2.774
 2462TIP3    H1 7329   5.451   6.209   2.740
 2462TIP3    H2 7330   5.492   6.340   2.805
 2463TIP3   OH2 7331   6.838   2.935   0.316
 2463TIP3    H1 7332   6.748   2.961   0.336
 2463TIP3    H2 7333   6.869   3.002   0.255
 2464TIP3   OH2 7334   3.492   5.345   5.488
 2464TIP3    H1 7335   3.503   5.439   5.471
 2464TIP3    H2 7336   3.508   5.336   5.582
 2465TIP3   OH2 7337   2.488   0.813   2.409
 2465TIP3    H1 7338   2.574   0.831   2.371
 2465TIP3    H2 7339   2.462   0.894   2.452
 2466TIP3   OH2 7340   0.238   2.964   1.890
 2466TIP3    H1 7341   0.183   3.038   1.863
 2466TIP3    H2 7342   0.223   2.898   1.823
 2467TIP3   OH2 7343   3.542   3.641   5.070
 2467TIP3    H1 7344   3.448   3.654   5.068
 2467TIP3    H2 7345   3.571   3.684   5.150
 2468TIP3   OH2 7346   5.649   4.159   5.262
 2468TIP3    H1 7347   5.590   4.212   5.208
 2468TIP3    H2 7348   5.736   4.172   5.224
 2469TIP3   OH2 7349   6.814   0.921   3.990
 2469TIP3    H1 7350   6.859   0.926   4.075
 2469TIP3    H2 7351   6.739   0.864   4.006
 2470TIP3   OH2 7352   6.058   6.885   0.850
 2470TIP3    H1 7353   6.110   6.848   0.922
 2470TIP3    H2 7354   6.104   6.966   0.827
 2471TIP3   OH2 7355   3.862   3.917   1.317
 2471TIP3    H1 7356   3.835   3.840   1.266
 2471TIP3    H2 7357   3.943   3.889   1.360
 2472TIP3   OH2 7358   1.716   3.604   3.419
 2472TIP3    H1 7359   1.757   3.534   3.369
 2472TIP3    H2 7360   1.746   3.589   3.509
 2473TIP3   OH2 7361   5.211   6.646   6.129
 2473TIP3    H1 7362   5.299   6.614   6.150
 2473TIP3    H2 7363   5.154   6.571   6.142
 2474TIP3   OH2 7364   4.022   6.743   2.315
 2474TIP3    H1 7365   4.040   6.836   2.324
 2474TIP3    H2 7366   3.949   6.739   2.252
 2475TIP3   OH2 7367   5.096   3.273   0.509
 2475TIP3    H1 7368   5.159   3.274   0.580
 2475TIP3    H2 7369   5.081   3.366   0.489
 2476TIP3   OH2 7370   5.103   5.507   1.458
 2476TIP3    H1 7371   5.125   5.526   1.550
 2476TIP3    H2 7372   5.107   5.412   1.452
 2477TIP3   OH2 7373   4.128   7.681   4.081
 2477TIP3    H1 7374   4.184   7.645   4.012
 2477TIP3    H2 7375   4.188   7.701   4.152
 2478TIP3   OH2 7376   2.590   5.049   0.806
 2478TIP3    H1 7377   2.539   4.996   0.745
 2478TIP3    H2 7378   2.593   4.996   0.886
 2479TIP3   OH2 7379   8.217   2.834   4.854
 2479TIP3    H1 7380   8.212   2.738   4.850
 2479TIP3    H2 7381   8.213   2.862   4.763
 2480TIP3   OH2 7382   4.732   4.050   0.039
 2480TIP3    H1 7383   4.826   4.051   0.020
 2480TIP3    H2 7384   4.710   3.957   0.043
 2481TIP3   OH2 7385   6.314   2.041   2.572
 2481TIP3    H1 7386   6.239   2.061   2.516
 2481TIP3    H2 7387   6.316   2.111   2.636
 2482TIP3   OH2 7388   4.908   4.862   2.571
 2482TIP3    H1 7389   4.855   4.793   2.533
 2482TIP3    H2 7390   4.941   4.825   2.653
 2483TIP3   OH2 7391   2.695   1.043   2.140
 2483TIP3    H1 7392   2.755   0.969   2.131
 2483TIP3    H2 7393   2.665   1.039   2.231
 2484TIP3   OH2 7394   4.404   4.944   0.341
 2484TIP3    H1 7395   4.314   4.973   0.354
 2484TIP3    H2 7396   4.401   4.891   0.262
 2485TIP3   OH2 7397   3.442   6.689   4.008
 2485TIP3    H1 7398   3.447   6.743   3.930
 2485TIP3    H2 7399   3.484   6.607   3.984
 2486TIP3   OH2 7400   8.004   3.796   3.253
 2486TIP3    H1 7401   8.078   3.808   3.313
 2486TIP3    H2 7402   8.043   3.760   3.173
 2487TIP3   OH2 7403   7.686   4.264   2.625
 2487TIP3    H1 7404   7.606   4.249   2.675
 2487TIP3    H2 7405   7.712   4.177   2.593
 2488TIP3   OH2 7406   2.963   0.655   0.091
 2488TIP3    H1 7407   3.025   0.595   0.049
 2488TIP3    H2 7408   2.939   0.717   0.022
 2489TIP3   OH2 7409   3.362   5.205   5.925
 2489TIP3    H1 7410   3.285   5.213   5.868
 2489TIP3    H2 7411   3.356   5.117   5.962
 2490TIP3   OH2 7412   5.336   0.334   2.780
 2490TIP3    H1 7413   5.380   0.260   2.740
 2490TIP3    H2 7414   5.274   0.364   2.713
 2491TIP3   OH2 7415   0.424   3.496   5.137
 2491TIP3    H1 7416   0.482   3.423   5.113
 2491TIP3    H2 7417   0.363   3.458   5.200
 2492TIP3   OH2 7418   0.801   1.229   1.676
 2492TIP3    H1 7419   0.738   1.159   1.693
 2492TIP3    H2 7420   0.778   1.297   1.740
 2493TIP3   OH2 7421   4.322   2.334   3.725
 2493TIP3    H1 7422   4.385   2.288   3.670
 2493TIP3    H2 7423   4.254   2.363   3.664
 2494TIP3   OH2 7424   5.566   7.002   0.259
 2494TIP3    H1 7425   5.517   6.921   0.268
 2494TIP3    H2 7426   5.605   7.017   0.345
 2495TIP3   OH2 7427   3.617   4.389   1.224
 2495TIP3    H1 7428   3.673   4.320   1.190
 2495TIP3    H2 7429   3.575   4.350   1.301
 2496TIP3   OH2 7430   6.854   2.597   6.044
 2496TIP3    H1 7431   6.929   2.542   6.063
 2496TIP3    H2 7432   6.892   2.683   6.023
 2497TIP3   OH2 7433   2.463   3.833   2.944
 2497TIP3    H1 7434   2.383   3.816   2.992
 2497TIP3    H2 7435   2.434   3.860   2.856
 2498TIP3   OH2 7436   2.679   7.200   3.492
 2498TIP3    H1 7437   2.765   7.240   3.501
 2498TIP3    H2 7438   2.631   7.259   3.433
 2499TIP3   OH2 7439   5.566   2.551   5.740
 2499TIP3    H1 7440   5.524   2.637   5.748
 2499TIP3    H2 7441   5.555   2.528   5.648
 2500TIP3   OH2 7442   5.722   5.825   2.295
 2500TIP3    H1 7443   5.664   5.749   2.289
 2500TIP3    H2 7444   5.787   5.800   2.361
 2501TIP3   OH2 7445   3.018   2.522   1.442
 2501TIP3    H1 7446   3.111   2.521   1.465
 2501TIP3    H2 7447   2.973   2.496   1.522
 2502TIP3   OH2 7448   0.122   3.836   1.886
 2502TIP3    H1 7449   0.206   3.851   1.928
 2502TIP3    H2 7450   0.125   3.745   1.856
 2503TIP3   OH2 7451   7.456   3.309   6.277
 2503TIP3    H1 7452   7.532   3.251   6.280
 2503TIP3    H2 7453   7.440   3.323   6.184
 2504TIP3   OH2 7454   0.873   1.368   6.356
 2504TIP3    H1 7455   0.922   1.413   6.287
 2504TIP3    H2 7456   0.790   1.344   6.314
 2505TIP3   OH2 7457   5.747   2.408   1.664
 2505TIP3    H1 7458   5.735   2.475   1.732
 2505TIP3    H2 7459   5.769   2.329   1.713
 2506TIP3   OH2 7460   0.675   5.811   3.750
 2506TIP3    H1 7461   0.658   5.729   3.704
 2506TIP3    H2 7462   0.689   5.876   3.681
 2507TIP3   OH2 7463   0.442   4.015   3.653
 2507TIP3    H1 7464   0.503   3.946   3.679
 2507TIP3    H2 7465   0.494   4.096   3.656
 2508TIP3   OH2 7466   2.190   5.060   5.267
 2508TIP3    H1 7467   2.104   5.035   5.301
 2508TIP3    H2 7468   2.173   5.139   5.215
 2509TIP3   OH2 7469   4.114   2.256   1.631
 2509TIP3    H1 7470   4.181   2.253   1.563
 2509TIP3    H2 7471   4.137   2.183   1.689
 2510TIP3   OH2 7472   2.382   0.873   4.674
 2510TIP3    H1 7473   2.378   0.911   4.586
 2510TIP3    H2 7474   2.304   0.818   4.680
 2511TIP3   OH2 7475   1.895   2.678   4.432
 2511TIP3    H1 7476   1.813   2.632   4.452
 2511TIP3    H2 7477   1.899   2.680   4.336
 2512TIP3   OH2 7478   6.745   4.339   1.687
 2512TIP3    H1 7479   6.653   4.326   1.712
 2512TIP3    H2 7480   6.766   4.262   1.635
 2513TIP3   OH2 7481   0.225   5.543   3.111
 2513TIP3    H1 7482   0.298   5.574   3.058
 2513TIP3    H2 7483   0.167   5.500   3.048
 2514TIP3   OH2 7484   7.114   0.355   3.344
 2514TIP3    H1 7485   7.023   0.326   3.337
 2514TIP3    H2 7486   7.142   0.366   3.253
 2515TIP3   OH2 7487   3.347   1.870   4.879
 2515TIP3    H1 7488   3.259   1.867   4.841
 2515TIP3    H2 7489   3.365   1.963   4.890
 2516TIP3   OH2 7490   4.231   3.170   2.732
 2516TIP3    H1 7491   4.149   3.158   2.778
 2516TIP3    H2 7492   4.209   3.225   2.657
 2517TIP3   OH2 7493   8.232   6.379   3.289
 2517TIP3    H1 7494   8.159   6.439   3.305
 2517TIP3    H2 7495   8.210   6.300   3.338
 2518TIP3   OH2 7496   0.471   6.133   0.723
 2518TIP3    H1 7497   0.460   6.083   0.643
 2518TIP3    H2 7498   0.562   6.119   0.748
 2519TIP3   OH2 7499   5.460   0.366   3.773
 2519TIP3    H1 7500   5.379   0.417   3.785
 2519TIP3    H2 7501   5.443   0.283   3.817
 2520TIP3   OH2 7502   4.914   3.908   3.831
 2520TIP3    H1 7503   4.867   3.868   3.904
 2520TIP3    H2 7504   4.999   3.865   3.830
 2521TIP3   OH2 7505   0.158   7.106   4.229
 2521TIP3    H1 7506   0.170   7.124   4.135
 2521TIP3    H2 7507   0.130   7.190   4.265
 2522TIP3   OH2 7508   2.386   7.706   1.638
 2522TIP3    H1 7509   2.439   7.782   1.661
 2522TIP3    H2 7510   2.395   7.647   1.712
 2523TIP3   OH2 7511   5.833   6.842   2.815
 2523TIP3    H1 7512   5.804   6.840   2.724
 2523TIP3    H2 7513   5.926   6.864   2.810
 2524TIP3   OH2 7514   2.860   3.868   6.108
 2524TIP3    H1 7515   2.821   3.906   6.187
 2524TIP3    H2 7516   2.954   3.884   6.118
 2525TIP3   OH2 7517   0.444   2.515   5.499
 2525TIP3    H1 7518   0.532   2.527   5.535
 2525TIP3    H2 7519   0.448   2.554   5.412
 2526TIP3   OH2 7520   0.045   6.423   1.667
 2526TIP3    H1 7521  -0.035   6.474   1.654
 2526TIP3    H2 7522   0.021   6.334   1.641
 2527TIP3   OH2 7523   4.031   2.088   4.897
 2527TIP3    H1 7524   3.968   2.146   4.854
 2527TIP3    H2 7525   4.032   2.118   4.988
 2528TIP3   OH2 7526   0.785   4.730   5.509
 2528TIP3    H1 7527   0.698   4.701   5.483
 2528TIP3    H2 7528   0.845   4.675   5.458
 2529TIP3   OH2 7529   6.394   2.388   2.592
 2529TIP3    H1 7530   6.399   2.475   2.631
 2529TIP3    H2 7531   6.361   2.332   2.663
 2530TIP3   OH2 7532   5.935   0.035   4.895
 2530TIP3    H1 7533   5.993  -0.039   4.877
 2530TIP3    H2 7534   5.942   0.089   4.816
 2531TIP3   OH2 7535   8.130   5.212   6.671
 2531TIP3    H1 7536   8.150   5.267   6.595
 2531TIP3    H2 7537   8.038   5.231   6.692
 2532TIP3   OH2 7538   3.583   6.017   2.796
 2532TIP3    H1 7539   3.591   5.976   2.883
 2532TIP3    H2 7540   3.589   6.111   2.813
 2533TIP3   OH2 7541   0.667   3.864   3.675
 2533TIP3    H1 7542   0.691   3.848   3.766
 2533TIP3    H2 7543   0.732   3.815   3.624
 2534TIP3   OH2 7544   0.457   4.351   0.858
 2534TIP3    H1 7545   0.367   4.370   0.832
 2534TIP3    H2 7546   0.506   4.348   0.776
 2535TIP3   OH2 7547   6.672   5.545   3.505
 2535TIP3    H1 7548   6.577   5.531   3.504
 2535TIP3    H2 7549   6.685   5.614   3.570
 2536TIP3   OH2 7550   7.806   1.756   2.877
 2536TIP3    H1 7551   7.744   1.811   2.924
 2536TIP3    H2 7552   7.752   1.696   2.826
 2537TIP3   OH2 7553   0.868   7.367   5.879
 2537TIP3    H1 7554   0.773   7.377   5.875
 2537TIP3    H2 7555   0.882   7.287   5.930
 2538TIP3   OH2 7556   3.141   1.025   6.680
 2538TIP3    H1 7557   3.093   0.944   6.695
 2538TIP3    H2 7558   3.123   1.078   6.758
 2539TIP3   OH2 7559   1.056   1.863   1.788
 2539TIP3    H1 7560   1.138   1.900   1.755
 2539TIP3    H2 7561   1.040   1.786   1.732
 2540TIP3   OH2 7562   1.167   4.947   4.681
 2540TIP3    H1 7563   1.185   4.983   4.595
 2540TIP3    H2 7564   1.129   4.861   4.664
 2541TIP3   OH2 7565   1.065   4.564   4.352
 2541TIP3    H1 7566   1.062   4.471   4.331
 2541TIP3    H2 7567   1.141   4.597   4.303
 2542TIP3   OH2 7568   0.784   0.922   0.140
 2542TIP3    H1 7569   0.732   0.916   0.220
 2542TIP3    H2 7570   0.719   0.915   0.069
 2543TIP3   OH2 7571   1.680   4.965   0.022
 2543TIP3    H1 7572   1.742   4.902   0.061
 2543TIP3    H2 7573   1.596   4.920   0.023
 2544TIP3   OH2 7574   1.671   1.593   2.804
 2544TIP3    H1 7575   1.747   1.641   2.771
 2544TIP3    H2 7576   1.600   1.656   2.801
 2545TIP3   OH2 7577   3.621   1.816   1.761
 2545TIP3    H1 7578   3.592   1.827   1.852
 2545TIP3    H2 7579   3.694   1.878   1.752
 2546TIP3   OH2 7580   6.975   1.786   5.852
 2546TIP3    H1 7581   7.050   1.753   5.900
 2546TIP3    H2 7582   6.904   1.787   5.916
 2547TIP3   OH2 7583   7.848   5.764   2.056
 2547TIP3    H1 7584   7.878   5.793   2.142
 2547TIP3    H2 7585   7.907   5.693   2.032
 2548TIP3   OH2 7586   0.943   4.137   5.270
 2548TIP3    H1 7587   0.906   4.217   5.307
 2548TIP3    H2 7588   0.978   4.089   5.345
 2549TIP3   OH2 7589   3.151   3.753   0.238
 2549TIP3    H1 7590   3.103   3.833   0.258
 2549TIP3    H2 7591   3.243   3.776   0.251
 2550TIP3   OH2 7592   3.889   1.653   6.419
 2550TIP3    H1 7593   3.826   1.651   6.491
 2550TIP3    H2 7594   3.855   1.721   6.360
 2551TIP3   OH2 7595   6.431   4.578   4.572
 2551TIP3    H1 7596   6.466   4.661   4.607
 2551TIP3    H2 7597   6.461   4.576   4.481
 2552TIP3   OH2 7598   0.902   0.654   0.595
 2552TIP3    H1 7599   0.855   0.695   0.667
 2552TIP3    H2 7600   0.919   0.726   0.534
 2553TIP3   OH2 7601   6.550   5.247   4.938
 2553TIP3    H1 7602   6.498   5.171   4.910
 2553TIP3    H2 7603   6.597   5.274   4.859
 2554TIP3   OH2 7604   2.428   4.528   4.497
 2554TIP3    H1 7605   2.432   4.493   4.586
 2554TIP3    H2 7606   2.399   4.455   4.443
 2555TIP3   OH2 7607   3.988   7.020   5.660
 2555TIP3    H1 7608   3.958   7.077   5.731
 2555TIP3    H2 7609   3.919   7.027   5.594
 2556TIP3   OH2 7610   3.356   7.319   4.245
 2556TIP3    H1 7611   3.321   7.370   4.171
 2556TIP3    H2 7612   3.378   7.234   4.208
 2557TIP3   OH2 7613   4.373   5.233   5.524
 2557TIP3    H1 7614   4.401   5.227   5.432
 2557TIP3    H2 7615   4.453   5.216   5.574
 2558TIP3   OH2 7616   2.381   4.582   0.415
 2558TIP3    H1 7617   2.308   4.527   0.389
 2558TIP3    H2 7618   2.369   4.663   0.366
 2559TIP3   OH2 7619   1.565   4.134   4.050
 2559TIP3    H1 7620   1.640   4.187   4.021
 2559TIP3    H2 7621   1.531   4.096   3.969
 2560TIP3   OH2 7622   4.210   3.900   3.480
 2560TIP3    H1 7623   4.167   3.835   3.535
 2560TIP3    H2 7624   4.294   3.860   3.456
 2561TIP3   OH2 7625   7.763   6.044   3.078
 2561TIP3    H1 7626   7.806   6.033   2.994
 2561TIP3    H2 7627   7.824   6.098   3.129
 2562TIP3   OH2 7628   3.571   6.959   0.839
 2562TIP3    H1 7629   3.533   7.032   0.889
 2562TIP3    H2 7630   3.544   6.881   0.888
 2563TIP3   OH2 7631   1.181   0.268   5.097
 2563TIP3    H1 7632   1.173   0.174   5.080
 2563TIP3    H2 7633   1.108   0.307   5.050
 2564TIP3   OH2 7634   7.280   3.818   2.480
 2564TIP3    H1 7635   7.282   3.732   2.522
 2564TIP3    H2 7636   7.367   3.828   2.443
 2565TIP3   OH2 7637   5.993   5.283   2.356
 2565TIP3    H1 7638   6.008   5.222   2.283
 2565TIP3    H2 7639   6.040   5.243   2.429
 2566TIP3   OH2 7640   6.447   3.360   3.048
 2566TIP3    H1 7641   6.541   3.354   3.065
 2566TIP3    H2 7642   6.425   3.451   3.066
 2567TIP3   OH2 7643   1.930   2.842   3.682
 2567TIP3    H1 7644   2.019   2.846   3.717
 2567TIP3    H2 7645   1.874   2.836   3.759
 2568TIP3   OH2 7646   6.891   1.848   4.509
 2568TIP3    H1 7647   6.800   1.832   4.485
 2568TIP3    H2 7648   6.911   1.933   4.471
 2569TIP3   OH2 7649   5.499   2.841   1.115
 2569TIP3    H1 7650   5.437   2.871   1.181
 2569TIP3    H2 7651   5.579   2.820   1.164
 2570TIP3   OH2 7652   6.302   2.924   3.445
 2570TIP3    H1 7653   6.346   2.854   3.491
 2570TIP3    H2 7654   6.370   2.961   3.388
 2571TIP3   OH2 7655   1.413   5.247  -0.009
 2571TIP3    H1 7656   1.448   5.158   0.001
 2571TIP3    H2 7657   1.411   5.282   0.080
 2572TIP3   OH2 7658   5.441   3.387   5.845
 2572TIP3    H1 7659   5.405   3.299   5.859
 2572TIP3    H2 7660   5.390   3.422   5.772
 2573TIP3   OH2 7661   1.222   0.109   6.033
 2573TIP3    H1 7662   1.248   0.106   6.125
 2573TIP3    H2 7663   1.146   0.167   6.032
 2574TIP3   OH2 7664   4.242   2.513   6.661
 2574TIP3    H1 7665   4.264   2.603   6.686
 2574TIP3    H2 7666   4.167   2.522   6.603
 2575TIP3   OH2 7667   5.230   3.201   0.734
 2575TIP3    H1 7668   5.324   3.213   0.740
 2575TIP3    H2 7669   5.197   3.222   0.822
 2576TIP3   OH2 7670   4.597   3.765   3.913
 2576TIP3    H1 7671   4.636   3.749   3.998
 2576TIP3    H2 7672   4.568   3.679   3.882
 2577TIP3   OH2 7673   5.728   6.584   4.814
 2577TIP3    H1 7674   5.688   6.568   4.899
 2577TIP3    H2 7675   5.805   6.638   4.834
 2578TIP3   OH2 7676   2.350   7.041   5.281
 2578TIP3    H1 7677   2.397   7.115   5.243
 2578TIP3    H2 7678   2.375   6.966   5.228
 2579TIP3   OH2 7679   2.063   1.791   4.516
 2579TIP3    H1 7680   2.053   1.721   4.581
 2579TIP3    H2 7681   2.030   1.869   4.560
 2580TIP3   OH2 7682   3.990   3.009   3.409
 2580TIP3    H1 7683   4.037   2.929   3.386
 2580TIP3    H2 7684   3.948   3.036   3.327
 2581TIP3   OH2 7685   1.782   0.846   1.946
 2581TIP3    H1 7686   1.721   0.798   1.890
 2581TIP3    H2 7687   1.866   0.802   1.933
 2582TIP3   OH2 7688   0.669   6.739   6.349
 2582TIP3    H1 7689   0.695   6.648   6.331
 2582TIP3    H2 7690   0.574   6.735   6.362
 2583TIP3   OH2 7691   2.202   6.482   1.662
 2583TIP3    H1 7692   2.291   6.449   1.654
 2583TIP3    H2 7693   2.150   6.405   1.686
 2584TIP3   OH2 7694   1.943   0.829   2.393
 2584TIP3    H1 7695   1.990   0.782   2.325
 2584TIP3    H2 7696   2.008   0.885   2.434
 2585TIP3   OH2 7697   8.210   5.136   4.429
 2585TIP3    H1 7698   8.249   5.164   4.512
 2585TIP3    H2 7699   8.266   5.064   4.400
 2586TIP3   OH2 7700   7.161   2.164   1.813
 2586TIP3    H1 7701   7.067   2.148   1.816
 2586TIP3    H2 7702   7.182   2.200   1.899
 2587TIP3   OH2 7703   1.432   3.222   4.680
 2587TIP3    H1 7704   1.493   3.150   4.662
 2587TIP3    H2 7705   1.487   3.296   4.705
 2588TIP3   OH2 7706   7.722   5.967   3.938
 2588TIP3    H1 7707   7.750   5.993   3.851
 2588TIP3    H2 7708   7.800   5.979   3.993
 2589TIP3   OH2 7709   2.154   2.238   3.433
 2589TIP3    H1 7710   2.110   2.208   3.353
 2589TIP3    H2 7711   2.241   2.265   3.403
 2590TIP3   OH2 7712   0.114   5.450   5.216
 2590TIP3    H1 7713   0.149   5.540   5.217
 2590TIP3    H2 7714   0.161   5.407   5.145
 2591TIP3   OH2 7715   5.645   2.732   4.857
 2591TIP3    H1 7716   5.710   2.744   4.787
 2591TIP3    H2 7717   5.571   2.786   4.830
 2592TIP3   OH2 7718   7.013   3.598   3.113
 2592TIP3    H1 7719   7.074   3.577   3.183
 2592TIP3    H2 7720   6.932   3.551   3.136
 2593TIP3   OH2 7721   4.903   0.682   0.856
 2593TIP3    H1 7722   4.964   0.752   0.877
 2593TIP3    H2 7723   4.869   0.705   0.769
 2594TIP3   OH2 7724   0.464   4.916   2.118
 2594TIP3    H1 7725   0.446   4.942   2.027
 2594TIP3    H2 7726   0.553   4.949   2.134
 2595TIP3   OH2 7727   1.232   7.418   3.793
 2595TIP3    H1 7728   1.303   7.465   3.838
 2595TIP3    H2 7729   1.187   7.486   3.744
 2596TIP3   OH2 7730   2.104   6.619   5.440
 2596TIP3    H1 7731   2.085   6.550   5.377
 2596TIP3    H2 7732   2.071   6.699   5.399
 2597TIP3   OH2 7733   4.168   2.090   3.463
 2597TIP3    H1 7734   4.145   2.082   3.371
 2597TIP3    H2 7735   4.151   2.182   3.484
 2598TIP3   OH2 7736   0.552   2.694   4.536
 2598TIP3    H1 7737   0.607   2.729   4.465
 2598TIP3    H2 7738   0.492   2.634   4.492
 2599TIP3   OH2 7739   5.607   5.358   0.464
 2599TIP3    H1 7740   5.545   5.431   0.454
 2599TIP3    H2 7741   5.691   5.400   0.482
 2600TIP3   OH2 7742   5.364   1.161   2.321
 2600TIP3    H1 7743   5.275   1.127   2.313
 2600TIP3    H2 7744   5.355   1.241   2.372
 2601TIP3   OH2 7745   2.078   1.879   6.455
 2601TIP3    H1 7746   2.169   1.879   6.483
 2601TIP3    H2 7747   2.082   1.883   6.359
 2602TIP3   OH2 7748   7.463   2.869   3.254
 2602TIP3    H1 7749   7.445   2.962   3.267
 2602TIP3    H2 7750   7.415   2.846   3.175
 2603TIP3   OH2 7751   7.306   0.888   5.145
 2603TIP3    H1 7752   7.272   0.937   5.220
 2603TIP3    H2 7753   7.239   0.899   5.077
 2604TIP3   OH2 7754   3.902   0.253   5.547
 2604TIP3    H1 7755   3.965   0.205   5.600
 2604TIP3    H2 7756   3.909   0.344   5.577
 2605TIP3   OH2 7757   8.071   5.726   2.961
 2605TIP3    H1 7758   8.080   5.791   2.891
 2605TIP3    H2 7759   8.119   5.765   3.035
 2606TIP3   OH2 7760   4.700   5.636   5.782
 2606TIP3    H1 7761   4.722   5.729   5.775
 2606TIP3    H2 7762   4.688   5.608   5.691
 2607TIP3   OH2 7763   6.335   0.970   5.914
 2607TIP3    H1 7764   6.334   0.969   5.819
 2607TIP3    H2 7765   6.297   1.054   5.939
 2608TIP3   OH2 7766   4.310   3.687   3.053
 2608TIP3    H1 7767   4.248   3.659   2.985
 2608TIP3    H2 7768   4.304   3.620   3.121
 2609TIP3   OH2 7769   5.999   1.718   0.721
 2609TIP3    H1 7770   5.973   1.769   0.644
 2609TIP3    H2 7771   6.013   1.629   0.688
 2610TIP3   OH2 7772   4.094   4.910   2.496
 2610TIP3    H1 7773   4.057   4.851   2.430
 2610TIP3    H2 7774   4.085   4.997   2.457
 2611TIP3   OH2 7775   3.025   4.625   0.699
 2611TIP3    H1 7776   2.949   4.640   0.755
 2611TIP3    H2 7777   3.019   4.533   0.674
 2612TIP3   OH2 7778   6.392   3.790   6.029
 2612TIP3    H1 7779   6.421   3.768   5.941
 2612TIP3    H2 7780   6.336   3.867   6.017
 2613TIP3   OH2 7781   0.701   6.057   4.900
 2613TIP3    H1 7782   0.664   6.104   4.825
 2613TIP3    H2 7783   0.792   6.088   4.905
 2614TIP3   OH2 7784   1.438   1.582   3.011
 2614TIP3    H1 7785   1.488   1.511   2.971
 2614TIP3    H2 7786   1.357   1.541   3.041
 2615TIP3   OH2 7787   7.466   0.103   2.360
 2615TIP3    H1 7788   7.401   0.151   2.412
 2615TIP3    H2 7789   7.523   0.171   2.325
 2616TIP3   OH2 7790   7.594   3.173   3.159
 2616TIP3    H1 7791   7.649   3.107   3.200
 2616TIP3    H2 7792   7.639   3.194   3.077
 2617TIP3   OH2 7793   2.302   6.936   1.999
 2617TIP3    H1 7794   2.285   7.030   2.004
 2617TIP3    H2 7795   2.338   6.922   1.911
 2618TIP3   OH2 7796   7.253   3.607   5.625
 2618TIP3    H1 7797   7.185   3.671   5.601
 2618TIP3    H2 7798   7.319   3.617   5.557
 2619TIP3   OH2 7799   0.505   2.779   6.228
 2619TIP3    H1 7800   0.590   2.745   6.257
 2619TIP3    H2 7801   0.455   2.701   6.206
 2620TIP3   OH2 7802   7.993   3.096   4.817
 2620TIP3    H1 7803   8.041   3.097   4.900
 2620TIP3    H2 7804   7.934   3.020   4.825
 2621TIP3   OH2 7805   3.634   3.155   3.113
 2621TIP3    H1 7806   3.658   3.185   3.026
 2621TIP3    H2 7807   3.538   3.150   3.111
 2622TIP3   OH2 7808   5.982   5.136   3.919
 2622TIP3    H1 7809   5.890   5.146   3.897
 2622TIP3    H2 7810   6.015   5.226   3.927
 2623TIP3   OH2 7811   5.511   1.193   0.621
 2623TIP3    H1 7812   5.467   1.132   0.563
 2623TIP3    H2 7813   5.441   1.245   0.660
 2624TIP3   OH2 7814   5.501   4.181   0.511
 2624TIP3    H1 7815   5.545   4.149   0.432
 2624TIP3    H2 7816   5.569   4.226   0.560
 2625TIP3   OH2 7817   1.975   4.656   0.399
 2625TIP3    H1 7818   2.010   4.592   0.462
 2625TIP3    H2 7819   2.050   4.677   0.343
 2626TIP3   OH2 7820   7.024   1.629   5.644
 2626TIP3    H1 7821   7.118   1.611   5.655
 2626TIP3    H2 7822   7.002   1.686   5.718
 2627TIP3   OH2 7823   5.800   4.201   1.161
 2627TIP3    H1 7824   5.771   4.116   1.128
 2627TIP3    H2 7825   5.753   4.265   1.107
 2628TIP3   OH2 7826   2.003   1.092   2.622
 2628TIP3    H1 7827   2.024   1.041   2.700
 2628TIP3    H2 7828   1.908   1.099   2.621
 2629TIP3   OH2 7829   2.570   6.510   0.342
 2629TIP3    H1 7830   2.613   6.545   0.264
 2629TIP3    H2 7831   2.487   6.558   0.346
 2630TIP3   OH2 7832   6.186   0.255   2.291
 2630TIP3    H1 7833   6.237   0.263   2.372
 2630TIP3    H2 7834   6.241   0.295   2.224
 2631TIP3   OH2 7835   4.490   5.519   2.864
 2631TIP3    H1 7836   4.444   5.511   2.781
 2631TIP3    H2 7837   4.531   5.605   2.862
 2632TIP3   OH2 7838   4.295   7.585   3.885
 2632TIP3    H1 7839   4.356   7.634   3.829
 2632TIP3    H2 7840   4.348   7.558   3.960
 2633TIP3   OH2 7841   2.406   7.600   0.503
 2633TIP3    H1 7842   2.369   7.533   0.560
 2633TIP3    H2 7843   2.380   7.683   0.544
 2634TIP3   OH2 7844   1.167   4.856   1.832
 2634TIP3    H1 7845   1.235   4.922   1.847
 2634TIP3    H2 7846   1.108   4.897   1.769
 2635TIP3   OH2 7847   0.074   5.002   5.263
 2635TIP3    H1 7848   0.101   4.958   5.183
 2635TIP3    H2 7849  -0.021   4.991   5.266
 2636TIP3   OH2 7850   2.789   5.242   6.603
 2636TIP3    H1 7851   2.729   5.197   6.543
 2636TIP3    H2 7852   2.864   5.264   6.549
 2637TIP3   OH2 7853   3.584   7.316   0.968
 2637TIP3    H1 7854   3.603   7.401   1.009
 2637TIP3    H2 7855   3.666   7.290   0.927
 2638TIP3   OH2 7856   4.074   0.394   1.041
 2638TIP3    H1 7857   3.996   0.383   0.986
 2638TIP3    H2 7858   4.104   0.305   1.058
 2639TIP3   OH2 7859   3.496   0.131   2.615
 2639TIP3    H1 7860   3.516   0.069   2.544
 2639TIP3    H2 7861   3.548   0.208   2.594
 2640TIP3   OH2 7862   1.497   0.154   2.216
 2640TIP3    H1 7863   1.546   0.203   2.282
 2640TIP3    H2 7864   1.506   0.206   2.136
 2641TIP3   OH2 7865   0.724   0.582   0.095
 2641TIP3    H1 7866   0.735   0.625   0.180
 2641TIP3    H2 7867   0.665   0.640   0.046
 2642TIP3   OH2 7868   6.834   3.123   0.789
 2642TIP3    H1 7869   6.851   3.170   0.870
 2642TIP3    H2 7870   6.842   3.031   0.812
 2643TIP3   OH2 7871   0.784   0.011   6.225
 2643TIP3    H1 7872   0.757  -0.069   6.270
 2643TIP3    H2 7873   0.716   0.075   6.247
 2644TIP3   OH2 7874   6.934   1.586   4.764
 2644TIP3    H1 7875   7.001   1.539   4.815
 2644TIP3    H2 7876   6.876   1.623   4.830
 2645TIP3   OH2 7877   3.562   1.884   6.176
 2645TIP3    H1 7878   3.481   1.882   6.124
 2645TIP3    H2 7879   3.561   1.969   6.220
 2646TIP3   OH2 7880   6.340   0.981   4.573
 2646TIP3    H1 7881   6.414   1.002   4.631
 2646TIP3    H2 7882   6.272   0.947   4.632
 2647TIP3   OH2 7883   4.606   3.690   5.986
 2647TIP3    H1 7884   4.533   3.701   5.925
 2647TIP3    H2 7885   4.662   3.624   5.944
 2648TIP3   OH2 7886   1.396   2.800   5.871
 2648TIP3    H1 7887   1.348   2.820   5.791
 2648TIP3    H2 7888   1.480   2.846   5.861
 2649TIP3   OH2 7889   3.732   0.740   6.072
 2649TIP3    H1 7890   3.693   0.654   6.060
 2649TIP3    H2 7891   3.770   0.737   6.160
 2650TIP3   OH2 7892   2.195   6.852   2.245
 2650TIP3    H1 7893   2.253   6.796   2.296
 2650TIP3    H2 7894   2.239   6.859   2.160
 2651TIP3   OH2 7895   5.352   4.139   4.714
 2651TIP3    H1 7896   5.353   4.189   4.632
 2651TIP3    H2 7897   5.263   4.104   4.720
 2652TIP3   OH2 7898   0.885   1.040   5.340
 2652TIP3    H1 7899   0.859   0.956   5.302
 2652TIP3    H2 7900   0.976   1.050   5.315
 2653TIP3   OH2 7901   5.404   1.926   3.934
 2653TIP3    H1 7902   5.313   1.953   3.925
 2653TIP3    H2 7903   5.400   1.837   3.969
 2654TIP3   OH2 7904   6.212   4.479   4.740
 2654TIP3    H1 7905   6.193   4.386   4.749
 2654TIP3    H2 7906   6.279   4.484   4.672
 2655TIP3   OH2 7907   5.640   0.653   2.115
 2655TIP3    H1 7908   5.551   0.660   2.081
 2655TIP3    H2 7909   5.628   0.639   2.209
 2656TIP3   OH2 7910   4.642   7.615   1.199
 2656TIP3    H1 7911   4.697   7.656   1.265
 2656TIP3    H2 7912   4.678   7.527   1.189
 2657TIP3   OH2 7913   3.478   2.908   6.064
 2657TIP3    H1 7914   3.417   2.842   6.030
 2657TIP3    H2 7915   3.499   2.877   6.152
 2658TIP3   OH2 7916   0.425   2.531   1.531
 2658TIP3    H1 7917   0.477   2.604   1.498
 2658TIP3    H2 7918   0.400   2.482   1.453
 2659TIP3   OH2 7919   4.961   2.072   5.476
 2659TIP3    H1 7920   4.968   2.057   5.382
 2659TIP3    H2 7921   4.876   2.037   5.500
 2660TIP3   OH2 7922   4.464   2.926   4.619
 2660TIP3    H1 7923   4.491   2.871   4.693
 2660TIP3    H2 7924   4.535   2.991   4.611
 2661TIP3   OH2 7925   7.827   4.727   3.394
 2661TIP3    H1 7926   7.831   4.823   3.390
 2661TIP3    H2 7927   7.741   4.705   3.357
 2662TIP3   OH2 7928   5.876   6.124   0.181
 2662TIP3    H1 7929   5.913   6.140   0.095
 2662TIP3    H2 7930   5.925   6.182   0.240
 2663TIP3   OH2 7931   5.430   1.583   1.248
 2663TIP3    H1 7932   5.465   1.499   1.221
 2663TIP3    H2 7933   5.340   1.565   1.275
 2664TIP3   OH2 7934   5.046   1.339   4.233
 2664TIP3    H1 7935   4.996   1.273   4.186
 2664TIP3    H2 7936   5.129   1.297   4.254
 2665TIP3   OH2 7937   0.982   4.823   1.250
 2665TIP3    H1 7938   0.935   4.861   1.324
 2665TIP3    H2 7939   1.045   4.762   1.289
 2666TIP3   OH2 7940   7.670   0.997   2.300
 2666TIP3    H1 7941   7.664   0.914   2.347
 2666TIP3    H2 7942   7.641   1.062   2.363
 2667TIP3   OH2 7943   2.618   2.932   2.117
 2667TIP3    H1 7944   2.705   2.954   2.084
 2667TIP3    H2 7945   2.620   2.837   2.128
 2668TIP3   OH2 7946   6.302   0.772   2.530
 2668TIP3    H1 7947   6.287   0.752   2.622
 2668TIP3    H2 7948   6.356   0.851   2.531
 2669TIP3   OH2 7949   4.532   1.249   0.292
 2669TIP3    H1 7950   4.478   1.243   0.371
 2669TIP3    H2 7951   4.569   1.162   0.281
 2670TIP3   OH2 7952   3.779   1.167   1.547
 2670TIP3    H1 7953   3.757   1.128   1.462
 2670TIP3    H2 7954   3.817   1.095   1.597
 2671TIP3   OH2 7955   1.868   3.341   6.367
 2671TIP3    H1 7956   1.863   3.435   6.351
 2671TIP3    H2 7957   1.813   3.327   6.444
 2672TIP3   OH2 7958   2.711   4.812   4.656
 2672TIP3    H1 7959   2.623   4.843   4.676
 2672TIP3    H2 7960   2.717   4.817   4.560
 2673TIP3   OH2 7961   1.875   1.175   4.401
 2673TIP3    H1 7962   1.875   1.268   4.380
 2673TIP3    H2 7963   1.963   1.158   4.435
 2674TIP3   OH2 7964   3.375   5.511   0.450
 2674TIP3    H1 7965   3.361   5.426   0.491
 2674TIP3    H2 7966   3.295   5.528   0.401
 2675TIP3   OH2 7967   7.485   7.109   0.806
 2675TIP3    H1 7968   7.419   7.178   0.816
 2675TIP3    H2 7969   7.447   7.047   0.745
 2676TIP3   OH2 7970   0.235   0.726   4.809
 2676TIP3    H1 7971   0.271   0.662   4.749
 2676TIP3    H2 7972   0.140   0.712   4.805
 2677TIP3   OH2 7973   3.490   0.750   4.166
 2677TIP3    H1 7974   3.429   0.681   4.141
 2677TIP3    H2 7975   3.561   0.744   4.102
 2678TIP3   OH2 7976   0.592   4.805   6.717
 2678TIP3    H1 7977   0.591   4.899   6.699
 2678TIP3    H2 7978   0.659   4.793   6.783
 2679TIP3   OH2 7979   3.961   0.437   6.307
 2679TIP3    H1 7980   4.052   0.455   6.286
 2679TIP3    H2 7981   3.964   0.362   6.367
 2680TIP3   OH2 7982   4.983   6.944   5.415
 2680TIP3    H1 7983   4.983   6.933   5.319
 2680TIP3    H2 7984   4.891   6.958   5.438
 2681TIP3   OH2 7985   5.726   3.050   0.307
 2681TIP3    H1 7986   5.644   3.070   0.262
 2681TIP3    H2 7987   5.794   3.085   0.250
 2682TIP3   OH2 7988   1.677   1.684   4.530
 2682TIP3    H1 7989   1.683   1.710   4.438
 2682TIP3    H2 7990   1.653   1.765   4.576
 2683TIP3   OH2 7991   1.272   3.585   4.738
 2683TIP3    H1 7992   1.188   3.557   4.702
 2683TIP3    H2 7993   1.259   3.677   4.761
 2684TIP3   OH2 7994   0.227   1.325   2.630
 2684TIP3    H1 7995   0.315   1.290   2.646
 2684TIP3    H2 7996   0.174   1.289   2.702
 2685TIP3   OH2 7997   7.598   2.740   0.393
 2685TIP3    H1 7998   7.611   2.729   0.487
 2685TIP3    H2 7999   7.592   2.650   0.359
 2686TIP3   OH2 8000   5.678   2.153   0.755
 2686TIP3    H1 8001   5.631   2.222   0.708
 2686TIP3    H2 8002   5.617   2.127   0.825
 2687TIP3   OH2 8003   1.927   7.620   5.139
 2687TIP3    H1 8004   1.936   7.603   5.233
 2687TIP3    H2 8005   1.833   7.633   5.127
 2688TIP3   OH2 8006   3.776   5.938   3.903
 2688TIP3    H1 8007   3.786   6.015   3.846
 2688TIP3    H2 8008   3.855   5.937   3.957
 2689TIP3   OH2 8009   3.610   2.953   0.668
 2689TIP3    H1 8010   3.638   3.043   0.687
 2689TIP3    H2 8011   3.690   2.901   0.676
 2690TIP3   OH2 8012   7.052   7.132   3.030
 2690TIP3    H1 8013   7.026   7.177   3.110
 2690TIP3    H2 8014   7.027   7.041   3.045
 2691TIP3   OH2 8015   4.344   1.882   2.144
 2691TIP3    H1 8016   4.354   1.862   2.237
 2691TIP3    H2 8017   4.432   1.908   2.116
 2692TIP3   OH2 8018   4.266   6.561   1.204
 2692TIP3    H1 8019   4.268   6.652   1.235
 2692TIP3    H2 8020   4.279   6.509   1.284
 2693TIP3   OH2 8021   7.719   3.786   5.432
 2693TIP3    H1 8022   7.797   3.829   5.467
 2693TIP3    H2 8023   7.749   3.742   5.352
 2694TIP3   OH2 8024   3.372   0.183   4.019
 2694TIP3    H1 8025   3.398   0.249   3.954
 2694TIP3    H2 8026   3.453   0.161   4.065
 2695TIP3   OH2 8027   7.922   4.993   3.451
 2695TIP3    H1 8028   7.983   4.985   3.524
 2695TIP3    H2 8029   7.880   5.078   3.465
 2696TIP3   OH2 8030   1.701   7.624   4.849
 2696TIP3    H1 8031   1.790   7.588   4.844
 2696TIP3    H2 8032   1.646   7.557   4.810
 2697TIP3   OH2 8033   0.068   4.268   2.730
 2697TIP3    H1 8034   0.138   4.218   2.772
 2697TIP3    H2 8035   0.108   4.303   2.651
 2698TIP3   OH2 8036   1.755   1.618   3.326
 2698TIP3    H1 8037   1.719   1.703   3.351
 2698TIP3    H2 8038   1.698   1.555   3.368
 2699TIP3   OH2 8039   0.936   3.901   1.105
 2699TIP3    H1 8040   1.006   3.836   1.107
 2699TIP3    H2 8041   0.972   3.972   1.052
 2700TIP3   OH2 8042   4.353   4.136   4.987
 2700TIP3    H1 8043   4.300   4.069   4.943
 2700TIP3    H2 8044   4.438   4.094   5.000
 2701TIP3   OH2 8045   4.073   1.495   3.389
 2701TIP3    H1 8046   4.037   1.442   3.460
 2701TIP3    H2 8047   4.167   1.475   3.390
 2702TIP3   OH2 8048   7.815   6.159   5.073
 2702TIP3    H1 8049   7.833   6.185   5.163
 2702TIP3    H2 8050   7.754   6.225   5.040
 2703TIP3   OH2 8051   6.808   3.790   5.481
 2703TIP3    H1 8052   6.840   3.844   5.409
 2703TIP3    H2 8053   6.822   3.842   5.559
 2704TIP3   OH2 8054   3.224   2.181   4.653
 2704TIP3    H1 8055   3.214   2.088   4.672
 2704TIP3    H2 8056   3.186   2.191   4.565
 2705TIP3   OH2 8057   7.508   2.350   5.295
 2705TIP3    H1 8058   7.478   2.419   5.355
 2705TIP3    H2 8059   7.559   2.396   5.228
 2706TIP3   OH2 8060   6.572   0.067   3.649
 2706TIP3    H1 8061   6.546  -0.025   3.646
 2706TIP3    H2 8062   6.509   0.111   3.590
 2707TIP3   OH2 8063   4.645   1.305   6.486
 2707TIP3    H1 8064   4.660   1.216   6.453
 2707TIP3    H2 8065   4.559   1.301   6.527
 2708TIP3   OH2 8066   5.536   0.682   2.375
 2708TIP3    H1 8067   5.616   0.695   2.426
 2708TIP3    H2 8068   5.472   0.649   2.438
 2709TIP3   OH2 8069   3.353   2.335   1.139
 2709TIP3    H1 8070   3.427   2.290   1.178
 2709TIP3    H2 8071   3.372   2.337   1.045
 2710TIP3   OH2 8072   0.314   7.669   5.808
 2710TIP3    H1 8073   0.407   7.650   5.795
 2710TIP3    H2 8074   0.299   7.748   5.755
 2711TIP3   OH2 8075   4.546   1.666   0.322
 2711TIP3    H1 8076   4.471   1.676   0.380
 2711TIP3    H2 8077   4.568   1.755   0.295
 2712TIP3   OH2 8078   8.003   5.912   4.075
 2712TIP3    H1 8079   7.953   5.959   4.142
 2712TIP3    H2 8080   7.966   5.824   4.076
 2713TIP3   OH2 8081   2.319   7.662   1.915
 2713TIP3    H1 8082   2.294   7.752   1.936
 2713TIP3    H2 8083   2.344   7.623   1.999
 2714TIP3   OH2 8084   5.634   5.129   5.506
 2714TIP3    H1 8085   5.683   5.101   5.428
 2714TIP3    H2 8086   5.665   5.218   5.523
 2715TIP3   OH2 8087   5.429   5.348   4.013
 2715TIP3    H1 8088   5.439   5.431   4.059
 2715TIP3    H2 8089   5.479   5.285   4.065
 2716TIP3   OH2 8090   4.094   2.575   1.191
 2716TIP3    H1 8091   4.046   2.629   1.253
 2716TIP3    H2 8092   4.083   2.619   1.107
 2717TIP3   OH2 8093   1.224   3.582   1.217
 2717TIP3    H1 8094   1.190   3.641   1.151
 2717TIP3    H2 8095   1.179   3.607   1.298
 2718TIP3   OH2 8096   1.913   6.891   3.803
 2718TIP3    H1 8097   1.839   6.895   3.742
 2718TIP3    H2 8098   1.960   6.811   3.777
 2719TIP3   OH2 8099   1.415   2.680   0.987
 2719TIP3    H1 8100   1.474   2.737   1.036
 2719TIP3    H2 8101   1.448   2.591   1.004
 2720TIP3   OH2 8102   7.172   5.228   3.585
 2720TIP3    H1 8103   7.091   5.199   3.627
 2720TIP3    H2 8104   7.196   5.157   3.526
 2721TIP3   OH2 8105   1.352   0.106   1.507
 2721TIP3    H1 8106   1.363   0.035   1.571
 2721TIP3    H2 8107   1.397   0.180   1.546
 2722TIP3   OH2 8108   5.357   1.143   5.068
 2722TIP3    H1 8109   5.348   1.174   5.158
 2722TIP3    H2 8110   5.277   1.093   5.051
 2723TIP3   OH2 8111   6.989   3.141   6.552
 2723TIP3    H1 8112   7.050   3.206   6.518
 2723TIP3    H2 8113   7.029   3.056   6.531
 2724TIP3   OH2 8114   0.283   0.767   2.247
 2724TIP3    H1 8115   0.211   0.703   2.252
 2724TIP3    H2 8116   0.282   0.796   2.156
 2725TIP3   OH2 8117   6.605   0.426   0.777
 2725TIP3    H1 8118   6.670   0.356   0.773
 2725TIP3    H2 8119   6.528   0.385   0.818
 2726TIP3   OH2 8120   4.441   7.112   5.518
 2726TIP3    H1 8121   4.389   7.193   5.520
 2726TIP3    H2 8122   4.399   7.058   5.451
 2727TIP3   OH2 8123   4.827   7.154   5.207
 2727TIP3    H1 8124   4.762   7.122   5.269
 2727TIP3    H2 8125   4.806   7.247   5.196
 2728TIP3   OH2 8126   0.673   2.256   3.445
 2728TIP3    H1 8127   0.732   2.251   3.521
 2728TIP3    H2 8128   0.628   2.340   3.455
 2729TIP3   OH2 8129   6.014   3.906   2.379
 2729TIP3    H1 8130   6.024   3.987   2.328
 2729TIP3    H2 8131   5.922   3.905   2.405
 2730TIP3   OH2 8132   6.924   7.689   0.359
 2730TIP3    H1 8133   6.876   7.666   0.280
 2730TIP3    H2 8134   7.011   7.716   0.328
 2731TIP3   OH2 8135   6.333   7.544   4.092
 2731TIP3    H1 8136   6.368   7.625   4.130
 2731TIP3    H2 8137   6.241   7.563   4.074
 2732TIP3   OH2 8138   5.668   0.851   1.881
 2732TIP3    H1 8139   5.693   0.801   1.958
 2732TIP3    H2 8140   5.750   0.866   1.834
 2733TIP3   OH2 8141   0.515   3.678   3.477
 2733TIP3    H1 8142   0.424   3.709   3.474
 2733TIP3    H2 8143   0.563   3.748   3.522
 2734TIP3   OH2 8144   4.557   3.589   5.138
 2734TIP3    H1 8145   4.483   3.581   5.078
 2734TIP3    H2 8146   4.517   3.604   5.223
 2735TIP3   OH2 8147   1.360   2.427   6.113
 2735TIP3    H1 8148   1.287   2.391   6.164
 2735TIP3    H2 8149   1.383   2.508   6.158
 2736TIP3   OH2 8150   3.587   4.787   3.689
 2736TIP3    H1 8151   3.574   4.881   3.684
 2736TIP3    H2 8152   3.574   4.756   3.599
 2737TIP3   OH2 8153   7.490   0.867   3.330
 2737TIP3    H1 8154   7.576   0.897   3.303
 2737TIP3    H2 8155   7.442   0.853   3.248
 2738TIP3   OH2 8156   3.093   6.174   4.656
 2738TIP3    H1 8157   3.082   6.263   4.689
 2738TIP3    H2 8158   3.004   6.143   4.640
 2739TIP3   OH2 8159   1.148   6.018   4.145
 2739TIP3    H1 8160   1.088   5.943   4.146
 2739TIP3    H2 8161   1.131   6.060   4.061
 2740TIP3   OH2 8162   4.933   3.275   3.932
 2740TIP3    H1 8163   4.847   3.268   3.972
 2740TIP3    H2 8164   4.962   3.184   3.921
 2741TIP3   OH2 8165   7.990   7.531   4.830
 2741TIP3    H1 8166   7.969   7.543   4.923
 2741TIP3    H2 8167   7.964   7.441   4.811
 2742TIP3   OH2 8168   6.377   6.067   3.620
 2742TIP3    H1 8169   6.345   6.128   3.553
 2742TIP3    H2 8170   6.469   6.090   3.632
 2743TIP3   OH2 8171   7.069   4.109   3.444
 2743TIP3    H1 8172   7.158   4.127   3.415
 2743TIP3    H2 8173   7.013   4.158   3.384
 2744TIP3   OH2 8174   4.359   3.555   3.290
 2744TIP3    H1 8175   4.385   3.476   3.242
 2744TIP3    H2 8176   4.442   3.593   3.320
 2745TIP3   OH2 8177   5.483   6.189   0.836
 2745TIP3    H1 8178   5.456   6.281   0.835
 2745TIP3    H2 8179   5.458   6.157   0.923
 2746TIP3   OH2 8180   6.181   3.172   3.455
 2746TIP3    H1 8181   6.249   3.224   3.412
 2746TIP3    H2 8182   6.210   3.081   3.444
 2747TIP3   OH2 8183   5.134   3.857   5.175
 2747TIP3    H1 8184   5.213   3.838   5.124
 2747TIP3    H2 8185   5.167   3.872   5.264
 2748TIP3   OH2 8186   2.396   3.509   5.890
 2748TIP3    H1 8187   2.474   3.466   5.856
 2748TIP3    H2 8188   2.339   3.436   5.916
 2749TIP3   OH2 8189   1.983   3.164   2.181
 2749TIP3    H1 8190   1.922   3.144   2.252
 2749TIP3    H2 8191   2.052   3.215   2.222
 2750TIP3   OH2 8192   5.881   6.486   3.783
 2750TIP3    H1 8193   5.789   6.463   3.767
 2750TIP3    H2 8194   5.885   6.580   3.766
 2751TIP3   OH2 8195   0.616   0.626   1.353
 2751TIP3    H1 8196   0.565   0.677   1.417
 2751TIP3    H2 8197   0.682   0.688   1.321
 2752TIP3   OH2 8198   8.297   6.660   4.705
 2752TIP3    H1 8199   8.213   6.637   4.743
 2752TIP3    H2 8200   8.304   6.604   4.627
 2753TIP3   OH2 8201   7.540   0.633   3.067
 2753TIP3    H1 8202   7.498   0.555   3.101
 2753TIP3    H2 8203   7.630   0.629   3.101
 2754TIP3   OH2 8204   3.566   0.686   6.410
 2754TIP3    H1 8205   3.612   0.770   6.415
 2754TIP3    H2 8206   3.489   0.704   6.356
 2755TIP3   OH2 8207   6.585   3.949   4.593
 2755TIP3    H1 8208   6.560   4.033   4.631
 2755TIP3    H2 8209   6.552   3.884   4.654
 2756TIP3   OH2 8210   4.807   6.452   0.622
 2756TIP3    H1 8211   4.854   6.452   0.705
 2756TIP3    H2 8212   4.795   6.545   0.601
 2757TIP3   OH2 8213   5.794   6.854   5.180
 2757TIP3    H1 8214   5.743   6.777   5.155
 2757TIP3    H2 8215   5.867   6.817   5.231
 2758TIP3   OH2 8216   3.832   5.425   5.642
 2758TIP3    H1 8217   3.804   5.516   5.649
 2758TIP3    H2 8218   3.825   5.391   5.731
 2759TIP3   OH2 8219   2.029   7.459   5.643
 2759TIP3    H1 8220   1.958   7.415   5.690
 2759TIP3    H2 8221   2.105   7.449   5.700
 2760TIP3   OH2 8222   5.006   0.987   1.318
 2760TIP3    H1 8223   5.085   0.973   1.371
 2760TIP3    H2 8224   4.936   0.946   1.368
 2761TIP3   OH2 8225   6.095   3.633   2.550
 2761TIP3    H1 8226   6.003   3.639   2.575
 2761TIP3    H2 8227   6.095   3.646   2.455
 2762TIP3   OH2 8228   6.828   0.522   1.548
 2762TIP3    H1 8229   6.750   0.467   1.541
 2762TIP3    H2 8230   6.797   0.610   1.527
 2763TIP3   OH2 8231   3.825   7.443   1.703
 2763TIP3    H1 8232   3.769   7.442   1.780
 2763TIP3    H2 8233   3.796   7.521   1.654
 2764TIP3   OH2 8234   4.685   0.649   3.037
 2764TIP3    H1 8235   4.650   0.570   2.996
 2764TIP3    H2 8236   4.634   0.721   2.998
 2765TIP3   OH2 8237   4.346   2.772   5.755
 2765TIP3    H1 8238   4.335   2.855   5.802
 2765TIP3    H2 8239   4.364   2.798   5.665
 2766TIP3   OH2 8240   5.959   5.070   6.315
 2766TIP3    H1 8241   5.952   5.086   6.221
 2766TIP3    H2 8242   5.940   5.155   6.355
 2767TIP3   OH2 8243   8.247   7.252   5.260
 2767TIP3    H1 8244   8.211   7.186   5.202
 2767TIP3    H2 8245   8.196   7.331   5.243
 2768TIP3   OH2 8246   6.568   0.159   3.374
 2768TIP3    H1 8247   6.537   0.215   3.303
 2768TIP3    H2 8248   6.565   0.070   3.338
 2769TIP3   OH2 8249   2.783   2.535   6.130
 2769TIP3    H1 8250   2.689   2.519   6.131
 2769TIP3    H2 8251   2.822   2.447   6.130
 2770TIP3   OH2 8252   1.795   3.746   5.843
 2770TIP3    H1 8253   1.716   3.693   5.844
 2770TIP3    H2 8254   1.867   3.683   5.838
 2771TIP3   OH2 8255   4.384   4.416   5.347
 2771TIP3    H1 8256   4.391   4.428   5.442
 2771TIP3    H2 8257   4.475   4.416   5.317
 2772TIP3   OH2 8258   3.919   4.443   4.696
 2772TIP3    H1 8259   3.970   4.511   4.740
 2772TIP3    H2 8260   3.853   4.417   4.760
 2773TIP3   OH2 8261   7.577   4.730   2.805
 2773TIP3    H1 8262   7.544   4.640   2.805
 2773TIP3    H2 8263   7.672   4.720   2.814
 2774TIP3   OH2 8264   7.620   6.705   6.263
 2774TIP3    H1 8265   7.631   6.751   6.346
 2774TIP3    H2 8266   7.703   6.720   6.216
 2775TIP3   OH2 8267   5.952   2.125   0.758
 2775TIP3    H1 8268   5.858   2.140   0.749
 2775TIP3    H2 8269   5.979   2.095   0.672
 2776TIP3   OH2 8270   4.373   0.066   4.768
 2776TIP3    H1 8271   4.437   0.137   4.762
 2776TIP3    H2 8272   4.424  -0.010   4.796
 2777TIP3   OH2 8273   5.211   6.923   2.242
 2777TIP3    H1 8274   5.274   6.852   2.258
 2777TIP3    H2 8275   5.126   6.884   2.260
 2778TIP3   OH2 8276   6.799   3.336   2.749
 2778TIP3    H1 8277   6.733   3.377   2.693
 2778TIP3    H2 8278   6.860   3.406   2.770
 2779TIP3   OH2 8279   2.220   6.088   2.519
 2779TIP3    H1 8280   2.222   6.083   2.423
 2779TIP3    H2 8281   2.128   6.097   2.541
 2780TIP3   OH2 8282   3.827   3.396   0.243
 2780TIP3    H1 8283   3.857   3.368   0.329
 2780TIP3    H2 8284   3.873   3.340   0.181
 2781TIP3   OH2 8285   1.668   2.041   2.225
 2781TIP3    H1 8286   1.690   1.948   2.230
 2781TIP3    H2 8287   1.672   2.061   2.131
 2782TIP3   OH2 8288   1.677   5.835   3.028
 2782TIP3    H1 8289   1.742   5.864   3.092
 2782TIP3    H2 8290   1.593   5.861   3.065
 2783TIP3   OH2 8291   0.633   3.740   2.190
 2783TIP3    H1 8292   0.538   3.732   2.184
 2783TIP3    H2 8293   0.650   3.762   2.281
 2784TIP3   OH2 8294   7.409   4.629   0.642
 2784TIP3    H1 8295   7.494   4.673   0.650
 2784TIP3    H2 8296   7.376   4.626   0.732
 2785TIP3   OH2 8297   3.994   5.116   6.175
 2785TIP3    H1 8298   3.943   5.035   6.177
 2785TIP3    H2 8299   4.043   5.115   6.257
 2786TIP3   OH2 8300   0.398   3.208   5.973
 2786TIP3    H1 8301   0.348   3.172   6.046
 2786TIP3    H2 8302   0.468   3.144   5.958
 2787TIP3   OH2 8303   5.920   7.051   5.983
 2787TIP3    H1 8304   5.886   7.091   5.903
 2787TIP3    H2 8305   5.872   6.969   5.992
 2788TIP3   OH2 8306   7.924   0.855   1.481
 2788TIP3    H1 8307   7.891   0.941   1.506
 2788TIP3    H2 8308   7.997   0.874   1.421
 2789TIP3   OH2 8309   8.230   4.352   2.191
 2789TIP3    H1 8310   8.199   4.330   2.279
 2789TIP3    H2 8311   8.309   4.405   2.206
 2790TIP3   OH2 8312   7.724   3.341   0.279
 2790TIP3    H1 8313   7.640   3.307   0.308
 2790TIP3    H2 8314   7.787   3.272   0.301
 2791TIP3   OH2 8315   0.477   5.150   0.944
 2791TIP3    H1 8316   0.412   5.083   0.922
 2791TIP3    H2 8317   0.454   5.178   1.032
 2792TIP3   OH2 8318   4.269   6.247   2.751
 2792TIP3    H1 8319   4.283   6.153   2.758
 2792TIP3    H2 8320   4.181   6.256   2.712
 2793TIP3   OH2 8321   8.064   2.319   0.854
 2793TIP3    H1 8322   8.077   2.346   0.763
 2793TIP3    H2 8323   7.987   2.369   0.883
 2794TIP3   OH2 8324   3.263   5.861   5.998
 2794TIP3    H1 8325   3.336   5.875   6.058
 2794TIP3    H2 8326   3.303   5.854   5.911
 2795TIP3   OH2 8327   7.272   3.659   3.266
 2795TIP3    H1 8328   7.254   3.578   3.313
 2795TIP3    H2 8329   7.205   3.720   3.297
 2796TIP3   OH2 8330   4.241   1.071   2.377
 2796TIP3    H1 8331   4.334   1.068   2.399
 2796TIP3    H2 8332   4.234   1.143   2.314
 2797TIP3   OH2 8333   5.284   6.258   3.717
 2797TIP3    H1 8334   5.278   6.351   3.739
 2797TIP3    H2 8335   5.292   6.213   3.801
 2798TIP3   OH2 8336   6.582   0.365   5.033
 2798TIP3    H1 8337   6.665   0.318   5.030
 2798TIP3    H2 8338   6.604   0.455   5.010
 2799TIP3   OH2 8339   3.783   7.474   6.650
 2799TIP3    H1 8340   3.820   7.421   6.579
 2799TIP3    H2 8341   3.854   7.532   6.675
 2800TIP3   OH2 8342   6.097   4.512   3.430
 2800TIP3    H1 8343   6.124   4.491   3.520
 2800TIP3    H2 8344   6.122   4.435   3.379
 2801TIP3   OH2 8345   7.336   5.762   4.127
 2801TIP3    H1 8346   7.328   5.841   4.179
 2801TIP3    H2 8347   7.427   5.762   4.097
 2802TIP3   OH2 8348   6.262   0.219   1.215
 2802TIP3    H1 8349   6.192   0.155   1.225
 2802TIP3    H2 8350   6.218   0.298   1.184
 2803TIP3   OH2 8351   0.719   3.626   2.702
 2803TIP3    H1 8352   0.729   3.533   2.726
 2803TIP3    H2 8353   0.633   3.651   2.738
 2804TIP3   OH2 8354   6.582   4.695   0.950
 2804TIP3    H1 8355   6.517   4.765   0.940
 2804TIP3    H2 8356   6.618   4.682   0.862
 2805TIP3   OH2 8357   8.174   7.142   5.010
 2805TIP3    H1 8358   8.210   7.075   4.952
 2805TIP3    H2 8359   8.195   7.225   4.967
 2806TIP3   OH2 8360   1.771   7.413   4.317
 2806TIP3    H1 8361   1.802   7.502   4.335
 2806TIP3    H2 8362   1.691   7.404   4.368
 2807TIP3   OH2 8363   3.225   0.138   3.218
 2807TIP3    H1 8364   3.219   0.113   3.310
 2807TIP3    H2 8365   3.316   0.119   3.194
 2808TIP3   OH2 8366   2.482   6.993   5.494
 2808TIP3    H1 8367   2.399   6.963   5.531
 2808TIP3    H2 8368   2.460   7.023   5.406
 2809TIP3   OH2 8369   6.681   4.293   4.543
 2809TIP3    H1 8370   6.587   4.301   4.556
 2809TIP3    H2 8371   6.713   4.254   4.625
 2810TIP3   OH2 8372   6.229   1.142   1.559
 2810TIP3    H1 8373   6.313   1.182   1.580
 2810TIP3    H2 8374   6.166   1.214   1.563
 2811TIP3   OH2 8375   3.156   2.683   5.087
 2811TIP3    H1 8376   3.095   2.746   5.049
 2811TIP3    H2 8377   3.129   2.598   5.051
 2812TIP3   OH2 8378   2.158   3.784   0.797
 2812TIP3    H1 8379   2.096   3.713   0.812
 2812TIP3    H2 8380   2.219   3.779   0.870
 2813TIP3   OH2 8381   1.033   0.784   0.226
 2813TIP3    H1 8382   1.041   0.696   0.190
 2813TIP3    H2 8383   0.976   0.830   0.163
 2814TIP3   OH2 8384   7.266   6.993   2.377
 2814TIP3    H1 8385   7.173   6.988   2.355
 2814TIP3    H2 8386   7.290   6.903   2.400
 2815TIP3   OH2 8387   5.289   1.902   6.471
 2815TIP3    H1 8388   5.248   1.939   6.549
 2815TIP3    H2 8389   5.233   1.930   6.398
 2816TIP3   OH2 8390   5.110   4.529   3.399
 2816TIP3    H1 8391   5.076   4.598   3.456
 2816TIP3    H2 8392   5.042   4.461   3.400
 2817TIP3   OH2 8393   1.147   7.205   1.796
 2817TIP3    H1 8394   1.157   7.300   1.807
 2817TIP3    H2 8395   1.176   7.168   1.879
 2818TIP3   OH2 8396   6.268   2.010   1.276
 2818TIP3    H1 8397   6.289   2.045   1.189
 2818TIP3    H2 8398   6.266   1.915   1.263
 2819TIP3   OH2 8399   8.066   5.912   2.754
 2819TIP3    H1 8400   7.996   5.977   2.753
 2819TIP3    H2 8401   8.131   5.946   2.692
 2820TIP3   OH2 8402   5.208   2.027   4.654
 2820TIP3    H1 8403   5.143   1.961   4.630
 2820TIP3    H2 8404   5.211   2.087   4.579
 2821TIP3   OH2 8405   2.704   0.461   5.211
 2821TIP3    H1 8406   2.630   0.519   5.196
 2821TIP3    H2 8407   2.773   0.494   5.153
 2822TIP3   OH2 8408   0.574   3.167   2.071
 2822TIP3    H1 8409   0.572   3.123   2.156
 2822TIP3    H2 8410   0.552   3.098   2.007
 2823TIP3   OH2 8411   4.672   2.717   3.132
 2823TIP3    H1 8412   4.694   2.708   3.224
 2823TIP3    H2 8413   4.723   2.648   3.089
 2824TIP3   OH2 8414   1.052   3.598   5.552
 2824TIP3    H1 8415   1.039   3.515   5.507
 2824TIP3    H2 8416   1.083   3.573   5.639
 2825TIP3   OH2 8417   2.372   6.223   0.763
 2825TIP3    H1 8418   2.295   6.265   0.724
 2825TIP3    H2 8419   2.352   6.130   0.761
 2826TIP3   OH2 8420   2.010   2.061   5.903
 2826TIP3    H1 8421   1.920   2.039   5.883
 2826TIP3    H2 8422   2.034   2.127   5.838
 2827TIP3   OH2 8423   7.079   4.887   2.820
 2827TIP3    H1 8424   7.139   4.852   2.754
 2827TIP3    H2 8425   7.028   4.952   2.773
 2828TIP3   OH2 8426   7.245   1.645   0.558
 2828TIP3    H1 8427   7.236   1.730   0.515
 2828TIP3    H2 8428   7.228   1.663   0.650
 2829TIP3   OH2 8429   5.581   4.723   4.184
 2829TIP3    H1 8430   5.596   4.674   4.264
 2829TIP3    H2 8431   5.651   4.788   4.182
 2830TIP3   OH2 8432   3.009   5.960   5.978
 2830TIP3    H1 8433   3.018   6.052   6.001
 2830TIP3    H2 8434   3.099   5.931   5.960
 2831TIP3   OH2 8435   0.409   0.557   5.957
 2831TIP3    H1 8436   0.321   0.581   5.986
 2831TIP3    H2 8437   0.422   0.469   5.991
 2832TIP3   OH2 8438   1.772   6.529   2.284
 2832TIP3    H1 8439   1.840   6.556   2.222
 2832TIP3    H2 8440   1.808   6.548   2.370
 2833TIP3   OH2 8441   5.591   4.588   6.003
 2833TIP3    H1 8442   5.611   4.676   6.035
 2833TIP3    H2 8443   5.527   4.554   6.066
 2834TIP3   OH2 8444   2.332   0.883   1.854
 2834TIP3    H1 8445   2.323   0.790   1.873
 2834TIP3    H2 8446   2.415   0.908   1.895
 2835TIP3   OH2 8447   4.494   7.338   3.150
 2835TIP3    H1 8448   4.513   7.247   3.172
 2835TIP3    H2 8449   4.457   7.375   3.231
 2836TIP3   OH2 8450   5.401   4.925   1.268
 2836TIP3    H1 8451   5.393   5.019   1.285
 2836TIP3    H2 8452   5.311   4.897   1.249
 2837TIP3   OH2 8453   7.835   7.048   1.351
 2837TIP3    H1 8454   7.908   7.006   1.395
 2837TIP3    H2 8455   7.825   6.998   1.269
 2838TIP3   OH2 8456   6.848   4.905   4.256
 2838TIP3    H1 8457   6.898   4.876   4.333
 2838TIP3    H2 8458   6.792   4.975   4.289
 2839TIP3   OH2 8459   3.349   2.048   5.314
 2839TIP3    H1 8460   3.280   2.002   5.267
 2839TIP3    H2 8461   3.420   2.056   5.250
 2840TIP3   OH2 8462   5.498   1.379   2.100
 2840TIP3    H1 8463   5.510   1.285   2.112
 2840TIP3    H2 8464   5.558   1.402   2.028
 2841TIP3   OH2 8465   5.172   0.512   6.664
 2841TIP3    H1 8466   5.261   0.537   6.638
 2841TIP3    H2 8467   5.185   0.442   6.728
 2842TIP3   OH2 8468   6.088   0.137   5.078
 2842TIP3    H1 8469   6.111   0.229   5.092
 2842TIP3    H2 8470   6.027   0.138   5.004
 2843TIP3   OH2 8471   3.534   2.206   3.634
 2843TIP3    H1 8472   3.503   2.121   3.665
 2843TIP3    H2 8473   3.628   2.206   3.657
 2844TIP3   OH2 8474   3.104   1.509   6.621
 2844TIP3    H1 8475   3.200   1.504   6.624
 2844TIP3    H2 8476   3.076   1.420   6.597
 2845TIP3   OH2 8477   7.982   5.007   5.017
 2845TIP3    H1 8478   8.012   4.980   5.104
 2845TIP3    H2 8479   8.019   4.942   4.957
 2846TIP3   OH2 8480   7.126   5.353   5.111
 2846TIP3    H1 8481   7.090   5.420   5.169
 2846TIP3    H2 8482   7.116   5.390   5.023
 2847TIP3   OH2 8483   6.054   3.227   0.520
 2847TIP3    H1 8484   6.129   3.169   0.515
 2847TIP3    H2 8485   5.980   3.169   0.538
 2848TIP3   OH2 8486   5.771   3.199   1.026
 2848TIP3    H1 8487   5.701   3.263   1.017
 2848TIP3    H2 8488   5.739   3.122   0.978
 2849TIP3   OH2 8489   2.083   6.838   1.185
 2849TIP3    H1 8490   2.027   6.814   1.112
 2849TIP3    H2 8491   2.129   6.758   1.208
 2850TIP3   OH2 8492   7.967   4.988   2.885
 2850TIP3    H1 8493   7.885   5.023   2.849
 2850TIP3    H2 8494   7.962   5.008   2.979
 2851TIP3   OH2 8495   7.065   0.032   4.785
 2851TIP3    H1 8496   7.115   0.041   4.703
 2851TIP3    H2 8497   7.118   0.077   4.850
 2852TIP3   OH2 8498   2.185   0.122   1.181
 2852TIP3    H1 8499   2.204   0.098   1.271
 2852TIP3    H2 8500   2.191   0.039   1.133
 2853TIP3   OH2 8501   6.553   4.221   6.230
 2853TIP3    H1 8502   6.488   4.290   6.218
 2853TIP3    H2 8503   6.540   4.163   6.154
 2854TIP3   OH2 8504   3.930   2.515   6.237
 2854TIP3    H1 8505   3.991   2.565   6.182
 2854TIP3    H2 8506   3.858   2.576   6.254
 2855TIP3   OH2 8507   7.837   7.258   0.540
 2855TIP3    H1 8508   7.854   7.320   0.470
 2855TIP3    H2 8509   7.896   7.185   0.522
 2856TIP3   OH2 8510   7.124   7.175   1.002
 2856TIP3    H1 8511   7.182   7.132   0.939
 2856TIP3    H2 8512   7.084   7.102   1.050
 2857TIP3   OH2 8513   5.714   4.923   6.371
 2857TIP3    H1 8514   5.808   4.910   6.353
 2857TIP3    H2 8515   5.709   5.010   6.410
 2858TIP3   OH2 8516   4.763   1.339   5.000
 2858TIP3    H1 8517   4.763   1.361   4.907
 2858TIP3    H2 8518   4.767   1.243   5.002
 2859TIP3   OH2 8519   6.286   0.536   3.390
 2859TIP3    H1 8520   6.277   0.522   3.484
 2859TIP3    H2 8521   6.378   0.515   3.371
 2860TIP3   OH2 8522   4.224   3.858   2.691
 2860TIP3    H1 8523   4.175   3.828   2.615
 2860TIP3    H2 8524   4.313   3.869   2.660
 2861TIP3   OH2 8525   7.170   4.005   1.724
 2861TIP3    H1 8526   7.120   4.083   1.747
 2861TIP3    H2 8527   7.185   3.961   1.808
 2862TIP3   OH2 8528   0.686   7.685   1.595
 2862TIP3    H1 8529   0.760   7.725   1.549
 2862TIP3    H2 8530   0.726   7.619   1.652
 2863TIP3   OH2 8531   7.985   7.105   2.472
 2863TIP3    H1 8532   7.922   7.070   2.409
 2863TIP3    H2 8533   8.068   7.106   2.424
 2864TIP3   OH2 8534   6.310   3.204   4.630
 2864TIP3    H1 8535   6.265   3.287   4.650
 2864TIP3    H2 8536   6.243   3.149   4.591
 2865TIP3   OH2 8537   1.653   0.294   5.376
 2865TIP3    H1 8538   1.668   0.328   5.288
 2865TIP3    H2 8539   1.564   0.324   5.398
 2866TIP3   OH2 8540   2.734   2.533   2.744
 2866TIP3    H1 8541   2.790   2.522   2.667
 2866TIP3    H2 8542   2.777   2.602   2.795
 2867TIP3   OH2 8543   0.677   5.166   4.675
 2867TIP3    H1 8544   0.628   5.084   4.667
 2867TIP3    H2 8545   0.751   5.145   4.731
 2868TIP3   OH2 8546   7.645   1.049   2.018
 2868TIP3    H1 8547   7.550   1.060   2.006
 2868TIP3    H2 8548   7.659   1.056   2.112
 2869TIP3   OH2 8549   5.830   5.002   5.648
 2869TIP3    H1 8550   5.741   5.033   5.633
 2869TIP3    H2 8551   5.844   4.935   5.581
 2870TIP3   OH2 8552   6.696   4.498   2.976
 2870TIP3    H1 8553   6.774   4.442   2.982
 2870TIP3    H2 8554   6.727   4.577   2.933
 2871TIP3   OH2 8555   0.703   2.455   4.399
 2871TIP3    H1 8556   0.658   2.430   4.480
 2871TIP3    H2 8557   0.650   2.415   4.329
 2872TIP3   OH2 8558   1.785   6.453   0.183
 2872TIP3    H1 8559   1.836   6.378   0.151
 2872TIP3    H2 8560   1.850   6.510   0.223
 2873TIP3   OH2 8561   2.591   4.029   5.390
 2873TIP3    H1 8562   2.524   4.089   5.420
 2873TIP3    H2 8563   2.663   4.086   5.361
 2874TIP3   OH2 8564   3.693   2.199   2.418
 2874TIP3    H1 8565   3.700   2.143   2.496
 2874TIP3    H2 8566   3.775   2.185   2.371
 2875TIP3   OH2 8567   0.057   3.933   5.485
 2875TIP3    H1 8568  -0.021   3.945   5.429
 2875TIP3    H2 8569   0.086   3.844   5.467
 2876TIP3   OH2 8570   8.042   3.762   1.834
 2876TIP3    H1 8571   8.084   3.685   1.872
 2876TIP3    H2 8572   7.961   3.772   1.884
 2877TIP3   OH2 8573   3.871   4.784   5.040
 2877TIP3    H1 8574   3.961   4.798   5.067
 2877TIP3    H2 8575   3.819   4.841   5.096
 2878TIP3   OH2 8576   4.862   1.023   1.743
 2878TIP3    H1 8577   4.878   0.929   1.749
 2878TIP3    H2 8578   4.789   1.032   1.681
 2879TIP3   OH2 8579   0.787   4.579   1.109
 2879TIP3    H1 8580   0.813   4.501   1.060
 2879TIP3    H2 8581   0.761   4.547   1.195
 2880TIP3   OH2 8582   5.370   4.227   5.990
 2880TIP3    H1 8583   5.296   4.176   6.025
 2880TIP3    H2 8584   5.440   4.163   5.979
 2881TIP3   OH2 8585   6.802   0.908   2.719
 2881TIP3    H1 8586   6.897   0.918   2.705
 2881TIP3    H2 8587   6.769   0.998   2.715
 2882TIP3   OH2 8588   1.009   2.908   0.807
 2882TIP3    H1 8589   1.086   2.851   0.808
 2882TIP3    H2 8590   1.006   2.946   0.895
 2883TIP3   OH2 8591   5.152   2.237   6.140
 2883TIP3    H1 8592   5.240   2.214   6.114
 2883TIP3    H2 8593   5.096   2.170   6.100
 2884TIP3   OH2 8594   2.791   7.081   0.446
 2884TIP3    H1 8595   2.727   7.152   0.445
 2884TIP3    H2 8596   2.808   7.067   0.540
 2885TIP3   OH2 8597   4.224   7.628   0.182
 2885TIP3    H1 8598   4.233   7.665   0.094
 2885TIP3    H2 8599   4.263   7.540   0.175
 2886TIP3   OH2 8600   4.011   0.800   6.028
 2886TIP3    H1 8601   3.994   0.730   5.965
 2886TIP3    H2 8602   3.986   0.763   6.112
 2887TIP3   OH2 8603   4.303   5.581   3.226
 2887TIP3    H1 8604   4.251   5.662   3.227
 2887TIP3    H2 8605   4.286   5.541   3.311
 2888TIP3   OH2 8606   7.439   2.736   6.490
 2888TIP3    H1 8607   7.408   2.757   6.402
 2888TIP3    H2 8608   7.530   2.709   6.478
 2889TIP3   OH2 8609   2.657   1.405   2.295
 2889TIP3    H1 8610   2.572   1.361   2.295
 2889TIP3    H2 8611   2.676   1.420   2.387
 2890TIP3   OH2 8612   0.688   5.466   6.456
 2890TIP3    H1 8613   0.772   5.474   6.413
 2890TIP3    H2 8614   0.625   5.451   6.385
 2891TIP3   OH2 8615   1.102   5.995   5.857
 2891TIP3    H1 8616   1.077   6.055   5.926
 2891TIP3    H2 8617   1.047   6.019   5.783
 2892TIP3   OH2 8618   2.955   7.236   3.486
 2892TIP3    H1 8619   3.039   7.266   3.520
 2892TIP3    H2 8620   2.952   7.143   3.510
 2893TIP3   OH2 8621   5.262   7.168   0.544
 2893TIP3    H1 8622   5.264   7.087   0.595
 2893TIP3    H2 8623   5.325   7.226   0.588
 2894TIP3   OH2 8624   3.492   5.584   3.919
 2894TIP3    H1 8625   3.472   5.666   3.873
 2894TIP3    H2 8626   3.572   5.603   3.968
 2895TIP3   OH2 8627   3.872   1.833   1.179
 2895TIP3    H1 8628   3.865   1.901   1.246
 2895TIP3    H2 8629   3.931   1.870   1.113
 2896TIP3   OH2 8630   8.162   4.350   3.365
 2896TIP3    H1 8631   8.132   4.424   3.314
 2896TIP3    H2 8632   8.082   4.304   3.392
 2897TIP3   OH2 8633   2.016   5.185   2.149
 2897TIP3    H1 8634   2.001   5.279   2.145
 2897TIP3    H2 8635   2.089   5.169   2.090
 2898TIP3   OH2 8636   7.778   3.174   5.575
 2898TIP3    H1 8637   7.763   3.229   5.498
 2898TIP3    H2 8638   7.694   3.128   5.587
 2899TIP3   OH2 8639   3.456   3.980   5.776
 2899TIP3    H1 8640   3.475   4.073   5.772
 2899TIP3    H2 8641   3.425   3.958   5.688
 2900TIP3   OH2 8642   7.888   6.915   4.827
 2900TIP3    H1 8643   7.821   6.956   4.772
 2900TIP3    H2 8644   7.841   6.848   4.876
 2901TIP3   OH2 8645   7.523   0.035   3.168
 2901TIP3    H1 8646   7.510  -0.004   3.081
 2901TIP3    H2 8647   7.615   0.062   3.169
 2902TIP3   OH2 8648   3.286   2.542   1.606
 2902TIP3    H1 8649   3.243   2.557   1.690
 2902TIP3    H2 8650   3.368   2.591   1.612
 2903TIP3   OH2 8651   4.505   3.360   4.844
 2903TIP3    H1 8652   4.500   3.385   4.752
 2903TIP3    H2 8653   4.434   3.408   4.886
 2904TIP3   OH2 8654   5.107   4.994   1.937
 2904TIP3    H1 8655   5.076   5.072   1.890
 2904TIP3    H2 8656   5.086   5.011   2.028
 2905TIP3   OH2 8657   2.677   0.497   1.098
 2905TIP3    H1 8658   2.689   0.502   1.193
 2905TIP3    H2 8659   2.585   0.523   1.084
 2906TIP3   OH2 8660   2.434   5.576   1.671
 2906TIP3    H1 8661   2.339   5.580   1.682
 2906TIP3    H2 8662   2.452   5.633   1.596
 2907TIP3   OH2 8663   7.797   5.517   3.835
 2907TIP3    H1 8664   7.755   5.489   3.753
 2907TIP3    H2 8665   7.884   5.546   3.808
 2908TIP3   OH2 8666   2.255   4.032   5.863
 2908TIP3    H1 8667   2.240   4.104   5.803
 2908TIP3    H2 8668   2.209   3.957   5.824
 2909TIP3   OH2 8669   8.243   5.646   0.746
 2909TIP3    H1 8670   8.272   5.597   0.823
 2909TIP3    H2 8671   8.148   5.652   0.756
 2910TIP3   OH2 8672   4.447   0.709   1.620
 2910TIP3    H1 8673   4.508   0.637   1.638
 2910TIP3    H2 8674   4.444   0.759   1.701
 2911TIP3   OH2 8675   3.657   0.661   2.454
 2911TIP3    H1 8676   3.667   0.751   2.486
 2911TIP3    H2 8677   3.704   0.608   2.518
 2912TIP3   OH2 8678   7.139   4.988   6.589
 2912TIP3    H1 8679   7.213   4.928   6.602
 2912TIP3    H2 8680   7.143   5.047   6.665
 2913TIP3   OH2 8681   6.916   6.772   1.819
 2913TIP3    H1 8682   7.005   6.805   1.832
 2913TIP3    H2 8683   6.901   6.780   1.725
 2914TIP3   OH2 8684   3.735   5.201   5.193
 2914TIP3    H1 8685   3.786   5.188   5.273
 2914TIP3    H2 8686   3.739   5.296   5.177
 2915TIP3   OH2 8687   4.051   4.428   5.051
 2915TIP3    H1 8688   4.034   4.451   4.960
 2915TIP3    H2 8689   3.978   4.468   5.099
 2916TIP3   OH2 8690   1.965   1.677   5.991
 2916TIP3    H1 8691   2.047   1.721   5.973
 2916TIP3    H2 8692   1.973   1.648   6.082
 2917TIP3   OH2 8693   4.029   3.352   3.592
 2917TIP3    H1 8694   3.988   3.266   3.601
 2917TIP3    H2 8695   4.034   3.366   3.498
 2918TIP3   OH2 8696   1.046   5.523   2.258
 2918TIP3    H1 8697   1.119   5.561   2.209
 2918TIP3    H2 8698   1.071   5.531   2.350
 2919TIP3   OH2 8699   3.645   6.054   4.844
 2919TIP3    H1 8700   3.678   6.015   4.763
 2919TIP3    H2 8701   3.632   5.980   4.903
 2920TIP3   OH2 8702   5.002   4.036   4.061
 2920TIP3    H1 8703   4.962   4.014   3.976
 2920TIP3    H2 8704   5.032   4.126   4.050
 2921TIP3   OH2 8705   5.392   0.982   2.065
 2921TIP3    H1 8706   5.331   1.044   2.024
 2921TIP3    H2 8707   5.449   1.036   2.119
 2922TIP3   OH2 8708   7.969   7.830   0.302
 2922TIP3    H1 8709   8.009   7.758   0.253
 2922TIP3    H2 8710   7.959   7.796   0.391
 2923TIP3   OH2 8711   1.992   4.848   5.385
 2923TIP3    H1 8712   1.913   4.795   5.391
 2923TIP3    H2 8713   1.978   4.921   5.445
 2924TIP3   OH2 8714   0.670   7.614   0.480
 2924TIP3    H1 8715   0.594   7.565   0.511
 2924TIP3    H2 8716   0.745   7.559   0.502
 2925TIP3   OH2 8717   5.123   4.644   6.592
 2925TIP3    H1 8718   5.120   4.689   6.677
 2925TIP3    H2 8719   5.200   4.681   6.548
 2926TIP3   OH2 8720   0.883   2.080   1.027
 2926TIP3    H1 8721   0.854   1.992   1.050
 2926TIP3    H2 8722   0.937   2.068   0.949
 2927TIP3   OH2 8723   3.251   5.615   4.520
 2927TIP3    H1 8724   3.298   5.658   4.449
 2927TIP3    H2 8725   3.199   5.548   4.477
 2928TIP3   OH2 8726   6.313   5.829   3.485
 2928TIP3    H1 8727   6.337   5.901   3.544
 2928TIP3    H2 8728   6.220   5.813   3.504
 2929TIP3   OH2 8729   1.480   7.497   1.074
 2929TIP3    H1 8730   1.561   7.481   1.027
 2929TIP3    H2 8731   1.495   7.579   1.121
 2930TIP3   OH2 8732   0.620   2.063   0.413
 2930TIP3    H1 8733   0.712   2.060   0.439
 2930TIP3    H2 8734   0.572   2.047   0.495
 2931TIP3   OH2 8735   2.565   6.189   3.616
 2931TIP3    H1 8736   2.619   6.125   3.570
 2931TIP3    H2 8737   2.588   6.273   3.577
 2932TIP3   OH2 8738   5.615   4.374   4.363
 2932TIP3    H1 8739   5.686   4.333   4.314
 2932TIP3    H2 8740   5.549   4.395   4.297
 2933TIP3   OH2 8741   7.981   1.497   1.324
 2933TIP3    H1 8742   7.945   1.537   1.245
 2933TIP3    H2 8743   7.970   1.403   1.310
 2934TIP3   OH2 8744   0.857   4.157   1.651
 2934TIP3    H1 8745   0.782   4.176   1.594
 2934TIP3    H2 8746   0.934   4.175   1.596
 2935TIP3   OH2 8747   4.972   5.644   1.140
 2935TIP3    H1 8748   4.940   5.732   1.119
 2935TIP3    H2 8749   5.039   5.658   1.207
 2936TIP3   OH2 8750   0.699   5.932   3.506
 2936TIP3    H1 8751   0.692   5.895   3.419
 2936TIP3    H2 8752   0.685   6.026   3.494
 2937TIP3   OH2 8753   4.809   4.075   3.416
 2937TIP3    H1 8754   4.734   4.088   3.474
 2937TIP3    H2 8755   4.798   3.986   3.382
 2938TIP3   OH2 8756   8.126   2.091   1.567
 2938TIP3    H1 8757   8.105   2.141   1.646
 2938TIP3    H2 8758   8.061   2.120   1.503
 2939TIP3   OH2 8759   8.138   0.755   0.415
 2939TIP3    H1 8760   8.127   0.848   0.396
 2939TIP3    H2 8761   8.107   0.745   0.505
 2940TIP3   OH2 8762   6.126   2.001   4.003
 2940TIP3    H1 8763   6.186   2.063   3.961
 2940TIP3    H2 8764   6.177   1.962   4.074
 2941TIP3   OH2 8765   3.504   6.762   4.260
 2941TIP3    H1 8766   3.488   6.700   4.188
 2941TIP3    H2 8767   3.547   6.836   4.218
 2942TIP3   OH2 8768   8.187   0.190   1.393
 2942TIP3    H1 8769   8.174   0.221   1.303
 2942TIP3    H2 8770   8.150   0.259   1.448
 2943TIP3   OH2 8771   0.061   4.168   6.083
 2943TIP3    H1 8772   0.019   4.179   5.998
 2943TIP3    H2 8773  -0.010   4.173   6.147
 2944TIP3   OH2 8774   6.603   7.633   3.082
 2944TIP3    H1 8775   6.627   7.710   3.030
 2944TIP3    H2 8776   6.567   7.669   3.163
 2945TIP3   OH2 8777   0.048   3.008   6.209
 2945TIP3    H1 8778   0.028   3.083   6.264
 2945TIP3    H2 8779   0.023   2.932   6.260
 2946TIP3   OH2 8780   3.240   7.711   2.780
 2946TIP3    H1 8781   3.313   7.660   2.814
 2946TIP3    H2 8782   3.225   7.779   2.846
 2947TIP3   OH2 8783   4.699   3.232   4.072
 2947TIP3    H1 8784   4.724   3.161   4.131
 2947TIP3    H2 8785   4.607   3.216   4.053
 2948TIP3   OH2 8786   4.764   6.466   5.229
 2948TIP3    H1 8787   4.690   6.464   5.169
 2948TIP3    H2 8788   4.778   6.559   5.246
 2949TIP3   OH2 8789   0.270   7.239   1.724
 2949TIP3    H1 8790   0.240   7.330   1.715
 2949TIP3    H2 8791   0.278   7.208   1.633
 2950TIP3   OH2 8792   0.501   6.001   5.280
 2950TIP3    H1 8793   0.456   6.077   5.244
 2950TIP3    H2 8794   0.594   6.016   5.260
 2951TIP3   OH2 8795   3.735   2.453   5.181
 2951TIP3    H1 8796   3.661   2.442   5.121
 2951TIP3    H2 8797   3.809   2.474   5.125
 2952TIP3   OH2 8798   1.548   4.131   6.063
 2952TIP3    H1 8799   1.593   4.202   6.109
 2952TIP3    H2 8800   1.615   4.092   6.007
 2953TIP3   OH2 8801   4.964   5.530   5.620
 2953TIP3    H1 8802   4.872   5.509   5.606
 2953TIP3    H2 8803   5.009   5.497   5.542
 2954TIP3   OH2 8804   5.663   4.619   3.381
 2954TIP3    H1 8805   5.739   4.625   3.323
 2954TIP3    H2 8806   5.589   4.640   3.325
 2955TIP3   OH2 8807   6.831   3.496   6.398
 2955TIP3    H1 8808   6.746   3.531   6.371
 2955TIP3    H2 8809   6.827   3.494   6.493
 2956TIP3   OH2 8810   6.410   6.766   3.709
 2956TIP3    H1 8811   6.482   6.708   3.683
 2956TIP3    H2 8812   6.434   6.851   3.670
 2957TIP3   OH2 8813   3.329   1.860   3.507
 2957TIP3    H1 8814   3.321   1.926   3.438
 2957TIP3    H2 8815   3.423   1.847   3.517
 2958TIP3   OH2 8816   3.406   6.605   1.901
 2958TIP3    H1 8817   3.441   6.687   1.938
 2958TIP3    H2 8818   3.314   6.625   1.882
 2959TIP3   OH2 8819   4.476   6.466   2.710
 2959TIP3    H1 8820   4.470   6.390   2.767
 2959TIP3    H2 8821   4.422   6.443   2.634
 2960TIP3   OH2 8822   6.151   3.567   2.281
 2960TIP3    H1 8823   6.193   3.649   2.257
 2960TIP3    H2 8824   6.083   3.554   2.215
 2961TIP3   OH2 8825   4.172   1.674   4.716
 2961TIP3    H1 8826   4.113   1.727   4.663
 2961TIP3    H2 8827   4.165   1.711   4.804
 2962TIP3   OH2 8828   2.047   5.021   4.924
 2962TIP3    H1 8829   1.989   5.000   4.997
 2962TIP3    H2 8830   2.010   4.973   4.850
 2963TIP3   OH2 8831   3.439   7.716   6.587
 2963TIP3    H1 8832   3.383   7.794   6.585
 2963TIP3    H2 8833   3.400   7.661   6.655
 2964TIP3   OH2 8834   5.961   6.409   4.511
 2964TIP3    H1 8835   6.017   6.459   4.571
 2964TIP3    H2 8836   6.016   6.395   4.434
 2965TIP3   OH2 8837   3.501   0.946   1.600
 2965TIP3    H1 8838   3.566   0.984   1.660
 2965TIP3    H2 8839   3.417   0.973   1.637
 2966TIP3   OH2 8840   4.143   5.557   2.350
 2966TIP3    H1 8841   4.090   5.604   2.286
 2966TIP3    H2 8842   4.218   5.524   2.300
 2967TIP3   OH2 8843   4.750   0.562   4.069
 2967TIP3    H1 8844   4.826   0.505   4.058
 2967TIP3    H2 8845   4.786   0.641   4.110
 2968TIP3   OH2 8846   0.063   3.390   4.924
 2968TIP3    H1 8847   0.043   3.310   4.875
 2968TIP3    H2 8848   0.143   3.368   4.972
 2969TIP3   OH2 8849   7.812   1.050   6.379
 2969TIP3    H1 8850   7.888   0.999   6.354
 2969TIP3    H2 8851   7.847   1.136   6.403
 2970TIP3   OH2 8852   3.109   0.508   2.515
 2970TIP3    H1 8853   3.146   0.586   2.557
 2970TIP3    H2 8854   3.159   0.435   2.552
 2971TIP3   OH2 8855   1.442   7.412   5.511
 2971TIP3    H1 8856   1.471   7.491   5.466
 2971TIP3    H2 8857   1.348   7.423   5.521
 2972TIP3   OH2 8858   3.605   4.487   3.038
 2972TIP3    H1 8859   3.681   4.480   3.097
 2972TIP3    H2 8860   3.548   4.415   3.064
 2973TIP3   OH2 8861   1.625   6.738   1.132
 2973TIP3    H1 8862   1.576   6.775   1.205
 2973TIP3    H2 8863   1.707   6.708   1.172
 2974TIP3   OH2 8864   1.639   2.907   5.848
 2974TIP3    H1 8865   1.700   2.834   5.838
 2974TIP3    H2 8866   1.650   2.959   5.769
 2975TIP3   OH2 8867   4.663   4.736   1.352
 2975TIP3    H1 8868   4.740   4.788   1.373
 2975TIP3    H2 8869   4.691   4.678   1.281
 2976TIP3   OH2 8870   7.969   6.917   2.661
 2976TIP3    H1 8871   7.977   6.988   2.598
 2976TIP3    H2 8872   7.953   6.839   2.608
 2977TIP3   OH2 8873   7.369   1.102   1.955
 2977TIP3    H1 8874   7.395   1.134   1.868
 2977TIP3    H2 8875   7.329   1.017   1.938
 2978TIP3   OH2 8876   2.467   2.512   2.619
 2978TIP3    H1 8877   2.555   2.492   2.649
 2978TIP3    H2 8878   2.479   2.558   2.535
 2979TIP3   OH2 8879   7.646   3.101   6.337
 2979TIP3    H1 8880   7.716   3.162   6.361
 2979TIP3    H2 8881   7.636   3.044   6.413
 2980TIP3   OH2 8882   1.744   7.210   2.077
 2980TIP3    H1 8883   1.756   7.272   2.005
 2980TIP3    H2 8884   1.723   7.266   2.152
 2981TIP3   OH2 8885   3.459   3.281   0.879
 2981TIP3    H1 8886   3.417   3.197   0.893
 2981TIP3    H2 8887   3.545   3.259   0.842
 2982TIP3   OH2 8888   2.071   7.334   1.378
 2982TIP3    H1 8889   2.080   7.280   1.300
 2982TIP3    H2 8890   1.978   7.329   1.401
 2983TIP3   OH2 8891   4.724   5.488   4.136
 2983TIP3    H1 8892   4.811   5.468   4.173
 2983TIP3    H2 8893   4.726   5.450   4.048
 2984TIP3   OH2 8894   3.329   5.319   6.418
 2984TIP3    H1 8895   3.328   5.344   6.326
 2984TIP3    H2 8896   3.257   5.368   6.457
 2985TIP3   OH2 8897   0.213   5.533   0.357
 2985TIP3    H1 8898   0.280   5.583   0.311
 2985TIP3    H2 8899   0.227   5.443   0.329
 2986TIP3   OH2 8900   2.269   1.003   0.459
 2986TIP3    H1 8901   2.335   1.066   0.489
 2986TIP3    H2 8902   2.315   0.919   0.459
 2987TIP3   OH2 8903   3.261   6.469   3.234
 2987TIP3    H1 8904   3.221   6.461   3.147
 2987TIP3    H2 8905   3.258   6.381   3.270
 2988TIP3   OH2 8906   2.813   6.169   0.257
 2988TIP3    H1 8907   2.799   6.164   0.351
 2988TIP3    H2 8908   2.853   6.255   0.243
 2989TIP3   OH2 8909   4.848   7.052   0.237
 2989TIP3    H1 8910   4.893   7.041   0.321
 2989TIP3    H2 8911   4.877   7.138   0.205
 2990TIP3   OH2 8912   2.190   6.511   2.307
 2990TIP3    H1 8913   2.145   6.482   2.387
 2990TIP3    H2 8914   2.264   6.563   2.339
 2991TIP3   OH2 8915   1.200   4.229   1.791
 2991TIP3    H1 8916   1.232   4.266   1.709
 2991TIP3    H2 8917   1.142   4.296   1.827
 2992TIP3   OH2 8918   2.072   0.363   1.091
 2992TIP3    H1 8919   2.131   0.288   1.092
 2992TIP3    H2 8920   1.985   0.325   1.103
 2993TIP3   OH2 8921   3.394   6.467   4.313
 2993TIP3    H1 8922   3.318   6.479   4.370
 2993TIP3    H2 8923   3.360   6.418   4.238
 2994TIP3   OH2 8924   2.664   6.974   3.324
 2994TIP3    H1 8925   2.754   6.952   3.348
 2994TIP3    H2 8926   2.638   7.042   3.387
 2995TIP3   OH2 8927   1.583   3.153   6.040
 2995TIP3    H1 8928   1.552   3.097   6.111
 2995TIP3    H2 8929   1.586   3.241   6.079
 2996TIP3   OH2 8930   5.549   0.385   3.507
 2996TIP3    H1 8931   5.501   0.358   3.586
 2996TIP3    H2 8932   5.584   0.471   3.528
 2997TIP3   OH2 8933   1.576   6.753   2.294
 2997TIP3    H1 8934   1.636   6.680   2.281
 2997TIP3    H2 8935   1.611   6.823   2.239
 2998TIP3   OH2 8936   5.468   0.735   1.212
 2998TIP3    H1 8937   5.483   0.655   1.161
 2998TIP3    H2 8938   5.482   0.708   1.303
 2999TIP3   OH2 8939   7.019   0.350   1.644
 2999TIP3    H1 8940   7.064   0.356   1.728
 2999TIP3    H2 8941   6.952   0.419   1.647
 3000TIP3   OH2 8942   0.494   2.791   3.792
 3000TIP3    H1 8943   0.440   2.763   3.718
 3000TIP3    H2 8944   0.467   2.881   3.808
 3001TIP3   OH2 8945   4.144   5.194   1.707
 3001TIP3    H1 8946   4.113   5.285   1.703
 3001TIP3    H2 8947   4.145   5.165   1.616
 3002TIP3   OH2 8948   7.236   3.183   1.849
 3002TIP3    H1 8949   7.202   3.094   1.838
 3002TIP3    H2 8950   7.249   3.192   1.943
 3003TIP3   OH2 8951   0.164   6.948   4.749
 3003TIP3    H1 8952   0.090   6.888   4.759
 3003TIP3    H2 8953   0.162   6.973   4.657
 3004TIP3   OH2 8954   5.624   7.642   2.276
 3004TIP3    H1 8955   5.539   7.607   2.247
 3004TIP3    H2 8956   5.689   7.584   2.236
 3005TIP3   OH2 8957   8.044   0.739   5.727
 3005TIP3    H1 8958   8.097   0.817   5.710
 3005TIP3    H2 8959   8.107   0.671   5.750
 3006TIP3   OH2 8960   2.922   6.518   3.310
 3006TIP3    H1 8961   2.968   6.460   3.371
 3006TIP3    H2 8962   2.869   6.575   3.365
 3007TIP3   OH2 8963   4.305   4.767   6.282
 3007TIP3    H1 8964   4.356   4.845   6.301
 3007TIP3    H2 8965   4.214   4.795   6.287
 3008TIP3   OH2 8966   2.264   2.356   2.471
 3008TIP3    H1 8967   2.328   2.299   2.427
 3008TIP3    H2 8968   2.317   2.416   2.523
 3009TIP3   OH2 8969   5.623   7.677   3.116
 3009TIP3    H1 8970   5.703   7.637   3.082
 3009TIP3    H2 8971   5.556   7.609   3.108
 3010TIP3   OH2 8972   1.814   0.329   0.032
 3010TIP3    H1 8973   1.790   0.366   0.117
 3010TIP3    H2 8974   1.769   0.384  -0.032
 3011TIP3   OH2 8975   7.184   2.314   2.059
 3011TIP3    H1 8976   7.100   2.323   2.102
 3011TIP3    H2 8977   7.230   2.246   2.109
 3012TIP3   OH2 8978   5.370   6.492   1.320
 3012TIP3    H1 8979   5.370   6.526   1.231
 3012TIP3    H2 8980   5.278   6.492   1.346
 3013TIP3   OH2 8981   1.365   5.640   1.074
 3013TIP3    H1 8982   1.278   5.643   1.115
 3013TIP3    H2 8983   1.413   5.575   1.124
 3014TIP3   OH2 8984   2.313   4.060   3.955
 3014TIP3    H1 8985   2.261   4.072   4.035
 3014TIP3    H2 8986   2.288   4.133   3.899
 3015TIP3   OH2 8987   6.207   2.103   0.584
 3015TIP3    H1 8988   6.254   2.186   0.589
 3015TIP3    H2 8989   6.154   2.109   0.505
 3016TIP3   OH2 8990   3.204   6.057   2.910
 3016TIP3    H1 8991   3.197   5.966   2.881
 3016TIP3    H2 8992   3.152   6.060   2.991
 3017TIP3   OH2 8993   0.826   6.583   3.435
 3017TIP3    H1 8994   0.824   6.620   3.523
 3017TIP3    H2 8995   0.818   6.658   3.377
 3018TIP3   OH2 8996   7.339   7.721   1.972
 3018TIP3    H1 8997   7.275   7.716   2.043
 3018TIP3    H2 8998   7.311   7.795   1.918
 3019TIP3   OH2 8999   3.787   4.626   3.403
 3019TIP3    H1 9000   3.697   4.643   3.375
 3019TIP3    H2 9001   3.825   4.574   3.332
 3020TIP3   OH2 9002   0.661   4.512   4.336
 3020TIP3    H1 9003   0.608   4.469   4.269
 3020TIP3    H2 9004   0.648   4.460   4.415
 3021TIP3   OH2 9005   4.408   5.986   1.657
 3021TIP3    H1 9006   4.316   5.974   1.635
 3021TIP3    H2 9007   4.451   5.905   1.626
 3022TIP3   OH2 9008   1.189   4.654   1.340
 3022TIP3    H1 9009   1.228   4.697   1.416
 3022TIP3    H2 9010   1.263   4.639   1.280
 3023TIP3   OH2 9011   7.346   2.586   3.873
 3023TIP3    H1 9012   7.363   2.501   3.914
 3023TIP3    H2 9013   7.333   2.566   3.780
 3024TIP3   OH2 9014   6.422   0.615   5.445
 3024TIP3    H1 9015   6.332   0.645   5.431
 3024TIP3    H2 9016   6.413   0.526   5.477
 3025TIP3   OH2 9017   7.112   7.405   4.794
 3025TIP3    H1 9018   7.077   7.339   4.853
 3025TIP3    H2 9019   7.061   7.483   4.813
 3026TIP3   OH2 9020   1.004   0.413   4.140
 3026TIP3    H1 9021   1.023   0.477   4.209
 3026TIP3    H2 9022   1.065   0.341   4.156
 3027TIP3   OH2 9023   7.171   2.922   6.476
 3027TIP3    H1 9024   7.167   2.828   6.461
 3027TIP3    H2 9025   7.203   2.930   6.567
 3028TIP3   OH2 9026   4.279   2.892   2.647
 3028TIP3    H1 9027   4.248   2.981   2.663
 3028TIP3    H2 9028   4.200   2.842   2.629
 3029TIP3   OH2 9029   7.685   4.714   2.529
 3029TIP3    H1 9030   7.629   4.669   2.593
 3029TIP3    H2 9031   7.628   4.729   2.453
 3030TIP3   OH2 9032   6.277   7.645   1.512
 3030TIP3    H1 9033   6.204   7.699   1.481
 3030TIP3    H2 9034   6.240   7.594   1.584
 3031TIP3   OH2 9035   3.095   3.631   0.688
 3031TIP3    H1 9036   3.182   3.596   0.675
 3031TIP3    H2 9037   3.037   3.570   0.643
 3032TIP3   OH2 9038   5.884   0.387   3.472
 3032TIP3    H1 9039   5.819   0.400   3.541
 3032TIP3    H2 9040   5.967   0.376   3.518
 3033TIP3   OH2 9041   6.194   3.302   5.868
 3033TIP3    H1 9042   6.117   3.299   5.811
 3033TIP3    H2 9043   6.265   3.333   5.810
 3034TIP3   OH2 9044   3.213   2.754   3.269
 3034TIP3    H1 9045   3.125   2.773   3.301
 3034TIP3    H2 9046   3.221   2.659   3.277
 3035TIP3   OH2 9047   7.788   1.080   1.755
 3035TIP3    H1 9048   7.826   1.094   1.842
 3035TIP3    H2 9049   7.863   1.081   1.696
 3036TIP3   OH2 9050   4.588   4.375   3.480
 3036TIP3    H1 9051   4.565   4.283   3.466
 3036TIP3    H2 9052   4.504   4.420   3.487
 3037TIP3   OH2 9053   3.368   5.686   1.971
 3037TIP3    H1 9054   3.439   5.685   1.907
 3037TIP3    H2 9055   3.404   5.643   2.048
 3038TIP3   OH2 9056   5.268   7.264   4.269
 3038TIP3    H1 9057   5.300   7.176   4.247
 3038TIP3    H2 9058   5.330   7.297   4.334
 3039TIP3   OH2 9059   3.377   6.450   5.973
 3039TIP3    H1 9060   3.409   6.362   5.994
 3039TIP3    H2 9061   3.452   6.495   5.935
 3040TIP3   OH2 9062   7.950   7.508   0.682
 3040TIP3    H1 9063   7.979   7.524   0.772
 3040TIP3    H2 9064   8.011   7.443   0.648
 3041TIP3   OH2 9065   0.623   5.503   1.643
 3041TIP3    H1 9066   0.663   5.538   1.563
 3041TIP3    H2 9067   0.537   5.473   1.616
 3042TIP3   OH2 9068   0.613   5.669   1.953
 3042TIP3    H1 9069   0.614   5.587   1.903
 3042TIP3    H2 9070   0.690   5.663   2.010
 3043TIP3   OH2 9071   7.715   0.327   4.909
 3043TIP3    H1 9072   7.801   0.364   4.930
 3043TIP3    H2 9073   7.729   0.276   4.829
 3044TIP3   OH2 9074   7.016   0.039   0.477
 3044TIP3    H1 9075   7.052   0.026   0.565
 3044TIP3    H2 9076   6.960  -0.037   0.463
 3045TIP3   OH2 9077   0.280   4.093   5.574
 3045TIP3    H1 9078   0.218   4.034   5.530
 3045TIP3    H2 9079   0.324   4.138   5.502
 3046TIP3   OH2 9080   6.727   6.595   4.246
 3046TIP3    H1 9081   6.756   6.505   4.230
 3046TIP3    H2 9082   6.637   6.586   4.278
 3047TIP3   OH2 9083   8.146   4.002   6.648
 3047TIP3    H1 9084   8.151   4.060   6.724
 3047TIP3    H2 9085   8.156   3.914   6.684
 3048TIP3   OH2 9086   0.186   3.213   0.128
 3048TIP3    H1 9087   0.185   3.237   0.036
 3048TIP3    H2 9088   0.102   3.246   0.162
 3049TIP3   OH2 9089   7.974   6.384   4.558
 3049TIP3    H1 9090   8.021   6.301   4.548
 3049TIP3    H2 9091   7.894   6.373   4.507
 3050TIP3   OH2 9092   2.679   1.985   6.336
 3050TIP3    H1 9093   2.649   1.974   6.427
 3050TIP3    H2 9094   2.746   2.053   6.341
 3051TIP3   OH2 9095   3.677   2.938   1.505
 3051TIP3    H1 9096   3.687   2.890   1.587
 3051TIP3    H2 9097   3.673   3.030   1.531
 3052TIP3   OH2 9098   2.908   0.670   3.578
 3052TIP3    H1 9099   2.891   0.692   3.486
 3052TIP3    H2 9100   2.998   0.696   3.593
 3053TIP3   OH2 9101   1.379   2.182   6.484
 3053TIP3    H1 9102   1.425   2.101   6.464
 3053TIP3    H2 9103   1.343   2.169   6.572
 3054TIP3   OH2 9104   1.992   0.058   2.982
 3054TIP3    H1 9105   1.977  -0.037   2.977
 3054TIP3    H2 9106   2.075   0.066   3.030
 3055TIP3   OH2 9107   6.402   4.465   3.633
 3055TIP3    H1 9108   6.349   4.385   3.639
 3055TIP3    H2 9109   6.381   4.514   3.713
 3056TIP3   OH2 9110   3.542   1.963   1.297
 3056TIP3    H1 9111   3.449   1.955   1.277
 3056TIP3    H2 9112   3.560   1.893   1.359
 3057TIP3   OH2 9113   5.819   4.400   6.368
 3057TIP3    H1 9114   5.793   4.314   6.400
 3057TIP3    H2 9115   5.737   4.450   6.363
 3058TIP3   OH2 9116   0.691   3.052   0.351
 3058TIP3    H1 9117   0.651   2.968   0.330
 3058TIP3    H2 9118   0.618   3.114   0.350
 3059TIP3   OH2 9119   0.560   5.373   2.521
 3059TIP3    H1 9120   0.652   5.397   2.524
 3059TIP3    H2 9121   0.553   5.311   2.449
 3060TIP3   OH2 9122   7.614   5.739   4.123
 3060TIP3    H1 9123   7.626   5.819   4.073
 3060TIP3    H2 9124   7.702   5.701   4.127
 3061TIP3   OH2 9125   1.994   0.062   2.481
 3061TIP3    H1 9126   2.073   0.104   2.446
 3061TIP3    H2 9127   1.971   0.114   2.558
 3062TIP3   OH2 9128   4.675   5.405   6.287
 3062TIP3    H1 9129   4.739   5.439   6.223
 3062TIP3    H2 9130   4.593   5.399   6.238
 3063TIP3   OH2 9131   0.180   0.624   6.308
 3063TIP3    H1 9132   0.172   0.665   6.394
 3063TIP3    H2 9133   0.253   0.562   6.317
 3064TIP3   OH2 9134   6.893   6.124  -0.016
 3064TIP3    H1 9135   6.984   6.095  -0.002
 3064TIP3    H2 9136   6.866   6.157   0.070
 3065TIP3   OH2 9137   4.269   7.695   6.447
 3065TIP3    H1 9138   4.336   7.759   6.424
 3065TIP3    H2 9139   4.192   7.724   6.399
 3066TIP3   OH2 9140   5.291   3.071   3.332
 3066TIP3    H1 9141   5.235   3.058   3.256
 3066TIP3    H2 9142   5.305   2.983   3.367
 3067TIP3   OH2 9143   1.902   2.280   5.156
 3067TIP3    H1 9144   1.904   2.376   5.153
 3067TIP3    H2 9145   1.954   2.253   5.081
 3068TIP3   OH2 9146   4.807   2.430   4.006
 3068TIP3    H1 9147   4.852   2.511   4.028
 3068TIP3    H2 9148   4.731   2.458   3.955
 3069TIP3   OH2 9149   0.939   3.010   1.798
 3069TIP3    H1 9150   0.995   3.076   1.756
 3069TIP3    H2 9151   0.851   3.046   1.793
 3070TIP3   OH2 9152   0.836   0.512   1.963
 3070TIP3    H1 9153   0.850   0.568   2.039
 3070TIP3    H2 9154   0.881   0.430   1.985
 3071TIP3   OH2 9155   1.879   1.380   2.545
 3071TIP3    H1 9156   1.789   1.365   2.574
 3071TIP3    H2 9157   1.933   1.358   2.620
 3072TIP3   OH2 9158   0.232   3.934   6.166
 3072TIP3    H1 9159   0.191   3.860   6.120
 3072TIP3    H2 9160   0.184   4.011   6.134
 3073TIP3   OH2 9161   7.793   5.664   2.746
 3073TIP3    H1 9162   7.839   5.726   2.802
 3073TIP3    H2 9163   7.704   5.699   2.740
 3074TIP3   OH2 9164   3.276   6.412   3.773
 3074TIP3    H1 9165   3.251   6.504   3.781
 3074TIP3    H2 9166   3.360   6.406   3.819
 3075TIP3   OH2 9167   2.672   3.626   4.223
 3075TIP3    H1 9168   2.623   3.707   4.219
 3075TIP3    H2 9169   2.667   3.599   4.315
 3076TIP3   OH2 9170   3.126   4.054   2.585
 3076TIP3    H1 9171   3.216   4.071   2.613
 3076TIP3    H2 9172   3.093   3.989   2.647
 3077TIP3   OH2 9173   4.852   7.341   4.541
 3077TIP3    H1 9174   4.865   7.425   4.497
 3077TIP3    H2 9175   4.925   7.287   4.511
 3078TIP3   OH2 9176   7.526   0.040   2.874
 3078TIP3    H1 9177   7.495   0.128   2.854
 3078TIP3    H2 9178   7.620   0.044   2.857
 3079TIP3   OH2 9179   6.194   5.992   2.211
 3079TIP3    H1 9180   6.191   6.041   2.293
 3079TIP3    H2 9181   6.281   5.951   2.210
 3080TIP3   OH2 9182   7.987   3.520   4.599
 3080TIP3    H1 9183   7.898   3.515   4.565
 3080TIP3    H2 9184   7.986   3.464   4.677
 3081TIP3   OH2 9185   2.308   2.760   3.272
 3081TIP3    H1 9186   2.324   2.803   3.357
 3081TIP3    H2 9187   2.395   2.735   3.241
 3082TIP3   OH2 9188   1.763   0.946   1.160
 3082TIP3    H1 9189   1.684   0.929   1.108
 3082TIP3    H2 9190   1.822   0.874   1.138
 3083TIP3   OH2 9191   2.174   3.317   2.585
 3083TIP3    H1 9192   2.236   3.267   2.533
 3083TIP3    H2 9193   2.195   3.409   2.568
 3084TIP3   OH2 9194   2.726   1.202   3.662
 3084TIP3    H1 9195   2.765   1.235   3.742
 3084TIP3    H2 9196   2.792   1.144   3.625
 3085TIP3   OH2 9197   7.073   6.278   1.039
 3085TIP3    H1 9198   7.016   6.270   1.115
 3085TIP3    H2 9199   7.036   6.349   0.988
 3086TIP3   OH2 9200   1.289   6.186   6.316
 3086TIP3    H1 9201   1.352   6.179   6.388
 3086TIP3    H2 9202   1.323   6.125   6.250
 3087TIP3   OH2 9203   5.089   2.650   1.048
 3087TIP3    H1 9204   5.174   2.660   1.006
 3087TIP3    H2 9205   5.100   2.578   1.110
 3088TIP3   OH2 9206   0.537   7.154   4.106
 3088TIP3    H1 9207   0.520   7.062   4.087
 3088TIP3    H2 9208   0.586   7.185   4.029
 3089TIP3   OH2 9209   0.700   3.275   2.546
 3089TIP3    H1 9210   0.700   3.200   2.605
 3089TIP3    H2 9211   0.791   3.304   2.544
 3090TIP3   OH2 9212   5.227   6.045   4.362
 3090TIP3    H1 9213   5.216   6.032   4.268
 3090TIP3    H2 9214   5.153   6.000   4.402
 3091TIP3   OH2 9215   1.972   0.714   2.174
 3091TIP3    H1 9216   1.990   0.633   2.127
 3091TIP3    H2 9217   1.999   0.783   2.114
 3092TIP3   OH2 9218   1.935   6.992   4.290
 3092TIP3    H1 9219   1.860   6.982   4.232
 3092TIP3    H2 9220   1.955   7.086   4.289
 3093TIP3   OH2 9221   8.027   5.406   0.016
 3093TIP3    H1 9222   8.000   5.489   0.055
 3093TIP3    H2 9223   8.113   5.388   0.054
 3094TIP3   OH2 9224   7.517   3.455   0.006
 3094TIP3    H1 9225   7.544   3.397  -0.065
 3094TIP3    H2 9226   7.547   3.412   0.085
 3095TIP3   OH2 9227   3.920   3.199   5.938
 3095TIP3    H1 9228   3.951   3.133   5.875
 3095TIP3    H2 9229   3.871   3.262   5.885
 3096TIP3   OH2 9230   1.888   4.835   1.671
 3096TIP3    H1 9231   1.817   4.850   1.609
 3096TIP3    H2 9232   1.921   4.748   1.650
 3097TIP3   OH2 9233   0.172   5.638   4.435
 3097TIP3    H1 9234   0.256   5.591   4.435
 3097TIP3    H2 9235   0.173   5.689   4.355
 3098TIP3   OH2 9236   1.190   0.652   1.241
 3098TIP3    H1 9237   1.199   0.666   1.147
 3098TIP3    H2 9238   1.152   0.565   1.249
 3099TIP3   OH2 9239   0.470   5.185   6.475
 3099TIP3    H1 9240   0.516   5.244   6.416
 3099TIP3    H2 9241   0.388   5.230   6.495
 3100TIP3   OH2 9242   7.800   7.021   2.248
 3100TIP3    H1 9243   7.825   7.043   2.158
 3100TIP3    H2 9244   7.730   7.083   2.269
 3101TIP3   OH2 9245   0.846   0.529   0.971
 3101TIP3    H1 9246   0.905   0.468   0.927
 3101TIP3    H2 9247   0.758   0.502   0.944
 3102TIP3   OH2 9248   0.064   1.965   1.505
 3102TIP3    H1 9249   0.133   2.015   1.549
 3102TIP3    H2 9250  -0.008   2.026   1.497
 3103TIP3   OH2 9251   7.652   4.051   0.642
 3103TIP3    H1 9252   7.605   3.969   0.656
 3103TIP3    H2 9253   7.618   4.085   0.559
 3104TIP3   OH2 9254   5.104   4.755   2.360
 3104TIP3    H1 9255   5.078   4.686   2.421
 3104TIP3    H2 9256   5.042   4.748   2.288
 3105TIP3   OH2 9257   5.887   4.347   6.055
 3105TIP3    H1 9258   5.812   4.288   6.064
 3105TIP3    H2 9259   5.912   4.367   6.145
 3106TIP3   OH2 9260   6.929   5.699   3.784
 3106TIP3    H1 9261   6.894   5.729   3.868
 3106TIP3    H2 9262   6.857   5.713   3.722
 3107TIP3   OH2 9263   8.111   1.750   6.340
 3107TIP3    H1 9264   8.049   1.821   6.323
 3107TIP3    H2 9265   8.123   1.752   6.435
 3108TIP3   OH2 9266   5.542   4.902   2.184
 3108TIP3    H1 9267   5.536   4.948   2.100
 3108TIP3    H2 9268   5.471   4.838   2.182
 3109TIP3   OH2 9269   6.324   6.546   4.149
 3109TIP3    H1 9270   6.387   6.540   4.221
 3109TIP3    H2 9271   6.362   6.609   4.089
 3110TIP3   OH2 9272   3.298   3.161   4.486
 3110TIP3    H1 9273   3.314   3.241   4.435
 3110TIP3    H2 9274   3.234   3.113   4.434
 3111TIP3   OH2 9275   7.770   3.067   2.346
 3111TIP3    H1 9276   7.743   3.157   2.329
 3111TIP3    H2 9277   7.845   3.074   2.405
 3112TIP3   OH2 9278   4.522   0.618   4.471
 3112TIP3    H1 9279   4.616   0.611   4.456
 3112TIP3    H2 9280   4.510   0.587   4.560
 3113TIP3   OH2 9281   0.188   1.669   3.075
 3113TIP3    H1 9282   0.151   1.632   2.995
 3113TIP3    H2 9283   0.147   1.755   3.083
 3114TIP3   OH2 9284   3.880   7.178   4.579
 3114TIP3    H1 9285   3.850   7.089   4.560
 3114TIP3    H2 9286   3.835   7.201   4.660
 3115TIP3   OH2 9287   6.193   6.781   2.025
 3115TIP3    H1 9288   6.262   6.792   2.091
 3115TIP3    H2 9289   6.158   6.869   2.011
 3116TIP3   OH2 9290   7.843   7.125   1.991
 3116TIP3    H1 9291   7.901   7.073   1.935
 3116TIP3    H2 9292   7.896   7.200   2.017
 3117TIP3   OH2 9293   6.646   7.088   4.491
 3117TIP3    H1 9294   6.703   7.115   4.563
 3117TIP3    H2 9295   6.702   7.091   4.414
 3118TIP3   OH2 9296   4.765   5.318   2.837
 3118TIP3    H1 9297   4.790   5.323   2.929
 3118TIP3    H2 9298   4.841   5.350   2.789
 3119TIP3   OH2 9299   1.435   0.852   1.605
 3119TIP3    H1 9300   1.492   0.921   1.572
 3119TIP3    H2 9301   1.353   0.897   1.626
 3120TIP3   OH2 9302   5.161   3.192   6.707
 3120TIP3    H1 9303   5.128   3.116   6.659
 3120TIP3    H2 9304   5.209   3.242   6.642
 3121TIP3   OH2 9305   4.837   2.747   1.176
 3121TIP3    H1 9306   4.929   2.727   1.196
 3121TIP3    H2 9307   4.841   2.818   1.112
 3122TIP3   OH2 9308   7.829   1.870   1.044
 3122TIP3    H1 9309   7.892   1.942   1.045
 3122TIP3    H2 9310   7.765   1.892   1.112
 3123TIP3   OH2 9311   4.294   3.491   0.848
 3123TIP3    H1 9312   4.231   3.449   0.790
 3123TIP3    H2 9313   4.370   3.508   0.794
 3124TIP3   OH2 9314   3.349   1.489   1.675
 3124TIP3    H1 9315   3.276   1.539   1.640
 3124TIP3    H2 9316   3.342   1.403   1.632
 3125TIP3   OH2 9317   6.734   3.697   1.747
 3125TIP3    H1 9318   6.829   3.695   1.737
 3125TIP3    H2 9319   6.702   3.632   1.684
 3126TIP3   OH2 9320   1.516   3.683   3.662
 3126TIP3    H1 9321   1.516   3.589   3.644
 3126TIP3    H2 9322   1.457   3.720   3.596
 3127TIP3   OH2 9323   7.314   7.787   6.129
 3127TIP3    H1 9324   7.289   7.763   6.040
 3127TIP3    H2 9325   7.305   7.706   6.179
 3128TIP3   OH2 9326   6.047   0.197   4.127
 3128TIP3    H1 9327   5.992   0.203   4.206
 3128TIP3    H2 9328   6.082   0.108   4.129
 3129TIP3   OH2 9329   4.656   4.762   6.683
 3129TIP3    H1 9330   4.674   4.802   6.768
 3129TIP3    H2 9331   4.575   4.804   6.653
 3130TIP3   OH2 9332   1.877   6.772   4.944
 3130TIP3    H1 9333   1.954   6.814   4.983
 3130TIP3    H2 9334   1.908   6.738   4.860
 3131TIP3   OH2 9335   6.345   1.788   2.636
 3131TIP3    H1 9336   6.280   1.778   2.705
 3131TIP3    H2 9337   6.344   1.881   2.615
 3132TIP3   OH2 9338   3.400   5.390   3.010
 3132TIP3    H1 9339   3.452   5.403   2.931
 3132TIP3    H2 9340   3.415   5.469   3.062
 3133TIP3   OH2 9341   5.558   1.494   5.846
 3133TIP3    H1 9342   5.548   1.413   5.796
 3133TIP3    H2 9343   5.622   1.545   5.798
 3134TIP3   OH2 9344   7.416   3.953   1.596
 3134TIP3    H1 9345   7.321   3.959   1.601
 3134TIP3    H2 9346   7.445   4.045   1.591
 3135TIP3   OH2 9347   1.330   2.042   5.904
 3135TIP3    H1 9348   1.260   2.104   5.888
 3135TIP3    H2 9349   1.409   2.087   5.873
 3136TIP3   OH2 9350   0.450   0.810   1.529
 3136TIP3    H1 9351   0.359   0.784   1.547
 3136TIP3    H2 9352   0.479   0.852   1.610
 3137TIP3   OH2 9353   7.200   3.746   0.154
 3137TIP3    H1 9354   7.136   3.707   0.213
 3137TIP3    H2 9355   7.209   3.681   0.083
 3138TIP3   OH2 9356   7.001   5.499   4.646
 3138TIP3    H1 9357   6.988   5.590   4.622
 3138TIP3    H2 9358   6.978   5.450   4.566
 3139TIP3   OH2 9359   3.740   7.579   0.420
 3139TIP3    H1 9360   3.780   7.583   0.508
 3139TIP3    H2 9361   3.689   7.499   0.421
 3140TIP3   OH2 9362   6.843   2.962   1.437
 3140TIP3    H1 9363   6.933   2.944   1.463
 3140TIP3    H2 9364   6.840   3.057   1.426
 3141TIP3   OH2 9365   3.713   5.205   2.573
 3141TIP3    H1 9366   3.651   5.143   2.611
 3141TIP3    H2 9367   3.659   5.278   2.543
 3142TIP3   OH2 9368   1.639   0.728   1.752
 3142TIP3    H1 9369   1.557   0.763   1.718
 3142TIP3    H2 9370   1.697   0.723   1.676
 3143TIP3   OH2 9371   7.410   6.205   6.246
 3143TIP3    H1 9372   7.366   6.122   6.259
 3143TIP3    H2 9373   7.342   6.271   6.261
 3144TIP3   OH2 9374   7.077   5.088   3.070
 3144TIP3    H1 9375   7.115   5.094   2.983
 3144TIP3    H2 9376   7.152   5.078   3.129
 3145TIP3   OH2 9377   6.149   1.747   4.339
 3145TIP3    H1 9378   6.087   1.775   4.407
 3145TIP3    H2 9379   6.099   1.685   4.286
 3146TIP3   OH2 9380   3.176   6.871   2.431
 3146TIP3    H1 9381   3.253   6.928   2.443
 3146TIP3    H2 9382   3.119   6.892   2.506
 3147TIP3   OH2 9383   8.032   2.339   2.970
 3147TIP3    H1 9384   7.984   2.359   2.889
 3147TIP3    H2 9385   7.980   2.271   3.012
 3148TIP3   OH2 9386   5.145   6.651   6.737
 3148TIP3    H1 9387   5.092   6.684   6.809
 3148TIP3    H2 9388   5.085   6.647   6.662
 3149TIP3   OH2 9389   5.690   1.544   0.692
 3149TIP3    H1 9390   5.713   1.611   0.757
 3149TIP3    H2 9391   5.688   1.591   0.609
 3150TIP3   OH2 9392   0.759   6.228   1.557
 3150TIP3    H1 9393   0.802   6.289   1.497
 3150TIP3    H2 9394   0.674   6.212   1.518
 3151TIP3   OH2 9395   0.637   6.571   1.203
 3151TIP3    H1 9396   0.712   6.564   1.145
 3151TIP3    H2 9397   0.621   6.665   1.210
 3152TIP3   OH2 9398   7.978   3.008   3.102
 3152TIP3    H1 9399   7.924   3.078   3.065
 3152TIP3    H2 9400   8.028   3.051   3.171
 3153TIP3   OH2 9401   6.284   0.625   4.835
 3153TIP3    H1 9402   6.374   0.595   4.843
 3153TIP3    H2 9403   6.265   0.619   4.741
 3154TIP3   OH2 9404   2.401   6.829   3.381
 3154TIP3    H1 9405   2.489   6.868   3.386
 3154TIP3    H2 9406   2.386   6.815   3.288
 3155TIP3   OH2 9407   2.481   2.077   3.630
 3155TIP3    H1 9408   2.455   2.065   3.721
 3155TIP3    H2 9409   2.403   2.054   3.579
 3156TIP3   OH2 9410   4.200   6.295   3.245
 3156TIP3    H1 9411   4.221   6.348   3.322
 3156TIP3    H2 9412   4.115   6.255   3.265
 3157TIP3   OH2 9413   1.895   0.757   3.473
 3157TIP3    H1 9414   1.963   0.757   3.541
 3157TIP3    H2 9415   1.933   0.707   3.401
 3158TIP3   OH2 9416   8.131   1.119   0.701
 3158TIP3    H1 9417   8.167   1.194   0.654
 3158TIP3    H2 9418   8.058   1.154   0.752
 3159TIP3   OH2 9419   7.706   1.701   3.335
 3159TIP3    H1 9420   7.655   1.767   3.384
 3159TIP3    H2 9421   7.666   1.701   3.248
 3160TIP3   OH2 9422   1.400   5.377   0.248
 3160TIP3    H1 9423   1.451   5.378   0.329
 3160TIP3    H2 9424   1.384   5.470   0.229
 3161TIP3   OH2 9425   1.153   6.402   6.399
 3161TIP3    H1 9426   1.211   6.325   6.395
 3161TIP3    H2 9427   1.164   6.445   6.314
 3162TIP3   OH2 9428   5.269   2.603   1.311
 3162TIP3    H1 9429   5.355   2.584   1.274
 3162TIP3    H2 9430   5.254   2.696   1.291
 3163TIP3   OH2 9431   3.466   1.629   6.455
 3163TIP3    H1 9432   3.461   1.585   6.370
 3163TIP3    H2 9433   3.434   1.563   6.518
 3164TIP3   OH2 9434   7.443   0.492   2.669
 3164TIP3    H1 9435   7.434   0.587   2.677
 3164TIP3    H2 9436   7.483   0.465   2.752
 3165TIP3   OH2 9437   6.562   0.987   5.217
 3165TIP3    H1 9438   6.596   0.976   5.128
 3165TIP3    H2 9439   6.508   1.066   5.212
 3166TIP3   OH2 9440   3.927   4.265   1.125
 3166TIP3    H1 9441   4.007   4.212   1.124
 3166TIP3    H2 9442   3.858   4.204   1.098
 3167TIP3   OH2 9443   6.882   1.160   3.342
 3167TIP3    H1 9444   6.880   1.241   3.394
 3167TIP3    H2 9445   6.927   1.097   3.397
 3168TIP3   OH2 9446   0.890   2.528   4.200
 3168TIP3    H1 9447   0.827   2.509   4.270
 3168TIP3    H2 9448   0.891   2.449   4.147
 3169TIP3   OH2 9449   7.443   4.020   4.415
 3169TIP3    H1 9450   7.493   4.087   4.370
 3169TIP3    H2 9451   7.436   3.948   4.352
 3170TIP3   OH2 9452   2.332   3.449   0.723
 3170TIP3    H1 9453   2.427   3.440   0.720
 3170TIP3    H2 9454   2.312   3.458   0.816
 3171TIP3   OH2 9455   7.042   7.035   0.438
 3171TIP3    H1 9456   7.117   7.094   0.438
 3171TIP3    H2 9457   7.016   7.027   0.530
 3172TIP3   OH2 9458   5.337   6.817   3.084
 3172TIP3    H1 9459   5.324   6.725   3.107
 3172TIP3    H2 9460   5.407   6.816   3.019
 3173TIP3   OH2 9461   5.619   2.464   2.761
 3173TIP3    H1 9462   5.666   2.538   2.722
 3173TIP3    H2 9463   5.601   2.493   2.851
 3174TIP3   OH2 9464   4.541   2.386   2.892
 3174TIP3    H1 9465   4.603   2.451   2.860
 3174TIP3    H2 9466   4.492   2.431   2.961
 3175TIP3   OH2 9467   7.200   1.581   6.580
 3175TIP3    H1 9468   7.294   1.595   6.567
 3175TIP3    H2 9469   7.194   1.530   6.660
 3176TIP3   OH2 9470   4.973   0.399   3.989
 3176TIP3    H1 9471   4.921   0.330   3.946
 3176TIP3    H2 9472   5.060   0.391   3.949
 3177TIP3   OH2 9473   6.885   1.231   4.873
 3177TIP3    H1 9474   6.853   1.151   4.915
 3177TIP3    H2 9475   6.839   1.233   4.789
 3178TIP3   OH2 9476   3.897   2.795   0.578
 3178TIP3    H1 9477   3.884   2.827   0.667
 3178TIP3    H2 9478   3.941   2.711   0.589
 3179TIP3   OH2 9479   2.642   6.517   2.069
 3179TIP3    H1 9480   2.645   6.612   2.066
 3179TIP3    H2 9481   2.678   6.489   1.985
 3180TIP3   OH2 9482   5.270   7.162   5.924
 3180TIP3    H1 9483   5.362   7.142   5.912
 3180TIP3    H2 9484   5.250   7.229   5.858
 3181TIP3   OH2 9485   0.306   4.575   0.609
 3181TIP3    H1 9486   0.389   4.528   0.605
 3181TIP3    H2 9487   0.322   4.656   0.561
 3182TIP3   OH2 9488   6.420   2.360   6.403
 3182TIP3    H1 9489   6.473   2.391   6.329
 3182TIP3    H2 9490   6.411   2.266   6.388
 3183TIP3   OH2 9491   1.840   6.581   1.279
 3183TIP3    H1 9492   1.930   6.550   1.266
 3183TIP3    H2 9493   1.797   6.510   1.326
 3184TIP3   OH2 9494   1.472   4.431   6.449
 3184TIP3    H1 9495   1.507   4.518   6.465
 3184TIP3    H2 9496   1.404   4.444   6.383
 3185TIP3   OH2 9497   7.816   6.630   1.077
 3185TIP3    H1 9498   7.826   6.582   0.995
 3185TIP3    H2 9499   7.737   6.594   1.117
 3186TIP3   OH2 9500   6.823   6.796   4.385
 3186TIP3    H1 9501   6.780   6.728   4.334
 3186TIP3    H2 9502   6.799   6.878   4.341
 3187TIP3   OH2 9503   7.894   0.630   6.485
 3187TIP3    H1 9504   7.897   0.561   6.418
 3187TIP3    H2 9505   7.823   0.603   6.543
 3188TIP3   OH2 9506   4.666   2.798   0.072
 3188TIP3    H1 9507   4.747   2.843   0.050
 3188TIP3    H2 9508   4.672   2.783   0.167
 3189TIP3   OH2 9509   6.781   7.058   5.664
 3189TIP3    H1 9510   6.850   7.050   5.731
 3189TIP3    H2 9511   6.702   7.027   5.708
 3190TIP3   OH2 9512   0.844   6.386   3.206
 3190TIP3    H1 9513   0.915   6.450   3.208
 3190TIP3    H2 9514   0.771   6.433   3.167
 3191TIP3   OH2 9515   5.016   3.492   2.601
 3191TIP3    H1 9516   5.109   3.481   2.621
 3191TIP3    H2 9517   5.007   3.586   2.582
 3192TIP3   OH2 9518   6.694   0.466   6.614
 3192TIP3    H1 9519   6.665   0.380   6.586
 3192TIP3    H2 9520   6.616   0.506   6.654
 3193TIP3   OH2 9521   7.640   1.600   2.080
 3193TIP3    H1 9522   7.582   1.566   2.012
 3193TIP3    H2 9523   7.652   1.692   2.056
 3194TIP3   OH2 9524   7.488   3.911   3.899
 3194TIP3    H1 9525   7.438   3.937   3.822
 3194TIP3    H2 9526   7.495   3.816   3.892
 3195TIP3   OH2 9527   6.862   1.617   3.823
 3195TIP3    H1 9528   6.952   1.649   3.823
 3195TIP3    H2 9529   6.869   1.526   3.854
 3196TIP3   OH2 9530   5.165   2.471   5.122
 3196TIP3    H1 9531   5.177   2.457   5.028
 3196TIP3    H2 9532   5.165   2.383   5.159
 3197TIP3   OH2 9533   8.037   7.134   1.723
 3197TIP3    H1 9534   8.091   7.154   1.647
 3197TIP3    H2 9535   7.982   7.212   1.735
 3198TIP3   OH2 9536   6.050   5.510   3.541
 3198TIP3    H1 9537   6.110   5.466   3.481
 3198TIP3    H2 9538   6.061   5.603   3.522
 3199TIP3   OH2 9539   6.993   3.081   2.456
 3199TIP3    H1 9540   6.985   3.007   2.395
 3199TIP3    H2 9541   7.058   3.052   2.520
 3200TIP3   OH2 9542   3.582   4.249   5.659
 3200TIP3    H1 9543   3.606   4.325   5.605
 3200TIP3    H2 9544   3.619   4.174   5.613
 3201TIP3   OH2 9545   4.985   3.638   2.858
 3201TIP3    H1 9546   4.892   3.623   2.842
 3201TIP3    H2 9547   5.017   3.554   2.891
 3202TIP3   OH2 9548   4.133   3.607   2.846
 3202TIP3    H1 9549   4.067   3.587   2.780
 3202TIP3    H2 9550   4.201   3.655   2.799
 3203TIP3   OH2 9551   6.400   4.314   1.403
 3203TIP3    H1 9552   6.374   4.295   1.313
 3203TIP3    H2 9553   6.351   4.394   1.425
 3204TIP3   OH2 9554   3.517   1.501   5.325
 3204TIP3    H1 9555   3.586   1.457   5.374
 3204TIP3    H2 9556   3.496   1.441   5.254
 3205TIP3   OH2 9557   3.738   2.047   3.976
 3205TIP3    H1 9558   3.816   1.993   3.986
 3205TIP3    H2 9559   3.667   1.994   4.010
 3206TIP3   OH2 9560   3.659   7.365   0.589
 3206TIP3    H1 9561   3.592   7.298   0.600
 3206TIP3    H2 9562   3.740   7.315   0.578
 3207TIP3   OH2 9563   2.341   3.362   0.053
 3207TIP3    H1 9564   2.309   3.275   0.077
 3207TIP3    H2 9565   2.263   3.418   0.057
 3208TIP3   OH2 9566   1.765   5.254   6.229
 3208TIP3    H1 9567   1.797   5.164   6.227
 3208TIP3    H2 9568   1.715   5.263   6.147
 3209TIP3   OH2 9569   7.399   3.323   6.008
 3209TIP3    H1 9570   7.321   3.370   5.980
 3209TIP3    H2 9571   7.472   3.378   5.980
 3210TIP3   OH2 9572   6.549   1.237   3.310
 3210TIP3    H1 9573   6.587   1.206   3.392
 3210TIP3    H2 9574   6.609   1.205   3.242
 3211TIP3   OH2 9575   6.878   6.446   0.895
 3211TIP3    H1 9576   6.792   6.452   0.936
 3211TIP3    H2 9577   6.909   6.537   0.891
 3212TIP3   OH2 9578   6.965   7.743   1.727
 3212TIP3    H1 9579   6.954   7.702   1.813
 3212TIP3    H2 9580   7.002   7.674   1.672
 3213TIP3   OH2 9581   1.931   4.939   0.938
 3213TIP3    H1 9582   2.025   4.952   0.944
 3213TIP3    H2 9583   1.921   4.844   0.928
 3214TIP3   OH2 9584   1.814   0.224   1.702
 3214TIP3    H1 9585   1.728   0.228   1.745
 3214TIP3    H2 9586   1.803   0.160   1.632
 3215TIP3   OH2 9587   1.112   7.179   3.684
 3215TIP3    H1 9588   1.149   7.097   3.653
 3215TIP3    H2 9589   1.066   7.155   3.765
 3216TIP3   OH2 9590   1.809   0.442   5.584
 3216TIP3    H1 9591   1.757   0.376   5.537
 3216TIP3    H2 9592   1.767   0.450   5.669
 3217TIP3   OH2 9593   5.841   3.059   2.341
 3217TIP3    H1 9594   5.871   3.058   2.431
 3217TIP3    H2 9595   5.882   3.137   2.302
 3218TIP3   OH2 9596   4.515   1.111   2.438
 3218TIP3    H1 9597   4.501   1.192   2.387
 3218TIP3    H2 9598   4.600   1.124   2.480
 3219TIP3   OH2 9599   0.144   2.813   4.463
 3219TIP3    H1 9600   0.156   2.780   4.374
 3219TIP3    H2 9601   0.071   2.762   4.498
 3220TIP3   OH2 9602   4.824   0.222   3.301
 3220TIP3    H1 9603   4.788   0.303   3.335
 3220TIP3    H2 9604   4.882   0.249   3.230
 3221TIP3   OH2 9605   6.069   1.596   5.370
 3221TIP3    H1 9606   5.984   1.562   5.341
 3221TIP3    H2 9607   6.082   1.559   5.457
 3222TIP3   OH2 9608   5.894   2.247   4.223
 3222TIP3    H1 9609   5.940   2.247   4.139
 3222TIP3    H2 9610   5.938   2.316   4.273
 3223TIP3   OH2 9611   7.067   2.669   4.910
 3223TIP3    H1 9612   7.060   2.646   4.817
 3223TIP3    H2 9613   6.989   2.631   4.950
 3224TIP3   OH2 9614   0.318   6.602   2.887
 3224TIP3    H1 9615   0.235   6.624   2.928
 3224TIP3    H2 9616   0.381   6.660   2.928
 3225TIP3   OH2 9617   7.776   4.734   5.482
 3225TIP3    H1 9618   7.854   4.771   5.524
 3225TIP3    H2 9619   7.811   4.665   5.425
 3226TIP3   OH2 9620   5.668   3.468   4.624
 3226TIP3    H1 9621   5.721   3.390   4.603
 3226TIP3    H2 9622   5.599   3.435   4.681
 3227TIP3   OH2 9623   6.551   3.003   3.330
 3227TIP3    H1 9624   6.517   3.030   3.245
 3227TIP3    H2 9625   6.638   3.042   3.334
 3228TIP3   OH2 9626   4.732   2.445   5.716
 3228TIP3    H1 9627   4.652   2.494   5.699
 3228TIP3    H2 9628   4.798   2.512   5.732
 3229TIP3   OH2 9629   6.439   7.458   1.719
 3229TIP3    H1 9630   6.373   7.399   1.755
 3229TIP3    H2 9631   6.408   7.546   1.741
 3230TIP3   OH2 9632   0.233   5.310   1.626
 3230TIP3    H1 9633   0.277   5.300   1.711
 3230TIP3    H2 9634   0.141   5.324   1.647
 3231TIP3   OH2 9635   0.861   7.819   6.525
 3231TIP3    H1 9636   0.777   7.815   6.479
 3231TIP3    H2 9637   0.917   7.756   6.479
 3232TIP3   OH2 9638   7.573   4.935   0.882
 3232TIP3    H1 9639   7.558   4.842   0.899
 3232TIP3    H2 9640   7.642   4.937   0.816
 3233TIP3   OH2 9641   3.686   5.229   2.879
 3233TIP3    H1 9642   3.630   5.261   2.950
 3233TIP3    H2 9643   3.654   5.274   2.801
 3234TIP3   OH2 9644   3.211   3.224   0.618
 3234TIP3    H1 9645   3.265   3.297   0.647
 3234TIP3    H2 9646   3.272   3.153   0.601
 3235TIP3   OH2 9647   0.053   3.881   4.145
 3235TIP3    H1 9648  -0.016   3.860   4.207
 3235TIP3    H2 9649   0.023   3.846   4.061
 3236TIP3   OH2 9650   0.455   5.129   2.663
 3236TIP3    H1 9651   0.372   5.174   2.682
 3236TIP3    H2 9652   0.498   5.186   2.599
 3237TIP3   OH2 9653   5.024   5.163   3.375
 3237TIP3    H1 9654   5.065   5.208   3.449
 3237TIP3    H2 9655   4.930   5.171   3.391
 3238TIP3   OH2 9656   1.115   5.369   2.491
 3238TIP3    H1 9657   1.209   5.357   2.479
 3238TIP3    H2 9658   1.074   5.327   2.415
 3239TIP3   OH2 9659   4.189   7.597   0.946
 3239TIP3    H1 9660   4.253   7.532   0.916
 3239TIP3    H2 9661   4.214   7.615   1.037
 3240TIP3   OH2 9662   4.288   6.677   1.944
 3240TIP3    H1 9663   4.277   6.639   1.857
 3240TIP3    H2 9664   4.245   6.615   2.003
 3241TIP3   OH2 9665   5.729   4.270   0.657
 3241TIP3    H1 9666   5.723   4.364   0.642
 3241TIP3    H2 9667   5.823   4.252   0.659
 3242TIP3   OH2 9668   2.913   3.326   5.301
 3242TIP3    H1 9669   2.818   3.341   5.297
 3242TIP3    H2 9670   2.932   3.322   5.394
 3243TIP3   OH2 9671   0.086   6.555   0.176
 3243TIP3    H1 9672   0.040   6.472   0.172
 3243TIP3    H2 9673   0.125   6.558   0.263
 3244TIP3   OH2 9674   2.590   6.257   5.407
 3244TIP3    H1 9675   2.592   6.255   5.503
 3244TIP3    H2 9676   2.503   6.292   5.386
 3245TIP3   OH2 9677   5.458   5.584   0.408
 3245TIP3    H1 9678   5.395   5.586   0.480
 3245TIP3    H2 9679   5.418   5.639   0.340
 3246TIP3   OH2 9680   2.733   0.203   1.472
 3246TIP3    H1 9681   2.713   0.146   1.397
 3246TIP3    H2 9682   2.667   0.272   1.468
 3247TIP3   OH2 9683   8.053   6.962   3.085
 3247TIP3    H1 9684   7.968   6.963   3.041
 3247TIP3    H2 9685   8.050   7.035   3.147
 3248TIP3   OH2 9686   2.388   6.399   5.040
 3248TIP3    H1 9687   2.329   6.459   4.995
 3248TIP3    H2 9688   2.426   6.345   4.971
 3249TIP3   OH2 9689   6.393   6.138   5.803
 3249TIP3    H1 9690   6.476   6.101   5.834
 3249TIP3    H2 9691   6.367   6.082   5.730
 3250TIP3   OH2 9692   3.905   1.462   4.547
 3250TIP3    H1 9693   3.840   1.393   4.562
 3250TIP3    H2 9694   3.945   1.477   4.633
 3251TIP3   OH2 9695   0.128   3.859   2.774
 3251TIP3    H1 9696   0.045   3.825   2.809
 3251TIP3    H2 9697   0.114   3.863   2.679
 3252TIP3   OH2 9698   6.075   6.872   4.990
 3252TIP3    H1 9699   6.020   6.914   4.923
 3252TIP3    H2 9700   6.151   6.930   4.997
 3253TIP3   OH2 9701   7.681   1.007   4.294
 3253TIP3    H1 9702   7.653   0.917   4.277
 3253TIP3    H2 9703   7.739   1.029   4.222
 3254TIP3   OH2 9704   0.005   2.339   4.714
 3254TIP3    H1 9705  -0.058   2.398   4.755
 3254TIP3    H2 9706   0.054   2.301   4.787
 3255TIP3   OH2 9707   1.745   6.618   3.707
 3255TIP3    H1 9708   1.676   6.651   3.764
 3255TIP3    H2 9709   1.821   6.608   3.764
 3256TIP3   OH2 9710   3.561   5.838   1.148
 3256TIP3    H1 9711   3.552   5.862   1.056
 3256TIP3    H2 9712   3.617   5.907   1.185
 3257TIP3   OH2 9713   4.107   5.536   5.261
 3257TIP3    H1 9714   4.084   5.454   5.306
 3257TIP3    H2 9715   4.186   5.566   5.305
 3258TIP3   OH2 9716   5.664   7.677   4.359
 3258TIP3    H1 9717   5.728   7.702   4.293
 3258TIP3    H2 9718   5.622   7.598   4.324
 3259TIP3   OH2 9719   4.726   6.367   3.293
 3259TIP3    H1 9720   4.657   6.432   3.303
 3259TIP3    H2 9721   4.747   6.367   3.200
 3260TIP3   OH2 9722   5.338   7.049   2.856
 3260TIP3    H1 9723   5.370   6.976   2.803
 3260TIP3    H2 9724   5.249   7.064   2.823
 3261TIP3   OH2 9725   3.539   4.042   3.917
 3261TIP3    H1 9726   3.562   4.135   3.917
 3261TIP3    H2 9727   3.448   4.040   3.947
 3262TIP3   OH2 9728   0.078   5.398   4.913
 3262TIP3    H1 9729   0.149   5.398   4.850
 3262TIP3    H2 9730  -0.001   5.390   4.860
 3263TIP3   OH2 9731   7.145   5.350   5.794
 3263TIP3    H1 9732   7.185   5.301   5.722
 3263TIP3    H2 9733   7.053   5.357   5.770
 3264TIP3   OH2 9734   2.865   5.424   4.681
 3264TIP3    H1 9735   2.876   5.516   4.658
 3264TIP3    H2 9736   2.946   5.382   4.654
 3265TIP3   OH2 9737   3.983   3.265   1.964
 3265TIP3    H1 9738   4.052   3.292   2.025
 3265TIP3    H2 9739   3.939   3.347   1.941
 3266TIP3   OH2 9740   2.303   0.211   3.740
 3266TIP3    H1 9741   2.285   0.295   3.781
 3266TIP3    H2 9742   2.376   0.175   3.790
 3267TIP3   OH2 9743   6.095   5.110   3.042
 3267TIP3    H1 9744   6.024   5.153   2.994
 3267TIP3    H2 9745   6.175   5.152   3.010
 3268TIP3   OH2 9746   0.426   4.360   6.182
 3268TIP3    H1 9747   0.446   4.443   6.226
 3268TIP3    H2 9748   0.330   4.357   6.180
 3269TIP3   OH2 9749   7.563   3.974   1.852
 3269TIP3    H1 9750   7.501   3.925   1.799
 3269TIP3    H2 9751   7.539   4.066   1.838
 3270TIP3   OH2 9752   8.063   4.058   0.899
 3270TIP3    H1 9753   8.093   4.011   0.977
 3270TIP3    H2 9754   8.120   4.028   0.829
 3271TIP3   OH2 9755   7.180   1.572   5.986
 3271TIP3    H1 9756   7.194   1.629   6.061
 3271TIP3    H2 9757   7.267   1.536   5.967
 3272TIP3   OH2 9758   5.317   4.401   0.553
 3272TIP3    H1 9759   5.266   4.320   0.556
 3272TIP3    H2 9760   5.408   4.373   0.554
 3273TIP3   OH2 9761   5.699   6.831   1.502
 3273TIP3    H1 9762   5.778   6.797   1.543
 3273TIP3    H2 9763   5.632   6.765   1.521
 3274TIP3   OH2 9764   0.145   4.435   4.186
 3274TIP3    H1 9765   0.067   4.443   4.131
 3274TIP3    H2 9766   0.154   4.340   4.199
 3275TIP3   OH2 9767   3.572   3.902   2.534
 3275TIP3    H1 9768   3.644   3.932   2.478
 3275TIP3    H2 9769   3.500   3.883   2.473
 3276TIP3   OH2 9770   7.092   6.372   6.702
 3276TIP3    H1 9771   7.011   6.374   6.753
 3276TIP3    H2 9772   7.119   6.464   6.696
 3277TIP3   OH2 9773   2.462   3.329   0.329
 3277TIP3    H1 9774   2.462   3.388   0.253
 3277TIP3    H2 9775   2.428   3.246   0.295
 3278TIP3   OH2 9776   6.310   2.216   0.187
 3278TIP3    H1 9777   6.343   2.249   0.103
 3278TIP3    H2 9778   6.246   2.282   0.214
 3279TIP3   OH2 9779   0.914   2.848   5.481
 3279TIP3    H1 9780   0.865   2.781   5.528
 3279TIP3    H2 9781   0.874   2.931   5.508
 3280TIP3   OH2 9782   7.574   4.977   1.145
 3280TIP3    H1 9783   7.569   4.966   1.050
 3280TIP3    H2 9784   7.666   4.999   1.161
 3281TIP3   OH2 9785   7.315   0.957   1.191
 3281TIP3    H1 9786   7.277   0.870   1.194
 3281TIP3    H2 9787   7.248   1.011   1.150
 3282TIP3   OH2 9788   4.932   6.122   6.590
 3282TIP3    H1 9789   4.982   6.202   6.608
 3282TIP3    H2 9790   4.842   6.143   6.614
 3283TIP3   OH2 9791   7.117  -0.022   4.395
 3283TIP3    H1 9792   7.154  -0.020   4.484
 3283TIP3    H2 9793   7.083   0.066   4.381
 3284TIP3   OH2 9794   7.471   1.677   6.536
 3284TIP3    H1 9795   7.563   1.654   6.523
 3284TIP3    H2 9796   7.472   1.739   6.609
 3285TIP3   OH2 9797   8.216   0.940   2.163
 3285TIP3    H1 9798   8.290   0.969   2.216
 3285TIP3    H2 9799   8.250   0.939   2.073
 3286TIP3   OH2 9800  -0.004   3.653   4.895
 3286TIP3    H1 9801   0.018   3.562   4.915
 3286TIP3    H2 9802   0.079   3.700   4.902
 3287TIP3   OH2 9803   1.790   3.515   0.384
 3287TIP3    H1 9804   1.708   3.548   0.345
 3287TIP3    H2 9805   1.808   3.435   0.335
 3288TIP3   OH2 9806   1.371   3.785   5.198
 3288TIP3    H1 9807   1.341   3.837   5.124
 3288TIP3    H2 9808   1.312   3.709   5.200
 3289TIP3   OH2 9809   5.882   1.734   4.491
 3289TIP3    H1 9810   5.887   1.753   4.584
 3289TIP3    H2 9811   5.862   1.819   4.450
 3290TIP3   OH2 9812   2.830   4.213   2.862
 3290TIP3    H1 9813   2.782   4.208   2.779
 3290TIP3    H2 9814   2.837   4.122   2.891
 3291TIP3   OH2 9815   3.678   2.117   1.770
 3291TIP3    H1 9816   3.603   2.176   1.757
 3291TIP3    H2 9817   3.726   2.156   1.843
 3292TIP3   OH2 9818   3.834   1.346   6.662
 3292TIP3    H1 9819   3.864   1.258   6.684
 3292TIP3    H2 9820   3.761   1.332   6.601
 3293TIP3   OH2 9821   1.152   0.394   4.478
 3293TIP3    H1 9822   1.073   0.448   4.478
 3293TIP3    H2 9823   1.199   0.421   4.399
 3294TIP3   OH2 9824   4.127   7.783   5.929
 3294TIP3    H1 9825   4.057   7.821   5.983
 3294TIP3    H2 9826   4.110   7.816   5.841
 3295TIP3   OH2 9827   6.950   6.758   3.123
 3295TIP3    H1 9828   6.859   6.734   3.141
 3295TIP3    H2 9829   6.967   6.831   3.182
 3296TIP3   OH2 9830   7.996   3.736   0.058
 3296TIP3    H1 9831   7.953   3.687   0.128
 3296TIP3    H2 9832   7.930   3.800   0.030
 3297TIP3   OH2 9833   7.910   0.318   4.081
 3297TIP3    H1 9834   7.855   0.292   4.155
 3297TIP3    H2 9835   7.969   0.245   4.068
 3298TIP3   OH2 9836   6.602   0.586   3.591
 3298TIP3    H1 9837   6.647   0.523   3.647
 3298TIP3    H2 9838   6.511   0.555   3.589
 3299TIP3   OH2 9839   7.146   2.587   4.617
 3299TIP3    H1 9840   7.236   2.621   4.613
 3299TIP3    H2 9841   7.096   2.646   4.561
 3300TIP3   OH2 9842   7.836   1.231   0.123
 3300TIP3    H1 9843   7.909   1.291   0.137
 3300TIP3    H2 9844   7.872   1.145   0.144
 3301TIP3   OH2 9845   7.338   7.170   2.585
 3301TIP3    H1 9846   7.330   7.132   2.498
 3301TIP3    H2 9847   7.279   7.118   2.639
 3302TIP3   OH2 9848   3.397   3.049   5.622
 3302TIP3    H1 9849   3.340   2.995   5.677
 3302TIP3    H2 9850   3.342   3.123   5.596
 3303TIP3   OH2 9851   7.346   2.550   0.558
 3303TIP3    H1 9852   7.286   2.521   0.627
 3303TIP3    H2 9853   7.376   2.636   0.586
 3304TIP3   OH2 9854   1.694   4.877   1.490
 3304TIP3    H1 9855   1.682   4.826   1.410
 3304TIP3    H2 9856   1.633   4.950   1.481
 3305TIP3   OH2 9857   0.946   6.006   5.609
 3305TIP3    H1 9858   0.862   5.976   5.575
 3305TIP3    H2 9859   0.989   6.046   5.533
 3306TIP3   OH2 9860   7.677   2.188   6.331
 3306TIP3    H1 9861   7.670   2.261   6.270
 3306TIP3    H2 9862   7.724   2.224   6.406
 3307TIP3   OH2 9863   2.793   3.162   4.938
 3307TIP3    H1 9864   2.852   3.171   5.013
 3307TIP3    H2 9865   2.842   3.198   4.865
 3308TIP3   OH2 9866   4.760   0.075   5.150
 3308TIP3    H1 9867   4.716   0.154   5.116
 3308TIP3    H2 9868   4.709   0.003   5.113
 3309TIP3   OH2 9869   1.974   1.936   2.099
 3309TIP3    H1 9870   2.006   1.998   2.164
 3309TIP3    H2 9871   1.896   1.897   2.140
 3310TIP3   OH2 9872   1.708   5.061   2.798
 3310TIP3    H1 9873   1.726   4.978   2.754
 3310TIP3    H2 9874   1.789   5.111   2.789
 3311TIP3   OH2 9875   4.071   4.503   0.636
 3311TIP3    H1 9876   3.988   4.507   0.590
 3311TIP3    H2 9877   4.125   4.570   0.594
 3312TIP3   OH2 9878   1.754   1.780   2.193
 3312TIP3    H1 9879   1.759   1.732   2.111
 3312TIP3    H2 9880   1.788   1.720   2.259
 3313TIP3   OH2 9881   2.657   5.692   0.083
 3313TIP3    H1 9882   2.641   5.637   0.160
 3313TIP3    H2 9883   2.686   5.775   0.120
 3314TIP3   OH2 9884   4.635   4.125   5.030
 3314TIP3    H1 9885   4.630   4.106   5.123
 3314TIP3    H2 9886   4.685   4.052   4.993
 3315TIP3   OH2 9887   1.568   0.749   4.974
 3315TIP3    H1 9888   1.640   0.714   5.026
 3315TIP3    H2 9889   1.581   0.844   4.976
 3316TIP3   OH2 9890   5.855   2.920   3.780
 3316TIP3    H1 9891   5.832   3.007   3.747
 3316TIP3    H2 9892   5.790   2.903   3.848
 3317TIP3   OH2 9893   5.522   2.410   4.082
 3317TIP3    H1 9894   5.550   2.330   4.125
 3317TIP3    H2 9895   5.559   2.405   3.994
 3318TIP3   OH2 9896   7.035   5.721   2.645
 3318TIP3    H1 9897   7.102   5.652   2.645
 3318TIP3    H2 9898   6.952   5.675   2.640
 3319TIP3   OH2 9899   4.818   3.797   0.405
 3319TIP3    H1 9900   4.869   3.877   0.407
 3319TIP3    H2 9901   4.730   3.825   0.381
 3320TIP3   OH2 9902   0.055   1.951   3.617
 3320TIP3    H1 9903   0.073   1.911   3.532
 3320TIP3    H2 9904   0.032   2.041   3.597
 3321TIP3   OH2 9905   0.843   4.233   2.336
 3321TIP3    H1 9906   0.906   4.295   2.373
 3321TIP3    H2 9907   0.896   4.169   2.288
 3322TIP3   OH2 9908   7.305   2.902   3.043
 3322TIP3    H1 9909   7.259   2.831   2.999
 3322TIP3    H2 9910   7.256   2.981   3.019
 3323TIP3   OH2 9911   3.105   1.386   2.302
 3323TIP3    H1 9912   3.141   1.327   2.369
 3323TIP3    H2 9913   3.178   1.443   2.279
 3324TIP3   OH2 9914   2.656   6.243   4.930
 3324TIP3    H1 9915   2.577   6.231   4.877
 3324TIP3    H2 9916   2.647   6.180   5.001
 3325TIP3   OH2 9917   5.308   4.854   4.292
 3325TIP3    H1 9918   5.258   4.934   4.307
 3325TIP3    H2 9919   5.355   4.870   4.210
 3326TIP3   OH2 9920   2.244   4.208   2.255
 3326TIP3    H1 9921   2.262   4.263   2.331
 3326TIP3    H2 9922   2.294   4.248   2.184
 3327TIP3   OH2 9923   0.292   3.874   3.487
 3327TIP3    H1 9924   0.358   3.938   3.514
 3327TIP3    H2 9925   0.273   3.825   3.567
 3328TIP3   OH2 9926   4.076   5.065   3.021
 3328TIP3    H1 9927   3.981   5.073   3.036
 3328TIP3    H2 9928   4.083   5.002   2.949
 3329TIP3   OH2 9929   5.742   6.392   2.757
 3329TIP3    H1 9930   5.741   6.374   2.663
 3329TIP3    H2 9931   5.731   6.487   2.764
 3330TIP3   OH2 9932   2.287   1.052   3.222
 3330TIP3    H1 9933   2.269   0.958   3.227
 3330TIP3    H2 9934   2.264   1.075   3.132
 3331TIP3   OH2 9935   7.883   4.113   2.236
 3331TIP3    H1 9936   7.844   4.103   2.322
 3331TIP3    H2 9937   7.826   4.175   2.190
 3332TIP3   OH2 9938   5.347   3.894   4.053
 3332TIP3    H1 9939   5.332   3.921   4.143
 3332TIP3    H2 9940   5.329   3.973   4.001
 3333TIP3   OH2 9941   3.968   0.183   5.869
 3333TIP3    H1 9942   3.959   0.166   5.963
 3333TIP3    H2 9943   3.944   0.099   5.828
 3334TIP3   OH2 9944   2.170   2.928   1.151
 3334TIP3    H1 9945   2.198   2.859   1.211
 3334TIP3    H2 9946   2.250   2.973   1.125
 3335TIP3   OH2 9947   4.473   1.284   5.162
 3335TIP3    H1 9948   4.458   1.360   5.218
 3335TIP3    H2 9949   4.531   1.317   5.093
 3336TIP3   OH2 9950   3.179   2.690   6.666
 3336TIP3    H1 9951   3.241   2.760   6.685
 3336TIP3    H2 9952   3.095   2.724   6.698
 3337TIP3   OH2 9953   2.101   5.792   0.426
 3337TIP3    H1 9954   2.006   5.796   0.438
 3337TIP3    H2 9955   2.112   5.792   0.331
 3338TIP3   OH2 9956   5.678   6.651   3.260
 3338TIP3    H1 9957   5.761   6.691   3.283
 3338TIP3    H2 9958   5.684   6.636   3.165
 3339TIP3   OH2 9959   4.582   2.913   4.873
 3339TIP3    H1 9960   4.607   3.004   4.893
 3339TIP3    H2 9961   4.616   2.862   4.947
 3340TIP3   OH2 9962   3.340   4.986   0.991
 3340TIP3    H1 9963   3.289   5.050   1.042
 3340TIP3    H2 9964   3.283   4.910   0.985
 3341TIP3   OH2 9965   6.705   3.513   3.101
 3341TIP3    H1 9966   6.695   3.482   3.190
 3341TIP3    H2 9967   6.655   3.595   3.099
 3342TIP3   OH2 9968   4.188   0.747   4.339
 3342TIP3    H1 9969   4.245   0.721   4.266
 3342TIP3    H2 9970   4.223   0.700   4.414
 3343TIP3   OH2 9971   7.676   5.433   0.082
 3343TIP3    H1 9972   7.643   5.355   0.038
 3343TIP3    H2 9973   7.679   5.409   0.174
 3344TIP3   OH2 9974   3.403   2.523   2.228
 3344TIP3    H1 9975   3.337   2.454   2.231
 3344TIP3    H2 9976   3.411   2.546   2.135
 3345TIP3   OH2 9977   5.676   2.330   3.862
 3345TIP3    H1 9978   5.703   2.301   3.775
 3345TIP3    H2 9979   5.739   2.399   3.884
 3346TIP3   OH2 9980   6.495   3.953   1.975
 3346TIP3    H1 9981   6.433   3.935   2.046
 3346TIP3    H2 9982   6.460   3.906   1.900
 3347TIP3   OH2 9983   7.228   2.848   2.261
 3347TIP3    H1 9984   7.286   2.793   2.208
 3347TIP3    H2 9985   7.281   2.924   2.285
 3348TIP3   OH2 9986   6.610   6.382   0.925
 3348TIP3    H1 9987   6.617   6.376   0.830
 3348TIP3    H2 9988   6.567   6.466   0.940
 3349TIP3   OH2 9989   4.626   2.640   4.233
 3349TIP3    H1 9990   4.621   2.657   4.327
 3349TIP3    H2 9991   4.637   2.545   4.227
 3350TIP3   OH2 9992   1.054   2.484   1.903
 3350TIP3    H1 9993   1.117   2.510   1.970
 3350TIP3    H2 9994   1.105   2.482   1.822
 3351TIP3   OH2 9995   5.333   7.145   5.523
 3351TIP3    H1 9996   5.283   7.075   5.565
 3351TIP3    H2 9997   5.277   7.223   5.533
 3352TIP3   OH2 9998   7.975   1.803   1.503
 3352TIP3    H1 9999   8.001   1.877   1.557
 3352TIP3    H210000   7.987   1.727   1.560
 3353TIP3   OH210001   2.541   6.188   3.882
 3353TIP3    H110002   2.530   6.182   3.787
 3353TIP3    H210003   2.627   6.149   3.898
 3354TIP3   OH210004   2.064   0.366   5.026
 3354TIP3    H110005   2.022   0.391   5.108
 3354TIP3    H210006   2.019   0.285   5.000
 3355TIP3   OH210007   3.413   4.521   0.932
 3355TIP3    H110008   3.400   4.426   0.929
 3355TIP3    H210009   3.387   4.546   1.021
 3356TIP3   OH210010   2.984   1.497   5.338
 3356TIP3    H110011   2.945   1.414   5.311
 3356TIP3    H210012   3.078   1.485   5.324
 3357TIP3   OH210013   4.853   5.653   6.769
 3357TIP3    H110014   4.903   5.603   6.704
 3357TIP3    H210015   4.762   5.642   6.743
 3358TIP3   OH210016   8.237   0.936   5.214
 3358TIP3    H110017   8.298   0.930   5.140
 3358TIP3    H210018   8.167   0.875   5.192
 3359TIP3   OH210019   0.395   7.332   2.978
 3359TIP3    H110020   0.341   7.302   2.905
 3359TIP3    H210021   0.484   7.336   2.943
 3360TIP3   OH210022   4.561   7.327   5.298
 3360TIP3    H110023   4.576   7.304   5.390
 3360TIP3    H210024   4.631   7.389   5.278
 3361TIP3   OH210025   6.382   0.230   2.488
 3361TIP3    H110026   6.373   0.267   2.575
 3361TIP3    H210027   6.461   0.175   2.493
 3362TIP3   OH210028   4.175   7.561   1.702
 3362TIP3    H110029   4.152   7.653   1.713
 3362TIP3    H210030   4.268   7.557   1.725
 3363TIP3   OH210031   1.346   1.488   0.432
 3363TIP3    H110032   1.346   1.398   0.466
 3363TIP3    H210033   1.399   1.537   0.494
 3364TIP3   OH210034   2.913   2.021   4.108
 3364TIP3    H110035   2.968   1.977   4.173
 3364TIP3    H210036   2.824   1.994   4.129
 3365TIP3   OH210037   0.032   0.060   1.585
 3365TIP3    H110038   0.053  -0.017   1.533
 3365TIP3    H210039  -0.008   0.121   1.523
 3366TIP3   OH210040   5.930   6.495   1.759
 3366TIP3    H110041   6.019   6.462   1.751
 3366TIP3    H210042   5.893   6.446   1.833
 3367TIP3   OH210043   5.024   7.292   0.428
 3367TIP3    H110044   5.088   7.256   0.489
 3367TIP3    H210045   4.941   7.288   0.475
 3368TIP3   OH210046   0.109   6.465   3.531
 3368TIP3    H110047   0.061   6.463   3.448
 3368TIP3    H210048   0.041   6.470   3.598
 3369TIP3   OH210049   5.291   3.063   4.765
 3369TIP3    H110050   5.275   3.107   4.682
 3369TIP3    H210051   5.214   3.083   4.818
 3370TIP3   OH210052   5.234   1.713   5.273
 3370TIP3    H110053   5.256   1.680   5.360
 3370TIP3    H210054   5.185   1.642   5.232
 3371TIP3   OH210055   2.601   6.692   4.287
 3371TIP3    H110056   2.671   6.755   4.272
 3371TIP3    H210057   2.530   6.720   4.229
 3372TIP3   OH210058   2.193   4.799   1.455
 3372TIP3    H110059   2.124   4.866   1.454
 3372TIP3    H210060   2.271   4.846   1.482
 3373TIP3   OH210061   5.476   2.603   4.646
 3373TIP3    H110062   5.486   2.539   4.717
 3373TIP3    H210063   5.432   2.677   4.687
 3374TIP3   OH210064   4.167   6.028   4.868
 3374TIP3    H110065   4.178   5.933   4.867
 3374TIP3    H210066   4.155   6.052   4.776
 3375TIP3   OH210067   1.582   3.681   2.179
 3375TIP3    H110068   1.517   3.644   2.119
 3375TIP3    H210069   1.537   3.756   2.219
 3376TIP3   OH210070   1.520   5.391   2.761
 3376TIP3    H110071   1.544   5.483   2.775
 3376TIP3    H210072   1.599   5.342   2.781
 3377TIP3   OH210073   3.896   5.868   2.968
 3377TIP3    H110074   3.933   5.801   2.910
 3377TIP3    H210075   3.802   5.863   2.952
 3378TIP3   OH210076   6.282   5.804   6.065
 3378TIP3    H110077   6.203   5.778   6.112
 3378TIP3    H210078   6.251   5.834   5.979
 3379TIP3   OH210079   4.243   5.670   6.157
 3379TIP3    H110080   4.333   5.668   6.191
 3379TIP3    H210081   4.211   5.757   6.179
 3380TIP3   OH210082   8.150   0.853   3.103
 3380TIP3    H110083   8.174   0.904   3.026
 3380TIP3    H210084   8.087   0.907   3.150
 3381TIP3   OH210085   4.333   1.047   6.455
 3381TIP3    H110086   4.319   0.997   6.375
 3381TIP3    H210087   4.373   1.129   6.426
 3382TIP3   OH210088   2.200   3.579   6.066
 3382TIP3    H110089   2.141   3.652   6.046
 3382TIP3    H210090   2.262   3.577   5.993
 3383TIP3   OH210091   0.153   1.156   1.673
 3383TIP3    H110092   0.246   1.159   1.695
 3383TIP3    H210093   0.110   1.200   1.747
 3384TIP3   OH210094   3.008   0.113   1.288
 3384TIP3    H110095   2.980   0.045   1.227
 3384TIP3    H210096   3.083   0.076   1.334
 3385TIP3   OH210097   2.743   6.121   0.523
 3385TIP3    H110098   2.748   6.160   0.610
 3385TIP3    H210099   2.651   6.099   0.512
 3386TIP3   OH210100   7.895   5.348   5.954
 3386TIP3    H110101   7.955   5.310   5.889
 3386TIP3    H210102   7.863   5.428   5.912
 3387TIP3   OH210103   6.942   4.753   4.483
 3387TIP3    H110104   7.019   4.733   4.535
 3387TIP3    H210105   6.919   4.670   4.441
 3388TIP3   OH210106   4.912   0.440   2.184
 3388TIP3    H110107   4.961   0.506   2.134
 3388TIP3    H210108   4.923   0.467   2.275
 3389TIP3   OH210109   7.376   7.466   1.353
 3389TIP3    H110110   7.304   7.419   1.395
 3389TIP3    H210111   7.455   7.425   1.386
 3390TIP3   OH210112   3.151   5.790   5.295
 3390TIP3    H110113   3.182   5.866   5.343
 3390TIP3    H210114   3.115   5.826   5.214
 3391TIP3   OH210115   4.514   0.352   4.059
 3391TIP3    H110116   4.578   0.292   4.021
 3391TIP3    H210117   4.567   0.416   4.107
 3392TIP3   OH210118   2.033   5.491   3.012
 3392TIP3    H110119   1.996   5.534   3.089
 3392TIP3    H210120   2.116   5.454   3.042
 3393TIP3   OH210121   5.709   4.193   5.717
 3393TIP3    H110122   5.793   4.147   5.719
 3393TIP3    H210123   5.732   4.285   5.729
 3394TIP3   OH210124   1.635   7.429   5.165
 3394TIP3    H110125   1.593   7.497   5.112
 3394TIP3    H210126   1.607   7.347   5.125
 3395TIP3   OH210127   1.701   0.099   4.140
 3395TIP3    H110128   1.733   0.010   4.130
 3395TIP3    H210129   1.642   0.113   4.066
 3396TIP3   OH210130   5.480   4.973   6.551
 3396TIP3    H110131   5.398   5.007   6.585
 3396TIP3    H210132   5.543   5.045   6.561
 3397TIP3   OH210133   5.644   1.995   0.521
 3397TIP3    H110134   5.575   2.013   0.457
 3397TIP3    H210135   5.665   2.080   0.558
 3398TIP3   OH210136   0.659   3.565   1.935
 3398TIP3    H110137   0.657   3.581   2.029
 3398TIP3    H210138   0.608   3.485   1.923
 3399TIP3   OH210139   6.750   2.553   1.182
 3399TIP3    H110140   6.808   2.541   1.257
 3399TIP3    H210141   6.707   2.637   1.197
 3400TIP3   OH210142   8.117   7.667   1.926
 3400TIP3    H110143   8.044   7.680   1.987
 3400TIP3    H210144   8.106   7.735   1.860
 3401TIP3   OH210145   7.194   0.640   5.517
 3401TIP3    H110146   7.198   0.570   5.453
 3401TIP3    H210147   7.283   0.647   5.551
 3402TIP3   OH210148   3.684   2.539   2.322
 3402TIP3    H110149   3.703   2.572   2.234
 3402TIP3    H210150   3.658   2.616   2.372
 3403TIP3   OH210151   7.369   1.744   6.233
 3403TIP3    H110152   7.409   1.767   6.149
 3403TIP3    H210153   7.412   1.801   6.296
 3404TIP3   OH210154   4.874   3.980   6.155
 3404TIP3    H110155   4.778   3.971   6.157
 3404TIP3    H210156   4.890   4.065   6.197
 3405TIP3   OH210157   4.063   4.350   2.922
 3405TIP3    H110158   4.092   4.320   3.008
 3405TIP3    H210159   4.074   4.273   2.865
 3406TIP3   OH210160   1.723   2.246   3.703
 3406TIP3    H110161   1.633   2.273   3.721
 3406TIP3    H210162   1.720   2.211   3.614
 3407TIP3   OH210163   3.811   0.122   2.315
 3407TIP3    H110164   3.793   0.039   2.271
 3407TIP3    H210165   3.906   0.121   2.329
 3408TIP3   OH210166   5.587   3.858   0.721
 3408TIP3    H110167   5.522   3.928   0.735
 3408TIP3    H210168   5.559   3.816   0.640
 3409TIP3   OH210169   7.193   1.085   2.473
 3409TIP3    H110170   7.205   1.077   2.379
 3409TIP3    H210171   7.101   1.106   2.484
 3410TIP3   OH210172   5.321   3.394   1.463
 3410TIP3    H110173   5.357   3.353   1.385
 3410TIP3    H210174   5.253   3.454   1.429
 3411TIP3   OH210175   0.865   1.023   2.723
 3411TIP3    H110176   0.838   1.115   2.722
 3411TIP3    H210177   0.843   0.992   2.811
 3412TIP3   OH210178   3.592   6.603   5.881
 3412TIP3    H110179   3.629   6.591   5.793
 3412TIP3    H210180   3.568   6.696   5.885
 3413TIP3   OH210181   5.565   0.147   4.478
 3413TIP3    H110182   5.641   0.194   4.445
 3413TIP3    H210183   5.571   0.154   4.573
 3414TIP3   OH210184   0.004   5.841   3.104
 3414TIP3    H110185   0.071   5.889   3.055
 3414TIP3    H210186   0.038   5.836   3.193
 3415TIP3   OH210187   4.556   1.804   2.887
 3415TIP3    H110188   4.565   1.899   2.892
 3415TIP3    H210189   4.499   1.789   2.811
 3416TIP3   OH210190   6.545   1.523   0.602
 3416TIP3    H110191   6.514   1.443   0.560
 3416TIP3    H210192   6.468   1.558   0.646
 3417TIP3   OH210193   6.191   6.382   3.622
 3417TIP3    H110194   6.194   6.332   3.541
 3417TIP3    H210195   6.112   6.436   3.613
 3418TIP3   OH210196   5.793   2.679   3.384
 3418TIP3    H110197   5.725   2.743   3.405
 3418TIP3    H210198   5.873   2.731   3.377
 3419TIP3   OH210199   7.929   3.122   1.911
 3419TIP3    H110200   7.851   3.174   1.931
 3419TIP3    H210201   7.949   3.077   1.993
 3420TIP3   OH210202   5.171   3.030   1.075
 3420TIP3    H110203   5.130   3.114   1.055
 3420TIP3    H210204   5.203   2.998   0.990
 3421TIP3   OH210205   2.489   4.720   6.197
 3421TIP3    H110206   2.446   4.666   6.264
 3421TIP3    H210207   2.575   4.681   6.187
 3422TIP3   OH210208   7.770   0.400   5.791
 3422TIP3    H110209   7.688   0.362   5.824
 3422TIP3    H210210   7.742   0.459   5.721
 3423TIP3   OH210211   7.955   6.682   6.356
 3423TIP3    H110212   7.985   6.740   6.425
 3423TIP3    H210213   7.920   6.740   6.289
 3424TIP3   OH210214   6.409   4.441   0.996
 3424TIP3    H110215   6.413   4.395   0.912
 3424TIP3    H210216   6.479   4.506   0.991
 3425TIP3   OH210217   5.574   3.236   5.244
 3425TIP3    H110218   5.589   3.217   5.337
 3425TIP3    H210219   5.481   3.255   5.238
 3426TIP3   OH210220   8.182   5.398   2.208
 3426TIP3    H110221   8.155   5.306   2.208
 3426TIP3    H210222   8.249   5.403   2.276
 3427TIP3   OH210223   1.693   6.630   6.662
 3427TIP3    H110224   1.605   6.649   6.692
 3427TIP3    H210225   1.684   6.551   6.608
 3428TIP3   OH210226   7.555   2.440   4.871
 3428TIP3    H110227   7.589   2.476   4.952
 3428TIP3    H210228   7.499   2.367   4.898
 3429TIP3   OH210229   2.781   1.728   6.245
 3429TIP3    H110230   2.747   1.707   6.332
 3429TIP3    H210231   2.777   1.824   6.239
 3430TIP3   OH210232   3.135   2.619   4.756
 3430TIP3    H110233   3.093   2.703   4.777
 3430TIP3    H210234   3.097   2.558   4.819
 3431TIP3   OH210235   2.227   0.974   1.629
 3431TIP3    H110236   2.277   0.943   1.704
 3431TIP3    H210237   2.142   0.931   1.637
 3432TIP3   OH210238   1.421   1.274   1.945
 3432TIP3    H110239   1.456   1.185   1.949
 3432TIP3    H210240   1.338   1.270   1.992
 3433TIP3   OH210241   4.784   4.736   0.038
 3433TIP3    H110242   4.797   4.797  -0.034
 3433TIP3    H210243   4.793   4.650  -0.002
 3434TIP3   OH210244   4.603   4.382   0.974
 3434TIP3    H110245   4.622   4.475   0.978
 3434TIP3    H210246   4.520   4.376   0.926
 3435TIP3   OH210247   7.829   5.104   1.178
 3435TIP3    H110248   7.909   5.052   1.183
 3435TIP3    H210249   7.843   5.163   1.104
 3436TIP3   OH210250   4.851   0.844   6.711
 3436TIP3    H110251   4.916   0.810   6.772
 3436TIP3    H210252   4.828   0.768   6.657
 3437TIP3   OH210253   5.805   4.014   3.588
 3437TIP3    H110254   5.777   3.935   3.542
 3437TIP3    H210255   5.869   3.984   3.652
 3438TIP3   OH210256   1.575   4.073   0.421
 3438TIP3    H110257   1.585   3.978   0.421
 3438TIP3    H210258   1.534   4.093   0.506
 3439TIP3   OH210259   7.752   3.162   4.648
 3439TIP3    H110260   7.813   3.233   4.669
 3439TIP3    H210261   7.691   3.161   4.721
 3440TIP3   OH210262   5.159   0.817   4.620
 3440TIP3    H110263   5.224   0.878   4.585
 3440TIP3    H210264   5.111   0.786   4.543
 3441TIP3   OH210265   4.842   3.316   5.949
 3441TIP3    H110266   4.769   3.273   5.904
 3441TIP3    H210267   4.911   3.322   5.882
 3442TIP3   OH210268   7.754   1.190   3.601
 3442TIP3    H110269   7.758   1.268   3.545
 3442TIP3    H210270   7.674   1.145   3.573
 3443TIP3   OH210271   2.272   5.748   5.524
 3443TIP3    H110272   2.276   5.839   5.495
 3443TIP3    H210273   2.351   5.708   5.486
 3444TIP3   OH210274   5.780   2.587   1.884
 3444TIP3    H110275   5.732   2.607   1.965
 3444TIP3    H210276   5.752   2.653   1.822
 3445TIP3   OH210277   1.528   5.749   2.016
 3445TIP3    H110278   1.526   5.659   1.983
 3445TIP3    H210279   1.620   5.768   2.030
 3446TIP3   OH210280   0.061   5.177   0.451
 3446TIP3    H110281   0.084   5.202   0.541
 3446TIP3    H210282   0.145   5.179   0.404
 3447TIP3   OH210283   5.554   7.291   0.942
 3447TIP3    H110284   5.583   7.371   0.899
 3447TIP3    H210285   5.570   7.306   1.035
 3448TIP3   OH210286   2.049   5.096   0.635
 3448TIP3    H110287   2.025   5.178   0.593
 3448TIP3    H210288   1.978   5.035   0.611
 3449TIP3   OH210289   5.103   1.112   2.357
 3449TIP3    H110290   5.010   1.094   2.343
 3449TIP3    H210291   5.110   1.130   2.451
 3450TIP3   OH210292   7.663   5.420   5.082
 3450TIP3    H110293   7.681   5.345   5.137
 3450TIP3    H210294   7.627   5.383   5.001
 3451TIP3   OH210295   0.007   2.975   3.430
 3451TIP3    H110296   0.004   2.879   3.427
 3451TIP3    H210297   0.045   3.001   3.346
 3452TIP3   OH210298   6.301   3.539   6.112
 3452TIP3    H110299   6.364   3.485   6.065
 3452TIP3    H210300   6.326   3.629   6.092
 3453TIP3   OH210301   1.558   7.644   4.520
 3453TIP3    H110302   1.463   7.652   4.527
 3453TIP3    H210303   1.579   7.562   4.566
 3454TIP3   OH210304   2.148   6.274   5.512
 3454TIP3    H110305   2.056   6.265   5.537
 3454TIP3    H210306   2.196   6.255   5.593
 3455TIP3   OH210307   3.838   3.640   5.990
 3455TIP3    H110308   3.792   3.603   6.066
 3455TIP3    H210309   3.771   3.692   5.945
 3456TIP3   OH210310   0.381   1.349   4.517
 3456TIP3    H110311   0.441   1.354   4.591
 3456TIP3    H210312   0.302   1.393   4.547
 3457TIP3   OH210313   5.390   7.834   2.943
 3457TIP3    H110314   5.485   7.819   2.940
 3457TIP3    H210315   5.356   7.790   2.865
 3458TIP3   OH210316   1.248   5.615   0.564
 3458TIP3    H110317   1.341   5.615   0.587
 3458TIP3    H210318   1.204   5.577   0.641
 3459TIP3   OH210319   3.412   1.975   3.779
 3459TIP3    H110320   3.367   2.040   3.834
 3459TIP3    H210321   3.366   1.893   3.797
 3460TIP3   OH210322   5.733   5.950   3.781
 3460TIP3    H110323   5.734   5.891   3.706
 3460TIP3    H210324   5.667   5.913   3.840
 3461TIP3   OH210325   1.240   2.713   6.432
 3461TIP3    H110326   1.308   2.773   6.402
 3461TIP3    H210327   1.188   2.696   6.353
 3462TIP3   OH210328   7.924   7.698   4.317
 3462TIP3    H110329   7.879   7.661   4.241
 3462TIP3    H210330   7.884   7.654   4.392
 3463TIP3   OH210331   5.183   2.939   6.403
 3463TIP3    H110332   5.117   2.994   6.360
 3463TIP3    H210333   5.140   2.908   6.483
 3464TIP3   OH210334   2.154   6.490   2.646
 3464TIP3    H110335   2.134   6.474   2.739
 3464TIP3    H210336   2.179   6.582   2.643
 3465TIP3   OH210337   3.900   1.465   0.454
 3465TIP3    H110338   3.827   1.524   0.473
 3465TIP3    H210339   3.868   1.379   0.480
 3466TIP3   OH210340   6.793   7.060   2.273
 3466TIP3    H110341   6.792   7.133   2.211
 3466TIP3    H210342   6.736   6.995   2.234
 3467TIP3   OH210343   8.120   1.245   3.764
 3467TIP3    H110344   8.051   1.190   3.728
 3467TIP3    H210345   8.187   1.249   3.695
 3468TIP3   OH210346   1.871   2.922   5.518
 3468TIP3    H110347   1.902   2.988   5.456
 3468TIP3    H210348   1.921   2.940   5.598
 3469TIP3   OH210349   0.506   5.526   6.685
 3469TIP3    H110350   0.469   5.610   6.658
 3469TIP3    H210351   0.537   5.487   6.603
 3470TIP3   OH210352   6.448   2.231   5.471
 3470TIP3    H110353   6.473   2.179   5.395
 3470TIP3    H210354   6.354   2.244   5.462
 3471TIP3   OH210355   2.871   5.682   5.358
 3471TIP3    H110356   2.910   5.636   5.284
 3471TIP3    H210357   2.934   5.670   5.429
 3472TIP3   OH210358   5.989   2.129   0.062
 3472TIP3    H110359   6.055   2.063   0.042
 3472TIP3    H210360   5.930   2.127  -0.013
 3473TIP3   OH210361   8.185   3.276   5.697
 3473TIP3    H110362   8.097   3.286   5.732
 3473TIP3    H210363   8.211   3.187   5.723
 3474TIP3   OH210364   4.579   6.398   1.355
 3474TIP3    H110365   4.517   6.350   1.410
 3474TIP3    H210366   4.658   6.345   1.356
 3475TIP3   OH210367   6.376   6.652   1.310
 3475TIP3    H110368   6.411   6.616   1.392
 3475TIP3    H210369   6.371   6.746   1.326
 3476TIP3   OH210370   5.616   2.803   3.941
 3476TIP3    H110371   5.621   2.767   3.853
 3476TIP3    H210372   5.542   2.864   3.938
 3477TIP3   OH210373   7.223   2.627   4.278
 3477TIP3    H110374   7.167   2.555   4.304
 3477TIP3    H210375   7.182   2.662   4.199
 3478TIP3   OH210376   6.081   7.142   6.238
 3478TIP3    H110377   6.077   7.139   6.142
 3478TIP3    H210378   6.149   7.079   6.261
 3479TIP3   OH210379   6.169   5.479   1.085
 3479TIP3    H110380   6.176   5.493   1.179
 3479TIP3    H210381   6.259   5.487   1.053
 3480TIP3   OH210382   7.808   0.797   0.422
 3480TIP3    H110383   7.726   0.816   0.469
 3480TIP3    H210384   7.826   0.705   0.442
 3481TIP3   OH210385   5.648   7.679   1.424
 3481TIP3    H110386   5.736   7.644   1.415
 3481TIP3    H210387   5.591   7.602   1.423
 3482TIP3   OH210388   2.299   3.374   3.938
 3482TIP3    H110389   2.326   3.344   4.025
 3482TIP3    H210390   2.343   3.314   3.878
 3483TIP3   OH210391   3.151   2.116   4.382
 3483TIP3    H110392   3.078   2.081   4.432
 3483TIP3    H210393   3.173   2.046   4.320
 3484TIP3   OH210394   4.459   5.386   6.142
 3484TIP3    H110395   4.414   5.332   6.077
 3484TIP3    H210396   4.466   5.472   6.101
 3485TIP3   OH210397   1.180   4.377   2.171
 3485TIP3    H110398   1.154   4.389   2.080
 3485TIP3    H210399   1.262   4.426   2.180
 3486TIP3   OH210400   6.993   7.014   1.166
 3486TIP3    H110401   6.912   7.025   1.117
 3486TIP3    H210402   6.991   7.082   1.233
 3487TIP3   OH210403   2.526   6.508   5.804
 3487TIP3    H110404   2.508   6.466   5.720
 3487TIP3    H210405   2.619   6.494   5.819
 3488TIP3   OH210406   7.973   6.553   0.609
 3488TIP3    H110407   8.033   6.613   0.652
 3488TIP3    H210408   8.016   6.530   0.526
 3489TIP3   OH210409   2.768   4.059   4.627
 3489TIP3    H110410   2.673   4.071   4.623
 3489TIP3    H210411   2.802   4.144   4.653
 3490TIP3   OH210412   7.447   3.044   2.300
 3490TIP3    H110413   7.542   3.057   2.308
 3490TIP3    H210414   7.427   2.974   2.363
 3491TIP3   OH210415   3.431   0.980   1.347
 3491TIP3    H110416   3.346   0.939   1.332
 3491TIP3    H210417   3.447   0.968   1.441
 3492TIP3   OH210418   6.978   5.499   5.280
 3492TIP3    H110419   6.931   5.569   5.235
 3492TIP3    H210420   6.910   5.444   5.318
 3493TIP3   OH210421   2.435   4.930   0.360
 3493TIP3    H110422   2.473   5.016   0.378
 3493TIP3    H210423   2.367   4.919   0.426
 3494TIP3   OH210424   0.855   3.365   4.683
 3494TIP3    H110425   0.894   3.444   4.722
 3494TIP3    H210426   0.791   3.399   4.621
 3495TIP3   OH210427   2.023   1.588   3.872
 3495TIP3    H110428   1.970   1.585   3.793
 3495TIP3    H210429   2.011   1.677   3.906
 3496TIP3   OH210430   6.882   4.727   2.566
 3496TIP3    H110431   6.924   4.643   2.586
 3496TIP3    H210432   6.846   4.756   2.649
 3497TIP3   OH210433   1.247   5.997   3.008
 3497TIP3    H110434   1.171   5.959   2.964
 3497TIP3    H210435   1.221   6.087   3.029
 3498TIP3   OH210436   5.628   2.566   1.439
 3498TIP3    H110437   5.695   2.508   1.404
 3498TIP3    H210438   5.667   2.605   1.517
 3499TIP3   OH210439   2.227   7.126   1.514
 3499TIP3    H110440   2.176   7.047   1.495
 3499TIP3    H210441   2.162   7.197   1.511
 3500TIP3   OH210442   1.445   2.167   2.340
 3500TIP3    H110443   1.439   2.185   2.434
 3500TIP3    H210444   1.515   2.102   2.332
 3501TIP3   OH210445   6.139   4.356   4.496
 3501TIP3    H110446   6.115   4.278   4.447
 3501TIP3    H210447   6.115   4.336   4.586
 3502TIP3   OH210448   6.079   6.168   4.696
 3502TIP3    H110449   6.023   6.090   4.694
 3502TIP3    H210450   6.030   6.232   4.747
 3503TIP3   OH210451   4.415   4.244   4.046
 3503TIP3    H110452   4.326   4.212   4.061
 3503TIP3    H210453   4.403   4.327   4.000
 3504TIP3   OH210454   4.855   5.336   3.103
 3504TIP3    H110455   4.830   5.401   3.169
 3504TIP3    H210456   4.806   5.257   3.128
 3505TIP3   OH210457   5.061   6.865   4.889
 3505TIP3    H110458   5.156   6.850   4.895
 3505TIP3    H210459   5.052   6.938   4.828
 3506TIP3   OH210460   4.150   1.835   0.078
 3506TIP3    H110461   4.088   1.784   0.026
 3506TIP3    H210462   4.138   1.925   0.048
 3507TIP3   OH210463   5.364   4.220   3.867
 3507TIP3    H110464   5.340   4.250   3.955
 3507TIP3    H210465   5.290   4.245   3.812
 3508TIP3   OH210466   1.597   0.216   2.627
 3508TIP3    H110467   1.642   0.189   2.547
 3508TIP3    H210468   1.664   0.258   2.680
 3509TIP3   OH210469   2.337   2.466   0.920
 3509TIP3    H110470   2.393   2.445   0.995
 3509TIP3    H210471   2.250   2.435   0.945
 3510TIP3   OH210472   4.016   7.518   1.957
 3510TIP3    H110473   3.964   7.554   2.028
 3510TIP3    H210474   4.087   7.581   1.944
 3511TIP3   OH210475   1.219   4.523   3.596
 3511TIP3    H110476   1.166   4.461   3.546
 3511TIP3    H210477   1.157   4.588   3.628
 3512TIP3   OH210478   3.946   3.797   3.024
 3512TIP3    H110479   3.974   3.715   2.982
 3512TIP3    H210480   4.003   3.805   3.100
 3513TIP3   OH210481   5.960   6.619   5.553
 3513TIP3    H110482   6.050   6.618   5.520
 3513TIP3    H210483   5.967   6.655   5.641
 3514TIP3   OH210484   6.241   3.319   3.878
 3514TIP3    H110485   6.183   3.278   3.813
 3514TIP3    H210486   6.297   3.248   3.909
 3515TIP3   OH210487   0.225   2.917   5.465
 3515TIP3    H110488   0.260   2.888   5.380
 3515TIP3    H210489   0.152   2.974   5.443
 3516TIP3   OH210490   7.597   5.052   6.310
 3516TIP3    H110491   7.546   5.090   6.381
 3516TIP3    H210492   7.675   5.015   6.353
 3517TIP3   OH210493   3.061   3.459   2.363
 3517TIP3    H110494   3.093   3.422   2.445
 3517TIP3    H210495   3.084   3.395   2.297
 3518TIP3   OH210496   4.735   4.593   2.975
 3518TIP3    H110497   4.700   4.504   2.976
 3518TIP3    H210498   4.658   4.648   2.990
 3519TIP3   OH210499   4.490   0.644   5.427
 3519TIP3    H110500   4.437   0.565   5.440
 3519TIP3    H210501   4.427   0.716   5.430
 3520TIP3   OH210502   6.049   4.613   1.401
 3520TIP3    H110503   6.137   4.604   1.365
 3520TIP3    H210504   5.991   4.618   1.325
 3521TIP3   OH210505   6.088   3.686   2.951
 3521TIP3    H110506   5.998   3.701   2.923
 3521TIP3    H210507   6.084   3.680   3.046
 3522TIP3   OH210508   3.552   1.088   0.978
 3522TIP3    H110509   3.529   1.016   0.919
 3522TIP3    H210510   3.469   1.127   1.003
 3523TIP3   OH210511   0.807   6.737   0.797
 3523TIP3    H110512   0.895   6.709   0.772
 3523TIP3    H210513   0.753   6.658   0.790
 3524TIP3   OH210514   6.396   5.978   5.589
 3524TIP3    H110515   6.490   5.966   5.578
 3524TIP3    H210516   6.356   5.918   5.525
 3525TIP3   OH210517   1.274   5.847   3.911
 3525TIP3    H110518   1.257   5.803   3.827
 3525TIP3    H210519   1.332   5.920   3.888
 3526TIP3   OH210520   3.902   3.315   1.485
 3526TIP3    H110521   3.941   3.228   1.487
 3526TIP3    H210522   3.904   3.345   1.576
 3527TIP3   OH210523   0.364   2.782   0.555
 3527TIP3    H110524   0.370   2.788   0.460
 3527TIP3    H210525   0.438   2.833   0.587
 3528TIP3   OH210526   5.803   3.590   2.600
 3528TIP3    H110527   5.795   3.672   2.648
 3528TIP3    H210528   5.767   3.523   2.659
 3529TIP3   OH210529   0.770   7.755   5.646
 3529TIP3    H110530   0.837   7.793   5.588
 3529TIP3    H210531   0.737   7.679   5.598
 3530TIP3   OH210532   0.736   1.834   1.496
 3530TIP3    H110533   0.700   1.767   1.553
 3530TIP3    H210534   0.830   1.832   1.512
 3531TIP3   OH210535   7.476   4.720   1.154
 3531TIP3    H110536   7.497   4.690   1.243
 3531TIP3    H210537   7.516   4.807   1.148
 3532TIP3   OH210538   7.371   3.061   0.712
 3532TIP3    H110539   7.454   3.065   0.664
 3532TIP3    H210540   7.389   3.005   0.787
 3533TIP3   OH210541   3.634   4.385   2.658
 3533TIP3    H110542   3.589   4.457   2.701
 3533TIP3    H210543   3.698   4.354   2.722
 3534TIP3   OH210544   2.819   1.186   6.638
 3534TIP3    H110545   2.886   1.140   6.688
 3534TIP3    H210546   2.866   1.222   6.563
 3535TIP3   OH210547   2.435   4.782   5.573
 3535TIP3    H110548   2.497   4.735   5.629
 3535TIP3    H210549   2.453   4.874   5.589
 3536TIP3   OH210550   7.068   4.787   6.107
 3536TIP3    H110551   6.990   4.778   6.162
 3536TIP3    H210552   7.142   4.774   6.167
 3537TIP3   OH210553   1.505   5.653   2.489
 3537TIP3    H110554   1.471   5.564   2.496
 3537TIP3    H210555   1.454   5.693   2.419
 3538TIP3   OH210556   4.445   1.936   3.759
 3538TIP3    H110557   4.461   2.028   3.738
 3538TIP3    H210558   4.439   1.892   3.674
 3539TIP3   OH210559   4.276   6.668   2.933
 3539TIP3    H110560   4.315   6.712   3.008
 3539TIP3    H210561   4.345   6.667   2.867
 3540TIP3   OH210562   3.244   4.204   2.259
 3540TIP3    H110563   3.252   4.299   2.274
 3540TIP3    H210564   3.294   4.165   2.330
 3541TIP3   OH210565   0.164   2.036   2.795
 3541TIP3    H110566   0.246   1.995   2.823
 3541TIP3    H210567   0.098   2.000   2.855
 3542TIP3   OH210568   8.086   3.926   0.422
 3542TIP3    H110569   7.998   3.944   0.389
 3542TIP3    H210570   8.107   3.839   0.388
 3543TIP3   OH210571   8.233   6.806   4.460
 3543TIP3    H110572   8.269   6.721   4.436
 3543TIP3    H210573   8.256   6.816   4.553
 3544TIP3   OH210574   4.751   5.327   5.018
 3544TIP3    H110575   4.721   5.239   5.040
 3544TIP3    H210576   4.703   5.384   5.079
 3545TIP3   OH210577   8.168   1.409   3.084
 3545TIP3    H110578   8.252   1.393   3.127
 3545TIP3    H210579   8.115   1.451   3.151
 3546TIP3   OH210580   5.077   4.739   0.350
 3546TIP3    H110581   5.122   4.798   0.290
 3546TIP3    H210582   5.000   4.788   0.379
 3547TIP3   OH210583   6.517   2.110   4.767
 3547TIP3    H110584   6.496   2.018   4.752
 3547TIP3    H210585   6.597   2.124   4.716
 3548TIP3   OH210586   5.055   7.568   5.521
 3548TIP3    H110587   5.094   7.482   5.532
 3548TIP3    H210588   5.012   7.565   5.435
 3549TIP3   OH210589   6.662   4.281   0.829
 3549TIP3    H110590   6.704   4.196   0.816
 3549TIP3    H210591   6.573   4.269   0.795
 3550TIP3   OH210592   2.765   6.079   3.957
 3550TIP3    H110593   2.792   6.082   4.048
 3550TIP3    H210594   2.831   6.024   3.914
 3551TIP3   OH210595   4.353   0.258   3.744
 3551TIP3    H110596   4.281   0.217   3.791
 3551TIP3    H210597   4.419   0.189   3.735
 3552TIP3   OH210598   0.243   3.682   5.448
 3552TIP3    H110599   0.240   3.590   5.477
 3552TIP3    H210600   0.302   3.724   5.511
 3553TIP3   OH210601   3.386   3.748   4.059
 3553TIP3    H110602   3.304   3.699   4.049
 3553TIP3    H210603   3.383   3.780   4.149
 3554TIP3   OH210604   4.016   4.799   6.321
 3554TIP3    H110605   3.985   4.810   6.411
 3554TIP3    H210606   3.938   4.808   6.267
 3555TIP3   OH210607   2.125   5.166   6.634
 3555TIP3    H110608   2.152   5.086   6.589
 3555TIP3    H210609   2.155   5.154   6.724
 3556TIP3   OH210610   1.203   3.781   1.013
 3556TIP3    H110611   1.173   3.863   0.974
 3556TIP3    H210612   1.254   3.739   0.944
 3557TIP3   OH210613   0.703   3.763   2.450
 3557TIP3    H110614   0.704   3.710   2.529
 3557TIP3    H210615   0.658   3.844   2.475
 3558TIP3   OH210616   3.866   0.540   0.082
 3558TIP3    H110617   3.929   0.583   0.024
 3558TIP3    H210618   3.795   0.603   0.092
 3559TIP3   OH210619   0.125   6.148   0.721
 3559TIP3    H110620   0.192   6.085   0.694
 3559TIP3    H210621   0.078   6.104   0.792
 3560TIP3   OH210622   6.414   6.752   6.156
 3560TIP3    H110623   6.380   6.673   6.114
 3560TIP3    H210624   6.451   6.721   6.239
 3561TIP3   OH210625   4.059   7.106   0.336
 3561TIP3    H110626   4.013   7.023   0.342
 3561TIP3    H210627   4.020   7.161   0.405
 3562TIP3   OH210628   3.753   4.363   4.106
 3562TIP3    H110629   3.846   4.339   4.109
 3562TIP3    H210630   3.726   4.341   4.017
 3563TIP3   OH210631   3.340   0.492   1.710
 3563TIP3    H110632   3.326   0.537   1.626
 3563TIP3    H210633   3.343   0.562   1.775
 3564TIP3   OH210634   0.435   1.760   2.130
 3564TIP3    H110635   0.519   1.761   2.174
 3564TIP3    H210636   0.454   1.791   2.041
 3565TIP3   OH210637   6.848   5.104   5.969
 3565TIP3    H110638   6.793   5.181   5.953
 3565TIP3    H210639   6.788   5.039   6.006
 3566TIP3   OH210640   5.163   0.081   6.565
 3566TIP3    H110641   5.112   0.053   6.641
 3566TIP3    H210642   5.098   0.090   6.495
 3567TIP3   OH210643   5.175   1.478   5.164
 3567TIP3    H110644   5.243   1.463   5.098
 3567TIP3    H210645   5.183   1.403   5.224
 3568TIP3   OH210646   2.959   2.813   1.752
 3568TIP3    H110647   2.948   2.903   1.784
 3568TIP3    H210648   2.870   2.785   1.730
 3569TIP3   OH210649   4.673   3.602   3.467
 3569TIP3    H110650   4.729   3.523   3.471
 3569TIP3    H210651   4.710   3.661   3.532
 3570TIP3   OH210652   0.949   6.392   1.380
 3570TIP3    H110653   0.960   6.463   1.317
 3570TIP3    H210654   0.944   6.312   1.327
 3571TIP3   OH210655   0.574   6.741   4.461
 3571TIP3    H110656   0.669   6.751   4.459
 3571TIP3    H210657   0.541   6.831   4.457
 3572TIP3   OH210658   2.394   4.981   3.257
 3572TIP3    H110659   2.310   4.937   3.265
 3572TIP3    H210660   2.426   4.988   3.347
 3573TIP3   OH210661   7.917   1.758   2.416
 3573TIP3    H110662   7.832   1.723   2.389
 3573TIP3    H210663   7.979   1.688   2.394
 3574TIP3   OH210664   0.679   1.989   5.208
 3574TIP3    H110665   0.736   1.958   5.279
 3574TIP3    H210666   0.628   1.912   5.183
 3575TIP3   OH210667   6.122   5.521   3.280
 3575TIP3    H110668   6.203   5.535   3.231
 3575TIP3    H210669   6.079   5.607   3.280
 3576TIP3   OH210670   0.903   3.407   1.490
 3576TIP3    H110671   0.863   3.471   1.432
 3576TIP3    H210672   0.936   3.338   1.432
 3577TIP3   OH210673   7.515   4.484   2.857
 3577TIP3    H110674   7.494   4.391   2.848
 3577TIP3    H210675   7.489   4.505   2.947
 3578TIP3   OH210676   1.953   4.359   1.861
 3578TIP3    H110677   1.857   4.367   1.863
 3578TIP3    H210678   1.982   4.388   1.947
 3579TIP3   OH210679   1.435   2.626   5.509
 3579TIP3    H110680   1.349   2.669   5.509
 3579TIP3    H210681   1.415   2.533   5.501
 3580TIP3   OH210682   8.200   2.167   3.569
 3580TIP3    H110683   8.242   2.214   3.498
 3580TIP3    H210684   8.124   2.221   3.592
 3581TIP3   OH210685   7.549   2.917   1.398
 3581TIP3    H110686   7.626   2.943   1.448
 3581TIP3    H210687   7.578   2.844   1.343
 3582TIP3   OH210688   5.820   3.542   6.515
 3582TIP3    H110689   5.865   3.465   6.481
 3582TIP3    H210690   5.868   3.564   6.595
 3583TIP3   OH210691   4.342   4.396   4.858
 3583TIP3    H110692   4.434   4.370   4.862
 3583TIP3    H210693   4.295   4.328   4.906
 3584TIP3   OH210694   6.882   1.266   6.145
 3584TIP3    H110695   6.883   1.318   6.065
 3584TIP3    H210696   6.961   1.293   6.192
 3585TIP3   OH210697   7.616   3.571   4.051
 3585TIP3    H110698   7.573   3.569   3.966
 3585TIP3    H210699   7.689   3.509   4.043
 3586TIP3   OH210700   2.368   2.615   2.857
 3586TIP3    H110701   2.284   2.569   2.868
 3586TIP3    H210702   2.390   2.602   2.764
 3587TIP3   OH210703   4.480   5.785   1.079
 3587TIP3    H110704   4.526   5.760   0.999
 3587TIP3    H210705   4.406   5.724   1.085
 3588TIP3   OH210706   7.445   7.366   3.693
 3588TIP3    H110707   7.358   7.344   3.726
 3588TIP3    H210708   7.445   7.335   3.602
 3589TIP3   OH210709   2.843   7.251   0.856
 3589TIP3    H110710   2.855   7.169   0.807
 3589TIP3    H210711   2.774   7.297   0.807
 3590TIP3   OH210712   2.273   6.824   3.610
 3590TIP3    H110713   2.329   6.801   3.536
 3590TIP3    H210714   2.216   6.893   3.577
 3591TIP3   OH210715   8.115   3.710   6.107
 3591TIP3    H110716   8.044   3.760   6.147
 3591TIP3    H210717   8.166   3.677   6.181
 3592TIP3   OH210718   6.751   6.928   5.254
 3592TIP3    H110719   6.764   6.892   5.166
 3592TIP3    H210720   6.807   6.874   5.310
 3593TIP3   OH210721   4.116   6.346   6.521
 3593TIP3    H110722   4.188   6.407   6.535
 3593TIP3    H210723   4.037   6.396   6.541
 3594TIP3   OH210724   7.042   4.017   1.404
 3594TIP3    H110725   7.053   4.059   1.490
 3594TIP3    H210726   7.112   4.054   1.350
 3595TIP3   OH210727   3.720   0.837   2.663
 3595TIP3    H110728   3.653   0.824   2.730
 3595TIP3    H210729   3.710   0.928   2.636
 3596TIP3   OH210730   3.244   1.041   2.156
 3596TIP3    H110731   3.195   0.998   2.227
 3596TIP3    H210732   3.333   1.048   2.190
 3597TIP3   OH210733   6.865   3.453   3.471
 3597TIP3    H110734   6.786   3.418   3.430
 3597TIP3    H210735   6.833   3.516   3.535
 3598TIP3   OH210736   0.255   3.438   0.378
 3598TIP3    H110737   0.285   3.520   0.418
 3598TIP3    H210738   0.333   3.382   0.377
 3599TIP3   OH210739   7.226   2.835   5.053
 3599TIP3    H110740   7.172   2.913   5.041
 3599TIP3    H210741   7.187   2.770   4.995
 3600TIP3   OH210742   2.362   2.825   6.585
 3600TIP3    H110743   2.451   2.819   6.549
 3600TIP3    H210744   2.358   2.756   6.651
 3601TIP3   OH210745   1.943   1.438   5.843
 3601TIP3    H110746   1.964   1.515   5.897
 3601TIP3    H210747   2.022   1.424   5.791
 3602TIP3   OH210748   4.275   2.953   4.410
 3602TIP3    H110749   4.265   2.858   4.398
 3602TIP3    H210750   4.315   2.962   4.496
 3603TIP3   OH210751   4.636   0.800   4.678
 3603TIP3    H110752   4.541   0.807   4.688
 3603TIP3    H210753   4.671   0.819   4.765
 3604TIP3   OH210754   3.176   2.162   3.037
 3604TIP3    H110755   3.096   2.111   3.024
 3604TIP3    H210756   3.146   2.251   3.051
 3605TIP3   OH210757   5.530   4.926   4.457
 3605TIP3    H110758   5.441   4.925   4.423
 3605TIP3    H210759   5.557   4.835   4.457
 3606TIP3   OH210760   2.770   2.084   0.461
 3606TIP3    H110761   2.724   2.090   0.545
 3606TIP3    H210762   2.759   2.171   0.422
 3607TIP3   OH210763   4.869   3.617   1.599
 3607TIP3    H110764   4.818   3.629   1.679
 3607TIP3    H210765   4.840   3.686   1.541
 3608TIP3   OH210766   3.581   7.437   1.860
 3608TIP3    H110767   3.580   7.486   1.942
 3608TIP3    H210768   3.489   7.435   1.833
 3609TIP3   OH210769   1.574   7.630   1.994
 3609TIP3    H110770   1.511   7.655   1.926
 3609TIP3    H210771   1.552   7.539   2.014
 3610TIP3   OH210772   4.065   5.063   4.822
 3610TIP3    H110773   4.035   5.041   4.911
 3610TIP3    H210774   4.160   5.057   4.827
 3611TIP3   OH210775   3.424   3.912   4.655
 3611TIP3    H110776   3.482   3.871   4.719
 3611TIP3    H210777   3.478   3.979   4.612
 3612TIP3   OH210778   7.683   5.650   5.310
 3612TIP3    H110779   7.704   5.580   5.372
 3612TIP3    H210780   7.767   5.690   5.289
 3613TIP3   OH210781   1.833   5.165   1.420
 3613TIP3    H110782   1.848   5.258   1.402
 3613TIP3    H210783   1.749   5.145   1.379
 3614TIP3   OH210784   4.050   4.243   2.500
 3614TIP3    H110785   3.986   4.195   2.553
 3614TIP3    H210786   3.997   4.301   2.445
 3615TIP3   OH210787   0.802   5.383   2.230
 3615TIP3    H110788   0.753   5.466   2.225
 3615TIP3    H210789   0.894   5.409   2.231
 3616TIP3   OH210790   5.553   7.033   0.856
 3616TIP3    H110791   5.583   7.113   0.899
 3616TIP3    H210792   5.634   6.991   0.825
 3617TIP3   OH210793   1.672   5.226   1.939
 3617TIP3    H110794   1.669   5.320   1.960
 3617TIP3    H210795   1.683   5.224   1.844
 3618TIP3   OH210796   7.287   0.570   5.830
 3618TIP3    H110797   7.273   0.546   5.922
 3618TIP3    H210798   7.374   0.611   5.829
 3619TIP3   OH210799   1.233   5.601   5.813
 3619TIP3    H110800   1.187   5.559   5.740
 3619TIP3    H210801   1.172   5.594   5.886
 3620TIP3   OH210802   7.463   1.867   1.612
 3620TIP3    H110803   7.382   1.909   1.584
 3620TIP3    H210804   7.439   1.820   1.692
 3621TIP3   OH210805   5.401   1.674   4.073
 3621TIP3    H110806   5.312   1.642   4.090
 3621TIP3    H210807   5.448   1.658   4.155
 3622TIP3   OH210808   8.048   0.797   2.315
 3622TIP3    H110809   8.081   0.773   2.401
 3622TIP3    H210810   8.111   0.862   2.283
 3623TIP3   OH210811   0.800   7.471   4.542
 3623TIP3    H110812   0.888   7.435   4.545
 3623TIP3    H210813   0.807   7.555   4.586
 3624TIP3   OH210814   6.495   3.120   4.995
 3624TIP3    H110815   6.404   3.138   5.021
 3624TIP3    H210816   6.514   3.035   5.034
 3625TIP3   OH210817   8.101   2.346   0.576
 3625TIP3    H110818   8.017   2.335   0.533
 3625TIP3    H210819   8.152   2.401   0.516
 3626TIP3   OH210820   5.889   2.143   2.022
 3626TIP3    H110821   5.834   2.078   1.979
 3626TIP3    H210822   5.882   2.123   2.115
 3627TIP3   OH210823   5.916   6.184   2.160
 3627TIP3    H110824   5.920   6.159   2.252
 3627TIP3    H210825   6.003   6.160   2.126
 3628TIP3   OH210826   5.781   7.680   3.556
 3628TIP3    H110827   5.827   7.664   3.473
 3628TIP3    H210828   5.787   7.597   3.603
 3629TIP3   OH210829   2.801   2.664   1.338
 3629TIP3    H110830   2.881   2.618   1.363
 3629TIP3    H210831   2.817   2.755   1.362
 3630TIP3   OH210832   2.135   5.680   1.657
 3630TIP3    H110833   2.144   5.617   1.729
 3630TIP3    H210834   2.043   5.673   1.632
 3631TIP3   OH210835   5.458   0.504   4.515
 3631TIP3    H110836   5.552   0.498   4.501
 3631TIP3    H210837   5.427   0.562   4.445
 3632TIP3   OH210838   4.740   6.491   4.800
 3632TIP3    H110839   4.770   6.577   4.773
 3632TIP3    H210840   4.773   6.432   4.732
 3633TIP3   OH210841   5.281   5.026   2.472
 3633TIP3    H110842   5.226   4.948   2.469
 3633TIP3    H210843   5.283   5.051   2.564
 3634TIP3   OH210844   0.396   4.260   1.613
 3634TIP3    H110845   0.385   4.206   1.692
 3634TIP3    H210846   0.307   4.279   1.584
 3635TIP3   OH210847   6.701   0.474   2.894
 3635TIP3    H110848   6.721   0.476   2.988
 3635TIP3    H210849   6.619   0.522   2.886
 3636TIP3   OH210850   3.025   2.386   3.913
 3636TIP3    H110851   3.018   2.468   3.864
 3636TIP3    H210852   3.103   2.397   3.968
 3637TIP3   OH210853   6.497   4.012   2.358
 3637TIP3    H110854   6.551   3.937   2.335
 3637TIP3    H210855   6.559   4.079   2.386
 3638TIP3   OH210856   6.001   4.643   5.662
 3638TIP3    H110857   5.981   4.563   5.711
 3638TIP3    H210858   5.988   4.714   5.725
 3639TIP3   OH210859   4.377   3.354   0.527
 3639TIP3    H110860   4.290   3.320   0.546
 3639TIP3    H210861   4.384   3.433   0.580
 3640TIP3   OH210862   4.569   4.090   3.583
 3640TIP3    H110863   4.499   4.104   3.519
 3640TIP3    H210864   4.523   4.075   3.665
 3641TIP3   OH210865   5.616   5.659   6.094
 3641TIP3    H110866   5.622   5.629   6.184
 3641TIP3    H210867   5.522   5.668   6.078
 3642TIP3   OH210868   4.097   4.899   2.023
 3642TIP3    H110869   4.026   4.913   1.960
 3642TIP3    H210870   4.168   4.863   1.971
 3643TIP3   OH210871   6.148   1.655   6.217
 3643TIP3    H110872   6.202   1.576   6.221
 3643TIP3    H210873   6.058   1.625   6.230
 3644TIP3   OH210874   3.932   1.941   5.608
 3644TIP3    H110875   3.885   1.885   5.546
 3644TIP3    H210876   4.018   1.900   5.617
 3645TIP3   OH210877   5.620   3.232   4.377
 3645TIP3    H110878   5.604   3.140   4.353
 3645TIP3    H210879   5.714   3.244   4.365
 3646TIP3   OH210880   2.679   3.504   4.776
 3646TIP3    H110881   2.622   3.535   4.705
 3646TIP3    H210882   2.647   3.550   4.854
 3647TIP3   OH210883   6.699   4.221   1.245
 3647TIP3    H110884   6.745   4.258   1.170
 3647TIP3    H210885   6.696   4.292   1.309
 3648TIP3   OH210886   1.544   5.542   5.568
 3648TIP3    H110887   1.465   5.569   5.522
 3648TIP3    H210888   1.598   5.621   5.570
 3649TIP3   OH210889   0.781   3.160   4.924
 3649TIP3    H110890   0.713   3.184   4.988
 3649TIP3    H210891   0.748   3.193   4.841
 3650TIP3   OH210892   4.598   7.726   5.361
 3650TIP3    H110893   4.683   7.760   5.389
 3650TIP3    H210894   4.548   7.717   5.442
 3651TIP3   OH210895   6.631   1.430   0.932
 3651TIP3    H110896   6.677   1.490   0.873
 3651TIP3    H210897   6.544   1.420   0.893
 3652TIP3   OH210898   2.478   1.668   2.469
 3652TIP3    H110899   2.494   1.756   2.502
 3652TIP3    H210900   2.390   1.672   2.431
 3653TIP3   OH210901   4.740   0.252   6.728
 3653TIP3    H110902   4.817   0.247   6.671
 3653TIP3    H210903   4.679   0.309   6.682
 3654TIP3   OH210904   3.546   1.578   2.624
 3654TIP3    H110905   3.619   1.567   2.563
 3654TIP3    H210906   3.574   1.648   2.683
 3655TIP3   OH210907   5.089   2.363   4.633
 3655TIP3    H110908   5.137   2.299   4.581
 3655TIP3    H210909   5.050   2.423   4.569
 3656TIP3   OH210910   3.276   3.816   1.124
 3656TIP3    H110911   3.248   3.749   1.186
 3656TIP3    H210912   3.194   3.846   1.083
 3657TIP3   OH210913   8.069   5.858   1.592
 3657TIP3    H110914   8.123   5.822   1.662
 3657TIP3    H210915   7.986   5.812   1.598
 3658TIP3   OH210916   0.433   7.004   2.083
 3658TIP3    H110917   0.372   7.062   2.038
 3658TIP3    H210918   0.514   7.009   2.031
 3659TIP3   OH210919   6.411   6.529   0.595
 3659TIP3    H110920   6.331   6.577   0.616
 3659TIP3    H210921   6.404   6.449   0.648
 3660TIP3   OH210922   0.067   7.224   6.091
 3660TIP3    H110923  -0.004   7.167   6.118
 3660TIP3    H210924   0.026   7.309   6.075
 3661TIP3   OH210925   4.258   5.409   5.683
 3661TIP3    H110926   4.303   5.344   5.630
 3661TIP3    H210927   4.266   5.376   5.773
 3662TIP3   OH210928   4.554   4.050   2.044
 3662TIP3    H110929   4.518   4.131   2.007
 3662TIP3    H210930   4.648   4.067   2.049
 3663TIP3   OH210931   3.949   2.437   5.533
 3663TIP3    H110932   3.875   2.391   5.493
 3663TIP3    H210933   3.975   2.383   5.607
 3664TIP3   OH210934   3.491   5.235   3.369
 3664TIP3    H110935   3.419   5.247   3.430
 3664TIP3    H210936   3.513   5.323   3.340
 3665TIP3   OH210937   6.042   0.862   4.355
 3665TIP3    H110938   6.024   0.949   4.391
 3665TIP3    H210939   5.975   0.850   4.288
 3666TIP3   OH210940   0.774   4.025   3.105
 3666TIP3    H110941   0.736   3.981   3.181
 3666TIP3    H210942   0.826   3.957   3.062
 3667TIP3   OH210943   4.433   6.799   4.389
 3667TIP3    H110944   4.360   6.750   4.353
 3667TIP3    H210945   4.435   6.880   4.338
 3668TIP3   OH210946   5.152   4.885   1.173
 3668TIP3    H110947   5.143   4.846   1.087
 3668TIP3    H210948   5.122   4.975   1.163
 3669TIP3   OH210949   5.649   2.166   4.173
 3669TIP3    H110950   5.728   2.213   4.197
 3669TIP3    H210951   5.672   2.118   4.094
 3670TIP3   OH210952   4.795   5.557   1.331
 3670TIP3    H110953   4.838   5.499   1.393
 3670TIP3    H210954   4.860   5.570   1.262
 3671TIP3   OH210955   5.466   5.492   0.033
 3671TIP3    H110956   5.487   5.540  -0.047
 3671TIP3    H210957   5.551   5.470   0.071
 3672TIP3   OH210958   3.410   0.249   5.496
 3672TIP3    H110959   3.419   0.164   5.452
 3672TIP3    H210960   3.499   0.273   5.520
 3673TIP3   OH210961   3.614   1.977   4.721
 3673TIP3    H110962   3.553   1.915   4.760
 3673TIP3    H210963   3.575   2.063   4.737
 3674TIP3   OH210964   2.391   2.350   3.484
 3674TIP3    H110965   2.347   2.387   3.560
 3674TIP3    H210966   2.483   2.375   3.494
 3675TIP3   OH210967   4.095   3.567   5.165
 3675TIP3    H110968   4.060   3.594   5.250
 3675TIP3    H210969   4.020   3.568   5.106
 3676TIP3   OH210970   7.611   2.327   0.014
 3676TIP3    H110971   7.532   2.377  -0.004
 3676TIP3    H210972   7.587   2.236  -0.006
 3677TIP3   OH210973   0.326   5.926   4.614
 3677TIP3    H110974   0.415   5.900   4.590
 3677TIP3    H210975   0.327   6.021   4.609
 3678TIP3   OH210976   2.219   2.822   3.751
 3678TIP3    H110977   2.200   2.742   3.800
 3678TIP3    H210978   2.311   2.840   3.769
 3679TIP3   OH210979   7.715   1.120   0.911
 3679TIP3    H110980   7.726   1.121   0.816
 3679TIP3    H210981   7.760   1.041   0.940
 3680TIP3   OH210982   4.419   4.111   5.853
 3680TIP3    H110983   4.357   4.041   5.832
 3680TIP3    H210984   4.457   4.136   5.769
 3681TIP3   OH210985   0.877   0.987   1.966
 3681TIP3    H110986   0.860   1.022   2.054
 3681TIP3    H210987   0.966   0.953   1.971
 3682TIP3   OH210988   0.556   3.499   1.631
 3682TIP3    H110989   0.611   3.573   1.658
 3682TIP3    H210990   0.509   3.474   1.710
 3683TIP3   OH210991   4.286   6.704   4.159
 3683TIP3    H110992   4.230   6.632   4.128
 3683TIP3    H210993   4.239   6.783   4.131
 3684TIP3   OH210994   1.274   6.148   1.684
 3684TIP3    H110995   1.298   6.216   1.747
 3684TIP3    H210996   1.300   6.183   1.599
 3685TIP3   OH210997   7.368   6.709   1.629
 3685TIP3    H110998   7.361   6.742   1.718
 3685TIP3    H210999   7.459   6.680   1.621
 3686TIP3   OH211000   6.240   3.368   1.389
 3686TIP3    H111001   6.187   3.296   1.424
 3686TIP3    H211002   6.292   3.398   1.463
 3687TIP3   OH211003   0.312   0.742   6.565
 3687TIP3    H111004   0.365   0.667   6.591
 3687TIP3    H211005   0.361   0.781   6.492
 3688TIP3   OH211006   3.242   6.966   1.204
 3688TIP3    H111007   3.209   6.883   1.169
 3688TIP3    H211008   3.264   6.946   1.294
 3689TIP3   OH211009   5.422   4.426   4.164
 3689TIP3    H111010   5.376   4.468   4.091
 3689TIP3    H211011   5.438   4.337   4.135
 3690TIP3   OH211012   5.974   5.546   1.592
 3690TIP3    H111013   5.966   5.642   1.589
 3690TIP3    H211014   5.884   5.515   1.603
 3691TIP3   OH211015   3.170   0.762   3.565
 3691TIP3    H111016   3.208   0.799   3.645
 3691TIP3    H211017   3.216   0.680   3.553
 3692TIP3   OH211018   4.915   4.689   2.793
 3692TIP3    H111019   4.993   4.635   2.809
 3692TIP3    H211020   4.855   4.666   2.863
 3693TIP3   OH211021   0.550   2.924   3.436
 3693TIP3    H111022   0.483   2.873   3.389
 3693TIP3    H211023   0.501   2.969   3.505
 3694TIP3   OH211024   6.675   3.077   3.835
 3694TIP3    H111025   6.749   3.130   3.806
 3694TIP3    H211026   6.614   3.079   3.761
 3695TIP3   OH211027   7.907   6.477   2.648
 3695TIP3    H111028   7.896   6.465   2.742
 3695TIP3    H211029   7.821   6.454   2.611
 3696TIP3   OH211030   6.674   5.927   4.989
 3696TIP3    H111031   6.753   5.981   4.977
 3696TIP3    H211032   6.602   5.989   4.986
 3697TIP3   OH211033   5.492   3.069   3.140
 3697TIP3    H111034   5.580   3.096   3.166
 3697TIP3    H211035   5.434   3.129   3.186
 3698TIP3   OH211036   4.923   4.765   2.158
 3698TIP3    H111037   4.891   4.845   2.118
 3698TIP3    H211038   4.846   4.710   2.168
 3699TIP3   OH211039   4.365   4.733   3.682
 3699TIP3    H111040   4.404   4.646   3.690
 3699TIP3    H211041   4.272   4.716   3.672
 3700TIP3   OH211042   8.000   3.525   4.231
 3700TIP3    H111043   7.955   3.606   4.204
 3700TIP3    H211044   8.091   3.552   4.243
 3701TIP3   OH211045   4.787   2.198   1.388
 3701TIP3    H111046   4.849   2.149   1.335
 3701TIP3    H211047   4.841   2.242   1.454
 3702TIP3   OH211048   3.979   4.281   5.481
 3702TIP3    H111049   3.922   4.350   5.516
 3702TIP3    H211050   4.023   4.322   5.407
 3703TIP3   OH211051   3.736   6.230   5.475
 3703TIP3    H111052   3.664   6.172   5.500
 3703TIP3    H211053   3.814   6.186   5.508
 3704TIP3   OH211054   4.231   5.887   3.320
 3704TIP3    H111055   4.217   5.964   3.264
 3704TIP3    H211056   4.153   5.834   3.308
 3705TIP3   OH211057   5.681   3.320   2.960
 3705TIP3    H111058   5.693   3.327   2.865
 3705TIP3    H211059   5.594   3.355   2.975
 3706TIP3   OH211060   0.725   3.906   1.259
 3706TIP3    H111061   0.755   3.994   1.280
 3706TIP3    H211062   0.774   3.882   1.180
 3707TIP3   OH211063   4.398   3.937   4.468
 3707TIP3    H111064   4.320   3.987   4.442
 3707TIP3    H211065   4.392   3.856   4.418
 3708TIP3   OH211066   7.677   0.477   4.008
 3708TIP3    H111067   7.756   0.431   4.037
 3708TIP3    H211068   7.606   0.432   4.053
 3709TIP3   OH211069   4.678   7.562   1.987
 3709TIP3    H111070   4.770   7.581   1.967
 3709TIP3    H211071   4.670   7.575   2.081
 3710TIP3   OH211072   1.173   0.562   6.315
 3710TIP3    H111073   1.182   0.652   6.285
 3710TIP3    H211074   1.259   0.539   6.349
 3711TIP3   OH211075   0.435   5.608   0.218
 3711TIP3    H111076   0.509   5.654   0.179
 3711TIP3    H211077   0.474   5.532   0.261
 3712TIP3   OH211078   0.915   4.473   4.736
 3712TIP3    H111079   0.996   4.448   4.782
 3712TIP3    H211080   0.845   4.455   4.799
 3713TIP3   OH211081   4.429   6.785   4.683
 3713TIP3    H111082   4.439   6.866   4.733
 3713TIP3    H211083   4.467   6.806   4.597
 3714TIP3   OH211084   2.180   2.038   4.786
 3714TIP3    H111085   2.250   1.974   4.798
 3714TIP3    H211086   2.169   2.044   4.691
 3715TIP3   OH211087   7.052   5.097   4.408
 3715TIP3    H111088   7.068   5.186   4.440
 3715TIP3    H211089   6.957   5.086   4.412
 3716TIP3   OH211090   0.831   5.847   0.585
 3716TIP3    H111091   0.822   5.759   0.621
 3716TIP3    H211092   0.788   5.842   0.499
 3717TIP3   OH211093   0.112   2.283   2.230
 3717TIP3    H111094   0.167   2.341   2.176
 3717TIP3    H211095   0.133   2.307   2.320
 3718TIP3   OH211096   2.436   0.485   6.616
 3718TIP3    H111097   2.427   0.576   6.645
 3718TIP3    H211098   2.525   0.461   6.643
 3719TIP3   OH211099   6.956   4.730   0.762
 3719TIP3    H111100   6.870   4.740   0.722
 3719TIP3    H211101   7.017   4.765   0.698
 3720TIP3   OH211102   2.440   7.770   4.638
 3720TIP3    H111103   2.434   7.821   4.557
 3720TIP3    H211104   2.405   7.829   4.705
 3721TIP3   OH211105   7.437   4.737   2.345
 3721TIP3    H111106   7.407   4.651   2.318
 3721TIP3    H211107   7.380   4.799   2.299
 3722TIP3   OH211108   1.438   6.710   2.517
 3722TIP3    H111109   1.360   6.762   2.497
 3722TIP3    H211110   1.483   6.702   2.433
 3723TIP3   OH211111   1.522   1.630   2.476
 3723TIP3    H111112   1.500   1.591   2.391
 3723TIP3    H211113   1.608   1.670   2.463
 3724TIP3   OH211114   6.969   1.028   6.490
 3724TIP3    H111115   7.060   1.055   6.480
 3724TIP3    H211116   6.953   1.033   6.584
 3725TIP3   OH211117   0.897   5.588   0.695
 3725TIP3    H111118   0.874   5.506   0.737
 3725TIP3    H211119   0.984   5.610   0.729
 3726TIP3   OH211120   4.191   6.962   2.376
 3726TIP3    H111121   4.132   7.022   2.422
 3726TIP3    H211122   4.272   7.013   2.364
 3727TIP3   OH211123   3.115   0.772   6.044
 3727TIP3    H111124   3.192   0.826   6.026
 3727TIP3    H211125   3.049   0.803   5.981
 3728TIP3   OH211126   6.921   4.786   5.204
 3728TIP3    H111127   6.920   4.860   5.144
 3728TIP3    H211128   7.013   4.763   5.213
 3729TIP3   OH211129   3.818   5.166   3.244
 3729TIP3    H111130   3.913   5.162   3.255
 3729TIP3    H211131   3.783   5.127   3.324
 3730TIP3   OH211132   0.549   3.146   5.356
 3730TIP3    H111133   0.519   3.066   5.312
 3730TIP3    H211134   0.537   3.128   5.450
 3731TIP3   OH211135   2.709   0.931   5.295
 3731TIP3    H111136   2.634   0.871   5.298
 3731TIP3    H211137   2.673   1.015   5.323
 3732TIP3   OH211138   7.261   7.663   0.857
 3732TIP3    H111139   7.194   7.628   0.797
 3732TIP3    H211140   7.213   7.723   0.913
 3733TIP3   OH211141   7.127   1.143   2.868
 3733TIP3    H111142   7.138   1.182   2.955
 3733TIP3    H211143   7.039   1.168   2.841
 3734TIP3   OH211144   5.883   0.841   2.137
 3734TIP3    H111145   5.950   0.888   2.088
 3734TIP3    H211146   5.916   0.839   2.227
 3735TIP3   OH211147   2.109   1.028   5.279
 3735TIP3    H111148   2.093   1.057   5.369
 3735TIP3    H211149   2.065   0.943   5.274
 3736TIP3   OH211150   3.738   7.145   0.175
 3736TIP3    H111151   3.697   7.126   0.090
 3736TIP3    H211152   3.791   7.069   0.195
 3737TIP3   OH211153   5.037   0.625   3.541
 3737TIP3    H111154   4.996   0.626   3.628
 3737TIP3    H211155   5.038   0.532   3.517
 3738TIP3   OH211156   1.845   7.436   3.194
 3738TIP3    H111157   1.871   7.516   3.149
 3738TIP3    H211158   1.856   7.456   3.287
 3739TIP3   OH211159   5.275   0.277   3.126
 3739TIP3    H111160   5.275   0.231   3.042
 3739TIP3    H211161   5.223   0.221   3.183
 3740TIP3   OH211162   4.139   2.735   0.878
 3740TIP3    H111163   4.209   2.782   0.924
 3740TIP3    H211164   4.062   2.746   0.934
 3741TIP3   OH211165   0.846   2.513   3.743
 3741TIP3    H111166   0.846   2.577   3.813
 3741TIP3    H211167   0.777   2.450   3.766
 3742TIP3   OH211168   1.790   5.160   0.849
 3742TIP3    H111169   1.719   5.117   0.801
 3742TIP3    H211170   1.855   5.091   0.862
 3743TIP3   OH211171   2.992   6.537   2.339
 3743TIP3    H111172   3.071   6.508   2.386
 3743TIP3    H211173   2.933   6.566   2.409
 3744TIP3   OH211174   4.976   3.316   2.244
 3744TIP3    H111175   4.937   3.402   2.258
 3744TIP3    H211176   5.025   3.324   2.162
 3745TIP3   OH211177   0.420   1.787   2.517
 3745TIP3    H111178   0.356   1.847   2.478
 3745TIP3    H211179   0.367   1.714   2.549
 3746TIP3   OH211180   4.287   3.565   5.619
 3746TIP3    H111181   4.214   3.610   5.577
 3746TIP3    H211182   4.263   3.472   5.616
 3747TIP3   OH211183   0.779   7.323   3.258
 3747TIP3    H111184   0.809   7.318   3.349
 3747TIP3    H211185   0.718   7.397   3.257
 3748TIP3   OH211186   4.157   3.948   6.041
 3748TIP3    H111187   4.217   3.874   6.036
 3748TIP3    H211188   4.088   3.919   6.100
 3749TIP3   OH211189   5.083   7.194   4.481
 3749TIP3    H111190   5.065   7.117   4.427
 3749TIP3    H211191   5.134   7.252   4.424
 3750TIP3   OH211192   1.836   1.907   5.066
 3750TIP3    H111193   1.765   1.967   5.091
 3750TIP3    H211194   1.902   1.964   5.026
 3751TIP3   OH211195   5.712   5.879   0.725
 3751TIP3    H111196   5.768   5.926   0.786
 3751TIP3    H211197   5.716   5.787   0.753
 3752TIP3   OH211198   5.677   3.959   1.165
 3752TIP3    H111199   5.613   3.966   1.236
 3752TIP3    H211200   5.733   3.886   1.191
 3753TIP3   OH211201   6.878   0.628   0.354
 3753TIP3    H111202   6.841   0.546   0.386
 3753TIP3    H211203   6.840   0.639   0.267
 3754TIP3   OH211204   2.651   3.882   2.663
 3754TIP3    H111205   2.638   3.789   2.679
 3754TIP3    H211206   2.698   3.913   2.741
 3755TIP3   OH211207   0.336   2.552   3.963
 3755TIP3    H111208   0.350   2.619   4.030
 3755TIP3    H211209   0.319   2.472   4.012
 3756TIP3   OH211210   2.472   1.025   6.026
 3756TIP3    H111211   2.566   1.035   6.042
 3756TIP3    H211212   2.447   1.105   5.981
 3757TIP3   OH211213   2.127   3.699   0.535
 3757TIP3    H111214   2.166   3.729   0.618
 3757TIP3    H211215   2.039   3.669   0.559
 3758TIP3   OH211216   7.081   6.283   4.123
 3758TIP3    H111217   7.025   6.207   4.137
 3758TIP3    H211218   7.116   6.303   4.210
 3759TIP3   OH211219   1.228   0.523   4.890
 3759TIP3    H111220   1.240   0.512   4.985
 3759TIP3    H211221   1.133   0.520   4.877
 3760TIP3   OH211222   3.445   4.099   0.368
 3760TIP3    H111223   3.517   4.126   0.311
 3760TIP3    H211224   3.424   4.010   0.340
 3761TIP3   OH211225   0.486   0.251   6.597
 3761TIP3    H111226   0.493   0.235   6.691
 3761TIP3    H211227   0.463   0.165   6.560
 3762TIP3   OH211228   0.609   5.150   4.340
 3762TIP3    H111229   0.676   5.113   4.398
 3762TIP3    H211230   0.533   5.092   4.352
 3763TIP3   OH211231   3.118   6.020   6.586
 3763TIP3    H111232   3.038   5.997   6.634
 3763TIP3    H211233   3.138   6.110   6.614
 3764TIP3   OH211234   4.380   0.507   3.874
 3764TIP3    H111235   4.352   0.441   3.810
 3764TIP3    H211236   4.421   0.456   3.944
 3765TIP3   OH211237   4.495   4.973   2.890
 3765TIP3    H111238   4.500   5.038   2.960
 3765TIP3    H211239   4.583   4.972   2.852
 3766TIP3   OH211240   4.576   5.992   5.215
 3766TIP3    H111241   4.601   5.952   5.131
 3766TIP3    H211242   4.580   5.921   5.278
 3767TIP3   OH211243   5.139   4.696   0.632
 3767TIP3    H111244   5.061   4.662   0.589
 3767TIP3    H211245   5.161   4.775   0.584
 3768TIP3   OH211246   6.466   5.926   1.901
 3768TIP3    H111247   6.468   6.018   1.876
 3768TIP3    H211248   6.432   5.926   1.991
 3769TIP3   OH211249   5.679   3.754   3.056
 3769TIP3    H111250   5.608   3.789   3.110
 3769TIP3    H211251   5.723   3.690   3.112
 3770TIP3   OH211252   0.276   7.719   1.103
 3770TIP3    H111253   0.181   7.723   1.114
 3770TIP3    H211254   0.289   7.701   1.010
 3771TIP3   OH211255   3.236   1.187   3.353
 3771TIP3    H111256   3.329   1.192   3.377
 3771TIP3    H211257   3.191   1.168   3.435
 3772TIP3   OH211258   2.022   2.348   6.395
 3772TIP3    H111259   2.037   2.416   6.330
 3772TIP3    H211260   2.097   2.354   6.454
 3773TIP3   OH211261   1.113   5.272   5.267
 3773TIP3    H111262   1.065   5.260   5.349
 3773TIP3    H211263   1.185   5.332   5.289
 3774TIP3   OH211264   2.654   5.575   0.345
 3774TIP3    H111265   2.699   5.536   0.420
 3774TIP3    H211266   2.665   5.669   0.356
 3775TIP3   OH211267   3.547   4.710   6.504
 3775TIP3    H111268   3.473   4.745   6.454
 3775TIP3    H211269   3.522   4.620   6.523
 3776TIP3   OH211270   3.156   3.205   5.201
 3776TIP3    H111271   3.080   3.243   5.245
 3776TIP3    H211272   3.228   3.220   5.262
 3777TIP3   OH211273   2.926   7.536   3.910
 3777TIP3    H111274   2.836   7.536   3.879
 3777TIP3    H211275   2.921   7.572   3.998
 3778TIP3   OH211276   0.922   5.678   4.444
 3778TIP3    H111277   0.945   5.586   4.456
 3778TIP3    H211278   1.002   5.719   4.412
 3779TIP3   OH211279   7.881   0.362   3.628
 3779TIP3    H111280   7.817   0.299   3.662
 3779TIP3    H211281   7.882   0.432   3.693
 3780TIP3   OH211282   0.248   0.790   3.420
 3780TIP3    H111283   0.287   0.729   3.358
 3780TIP3    H211284   0.212   0.735   3.490
 3781TIP3   OH211285   6.978   5.753   5.449
 3781TIP3    H111286   7.041   5.766   5.520
 3781TIP3    H211287   7.001   5.819   5.384
 3782TIP3   OH211288   3.137   0.025   6.304
 3782TIP3    H111289   3.046   0.025   6.274
 3782TIP3    H211290   3.186  -0.016   6.232
 3783TIP3   OH211291   6.027   7.679   5.619
 3783TIP3    H111292   6.081   7.690   5.697
 3783TIP3    H211293   6.078   7.622   5.562
 3784TIP3   OH211294   6.838   6.315   2.338
 3784TIP3    H111295   6.787   6.397   2.333
 3784TIP3    H211296   6.882   6.319   2.423
 3785TIP3   OH211297   5.941   0.257   3.798
 3785TIP3    H111298   5.850   0.287   3.793
 3785TIP3    H211299   5.985   0.304   3.727
 3786TIP3   OH211300   5.970   0.518   6.505
 3786TIP3    H111301   5.887   0.537   6.549
 3786TIP3    H211302   5.947   0.453   6.439
 3787TIP3   OH211303   3.168   5.513   5.293
 3787TIP3    H111304   3.161   5.608   5.294
 3787TIP3    H211305   3.261   5.495   5.278
 3788TIP3   OH211306   3.073   1.523   2.738
 3788TIP3    H111307   3.147   1.553   2.686
 3788TIP3    H211308   3.079   1.427   2.735
 3789TIP3   OH211309   2.250   2.120   4.521
 3789TIP3    H111310   2.223   2.210   4.504
 3789TIP3    H211311   2.346   2.125   4.529
 3790TIP3   OH211312   0.068   3.447   1.500
 3790TIP3    H111313   0.036   3.532   1.471
 3790TIP3    H211314   0.133   3.422   1.434
 3791TIP3   OH211315   6.289   2.396   5.229
 3791TIP3    H111316   6.218   2.458   5.211
 3791TIP3    H211317   6.244   2.314   5.247
 3792TIP3   OH211318   1.878   5.428   5.434
 3792TIP3    H111319   1.947   5.389   5.488
 3792TIP3    H211320   1.909   5.517   5.416
 3793TIP3   OH211321   3.984   2.288   5.788
 3793TIP3    H111322   4.079   2.294   5.784
 3793TIP3    H211323   3.966   2.197   5.811
 3794TIP3   OH211324   0.669   6.241   6.071
 3794TIP3    H111325   0.716   6.172   6.025
 3794TIP3    H211326   0.590   6.256   6.019
 3795TIP3   OH211327   4.276   0.603   5.137
 3795TIP3    H111328   4.335   0.669   5.101
 3795TIP3    H211329   4.189   0.631   5.108
 3796TIP3   OH211330   0.044   7.214   0.750
 3796TIP3    H111331   0.079   7.129   0.778
 3796TIP3    H211332   0.051   7.270   0.828
 3797TIP3   OH211333   4.805   2.724   5.487
 3797TIP3    H111334   4.750   2.673   5.548
 3797TIP3    H211335   4.768   2.705   5.401
 3798TIP3   OH211336   7.616   1.066   4.547
 3798TIP3    H111337   7.645   0.978   4.571
 3798TIP3    H211338   7.645   1.077   4.457
 3799TIP3   OH211339   4.819   1.709   6.670
 3799TIP3    H111340   4.851   1.695   6.581
 3799TIP3    H211341   4.852   1.635   6.720
 3800TIP3   OH211342   1.177   1.253   6.774
 3800TIP3    H111343   1.129   1.178   6.808
 3800TIP3    H211344   1.127   1.281   6.697
 3801TIP3   OH211345   5.964   0.482   2.347
 3801TIP3    H111346   6.012   0.558   2.314
 3801TIP3    H211347   5.933   0.437   2.268
 3802TIP3   OH211348   4.283   0.678   0.606
 3802TIP3    H111349   4.375   0.664   0.628
 3802TIP3    H211350   4.237   0.670   0.690
 3803TIP3   OH211351   5.637   1.727   6.104
 3803TIP3    H111352   5.718   1.729   6.054
 3803TIP3    H211353   5.618   1.634   6.116
 3804TIP3   OH211354   7.392   4.606   6.316
 3804TIP3    H111355   7.301   4.633   6.304
 3804TIP3    H211356   7.426   4.593   6.227
 3805TIP3   OH211357   6.081   7.225   2.703
 3805TIP3    H111358   6.068   7.320   2.700
 3805TIP3    H211359   6.056   7.201   2.792
 3806TIP3   OH211360   3.780   7.592   5.180
 3806TIP3    H111361   3.764   7.675   5.224
 3806TIP3    H211362   3.854   7.554   5.228
 3807TIP3   OH211363   2.437   4.210   3.512
 3807TIP3    H111364   2.488   4.275   3.561
 3807TIP3    H211365   2.418   4.253   3.428
 3808TIP3   OH211366   8.015   2.970   0.584
 3808TIP3    H111367   7.939   2.914   0.599
 3808TIP3    H211368   8.088   2.909   0.575
 3809TIP3   OH211369   7.360   0.831   3.674
 3809TIP3    H111370   7.424   0.763   3.651
 3809TIP3    H211371   7.397   0.912   3.637
 3810TIP3   OH211372   7.936   7.422   0.323
 3810TIP3    H111373   7.995   7.497   0.328
 3810TIP3    H211374   7.986   7.354   0.278
 3811TIP3   OH211375   3.075   4.822   2.165
 3811TIP3    H111376   3.081   4.913   2.135
 3811TIP3    H211377   3.034   4.827   2.251
 3812TIP3   OH211378   0.681   0.170   0.588
 3812TIP3    H111379   0.700   0.258   0.555
 3812TIP3    H211380   0.759   0.145   0.637
 3813TIP3   OH211381   1.917   0.932   5.688
 3813TIP3    H111382   1.848   0.880   5.647
 3813TIP3    H211383   1.872   0.983   5.755
 3814TIP3   OH211384   3.735   0.122   2.762
 3814TIP3    H111385   3.652   0.139   2.716
 3814TIP3    H211386   3.803   0.137   2.696
 3815TIP3   OH211387   8.141   6.790   4.986
 3815TIP3    H111388   8.074   6.722   4.988
 3815TIP3    H211389   8.184   6.784   5.072
 3816TIP3   OH211390   5.903   0.484   5.944
 3816TIP3    H111391   5.837   0.425   5.981
 3816TIP3    H211392   5.924   0.447   5.859
 3817TIP3   OH211393   6.268   7.546   4.575
 3817TIP3    H111394   6.204   7.527   4.507
 3817TIP3    H211395   6.338   7.594   4.530
 3818TIP3   OH211396   0.236   4.803   2.247
 3818TIP3    H111397   0.165   4.807   2.183
 3818TIP3    H211398   0.314   4.825   2.197
 3819TIP3   OH211399   5.780   0.997   4.125
 3819TIP3    H111400   5.835   0.919   4.123
 3819TIP3    H211401   5.824   1.056   4.186
 3820TIP3   OH211402   0.320   6.303   5.411
 3820TIP3    H111403   0.332   6.330   5.319
 3820TIP3    H211404   0.409   6.289   5.443
 3821TIP3   OH211405   4.016   7.644   2.539
 3821TIP3    H111406   4.015   7.610   2.629
 3821TIP3    H211407   4.103   7.680   2.528
 3822TIP3   OH211408   4.775   2.798   2.631
 3822TIP3    H111409   4.703   2.860   2.644
 3822TIP3    H211410   4.794   2.803   2.537
 3823TIP3   OH211411   2.849   1.268   5.260
 3823TIP3    H111412   2.762   1.232   5.240
 3823TIP3    H211413   2.907   1.192   5.259
 3824TIP3   OH211414   0.131   3.795   5.914
 3824TIP3    H111415   0.106   3.882   5.881
 3824TIP3    H211416   0.057   3.739   5.889
 3825TIP3   OH211417   6.345   1.720   1.301
 3825TIP3    H111418   6.345   1.625   1.308
 3825TIP3    H211419   6.437   1.745   1.305
 3826TIP3   OH211420   3.284   2.346   0.305
 3826TIP3    H111421   3.224   2.404   0.259
 3826TIP3    H211422   3.239   2.326   0.387
 3827TIP3   OH211423   3.796   6.126   4.164
 3827TIP3    H111424   3.888   6.138   4.139
 3827TIP3    H211425   3.800   6.078   4.247
 3828TIP3   OH211426   6.683   4.753   5.648
 3828TIP3    H111427   6.721   4.710   5.572
 3828TIP3    H211428   6.750   4.816   5.676
 3829TIP3   OH211429   5.693   1.193   4.857
 3829TIP3    H111430   5.666   1.101   4.849
 3829TIP3    H211431   5.715   1.204   4.949
 3830TIP3   OH211432   5.557   4.730   1.828
 3830TIP3    H111433   5.477   4.744   1.880
 3830TIP3    H211434   5.613   4.676   1.884
 3831TIP3   OH211435   3.221   3.461   0.921
 3831TIP3    H111436   3.279   3.388   0.899
 3831TIP3    H211437   3.222   3.517   0.844
 3832TIP3   OH211438   7.359   2.970   1.217
 3832TIP3    H111439   7.415   2.955   1.293
 3832TIP3    H211440   7.329   3.060   1.226
 3833TIP3   OH211441   4.638   5.858   4.307
 3833TIP3    H111442   4.669   5.922   4.372
 3833TIP3    H211443   4.576   5.907   4.254
 3834TIP3   OH211444   0.493   7.416   2.048
 3834TIP3    H111445   0.530   7.355   2.112
 3834TIP3    H211446   0.473   7.495   2.098
 3835TIP3   OH211447   6.967   1.074   5.305
 3835TIP3    H111448   7.054   1.109   5.287
 3835TIP3    H211449   6.977   0.979   5.301
 3836TIP3   OH211450   2.700   0.827   1.288
 3836TIP3    H111451   2.621   0.829   1.343
 3836TIP3    H211452   2.709   0.735   1.262
 3837TIP3   OH211453   1.238   2.879   6.762
 3837TIP3    H111454   1.332   2.890   6.775
 3837TIP3    H211455   1.227   2.879   6.667
 3838TIP3   OH211456   1.348   4.225   2.572
 3838TIP3    H111457   1.346   4.317   2.544
 3838TIP3    H211458   1.316   4.177   2.496
 3839TIP3   OH211459   2.164   4.412   1.665
 3839TIP3    H111460   2.156   4.347   1.735
 3839TIP3    H211461   2.221   4.371   1.601
 3840TIP3   OH211462   3.977   3.842   0.064
 3840TIP3    H111463   3.919   3.766   0.056
 3840TIP3    H211464   4.026   3.827   0.144
 3841TIP3   OH211465   6.401   1.727   5.390
 3841TIP3    H111466   6.450   1.713   5.471
 3841TIP3    H211467   6.392   1.640   5.351
 3842TIP3   OH211468   4.162   6.598   5.810
 3842TIP3    H111469   4.198   6.658   5.875
 3842TIP3    H211470   4.089   6.554   5.855
 3843TIP3   OH211471   2.550   5.467   1.885
 3843TIP3    H111472   2.492   5.502   1.953
 3843TIP3    H211473   2.517   5.504   1.804
 3844TIP3   OH211474   1.207   7.752   5.699
 3844TIP3    H111475   1.164   7.666   5.701
 3844TIP3    H211476   1.300   7.731   5.714
 3845TIP3   OH211477   2.630   6.647   2.458
 3845TIP3    H111478   2.629   6.626   2.364
 3845TIP3    H211479   2.715   6.688   2.472
 3846TIP3   OH211480   3.943   6.274   3.440
 3846TIP3    H111481   3.873   6.337   3.458
 3846TIP3    H211482   4.014   6.300   3.498
 3847TIP3   OH211483   5.862   0.015   0.460
 3847TIP3    H111484   5.944  -0.034   0.461
 3847TIP3    H211485   5.890   0.106   0.451
 3848TIP3   OH211486   3.775   0.566   3.320
 3848TIP3    H111487   3.774   0.642   3.379
 3848TIP3    H211488   3.765   0.604   3.232
 3849TIP3   OH211489   4.611   4.483   0.160
 3849TIP3    H111490   4.690   4.502   0.210
 3849TIP3    H211491   4.605   4.387   0.161
 3850TIP3   OH211492   4.799   6.309   2.188
 3850TIP3    H111493   4.777   6.377   2.252
 3850TIP3    H211494   4.827   6.357   2.110
 3851TIP3   OH211495   1.413   2.905   4.955
 3851TIP3    H111496   1.469   2.895   4.878
 3851TIP3    H211497   1.433   2.993   4.987
 3852TIP3   OH211498   2.757   3.949   3.438
 3852TIP3    H111499   2.662   3.961   3.428
 3852TIP3    H211500   2.787   4.032   3.475
 3853TIP3   OH211501   1.923   2.456   2.195
 3853TIP3    H111502   1.868   2.509   2.137
 3853TIP3    H211503   1.875   2.454   2.278
 3854TIP3   OH211504   1.139   0.834   3.681
 3854TIP3    H111505   1.133   0.918   3.637
 3854TIP3    H211506   1.154   0.855   3.773
 3855TIP3   OH211507   0.103   2.283   4.960
 3855TIP3    H111508   0.194   2.312   4.960
 3855TIP3    H211509   0.091   2.241   5.046
 3856TIP3   OH211510   1.942   5.977   5.760
 3856TIP3    H111511   1.954   6.058   5.810
 3856TIP3    H211512   1.888   5.921   5.816
 3857TIP3   OH211513   3.157   2.533   0.179
 3857TIP3    H111514   3.235   2.589   0.178
 3857TIP3    H211515   3.085   2.593   0.194
 3858TIP3   OH211516   5.782   6.151   2.854
 3858TIP3    H111517   5.779   6.242   2.824
 3858TIP3    H211518   5.783   6.157   2.950
 3859TIP3   OH211519   6.507   0.220   0.056
 3859TIP3    H111520   6.576   0.179   0.108
 3859TIP3    H211521   6.548   0.240  -0.028
 3860TIP3   OH211522   7.437   1.504   5.909
 3860TIP3    H111523   7.437   1.416   5.949
 3860TIP3    H211524   7.517   1.507   5.856
 3861TIP3   OH211525   2.675   6.913   6.736
 3861TIP3    H111526   2.636   6.902   6.823
 3861TIP3    H211527   2.761   6.874   6.743
 3862TIP3   OH211528   3.018   4.151   3.924
 3862TIP3    H111529   3.091   4.105   3.882
 3862TIP3    H211530   2.940   4.106   3.891
 3863TIP3   OH211531   5.026   5.333   4.615
 3863TIP3    H111532   5.007   5.239   4.616
 3863TIP3    H211533   5.005   5.363   4.703
 3864TIP3   OH211534   7.083   0.953   0.803
 3864TIP3    H111535   6.993   0.923   0.806
 3864TIP3    H211536   7.083   1.024   0.739
 3865TIP3   OH211537   2.196   6.750   0.264
 3865TIP3    H111538   2.201   6.715   0.175
 3865TIP3    H211539   2.178   6.843   0.252
 3866TIP3   OH211540   3.141   4.031   3.252
 3866TIP3    H111541   3.220   4.072   3.288
 3866TIP3    H211542   3.126   3.955   3.308
 3867TIP3   OH211543   0.842   4.905   4.051
 3867TIP3    H111544   0.905   4.849   4.006
 3867TIP3    H211545   0.819   4.857   4.130
 3868TIP3   OH211546   7.113   4.086   4.636
 3868TIP3    H111547   7.198   4.122   4.612
 3868TIP3    H211548   7.075   4.056   4.553
 3869TIP3   OH211549   8.115   0.178   4.315
 3869TIP3    H111550   8.110   0.084   4.330
 3869TIP3    H211551   8.103   0.188   4.220
 3870TIP3   OH211552   5.414   1.525   0.075
 3870TIP3    H111553   5.377   1.458   0.017
 3870TIP3    H211554   5.488   1.560   0.026
 3871TIP3   OH211555   3.382   5.702   4.919
 3871TIP3    H111556   3.288   5.704   4.939
 3871TIP3    H211557   3.392   5.761   4.845
 3872TIP3   OH211558   1.904   6.852   6.658
 3872TIP3    H111559   1.847   6.929   6.657
 3872TIP3    H211560   1.844   6.778   6.668
 3873TIP3   OH211561   7.913   2.405   4.837
 3873TIP3    H111562   7.934   2.496   4.859
 3873TIP3    H211563   7.969   2.385   4.762
 3874TIP3   OH211564   3.465   6.434   2.692
 3874TIP3    H111565   3.549   6.477   2.707
 3874TIP3    H211566   3.445   6.393   2.776
 3875TIP3   OH211567   7.330   7.546   5.085
 3875TIP3    H111568   7.383   7.508   5.014
 3875TIP3    H211569   7.299   7.470   5.134
 3876TIP3   OH211570   0.159   5.789   4.219
 3876TIP3    H111571   0.252   5.808   4.206
 3876TIP3    H211572   0.115   5.874   4.212
 3877TIP3   OH211573   7.955   7.222   4.769
 3877TIP3    H111574   7.943   7.127   4.776
 3877TIP3    H211575   8.044   7.238   4.799
 3878TIP3   OH211576   1.426   6.477   2.169
 3878TIP3    H111577   1.487   6.538   2.210
 3878TIP3    H211578   1.418   6.508   2.079
 3879TIP3   OH211579   4.364   0.206   6.531
 3879TIP3    H111580   4.273   0.225   6.552
 3879TIP3    H211581   4.414   0.278   6.571
 3880TIP3   OH211582   2.452   0.520   3.438
 3880TIP3    H111583   2.509   0.591   3.468
 3880TIP3    H211584   2.410   0.489   3.518
 3881TIP3   OH211585   3.012   4.655   3.388
 3881TIP3    H111586   3.047   4.592   3.325
 3881TIP3    H211587   3.059   4.736   3.369
 3882TIP3   OH211588   1.553   2.866   3.183
 3882TIP3    H111589   1.621   2.891   3.120
 3882TIP3    H211590   1.511   2.949   3.205
 3883TIP3   OH211591   1.082   2.466   0.476
 3883TIP3    H111592   1.060   2.409   0.402
 3883TIP3    H211593   1.003   2.468   0.529
 3884TIP3   OH211594   4.118   2.389   3.550
 3884TIP3    H111595   4.061   2.376   3.626
 3884TIP3    H211596   4.067   2.443   3.490
 3885TIP3   OH211597   0.078   1.176   4.851
 3885TIP3    H111598   0.106   1.112   4.785
 3885TIP3    H211599   0.128   1.255   4.830
 3886TIP3   OH211600   3.644   5.890   5.387
 3886TIP3    H111601   3.591   5.945   5.444
 3886TIP3    H211602   3.591   5.878   5.309
 3887TIP3   OH211603   6.953   2.782   4.496
 3887TIP3    H111604   6.955   2.875   4.472
 3887TIP3    H211605   6.919   2.738   4.418
 3888TIP3   OH211606   6.435   1.286   0.485
 3888TIP3    H111607   6.342   1.290   0.462
 3888TIP3    H211608   6.444   1.202   0.530
 3889TIP3   OH211609   3.594   2.798   3.244
 3889TIP3    H111610   3.611   2.858   3.317
 3889TIP3    H211611   3.530   2.845   3.190
 3890TIP3   OH211612   0.763   4.308   2.687
 3890TIP3    H111613   0.780   4.332   2.778
 3890TIP3    H211614   0.683   4.355   2.664
 3891TIP3   OH211615   1.742   6.019   4.098
 3891TIP3    H111616   1.769   6.001   4.188
 3891TIP3    H211617   1.766   6.111   4.083
 3892TIP3   OH211618   6.700   1.081   6.473
 3892TIP3    H111619   6.794   1.078   6.460
 3892TIP3    H211620   6.688   1.068   6.568
 3893TIP3   OH211621   3.773   0.833   3.388
 3893TIP3    H111622   3.797   0.897   3.456
 3893TIP3    H211623   3.832   0.853   3.315
 3894TIP3   OH211624   2.797   7.381   6.475
 3894TIP3    H111625   2.706   7.392   6.446
 3894TIP3    H211626   2.790   7.353   6.567
 3895TIP3   OH211627   7.626   0.832   6.737
 3895TIP3    H111628   7.554   0.822   6.800
 3895TIP3    H211629   7.583   0.830   6.651
 3896TIP3   OH211630   2.668   5.501   6.741
 3896TIP3    H111631   2.611   5.574   6.764
 3896TIP3    H211632   2.647   5.483   6.649
 3897TIP3   OH211633   0.323   3.834   3.221
 3897TIP3    H111634   0.375   3.914   3.216
 3897TIP3    H211635   0.279   3.839   3.306
 3898TIP3   OH211636   6.351   1.745   2.357
 3898TIP3    H111637   6.427   1.688   2.367
 3898TIP3    H211638   6.320   1.761   2.446
 3899TIP3   OH211639   3.333   6.616   0.547
 3899TIP3    H111640   3.259   6.653   0.497
 3899TIP3    H211641   3.409   6.663   0.513
 3900TIP3   OH211642   6.371   6.273   0.709
 3900TIP3    H111643   6.356   6.180   0.692
 3900TIP3    H211644   6.392   6.278   0.802
 3901TIP3   OH211645   2.071   2.920   5.688
 3901TIP3    H111646   2.039   2.860   5.754
 3901TIP3    H211647   2.157   2.886   5.664
 3902TIP3   OH211648   3.739   7.296   2.620
 3902TIP3    H111649   3.675   7.233   2.651
 3902TIP3    H211650   3.722   7.305   2.526
 3903TIP3   OH211651   0.301   7.502   4.871
 3903TIP3    H111652   0.275   7.410   4.882
 3903TIP3    H211653   0.223   7.552   4.895
 3904TIP3   OH211654   5.972   4.874   5.034
 3904TIP3    H111655   6.029   4.941   4.996
 3904TIP3    H211656   6.002   4.792   4.994
 3905TIP3   OH211657   7.638   7.188   5.644
 3905TIP3    H111658   7.596   7.111   5.683
 3905TIP3    H211659   7.567   7.251   5.631
 3906TIP3   OH211660   0.072   2.536   0.781
 3906TIP3    H111661   0.031   2.487   0.852
 3906TIP3    H211662   0.014   2.522   0.706
 3907TIP3   OH211663   4.505   2.652   6.058
 3907TIP3    H111664   4.517   2.746   6.040
 3907TIP3    H211665   4.419   2.632   6.021
 3908TIP3   OH211666   3.762   0.631   1.185
 3908TIP3    H111667   3.701   0.705   1.190
 3908TIP3    H211668   3.718   0.561   1.234
 3909TIP3   OH211669   4.576   2.298   5.903
 3909TIP3    H111670   4.615   2.333   5.824
 3909TIP3    H211671   4.641   2.313   5.972
 3910TIP3   OH211672   1.713   2.024   2.954
 3910TIP3    H111673   1.702   1.950   3.014
 3910TIP3    H211674   1.722   1.983   2.868
 3911TIP3   OH211675   4.007   0.972   2.483
 3911TIP3    H111676   3.987   1.057   2.522
 3911TIP3    H211677   4.101   0.973   2.469
 3912TIP3   OH211678   1.794   6.992   2.713
 3912TIP3    H111679   1.765   6.958   2.628
 3912TIP3    H211680   1.889   6.980   2.712
 3913TIP3   OH211681   5.580   7.509   0.105
 3913TIP3    H111682   5.664   7.545   0.078
 3913TIP3    H211683   5.600   7.454   0.180
 3914TIP3   OH211684   5.314   6.802   1.370
 3914TIP3    H111685   5.279   6.714   1.385
 3914TIP3    H211686   5.322   6.808   1.274
 3915TIP3   OH211687   5.970   2.150   1.162
 3915TIP3    H111688   6.032   2.181   1.096
 3915TIP3    H211689   5.976   2.214   1.233
 3916TIP3   OH211690   5.062   1.272   0.722
 3916TIP3    H111691   5.069   1.226   0.638
 3916TIP3    H211692   4.984   1.236   0.762
 3917TIP3   OH211693   6.659   2.930   2.337
 3917TIP3    H111694   6.694   3.012   2.301
 3917TIP3    H211695   6.600   2.958   2.408
 3918TIP3   OH211696   5.116   6.818   6.331
 3918TIP3    H111697   5.159   6.802   6.247
 3918TIP3    H211698   5.137   6.740   6.383
 3919TIP3   OH211699   6.471   2.601   2.037
 3919TIP3    H111700   6.513   2.628   2.119
 3919TIP3    H211701   6.382   2.635   2.044
 3920TIP3   OH211702   8.151   1.913   2.916
 3920TIP3    H111703   8.099   1.860   2.856
 3920TIP3    H211704   8.125   1.883   3.003
 3921TIP3   OH211705   6.909   2.880   5.559
 3921TIP3    H111706   6.849   2.947   5.524
 3921TIP3    H211707   6.869   2.854   5.642
 3922TIP3   OH211708   6.493   7.670   3.796
 3922TIP3    H111709   6.420   7.608   3.800
 3922TIP3    H211710   6.452   7.754   3.776
 3923TIP3   OH211711   3.976   0.753   2.286
 3923TIP3    H111712   3.992   0.836   2.330
 3923TIP3    H211713   4.042   0.750   2.217
 3924TIP3   OH211714   3.893   6.532   2.517
 3924TIP3    H111715   3.959   6.536   2.586
 3924TIP3    H211716   3.939   6.562   2.438
 3925TIP3   OH211717   6.534   0.709   5.781
 3925TIP3    H111718   6.571   0.778   5.835
 3925TIP3    H211719   6.606   0.646   5.771
 3926TIP3   OH211720   2.093   4.885   5.795
 3926TIP3    H111721   2.178   4.921   5.821
 3926TIP3    H211722   2.090   4.799   5.837
 3927TIP3   OH211723   3.065   1.768   6.543
 3927TIP3    H111724   2.972   1.780   6.523
 3927TIP3    H211725   3.070   1.680   6.579
 3928TIP3   OH211726   5.577   1.937   3.193
 3928TIP3    H111727   5.563   1.842   3.186
 3928TIP3    H211728   5.499   1.976   3.153
 3929TIP3   OH211729   6.733   5.612   5.527
 3929TIP3    H111730   6.779   5.601   5.609
 3929TIP3    H211731   6.797   5.652   5.468
 3930TIP3   OH211732   7.460   3.185   5.269
 3930TIP3    H111733   7.380   3.140   5.293
 3930TIP3    H211734   7.456   3.191   5.173
 3931TIP3   OH211735   2.792   6.384   1.877
 3931TIP3    H111736   2.800   6.394   1.782
 3931TIP3    H211737   2.874   6.342   1.903
 3932TIP3   OH211738   5.922   5.947   4.720
 3932TIP3    H111739   5.944   5.929   4.811
 3932TIP3    H211740   5.912   5.860   4.680
 3933TIP3   OH211741   0.420   3.100   0.510
 3933TIP3    H111742   0.462   3.170   0.460
 3933TIP3    H211743   0.360   3.146   0.570
 3934TIP3   OH211744   5.732   6.498   5.511
 3934TIP3    H111745   5.787   6.574   5.528
 3934TIP3    H211746   5.792   6.423   5.511
 3935TIP3   OH211747   2.677   6.799   1.515
 3935TIP3    H111748   2.730   6.721   1.501
 3935TIP3    H211749   2.736   6.872   1.499
 3936TIP3   OH211750   8.209   0.613   1.312
 3936TIP3    H111751   8.293   0.571   1.329
 3936TIP3    H211752   8.161   0.550   1.258
 3937TIP3   OH211753   7.556   2.774   3.824
 3937TIP3    H111754   7.511   2.854   3.797
 3937TIP3    H211755   7.485   2.710   3.836
 3938TIP3   OH211756   5.132   0.792   5.458
 3938TIP3    H111757   5.217   0.754   5.479
 3938TIP3    H211758   5.082   0.787   5.540
 3939TIP3   OH211759   5.458   4.096   2.117
 3939TIP3    H111760   5.426   4.157   2.183
 3939TIP3    H211761   5.414   4.122   2.036
 3940TIP3   OH211762   4.862   0.793   4.131
 3940TIP3    H111763   4.848   0.880   4.094
 3940TIP3    H211764   4.898   0.810   4.218
 3941TIP3   OH211765   0.514   3.194   1.546
 3941TIP3    H111766   0.438   3.142   1.520
 3941TIP3    H211767   0.478   3.265   1.600
 3942TIP3   OH211768   0.646   3.355   6.257
 3942TIP3    H111769   0.621   3.448   6.261
 3942TIP3    H211770   0.565   3.308   6.276
 3943TIP3   OH211771   8.173   4.802   6.509
 3943TIP3    H111772   8.204   4.869   6.569
 3943TIP3    H211773   8.125   4.850   6.441
 3944TIP3   OH211774   6.067   5.839   3.151
 3944TIP3    H111775   5.992   5.807   3.101
 3944TIP3    H211776   6.136   5.849   3.086
 3945TIP3   OH211777   4.828   5.337   0.520
 3945TIP3    H111778   4.800   5.390   0.595
 3945TIP3    H211779   4.809   5.392   0.444
 3946TIP3   OH211780   2.951   0.531   5.054
 3946TIP3    H111781   3.042   0.504   5.060
 3946TIP3    H211782   2.952   0.625   5.071
 3947TIP3   OH211783   0.395   1.889   2.865
 3947TIP3    H111784   0.480   1.897   2.821
 3947TIP3    H211785   0.412   1.835   2.942
 3948TIP3   OH211786   3.804   0.963   5.547
 3948TIP3    H111787   3.793   1.057   5.555
 3948TIP3    H211788   3.760   0.927   5.625
 3949TIP3   OH211789   1.088   6.169   3.369
 3949TIP3    H111790   1.090   6.264   3.381
 3949TIP3    H211791   1.033   6.155   3.292
 3950TIP3   OH211792   2.039   1.536   5.092
 3950TIP3    H111793   1.968   1.550   5.029
 3950TIP3    H211794   2.110   1.592   5.062
 3951TIP3   OH211795   8.177   3.923   1.114
 3951TIP3    H111796   8.246   3.949   1.175
 3951TIP3    H211797   8.104   3.896   1.170
 3952TIP3   OH211798   7.899   3.780   4.117
 3952TIP3    H111799   7.836   3.798   4.187
 3952TIP3    H211800   7.940   3.865   4.099
 3953TIP3   OH211801   1.501   2.136   1.265
 3953TIP3    H111802   1.596   2.133   1.254
 3953TIP3    H211803   1.475   2.223   1.235
 3954TIP3   OH211804   1.471   6.162   5.191
 3954TIP3    H111805   1.512   6.212   5.120
 3954TIP3    H211806   1.476   6.219   5.267
 3955TIP3   OH211807   3.823   6.723   2.140
 3955TIP3    H111808   3.805   6.733   2.047
 3955TIP3    H211809   3.748   6.675   2.175
 3956TIP3   OH211810   2.108   5.072   3.951
 3956TIP3    H111811   2.192   5.087   3.908
 3956TIP3    H211812   2.089   4.979   3.937
 3957TIP3   OH211813   0.664   1.093   4.809
 3957TIP3    H111814   0.676   1.131   4.897
 3957TIP3    H211815   0.617   1.011   4.825
 3958TIP3   OH211816   3.746   5.879   4.611
 3958TIP3    H111817   3.798   5.817   4.663
 3958TIP3    H211818   3.675   5.826   4.575
 3959TIP3   OH211819   5.209   5.151   0.244
 3959TIP3    H111820   5.169   5.231   0.278
 3959TIP3    H211821   5.257   5.179   0.166
 3960TIP3   OH211822   6.256   7.335   5.041
 3960TIP3    H111823   6.297   7.288   5.114
 3960TIP3    H211824   6.219   7.413   5.081
 3961TIP3   OH211825   8.266   2.417   0.085
 3961TIP3    H111826   8.203   2.374   0.142
 3961TIP3    H211827   8.350   2.403   0.128
 3962TIP3   OH211828   4.753   5.069   1.823
 3962TIP3    H111829   4.845   5.074   1.797
 3962TIP3    H211830   4.705   5.067   1.741
 3963TIP3   OH211831   3.057   2.947   6.475
 3963TIP3    H111832   3.041   2.944   6.381
 3963TIP3    H211833   2.971   2.935   6.514
 3964TIP3   OH211834   0.270   5.015   4.683
 3964TIP3    H111835   0.179   4.998   4.708
 3964TIP3    H211836   0.301   5.079   4.747
 3965TIP3   OH211837   1.139   0.928   2.785
 3965TIP3    H111838   1.140   0.835   2.766
 3965TIP3    H211839   1.076   0.965   2.723
 3966TIP3   OH211840   6.097   7.504   0.980
 3966TIP3    H111841   6.128   7.434   1.038
 3966TIP3    H211842   6.175   7.557   0.963
 3967TIP3   OH211843   1.489   1.788   2.780
 3967TIP3    H111844   1.406   1.799   2.733
 3967TIP3    H211845   1.465   1.796   2.872
 3968TIP3   OH211846   7.454   4.993   3.925
 3968TIP3    H111847   7.412   4.980   4.010
 3968TIP3    H211848   7.436   5.084   3.902
 3969TIP3   OH211849   0.888   1.169   0.356
 3969TIP3    H111850   0.972   1.156   0.312
 3969TIP3    H211851   0.829   1.198   0.287
 3970TIP3   OH211852   7.185   5.440   4.843
 3970TIP3    H111853   7.206   5.351   4.815
 3970TIP3    H211854   7.136   5.477   4.770
 3971TIP3   OH211855   5.033   5.176   5.217
 3971TIP3    H111856   5.106   5.114   5.213
 3971TIP3    H211857   4.958   5.126   5.184
 3972TIP3   OH211858   4.220   6.142   6.361
 3972TIP3    H111859   4.191   6.192   6.437
 3972TIP3    H211860   4.155   6.073   6.352
 3973TIP3   OH211861   4.678   2.030   2.712
 3973TIP3    H111862   4.640   2.060   2.794
 3973TIP3    H211863   4.639   2.086   2.645
 3974TIP3   OH211864   1.870   0.075   3.864
 3974TIP3    H111865   1.777   0.050   3.866
 3974TIP3    H211866   1.874   0.148   3.802
 3975TIP3   OH211867   1.315   1.952   2.094
 3975TIP3    H111868   1.350   2.027   2.046
 3975TIP3    H211869   1.345   1.876   2.044
 3976TIP3   OH211870   4.851   4.382   2.356
 3976TIP3    H111871   4.867   4.398   2.449
 3976TIP3    H211872   4.763   4.345   2.353
 3977TIP3   OH211873   3.525   7.644   6.034
 3977TIP3    H111874   3.495   7.562   5.995
 3977TIP3    H211875   3.539   7.623   6.127
 3978TIP3   OH211876   3.365   6.125   5.814
 3978TIP3    H111877   3.321   6.117   5.899
 3978TIP3    H211878   3.382   6.035   5.787
 3979TIP3   OH211879   8.203   0.860   3.803
 3979TIP3    H111880   8.155   0.870   3.885
 3979TIP3    H211881   8.216   0.949   3.772
 3980TIP3   OH211882   0.159   5.837   0.283
 3980TIP3    H111883   0.163   5.805   0.373
 3980TIP3    H211884   0.119   5.766   0.233
 3981TIP3   OH211885   0.987   0.167   3.498
 3981TIP3    H111886   0.899   0.204   3.496
 3981TIP3    H211887   1.042   0.238   3.531
 3982TIP3   OH211888   0.787   2.287   0.301
 3982TIP3    H111889   0.709   2.238   0.329
 3982TIP3    H211890   0.851   2.271   0.371
 3983TIP3   OH211891   1.120   0.590   5.174
 3983TIP3    H111892   1.078   0.669   5.140
 3983TIP3    H211893   1.117   0.599   5.269
 3984TIP3   OH211894   2.773   6.257   0.802
 3984TIP3    H111895   2.698   6.249   0.861
 3984TIP3    H211896   2.770   6.348   0.771
 3985TIP3   OH211897   5.426   7.406   5.723
 3985TIP3    H111898   5.415   7.489   5.769
 3985TIP3    H211899   5.337   7.382   5.697
 3986TIP3   OH211900   3.383   4.034   2.669
 3986TIP3    H111901   3.450   3.979   2.630
 3986TIP3    H211902   3.423   4.070   2.748
 3987TIP3   OH211903   6.245   4.002   5.869
 3987TIP3    H111904   6.305   4.050   5.811
 3987TIP3    H211905   6.256   4.044   5.954
 3988TIP3   OH211906   0.280   2.349   3.156
 3988TIP3    H111907   0.309   2.385   3.239
 3988TIP3    H211908   0.354   2.362   3.096
 3989TIP3   OH211909   2.364   7.296   1.325
 3989TIP3    H111910   2.283   7.348   1.326
 3989TIP3    H211911   2.358   7.241   1.403
 3990TIP3   OH211912   5.637   6.035   5.191
 3990TIP3    H111913   5.691   6.031   5.270
 3990TIP3    H211914   5.557   5.988   5.215
 3991TIP3   OH211915   0.005   5.367   0.102
 3991TIP3    H111916   0.062   5.442   0.117
 3991TIP3    H211917   0.064   5.294   0.086
 3992TIP3   OH211918   5.243   3.909   5.432
 3992TIP3    H111919   5.273   3.994   5.399
 3992TIP3    H211920   5.304   3.887   5.503
 3993TIP3   OH211921   5.210   4.076   6.172
 3993TIP3    H111922   5.167   3.998   6.137
 3993TIP3    H211923   5.144   4.116   6.228
 3994TIP3   OH211924   7.507   4.798   5.834
 3994TIP3    H111925   7.423   4.837   5.856
 3994TIP3    H211926   7.545   4.856   5.768
 3995TIP3   OH211927   2.293   4.403   2.467
 3995TIP3    H111928   2.257   4.408   2.556
 3995TIP3    H211929   2.244   4.470   2.418
 3996TIP3   OH211930   2.461   2.380   2.081
 3996TIP3    H111931   2.376   2.424   2.087
 3996TIP3    H211932   2.449   2.313   2.013
 3997TIP3   OH211933   2.995   2.953   1.059
 3997TIP3    H111934   3.029   2.883   1.115
 3997TIP3    H211935   3.023   2.929   0.971
 3998TIP3   OH211936   2.147   0.716   0.984
 3998TIP3    H111937   2.180   0.772   0.914
 3998TIP3    H211938   2.128   0.633   0.941
 3999TIP3   OH211939   4.918   4.012   5.183
 3999TIP3    H111940   4.852   3.952   5.147
 3999TIP3    H211941   4.995   3.957   5.198
 4000TIP3   OH211942   0.277   6.890   5.244
 4000TIP3    H111943   0.218   6.839   5.300
 4000TIP3    H211944   0.266   6.851   5.157
 4001TIP3   OH211945   1.262   6.145   4.916
 4001TIP3    H111946   1.282   6.222   4.864
 4001TIP3    H211947   1.337   6.087   4.905
 4002TIP3   OH211948   0.312   3.406   5.847
 4002TIP3    H111949   0.381   3.346   5.874
 4002TIP3    H211950   0.231   3.363   5.872
 4003TIP3   OH211951   4.127   1.830   4.939
 4003TIP3    H111952   4.102   1.915   4.901
 4003TIP3    H211953   4.112   1.841   5.033
 4004TIP3   OH211954   0.670   5.696   6.210
 4004TIP3    H111955   0.760   5.669   6.227
 4004TIP3    H211956   0.657   5.678   6.116
 4005TIP3   OH211957   5.774   4.999   2.000
 4005TIP3    H111958   5.810   4.924   2.048
 4005TIP3    H211959   5.833   5.010   1.926
 4006TIP3   OH211960   1.449   5.276   2.205
 4006TIP3    H111961   1.486   5.196   2.167
 4006TIP3    H211962   1.517   5.308   2.264
 4007TIP3   OH211963   3.450   5.841   0.066
 4007TIP3    H111964   3.409   5.865   0.150
 4007TIP3    H211965   3.516   5.908   0.051
 4008TIP3   OH211966   5.323   2.041   2.131
 4008TIP3    H111967   5.277   1.957   2.138
 4008TIP3    H211968   5.411   2.017   2.100
 4009TIP3   OH211969   0.686   6.861   5.650
 4009TIP3    H111970   0.605   6.909   5.664
 4009TIP3    H211971   0.659   6.777   5.613
 4010TIP3   OH211972   4.056   7.292   2.116
 4010TIP3    H111973   4.028   7.353   2.047
 4010TIP3    H211974   4.040   7.340   2.197
 4011TIP3   OH211975   0.260   1.104   0.987
 4011TIP3    H111976   0.352   1.088   1.007
 4011TIP3    H211977   0.218   1.112   1.073
 4012TIP3   OH211978   4.893   0.735   5.300
 4012TIP3    H111979   4.954   0.704   5.367
 4012TIP3    H211980   4.870   0.823   5.328
 4013TIP3   OH211981   7.534   0.592   1.941
 4013TIP3    H111982   7.502   0.585   2.031
 4013TIP3    H211983   7.611   0.648   1.947
 4014TIP3   OH211984   1.608   1.268   1.296
 4014TIP3    H111985   1.626   1.327   1.222
 4014TIP3    H211986   1.589   1.327   1.369
 4015TIP3   OH211987   7.984   3.831   5.179
 4015TIP3    H111988   7.901   3.784   5.167
 4015TIP3    H211989   7.990   3.887   5.102
 4016TIP3   OH211990   6.998   4.294   1.285
 4016TIP3    H111991   7.033   4.245   1.359
 4016TIP3    H211992   6.997   4.232   1.212
 4017TIP3   OH211993  -0.024   3.855   3.847
 4017TIP3    H111994   0.064   3.888   3.830
 4017TIP3    H211995  -0.035   3.783   3.785
 4018TIP3   OH211996   2.620   3.205   0.530
 4018TIP3    H111997   2.562   3.264   0.483
 4018TIP3    H211998   2.700   3.202   0.477
 4019TIP3   OH211999   5.666   0.033   5.894
 4019TIP3    H112000   5.622   0.110   5.928
 4019TIP3    H212001   5.597  -0.017   5.850
 4020TIP3   OH212002   1.222   1.168   3.971
 4020TIP3    H112003   1.268   1.247   3.943
 4020TIP3    H212004   1.278   1.096   3.942
 4021TIP3   OH212005   5.225   2.219   4.425
 4021TIP3    H112006   5.291   2.174   4.372
 4021TIP3    H212007   5.151   2.232   4.366
 4022TIP3   OH212008   0.676   5.428   3.099
 4022TIP3    H112009   0.687   5.335   3.121
 4022TIP3    H212010   0.600   5.429   3.041
 4023TIP3   OH212011   6.070   7.423   6.647
 4023TIP3    H112012   6.074   7.454   6.738
 4023TIP3    H212013   6.007   7.481   6.605
 4024TIP3   OH212014   7.253   6.748   3.920
 4024TIP3    H112015   7.201   6.710   3.991
 4024TIP3    H212016   7.334   6.698   3.920
 4025TIP3   OH212017   2.044   5.605   6.589
 4025TIP3    H112018   2.019   5.547   6.516
 4025TIP3    H212019   2.109   5.664   6.552
 4026TIP3   OH212020   8.053   6.521   3.492
 4026TIP3    H112021   8.006   6.554   3.415
 4026TIP3    H212022   7.985   6.508   3.558
 4027TIP3   OH212023   0.913   4.845   6.674
 4027TIP3    H112024   0.969   4.819   6.601
 4027TIP3    H212025   0.908   4.767   6.729
 4028TIP3   OH212026   3.343   7.829   1.340
 4028TIP3    H112027   3.368   7.757   1.398
 4028TIP3    H212028   3.356   7.795   1.252
 4029TIP3   OH212029   5.325   7.150   4.639
 4029TIP3    H112030   5.229   7.148   4.648
 4029TIP3    H212031   5.357   7.120   4.724
 4030TIP3   OH212032   7.400   1.262   6.033
 4030TIP3    H112033   7.375   1.173   6.009
 4030TIP3    H212034   7.377   1.269   6.125
 4031TIP3   OH212035   5.534   3.259   6.760
 4031TIP3    H112036   5.526   3.263   6.665
 4031TIP3    H212037   5.507   3.170   6.783
 4032TIP3   OH212038   0.770   4.928   4.440
 4032TIP3    H112039   0.812   4.867   4.379
 4032TIP3    H212040   0.681   4.894   4.451
 4033TIP3   OH212041   2.526   1.714   0.735
 4033TIP3    H112042   2.518   1.734   0.828
 4033TIP3    H212043   2.498   1.794   0.691
 4034TIP3   OH212044   3.675   0.445   6.320
 4034TIP3    H112045   3.771   0.442   6.324
 4034TIP3    H212046   3.652   0.520   6.375
 4035TIP3   OH212047   0.670   4.075   0.276
 4035TIP3    H112048   0.722   3.996   0.295
 4035TIP3    H212049   0.590   4.041   0.237
 4036TIP3   OH212050   7.918   3.704   5.881
 4036TIP3    H112051   7.999   3.702   5.932
 4036TIP3    H212052   7.943   3.743   5.797
 4037TIP3   OH212053   5.420   6.562   2.535
 4037TIP3    H112054   5.373   6.481   2.514
 4037TIP3    H212055   5.509   6.547   2.505
 4038TIP3   OH212056   4.148   6.052   5.155
 4038TIP3    H112057   4.053   6.048   5.168
 4038TIP3    H212058   4.160   6.033   5.062
 4039TIP3   OH212059   5.738   7.423   5.799
 4039TIP3    H112060   5.648   7.454   5.793
 4039TIP3    H212061   5.768   7.456   5.884
 4040TIP3   OH212062   0.395   6.484   2.322
 4040TIP3    H112063   0.418   6.561   2.375
 4040TIP3    H212064   0.303   6.498   2.299
 4041TIP3   OH212065   7.815   6.128   5.820
 4041TIP3    H112066   7.905   6.162   5.817
 4041TIP3    H212067   7.762   6.204   5.843
 4042TIP3   OH212068   1.192   3.910   1.591
 4042TIP3    H112069   1.147   3.954   1.519
 4042TIP3    H212070   1.138   3.927   1.668
 4043TIP3   OH212071   5.436   6.056   4.696
 4043TIP3    H112072   5.480   6.126   4.744
 4043TIP3    H212073   5.345   6.084   4.690
 4044TIP3   OH212074   2.912   2.266   3.237
 4044TIP3    H112075   2.930   2.319   3.159
 4044TIP3    H212076   2.832   2.304   3.274
 4045TIP3   OH212077   7.335   6.188   1.001
 4045TIP3    H112078   7.407   6.241   1.034
 4045TIP3    H212079   7.256   6.237   1.026
 4046TIP3   OH212080   2.248   7.489   3.296
 4046TIP3    H112081   2.229   7.504   3.203
 4046TIP3    H212082   2.319   7.425   3.295
 4047TIP3   OH212083   0.706   3.551   3.342
 4047TIP3    H112084   0.649   3.497   3.288
 4047TIP3    H212085   0.654   3.572   3.419
 4048TIP3   OH212086   4.289   1.305   1.280
 4048TIP3    H112087   4.242   1.370   1.333
 4048TIP3    H212088   4.232   1.292   1.204
 4049TIP3   OH212089   7.990   2.912   2.109
 4049TIP3    H112090   8.011   2.872   2.193
 4049TIP3    H212091   7.905   2.875   2.085
 4050TIP3   OH212092   1.936   4.212   3.675
 4050TIP3    H112093   1.885   4.231   3.596
 4050TIP3    H212094   1.989   4.135   3.651
 4051TIP3   OH212095   6.882   0.570   5.657
 4051TIP3    H112096   6.971   0.567   5.621
 4051TIP3    H212097   6.835   0.630   5.599
 4052TIP3   OH212098   7.564   4.687   1.416
 4052TIP3    H112099   7.564   4.743   1.494
 4052TIP3    H212100   7.585   4.600   1.449
 4053TIP3   OH212101   4.193   5.561   0.501
 4053TIP3    H112102   4.122   5.524   0.449
 4053TIP3    H212103   4.235   5.624   0.443
 4054TIP3   OH212104   1.327   7.789   6.662
 4054TIP3    H112105   1.398   7.849   6.683
 4054TIP3    H212106   1.360   7.702   6.684
 4055TIP3   OH212107   5.312   0.576   0.456
 4055TIP3    H112108   5.259   0.591   0.377
 4055TIP3    H212109   5.281   0.641   0.518
 4056TIP3   OH212110   3.268   3.658   5.068
 4056TIP3    H112111   3.266   3.737   5.013
 4056TIP3    H212112   3.210   3.597   5.024
 4057TIP3   OH212113   3.744   4.111   5.490
 4057TIP3    H112114   3.721   4.138   5.401
 4057TIP3    H212115   3.816   4.169   5.514
 4058TIP3   OH212116   1.167   7.617   1.555
 4058TIP3    H112117   1.116   7.693   1.582
 4058TIP3    H212118   1.152   7.609   1.461
 4059TIP3   OH212119   3.292   3.436   4.388
 4059TIP3    H112120   3.367   3.408   4.336
 4059TIP3    H212121   3.261   3.516   4.345
 4060TIP3   OH212122   4.828   4.420   1.935
 4060TIP3    H112123   4.886   4.452   1.866
 4060TIP3    H212124   4.784   4.498   1.967
 4061TIP3   OH212125   0.785   0.490   4.539
 4061TIP3    H112126   0.831   0.536   4.469
 4061TIP3    H212127   0.747   0.414   4.496
 4062TIP3   OH212128   2.983   6.411   3.848
 4062TIP3    H112129   2.941   6.345   3.792
 4062TIP3    H212130   3.060   6.366   3.883
 4063TIP3   OH212131   3.809   5.310   5.890
 4063TIP3    H112132   3.844   5.340   5.975
 4063TIP3    H212133   3.782   5.220   5.906
 4064TIP3   OH212134   7.759   4.583   6.725
 4064TIP3    H112135   7.719   4.658   6.681
 4064TIP3    H212136   7.818   4.545   6.660
 4065TIP3   OH212137   8.209   1.803   3.800
 4065TIP3    H112138   8.281   1.834   3.746
 4065TIP3    H212139   8.132   1.810   3.743
 4066TIP3   OH212140   6.156   1.898   1.939
 4066TIP3    H112141   6.174   1.919   2.030
 4066TIP3    H212142   6.241   1.874   1.902
 4067TIP3   OH212143   0.845   5.203   6.159
 4067TIP3    H112144   0.784   5.214   6.086
 4067TIP3    H212145   0.883   5.290   6.172
 4068TIP3   OH212146   5.586   6.407   6.437
 4068TIP3    H112147   5.614   6.477   6.497
 4068TIP3    H212148   5.533   6.349   6.491
 4069TIP3   OH212149   2.587   0.954   1.891
 4069TIP3    H112150   2.662   0.965   1.832
 4069TIP3    H212151   2.625   0.958   1.979
 4070TIP3   OH212152   8.095   4.932   5.282
 4070TIP3    H112153   8.115   4.839   5.292
 4070TIP3    H212154   8.097   4.966   5.372
 4071TIP3   OH212155   6.537   4.622   0.265
 4071TIP3    H112156   6.571   4.534   0.279
 4071TIP3    H212157   6.520   4.656   0.353
 4072TIP3   OH212158   8.091   3.202   3.275
 4072TIP3    H112159   8.129   3.255   3.346
 4072TIP3    H212160   8.121   3.244   3.195
 4073TIP3   OH212161   4.011   4.454   4.427
 4073TIP3    H112162   3.980   4.456   4.517
 4073TIP3    H212163   4.103   4.481   4.433
 4074TIP3   OH212164   0.285   6.258   3.555
 4074TIP3    H112165   0.342   6.324   3.595
 4074TIP3    H212166   0.231   6.306   3.493
 4075TIP3   OH212167   3.272   7.457   6.148
 4075TIP3    H112168   3.264   7.362   6.156
 4075TIP3    H212169   3.301   7.472   6.058
 4076TIP3   OH212170   4.820   2.125   5.081
 4076TIP3    H112171   4.859   2.127   4.993
 4076TIP3    H212172   4.849   2.206   5.122
 4077TIP3   OH212173   1.171   2.622   0.129
 4077TIP3    H112174   1.169   2.636   0.224
 4077TIP3    H212175   1.079   2.610   0.105
 4078TIP3   OH212176   5.691   4.698   6.601
 4078TIP3    H112177   5.695   4.731   6.511
 4078TIP3    H212178   5.687   4.777   6.655
 4079TIP3   OH212179   5.290   5.280   4.284
 4079TIP3    H112180   5.310   5.325   4.366
 4079TIP3    H212181   5.330   5.334   4.216
 4080TIP3   OH212182   2.134   4.756   2.642
 4080TIP3    H112183   2.169   4.719   2.723
 4080TIP3    H212184   2.184   4.837   2.629
 4081TIP3   OH212185   0.606   0.962   0.382
 4081TIP3    H112186   0.618   1.057   0.377
 4081TIP3    H212187   0.512   0.949   0.387
 4082TIP3   OH212188   2.999   4.030   5.077
 4082TIP3    H112189   3.054   4.087   5.024
 4082TIP3    H212190   3.026   4.047   5.168
 4083TIP3   OH212191   4.935   1.573   6.474
 4083TIP3    H112192   5.022   1.535   6.465
 4083TIP3    H212193   4.890   1.551   6.393
 4084TIP3   OH212194   0.142   2.022   1.228
 4084TIP3    H112195   0.149   2.063   1.141
 4084TIP3    H212196   0.230   1.993   1.248
 4085TIP3   OH212197   1.465   3.823   6.673
 4085TIP3    H112198   1.422   3.901   6.708
 4085TIP3    H212199   1.442   3.824   6.580
 4086TIP3   OH212200   6.163   0.916   2.178
 4086TIP3    H112201   6.141   0.829   2.147
 4086TIP3    H212202   6.252   0.932   2.148
 4087TIP3   OH212203   2.858   1.210   2.385
 4087TIP3    H112204   2.851   1.252   2.300
 4087TIP3    H212205   2.913   1.269   2.437
 4088TIP3   OH212206   7.452   2.486   1.071
 4088TIP3    H112207   7.416   2.487   0.982
 4088TIP3    H212208   7.387   2.534   1.124
 4089TIP3   OH212209   4.798   4.191   6.649
 4089TIP3    H112210   4.733   4.195   6.719
 4089TIP3    H212211   4.749   4.208   6.569
 4090TIP3   OH212212   7.500   3.444   5.000
 4090TIP3    H112213   7.555   3.477   4.929
 4090TIP3    H212214   7.498   3.516   5.063
 4091TIP3   OH212215   1.347   0.436   5.246
 4091TIP3    H112216   1.276   0.491   5.214
 4091TIP3    H212217   1.332   0.351   5.206
 4092TIP3   OH212218   5.191   0.194   3.779
 4092TIP3    H112219   5.269   0.165   3.827
 4092TIP3    H212220   5.137   0.115   3.772
 4093TIP3   OH212221   8.027   7.582   0.933
 4093TIP3    H112222   8.056   7.509   0.987
 4093TIP3    H212223   7.993   7.646   0.996
 4094TIP3   OH212224   4.275   2.464   2.996
 4094TIP3    H112225   4.293   2.505   2.912
 4094TIP3    H212226   4.289   2.534   3.060
 4095TIP3   OH212227   0.066   6.743   6.497
 4095TIP3    H112228   0.155   6.710   6.513
 4095TIP3    H212229   0.067   6.833   6.529
 4096TIP3   OH212230   2.450   7.333   1.702
 4096TIP3    H112231   2.452   7.283   1.784
 4096TIP3    H212232   2.381   7.291   1.651
 4097TIP3   OH212233   6.812   2.637   6.478
 4097TIP3    H112234   6.742   2.576   6.501
 4097TIP3    H212235   6.847   2.667   6.562
 4098TIP3   OH212236   8.028   4.291   1.989
 4098TIP3    H112237   8.007   4.357   1.924
 4098TIP3    H212238   8.100   4.329   2.040
 4099TIP3   OH212239   6.556   4.754   4.992
 4099TIP3    H112240   6.550   4.771   4.898
 4099TIP3    H212241   6.470   4.717   5.015
 4100TIP3   OH212242   7.691   5.572   1.919
 4100TIP3    H112243   7.769   5.557   1.866
 4100TIP3    H212244   7.717   5.638   1.983
 4101TIP3   OH212245   7.015   6.185   6.094
 4101TIP3    H112246   6.957   6.151   6.025
 4101TIP3    H212247   7.061   6.108   6.127
 4102TIP3   OH212248   3.220   6.884   4.104
 4102TIP3    H112249   3.175   6.847   4.180
 4102TIP3    H212250   3.257   6.808   4.059
 4103TIP3   OH212251   4.029   5.018   3.884
 4103TIP3    H112252   4.108   4.971   3.910
 4103TIP3    H212253   3.959   4.978   3.935
 4104TIP3   OH212254   7.008   1.885   1.837
 4104TIP3    H112255   6.934   1.874   1.896
 4104TIP3    H212256   6.971   1.929   1.760
 4105TIP3   OH212257   3.675   1.284   0.172
 4105TIP3    H112258   3.599   1.324   0.214
 4105TIP3    H212259   3.745   1.350   0.180
 4106TIP3   OH212260   2.401   1.046   2.541
 4106TIP3    H112261   2.375   1.124   2.493
 4106TIP3    H212262   2.422   1.078   2.629
 4107TIP3   OH212263   6.384   5.173   3.423
 4107TIP3    H112264   6.372   5.115   3.348
 4107TIP3    H212265   6.311   5.234   3.418
 4108TIP3   OH212266   6.407   3.490   2.710
 4108TIP3    H112267   6.481   3.491   2.649
 4108TIP3    H212268   6.437   3.435   2.782
 4109TIP3   OH212269   7.689   3.235   2.027
 4109TIP3    H112270   7.684   3.248   2.121
 4109TIP3    H212271   7.672   3.322   1.990
 4110TIP3   OH212272   6.026   0.475   0.809
 4110TIP3    H112273   6.027   0.387   0.847
 4110TIP3    H212274   5.959   0.522   0.859
 4111TIP3   OH212275   7.801   2.200   1.542
 4111TIP3    H112276   7.861   2.221   1.470
 4111TIP3    H212277   7.827   2.259   1.613
 4112TIP3   OH212278   3.840   4.866   4.052
 4112TIP3    H112279   3.801   4.778   4.054
 4112TIP3    H212280   3.765   4.924   4.040
 4113TIP3   OH212281   2.004   5.861   2.069
 4113TIP3    H112282   1.997   5.956   2.064
 4113TIP3    H212283   1.972   5.839   2.157
 4114TIP3   OH212284   6.598   0.953   5.508
 4114TIP3    H112285   6.513   0.959   5.550
 4114TIP3    H212286   6.585   0.987   5.420
 4115TIP3   OH212287   2.748   0.996   1.663
 4115TIP3    H112288   2.787   1.071   1.707
 4115TIP3    H212289   2.712   1.031   1.582
 4116TIP3   OH212290   1.833   2.507   0.491
 4116TIP3    H112291   1.810   2.583   0.545
 4116TIP3    H212292   1.760   2.447   0.502
 4117TIP3   OH212293   7.730   1.364   1.043
 4117TIP3    H112294   7.741   1.352   1.137
 4117TIP3    H212295   7.686   1.284   1.014
 4118TIP3   OH212296   4.387   1.626   4.196
 4118TIP3    H112297   4.380   1.697   4.132
 4118TIP3    H212298   4.439   1.559   4.151
 4119TIP3   OH212299   1.305   5.989   6.563
 4119TIP3    H112300   1.365   6.052   6.602
 4119TIP3    H212301   1.219   6.013   6.599
 4120TIP3   OH212302   3.860   2.696   3.940
 4120TIP3    H112303   3.783   2.657   3.981
 4120TIP3    H212304   3.825   2.755   3.873
 4121TIP3   OH212305   4.329   5.347   2.225
 4121TIP3    H112306   4.285   5.263   2.214
 4121TIP3    H212307   4.389   5.333   2.299
 4122TIP3   OH212308   0.537   7.424   3.563
 4122TIP3    H112309   0.482   7.359   3.519
 4122TIP3    H212310   0.487   7.505   3.559
 4123TIP3   OH212311   1.979   7.064   5.731
 4123TIP3    H112312   1.912   6.996   5.728
 4123TIP3    H212313   1.985   7.095   5.640
 4124TIP3   OH212314   3.597   1.334   2.097
 4124TIP3    H112315   3.646   1.358   2.018
 4124TIP3    H212316   3.505   1.347   2.073
 4125TIP3   OH212317   8.046   0.574   4.613
 4125TIP3    H112318   8.084   0.662   4.603
 4125TIP3    H212319   8.087   0.539   4.692
 4126TIP3   OH212320   0.511   7.191   0.968
 4126TIP3    H112321   0.429   7.148   0.989
 4126TIP3    H212322   0.571   7.120   0.944
 4127TIP3   OH212323   3.719   3.470   4.062
 4127TIP3    H112324   3.751   3.443   3.976
 4127TIP3    H212325   3.636   3.423   4.072
 4128TIP3   OH212326   6.502   2.404   4.741
 4128TIP3    H112327   6.513   2.309   4.741
 4128TIP3    H212328   6.475   2.426   4.652
 4129TIP3   OH212329   4.171   3.088   6.503
 4129TIP3    H112330   4.191   3.170   6.458
 4129TIP3    H212331   4.215   3.095   6.587
 4130TIP3   OH212332   6.343   5.480   5.385
 4130TIP3    H112333   6.258   5.514   5.358
 4130TIP3    H212334   6.329   5.450   5.475
 4131TIP3   OH212335   6.333   3.854   5.298
 4131TIP3    H112336   6.356   3.930   5.352
 4131TIP3    H212337   6.329   3.888   5.209
 4132TIP3   OH212338   1.671   7.276   1.763
 4132TIP3    H112339   1.690   7.272   1.669
 4132TIP3    H212340   1.650   7.185   1.786
 4133TIP3   OH212341   6.215   6.947   6.089
 4133TIP3    H112342   6.303   6.910   6.100
 4133TIP3    H212343   6.164   6.908   6.160
 4134TIP3   OH212344   1.115   0.559   3.051
 4134TIP3    H112345   1.034   0.508   3.056
 4134TIP3    H212346   1.185   0.494   3.061
 4135TIP3   OH212347   1.149   7.109   3.047
 4135TIP3    H112348   1.196   7.191   3.060
 4135TIP3    H212349   1.060   7.127   3.076
 4136TIP3   OH212350   5.235   7.720   4.262
 4136TIP3    H112351   5.298   7.672   4.208
 4136TIP3    H212352   5.158   7.729   4.206
 4137TIP3   OH212353   0.327   3.070   2.956
 4137TIP3    H112354   0.416   3.055   2.924
 4137TIP3    H212355   0.335   3.067   3.051
 4138TIP3   OH212356   3.551   0.682   3.530
 4138TIP3    H112357   3.608   0.650   3.460
 4138TIP3    H212358   3.542   0.776   3.512
 4139TIP3   OH212359   8.131   6.687   1.194
 4139TIP3    H112360   8.048   6.687   1.242
 4139TIP3    H212361   8.128   6.607   1.142
 4140TIP3   OH212362   6.454   1.527   5.611
 4140TIP3    H112363   6.447   1.433   5.591
 4140TIP3    H212364   6.548   1.546   5.607
 4141TIP3   OH212365   3.659   3.567   0.678
 4141TIP3    H112366   3.708   3.488   0.699
 4141TIP3    H212367   3.612   3.589   0.759
 4142TIP3   OH212368   7.778   5.279   2.017
 4142TIP3    H112369   7.745   5.350   1.962
 4142TIP3    H212370   7.755   5.304   2.106
 4143TIP3   OH212371   1.511   0.936   0.635
 4143TIP3    H112372   1.529   1.008   0.695
 4143TIP3    H212373   1.597   0.909   0.603
 4144TIP3   OH212374   2.380   0.993   4.362
 4144TIP3    H112375   2.474   1.012   4.363
 4144TIP3    H212376   2.355   0.999   4.270
 4145TIP3   OH212377   7.178   2.371   1.250
 4145TIP3    H112378   7.221   2.324   1.178
 4145TIP3    H212379   7.208   2.326   1.329
 4146TIP3   OH212380   7.833   3.926   0.410
 4146TIP3    H112381   7.831   3.879   0.494
 4146TIP3    H212382   7.799   3.863   0.347
 4147TIP3   OH212383   0.387   6.591   1.465
 4147TIP3    H112384   0.382   6.615   1.373
 4147TIP3    H212385   0.313   6.635   1.507
 4148TIP3   OH212386   0.347   1.905   0.048
 4148TIP3    H112387   0.273   1.862   0.005
 4148TIP3    H212388   0.423   1.853   0.022
 4149TIP3   OH212389   4.708   5.143   0.816
 4149TIP3    H112390   4.732   5.205   0.884
 4149TIP3    H212391   4.626   5.105   0.847
 4150TIP3   OH212392   3.077   4.696   6.453
 4150TIP3    H112393   3.081   4.664   6.362
 4150TIP3    H212394   3.011   4.764   6.451
 4151TIP3   OH212395   7.942   3.943   5.429
 4151TIP3    H112396   7.974   3.929   5.340
 4151TIP3    H212397   7.885   4.020   5.421
 4152TIP3   OH212398   2.120   1.490   1.162
 4152TIP3    H112399   2.085   1.577   1.145
 4152TIP3    H212400   2.179   1.473   1.088
 4153TIP3   OH212401   5.361   7.396   2.450
 4153TIP3    H112402   5.414   7.351   2.515
 4153TIP3    H212403   5.314   7.325   2.404
 4154TIP3   OH212404   2.103   2.215   0.308
 4154TIP3    H112405   2.066   2.126   0.308
 4154TIP3    H212406   2.036   2.268   0.353
 4155TIP3   OH212407   6.842   4.621   6.160
 4155TIP3    H112408   6.902   4.549   6.143
 4155TIP3    H212409   6.818   4.653   6.073
 4156TIP3   OH212410   3.788   1.506   1.929
 4156TIP3    H112411   3.833   1.582   1.892
 4156TIP3    H212412   3.793   1.439   1.861
 4157TIP3   OH212413   3.185   0.315   5.316
 4157TIP3    H112414   3.207   0.266   5.396
 4157TIP3    H212415   3.130   0.387   5.347
 4158TIP3   OH212416   3.243   3.259   1.587
 4158TIP3    H112417   3.293   3.181   1.560
 4158TIP3    H212418   3.310   3.327   1.598
 4159TIP3   OH212419   7.924   0.818   5.480
 4159TIP3    H112420   7.901   0.907   5.510
 4159TIP3    H212421   7.978   0.783   5.551
 4160TIP3   OH212422   6.284   1.004   3.594
 4160TIP3    H112423   6.347   1.033   3.660
 4160TIP3    H212424   6.338   0.971   3.523
 4161TIP3   OH212425   5.197   5.630   4.078
 4161TIP3    H112426   5.124   5.680   4.114
 4161TIP3    H212427   5.156   5.558   4.030
 4162TIP3   OH212428   4.014   1.981   3.944
 4162TIP3    H112429   4.033   1.929   3.866
 4162TIP3    H212430   4.059   2.064   3.930
 4163TIP3   OH212431   2.236   3.402   1.418
 4163TIP3    H112432   2.297   3.427   1.487
 4163TIP3    H212433   2.243   3.307   1.412
 4164TIP3   OH212434   7.747   5.067   4.860
 4164TIP3    H112435   7.774   5.022   4.779
 4164TIP3    H212436   7.809   5.037   4.926
 4165TIP3   OH212437   5.413   0.732   5.596
 4165TIP3    H112438   5.390   0.640   5.589
 4165TIP3    H212439   5.504   0.737   5.565
 4166TIP3   OH212440   4.601   2.450   6.200
 4166TIP3    H112441   4.690   2.461   6.169
 4166TIP3    H212442   4.551   2.518   6.155
 4167TIP3   OH212443   0.336   1.675   3.563
 4167TIP3    H112444   0.432   1.669   3.561
 4167TIP3    H212445   0.319   1.758   3.608
 4168TIP3   OH212446   8.017   2.133   6.667
 4168TIP3    H112447   7.977   2.049   6.644
 4168TIP3    H212448   7.945   2.183   6.706
 4169TIP3   OH212449   0.409   5.464   4.390
 4169TIP3    H112450   0.486   5.462   4.447
 4169TIP3    H212451   0.419   5.387   4.335
 4170TIP3   OH212452   6.400   2.766   2.690
 4170TIP3    H112453   6.467   2.733   2.750
 4170TIP3    H212454   6.363   2.842   2.735
 4171TIP3   OH212455   5.979   1.284   3.776
 4171TIP3    H112456   5.896   1.322   3.747
 4171TIP3    H212457   5.997   1.215   3.712
 4172TIP3   OH212458   7.753   3.653   5.161
 4172TIP3    H112459   7.773   3.562   5.141
 4172TIP3    H212460   7.741   3.694   5.075
 4173TIP3   OH212461   0.646   1.799   4.909
 4173TIP3    H112462   0.632   1.790   5.003
 4173TIP3    H212463   0.741   1.789   4.898
 4174TIP3   OH212464   1.511   5.365   4.188
 4174TIP3    H112465   1.503   5.432   4.256
 4174TIP3    H212466   1.515   5.415   4.106
 4175TIP3   OH212467   0.578   6.424   1.403
 4175TIP3    H112468   0.608   6.465   1.322
 4175TIP3    H212469   0.498   6.472   1.426
 4176TIP3   OH212470   1.851   6.701   0.692
 4176TIP3    H112471   1.947   6.703   0.689
 4176TIP3    H212472   1.831   6.620   0.738
 4177TIP3   OH212473   0.048   5.411   3.495
 4177TIP3    H112474   0.025   5.374   3.410
 4177TIP3    H212475   0.074   5.501   3.476
 4178TIP3   OH212476   2.911   5.234   2.407
 4178TIP3    H112477   2.921   5.321   2.445
 4178TIP3    H212478   2.975   5.180   2.453
 4179TIP3   OH212479   1.219   3.058   2.390
 4179TIP3    H112480   1.305   3.017   2.384
 4179TIP3    H212481   1.227   3.138   2.338
 4180TIP3   OH212482   0.315   4.208   2.840
 4180TIP3    H112483   0.350   4.120   2.828
 4180TIP3    H212484   0.373   4.249   2.905
 4181TIP3   OH212485   7.847   6.360   1.672
 4181TIP3    H112486   7.780   6.364   1.604
 4181TIP3    H212487   7.883   6.272   1.664
 4182TIP3   OH212488   4.726   6.363   3.023
 4182TIP3    H112489   4.637   6.332   3.004
 4182TIP3    H212490   4.783   6.291   2.996
 4183TIP3   OH212491   7.411   5.552   3.812
 4183TIP3    H112492   7.455   5.491   3.871
 4183TIP3    H212493   7.460   5.634   3.820
 4184TIP3   OH212494   6.760   2.965   1.004
 4184TIP3    H112495   6.710   3.041   0.974
 4184TIP3    H212496   6.698   2.916   1.058
 4185TIP3   OH212497   0.315   4.514   2.029
 4185TIP3    H112498   0.223   4.492   2.012
 4185TIP3    H212499   0.338   4.576   1.960
 4186TIP3   OH212500   3.198   7.149   6.392
 4186TIP3    H112501   3.162   7.238   6.392
 4186TIP3    H212502   3.262   7.149   6.464
 4187TIP3   OH212503   3.118   6.020   3.543
 4187TIP3    H112504   3.145   6.070   3.620
 4187TIP3    H212505   3.109   5.930   3.574
 4188TIP3   OH212506   5.193   5.137   3.964
 4188TIP3    H112507   5.266   5.116   4.021
 4188TIP3    H212508   5.209   5.228   3.937
 4189TIP3   OH212509   3.285   2.436   4.009
 4189TIP3    H112510   3.304   2.514   3.957
 4189TIP3    H212511   3.297   2.464   4.100
 4190TIP3   OH212512   6.350   0.078   1.645
 4190TIP3    H112513   6.281   0.026   1.604
 4190TIP3    H212514   6.319   0.094   1.734
 4191TIP3   OH212515   7.874   4.422   2.300
 4191TIP3    H112516   7.907   4.344   2.257
 4191TIP3    H212517   7.896   4.494   2.241
 4192TIP3   OH212518   3.893   3.537   1.979
 4192TIP3    H112519   3.803   3.564   1.995
 4192TIP3    H212520   3.945   3.615   1.999
 4193TIP3   OH212521   4.163   4.467   0.288
 4193TIP3    H112522   4.169   4.527   0.362
 4193TIP3    H212523   4.244   4.416   0.290
 4194TIP3   OH212524   1.843   0.494   6.525
 4194TIP3    H112525   1.780   0.510   6.454
 4194TIP3    H212526   1.884   0.410   6.503
 4195TIP3   OH212527   3.531   0.935   0.238
 4195TIP3    H112528   3.570   1.004   0.292
 4195TIP3    H212529   3.451   0.910   0.285
 4196TIP3   OH212530   0.944   0.223   0.334
 4196TIP3    H112531   0.947   0.128   0.350
 4196TIP3    H212532   0.858   0.238   0.294
 4197TIP3   OH212533   5.044   0.275   5.990
 4197TIP3    H112534   5.011   0.360   6.021
 4197TIP3    H212535   5.117   0.255   6.048
 4198TIP3   OH212536   3.328   3.770   1.992
 4198TIP3    H112537   3.304   3.839   1.929
 4198TIP3    H212538   3.320   3.689   1.942
 4199TIP3   OH212539   3.355   0.591   3.086
 4199TIP3    H112540   3.331   0.535   3.160
 4199TIP3    H212541   3.444   0.563   3.062
 4200TIP3   OH212542   0.888   4.114   5.923
 4200TIP3    H112543   0.800   4.148   5.907
 4200TIP3    H212544   0.907   4.060   5.846
 4201TIP3   OH212545   5.465   1.441   6.563
 4201TIP3    H112546   5.535   1.396   6.609
 4201TIP3    H212547   5.415   1.484   6.632
 4202TIP3   OH212548   1.190   1.307   1.099
 4202TIP3    H112549   1.097   1.300   1.077
 4202TIP3    H212550   1.196   1.276   1.189
 4203TIP3   OH212551   4.892   7.627   1.340
 4203TIP3    H112552   4.914   7.585   1.422
 4203TIP3    H212553   4.949   7.704   1.336
 4204TIP3   OH212554   0.644   2.023   1.982
 4204TIP3    H112555   0.560   2.020   2.027
 4204TIP3    H212556   0.704   1.976   2.039
 4205TIP3   OH212557   3.922   4.640   0.868
 4205TIP3    H112558   3.835   4.601   0.870
 4205TIP3    H212559   3.972   4.585   0.807
 4206TIP3   OH212560   6.445   4.965   4.070
 4206TIP3    H112561   6.451   5.029   4.141
 4206TIP3    H212562   6.360   4.982   4.030
 4207TIP3   OH212563   7.670   4.973   0.281
 4207TIP3    H112564   7.656   5.017   0.365
 4207TIP3    H212565   7.597   5.001   0.226
 4208TIP3   OH212566   2.332   5.024   1.581
 4208TIP3    H112567   2.243   5.058   1.596
 4208TIP3    H212568   2.390   5.091   1.616
 4209TIP3   OH212569   6.066   1.261   6.589
 4209TIP3    H112570   6.049   1.348   6.626
 4209TIP3    H212571   6.150   1.234   6.627
 4210TIP3   OH212572   6.094   4.640   0.907
 4210TIP3    H112573   6.016   4.689   0.934
 4210TIP3    H212574   6.166   4.681   0.955
 4211TIP3   OH212575   7.901   4.968   5.632
 4211TIP3    H112576   7.883   4.994   5.722
 4211TIP3    H212577   7.989   5.002   5.614
 4212TIP3   OH212578   8.085   6.447   5.197
 4212TIP3    H112579   8.079   6.406   5.111
 4212TIP3    H212580   8.072   6.375   5.259
 4213TIP3   OH212581   5.118   6.803   1.134
 4213TIP3    H112582   5.035   6.763   1.159
 4213TIP3    H212583   5.107   6.896   1.150
 4214TIP3   OH212584   0.858   1.824   5.376
 4214TIP3    H112585   0.821   1.755   5.319
 4214TIP3    H212586   0.947   1.794   5.395
 4215TIP3   OH212587   8.218   1.943   0.997
 4215TIP3    H112588   8.231   1.848   1.008
 4215TIP3    H212589   8.265   1.964   0.916
 4216TIP3   OH212590   0.262   1.534   0.563
 4216TIP3    H112591   0.230   1.558   0.650
 4216TIP3    H212592   0.290   1.617   0.524
 4217TIP3   OH212593   7.322   2.979   5.455
 4217TIP3    H112594   7.294   2.890   5.436
 4217TIP3    H212595   7.254   3.035   5.418
 4218TIP3   OH212596   5.201   4.818   3.277
 4218TIP3    H112597   5.222   4.834   3.369
 4218TIP3    H212598   5.236   4.893   3.231
 4219TIP3   OH212599   6.302   0.966   1.800
 4219TIP3    H112600   6.339   1.037   1.747
 4219TIP3    H212601   6.223   0.940   1.753
 4220TIP3   OH212602   5.695   5.349   0.172
 4220TIP3    H112603   5.643   5.373   0.249
 4220TIP3    H212604   5.765   5.414   0.169
 4221TIP3   OH212605   4.008   5.709   4.422
 4221TIP3    H112606   3.938   5.688   4.360
 4221TIP3    H212607   3.980   5.669   4.505
 4222TIP3   OH212608   3.483   0.262   5.895
 4222TIP3    H112609   3.479   0.240   5.802
 4222TIP3    H212610   3.481   0.178   5.940
 4223TIP3   OH212611   0.508   0.179   2.150
 4223TIP3    H112612   0.499   0.272   2.130
 4223TIP3    H212613   0.510   0.135   2.065
 4224TIP3   OH212614   4.118   5.593   5.918
 4224TIP3    H112615   4.131   5.501   5.941
 4224TIP3    H212616   4.200   5.636   5.942
 4225TIP3   OH212617   4.267   0.533   6.778
 4225TIP3    H112618   4.363   0.529   6.786
 4225TIP3    H212619   4.245   0.464   6.716
 4226TIP3   OH212620   0.991   3.540   6.367
 4226TIP3    H112621   0.957   3.452   6.384
 4226TIP3    H212622   0.921   3.599   6.396
 4227TIP3   OH212623   4.775   3.770   5.162
 4227TIP3    H112624   4.694   3.733   5.126
 4227TIP3    H212625   4.767   3.757   5.257
 4228TIP3   OH212626   6.442   7.520   3.396
 4228TIP3    H112627   6.377   7.582   3.430
 4228TIP3    H212628   6.393   7.466   3.333
 4229TIP3   OH212629   3.817   0.674   0.908
 4229TIP3    H112630   3.809   0.588   0.866
 4229TIP3    H212631   3.771   0.664   0.992
 4230TIP3   OH212632   5.231   2.652   3.892
 4230TIP3    H112633   5.264   2.619   3.808
 4230TIP3    H212634   5.205   2.742   3.873
 4231TIP3   OH212635   7.573   0.050   4.634
 4231TIP3    H112636   7.629   0.077   4.561
 4231TIP3    H212637   7.616   0.085   4.712
 4232TIP3   OH212638   1.101   1.688   2.840
 4232TIP3    H112639   1.072   1.777   2.859
 4232TIP3    H212640   1.180   1.699   2.787
 4233TIP3   OH212641   8.074   4.937   1.964
 4233TIP3    H112642   8.168   4.918   1.958
 4233TIP3    H212643   8.033   4.869   1.910
 4234TIP3   OH212644   6.684   7.681   6.146
 4234TIP3    H112645   6.748   7.718   6.086
 4234TIP3    H212646   6.599   7.708   6.110
 4235TIP3   OH212647   5.358   3.545   4.785
 4235TIP3    H112648   5.390   3.470   4.835
 4235TIP3    H212649   5.262   3.539   4.792
 4236TIP3   OH212650   3.186   6.203   6.062
 4236TIP3    H112651   3.279   6.212   6.081
 4236TIP3    H212652   3.144   6.200   6.148
 4237TIP3   OH212653   6.356   2.633   4.267
 4237TIP3    H112654   6.345   2.717   4.224
 4237TIP3    H212655   6.448   2.610   4.253
 4238TIP3   OH212656   6.275   2.372   1.894
 4238TIP3    H112657   6.183   2.393   1.909
 4238TIP3    H212658   6.315   2.381   1.981
 4239TIP3   OH212659   5.175   0.287   5.717
 4239TIP3    H112660   5.145   0.207   5.761
 4239TIP3    H212661   5.170   0.355   5.784
 4240TIP3   OH212662   0.330   6.232   4.645
 4240TIP3    H112663   0.391   6.296   4.608
 4240TIP3    H212664   0.297   6.274   4.724
 4241TIP3   OH212665   6.043   5.426   5.116
 4241TIP3    H112666   6.111   5.364   5.143
 4241TIP3    H212667   5.986   5.374   5.058
 4242TIP3   OH212668   6.297   2.656   2.454
 4242TIP3    H112669   6.313   2.714   2.528
 4242TIP3    H212670   6.218   2.692   2.412
 4243TIP3   OH212671   1.855   3.489   0.667
 4243TIP3    H112672   1.840   3.484   0.573
 4243TIP3    H212673   1.793   3.426   0.705
 4244TIP3   OH212674   8.132   5.334   0.610
 4244TIP3    H112675   8.126   5.384   0.529
 4244TIP3    H212676   8.173   5.251   0.584
 4245TIP3   OH212677   7.672   6.968   2.708
 4245TIP3    H112678   7.767   6.966   2.702
 4245TIP3    H212679   7.642   6.925   2.628
 4246TIP3   OH212680   7.739   2.713   6.739
 4246TIP3    H112681   7.761   2.622   6.721
 4246TIP3    H212682   7.709   2.748   6.655
 4247TIP3   OH212683   7.593   0.832   1.701
 4247TIP3    H112684   7.624   0.919   1.675
 4247TIP3    H212685   7.650   0.807   1.774
 4248TIP3   OH212686   4.553   3.736   1.540
 4248TIP3    H112687   4.560   3.817   1.589
 4248TIP3    H212688   4.534   3.669   1.605
 4249TIP3   OH212689   4.155   1.513   0.522
 4249TIP3    H112690   4.067   1.491   0.490
 4249TIP3    H212691   4.213   1.486   0.451
 4250TIP3   OH212692   1.724   4.159   1.040
 4250TIP3    H112693   1.691   4.234   1.089
 4250TIP3    H212694   1.795   4.124   1.094
 4251TIP3   OH212695   0.583   3.252   6.591
 4251TIP3    H112696   0.574   3.343   6.620
 4251TIP3    H212697   0.511   3.239   6.530
 4252TIP3   OH212698   1.411   5.407   5.068
 4252TIP3    H112699   1.456   5.325   5.089
 4252TIP3    H212700   1.472   5.454   5.011
 4253TIP3   OH212701   4.714   4.029   2.305
 4253TIP3    H112702   4.685   3.953   2.254
 4253TIP3    H212703   4.712   4.102   2.243
 4254TIP3   OH212704   5.406   6.526   3.022
 4254TIP3    H112705   5.492   6.556   2.993
 4254TIP3    H212706   5.422   6.490   3.110
 4255TIP3   OH212707   6.836   5.792   6.471
 4255TIP3    H112708   6.758   5.847   6.462
 4255TIP3    H212709   6.802   5.708   6.501
 4256TIP3   OH212710   0.470   1.691   3.029
 4256TIP3    H112711   0.388   1.649   3.053
 4256TIP3    H212712   0.530   1.618   3.011
 4257TIP3   OH212713   2.106   7.338   3.076
 4257TIP3    H112714   2.125   7.276   3.147
 4257TIP3    H212715   2.012   7.329   3.061
 4258TIP3   OH212716   8.270   1.114   0.382
 4258TIP3    H112717   8.268   1.153   0.295
 4258TIP3    H212718   8.306   1.182   0.439
 4259TIP3   OH212719   4.326   4.648   4.958
 4259TIP3    H112720   4.399   4.655   5.019
 4259TIP3    H212721   4.345   4.568   4.908
 4260TIP3   OH212722   6.299   7.743   2.065
 4260TIP3    H112723   6.270   7.806   1.999
 4260TIP3    H212724   6.391   7.727   2.045
 4261TIP3   OH212725   0.203   5.999   1.585
 4261TIP3    H112726   0.157   6.080   1.608
 4261TIP3    H212727   0.134   5.933   1.578
 4262TIP3   OH212728   0.473   6.960   1.739
 4262TIP3    H112729   0.468   7.043   1.785
 4262TIP3    H212730   0.397   6.961   1.680
 4263TIP3   OH212731   4.057   1.049   6.534
 4263TIP3    H112732   4.146   1.017   6.547
 4263TIP3    H212733   4.068   1.137   6.497
 4264TIP3   OH212734   6.453   7.413   5.985
 4264TIP3    H112735   6.513   7.383   5.916
 4264TIP3    H212736   6.423   7.499   5.955
 4265TIP3   OH212737   1.412   4.735   3.260
 4265TIP3    H112738   1.441   4.801   3.323
 4265TIP3    H212739   1.481   4.735   3.193
 4266TIP3   OH212740   1.445   4.091   5.759
 4266TIP3    H112741   1.495   4.053   5.832
 4266TIP3    H212742   1.396   4.017   5.723
 4267TIP3   OH212743   0.513   7.661   1.835
 4267TIP3    H112744   0.457   7.585   1.824
 4267TIP3    H212745   0.565   7.665   1.754
 4268TIP3   OH212746   5.045   2.790   4.230
 4268TIP3    H112747   5.084   2.702   4.228
 4268TIP3    H212748   5.051   2.817   4.322
 4269TIP3   OH212749   0.792   0.451   3.547
 4269TIP3    H112750   0.796   0.488   3.458
 4269TIP3    H212751   0.862   0.494   3.594
 4270TIP3   OH212752   1.288   4.327   4.735
 4270TIP3    H112753   1.319   4.243   4.766
 4270TIP3    H212754   1.294   4.322   4.640
 4271TIP3   OH212755   0.360   7.507   5.335
 4271TIP3    H112756   0.355   7.487   5.429
 4271TIP3    H212757   0.346   7.423   5.292
 4272TIP3   OH212758   4.970   5.449   2.698
 4272TIP3    H112759   5.010   5.397   2.628
 4272TIP3    H212760   5.027   5.525   2.708
 4273TIP3   OH212761   5.443   0.981   2.528
 4273TIP3    H112762   5.507   0.953   2.462
 4273TIP3    H212763   5.385   1.041   2.481
 4274TIP3   OH212764   4.778   5.138   5.982
 4274TIP3    H112765   4.843   5.116   5.916
 4274TIP3    H212766   4.825   5.189   6.047
 4275TIP3   OH212767   2.938   3.651   2.016
 4275TIP3    H112768   2.981   3.665   1.931
 4275TIP3    H212769   2.914   3.558   2.015
 4276TIP3   OH212770   2.925   3.009   4.630
 4276TIP3    H112771   2.925   3.093   4.677
 4276TIP3    H212772   2.978   3.025   4.552
 4277TIP3   OH212773   8.139   6.064   6.740
 4277TIP3    H112774   8.203   5.993   6.752
 4277TIP3    H212775   8.066   6.023   6.693
 4278TIP3   OH212776   1.626   7.451   0.045
 4278TIP3    H112777   1.632   7.540   0.009
 4278TIP3    H212778   1.541   7.449   0.089
 4279TIP3   OH212779   4.281   3.851   6.346
 4279TIP3    H112780   4.326   3.929   6.312
 4279TIP3    H212781   4.302   3.782   6.283
 4280TIP3   OH212782   8.176   4.673   3.779
 4280TIP3    H112783   8.251   4.730   3.762
 4280TIP3    H212784   8.141   4.655   3.692
 4281TIP3   OH212785   8.074   3.426   3.005
 4281TIP3    H112786   8.082   3.455   3.097
 4281TIP3    H212787   8.099   3.503   2.954
 4282TIP3   OH212788   1.535   6.203   6.437
 4282TIP3    H112789   1.602   6.247   6.489
 4282TIP3    H212790   1.577   6.184   6.354
 4283TIP3   OH212791   0.162   6.702   1.006
 4283TIP3    H112792   0.207   6.760   0.945
 4283TIP3    H212793   0.110   6.761   1.060
 4284TIP3   OH212794   1.922   6.595   3.903
 4284TIP3    H112795   1.933   6.503   3.927
 4284TIP3    H212796   2.008   6.634   3.918
 4285TIP3   OH212797   5.611   7.378   5.382
 4285TIP3    H112798   5.571   7.463   5.400
 4285TIP3    H212799   5.684   7.373   5.444
 4286TIP3   OH212800   5.957   3.846   1.189
 4286TIP3    H112801   5.928   3.800   1.268
 4286TIP3    H212802   6.053   3.844   1.194
 4287TIP3   OH212803   4.833   0.316   3.681
 4287TIP3    H112804   4.789   0.289   3.761
 4287TIP3    H212805   4.843   0.235   3.631
 4288TIP3   OH212806   5.382   5.231   0.029
 4288TIP3    H112807   5.436   5.178  -0.030
 4288TIP3    H212808   5.399   5.322   0.002
 4289TIP3   OH212809   1.299   2.843   3.820
 4289TIP3    H112810   1.335   2.767   3.776
 4289TIP3    H212811   1.243   2.807   3.888
 4290TIP3   OH212812   6.276   1.272   3.349
 4290TIP3    H112813   6.354   1.227   3.319
 4290TIP3    H212814   6.203   1.218   3.317
 4291TIP3   OH212815   1.508   2.064   0.570
 4291TIP3    H112816   1.445   2.011   0.522
 4291TIP3    H212817   1.584   2.069   0.513
 4292TIP3   OH212818   1.628   2.460   5.194
 4292TIP3    H112819   1.645   2.408   5.116
 4292TIP3    H212820   1.549   2.510   5.173
 4293TIP3   OH212821   0.286   0.444   0.377
 4293TIP3    H112822   0.238   0.369   0.413
 4293TIP3    H212823   0.244   0.460   0.292
 4294TIP3   OH212824   1.046   1.703   0.330
 4294TIP3    H112825   1.098   1.694   0.410
 4294TIP3    H212826   0.959   1.729   0.361
 4295TIP3   OH212827   4.064   5.601   1.354
 4295TIP3    H112828   4.078   5.626   1.263
 4295TIP3    H212829   3.995   5.535   1.351
 4296TIP3   OH212830   6.533   7.111   1.270
 4296TIP3    H112831   6.576   7.101   1.355
 4296TIP3    H212832   6.603   7.140   1.211
 4297TIP3   OH212833   0.288   2.223   3.524
 4297TIP3    H112834   0.269   2.313   3.498
 4297TIP3    H212835   0.230   2.206   3.598
 4298TIP3   OH212836   0.225   0.262   2.279
 4298TIP3    H112837   0.309   0.307   2.267
 4298TIP3    H212838   0.161   0.332   2.286
 4299TIP3   OH212839   3.769   7.718   3.249
 4299TIP3    H112840   3.722   7.649   3.296
 4299TIP3    H212841   3.844   7.674   3.209
 4300TIP3   OH212842   6.006   7.561   0.271
 4300TIP3    H112843   5.955   7.608   0.337
 4300TIP3    H212844   6.088   7.539   0.315
 4301TIP3   OH212845   1.149   2.820   5.014
 4301TIP3    H112846   1.235   2.826   4.972
 4301TIP3    H212847   1.104   2.900   4.989
 4302TIP3   OH212848   2.074   7.452   0.179
 4302TIP3    H112849   2.165   7.469   0.204
 4302TIP3    H212850   2.023   7.477   0.256
 4303TIP3   OH212851   2.518   3.937   5.846
 4303TIP3    H112852   2.505   3.859   5.900
 4303TIP3    H212853   2.433   3.982   5.849
 4304TIP3   OH212854   4.617   4.004   4.594
 4304TIP3    H112855   4.618   3.954   4.676
 4304TIP3    H212856   4.538   3.974   4.549
 4305TIP3   OH212857   4.720   0.482   6.116
 4305TIP3    H112858   4.789   0.429   6.156
 4305TIP3    H212859   4.678   0.423   6.054
 4306TIP3   OH212860   3.167   4.381   3.979
 4306TIP3    H112861   3.094   4.320   3.972
 4306TIP3    H212862   3.201   4.369   4.068
 4307TIP3   OH212863   7.871   1.075   0.458
 4307TIP3    H112864   7.870   0.981   0.477
 4307TIP3    H212865   7.809   1.113   0.521
 4308TIP3   OH212866   6.207   6.368   0.094
 4308TIP3    H112867   6.161   6.412   0.165
 4308TIP3    H212868   6.138   6.327   0.042
 4309TIP3   OH212869   4.266   2.474   4.598
 4309TIP3    H112870   4.273   2.385   4.633
 4309TIP3    H212871   4.257   2.530   4.675
 4310TIP3   OH212872   3.118   3.273   3.898
 4310TIP3    H112873   3.194   3.214   3.906
 4310TIP3    H212874   3.154   3.361   3.910
 4311TIP3   OH212875   4.148   6.545   0.448
 4311TIP3    H112876   4.237   6.571   0.471
 4311TIP3    H212877   4.136   6.460   0.489
 4312TIP3   OH212878   2.541   1.948   2.246
 4312TIP3    H112879   2.466   1.911   2.200
 4312TIP3    H212880   2.593   1.872   2.272
 4313TIP3   OH212881   1.976   5.860   3.429
 4313TIP3    H112882   1.884   5.834   3.417
 4313TIP3    H212883   1.984   5.944   3.385
 4314TIP3   OH212884   0.458   6.144   3.831
 4314TIP3    H112885   0.376   6.182   3.862
 4314TIP3    H212886   0.433   6.062   3.789
 4315TIP3   OH212887   6.053   5.856   3.774
 4315TIP3    H112888   6.037   5.769   3.813
 4315TIP3    H212889   5.970   5.903   3.786
 4316TIP3   OH212890   4.478   1.523   3.814
 4316TIP3    H112891   4.495   1.435   3.779
 4316TIP3    H212892   4.487   1.513   3.908
 4317TIP3   OH212893   3.109   3.210   1.125
 4317TIP3    H112894   3.170   3.163   1.069
 4317TIP3    H212895   3.027   3.210   1.076
 4318TIP3   OH212896   0.707   2.766   4.336
 4318TIP3    H112897   0.748   2.828   4.275
 4318TIP3    H212898   0.735   2.680   4.305
 4319TIP3   OH212899   3.102   5.036   6.314
 4319TIP3    H112900   3.082   5.126   6.339
 4319TIP3    H212901   3.019   4.990   6.321
 4320TIP3   OH212902   0.928   0.230   4.960
 4320TIP3    H112903   0.932   0.192   4.872
 4320TIP3    H212904   0.855   0.292   4.957
 4321TIP3   OH212905   7.152   4.279   6.497
 4321TIP3    H112906   7.199   4.268   6.580
 4321TIP3    H212907   7.105   4.361   6.507
 4322TIP3   OH212908   1.428   1.155   1.086
 4322TIP3    H112909   1.352   1.213   1.077
 4322TIP3    H212910   1.451   1.160   1.179
 4323TIP3   OH212911   2.560   6.178   4.585
 4323TIP3    H112912   2.522   6.137   4.508
 4323TIP3    H212913   2.491   6.174   4.651
 4324TIP3   OH212914   5.247   5.326   4.932
 4324TIP3    H112915   5.277   5.278   4.855
 4324TIP3    H212916   5.157   5.352   4.910
 4325TIP3   OH212917   1.435   3.933   2.695
 4325TIP3    H112918   1.411   4.013   2.650
 4325TIP3    H212919   1.352   3.890   2.715
 4326TIP3   OH212920   4.283   0.875   2.639
 4326TIP3    H112921   4.293   0.851   2.546
 4326TIP3    H212922   4.335   0.810   2.686
 4327TIP3   OH212923   6.457   7.175   3.955
 4327TIP3    H112924   6.496   7.254   3.991
 4327TIP3    H212925   6.533   7.121   3.929
 4328TIP3   OH212926   0.631   2.366   4.913
 4328TIP3    H112927   0.541   2.390   4.892
 4328TIP3    H212928   0.628   2.335   5.003
 4329TIP3   OH212929   4.636   3.357   2.215
 4329TIP3    H112930   4.648   3.384   2.124
 4329TIP3    H212931   4.685   3.275   2.221
 4330TIP3   OH212932   8.115   6.324   6.163
 4330TIP3    H112933   8.200   6.329   6.120
 4330TIP3    H212934   8.071   6.406   6.141
 4331TIP3   OH212935   5.040   4.090   6.665
 4331TIP3    H112936   5.087   4.136   6.733
 4331TIP3    H212937   4.950   4.123   6.670
 4332TIP3   OH212938   3.096   2.713   1.203
 4332TIP3    H112939   3.071   2.747   1.289
 4332TIP3    H212940   3.086   2.619   1.211
 4333TIP3   OH212941   6.345   6.920   1.332
 4333TIP3    H112942   6.308   6.949   1.415
 4333TIP3    H212943   6.398   6.994   1.302
 4334TIP3   OH212944   5.909   0.061   2.532
 4334TIP3    H112945   5.906   0.123   2.606
 4334TIP3    H212946   5.917  -0.025   2.574
 4335TIP3   OH212947   3.504   1.334   4.866
 4335TIP3    H112948   3.444   1.287   4.808
 4335TIP3    H212949   3.582   1.349   4.814
 4336TIP3   OH212950   4.299   6.529   6.090
 4336TIP3    H112951   4.301   6.442   6.051
 4336TIP3    H212952   4.276   6.587   6.018
 4337TIP3   OH212953   5.139   0.088   2.975
 4337TIP3    H112954   5.193   0.046   2.908
 4337TIP3    H212955   5.160   0.043   3.056
 4338TIP3   OH212956   7.572   4.207   4.273
 4338TIP3    H112957   7.541   4.294   4.249
 4338TIP3    H212958   7.604   4.170   4.190
 4339TIP3   OH212959   3.172   0.820   1.347
 4339TIP3    H112960   3.086   0.832   1.388
 4339TIP3    H212961   3.151   0.791   1.258
 4340TIP3   OH212962   8.192   0.456   1.937
 4340TIP3    H112963   8.134   0.480   2.009
 4340TIP3    H212964   8.175   0.363   1.922
 4341TIP3   OH212965   4.309   5.953   2.718
 4341TIP3    H112966   4.302   5.891   2.791
 4341TIP3    H212967   4.319   5.897   2.641
 4342TIP3   OH212968   2.599   5.730   2.126
 4342TIP3    H112969   2.541   5.747   2.052
 4342TIP3    H212970   2.598   5.812   2.176
 4343TIP3   OH212971   1.570   1.456   3.514
 4343TIP3    H112972   1.564   1.468   3.608
 4343TIP3    H212973   1.479   1.456   3.484
 4344TIP3   OH212974   3.466   3.658   5.524
 4344TIP3    H112975   3.401   3.593   5.551
 4344TIP3    H212976   3.542   3.641   5.580
 4345TIP3   OH212977   4.111   4.572   6.554
 4345TIP3    H112978   4.067   4.648   6.517
 4345TIP3    H212979   4.063   4.553   6.634
 4346TIP3   OH212980   6.564   1.294   0.129
 4346TIP3    H112981   6.539   1.301   0.037
 4346TIP3    H212982   6.645   1.244   0.128
 4347TIP3   OH212983   7.706   7.739   1.546
 4347TIP3    H112984   7.798   7.765   1.551
 4347TIP3    H212985   7.660   7.800   1.603
 4348TIP3   OH212986   6.868   3.670   4.559
 4348TIP3    H112987   6.841   3.692   4.649
 4348TIP3    H212988   6.792   3.689   4.506
 4349TIP3   OH212989   4.906   6.656   5.535
 4349TIP3    H112990   4.904   6.670   5.440
 4349TIP3    H212991   4.846   6.721   5.570
 4350TIP3   OH212992   5.849   1.586   1.078
 4350TIP3    H112993   5.811   1.631   1.153
 4350TIP3    H212994   5.934   1.554   1.109
 4351TIP3   OH212995   2.246   7.217   5.463
 4351TIP3    H112996   2.281   7.194   5.549
 4351TIP3    H212997   2.269   7.143   5.407
 4352TIP3   OH212998   0.120   2.002   2.164
 4352TIP3    H112999   0.140   2.095   2.169
 4352TIP3    H213000   0.025   1.997   2.174
 4353TIP3   OH213001   0.228   5.005   0.003
 4353TIP3    H113002   0.235   4.911   0.018
 4353TIP3    H213003   0.156   5.033   0.060
 4354TIP3   OH213004   1.023   6.326   2.138
 4354TIP3    H113005   1.012   6.252   2.197
 4354TIP3    H213006   1.057   6.287   2.057
 4355TIP3   OH213007   3.386   3.987   6.120
 4355TIP3    H113008   3.426   4.052   6.178
 4355TIP3    H213009   3.438   3.908   6.132
 4356TIP3   OH213010   5.021   3.505   3.187
 4356TIP3    H113011   5.072   3.518   3.267
 4356TIP3    H213012   4.935   3.477   3.217
 4357TIP3   OH213013   0.942   2.097   1.630
 4357TIP3    H113014   0.987   2.020   1.665
 4357TIP3    H213015   0.991   2.118   1.550
 4358TIP3   OH213016   0.630   6.865   1.275
 4358TIP3    H113017   0.590   6.931   1.332
 4358TIP3    H213018   0.715   6.903   1.251
 4359TIP3   OH213019   3.484   6.946   2.293
 4359TIP3    H113020   3.563   6.970   2.245
 4359TIP3    H213021   3.450   7.028   2.328
 4360TIP3   OH213022   3.791   4.053   2.364
 4360TIP3    H113023   3.785   4.022   2.274
 4360TIP3    H213024   3.877   4.025   2.393
 4361TIP3   OH213025   0.940   6.300   2.775
 4361TIP3    H113026   0.901   6.355   2.842
 4361TIP3    H213027   0.974   6.362   2.710
 4362TIP3   OH213028   3.919   7.246   6.261
 4362TIP3    H113029   3.906   7.340   6.248
 4362TIP3    H213030   3.901   7.233   6.354
 4363TIP3   OH213031   2.558   7.606   5.124
 4363TIP3    H113032   2.582   7.544   5.055
 4363TIP3    H213033   2.575   7.559   5.206
 4364TIP3   OH213034   6.888   7.455   3.979
 4364TIP3    H113035   6.946   7.401   3.925
 4364TIP3    H213036   6.943   7.526   4.011
 4365TIP3   OH213037   5.901   7.643   5.351
 4365TIP3    H113038   5.869   7.600   5.431
 4365TIP3    H213039   5.893   7.737   5.370
 4366TIP3   OH213040   7.888   3.201   0.520
 4366TIP3    H113041   7.960   3.138   0.517
 4366TIP3    H213042   7.851   3.190   0.608
 4367TIP3   OH213043   4.040   0.657   1.153
 4367TIP3    H113044   3.945   0.649   1.157
 4367TIP3    H213045   4.072   0.568   1.139
 4368TIP3   OH213046   6.996   2.897   6.051
 4368TIP3    H113047   7.008   2.992   6.055
 4368TIP3    H213048   7.079   2.863   6.020
 4369TIP3   OH213049   3.405   7.726   1.084
 4369TIP3    H113050   3.491   7.727   1.044
 4369TIP3    H213051   3.344   7.720   1.011
 4370TIP3   OH213052   5.839   2.828   4.272
 4370TIP3    H113053   5.805   2.740   4.287
 4370TIP3    H213054   5.896   2.819   4.195
 4371TIP3   OH213055   7.269   4.891   4.991
 4371TIP3    H113056   7.276   4.833   5.067
 4371TIP3    H213057   7.324   4.966   5.014
 4372TIP3   OH213058   4.346   2.806   5.471
 4372TIP3    H113059   4.322   2.713   5.467
 4372TIP3    H213060   4.354   2.833   5.380
 4373TIP3   OH213061   1.216   3.351   3.133
 4373TIP3    H113062   1.156   3.410   3.089
 4373TIP3    H213063   1.195   3.361   3.226
 4374TIP3   OH213064   0.633   2.610   2.310
 4374TIP3    H113065   0.653   2.699   2.281
 4374TIP3    H213066   0.717   2.575   2.340
 4375TIP3   OH213067   5.608   1.756   6.722
 4375TIP3    H113068   5.663   1.685   6.755
 4375TIP3    H213069   5.536   1.762   6.785
 4376TIP3   OH213070   7.750   6.944   4.251
 4376TIP3    H113071   7.694   6.909   4.321
 4376TIP3    H213072   7.774   7.032   4.282
 4377TIP3   OH213073   1.892   0.800   3.161
 4377TIP3    H113074   1.943   0.728   3.196
 4377TIP3    H213075   1.801   0.768   3.163
 4378TIP3   OH213076   4.706   0.488   0.948
 4378TIP3    H113077   4.650   0.552   0.992
 4378TIP3    H213078   4.771   0.541   0.902
 4379TIP3   OH213079   5.156   6.444   4.060
 4379TIP3    H113080   5.217   6.432   3.988
 4379TIP3    H213081   5.204   6.415   4.137
 4380TIP3   OH213082   3.334   2.402   5.701
 4380TIP3    H113083   3.410   2.431   5.752
 4380TIP3    H213084   3.368   2.334   5.644
 4381TIP3   OH213085   3.695   2.113   0.901
 4381TIP3    H113086   3.651   2.036   0.935
 4381TIP3    H213087   3.655   2.129   0.816
 4382TIP3   OH213088   5.278   3.482   3.446
 4382TIP3    H113089   5.317   3.564   3.477
 4382TIP3    H213090   5.197   3.474   3.496
 4383TIP3   OH213091   7.491   6.796   1.019
 4383TIP3    H113092   7.421   6.780   0.956
 4383TIP3    H213093   7.552   6.854   0.973
 4384TIP3   OH213094   7.363   1.015   4.093
 4384TIP3    H113095   7.452   0.981   4.092
 4384TIP3    H213096   7.310   0.944   4.056
 4385TIP3   OH213097   8.212   3.189   4.367
 4385TIP3    H113098   8.225   3.098   4.394
 4385TIP3    H213099   8.165   3.229   4.440
 4386TIP3   OH213100   3.048   1.844   4.398
 4386TIP3    H113101   2.956   1.820   4.408
 4386TIP3    H213102   3.087   1.770   4.351
 4387TIP3   OH213103   2.307   7.330   5.065
 4387TIP3    H113104   2.316   7.295   5.154
 4387TIP3    H213105   2.278   7.420   5.078
 4388TIP3   OH213106   0.839   0.197   4.438
 4388TIP3    H113107   0.827   0.104   4.420
 4388TIP3    H213108   0.805   0.241   4.360
 4389TIP3   OH213109   4.546   5.196   2.647
 4389TIP3    H113110   4.637   5.224   2.652
 4389TIP3    H213111   4.538   5.126   2.711
 4390TIP3   OH213112   2.316   3.860   5.548
 4390TIP3    H113113   2.354   3.902   5.471
 4390TIP3    H213114   2.382   3.796   5.575
 4391TIP3   OH213115   0.856   4.953   5.296
 4391TIP3    H113116   0.854   4.896   5.373
 4391TIP3    H213117   0.766   4.986   5.289
 4392TIP3   OH213118   4.350   2.202   0.301
 4392TIP3    H113119   4.397   2.243   0.228
 4392TIP3    H213120   4.344   2.271   0.367
 4393TIP3   OH213121   7.963   4.949   2.576
 4393TIP3    H113122   7.927   4.910   2.656
 4393TIP3    H213123   8.021   5.018   2.606
 4394TIP3   OH213124   0.605   6.507   3.285
 4394TIP3    H113125   0.526   6.548   3.320
 4394TIP3    H213126   0.674   6.528   3.348
 4395TIP3   OH213127   6.943   4.538   1.892
 4395TIP3    H113128   6.970   4.455   1.931
 4395TIP3    H213129   6.852   4.550   1.919
 4396TIP3   OH213130   3.404   3.813   4.386
 4396TIP3    H113131   3.462   3.743   4.414
 4396TIP3    H213132   3.400   3.873   4.460
 4397TIP3   OH213133   4.373   6.136   5.471
 4397TIP3    H113134   4.424   6.063   5.434
 4397TIP3    H213135   4.339   6.102   5.554
 4398TIP3   OH213136   1.863   3.267   0.288
 4398TIP3    H113137   1.957   3.246   0.288
 4398TIP3    H213138   1.822   3.196   0.337
 4399TIP3   OH213139   3.976   5.106   5.075
 4399TIP3    H113140   4.001   5.094   5.167
 4399TIP3    H213141   3.894   5.155   5.079
 4400TIP3   OH213142   4.423   0.424   3.524
 4400TIP3    H113143   4.410   0.354   3.589
 4400TIP3    H213144   4.344   0.478   3.532
 4401TIP3   OH213145   6.321   1.597   4.127
 4401TIP3    H113146   6.328   1.543   4.049
 4401TIP3    H213147   6.231   1.586   4.157
 4402TIP3   OH213148   2.168   3.822   4.109
 4402TIP3    H113149   2.200   3.856   4.193
 4402TIP3    H213150   2.094   3.879   4.087
 4403TIP3   OH213151   8.233   7.166   2.678
 4403TIP3    H113152   8.176   7.233   2.642
 4403TIP3    H213153   8.180   7.086   2.676
 4404TIP3   OH213154   0.495   6.378   1.694
 4404TIP3    H113155   0.426   6.444   1.700
 4404TIP3    H213156   0.551   6.408   1.623
 4405TIP3   OH213157   1.819   3.336   5.545
 4405TIP3    H113158   1.783   3.413   5.590
 4405TIP3    H213159   1.890   3.370   5.491
 4406TIP3   OH213160   6.476   4.357   2.490
 4406TIP3    H113161   6.384   4.342   2.511
 4406TIP3    H213162   6.515   4.385   2.573
 4407TIP3   OH213163   8.065   1.948   5.187
 4407TIP3    H113164   8.144   1.956   5.134
 4407TIP3    H213165   8.020   1.871   5.153
 4408TIP3   OH213166   4.708   4.438   2.595
 4408TIP3    H113167   4.731   4.351   2.627
 4408TIP3    H213168   4.620   4.454   2.630
 4409TIP3   OH213169   5.233   3.290   1.745
 4409TIP3    H113170   5.209   3.359   1.683
 4409TIP3    H213171   5.159   3.285   1.805
 4410TIP3   OH213172   2.455   3.664   3.957
 4410TIP3    H113173   2.442   3.571   3.976
 4410TIP3    H213174   2.544   3.669   3.922
 4411TIP3   OH213175   2.630   6.507   5.157
 4411TIP3    H113176   2.687   6.437   5.126
 4411TIP3    H213177   2.541   6.473   5.147
 4412TIP3   OH213178   7.426   6.801   5.110
 4412TIP3    H113179   7.506   6.772   5.067
 4412TIP3    H213180   7.386   6.720   5.143
 4413TIP3   OH213181   4.971   7.294   4.064
 4413TIP3    H113182   5.040   7.229   4.052
 4413TIP3    H213183   4.996   7.340   4.145
 4414TIP3   OH213184   7.020   3.761   1.158
 4414TIP3    H113185   6.967   3.715   1.093
 4414TIP3    H213186   7.090   3.803   1.107
 4415TIP3   OH213187   1.555   0.086   0.052
 4415TIP3    H113188   1.537   0.025  -0.020
 4415TIP3    H213189   1.646   0.070   0.075
 4416TIP3   OH213190   5.560   6.505   6.157
 4416TIP3    H113191   5.562   6.416   6.120
 4416TIP3    H213192   5.514   6.495   6.241
 4417TIP3   OH213193   1.250   7.021   1.618
 4417TIP3    H113194   1.175   6.962   1.622
 4417TIP3    H213195   1.219   7.102   1.659
 4418TIP3   OH213196   0.860   4.955   1.771
 4418TIP3    H113197   0.799   4.894   1.813
 4418TIP3    H213198   0.837   5.040   1.807
 4419TIP3   OH213199   0.986   6.275   5.976
 4419TIP3    H113200   0.956   6.230   6.055
 4419TIP3    H213201   0.905   6.297   5.930
 4420TIP3   OH213202   7.183   6.905   5.500
 4420TIP3    H113203   7.138   6.858   5.570
 4420TIP3    H213204   7.138   6.988   5.494
 4421TIP3   OH213205   0.859   5.119   0.257
 4421TIP3    H113206   0.827   5.184   0.319
 4421TIP3    H213207   0.826   5.036   0.290
 4422TIP3   OH213208   2.511   0.105   3.569
 4422TIP3    H113209   2.513   0.087   3.475
 4422TIP3    H213210   2.418   0.096   3.592
 4423TIP3   OH213211   7.989   0.375   3.374
 4423TIP3    H113212   7.954   0.347   3.459
 4423TIP3    H213213   8.060   0.435   3.395
 4424TIP3   OH213214   1.970   4.412   3.860
 4424TIP3    H113215   2.041   4.463   3.822
 4424TIP3    H213216   1.954   4.342   3.796
 4425TIP3   OH213217   5.693   2.743   6.014
 4425TIP3    H113218   5.620   2.750   5.953
 4425TIP3    H213219   5.689   2.653   6.046
 4426TIP3   OH213220   0.125   4.562   1.028
 4426TIP3    H113221   0.098   4.640   1.076
 4426TIP3    H213222   0.071   4.492   1.064
 4427TIP3   OH213223   0.225   0.489   0.115
 4427TIP3    H113224   0.130   0.495   0.116
 4427TIP3    H213225   0.252   0.539   0.038
 4428TIP3   OH213226   3.144   5.247   4.096
 4428TIP3    H113227   3.206   5.319   4.108
 4428TIP3    H213228   3.145   5.201   4.180
 4429TIP3   OH213229   7.710   1.204   5.884
 4429TIP3    H113230   7.636   1.239   5.835
 4429TIP3    H213231   7.670   1.153   5.955
 4430TIP3   OH213232   2.584   7.356   3.896
 4430TIP3    H113233   2.604   7.450   3.897
 4430TIP3    H213234   2.559   7.336   3.986
 4431TIP3   OH213235   0.227   6.751   5.887
 4431TIP3    H113236   0.251   6.684   5.950
 4431TIP3    H213237   0.221   6.832   5.939
 4432TIP3   OH213238   7.176   6.359   4.365
 4432TIP3    H113239   7.181   6.273   4.406
 4432TIP3    H213240   7.126   6.413   4.426
 4433TIP3   OH213241   0.827   2.172   6.786
 4433TIP3    H113242   0.827   2.149   6.693
 4433TIP3    H213243   0.816   2.267   6.787
 4434TIP3   OH213244   3.118   1.222   4.987
 4434TIP3    H113245   3.142   1.311   5.012
 4434TIP3    H213246   3.109   1.175   5.070
 4435TIP3   OH213247   3.646   0.723   0.104
 4435TIP3    H113248   3.561   0.686   0.079
 4435TIP3    H213249   3.627   0.813   0.130
 4436TIP3   OH213250   2.427   3.819   0.225
 4436TIP3    H113251   2.411   3.737   0.271
 4436TIP3    H213252   2.386   3.808   0.139
 4437TIP3   OH213253   3.910   4.623   0.187
 4437TIP3    H113254   4.002   4.632   0.160
 4437TIP3    H213255   3.860   4.633   0.106
 4438TIP3   OH213256   6.759   6.833   3.973
 4438TIP3    H113257   6.835   6.778   3.991
 4438TIP3    H213258   6.702   6.821   4.049
 4439TIP3   OH213259   4.192   0.932   5.812
 4439TIP3    H113260   4.165   0.873   5.883
 4439TIP3    H213261   4.147   0.898   5.734
 4440TIP3   OH213262   3.241   2.186   6.414
 4440TIP3    H113263   3.331   2.155   6.403
 4440TIP3    H213264   3.249   2.282   6.412
 4441TIP3   OH213265   6.656   7.667   1.639
 4441TIP3    H113266   6.599   7.594   1.616
 4441TIP3    H213267   6.745   7.633   1.627
 4442TIP3   OH213268   1.729   7.737   0.811
 4442TIP3    H113269   1.766   7.801   0.751
 4442TIP3    H213270   1.685   7.789   0.878
 4443TIP3   OH213271   3.264   6.699   3.721
 4443TIP3    H113272   3.345   6.748   3.735
 4443TIP3    H213273   3.194   6.763   3.736
 4444TIP3   OH213274   1.370   1.841   4.178
 4444TIP3    H113275   1.294   1.890   4.209
 4444TIP3    H213276   1.334   1.769   4.127
 4445TIP3   OH213277   7.772   3.416   2.720
 4445TIP3    H113278   7.830   3.490   2.702
 4445TIP3    H213279   7.731   3.438   2.804
 4446TIP3   OH213280   4.708   3.793   2.171
 4446TIP3    H113281   4.792   3.810   2.129
 4446TIP3    H213282   4.645   3.795   2.100
 4447TIP3   OH213283   2.852   2.385   0.457
 4447TIP3    H113284   2.811   2.433   0.530
 4447TIP3    H213285   2.819   2.429   0.379
 4448TIP3   OH213286   3.959   5.115   4.459
 4448TIP3    H113287   3.885   5.070   4.500
 4448TIP3    H213288   3.956   5.204   4.496
 4449TIP3   OH213289   7.092   5.898   5.922
 4449TIP3    H113290   7.167   5.948   5.954
 4449TIP3    H213291   7.051   5.862   6.001
 4450TIP3   OH213292   3.760   0.111   1.993
 4450TIP3    H113293   3.751   0.168   1.916
 4450TIP3    H213294   3.718   0.160   2.064
 4451TIP3   OH213295   5.464   5.582   1.894
 4451TIP3    H113296   5.410   5.657   1.869
 4451TIP3    H213297   5.553   5.616   1.891
 4452TIP3   OH213298   1.691   4.334   6.219
 4452TIP3    H113299   1.698   4.350   6.313
 4452TIP3    H213300   1.614   4.384   6.192
 4453TIP3   OH213301   1.296   5.815   2.671
 4453TIP3    H113302   1.223   5.754   2.657
 4453TIP3    H213303   1.361   5.765   2.719
 4454TIP3   OH213304   5.977   2.509   5.487
 4454TIP3    H113305   6.029   2.569   5.434
 4454TIP3    H213306   5.935   2.565   5.553
 4455TIP3   OH213307   0.757   2.222   0.750
 4455TIP3    H113308   0.682   2.271   0.716
 4455TIP3    H213309   0.721   2.172   0.824
 4456TIP3   OH213310   5.409   3.351   4.210
 4456TIP3    H113311   5.399   3.344   4.115
 4456TIP3    H213312   5.450   3.269   4.235
 4457TIP3   OH213313   3.402   6.276   5.160
 4457TIP3    H113314   3.360   6.272   5.245
 4457TIP3    H213315   3.332   6.258   5.097
 4458TIP3   OH213316   7.251   7.005   3.813
 4458TIP3    H113317   7.227   7.083   3.862
 4458TIP3    H213318   7.243   6.933   3.876
 4459TIP3   OH213319   6.765   7.697   3.868
 4459TIP3    H113320   6.812   7.615   3.878
 4459TIP3    H213321   6.672   7.672   3.864
 4460TIP3   OH213322   3.771   6.543   3.134
 4460TIP3    H113323   3.765   6.449   3.150
 4460TIP3    H213324   3.862   6.566   3.150
 4461TIP3   OH213325   1.334   3.775   3.438
 4461TIP3    H113326   1.358   3.862   3.472
 4461TIP3    H213327   1.378   3.769   3.353
 4462TIP3   OH213328   6.548   7.092   0.613
 4462TIP3    H113329   6.605   7.143   0.556
 4462TIP3    H213330   6.464   7.090   0.566
 4463TIP3   OH213331   6.749   3.277   3.006
 4463TIP3    H113332   6.794   3.290   2.923
 4463TIP3    H213333   6.728   3.365   3.036
 4464TIP3   OH213334   2.409   2.776   0.986
 4464TIP3    H113335   2.465   2.728   0.925
 4464TIP3    H213336   2.320   2.750   0.963
 4465TIP3   OH213337   3.025   3.053   0.295
 4465TIP3    H113338   2.938   3.072   0.331
 4465TIP3    H213339   3.075   3.020   0.370
 4466TIP3   OH213340   7.530   0.581   4.924
 4466TIP3    H113341   7.503   0.577   5.016
 4466TIP3    H213342   7.625   0.590   4.928
 4467TIP3   OH213343   2.254   2.520   6.020
 4467TIP3    H113344   2.194   2.522   6.095
 4467TIP3    H213345   2.256   2.428   5.995
 4468TIP3   OH213346   6.785   1.806   1.971
 4468TIP3    H113347   6.705   1.838   2.014
 4468TIP3    H213348   6.789   1.713   1.995
 4469TIP3   OH213349   0.775   1.707   3.988
 4469TIP3    H113350   0.741   1.784   3.944
 4469TIP3    H213351   0.866   1.701   3.960
 4470TIP3   OH213352   7.159   5.483   1.601
 4470TIP3    H113353   7.181   5.576   1.597
 4470TIP3    H213354   7.111   5.473   1.683
 4471TIP3   OH213355   0.328   2.437   2.098
 4471TIP3    H113356   0.411   2.420   2.142
 4471TIP3    H213357   0.331   2.382   2.020
 4472TIP3   OH213358   0.097   6.391   6.116
 4472TIP3    H113359   0.180   6.407   6.071
 4472TIP3    H213360   0.081   6.472   6.164
 4473TIP3   OH213361   1.353   6.546   1.222
 4473TIP3    H113362   1.340   6.641   1.222
 4473TIP3    H213363   1.381   6.525   1.311
 4474TIP3   OH213364   2.538   5.337   0.367
 4474TIP3    H113365   2.570   5.423   0.337
 4474TIP3    H213366   2.614   5.280   0.360
 4475TIP3   OH213367   3.418   1.494   4.247
 4475TIP3    H113368   3.388   1.446   4.169
 4475TIP3    H213369   3.340   1.540   4.278
 4476TIP3   OH213370   1.436   5.770   6.697
 4476TIP3    H113371   1.396   5.750   6.782
 4476TIP3    H213372   1.362   5.794   6.641
 4477TIP3   OH213373   3.173   6.260   2.376
 4477TIP3    H113374   3.265   6.254   2.349
 4477TIP3    H213375   3.176   6.259   2.472
 4478TIP3   OH213376   7.294   5.263   3.038
 4478TIP3    H113377   7.226   5.301   3.094
 4478TIP3    H213378   7.291   5.317   2.958
 4479TIP3   OH213379   4.604   6.644   1.961
 4479TIP3    H113380   4.641   6.683   1.881
 4479TIP3    H213381   4.510   6.644   1.946
 4480TIP3   OH213382   1.632   0.432   1.816
 4480TIP3    H113383   1.616   0.527   1.821
 4480TIP3    H213384   1.712   0.424   1.764
 4481TIP3   OH213385   5.185   5.049   2.196
 4481TIP3    H113386   5.206   5.002   2.276
 4481TIP3    H213387   5.194   5.141   2.219
 4482TIP3   OH213388   3.516   7.068   3.875
 4482TIP3    H113389   3.605   7.101   3.886
 4482TIP3    H213390   3.463   7.146   3.860
 4483TIP3   OH213391   5.848   2.240   3.670
 4483TIP3    H113392   5.825   2.320   3.624
 4483TIP3    H213393   5.930   2.211   3.629
 4484TIP3   OH213394   3.956   2.616   1.471
 4484TIP3    H113395   4.034   2.580   1.514
 4484TIP3    H213396   3.979   2.707   1.452
 4485TIP3   OH213397   6.138   1.401   6.359
 4485TIP3    H113398   6.120   1.338   6.429
 4485TIP3    H213399   6.052   1.432   6.332
 4486TIP3   OH213400   2.624   7.314   6.226
 4486TIP3    H113401   2.687   7.275   6.286
 4486TIP3    H213402   2.571   7.372   6.281
 4487TIP3   OH213403   2.590   2.076   0.185
 4487TIP3    H113404   2.603   2.022   0.263
 4487TIP3    H213405   2.656   2.045   0.123
 4488TIP3   OH213406   1.282   6.253   3.912
 4488TIP3    H113407   1.213   6.219   3.855
 4488TIP3    H213408   1.356   6.194   3.899
 4489TIP3   OH213409   4.773   6.319   4.595
 4489TIP3    H113410   4.711   6.263   4.549
 4489TIP3    H213411   4.799   6.385   4.530
 4490TIP3   OH213412   1.626   5.941   2.465
 4490TIP3    H113413   1.605   5.849   2.486
 4490TIP3    H213414   1.542   5.986   2.469
 4491TIP3   OH213415   8.197   0.696   6.022
 4491TIP3    H113416   8.123   0.745   6.059
 4491TIP3    H213417   8.157   0.625   5.972
 4492TIP3   OH213418   5.377   6.519   4.962
 4492TIP3    H113419   5.386   6.599   4.911
 4492TIP3    H213420   5.296   6.531   5.011
 4493TIP3   OH213421   5.962   3.747   4.089
 4493TIP3    H113422   5.969   3.705   4.175
 4493TIP3    H213423   5.967   3.841   4.108
 4494TIP3   OH213424   5.438   7.064   4.907
 4494TIP3    H113425   5.415   7.107   4.989
 4494TIP3    H213426   5.533   7.054   4.911
 4495TIP3   OH213427   1.954   6.744   2.137
 4495TIP3    H113428   2.038   6.784   2.158
 4495TIP3    H213429   1.973   6.681   2.068
 4496TIP3   OH213430   1.733   0.170   0.847
 4496TIP3    H113431   1.641   0.196   0.856
 4496TIP3    H213432   1.757   0.139   0.935
 4497TIP3   OH213433   7.966   2.030   2.494
 4497TIP3    H113434   8.012   2.020   2.577
 4497TIP3    H213435   7.973   1.944   2.452
 4498TIP3   OH213436   0.090   6.995   3.025
 4498TIP3    H113437  -0.002   7.024   3.024
 4498TIP3    H213438   0.139   7.070   2.992
 4499TIP3   OH213439   3.112   1.229   4.484
 4499TIP3    H113440   3.091   1.190   4.399
 4499TIP3    H213441   3.183   1.176   4.518
 4500TIP3   OH213442   1.294   0.323   5.615
 4500TIP3    H113443   1.250   0.294   5.535
 4500TIP3    H213444   1.344   0.401   5.588
 4501TIP3   OH213445   7.427   4.534   6.583
 4501TIP3    H113446   7.464   4.589   6.514
 4501TIP3    H213447   7.341   4.572   6.601
 4502TIP3   OH213448   5.745   3.494   4.137
 4502TIP3    H113449   5.705   3.511   4.222
 4502TIP3    H213450   5.728   3.573   4.086
 4503TIP3   OH213451   0.483   1.570   4.057
 4503TIP3    H113452   0.461   1.511   4.129
 4503TIP3    H213453   0.576   1.588   4.069
 4504TIP3   OH213454   1.832   5.215   5.126
 4504TIP3    H113455   1.871   5.303   5.127
 4504TIP3    H213456   1.744   5.228   5.161
 4505TIP3   OH213457   0.658   0.757   4.488
 4505TIP3    H113458   0.684   0.714   4.569
 4505TIP3    H213459   0.650   0.850   4.512
 4506TIP3   OH213460   6.689   1.267   5.913
 4506TIP3    H113461   6.667   1.222   5.832
 4506TIP3    H213462   6.698   1.359   5.889
 4507TIP3   OH213463   5.353   0.232   2.263
 4507TIP3    H113464   5.262   0.240   2.292
 4507TIP3    H213465   5.390   0.319   2.277
 4508TIP3   OH213466   4.079   5.507   3.757
 4508TIP3    H113467   4.107   5.592   3.726
 4508TIP3    H213468   4.157   5.470   3.800
 4509TIP3   OH213469   5.105   6.693   3.858
 4509TIP3    H113470   5.181   6.643   3.829
 4509TIP3    H213471   5.051   6.702   3.779
 4510TIP3   OH213472   6.821   2.361   1.804
 4510TIP3    H113473   6.880   2.427   1.768
 4510TIP3    H213474   6.735   2.405   1.805
 4511TIP3   OH213475   7.906   7.477   5.834
 4511TIP3    H113476   7.844   7.440   5.897
 4511TIP3    H213477   7.917   7.408   5.768
 4512TIP3   OH213478   3.758   6.963   4.482
 4512TIP3    H113479   3.761   6.895   4.550
 4512TIP3    H213480   3.665   6.984   4.475
 4513TIP3   OH213481   4.103   4.707   3.625
 4513TIP3    H113482   4.072   4.772   3.562
 4513TIP3    H213483   4.023   4.666   3.658
 4514TIP3   OH213484   8.167   0.254   0.321
 4514TIP3    H113485   8.224   0.325   0.350
 4514TIP3    H213486   8.085   0.298   0.297
 4515TIP3   OH213487   5.335   5.370   5.385
 4515TIP3    H113488   5.323   5.354   5.478
 4515TIP3    H213489   5.427   5.397   5.377
 4516TIP3   OH213490   6.655   6.599   1.778
 4516TIP3    H113491   6.744   6.598   1.814
 4516TIP3    H213492   6.600   6.569   1.851
 4517TIP3   OH213493   2.944   7.127   0.216
 4517TIP3    H113494   2.868   7.131   0.275
 4517TIP3    H213495   3.014   7.170   0.265
 4518TIP3   OH213496   3.701   4.477   0.950
 4518TIP3    H113497   3.674   4.387   0.927
 4518TIP3    H213498   3.624   4.530   0.930
 4519TIP3   OH213499   8.199   5.267   5.330
 4519TIP3    H113500   8.206   5.249   5.236
 4519TIP3    H213501   8.252   5.346   5.342
 4520TIP3   OH213502   1.136   1.523   1.718
 4520TIP3    H113503   1.125   1.432   1.745
 4520TIP3    H213504   1.225   1.545   1.747
 4521TIP3   OH213505   2.282   6.955   1.718
 4521TIP3    H113506   2.340   6.899   1.666
 4521TIP3    H213507   2.269   7.033   1.665
 4522TIP3   OH213508   5.396   1.351   2.521
 4522TIP3    H113509   5.350   1.427   2.558
 4522TIP3    H213510   5.410   1.293   2.595
 4523TIP3   OH213511   8.226   3.168   1.392
 4523TIP3    H113512   8.246   3.168   1.299
 4523TIP3    H213513   8.256   3.253   1.424
 4524TIP3   OH213514   4.132   1.391   2.541
 4524TIP3    H113515   4.160   1.397   2.450
 4524TIP3    H213516   4.200   1.338   2.583
 4525TIP3   OH213517   1.747   5.474   6.718
 4525TIP3    H113518   1.692   5.439   6.647
 4525TIP3    H213519   1.684   5.502   6.785
 4526TIP3   OH213520   1.576   7.596   3.363
 4526TIP3    H113521   1.630   7.670   3.334
 4526TIP3    H213522   1.558   7.616   3.455
 4527TIP3   OH213523   3.909   4.869   3.399
 4527TIP3    H113524   3.879   4.780   3.380
 4527TIP3    H213525   3.828   4.917   3.419
 4528TIP3   OH213526   6.403   0.907   0.227
 4528TIP3    H113527   6.498   0.915   0.241
 4528TIP3    H213528   6.373   0.997   0.217
 4529TIP3   OH213529   7.198   3.740   0.540
 4529TIP3    H113530   7.159   3.761   0.625
 4529TIP3    H213531   7.126   3.702   0.489
 4530TIP3   OH213532   7.020   6.411   2.908
 4530TIP3    H113533   7.062   6.325   2.912
 4530TIP3    H213534   6.934   6.397   2.947
 4531TIP3   OH213535   1.492   2.899   6.517
 4531TIP3    H113536   1.422   2.963   6.508
 4531TIP3    H213537   1.554   2.940   6.577
 4532TIP3   OH213538   8.250   0.176   4.937
 4532TIP3    H113539   8.325   0.143   4.889
 4532TIP3    H213540   8.189   0.206   4.869
 4533TIP3   OH213541   8.250   1.888   5.564
 4533TIP3    H113542   8.339   1.914   5.588
 4533TIP3    H213543   8.248   1.793   5.579
 4534TIP3   OH213544   1.694   0.773   5.643
 4534TIP3    H113545   1.707   0.686   5.679
 4534TIP3    H213546   1.620   0.809   5.691
 4535TIP3   OH213547   0.920   1.717   4.927
 4535TIP3    H113548   0.986   1.696   4.993
 4535TIP3    H213549   0.946   1.802   4.893
 4536TIP3   OH213550   6.626   4.589   5.992
 4536TIP3    H113551   6.583   4.612   6.074
 4536TIP3    H213552   6.614   4.667   5.937
 4537TIP3   OH213553   3.316   0.748   0.280
 4537TIP3    H113554   3.223   0.745   0.304
 4537TIP3    H213555   3.354   0.670   0.322
 4538TIP3   OH213556   3.448   7.248   2.189
 4538TIP3    H113557   3.414   7.218   2.105
 4538TIP3    H213558   3.494   7.330   2.168
 4539TIP3   OH213559   7.713   2.609   4.723
 4539TIP3    H113560   7.669   2.689   4.751
 4539TIP3    H213561   7.657   2.538   4.756
 4540TIP3   OH213562   0.707   2.645   6.353
 4540TIP3    H113563   0.764   2.642   6.430
 4540TIP3    H213564   0.720   2.561   6.310
 4541TIP3   OH213565   5.089   3.741   0.460
 4541TIP3    H113566   5.129   3.779   0.538
 4541TIP3    H213567   5.001   3.778   0.458
 4542TIP3   OH213568   0.679   0.130   1.313
 4542TIP3    H113569   0.623   0.096   1.383
 4542TIP3    H213570   0.631   0.206   1.279
 4543TIP3   OH213571   2.003   4.220   5.296
 4543TIP3    H113572   2.015   4.301   5.345
 4543TIP3    H213573   2.005   4.151   5.362
 4544TIP3   OH213574   6.326   0.341   2.749
 4544TIP3    H113575   6.272   0.334   2.828
 4544TIP3    H213576   6.366   0.428   2.755
 4545TIP3   OH213577   6.260   1.148   1.221
 4545TIP3    H113578   6.197   1.201   1.270
 4545TIP3    H213579   6.255   1.062   1.262
 4546TIP3   OH213580   5.431   1.692   0.764
 4546TIP3    H113581   5.507   1.637   0.744
 4546TIP3    H213582   5.445   1.720   0.854
 4547TIP3   OH213583   1.604   3.192   2.539
 4547TIP3    H113584   1.597   3.195   2.635
 4547TIP3    H213585   1.544   3.121   2.513
 4548TIP3   OH213586   2.973   1.577   5.835
 4548TIP3    H113587   2.925   1.568   5.918
 4548TIP3    H213588   2.921   1.528   5.771
 4549TIP3   OH213589   1.555   6.322   3.102
 4549TIP3    H113590   1.480   6.288   3.053
 4549TIP3    H213591   1.555   6.415   3.083
 4550TIP3   OH213592   8.183   2.061   5.809
 4550TIP3    H113593   8.183   1.974   5.769
 4550TIP3    H213594   8.199   2.121   5.736
 4551TIP3   OH213595   2.748   4.190   0.672
 4551TIP3    H113596   2.685   4.125   0.641
 4551TIP3    H213597   2.699   4.241   0.737
 4552TIP3   OH213598   5.077   3.547   4.462
 4552TIP3    H113599   5.113   3.527   4.548
 4552TIP3    H213600   5.148   3.593   4.417
 4553TIP3   OH213601   2.330   7.740   4.104
 4553TIP3    H113602   2.236   7.730   4.114
 4553TIP3    H213603   2.345   7.835   4.113
 4554TIP3   OH213604   7.030   4.430   6.141
 4554TIP3    H113605   7.101   4.462   6.085
 4554TIP3    H213606   7.037   4.335   6.136
 4555TIP3   OH213607   2.322   7.435   6.130
 4555TIP3    H113608   2.376   7.475   6.198
 4555TIP3    H213609   2.332   7.341   6.144
 4556TIP3   OH213610   8.104   3.289   0.220
 4556TIP3    H113611   8.164   3.283   0.295
 4556TIP3    H213612   8.040   3.220   0.235
 4557TIP3   OH213613   0.949   5.717   3.820
 4557TIP3    H113614   0.965   5.682   3.732
 4557TIP3    H213615   0.863   5.757   3.815
 4558TIP3   OH213616   4.107   2.347   2.460
 4558TIP3    H113617   4.170   2.297   2.512
 4558TIP3    H213618   4.153   2.369   2.380
 4559TIP3   OH213619   4.548   1.167   0.818
 4559TIP3    H113620   4.482   1.151   0.885
 4559TIP3    H213621   4.625   1.197   0.867
 4560TIP3   OH213622   8.170   0.106   3.784
 4560TIP3    H113623   8.237   0.160   3.743
 4560TIP3    H213624   8.099   0.101   3.719
 4561TIP3   OH213625   0.886   0.736   4.870
 4561TIP3    H113626   0.895   0.798   4.798
 4561TIP3    H213627   0.919   0.653   4.835
 4562TIP3   OH213628   6.929   5.417   3.481
 4562TIP3    H113629   6.847   5.466   3.488
 4562TIP3    H213630   6.993   5.482   3.452
 4563TIP3   OH213631   8.034   7.316   2.023
 4563TIP3    H113632   7.969   7.385   2.029
 4563TIP3    H213633   8.108   7.357   1.978
 4564TIP3   OH213634   2.061   1.679   2.110
 4564TIP3    H113635   1.999   1.624   2.063
 4564TIP3    H213636   2.051   1.766   2.070
 4565TIP3   OH213637   6.746   1.547   4.484
 4565TIP3    H113638   6.742   1.505   4.399
 4565TIP3    H213639   6.663   1.595   4.490
 4566TIP3   OH213640   7.891   3.800   0.647
 4566TIP3    H113641   7.984   3.802   0.669
 4566TIP3    H213642   7.846   3.792   0.731
 4567TIP3   OH213643   0.864   6.729   4.675
 4567TIP3    H113644   0.831   6.659   4.731
 4567TIP3    H213645   0.787   6.784   4.658
 4568TIP3   OH213646   2.584   0.479   2.904
 4568TIP3    H113647   2.575   0.536   2.980
 4568TIP3    H213648   2.576   0.537   2.828
 4569TIP3   OH213649   5.123   0.960   4.255
 4569TIP3    H113650   5.156   1.034   4.306
 4569TIP3    H213651   5.073   1.001   4.184
 4570TIP3   OH213652   6.146   1.330   4.508
 4570TIP3    H113653   6.061   1.365   4.482
 4570TIP3    H213654   6.163   1.370   4.594
 4571TIP3   OH213655   4.164   2.198   3.910
 4571TIP3    H113656   4.209   2.252   3.845
 4571TIP3    H213657   4.228   2.187   3.981
 4572TIP3   OH213658   1.760   4.263   4.567
 4572TIP3    H113659   1.776   4.264   4.662
 4572TIP3    H213660   1.838   4.222   4.531
 4573TIP3   OH213661   7.680   1.543   5.083
 4573TIP3    H113662   7.727   1.478   5.030
 4573TIP3    H213663   7.607   1.571   5.026
 4574TIP3   OH213664   4.117   7.052   6.250
 4574TIP3    H113665   4.168   7.082   6.326
 4574TIP3    H213666   4.044   7.114   6.244
 4575TIP3   OH213667   7.452   0.931   5.517
 4575TIP3    H113668   7.492   0.890   5.594
 4575TIP3    H213669   7.502   0.895   5.443
 4576TIP3   OH213670   2.570   4.363   6.318
 4576TIP3    H113671   2.633   4.395   6.253
 4576TIP3    H213672   2.485   4.391   6.285
 4577TIP3   OH213673   3.304   7.561   0.067
 4577TIP3    H113674   3.337   7.497   0.005
 4577TIP3    H213675   3.307   7.644   0.020
 4578TIP3   OH213676   8.274   0.570   5.117
 4578TIP3    H113677   8.197   0.621   5.089
 4578TIP3    H213678   8.282   0.588   5.210
 4579TIP3   OH213679   0.198   1.091   2.913
 4579TIP3    H113680   0.291   1.079   2.896
 4579TIP3    H213681   0.178   1.029   2.983
 4580TIP3   OH213682   4.644   3.558   1.332
 4580TIP3    H113683   4.619   3.616   1.260
 4580TIP3    H213684   4.600   3.594   1.409
 4581TIP3   OH213685   0.824   1.996   3.945
 4581TIP3    H113686   0.915   1.981   3.969
 4581TIP3    H213687   0.797   2.071   3.999
 4582TIP3   OH213688   4.995   7.253   2.127
 4582TIP3    H113689   4.970   7.172   2.173
 4582TIP3    H213690   5.000   7.319   2.196
 4583TIP3   OH213691   5.526   3.869   5.335
 4583TIP3    H113692   5.547   3.959   5.310
 4583TIP3    H213693   5.569   3.857   5.420
 4584TIP3   OH213694   7.361   3.505   1.483
 4584TIP3    H113695   7.293   3.557   1.440
 4584TIP3    H213696   7.432   3.567   1.499
 4585TIP3   OH213697   0.435   5.172   5.861
 4585TIP3    H113698   0.376   5.223   5.805
 4585TIP3    H213699   0.431   5.083   5.825
 4586TIP3   OH213700   2.405   1.203   2.789
 4586TIP3    H113701   2.484   1.227   2.838
 4586TIP3    H213702   2.359   1.286   2.777
 4587TIP3   OH213703   2.970   2.753   0.208
 4587TIP3    H113704   2.886   2.752   0.254
 4587TIP3    H213705   2.993   2.846   0.202
 4588TIP3   OH213706   5.453   5.002   4.045
 4588TIP3    H113707   5.526   4.945   4.068
 4588TIP3    H213708   5.467   5.082   4.095
 4589TIP3   OH213709   3.862   4.728   6.049
 4589TIP3    H113710   3.846   4.642   6.011
 4589TIP3    H213711   3.775   4.769   6.054
 4590TIP3   OH213712   3.762   2.237   3.785
 4590TIP3    H113713   3.824   2.215   3.715
 4590TIP3    H213714   3.761   2.160   3.842
 4591TIP3   OH213715   4.230   1.304   0.963
 4591TIP3    H113716   4.206   1.376   0.906
 4591TIP3    H213717   4.314   1.331   1.002
 4592TIP3   OH213718   7.407   1.054   2.659
 4592TIP3    H113719   7.335   1.074   2.599
 4592TIP3    H213720   7.446   1.140   2.678
 4593TIP3   OH213721   6.794   1.943   4.748
 4593TIP3    H113722   6.793   2.021   4.693
 4593TIP3    H213723   6.837   1.876   4.695
 4594TIP3   OH213724   2.649   1.009   4.395
 4594TIP3    H113725   2.695   1.025   4.477
 4594TIP3    H213726   2.696   1.061   4.330
 4595TIP3   OH213727   4.359   7.562   6.668
 4595TIP3    H113728   4.328   7.611   6.591
 4595TIP3    H213729   4.449   7.539   6.647
 4596TIP3   OH213730   6.213   7.283   0.602
 4596TIP3    H113731   6.160   7.358   0.575
 4596TIP3    H213732   6.255   7.252   0.522
 4597TIP3   OH213733   1.918   5.569   0.126
 4597TIP3    H113734   2.001   5.616   0.121
 4597TIP3    H213735   1.851   5.638   0.123
 4598TIP3   OH213736   1.200   3.695   6.478
 4598TIP3    H113737   1.121   3.665   6.435
 4598TIP3    H213738   1.198   3.654   6.565
 4599TIP3   OH213739   7.075   7.420   1.771
 4599TIP3    H113740   7.002   7.374   1.729
 4599TIP3    H213741   7.034   7.492   1.818
 4600TIP3   OH213742   5.903   1.922   4.987
 4600TIP3    H113743   5.980   1.958   4.944
 4600TIP3    H213744   5.937   1.855   5.046
 4601TIP3   OH213745   6.941   0.644   3.101
 4601TIP3    H113746   6.984   0.697   3.167
 4601TIP3    H213747   6.890   0.579   3.151
 4602TIP3   OH213748   2.758   2.295   2.915
 4602TIP3    H113749   2.757   2.334   3.003
 4602TIP3    H213750   2.765   2.371   2.856
 4603TIP3   OH213751   3.626   0.336   5.625
 4603TIP3    H113752   3.641   0.430   5.615
 4603TIP3    H213753   3.711   0.300   5.647
 4604TIP3   OH213754   5.348   2.653   0.966
 4604TIP3    H113755   5.428   2.648   1.020
 4604TIP3    H213756   5.325   2.561   0.949
 4605TIP3   OH213757   0.016   1.950   0.185
 4605TIP3    H113758   0.043   1.861   0.163
 4605TIP3    H213759   0.038   1.959   0.278
 4606TIP3   OH213760   4.331   5.019   4.870
 4606TIP3    H113761   4.327   4.923   4.869
 4606TIP3    H213762   4.418   5.039   4.836
 4607TIP3   OH213763   6.582   6.199   4.926
 4607TIP3    H113764   6.649   6.211   4.859
 4607TIP3    H213765   6.501   6.186   4.877
 4608TIP3   OH213766   5.010   3.571   3.682
 4608TIP3    H113767   5.039   3.636   3.618
 4608TIP3    H213768   5.071   3.581   3.755
 4609TIP3   OH213769   5.444   1.724   0.246
 4609TIP3    H113770   5.411   1.642   0.209
 4609TIP3    H213771   5.376   1.752   0.306
 4610TIP3   OH213772   5.795   5.264   1.145
 4610TIP3    H113773   5.771   5.173   1.128
 4610TIP3    H213774   5.888   5.260   1.168
 4611TIP3   OH213775   1.798   5.572   5.110
 4611TIP3    H113776   1.758   5.627   5.177
 4611TIP3    H213777   1.734   5.572   5.038
 4612TIP3   OH213778   0.614   3.015   1.069
 4612TIP3    H113779   0.643   3.026   1.160
 4612TIP3    H213780   0.525   3.050   1.068
 4613TIP3   OH213781   3.263   0.278   6.278
 4613TIP3    H113782   3.185   0.302   6.228
 4613TIP3    H213783   3.234   0.208   6.337
 4614TIP3   OH213784   4.950   5.279   2.173
 4614TIP3    H113785   4.882   5.218   2.145
 4614TIP3    H213786   5.023   5.264   2.112
 4615TIP3   OH213787   1.337   6.867   5.895
 4615TIP3    H113788   1.333   6.962   5.896
 4615TIP3    H213789   1.430   6.847   5.881
 4616TIP3   OH213790   0.100   2.830   3.759
 4616TIP3    H113791   0.072   2.922   3.759
 4616TIP3    H213792   0.163   2.824   3.687
 4617TIP3   OH213793   2.417   3.679   4.941
 4617TIP3    H113794   2.497   3.668   4.993
 4617TIP3    H213795   2.418   3.771   4.914
 4618TIP3   OH213796   1.584   1.875   3.306
 4618TIP3    H113797   1.509   1.816   3.315
 4618TIP3    H213798   1.553   1.943   3.245
 4619TIP3   OH213799   4.441   3.854   5.039
 4619TIP3    H113800   4.483   3.887   5.119
 4619TIP3    H213801   4.351   3.836   5.065
 4620TIP3   OH213802   7.985   6.141   1.579
 4620TIP3    H113803   7.972   6.048   1.596
 4620TIP3    H213804   7.958   6.153   1.488
 4621TIP3   OH213805   5.511   2.924   5.442
 4621TIP3    H113806   5.559   2.879   5.372
 4621TIP3    H213807   5.438   2.966   5.397
 4622TIP3   OH213808   8.126   2.333   2.265
 4622TIP3    H113809   8.207   2.295   2.233
 4622TIP3    H213810   8.066   2.330   2.190
 4623TIP3   OH213811   0.553   3.252   5.108
 4623TIP3    H113812   0.553   3.204   5.191
 4623TIP3    H213813   0.521   3.188   5.044
 4624TIP3   OH213814   4.325   6.931   3.774
 4624TIP3    H113815   4.378   6.998   3.818
 4624TIP3    H213816   4.267   6.981   3.716
 4625TIP3   OH213817   1.294   7.584   4.866
 4625TIP3    H113818   1.260   7.618   4.782
 4625TIP3    H213819   1.316   7.493   4.847
 4626TIP3   OH213820   4.161   4.466   0.003
 4626TIP3    H113821   4.146   4.442   0.095
 4626TIP3    H213822   4.216   4.545   0.007
 4627TIP3   OH213823   3.230   7.048   3.696
 4627TIP3    H113824   3.241   7.137   3.663
 4627TIP3    H213825   3.313   7.005   3.676
 4628TIP3   OH213826   5.926   6.092   1.545
 4628TIP3    H113827   6.020   6.082   1.563
 4628TIP3    H213828   5.918   6.078   1.451
 4629TIP3   OH213829   1.040   7.372   3.504
 4629TIP3    H113830   0.969   7.396   3.564
 4629TIP3    H213831   1.069   7.286   3.535
 4630TIP3   OH213832   5.295   1.793   5.919
 4630TIP3    H113833   5.381   1.833   5.929
 4630TIP3    H213834   5.290   1.730   5.991
 4631TIP3   OH213835   4.277   0.561   1.314
 4631TIP3    H113836   4.253   0.652   1.299
 4631TIP3    H213837   4.194   0.513   1.306
 4632TIP3   OH213838   4.003   1.677   1.561
 4632TIP3    H113839   3.973   1.705   1.648
 4632TIP3    H213840   3.946   1.604   1.538
 4633TIP3   OH213841   6.192   1.310   0.365
 4633TIP3    H113842   6.102   1.278   0.357
 4633TIP3    H213843   6.242   1.256   0.305
 4634TIP3   OH213844   5.142   5.228   1.135
 4634TIP3    H113845   5.057   5.270   1.127
 4634TIP3    H213846   5.203   5.292   1.098
 4635TIP3   OH213847   0.527   4.279   3.038
 4635TIP3    H113848   0.617   4.290   3.008
 4635TIP3    H213849   0.536   4.263   3.132
 4636TIP3   OH213850   8.145   5.170   4.065
 4636TIP3    H113851   8.111   5.090   4.104
 4636TIP3    H213852   8.070   5.206   4.017
 4637TIP3   OH213853   7.023   0.891   0.002
 4637TIP3    H113854   7.056   0.840   0.076
 4637TIP3    H213855   6.947   0.937   0.037
 4638TIP3   OH213856   8.222   4.679   5.397
 4638TIP3    H113857   8.273   4.625   5.337
 4638TIP3    H213858   8.279   4.690   5.473
 4639TIP3   OH213859   4.607   5.978   2.292
 4639TIP3    H113860   4.592   5.946   2.203
 4639TIP3    H213861   4.587   6.072   2.287
 4640TIP3   OH213862   4.578   1.851   0.575
 4640TIP3    H113863   4.604   1.931   0.528
 4640TIP3    H213864   4.488   1.834   0.546
 4641TIP3   OH213865   7.853   5.682   1.619
 4641TIP3    H113866   7.814   5.602   1.586
 4641TIP3    H213867   7.778   5.738   1.641
 4642TIP3   OH213868   4.678   4.382   6.174
 4642TIP3    H113869   4.660   4.472   6.201
 4642TIP3    H213870   4.599   4.354   6.129
 4643TIP3   OH213871   5.986   0.730   1.179
 4643TIP3    H113872   6.079   0.723   1.200
 4643TIP3    H213873   5.977   0.814   1.135
 4644TIP3   OH213874   5.173   3.757   2.251
 4644TIP3    H113875   5.129   3.840   2.271
 4644TIP3    H213876   5.231   3.778   2.178
 4645TIP3   OH213877   6.816   1.935   0.497
 4645TIP3    H113878   6.824   1.840   0.487
 4645TIP3    H213879   6.730   1.956   0.461
 4646TIP3   OH213880   0.680   4.729   5.101
 4646TIP3    H113881   0.624   4.653   5.119
 4646TIP3    H213882   0.659   4.791   5.171
 4647TIP3   OH213883   7.928   6.374   5.794
 4647TIP3    H113884   7.882   6.424   5.727
 4647TIP3    H213885   7.921   6.428   5.873
 4648TIP3   OH213886   1.391   1.586   6.149
 4648TIP3    H113887   1.361   1.503   6.113
 4648TIP3    H213888   1.396   1.645   6.074
 4649TIP3   OH213889   1.595   7.212   5.658
 4649TIP3    H113890   1.520   7.157   5.681
 4649TIP3    H213891   1.556   7.291   5.621
 4650TIP3   OH213892   0.016   4.915   1.716
 4650TIP3    H113893   0.081   4.892   1.650
 4650TIP3    H213894  -0.066   4.877   1.682
 4651TIP3   OH213895   4.129   0.214   0.736
 4651TIP3    H113896   4.142   0.205   0.641
 4651TIP3    H213897   4.197   0.276   0.764
 4652TIP3   OH213898   2.484   6.873   1.138
 4652TIP3    H113899   2.435   6.900   1.216
 4652TIP3    H213900   2.559   6.933   1.134
 4653TIP3   OH213901   2.067   0.166   0.883
 4653TIP3    H113902   2.017   0.152   0.963
 4653TIP3    H213903   2.005   0.209   0.824
 4654TIP3   OH213904   6.815   7.706   5.828
 4654TIP3    H113905   6.781   7.777   5.882
 4654TIP3    H213906   6.898   7.682   5.870
 4655TIP3   OH213907   7.977   0.247   1.564
 4655TIP3    H113908   7.957   0.329   1.609
 4655TIP3    H213909   7.922   0.249   1.486
 4656TIP3   OH213910   4.001   2.745   5.123
 4656TIP3    H113911   3.983   2.653   5.102
 4656TIP3    H213912   3.938   2.795   5.071
 4657TIP3   OH213913   0.910   4.287   4.480
 4657TIP3    H113914   0.900   4.356   4.545
 4657TIP3    H213915   0.850   4.312   4.410
 4658TIP3   OH213916   5.496   4.139   3.048
 4658TIP3    H113917   5.493   4.102   2.960
 4658TIP3    H213918   5.485   4.233   3.035
 4659TIP3   OH213919   2.993   7.597   5.820
 4659TIP3    H113920   3.020   7.682   5.856
 4659TIP3    H213921   2.985   7.612   5.726
 4660TIP3   OH213922   1.638   3.074   0.980
 4660TIP3    H113923   1.591   3.014   1.038
 4660TIP3    H213924   1.662   3.020   0.904
 4661TIP3   OH213925   2.918   4.083   2.399
 4661TIP3    H113926   2.948   4.066   2.310
 4661TIP3    H213927   2.996   4.069   2.453
 4662TIP3   OH213928   1.210   2.728   0.795
 4662TIP3    H113929   1.263   2.704   0.871
 4662TIP3    H213930   1.192   2.646   0.751
 4663TIP3   OH213931   0.717   3.598   1.307
 4663TIP3    H113932   0.644   3.659   1.317
 4663TIP3    H213933   0.683   3.514   1.336
 4664TIP3   OH213934   5.397   3.415   1.183
 4664TIP3    H113935   5.380   3.445   1.093
 4664TIP3    H213936   5.453   3.483   1.221
 4665TIP3   OH213937   2.378   4.354   2.053
 4665TIP3    H113938   2.401   4.268   2.018
 4665TIP3    H213939   2.434   4.416   2.006
 4666TIP3   OH213940   0.872   7.247   3.001
 4666TIP3    H113941   0.944   7.310   2.992
 4666TIP3    H213942   0.842   7.258   3.091
 4667TIP3   OH213943   1.059   7.574   3.309
 4667TIP3    H113944   0.968   7.601   3.296
 4667TIP3    H213945   1.054   7.502   3.372
 4668TIP3   OH213946   4.404   3.234   2.240
 4668TIP3    H113947   4.497   3.241   2.264
 4668TIP3    H213948   4.371   3.324   2.246
 4669TIP3   OH213949   3.968   6.060   5.870
 4669TIP3    H113950   3.889   6.016   5.838
 4669TIP3    H213951   4.011   5.995   5.925
 4670TIP3   OH213952   2.286   0.944   1.167
 4670TIP3    H113953   2.258   0.869   1.220
 4670TIP3    H213954   2.240   0.935   1.084
 4671TIP3   OH213955   2.151   2.976   4.485
 4671TIP3    H113956   2.140   2.918   4.561
 4671TIP3    H213957   2.092   2.940   4.418
 4672TIP3   OH213958   0.770   6.105   4.229
 4672TIP3    H113959   0.804   6.054   4.156
 4672TIP3    H213960   0.758   6.193   4.194
 4673TIP3   OH213961   4.885   2.251   4.831
 4673TIP3    H113962   4.866   2.163   4.797
 4673TIP3    H213963   4.946   2.289   4.768
 4674TIP3   OH213964   5.495   2.552   1.203
 4674TIP3    H113965   5.557   2.545   1.276
 4674TIP3    H213966   5.516   2.477   1.147
 4675TIP3   OH213967   1.108   2.070   6.316
 4675TIP3    H113968   1.096   1.989   6.365
 4675TIP3    H213969   1.187   2.056   6.264
 4676TIP3   OH213970   5.340   7.465   3.818
 4676TIP3    H113971   5.329   7.560   3.819
 4676TIP3    H213972   5.348   7.443   3.725
 4677TIP3   OH213973   2.491   0.870   3.327
 4677TIP3    H113974   2.482   0.960   3.296
 4677TIP3    H213975   2.403   0.846   3.356
 4678TIP3   OH213976   0.876   4.350   3.813
 4678TIP3    H113977   0.793   4.343   3.766
 4678TIP3    H213978   0.851   4.357   3.906
 4679TIP3   OH213979   0.817   6.308   6.663
 4679TIP3    H113980   0.869   6.388   6.663
 4679TIP3    H213981   0.731   6.336   6.695
 4680TIP3   OH213982   7.325   2.524   3.259
 4680TIP3    H113983   7.355   2.516   3.169
 4680TIP3    H213984   7.233   2.498   3.256
 4681TIP3   OH213985   5.336   2.670   6.698
 4681TIP3    H113986   5.340   2.654   6.603
 4681TIP3    H213987   5.382   2.595   6.736
 4682TIP3   OH213988   2.973   1.204   6.214
 4682TIP3    H113989   3.019   1.127   6.246
 4682TIP3    H213990   3.029   1.238   6.143
 4683TIP3   OH213991   2.882   5.683   2.116
 4683TIP3    H113992   2.898   5.724   2.201
 4683TIP3    H213993   2.788   5.667   2.114
 4684TIP3   OH213994   3.233   4.156   4.642
 4684TIP3    H113995   3.302   4.180   4.704
 4684TIP3    H213996   3.181   4.090   4.689
 4685TIP3   OH213997   4.835   7.661   6.547
 4685TIP3    H113998   4.894   7.652   6.622
 4685TIP3    H213999   4.883   7.621   6.474
 4686TIP3   OH214000   6.024   0.534   4.440
 4686TIP3    H114001   6.033   0.565   4.350
 4686TIP3    H214002   5.986   0.447   4.433
 4687TIP3   OH214003   0.386   1.788   0.455
 4687TIP3    H114004   0.456   1.851   0.473
 4687TIP3    H214005   0.416   1.740   0.378
 4688TIP3   OH214006   7.825   1.990   0.536
 4688TIP3    H114007   7.755   2.051   0.512
 4688TIP3    H214008   7.794   1.948   0.617
 4689TIP3   OH214009   1.933   0.741   1.159
 4689TIP3    H114010   2.015   0.728   1.112
 4689TIP3    H214011   1.887   0.657   1.150
 4690TIP3   OH214012   3.672   0.280   6.554
 4690TIP3    H114013   3.660   0.185   6.561
 4690TIP3    H214014   3.652   0.300   6.462
 4691TIP3   OH214015   4.553   2.272   1.289
 4691TIP3    H114016   4.583   2.355   1.253
 4691TIP3    H214017   4.631   2.234   1.330
 4692TIP3   OH214018   2.779   2.959   4.251
 4692TIP3    H114019   2.861   2.912   4.268
 4692TIP3    H214020   2.799   3.017   4.177
 4693TIP3   OH214021   1.765   1.213   4.890
 4693TIP3    H114022   1.828   1.154   4.931
 4693TIP3    H214023   1.794   1.221   4.799
 4694TIP3   OH214024   8.240   5.675   1.234
 4694TIP3    H114025   8.242   5.727   1.314
 4694TIP3    H214026   8.147   5.656   1.221
 4695TIP3   OH214027   0.339   1.156   0.692
 4695TIP3    H114028   0.305   1.117   0.773
 4695TIP3    H214029   0.277   1.126   0.624
 4696TIP3   OH214030   1.799   1.388   6.731
 4696TIP3    H114031   1.867   1.345   6.679
 4696TIP3    H214032   1.753   1.316   6.775
 4697TIP3   OH214033   7.716   2.143   2.445
 4697TIP3    H114034   7.657   2.068   2.453
 4697TIP3    H214035   7.804   2.105   2.451
 4698TIP3   OH214036   7.032   5.160   2.259
 4698TIP3    H114037   7.090   5.107   2.314
 4698TIP3    H214038   7.041   5.123   2.171
 4699TIP3   OH214039   0.552   4.477   5.154
 4699TIP3    H114040   0.526   4.446   5.240
 4699TIP3    H214041   0.472   4.471   5.101
 4700TIP3   OH214042   7.879   4.168   1.594
 4700TIP3    H114043   7.925   4.196   1.515
 4700TIP3    H214044   7.816   4.102   1.563
 4701TIP3   OH214045   5.571   2.060   1.003
 4701TIP3    H114046   5.553   1.966   1.008
 4701TIP3    H214047   5.632   2.076   1.075
 4702TIP3   OH214048   1.433   0.820   3.501
 4702TIP3    H114049   1.415   0.737   3.546
 4702TIP3    H214050   1.356   0.834   3.445
 4703TIP3   OH214051   5.316   7.258   3.047
 4703TIP3    H114052   5.304   7.203   2.969
 4703TIP3    H214053   5.260   7.218   3.113
 4704TIP3   OH214054   1.809   5.392   1.072
 4704TIP3    H114055   1.866   5.425   1.002
 4704TIP3    H214056   1.854   5.417   1.153
 4705TIP3   OH214057   8.023   2.470   3.474
 4705TIP3    H114058   8.007   2.455   3.381
 4705TIP3    H214059   7.991   2.558   3.490
 4706TIP3   OH214060   0.369   1.316   2.896
 4706TIP3    H114061   0.420   1.234   2.895
 4706TIP3    H214062   0.281   1.289   2.921
 4707TIP3   OH214063   8.012   4.773   0.556
 4707TIP3    H114064   8.093   4.805   0.516
 4707TIP3    H214065   8.014   4.678   0.543
 4708TIP3   OH214066   7.537   2.412   0.686
 4708TIP3    H114067   7.599   2.484   0.700
 4708TIP3    H214068   7.455   2.455   0.662
 4709TIP3   OH214069   3.434   6.207   2.518
 4709TIP3    H114070   3.365   6.165   2.569
 4709TIP3    H214071   3.466   6.278   2.575
 4710TIP3   OH214072   4.271   6.939   5.395
 4710TIP3    H114073   4.181   6.968   5.379
 4710TIP3    H214074   4.261   6.860   5.448
 4711TIP3   OH214075   4.291   1.081   0.351
 4711TIP3    H114076   4.277   1.129   0.432
 4711TIP3    H214077   4.281   0.989   0.375
 4712TIP3   OH214078   5.074   6.619   1.948
 4712TIP3    H114079   5.127   6.588   2.021
 4712TIP3    H214080   5.073   6.714   1.959
 4713TIP3   OH214081   0.913   4.561   6.724
 4713TIP3    H114082   0.838   4.536   6.779
 4713TIP3    H214083   0.888   4.532   6.636
 4714TIP3   OH214084   2.417   7.218   2.214
 4714TIP3    H114085   2.332   7.187   2.186
 4714TIP3    H214086   2.401   7.260   2.299
 4715TIP3   OH214087   5.326   6.848   5.429
 4715TIP3    H114088   5.397   6.909   5.413
 4715TIP3    H214089   5.258   6.872   5.367
 4716TIP3   OH214090   5.191   5.324   6.728
 4716TIP3    H114091   5.194   5.415   6.698
 4716TIP3    H214092   5.119   5.322   6.791
 4717TIP3   OH214093   0.179   0.244   2.947
 4717TIP3    H114094   0.100   0.228   2.896
 4717TIP3    H214095   0.239   0.174   2.921
 4718TIP3   OH214096   0.279   4.117   1.831
 4718TIP3    H114097   0.204   4.176   1.841
 4718TIP3    H214098   0.240   4.032   1.811
 4719TIP3   OH214099   3.741   0.830   5.777
 4719TIP3    H114100   3.815   0.771   5.785
 4719TIP3    H214101   3.700   0.830   5.864
 4720TIP3   OH214102   4.013   2.093   4.337
 4720TIP3    H114103   4.019   2.150   4.260
 4720TIP3    H214104   3.953   2.023   4.310
 4721TIP3   OH214105   6.175   4.818   0.412
 4721TIP3    H114106   6.088   4.855   0.397
 4721TIP3    H214107   6.158   4.731   0.449
 4722TIP3   OH214108   6.647   0.634   2.023
 4722TIP3    H114109   6.713   0.676   2.079
 4722TIP3    H214110   6.569   0.631   2.078
 4723TIP3   OH214111   4.584   1.474   4.078
 4723TIP3    H114112   4.667   1.506   4.113
 4723TIP3    H214113   4.603   1.386   4.048
 4724TIP3   OH214114   3.166   4.493   4.868
 4724TIP3    H114115   3.226   4.496   4.942
 4724TIP3    H214116   3.078   4.493   4.907
 4725TIP3   OH214117   7.007   5.879   1.854
 4725TIP3    H114118   7.080   5.826   1.887
 4725TIP3    H214119   6.954   5.817   1.803
 4726TIP3   OH214120   6.702   1.100   1.909
 4726TIP3    H114121   6.712   1.082   1.816
 4726TIP3    H214122   6.625   1.049   1.935
 4727TIP3   OH214123   0.056   3.179   1.846
 4727TIP3    H114124   0.072   3.221   1.931
 4727TIP3    H214125  -0.031   3.211   1.820
 4728TIP3   OH214126   2.956   4.888   2.592
 4728TIP3    H114127   2.875   4.836   2.593
 4728TIP3    H214128   2.929   4.973   2.626
 4729TIP3   OH214129   0.372   3.289   6.319
 4729TIP3    H114130   0.349   3.205   6.281
 4729TIP3    H214131   0.340   3.285   6.409
 4730TIP3   OH214132   5.984   3.099   4.942
 4730TIP3    H114133   5.915   3.076   4.880
 4730TIP3    H214134   5.959   3.054   5.023
 4731TIP3   OH214135   0.119   0.439   3.122
 4731TIP3    H114136   0.151   0.367   3.067
 4731TIP3    H214137   0.025   0.423   3.130
 4732TIP3   OH214138   7.380   5.741   2.908
 4732TIP3    H114139   7.449   5.717   2.970
 4732TIP3    H214140   7.378   5.837   2.910
 4733TIP3   OH214141   0.665   5.668   0.897
 4733TIP3    H114142   0.707   5.601   0.843
 4733TIP3    H214143   0.692   5.647   0.986
 4734TIP3   OH214144   5.609   3.595   5.088
 4734TIP3    H114145   5.548   3.648   5.037
 4734TIP3    H214146   5.567   3.588   5.174
 4735TIP3   OH214147   7.793   6.158   0.226
 4735TIP3    H114148   7.719   6.219   0.224
 4735TIP3    H214149   7.803   6.131   0.134
 4736TIP3   OH214150   5.423   2.370   6.306
 4736TIP3    H114151   5.370   2.328   6.373
 4736TIP3    H214152   5.408   2.464   6.319
 4737TIP3   OH214153   8.178   6.133   6.411
 4737TIP3    H114154   8.154   6.224   6.392
 4737TIP3    H214155   8.242   6.111   6.343
 4738TIP3   OH214156   3.342   1.391   0.030
 4738TIP3    H114157   3.419   1.423   0.078
 4738TIP3    H214158   3.291   1.343   0.095
 4739TIP3   OH214159   5.176   5.215   3.602
 4739TIP3    H114160   5.216   5.128   3.605
 4739TIP3    H214161   5.239   5.272   3.646
 4740TIP3   OH214162   7.560   7.258   1.144
 4740TIP3    H114163   7.478   7.217   1.173
 4740TIP3    H214164   7.588   7.204   1.070
 4741TIP3   OH214165   3.847   0.626   4.143
 4741TIP3    H114166   3.924   0.611   4.088
 4741TIP3    H214167   3.780   0.569   4.107
 4742TIP3   OH214168   5.349   5.689   4.663
 4742TIP3    H114169   5.431   5.641   4.675
 4742TIP3    H214170   5.360   5.736   4.581
 4743TIP3   OH214171   2.039   6.542   6.579
 4743TIP3    H114172   1.991   6.462   6.561
 4743TIP3    H214173   2.086   6.561   6.498
 4744TIP3   OH214174   5.502   6.964   3.387
 4744TIP3    H114175   5.591   6.999   3.389
 4744TIP3    H214176   5.502   6.902   3.314
 4745TIP3   OH214177   4.088   5.507   6.716
 4745TIP3    H114178   4.037   5.584   6.694
 4745TIP3    H214179   4.160   5.540   6.770
 4746TIP3   OH214180   0.256   6.983   1.523
 4746TIP3    H114181   0.302   6.969   1.440
 4746TIP3    H214182   0.214   6.898   1.541
 4747TIP3   OH214183   5.116   1.751   2.594
 4747TIP3    H114184   5.037   1.752   2.648
 4747TIP3    H214185   5.085   1.750   2.504
 4748TIP3   OH214186   2.935   3.699   0.920
 4748TIP3    H114187   2.888   3.628   0.876
 4748TIP3    H214188   3.020   3.703   0.875
 4749TIP3   OH214189   3.124   3.975   6.176
 4749TIP3    H114190   3.212   3.991   6.144
 4749TIP3    H214191   3.072   4.049   6.144
 4750TIP3   OH214192   7.462   5.405   3.220
 4750TIP3    H114193   7.506   5.418   3.136
 4750TIP3    H214194   7.389   5.347   3.200
 4751TIP3   OH214195   0.626   5.322   5.993
 4751TIP3    H114196   0.644   5.403   5.946
 4751TIP3    H214197   0.554   5.282   5.946
 4752TIP3   OH214198   2.805   4.708   0.887
 4752TIP3    H114199   2.742   4.729   0.818
 4752TIP3    H214200   2.779   4.764   0.960
 4753TIP3   OH214201   2.510   2.872   4.314
 4753TIP3    H114202   2.464   2.946   4.272
 4753TIP3    H214203   2.589   2.861   4.261
 4754TIP3   OH214204   6.204   4.510   2.342
 4754TIP3    H114205   6.196   4.436   2.402
 4754TIP3    H214206   6.256   4.575   2.390
 4755TIP3   OH214207   0.381   0.571   2.847
 4755TIP3    H114208   0.323   0.497   2.825
 4755TIP3    H214209   0.453   0.531   2.895
 4756TIP3   OH214210   8.055   4.982   0.796
 4756TIP3    H114211   8.131   4.950   0.748
 4756TIP3    H214212   7.982   4.972   0.735
 4757TIP3   OH214213   1.412   7.344   1.459
 4757TIP3    H114214   1.373   7.397   1.529
 4757TIP3    H214215   1.500   7.379   1.448
 4758TIP3   OH214216   2.337   3.396   5.598
 4758TIP3    H114217   2.372   3.481   5.572
 4758TIP3    H214218   2.366   3.385   5.689
 4759TIP3   OH214219   5.065   5.795   1.909
 4759TIP3    H114220   4.992   5.735   1.895
 4759TIP3    H214221   5.136   5.761   1.854
 4760TIP3   OH214222   6.853   7.754   3.367
 4760TIP3    H114223   6.917   7.787   3.430
 4760TIP3    H214224   6.770   7.755   3.414
 4761TIP3   OH214225   5.921   5.964   6.728
 4761TIP3    H114226   5.841   5.982   6.678
 4761TIP3    H214227   5.901   5.994   6.816
 4762TIP3   OH214228   7.633   6.522   4.323
 4762TIP3    H114229   7.662   6.576   4.397
 4762TIP3    H214230   7.557   6.568   4.289
 4763TIP3   OH214231   4.648   6.938   1.537
 4763TIP3    H114232   4.597   6.868   1.498
 4763TIP3    H214233   4.720   6.952   1.477
 4764TIP3   OH214234   4.480   0.510   4.737
 4764TIP3    H114235   4.513   0.424   4.762
 4764TIP3    H214236   4.508   0.568   4.808
 4765TIP3   OH214237   2.158   7.378   2.439
 4765TIP3    H114238   2.101   7.428   2.496
 4765TIP3    H214239   2.168   7.432   2.361
 4766TIP3   OH214240   8.282   7.248   3.180
 4766TIP3    H114241   8.232   7.270   3.101
 4766TIP3    H214242   8.235   7.292   3.251
 4767TIP3   OH214243   6.839   6.175   4.340
 4767TIP3    H114244   6.771   6.211   4.396
 4767TIP3    H214245   6.815   6.202   4.251
 4768TIP3   OH214246   7.214   7.005   0.825
 4768TIP3    H114247   7.133   7.026   0.777
 4768TIP3    H214248   7.254   6.935   0.774
 4769TIP3   OH214249   1.919   7.134   1.652
 4769TIP3    H114250   1.934   7.042   1.632
 4769TIP3    H214251   1.881   7.170   1.571
 4770TIP3   OH214252   5.374   1.129   6.352
 4770TIP3    H114253   5.365   1.042   6.314
 4770TIP3    H214254   5.303   1.135   6.416
 4771TIP3   OH214255   7.200   0.459   4.981
 4771TIP3    H114256   7.165   0.522   4.919
 4771TIP3    H214257   7.224   0.511   5.057
 4772TIP3   OH214258   7.557   7.644   4.271
 4772TIP3    H114259   7.488   7.663   4.208
 4772TIP3    H214260   7.552   7.717   4.334
 4773TIP3   OH214261   2.684   1.973   3.186
 4773TIP3    H114262   2.734   1.907   3.138
 4773TIP3    H214263   2.726   1.977   3.272
 4774TIP3   OH214264   3.650   3.183   5.591
 4774TIP3    H114265   3.662   3.160   5.499
 4774TIP3    H214266   3.580   3.126   5.621
 4775TIP3   OH214267   1.631   4.129   2.322
 4775TIP3    H114268   1.701   4.107   2.260
 4775TIP3    H214269   1.615   4.222   2.308
 4776TIP3   OH214270   7.075   7.636   0.650
 4776TIP3    H114271   7.105   7.594   0.569
 4776TIP3    H214272   7.068   7.729   0.627
 4777TIP3   OH214273   4.399   6.547   2.317
 4777TIP3    H114274   4.321   6.577   2.271
 4777TIP3    H214275   4.367   6.517   2.402
 4778TIP3   OH214276   6.998   0.587   2.060
 4778TIP3    H114277   7.000   0.505   2.108
 4778TIP3    H214278   6.977   0.653   2.126
 4779TIP3   OH214279   7.194   1.481   4.086
 4779TIP3    H114280   7.277   1.490   4.133
 4779TIP3    H214281   7.194   1.391   4.054
 4780TIP3   OH214282   0.451   1.540   2.281
 4780TIP3    H114283   0.382   1.591   2.240
 4780TIP3    H214284   0.501   1.604   2.332
 4781TIP3   OH214285   5.184   3.477   5.012
 4781TIP3    H114286   5.119   3.547   5.014
 4781TIP3    H214287   5.136   3.401   4.979
 4782TIP3   OH214288   2.523   0.855   3.690
 4782TIP3    H114289   2.451   0.844   3.628
 4782TIP3    H214290   2.598   0.811   3.648
 4783TIP3   OH214291   5.279   6.373   5.477
 4783TIP3    H114292   5.221   6.369   5.553
 4783TIP3    H214293   5.244   6.308   5.416
 4784TIP3   OH214294   5.981   1.062   4.535
 4784TIP3    H114295   5.901   1.097   4.573
 4784TIP3    H214296   6.047   1.129   4.552
 4785TIP3   OH214297   2.005   2.877   0.535
 4785TIP3    H114298   2.033   2.832   0.456
 4785TIP3    H214299   1.909   2.874   0.532
 4786TIP3   OH214300   4.313   0.633   6.495
 4786TIP3    H114301   4.219   0.645   6.497
 4786TIP3    H214302   4.343   0.684   6.420
 4787TIP3   OH214303   3.493   4.872   5.054
 4787TIP3    H114304   3.519   4.963   5.041
 4787TIP3    H214305   3.523   4.827   4.975
 4788TIP3   OH214306   5.689   5.321   6.269
 4788TIP3    H114307   5.712   5.313   6.177
 4788TIP3    H214308   5.635   5.244   6.287
 4789TIP3   OH214309   4.409   5.847   2.495
 4789TIP3    H114310   4.339   5.865   2.433
 4789TIP3    H214311   4.490   5.863   2.447
 4790TIP3   OH214312   2.991   7.283   2.282
 4790TIP3    H114313   3.030   7.324   2.205
 4790TIP3    H214314   2.937   7.212   2.247
 4791TIP3   OH214315   2.440   4.155   2.591
 4791TIP3    H114316   2.353   4.133   2.624
 4791TIP3    H214317   2.425   4.229   2.533
 4792TIP3   OH214318   6.261   0.300   6.127
 4792TIP3    H114319   6.240   0.370   6.065
 4792TIP3    H214320   6.293   0.229   6.072
 4793TIP3   OH214321   4.569   6.140   1.804
 4793TIP3    H114322   4.647   6.093   1.832
 4793TIP3    H214323   4.513   6.073   1.765
 4794TIP3   OH214324   0.354   2.599   2.827
 4794TIP3    H114325   0.375   2.651   2.904
 4794TIP3    H214326   0.280   2.644   2.787
 4795TIP3   OH214327   1.545   3.222   5.782
 4795TIP3    H114328   1.455   3.190   5.783
 4795TIP3    H214329   1.582   3.192   5.865
 4796TIP3   OH214330   7.507   4.818   5.316
 4796TIP3    H114331   7.534   4.910   5.318
 4796TIP3    H214332   7.533   4.787   5.229
 4797TIP3   OH214333   0.497   1.334   4.793
 4797TIP3    H114334   0.474   1.320   4.885
 4797TIP3    H214335   0.557   1.262   4.773
 4798TIP3   OH214336   7.886   6.730   6.693
 4798TIP3    H114337   7.873   6.650   6.642
 4798TIP3    H214338   7.930   6.790   6.634
 4799TIP3   OH214339   5.614   7.571   6.371
 4799TIP3    H114340   5.601   7.561   6.277
 4799TIP3    H214341   5.565   7.650   6.394
 4800TIP3   OH214342   6.753   2.759   1.860
 4800TIP3    H114343   6.709   2.784   1.779
 4800TIP3    H214344   6.825   2.702   1.832
 4801TIP3   OH214345   4.519   7.561   2.457
 4801TIP3    H114346   4.504   7.474   2.419
 4801TIP3    H214347   4.432   7.600   2.464
 4802TIP3   OH214348   0.696   7.208   5.128
 4802TIP3    H114349   0.603   7.232   5.135
 4802TIP3    H214350   0.717   7.169   5.213
 4803TIP3   OH214351   6.577   2.462   1.823
 4803TIP3    H114352   6.539   2.494   1.904
 4803TIP3    H214353   6.553   2.528   1.758
 4804TIP3   OH214354   0.205   5.508   1.934
 4804TIP3    H114355   0.255   5.426   1.935
 4804TIP3    H214356   0.263   5.571   1.890
 4805TIP3   OH214357   6.702   1.274   5.424
 4805TIP3    H114358   6.735   1.256   5.336
 4805TIP3    H214359   6.777   1.310   5.471
 4806TIP3   OH214360   5.948   0.295   0.363
 4806TIP3    H114361   5.858   0.326   0.353
 4806TIP3    H214362   5.987   0.354   0.427
 4807TIP3   OH214363   4.131   3.535   4.094
 4807TIP3    H114364   4.147   3.538   4.000
 4807TIP3    H214365   4.203   3.586   4.132
 4808TIP3   OH214366   5.032   0.683   2.039
 4808TIP3    H114367   4.948   0.722   2.064
 4808TIP3    H214368   5.096   0.752   2.056
 4809TIP3   OH214369   1.960   0.166   2.744
 4809TIP3    H114370   1.890   0.231   2.753
 4809TIP3    H214371   1.951   0.111   2.822
 4810TIP3   OH214372   0.303   3.820   5.152
 4810TIP3    H114373   0.228   3.763   5.168
 4810TIP3    H214374   0.326   3.855   5.238
 4811TIP3   OH214375   0.097   4.730   4.435
 4811TIP3    H114376   0.009   4.770   4.440
 4811TIP3    H214377   0.129   4.755   4.348
 4812TIP3   OH214378   1.999   1.897   3.686
 4812TIP3    H114379   2.042   1.925   3.767
 4812TIP3    H214380   1.917   1.946   3.684
 4813TIP3   OH214381   7.013   4.918   3.720
 4813TIP3    H114382   7.079   4.849   3.712
 4813TIP3    H214383   7.005   4.931   3.815
 4814TIP3   OH214384   0.847   1.008   4.306
 4814TIP3    H114385   0.808   0.993   4.392
 4814TIP3    H214386   0.893   1.092   4.315
 4815TIP3   OH214387   4.217   6.681   5.550
 4815TIP3    H114388   4.151   6.648   5.489
 4815TIP3    H214389   4.179   6.668   5.637
 4816TIP3   OH214390   4.221   3.913   5.219
 4816TIP3    H114391   4.202   4.004   5.241
 4816TIP3    H214392   4.236   3.870   5.303
 4817TIP3   OH214393   1.910   3.197   6.615
 4817TIP3    H114394   1.871   3.280   6.589
 4817TIP3    H214395   1.984   3.222   6.672
 4818TIP3   OH214396   6.373   6.276   1.022
 4818TIP3    H114397   6.468   6.287   1.012
 4818TIP3    H214398   6.363   6.227   1.103
 4819TIP3   OH214399   3.567   1.467   3.515
 4819TIP3    H114400   3.572   1.560   3.493
 4819TIP3    H214401   3.653   1.447   3.553
 4820TIP3   OH214402   2.990   1.776   2.346
 4820TIP3    H114403   2.955   1.777   2.435
 4820TIP3    H214404   2.968   1.689   2.313
 4821TIP3   OH214405   1.957   0.901   1.693
 4821TIP3    H114406   1.881   0.956   1.713
 4821TIP3    H214407   1.937   0.862   1.608
 4822TIP3   OH214408   7.345   6.169   2.568
 4822TIP3    H114409   7.308   6.082   2.558
 4822TIP3    H214410   7.429   6.165   2.521
 4823TIP3   OH214411   3.662   0.699   1.525
 4823TIP3    H114412   3.589   0.754   1.554
 4823TIP3    H214413   3.667   0.629   1.590
 4824TIP3   OH214414   8.259   6.570   3.731
 4824TIP3    H114415   8.215   6.632   3.672
 4824TIP3    H214416   8.191   6.542   3.792
 4825TIP3   OH214417   4.114   4.907   0.312
 4825TIP3    H114418   4.096   4.876   0.223
 4825TIP3    H214419   4.037   4.881   0.363
 4826TIP3   OH214420   2.714   7.775   1.418
 4826TIP3    H114421   2.717   7.680   1.408
 4826TIP3    H214422   2.649   7.805   1.354
 4827TIP3   OH214423   5.332   0.461   5.527
 4827TIP3    H114424   5.264   0.454   5.595
 4827TIP3    H214425   5.321   0.383   5.474
 4828TIP3   OH214426   8.087   2.234   4.178
 4828TIP3    H114427   7.999   2.264   4.153
 4828TIP3    H214428   8.108   2.165   4.115
 4829TIP3   OH214429   5.528   6.437   0.324
 4829TIP3    H114430   5.511   6.345   0.304
 4829TIP3    H214431   5.462   6.485   0.274
 4830TIP3   OH214432   0.813   3.122   3.108
 4830TIP3    H114433   0.881   3.055   3.099
 4830TIP3    H214434   0.814   3.145   3.201
 4831TIP3   OH214435   0.697   7.692   6.293
 4831TIP3    H114436   0.623   7.695   6.232
 4831TIP3    H214437   0.697   7.603   6.328
 4832TIP3   OH214438   5.293   6.308   4.255
 4832TIP3    H114439   5.373   6.352   4.285
 4832TIP3    H214440   5.286   6.230   4.310
 4833TIP3   OH214441   4.203   0.877   2.198
 4833TIP3    H114442   4.207   0.961   2.243
 4833TIP3    H214443   4.228   0.897   2.108
 4834TIP3   OH214444   5.808   3.927   0.547
 4834TIP3    H114445   5.881   3.873   0.515
 4834TIP3    H214446   5.739   3.916   0.482
 4835TIP3   OH214447   8.120   5.435   6.525
 4835TIP3    H114448   8.063   5.417   6.450
 4835TIP3    H214449   8.108   5.528   6.542
 4836TIP3   OH214450   4.423   2.629   0.213
 4836TIP3    H114451   4.428   2.554   0.272
 4836TIP3    H214452   4.509   2.671   0.220
 4837TIP3   OH214453   1.711   2.916   1.383
 4837TIP3    H114454   1.758   2.990   1.344
 4837TIP3    H214455   1.758   2.898   1.464
 4838TIP3   OH214456   6.587   3.044   6.672
 4838TIP3    H114457   6.602   3.019   6.763
 4838TIP3    H214458   6.492   3.038   6.660
 4839TIP3   OH214459   6.733   7.515   2.105
 4839TIP3    H114460   6.795   7.484   2.171
 4839TIP3    H214461   6.717   7.607   2.128
 4840TIP3   OH214462   7.172   2.077   2.507
 4840TIP3    H114463   7.105   2.143   2.489
 4840TIP3    H214464   7.241   2.125   2.553
 4841TIP3   OH214465   0.964   2.063   5.473
 4841TIP3    H114466   1.005   2.100   5.395
 4841TIP3    H214467   0.929   1.978   5.445
 4842TIP3   OH214468   1.850   1.527   1.733
 4842TIP3    H114469   1.786   1.469   1.692
 4842TIP3    H214470   1.917   1.541   1.666
 4843TIP3   OH214471   2.483   2.199   2.319
 4843TIP3    H114472   2.497   2.248   2.238
 4843TIP3    H214473   2.488   2.107   2.293
 4844TIP3   OH214474   5.722   5.634   1.919
 4844TIP3    H114475   5.751   5.724   1.932
 4844TIP3    H214476   5.783   5.581   1.971
 4845TIP3   OH214477   4.614   2.720   1.789
 4845TIP3    H114478   4.639   2.629   1.772
 4845TIP3    H214479   4.583   2.721   1.879
 4846TIP3   OH214480   2.016   5.615   3.588
 4846TIP3    H114481   2.021   5.651   3.677
 4846TIP3    H214482   2.000   5.691   3.532
 4847TIP3   OH214483   4.474   0.441   6.288
 4847TIP3    H114484   4.546   0.427   6.226
 4847TIP3    H214485   4.514   0.430   6.374
 4848TIP3   OH214486   3.705   6.984   2.165
 4848TIP3    H114487   3.718   7.051   2.098
 4848TIP3    H214488   3.769   6.916   2.144
 4849TIP3   OH214489   1.350   2.361   4.327
 4849TIP3    H114490   1.404   2.429   4.368
 4849TIP3    H214491   1.260   2.386   4.347
 4850TIP3   OH214492   3.376   3.022   0.560
 4850TIP3    H114493   3.422   3.052   0.482
 4850TIP3    H214494   3.443   2.981   0.614
 4851TIP3   OH214495   7.486   6.830   6.009
 4851TIP3    H114496   7.462   6.856   6.098
 4851TIP3    H214497   7.417   6.868   5.954
 4852TIP3   OH214498   6.855   3.382   4.542
 4852TIP3    H114499   6.869   3.473   4.567
 4852TIP3    H214500   6.836   3.337   4.625
 4853TIP3   OH214501   3.094   5.400   1.834
 4853TIP3    H114502   3.005   5.367   1.845
 4853TIP3    H214503   3.133   5.393   1.921
 4854TIP3   OH214504   4.233   7.679   2.007
 4854TIP3    H114505   4.307   7.695   1.948
 4854TIP3    H214506   4.184   7.761   2.006
 4855TIP3   OH214507   5.717   5.165   6.506
 4855TIP3    H114508   5.768   5.201   6.579
 4855TIP3    H214509   5.710   5.238   6.444
 4856TIP3   OH214510   0.914   5.574   5.527
 4856TIP3    H114511   0.906   5.487   5.566
 4856TIP3    H214512   0.995   5.571   5.475
 4857TIP3   OH214513   7.647   6.009   1.396
 4857TIP3    H114514   7.656   5.941   1.464
 4857TIP3    H214515   7.735   6.044   1.386
 4858TIP3   OH214516   0.176   3.915   0.326
 4858TIP3    H114517   0.177   3.883   0.416
 4858TIP3    H214518   0.232   3.993   0.328
 4859TIP3   OH214519   1.783   0.401   5.991
 4859TIP3    H114520   1.768   0.370   5.902
 4859TIP3    H214521   1.865   0.359   6.018
 4860TIP3   OH214522   7.464   2.277   6.701
 4860TIP3    H114523   7.396   2.339   6.674
 4860TIP3    H214524   7.511   2.322   6.771
 4861TIP3   OH214525   7.005   0.661   2.638
 4861TIP3    H114526   7.021   0.611   2.719
 4861TIP3    H214527   7.052   0.743   2.652
 4862TIP3   OH214528   1.309   2.232   5.256
 4862TIP3    H114529   1.333   2.322   5.275
 4862TIP3    H214530   1.216   2.235   5.235
 4863TIP3   OH214531   4.503   2.932   6.699
 4863TIP3    H114532   4.481   3.018   6.735
 4863TIP3    H214533   4.579   2.903   6.750
 4864TIP3   OH214534   4.013   7.314   2.986
 4864TIP3    H114535   4.105   7.335   2.967
 4864TIP3    H214536   3.990   7.246   2.922
 4865TIP3   OH214537   5.430   4.081   5.664
 4865TIP3    H114538   5.429   3.994   5.703
 4865TIP3    H214539   5.516   4.116   5.684
 4866TIP3   OH214540   4.296   2.307   5.806
 4866TIP3    H114541   4.251   2.223   5.811
 4866TIP3    H214542   4.384   2.289   5.839
 4867TIP3   OH214543   0.247   3.899   4.514
 4867TIP3    H114544   0.289   3.860   4.591
 4867TIP3    H214545   0.210   3.825   4.466
 4868TIP3   OH214546   5.685   0.140   3.545
 4868TIP3    H114547   5.609   0.089   3.516
 4868TIP3    H214548   5.664   0.230   3.522
 4869TIP3   OH214549   5.035   7.104   4.743
 4869TIP3    H114550   5.036   7.114   4.648
 4869TIP3    H214551   5.057   7.190   4.777
 4870TIP3   OH214552   2.154   3.394   0.500
 4870TIP3    H114553   2.226   3.381   0.562
 4870TIP3    H214554   2.128   3.485   0.513
 4871TIP3   OH214555   4.984   4.752   1.801
 4871TIP3    H114556   5.027   4.833   1.825
 4871TIP3    H214557   5.037   4.683   1.841
 4872TIP3   OH214558   4.505   3.015   1.671
 4872TIP3    H114559   4.597   3.027   1.697
 4872TIP3    H214560   4.492   3.077   1.600
 4873TIP3   OH214561   0.047   7.330   3.752
 4873TIP3    H114562  -0.046   7.343   3.771
 4873TIP3    H214563   0.048   7.262   3.685
 4874TIP3   OH214564   8.093   3.927   2.188
 4874TIP3    H114565   8.169   3.984   2.176
 4874TIP3    H214566   8.019   3.987   2.197
 4875TIP3   OH214567   2.677   6.346   1.412
 4875TIP3    H114568   2.668   6.382   1.323
 4875TIP3    H214569   2.762   6.377   1.442
 4876TIP3   OH214570   1.749   3.721   6.606
 4876TIP3    H114571   1.781   3.802   6.567
 4876TIP3    H214572   1.654   3.734   6.614
 4877TIP3   OH214573   2.630   4.444   0.514
 4877TIP3    H114574   2.657   4.375   0.454
 4877TIP3    H214575   2.594   4.513   0.457
 4878TIP3   OH214576   3.545   6.836   1.898
 4878TIP3    H114577   3.641   6.845   1.899
 4878TIP3    H214578   3.512   6.926   1.899
 4879TIP3   OH214579   4.081   0.150   1.581
 4879TIP3    H114580   4.138   0.091   1.532
 4879TIP3    H214581   3.993   0.134   1.546
 4880TIP3   OH214582   6.196   3.871   0.231
 4880TIP3    H114583   6.246   3.930   0.174
 4880TIP3    H214584   6.168   3.801   0.173
 4881TIP3   OH214585   5.678   1.022   4.593
 4881TIP3    H114586   5.635   1.049   4.511
 4881TIP3    H214587   5.750   0.965   4.565
 4882TIP3   OH214588   1.577   3.677   4.131
 4882TIP3    H114589   1.590   3.590   4.092
 4882TIP3    H214590   1.536   3.729   4.062
 4883TIP3   OH214591   7.178   4.489   2.937
 4883TIP3    H114592   7.215   4.402   2.955
 4883TIP3    H214593   7.245   4.550   2.968
 4884TIP3   OH214594   6.531   5.956   2.742
 4884TIP3    H114595   6.477   5.944   2.820
 4884TIP3    H214596   6.580   6.037   2.758
 4885TIP3   OH214597   1.087   2.714   6.199
 4885TIP3    H114598   1.015   2.670   6.154
 4885TIP3    H214599   1.129   2.767   6.131
 4886TIP3   OH214600   1.614   3.008   1.736
 4886TIP3    H114601   1.538   2.962   1.770
 4886TIP3    H214602   1.593   3.101   1.746
 4887TIP3   OH214603   8.087   3.139   6.625
 4887TIP3    H114604   8.003   3.144   6.670
 4887TIP3    H214605   8.151   3.124   6.695
 4888TIP3   OH214606   4.135   0.112   1.111
 4888TIP3    H114607   4.191   0.063   1.051
 4888TIP3    H214608   4.171   0.094   1.198
 4889TIP3   OH214609   0.176   2.204   3.793
 4889TIP3    H114610   0.218   2.225   3.877
 4889TIP3    H214611   0.084   2.225   3.807
 4890TIP3   OH214612   7.257   3.543   5.905
 4890TIP3    H114613   7.272   3.565   5.813
 4890TIP3    H214614   7.191   3.474   5.903
 4891TIP3   OH214615   5.692   4.713   1.597
 4891TIP3    H114616   5.776   4.671   1.616
 4891TIP3    H214617   5.653   4.728   1.683
 4892TIP3   OH214618   3.625   2.604   2.951
 4892TIP3    H114619   3.673   2.524   2.928
 4892TIP3    H214620   3.687   2.656   3.001
 4893TIP3   OH214621   2.461   4.401   1.129
 4893TIP3    H114622   2.402   4.401   1.055
 4893TIP3    H214623   2.408   4.370   1.203
 4894TIP3   OH214624   2.110   2.340   4.466
 4894TIP3    H114625   2.113   2.416   4.524
 4894TIP3    H214626   2.046   2.365   4.399
 4895TIP3   OH214627   4.446   6.971   4.170
 4895TIP3    H114628   4.395   7.005   4.096
 4895TIP3    H214629   4.523   6.931   4.129
 4896TIP3   OH214630   3.068   6.021   2.025
 4896TIP3    H114631   3.129   5.992   1.958
 4896TIP3    H214632   3.087   6.114   2.037
 4897TIP3   OH214633   2.470   0.951   5.530
 4897TIP3    H114634   2.445   0.918   5.443
 4897TIP3    H214635   2.546   0.898   5.554
 4898TIP3   OH214636   6.166   0.038   3.674
 4898TIP3    H114637   6.170   0.001   3.763
 4898TIP3    H214638   6.073   0.060   3.662
 4899TIP3   OH214639   6.271   7.541   3.187
 4899TIP3    H114640   6.186   7.498   3.196
 4899TIP3    H214641   6.312   7.496   3.113
 4900TIP3   OH214642   2.386   6.377   1.211
 4900TIP3    H114643   2.377   6.450   1.150
 4900TIP3    H214644   2.426   6.415   1.289
 4901TIP3   OH214645   7.552   5.403   6.210
 4901TIP3    H114646   7.536   5.468   6.279
 4901TIP3    H214647   7.645   5.383   6.218
 4902TIP3   OH214648   3.936   5.259   1.863
 4902TIP3    H114649   4.030   5.251   1.845
 4902TIP3    H214650   3.909   5.172   1.893
 4903TIP3   OH214651   8.104   1.047   5.910
 4903TIP3    H114652   8.022   1.029   5.864
 4903TIP3    H214653   8.077   1.090   5.991
 4904TIP3   OH214654   1.397   0.761   5.182
 4904TIP3    H114655   1.470   0.755   5.121
 4904TIP3    H214656   1.351   0.842   5.157
 4905TIP3   OH214657   4.590   3.599   2.340
 4905TIP3    H114658   4.614   3.517   2.298
 4905TIP3    H214659   4.642   3.665   2.294
 4906TIP3   OH214660   0.200   0.392   5.058
 4906TIP3    H114661   0.148   0.315   5.084
 4906TIP3    H214662   0.137   0.464   5.059
 4907TIP3   OH214663   4.694   1.011   3.317
 4907TIP3    H114664   4.686   0.918   3.337
 4907TIP3    H214665   4.636   1.054   3.380
 4908TIP3   OH214666   7.346   5.255   6.326
 4908TIP3    H114667   7.395   5.318   6.273
 4908TIP3    H214668   7.401   5.239   6.402
 4909TIP3   OH214669   6.403   6.834   0.169
 4909TIP3    H114670   6.326   6.787   0.202
 4909TIP3    H214671   6.473   6.769   0.174
 4910TIP3   OH214672   4.979   2.101   2.704
 4910TIP3    H114673   5.041   2.037   2.740
 4910TIP3    H214674   4.909   2.106   2.770
 4911TIP3   OH214675   8.273   5.357   1.700
 4911TIP3    H114676   8.255   5.438   1.748
 4911TIP3    H214677   8.232   5.288   1.753
 4912TIP3   OH214678   4.959   1.424   3.891
 4912TIP3    H114679   4.944   1.398   3.800
 4912TIP3    H214680   5.011   1.353   3.928
 4913TIP3   OH214681   3.327   4.673   1.684
 4913TIP3    H114682   3.366   4.596   1.726
 4913TIP3    H214683   3.402   4.729   1.663
 4914TIP3   OH214684   5.872   2.444   2.296
 4914TIP3    H114685   5.823   2.513   2.340
 4914TIP3    H214686   5.805   2.383   2.265
 4915TIP3   OH214687   0.253   3.287   2.045
 4915TIP3    H114688   0.311   3.237   2.102
 4915TIP3    H214689   0.193   3.332   2.104
 4916TIP3   OH214690   1.539   1.234   4.636
 4916TIP3    H114691   1.609   1.170   4.641
 4916TIP3    H214692   1.582   1.319   4.645
 4917TIP3   OH214693   4.960   3.055   1.951
 4917TIP3    H114694   5.011   2.974   1.952
 4917TIP3    H214695   5.024   3.124   1.965
 4918TIP3   OH214696   7.199   1.318   0.985
 4918TIP3    H114697   7.178   1.364   1.067
 4918TIP3    H214698   7.176   1.227   1.002
 4919TIP3   OH214699   2.170   0.669   0.427
 4919TIP3    H114700   2.226   0.592   0.438
 4919TIP3    H214701   2.220   0.727   0.370
 4920TIP3   OH214702   4.040   2.570   6.486
 4920TIP3    H114703   3.980   2.645   6.492
 4920TIP3    H214704   4.001   2.515   6.418
 4921TIP3   OH214705   3.007   2.836   4.890
 4921TIP3    H114706   2.927   2.876   4.855
 4921TIP3    H214707   3.078   2.877   4.842
 4922TIP3   OH214708   4.525   5.953   3.365
 4922TIP3    H114709   4.506   6.020   3.432
 4922TIP3    H214710   4.439   5.918   3.342
 4923TIP3   OH214711   4.168   1.839   1.408
 4923TIP3    H114712   4.118   1.906   1.361
 4923TIP3    H214713   4.113   1.816   1.482
 4924TIP3   OH214714   2.535   0.889   1.043
 4924TIP3    H114715   2.455   0.934   1.072
 4924TIP3    H214716   2.598   0.904   1.113
 4925TIP3   OH214717   7.170   0.933   4.712
 4925TIP3    H114718   7.219   0.993   4.655
 4925TIP3    H214719   7.226   0.856   4.720
 4926TIP3   OH214720   0.357   0.272   6.003
 4926TIP3    H114721   0.391   0.207   6.064
 4926TIP3    H214722   0.266   0.284   6.029
 4927TIP3   OH214723   3.235   3.073   6.020
 4927TIP3    H114724   3.223   3.147   5.960
 4927TIP3    H214725   3.314   3.095   6.069
 4928TIP3   OH214726   7.047   3.341   6.336
 4928TIP3    H114727   7.127   3.378   6.372
 4928TIP3    H214728   6.980   3.407   6.355
 4929TIP3   OH214729   2.535   0.432   3.758
 4929TIP3    H114730   2.489   0.421   3.841
 4929TIP3    H214731   2.596   0.505   3.773
 4930TIP3   OH214732   1.895   5.976   0.139
 4930TIP3    H114733   1.988   5.998   0.144
 4930TIP3    H214734   1.867   6.006   0.053
 4931TIP3   OH214735   6.234   3.834   2.212
 4931TIP3    H114736   6.161   3.854   2.270
 4931TIP3    H214737   6.310   3.874   2.254
 4932TIP3   OH214738   1.250   5.616   1.344
 4932TIP3    H114739   1.263   5.633   1.437
 4932TIP3    H214740   1.238   5.521   1.339
 4933TIP3   OH214741   0.778   1.761   1.909
 4933TIP3    H114742   0.833   1.818   1.856
 4933TIP3    H214743   0.813   1.769   1.998
 4934TIP3   OH214744   0.136   0.162   1.998
 4934TIP3    H114745   0.147   0.208   1.914
 4934TIP3    H214746   0.194   0.209   2.058
 4935TIP3   OH214747   7.422   1.974   0.860
 4935TIP3    H114748   7.345   2.028   0.876
 4935TIP3    H214749   7.407   1.894   0.912
 4936TIP3   OH214750   7.878   1.448   2.036
 4936TIP3    H114751   7.794   1.485   2.011
 4936TIP3    H214752   7.858   1.385   2.106
 4937TIP3   OH214753   5.721   7.405   2.677
 4937TIP3    H114754   5.814   7.415   2.695
 4937TIP3    H214755   5.697   7.485   2.630
 4938TIP3   OH214756   5.924   3.935   5.411
 4938TIP3    H114757   5.924   4.010   5.352
 4938TIP3    H214758   5.996   3.880   5.380
 4939TIP3   OH214759   2.267   5.179   3.105
 4939TIP3    H114760   2.315   5.103   3.138
 4939TIP3    H214761   2.195   5.142   3.055
 4940TIP3   OH214762   6.720   1.590   5.565
 4940TIP3    H114763   6.812   1.578   5.585
 4940TIP3    H214764   6.714   1.573   5.471
 4941TIP3   OH214765   3.212   3.270   5.821
 4941TIP3    H114766   3.282   3.285   5.757
 4941TIP3    H214767   3.202   3.354   5.865
 4942TIP3   OH214768   6.339   1.286   5.780
 4942TIP3    H114769   6.408   1.221   5.772
 4942TIP3    H214770   6.296   1.266   5.863
 4943TIP3   OH214771   7.169   5.432   4.323
 4943TIP3    H114772   7.093   5.471   4.365
 4943TIP3    H214773   7.167   5.463   4.233
 4944TIP3   OH214774   3.334   7.152   5.032
 4944TIP3    H114775   3.348   7.112   5.117
 4944TIP3    H214776   3.239   7.151   5.019
 4945TIP3   OH214777   6.262   0.599   5.721
 4945TIP3    H114778   6.190   0.646   5.677
 4945TIP3    H214779   6.341   0.647   5.695
 4946TIP3   OH214780   1.948   5.394   1.814
 4946TIP3    H114781   1.901   5.477   1.812
 4946TIP3    H214782   1.902   5.342   1.879
 4947TIP3   OH214783   0.595   4.907   4.751
 4947TIP3    H114784   0.685   4.874   4.753
 4947TIP3    H214785   0.541   4.832   4.777
 4948TIP3   OH214786   6.886   5.566   6.073
 4948TIP3    H114787   6.935   5.626   6.129
 4948TIP3    H214788   6.906   5.479   6.109
 4949TIP3   OH214789   3.846   0.032   1.072
 4949TIP3    H114790   3.796   0.113   1.063
 4949TIP3    H214791   3.934   0.060   1.094
 4950TIP3   OH214792   4.124   7.849   5.568
 4950TIP3    H114793   4.164   7.765   5.546
 4950TIP3    H214794   4.030   7.831   5.574
 4951TIP3   OH214795   6.000   5.340   6.411
 4951TIP3    H114796   6.076   5.395   6.430
 4951TIP3    H214797   5.953   5.334   6.494
 4952TIP3   OH214798   3.691   2.705   2.647
 4952TIP3    H114799   3.739   2.623   2.636
 4952TIP3    H214800   3.735   2.767   2.589
 4953TIP3   OH214801   7.851   2.196   5.264
 4953TIP3    H114802   7.897   2.167   5.185
 4953TIP3    H214803   7.773   2.139   5.267
 4954TIP3   OH214804   6.085   4.529   5.129
 4954TIP3    H114805   6.068   4.597   5.194
 4954TIP3    H214806   6.060   4.568   5.046
 4955TIP3   OH214807   1.374   0.464   4.667
 4955TIP3    H114808   1.323   0.492   4.743
 4955TIP3    H214809   1.312   0.417   4.611
 4956TIP3   OH214810   0.343   6.723   0.672
 4956TIP3    H114811   0.336   6.683   0.586
 4956TIP3    H214812   0.327   6.816   0.657
 4957TIP3   OH214813   7.215   4.247   0.263
 4957TIP3    H114814   7.121   4.228   0.255
 4957TIP3    H214815   7.258   4.168   0.232
 4958TIP3   OH214816   8.055   4.330   6.103
 4958TIP3    H114817   7.982   4.268   6.106
 4958TIP3    H214818   8.086   4.335   6.194
 4959TIP3   OH214819   8.208   5.997   4.938
 4959TIP3    H114820   8.218   5.904   4.916
 4959TIP3    H214821   8.118   6.018   4.912
 4960TIP3   OH214822   6.578   6.052   3.999
 4960TIP3    H114823   6.566   6.143   4.026
 4960TIP3    H214824   6.492   6.024   3.969
 4961TIP3   OH214825   7.515   1.789   2.554
 4961TIP3    H114826   7.505   1.868   2.607
 4961TIP3    H214827   7.539   1.821   2.467
 4962TIP3   OH214828   2.677   3.997   0.250
 4962TIP3    H114829   2.595   3.950   0.238
 4962TIP3    H214830   2.698   4.033   0.164
 4963TIP3   OH214831   2.670   7.498   2.258
 4963TIP3    H114832   2.648   7.590   2.275
 4963TIP3    H214833   2.624   7.449   2.326
 4964TIP3   OH214834   7.212   0.247   0.523
 4964TIP3    H114835   7.141   0.194   0.488
 4964TIP3    H214836   7.292   0.206   0.490
 4965TIP3   OH214837   2.596   4.439   3.561
 4965TIP3    H114838   2.633   4.491   3.490
 4965TIP3    H214839   2.630   4.480   3.641
 4966TIP3   OH214840   0.575   7.571   6.780
 4966TIP3    H114841   0.656   7.525   6.757
 4966TIP3    H214842   0.556   7.625   6.703
 4967TIP3   OH214843   0.145   1.352   6.745
 4967TIP3    H114844   0.077   1.291   6.717
 4967TIP3    H214845   0.104   1.439   6.736
 4968TIP3   OH214846   7.989   5.634   1.332
 4968TIP3    H114847   8.027   5.560   1.379
 4968TIP3    H214848   7.913   5.659   1.384
 4969TIP3   OH214849   4.117   4.133   1.372
 4969TIP3    H114850   4.111   4.116   1.279
 4969TIP3    H214851   4.121   4.229   1.379
 4970TIP3   OH214852   7.593   7.008   1.485
 4970TIP3    H114853   7.644   7.040   1.411
 4970TIP3    H214854   7.630   7.053   1.561
 4971TIP3   OH214855   3.655   3.789   3.355
 4971TIP3    H114856   3.737   3.820   3.394
 4971TIP3    H214857   3.679   3.764   3.265
 4972TIP3   OH214858   7.794   7.367   1.013
 4972TIP3    H114859   7.739   7.417   0.951
 4972TIP3    H214860   7.839   7.303   0.958
 4973TIP3   OH214861   1.305   3.231   2.004
 4973TIP3    H114862   1.234   3.265   1.951
 4973TIP3    H214863   1.384   3.266   1.964
 4974TIP3   OH214864   7.532   2.271   4.146
 4974TIP3    H114865   7.536   2.355   4.101
 4974TIP3    H214866   7.610   2.269   4.201
 4975TIP3   OH214867   4.515   3.428   6.168
 4975TIP3    H114868   4.581   3.362   6.189
 4975TIP3    H214869   4.556   3.512   6.191
 4976TIP3   OH214870   1.263   0.635   1.816
 4976TIP3    H114871   1.311   0.706   1.858
 4976TIP3    H214872   1.186   0.677   1.779
 4977TIP3   OH214873   3.322   6.261   4.145
 4977TIP3    H114874   3.292   6.216   4.224
 4977TIP3    H214875   3.405   6.218   4.123
 4978TIP3   OH214876   4.356   1.906   3.473
 4978TIP3    H114877   4.322   1.819   3.493
 4978TIP3    H214878   4.281   1.965   3.485
 4979TIP3   OH214879   6.852   2.255   6.616
 4979TIP3    H114880   6.870   2.162   6.632
 4979TIP3    H214881   6.928   2.300   6.650
 4980TIP3   OH214882   1.744   1.220   5.324
 4980TIP3    H114883   1.828   1.234   5.367
 4980TIP3    H214884   1.684   1.281   5.367
 4981TIP3   OH214885   7.538   0.050   0.191
 4981TIP3    H114886   7.492   0.128   0.161
 4981TIP3    H214887   7.631   0.073   0.186
 4982TIP3   OH214888   2.811   3.772   6.515
 4982TIP3    H114889   2.901   3.741   6.506
 4982TIP3    H214890   2.768   3.744   6.434
 4983TIP3   OH214891   4.444   6.217   1.512
 4983TIP3    H114892   4.459   6.159   1.586
 4983TIP3    H214893   4.361   6.261   1.532
 4984TIP3   OH214894   0.168   6.897   1.260
 4984TIP3    H114895   0.183   6.958   1.188
 4984TIP3    H214896   0.226   6.823   1.241
 4985TIP3   OH214897   6.404   2.148   1.820
 4985TIP3    H114898   6.494   2.157   1.850
 4985TIP3    H214899   6.366   2.235   1.832
 4986TIP3   OH214900   2.472   6.585   1.031
 4986TIP3    H114901   2.413   6.582   0.955
 4986TIP3    H214902   2.467   6.676   1.060
 4987TIP3   OH214903   2.903   2.750   2.575
 4987TIP3    H114904   2.985   2.703   2.593
 4987TIP3    H214905   2.849   2.687   2.529
 4988TIP3   OH214906   8.195   6.753   1.718
 4988TIP3    H114907   8.143   6.734   1.796
 4988TIP3    H214908   8.163   6.691   1.653
 4989TIP3   OH214909   6.920   0.411   3.597
 4989TIP3    H114910   7.014   0.403   3.617
 4989TIP3    H214911   6.878   0.417   3.683
 4990TIP3   OH214912   1.269   3.052   4.425
 4990TIP3    H114913   1.278   3.146   4.436
 4990TIP3    H214914   1.177   3.040   4.400
 4991TIP3   OH214915   3.011   6.089   3.126
 4991TIP3    H114916   2.931   6.073   3.076
 4991TIP3    H214917   3.013   6.018   3.191
 4992TIP3   OH214918   0.998   0.046   6.391
 4992TIP3    H114919   1.049   0.114   6.348
 4992TIP3    H214920   0.911   0.052   6.351
 4993TIP3   OH214921   1.645   0.725   0.355
 4993TIP3    H114922   1.553   0.720   0.329
 4993TIP3    H214923   1.682   0.795   0.301
 4994TIP3   OH214924   1.823   6.565   3.109
 4994TIP3    H114925   1.840   6.537   3.200
 4994TIP3    H214926   1.732   6.541   3.094
 4995TIP3   OH214927   2.659   7.022   6.070
 4995TIP3    H114928   2.645   7.086   6.001
 4995TIP3    H214929   2.579   6.969   6.070
 4996TIP3   OH214930   3.612   4.579   1.597
 4996TIP3    H114931   3.578   4.531   1.521
 4996TIP3    H214932   3.575   4.534   1.673
 4997TIP3   OH214933   1.674   1.361   5.783
 4997TIP3    H114934   1.756   1.385   5.739
 4997TIP3    H214935   1.611   1.427   5.755
 4998TIP3   OH214936   1.076   3.017   1.127
 4998TIP3    H114937   1.138   2.965   1.178
 4998TIP3    H214938   1.021   3.059   1.193
 4999TIP3   OH214939   5.391   4.070   0.732
 4999TIP3    H114940   5.399   4.094   0.639
 4999TIP3    H214941   5.301   4.092   0.755
 5000TIP3   OH214942   5.388   5.127   3.314
 5000TIP3    H114943   5.463   5.111   3.258
 5000TIP3    H214944   5.389   5.054   3.377
 5001TIP3   OH214945   3.334   4.815   0.632
 5001TIP3    H114946   3.284   4.793   0.711
 5001TIP3    H214947   3.270   4.857   0.574
 5002TIP3   OH214948   2.897   5.108   3.984
 5002TIP3    H114949   2.969   5.171   3.997
 5002TIP3    H214950   2.847   5.111   4.065
 5003TIP3   OH214951   6.606   7.082   6.125
 5003TIP3    H114952   6.604   7.157   6.184
 5003TIP3    H214953   6.586   7.007   6.180
 5004TIP3   OH214954   6.235   2.333   1.624
 5004TIP3    H114955   6.273   2.361   1.707
 5004TIP3    H214956   6.187   2.253   1.645
 5005TIP3   OH214957   4.895   4.935   6.665
 5005TIP3    H114958   4.850   4.910   6.584
 5005TIP3    H214959   4.887   4.858   6.722
 5006TIP3   OH214960   6.294   6.932   5.343
 5006TIP3    H114961   6.245   6.864   5.298
 5006TIP3    H214962   6.345   6.975   5.275
 5007TIP3   OH214963   3.038   7.153   2.531
 5007TIP3    H114964   3.032   7.200   2.448
 5007TIP3    H214965   2.956   7.104   2.537
 5008TIP3   OH214966   6.562   1.385   6.628
 5008TIP3    H114967   6.469   1.407   6.630
 5008TIP3    H214968   6.599   1.429   6.705
 5009TIP3   OH214969   6.959   4.486   4.159
 5009TIP3    H114970   6.932   4.405   4.115
 5009TIP3    H214971   6.911   4.486   4.242
 5010TIP3   OH214972   6.635   1.276   6.188
 5010TIP3    H114973   6.614   1.264   6.095
 5010TIP3    H214974   6.730   1.268   6.192
 5011TIP3   OH214975   3.406   3.529   2.772
 5011TIP3    H114976   3.374   3.511   2.684
 5011TIP3    H214977   3.372   3.457   2.825
 5012TIP3   OH214978   4.353   1.901   6.459
 5012TIP3    H114979   4.281   1.841   6.476
 5012TIP3    H214980   4.321   1.957   6.388
 5013TIP3   OH214981   3.482   5.754   5.224
 5013TIP3    H114982   3.438   5.829   5.184
 5013TIP3    H214983   3.481   5.686   5.156
 5014TIP3   OH214984   7.383   0.219   6.490
 5014TIP3    H114985   7.342   0.304   6.510
 5014TIP3    H214986   7.385   0.173   6.574
 5015TIP3   OH214987   7.131   2.347   5.326
 5015TIP3    H114988   7.219   2.311   5.321
 5015TIP3    H214989   7.141   2.439   5.300
 5016TIP3   OH214990   5.576   5.691   4.863
 5016TIP3    H114991   5.665   5.658   4.874
 5016TIP3    H214992   5.585   5.786   4.872
 5017TIP3   OH214993   5.527   0.703   3.253
 5017TIP3    H114994   5.505   0.646   3.179
 5017TIP3    H214995   5.486   0.661   3.328
 5018TIP3   OH214996   2.047   1.941   1.854
 5018TIP3    H114997   2.047   2.033   1.830
 5018TIP3    H214998   2.009   1.939   1.942
 5019TIP3   OH214999   4.496   0.104   0.187
 5019TIP3    H115000   4.499   0.189   0.231
 5019TIP3    H215001   4.586   0.072   0.189
 5020TIP3   OH215002   7.796   0.178   0.145
 5020TIP3    H115003   7.804   0.219   0.231
 5020TIP3    H215004   7.868   0.114   0.142
 5021TIP3   OH215005   3.959   0.138   5.040
 5021TIP3    H115006   3.975   0.181   4.956
 5021TIP3    H215007   3.879   0.179   5.073
 5022TIP3   OH215008   2.653   7.437   3.180
 5022TIP3    H115009   2.623   7.437   3.271
 5022TIP3    H215010   2.733   7.386   3.181
 5023TIP3   OH215011   2.747   4.891   5.503
 5023TIP3    H115012   2.679   4.941   5.548
 5023TIP3    H215013   2.780   4.951   5.436
 5024TIP3   OH215014   0.702   3.774   3.180
 5024TIP3    H115015   0.704   3.689   3.224
 5024TIP3    H215016   0.623   3.816   3.215
 5025TIP3   OH215017   5.711   3.310   2.661
 5025TIP3    H115018   5.749   3.223   2.652
 5025TIP3    H215019   5.618   3.299   2.645
 5026TIP3   OH215020   7.623  -0.009   0.965
 5026TIP3    H115021   7.692  -0.069   0.992
 5026TIP3    H215022   7.663   0.078   0.972
 5027TIP3   OH215023   6.357   4.143   4.375
 5027TIP3    H115024   6.349   4.215   4.438
 5027TIP3    H215025   6.444   4.154   4.338
 5028TIP3   OH215026   5.159   5.608   3.675
 5028TIP3    H115027   5.243   5.566   3.690
 5028TIP3    H215028   5.131   5.577   3.589
 5029TIP3   OH215029   2.167   6.692   1.890
 5029TIP3    H115030   2.235   6.759   1.889
 5029TIP3    H215031   2.184   6.639   1.812
 5030TIP3   OH215032   6.491   4.150   3.610
 5030TIP3    H115033   6.513   4.084   3.544
 5030TIP3    H215034   6.460   4.101   3.685
 5031TIP3   OH215035   4.661   4.795   4.927
 5031TIP3    H115036   4.730   4.739   4.893
 5031TIP3    H215037   4.629   4.749   5.004
 5032TIP3   OH215038   3.400   0.460   2.330
 5032TIP3    H115039   3.333   0.394   2.311
 5032TIP3    H215040   3.361   0.514   2.399
 5033TIP3   OH215041   6.231   3.004   5.269
 5033TIP3    H115042   6.251   2.910   5.266
 5033TIP3    H215043   6.244   3.028   5.360
 5034TIP3   OH215044   2.173   6.303   6.308
 5034TIP3    H115045   2.213   6.264   6.230
 5034TIP3    H215046   2.235   6.284   6.379
 5035TIP3   OH215047   7.972   0.625   3.068
 5035TIP3    H115048   8.038   0.687   3.100
 5035TIP3    H215049   8.016   0.578   2.997
 5036TIP3   OH215050   4.018   5.359   4.580
 5036TIP3    H115051   4.108   5.389   4.566
 5036TIP3    H215052   4.011   5.347   4.674
 5037TIP3   OH215053   7.808   4.094   4.715
 5037TIP3    H115054   7.782   4.177   4.675
 5037TIP3    H215055   7.728   4.041   4.715
 5038TIP3   OH215056   0.693   2.864   6.677
 5038TIP3    H115057   0.726   2.781   6.642
 5038TIP3    H215058   0.601   2.867   6.649
 5039TIP3   OH215059   3.532   7.386   0.306
 5039TIP3    H115060   3.499   7.408   0.218
 5039TIP3    H215061   3.605   7.326   0.290
 5040TIP3   OH215062   4.353   0.919   1.493
 5040TIP3    H115063   4.393   0.834   1.510
 5040TIP3    H215064   4.286   0.901   1.427
 5041TIP3   OH215065   3.766   2.963   4.777
 5041TIP3    H115066   3.813   2.997   4.700
 5041TIP3    H215067   3.780   3.030   4.844
 5042TIP3   OH215068   8.233   0.469   6.515
 5042TIP3    H115069   8.217   0.488   6.607
 5042TIP3    H215070   8.326   0.448   6.510
 5043TIP3   OH215071   6.891   1.369   3.950
 5043TIP3    H115072   6.949   1.327   4.014
 5043TIP3    H215073   6.827   1.301   3.929
 5044TIP3   OH215074   2.864   6.627   3.760
 5044TIP3    H115075   2.920   6.560   3.799
 5044TIP3    H215076   2.902   6.710   3.789
 5045TIP3   OH215077   5.268   5.319   2.886
 5045TIP3    H115078   5.249   5.381   2.815
 5045TIP3    H215079   5.265   5.372   2.966
 5046TIP3   OH215080   3.735   3.089   5.347
 5046TIP3    H115081   3.687   3.013   5.315
 5046TIP3    H215082   3.823   3.055   5.368
 5047TIP3   OH215083   1.631   3.894   2.973
 5047TIP3    H115084   1.594   3.897   2.885
 5047TIP3    H215085   1.708   3.838   2.964
 5048TIP3   OH215086   3.811   4.944   0.122
 5048TIP3    H115087   3.783   4.939   0.214
 5048TIP3    H215088   3.834   4.854   0.099
 5049TIP3   OH215089   5.733   6.675   1.249
 5049TIP3    H115090   5.668   6.669   1.319
 5049TIP3    H215091   5.704   6.748   1.195
 5050TIP3   OH215092   2.842   3.278   0.100
 5050TIP3    H115093   2.771   3.236   0.050
 5050TIP3    H215094   2.891   3.328   0.034
 5051TIP3   OH215095   0.166   6.397   5.604
 5051TIP3    H115096   0.077   6.396   5.569
 5051TIP3    H215097   0.219   6.352   5.539
 5052TIP3   OH215098   7.697   0.400   6.449
 5052TIP3    H115099   7.701   0.321   6.504
 5052TIP3    H215100   7.688   0.472   6.512
 5053TIP3   OH215101   3.868   2.703   0.979
 5053TIP3    H115102   3.832   2.677   1.064
 5053TIP3    H215103   3.791   2.712   0.922
 5054TIP3   OH215104   3.790   2.836   1.291
 5054TIP3    H115105   3.743   2.755   1.272
 5054TIP3    H215106   3.749   2.871   1.370
 5055TIP3   OH215107   3.105   5.250   2.196
 5055TIP3    H115108   3.115   5.334   2.150
 5055TIP3    H215109   3.024   5.259   2.246
 5056TIP3   OH215110   8.090   1.106   1.753
 5056TIP3    H115111   8.056   1.094   1.842
 5056TIP3    H215112   8.149   1.032   1.740
 5057TIP3   OH215113   1.998   7.244   4.563
 5057TIP3    H115114   2.078   7.194   4.544
 5057TIP3    H215115   1.984   7.297   4.485
 5058TIP3   OH215116   0.741   4.684   6.052
 5058TIP3    H115117   0.678   4.755   6.059
 5058TIP3    H215118   0.751   4.669   5.958
 5059TIP3   OH215119   2.518   5.801   3.195
 5059TIP3    H115120   2.511   5.829   3.104
 5059TIP3    H215121   2.546   5.880   3.242
 5060TIP3   OH215122   6.177   6.249   6.136
 5060TIP3    H115123   6.269   6.228   6.118
 5060TIP3    H215124   6.181   6.327   6.191
 5061TIP3   OH215125   3.540   7.176   5.898
 5061TIP3    H115126   3.451   7.157   5.927
 5061TIP3    H215127   3.585   7.206   5.977
 5062TIP3   OH215128   1.274   6.375   5.131
 5062TIP3    H115129   1.284   6.402   5.222
 5062TIP3    H215130   1.335   6.302   5.120
 5063TIP3   OH215131   4.019   7.788   4.991
 5063TIP3    H115132   3.999   7.845   4.917
 5063TIP3    H215133   4.094   7.736   4.962
 5064TIP3   OH215134   4.046   6.275   1.600
 5064TIP3    H115135   4.096   6.245   1.676
 5064TIP3    H215136   4.061   6.369   1.596
 5065TIP3   OH215137   4.464   3.557   1.725
 5065TIP3    H115138   4.453   3.584   1.816
 5065TIP3    H215139   4.374   3.540   1.694
 5066TIP3   OH215140   7.567   0.119   6.063
 5066TIP3    H115141   7.491   0.062   6.069
 5066TIP3    H215142   7.631   0.080   6.122
 5067TIP3   OH215143   1.442   5.032   2.936
 5067TIP3    H115144   1.425   4.948   2.978
 5067TIP3    H215145   1.509   5.014   2.871
 5068TIP3   OH215146   3.998   2.586   3.400
 5068TIP3    H115147   3.989   2.641   3.477
 5068TIP3    H215148   4.005   2.647   3.327
 5069TIP3   OH215149   3.413   5.517   2.266
 5069TIP3    H115150   3.499   5.484   2.295
 5069TIP3    H215151   3.386   5.577   2.336
 5070TIP3   OH215152   0.292   0.345   2.718
 5070TIP3    H115153   0.313   0.265   2.668
 5070TIP3    H215154   0.236   0.315   2.789
 5071TIP3   OH215155   3.783   4.516   0.604
 5071TIP3    H115156   3.712   4.554   0.656
 5071TIP3    H215157   3.749   4.514   0.515
 5072TIP3   OH215158   3.234   0.390   4.295
 5072TIP3    H115159   3.145   0.377   4.327
 5072TIP3    H215160   3.287   0.331   4.349
 5073TIP3   OH215161   7.456   3.260   3.552
 5073TIP3    H115162   7.537   3.290   3.512
 5073TIP3    H215163   7.466   3.279   3.645
 5074TIP3   OH215164   2.611   4.779   0.684
 5074TIP3    H115165   2.627   4.784   0.590
 5074TIP3    H215166   2.523   4.741   0.691
 5075TIP3   OH215167   2.103   2.779   6.350
 5075TIP3    H115168   2.089   2.790   6.256
 5075TIP3    H215169   2.086   2.866   6.386
 5076TIP3   OH215170   1.368   1.152   0.391
 5076TIP3    H115171   1.287   1.179   0.435
 5076TIP3    H215172   1.390   1.068   0.433
 5077TIP3   OH215173   4.781   4.610   0.564
 5077TIP3    H115174   4.797   4.585   0.655
 5077TIP3    H215175   4.818   4.539   0.512
 5078TIP3   OH215176   0.116   2.936   5.731
 5078TIP3    H115177   0.150   3.024   5.715
 5078TIP3    H215178   0.164   2.880   5.671
 5079TIP3   OH215179   3.651   0.197   4.562
 5079TIP3    H115180   3.716   0.150   4.512
 5079TIP3    H215181   3.701   0.253   4.622
 5080TIP3   OH215182   1.681   2.166   1.982
 5080TIP3    H115183   1.667   2.253   2.019
 5080TIP3    H215184   1.765   2.173   1.936
 5081TIP3   OH215185   3.283   2.440   5.305
 5081TIP3    H115186   3.303   2.524   5.345
 5081TIP3    H215187   3.342   2.378   5.349
 5082TIP3   OH215188   4.644   1.383   1.349
 5082TIP3    H115189   4.556   1.409   1.322
 5082TIP3    H215190   4.640   1.383   1.445
 5083TIP3   OH215191   0.169   6.242   2.147
 5083TIP3    H115192   0.179   6.316   2.087
 5083TIP3    H215193   0.239   6.252   2.211
 5084TIP3   OH215194   3.009   7.347   1.208
 5084TIP3    H115195   3.047   7.357   1.121
 5084TIP3    H215196   2.942   7.414   1.213
 5085TIP3   OH215197   7.404   2.624   4.533
 5085TIP3    H115198   7.497   2.610   4.516
 5085TIP3    H215199   7.362   2.610   4.448
 5086TIP3   OH215200   4.158   2.884   1.210
 5086TIP3    H115201   4.117   2.875   1.296
 5086TIP3    H215202   4.243   2.924   1.227
 5087TIP3   OH215203   4.209   5.654   4.057
 5087TIP3    H115204   4.294   5.612   4.076
 5087TIP3    H215205   4.189   5.704   4.136
 5088TIP3   OH215206   0.481   3.622   6.293
 5088TIP3    H115207   0.501   3.711   6.266
 5088TIP3    H215208   0.403   3.598   6.242
 5089TIP3   OH215209   0.674   7.826   5.374
 5089TIP3    H115210   0.597   7.791   5.329
 5089TIP3    H215211   0.749   7.787   5.327
 5090TIP3   OH215212   3.203   6.130   3.793
 5090TIP3    H115213   3.132   6.129   3.857
 5090TIP3    H215214   3.221   6.223   3.779
 5091TIP3   OH215215   0.032   7.367   5.495
 5091TIP3    H115216  -0.041   7.429   5.485
 5091TIP3    H215217   0.020   7.306   5.423
 5092TIP3   OH215218   8.118   0.556   4.262
 5092TIP3    H115219   8.102   0.535   4.170
 5092TIP3    H215220   8.041   0.523   4.308
 5093TIP3   OH215221   2.894   5.890   5.191
 5093TIP3    H115222   2.902   5.833   5.268
 5093TIP3    H215223   2.851   5.969   5.224
 5094TIP3   OH215224   1.909   3.032   4.082
 5094TIP3    H115225   1.866   3.023   4.167
 5094TIP3    H215226   1.986   2.977   4.088
 5095TIP3   OH215227   0.150   2.555   0.268
 5095TIP3    H115228   0.235   2.599   0.257
 5095TIP3    H215229   0.170   2.462   0.255
 5096TIP3   OH215230   8.114   0.191   4.676
 5096TIP3    H115231   8.124   0.104   4.636
 5096TIP3    H215232   8.152   0.251   4.611
 5097TIP3   OH215233   7.177   1.530   4.881
 5097TIP3    H115234   7.194   1.583   4.959
 5097TIP3    H215235   7.249   1.467   4.879
 5098TIP3   OH215236   0.108   0.739   2.831
 5098TIP3    H115237   0.092   0.797   2.905
 5098TIP3    H215238   0.202   0.748   2.812
 5099TIP3   OH215239   1.386   4.565   5.200
 5099TIP3    H115240   1.330   4.642   5.199
 5099TIP3    H215241   1.436   4.570   5.119
 5100TIP3   OH215242   3.134   4.728   1.452
 5100TIP3    H115243   3.221   4.734   1.413
 5100TIP3    H215244   3.149   4.745   1.545
 5101TIP3   OH215245   6.282   3.007   3.759
 5101TIP3    H115246   6.232   2.926   3.755
 5101TIP3    H215247   6.216   3.076   3.766
 5102TIP3   OH215248   1.882   4.962   5.155
 5102TIP3    H115249   1.849   5.051   5.166
 5102TIP3    H215250   1.918   4.939   5.241
 5103TIP3   OH215251   0.765   4.168   0.749
 5103TIP3    H115252   0.717   4.198   0.672
 5103TIP3    H215253   0.729   4.082   0.769
 5104TIP3   OH215254   6.467   5.976   4.596
 5104TIP3    H115255   6.536   5.938   4.542
 5104TIP3    H215256   6.445   5.907   4.659
 5105TIP3   OH215257   8.090   2.667   1.336
 5105TIP3    H115258   8.091   2.757   1.304
 5105TIP3    H215259   8.116   2.674   1.428
 5106TIP3   OH215260   7.161   0.155   6.069
 5106TIP3    H115261   7.146   0.115   5.983
 5106TIP3    H215262   7.086   0.213   6.083
 5107TIP3   OH215263   1.611   3.538   2.893
 5107TIP3    H115264   1.676   3.603   2.920
 5107TIP3    H215265   1.538   3.590   2.858
 5108TIP3   OH215266   2.429   1.939   6.200
 5108TIP3    H115267   2.511   1.978   6.231
 5108TIP3    H215268   2.456   1.857   6.157
 5109TIP3   OH215269   3.700   1.828   2.242
 5109TIP3    H115270   3.790   1.796   2.242
 5109TIP3    H215271   3.679   1.840   2.335
 5110TIP3   OH215272   4.434   5.549   4.164
 5110TIP3    H115273   4.418   5.483   4.231
 5110TIP3    H215274   4.523   5.578   4.179
 5111TIP3   OH215275   3.192   6.741   3.303
 5111TIP3    H115276   3.261   6.748   3.370
 5111TIP3    H215277   3.179   6.647   3.291
 5112TIP3   OH215278   4.336   2.008   1.599
 5112TIP3    H115279   4.415   1.954   1.601
 5112TIP3    H215280   4.299   1.993   1.512
 5113TIP3   OH215281   7.925   6.001   1.069
 5113TIP3    H115282   8.005   5.959   1.035
 5113TIP3    H215283   7.881   6.035   0.992
 5114TIP3   OH215284   2.271   5.774   2.188
 5114TIP3    H115285   2.184   5.801   2.216
 5114TIP3    H215286   2.304   5.848   2.137
 5115TIP3   OH215287   1.795   4.713   6.389
 5115TIP3    H115288   1.847   4.749   6.460
 5115TIP3    H215289   1.704   4.724   6.418
 5116TIP3   OH215290   0.202   0.571   2.565
 5116TIP3    H115291   0.211   0.506   2.635
 5116TIP3    H215292   0.111   0.563   2.536
 5117TIP3   OH215293   7.259   4.857   6.297
 5117TIP3    H115294   7.253   4.948   6.269
 5117TIP3    H215295   7.285   4.862   6.389
 5118TIP3   OH215296   3.874   5.725   5.933
 5118TIP3    H115297   3.954   5.674   5.929
 5118TIP3    H215298   3.821   5.683   6.001
 5119TIP3   OH215299   5.007   6.713   0.210
 5119TIP3    H115300   4.988   6.780   0.144
 5119TIP3    H215301   4.921   6.684   0.239
 5120TIP3   OH215302   4.447   3.341   5.901
 5120TIP3    H115303   4.473   3.381   5.984
 5120TIP3    H215304   4.352   3.347   5.900
 5121TIP3   OH215305   1.408   4.077   3.826
 5121TIP3    H115306   1.434   4.051   3.738
 5121TIP3    H215307   1.358   4.157   3.814
 5122TIP3   OH215308   6.436   7.403   0.711
 5122TIP3    H115309   6.474   7.434   0.629
 5122TIP3    H215310   6.353   7.364   0.685
 5123TIP3   OH215311   0.271   1.236   3.201
 5123TIP3    H115312   0.360   1.244   3.237
 5123TIP3    H215313   0.224   1.183   3.265
 5124TIP3   OH215314   1.954   5.381   0.789
 5124TIP3    H115315   1.947   5.380   0.694
 5124TIP3    H215316   1.903   5.305   0.818
 5125TIP3   OH215317   3.631   0.975   6.705
 5125TIP3    H115318   3.706   1.035   6.712
 5125TIP3    H215319   3.606   0.958   6.796
 5126TIP3   OH215320   0.943   6.750   6.746
 5126TIP3    H115321   1.024   6.801   6.739
 5126TIP3    H215322   0.879   6.812   6.781
 5127TIP3   OH215323   1.658   1.762   6.042
 5127TIP3    H115324   1.744   1.729   6.016
 5127TIP3    H215325   1.677   1.832   6.104
 5128TIP3   OH215326   0.832   0.956   3.573
 5128TIP3    H115327   0.786   0.891   3.519
 5128TIP3    H215328   0.899   0.906   3.618
 5129TIP3   OH215329   6.860   1.961   2.483
 5129TIP3    H115330   6.772   1.980   2.450
 5129TIP3    H215331   6.868   2.013   2.562
 5130TIP3   OH215332   7.772   1.329   4.230
 5130TIP3    H115333   7.850   1.304   4.279
 5130TIP3    H215334   7.702   1.331   4.296
 5131TIP3   OH215335   6.875   4.483   4.457
 5131TIP3    H115336   6.813   4.414   4.481
 5131TIP3    H215337   6.957   4.458   4.501
 5132TIP3   OH215338   2.825   4.200   3.550
 5132TIP3    H115339   2.866   4.195   3.465
 5132TIP3    H215340   2.788   4.289   3.554
 5133TIP3   OH215341   2.339   2.999   2.251
 5133TIP3    H115342   2.361   3.092   2.254
 5133TIP3    H215343   2.415   2.958   2.212
 5134TIP3   OH215344   1.163   3.785   5.822
 5134TIP3    H115345   1.105   3.709   5.817
 5134TIP3    H215346   1.105   3.859   5.843
 5135TIP3   OH215347   6.182   6.109   4.314
 5135TIP3    H115348   6.255   6.050   4.332
 5135TIP3    H215349   6.206   6.191   4.357
 5136TIP3   OH215350   2.826   1.277   4.619
 5136TIP3    H115351   2.837   1.244   4.708
 5136TIP3    H215352   2.915   1.278   4.583
 5137TIP3   OH215353   0.501   4.806   6.072
 5137TIP3    H115354   0.437   4.769   6.132
 5137TIP3    H215355   0.495   4.901   6.085
 5138TIP3   OH215356   3.968   6.075   5.498
 5138TIP3    H115357   3.956   6.075   5.403
 5138TIP3    H215358   3.971   5.982   5.521
 5139TIP3   OH215359   3.326   1.429   0.959
 5139TIP3    H115360   3.422   1.433   0.965
 5139TIP3    H215361   3.295   1.491   1.024
 5140TIP3   OH215362   1.303   5.008   5.527
 5140TIP3    H115363   1.392   4.998   5.560
 5140TIP3    H215364   1.270   4.919   5.520
 5141TIP3   OH215365   1.163   5.418   6.276
 5141TIP3    H115366   1.154   5.389   6.367
 5141TIP3    H215367   1.219   5.351   6.236
 5142TIP3   OH215368   0.536   0.063   0.974
 5142TIP3    H115369   0.495   0.099   1.053
 5142TIP3    H215370   0.629   0.079   0.986
 5143TIP3   OH215371   5.990   4.450   3.843
 5143TIP3    H115372   5.940   4.370   3.831
 5143TIP3    H215373   5.944   4.496   3.914
 5144TIP3   OH215374   2.866   2.959   3.917
 5144TIP3    H115375   2.876   3.041   3.966
 5144TIP3    H215376   2.812   2.982   3.842
 5145TIP3   OH215377   4.454   3.972   3.792
 5145TIP3    H115378   4.369   3.929   3.801
 5145TIP3    H215379   4.510   3.926   3.854
 5146TIP3   OH215380   6.402   1.951   3.220
 5146TIP3    H115381   6.317   1.979   3.254
 5146TIP3    H215382   6.457   1.942   3.298
 5147TIP3   OH215383   3.313   2.706   5.940
 5147TIP3    H115384   3.234   2.691   5.992
 5147TIP3    H215385   3.353   2.620   5.930
 5148TIP3   OH215386   8.027   4.618   6.014
 5148TIP3    H115387   8.045   4.535   6.057
 5148TIP3    H215388   7.949   4.602   5.962
 5149TIP3   OH215389   3.619   1.773   5.208
 5149TIP3    H115390   3.539   1.817   5.238
 5149TIP3    H215391   3.590   1.684   5.186
 5150TIP3   OH215392   1.264   1.278   3.642
 5150TIP3    H115393   1.323   1.275   3.718
 5150TIP3    H215394   1.274   1.367   3.608
 5151TIP3   OH215395   6.340   7.687   0.624
 5151TIP3    H115396   6.275   7.754   0.645
 5151TIP3    H215397   6.290   7.617   0.581
 5152TIP3   OH215398   1.038   4.348   5.698
 5152TIP3    H115399   1.089   4.282   5.652
 5152TIP3    H215400   1.028   4.313   5.787
 5153TIP3   OH215401   5.488   7.239   3.820
 5153TIP3    H115402   5.428   7.165   3.830
 5153TIP3    H215403   5.440   7.314   3.855
 5154TIP3   OH215404   1.248   5.211   4.140
 5154TIP3    H115405   1.245   5.115   4.136
 5154TIP3    H215406   1.319   5.230   4.201
 5155TIP3   OH215407   3.272   5.826   0.318
 5155TIP3    H115408   3.239   5.784   0.397
 5155TIP3    H215409   3.193   5.860   0.274
 5156TIP3   OH215410   6.366   6.496   6.057
 5156TIP3    H115411   6.432   6.440   6.097
 5156TIP3    H215412   6.375   6.481   5.963
 5157TIP3   OH215413   1.353   7.188   3.881
 5157TIP3    H115414   1.315   7.259   3.830
 5157TIP3    H215415   1.316   7.199   3.969
 5158TIP3   OH215416   4.361   0.438   4.360
 5158TIP3    H115417   4.374   0.356   4.407
 5158TIP3    H215418   4.420   0.500   4.403
 5159TIP3   OH215419   5.747   0.662   2.897
 5159TIP3    H115420   5.654   0.678   2.914
 5159TIP3    H215421   5.792   0.712   2.966
 5160TIP3   OH215422   7.570   2.054   6.574
 5160TIP3    H115423   7.563   2.061   6.479
 5160TIP3    H215424   7.531   2.135   6.607
 5161TIP3   OH215425   1.648   4.887   4.012
 5161TIP3    H115426   1.600   4.966   3.987
 5161TIP3    H215427   1.734   4.898   3.972
 5162TIP3   OH215428   2.159   5.238   5.032
 5162TIP3    H115429   2.244   5.220   4.993
 5162TIP3    H215430   2.097   5.188   4.979
 5163TIP3   OH215431   4.790   0.903   5.897
 5163TIP3    H115432   4.698   0.881   5.911
 5163TIP3    H215433   4.802   0.986   5.943
 5164TIP3   OH215434   7.501   3.644   0.993
 5164TIP3    H115435   7.584   3.677   0.957
 5164TIP3    H215436   7.526   3.598   1.073
 5165TIP3   OH215437   5.086   4.585   6.289
 5165TIP3    H115438   5.044   4.514   6.337
 5165TIP3    H215439   5.084   4.557   6.197
 5166TIP3   OH215440   1.775   1.936   5.608
 5166TIP3    H115441   1.824   1.857   5.584
 5166TIP3    H215442   1.762   1.983   5.526
 5167TIP3   OH215443   1.520   7.340   0.692
 5167TIP3    H115444   1.516   7.268   0.756
 5167TIP3    H215445   1.606   7.379   0.706
 5168TIP3   OH215446   2.257   0.046   3.400
 5168TIP3    H115447   2.188  -0.021   3.400
 5168TIP3    H215448   2.338  -0.003   3.410
 5169TIP3   OH215449   4.083   1.119   1.162
 5169TIP3    H115450   4.025   1.175   1.111
 5169TIP3    H215451   4.135   1.072   1.097
 5170TIP3   OH215452   6.694   7.380   2.942
 5170TIP3    H115453   6.750   7.456   2.922
 5170TIP3    H215454   6.703   7.323   2.865
 5171TIP3   OH215455   0.566   3.094   3.896
 5171TIP3    H115456   0.498   3.155   3.924
 5171TIP3    H215457   0.606   3.136   3.820
 5172TIP3   OH215458   2.845   2.790   6.238
 5172TIP3    H115459   2.904   2.754   6.304
 5172TIP3    H215460   2.819   2.715   6.185
 5173TIP3   OH215461   8.287   6.684   1.970
 5173TIP3    H115462   8.245   6.599   1.965
 5173TIP3    H215463   8.279   6.720   1.881
 5174TIP3   OH215464   7.645   7.650   0.469
 5174TIP3    H115465   7.641   7.671   0.562
 5174TIP3    H215466   7.734   7.674   0.443
 5175TIP3   OH215467   2.557   5.388   5.749
 5175TIP3    H115468   2.547   5.471   5.795
 5175TIP3    H215469   2.598   5.411   5.666
 5176TIP3   OH215470   6.864   3.154   0.160
 5176TIP3    H115471   6.949   3.195   0.142
 5176TIP3    H215472   6.823   3.211   0.224
 5177TIP3   OH215473   3.987   5.628   5.033
 5177TIP3    H115474   4.062   5.572   5.014
 5177TIP3    H215475   3.981   5.629   5.128
 5178TIP3   OH215476   1.388   4.158   0.194
 5178TIP3    H115477   1.310   4.108   0.168
 5178TIP3    H215478   1.444   4.093   0.238
 5179TIP3   OH215479   2.605   3.162   6.366
 5179TIP3    H115480   2.538   3.094   6.367
 5179TIP3    H215481   2.557   3.244   6.372
 5180TIP3   OH215482   8.211   1.806   1.681
 5180TIP3    H115483   8.195   1.726   1.631
 5180TIP3    H215484   8.266   1.860   1.624
 5181TIP3   OH215485   5.539   6.140   3.171
 5181TIP3    H115486   5.525   6.058   3.218
 5181TIP3    H215487   5.451   6.167   3.144
 5182TIP3   OH215488   7.631   4.998   2.632
 5182TIP3    H115489   7.696   4.962   2.572
 5182TIP3    H215490   7.555   5.017   2.577
 5183TIP3   OH215491   1.254   3.442   4.254
 5183TIP3    H115492   1.178   3.400   4.211
 5183TIP3    H215493   1.218   3.520   4.295
 5184TIP3   OH215494   0.885   3.779   6.507
 5184TIP3    H115495   0.865   3.777   6.600
 5184TIP3    H215496   0.951   3.848   6.498
 5185TIP3   OH215497   4.791   3.334   4.673
 5185TIP3    H115498   4.857   3.293   4.730
 5185TIP3    H215499   4.837   3.352   4.591
 5186TIP3   OH215500   6.415   6.545   2.661
 5186TIP3    H115501   6.451   6.465   2.622
 5186TIP3    H215502   6.462   6.555   2.744
 5187TIP3   OH215503   4.555   2.434   0.370
 5187TIP3    H115504   4.520   2.483   0.446
 5187TIP3    H215505   4.613   2.369   0.409
 5188TIP3   OH215506   1.820   7.113   3.153
 5188TIP3    H115507   1.750   7.134   3.215
 5188TIP3    H215508   1.848   7.024   3.178
 5189TIP3   OH215509   2.451   6.788   6.514
 5189TIP3    H115510   2.436   6.731   6.438
 5189TIP3    H215511   2.491   6.731   6.579
 5190TIP3   OH215512   0.174   4.947   0.685
 5190TIP3    H115513   0.142   5.037   0.677
 5190TIP3    H215514   0.096   4.893   0.674
 5191TIP3   OH215515   0.905   7.650   4.840
 5191TIP3    H115516   0.854   7.601   4.904
 5191TIP3    H215517   0.975   7.690   4.892
 5192TIP3   OH215518   3.101   1.834   3.695
 5192TIP3    H115519   3.165   1.836   3.624
 5192TIP3    H215520   3.017   1.819   3.652
 5193TIP3   OH215521   2.175   5.021   0.049
 5193TIP3    H115522   2.265   4.994   0.030
 5193TIP3    H215523   2.133   5.028  -0.037
 5194TIP3   OH215524   0.659   4.555   2.724
 5194TIP3    H115525   0.744   4.551   2.769
 5194TIP3    H215526   0.667   4.630   2.664
 5195TIP3   OH215527   3.954   7.156   1.828
 5195TIP3    H115528   3.892   7.162   1.900
 5195TIP3    H215529   3.991   7.068   1.834
 5196TIP3   OH215530   0.653   3.906   0.851
 5196TIP3    H115531   0.598   3.900   0.929
 5196TIP3    H215532   0.598   3.874   0.780
 5197TIP3   OH215533   6.337   5.216   2.450
 5197TIP3    H115534   6.393   5.282   2.489
 5197TIP3    H215535   6.325   5.244   2.359
 5198TIP3   OH215536   5.911   4.842   0.320
 5198TIP3    H115537   5.926   4.802   0.234
 5198TIP3    H215538   5.816   4.833   0.333
 5199TIP3   OH215539   2.452   1.746   1.269
 5199TIP3    H115540   2.525   1.803   1.244
 5199TIP3    H215541   2.492   1.659   1.278
 5200TIP3   OH215542   5.380   6.027   2.903
 5200TIP3    H115543   5.348   6.117   2.906
 5200TIP3    H215544   5.351   5.989   2.986
 5201TIP3   OH215545   7.610   5.888   2.744
 5201TIP3    H115546   7.527   5.888   2.793
 5201TIP3    H215547   7.588   5.853   2.658
 5202TIP3   OH215548   6.650   6.582   1.124
 5202TIP3    H115549   6.572   6.610   1.075
 5202TIP3    H215550   6.615   6.533   1.199
 5203TIP3   OH215551   3.881   1.079   6.755
 5203TIP3    H115552   3.911   1.052   6.842
 5203TIP3    H215553   3.940   1.033   6.694
 5204TIP3   OH215554   6.699   5.124   3.892
 5204TIP3    H115555   6.737   5.039   3.914
 5204TIP3    H215556   6.613   5.103   3.855
 5205TIP3   OH215557   0.613   2.565   1.769
 5205TIP3    H115558   0.556   2.639   1.750
 5205TIP3    H215559   0.561   2.488   1.747
 5206TIP3   OH215560   6.626   4.763   4.140
 5206TIP3    H115561   6.598   4.834   4.083
 5206TIP3    H215562   6.687   4.803   4.202
 5207TIP3   OH215563   0.477   4.359   0.581
 5207TIP3    H115564   0.457   4.265   0.577
 5207TIP3    H215565   0.565   4.367   0.544
 5208TIP3   OH215566   6.567   1.723   4.210
 5208TIP3    H115567   6.481   1.686   4.188
 5208TIP3    H215568   6.628   1.681   4.150
 5209TIP3   OH215569   1.487   1.464   1.453
 5209TIP3    H115570   1.396   1.475   1.425
 5209TIP3    H215571   1.531   1.545   1.427
 5210TIP3   OH215572   4.215   6.532   4.430
 5210TIP3    H115573   4.260   6.528   4.515
 5210TIP3    H215574   4.185   6.623   4.424
 5211TIP3   OH215575   4.643   6.731   0.019
 5211TIP3    H115576   4.726   6.774   0.040
 5211TIP3    H215577   4.664   6.672  -0.053
 5212TIP3   OH215578   6.930   5.982   6.680
 5212TIP3    H115579   6.925   5.946   6.591
 5212TIP3    H215580   7.022   5.975   6.704
 5213TIP3   OH215581   2.473   3.111   3.874
 5213TIP3    H115582   2.457   3.022   3.844
 5213TIP3    H215583   2.518   3.153   3.801
 5214TIP3   OH215584   1.035   4.069   3.903
 5214TIP3    H115585   0.954   4.116   3.923
 5214TIP3    H215586   1.085   4.129   3.848
 5215TIP3   OH215587   6.880   3.771   6.460
 5215TIP3    H115588   6.950   3.737   6.516
 5215TIP3    H215589   6.884   3.717   6.381
 5216TIP3   OH215590   4.111   4.212   3.162
 5216TIP3    H115591   4.034   4.194   3.216
 5216TIP3    H215592   4.150   4.126   3.145
 5217TIP3   OH215593   1.332   0.800   4.841
 5217TIP3    H115594   1.387   0.799   4.919
 5217TIP3    H215595   1.282   0.719   4.846
 5218TIP3   OH215596   4.444   5.309   4.324
 5218TIP3    H115597   4.514   5.298   4.389
 5218TIP3    H215598   4.377   5.246   4.352
 5219TIP3   OH215599   1.784   4.795   3.752
 5219TIP3    H115600   1.760   4.831   3.666
 5219TIP3    H215601   1.742   4.709   3.754
 5220TIP3   OH215602   3.175   0.675   1.591
 5220TIP3    H115603   3.180   0.732   1.514
 5220TIP3    H215604   3.103   0.710   1.642
 5221TIP3   OH215605   6.378   4.100   3.207
 5221TIP3    H115606   6.397   4.191   3.183
 5221TIP3    H215607   6.288   4.085   3.176
 5222TIP3   OH215608   0.745   5.081   3.720
 5222TIP3    H115609   0.682   5.151   3.737
 5222TIP3    H215610   0.759   5.041   3.806
 5223TIP3   OH215611   5.344   0.762   6.766
 5223TIP3    H115612   5.401   0.687   6.781
 5223TIP3    H215613   5.341   0.771   6.671
 5224TIP3   OH215614   2.728   3.645   3.888
 5224TIP3    H115615   2.822   3.663   3.900
 5224TIP3    H215616   2.725   3.557   3.849
 5225TIP3   OH215617   6.603   1.113   4.509
 5225TIP3    H115618   6.593   1.040   4.449
 5225TIP3    H215619   6.610   1.073   4.596
 5226TIP3   OH215620   4.617   7.403   1.590
 5226TIP3    H115621   4.710   7.379   1.587
 5226TIP3    H215622   4.577   7.354   1.517
 5227TIP3   OH215623   4.801   2.969   3.824
 5227TIP3    H115624   4.848   2.953   3.906
 5227TIP3    H215625   4.713   2.935   3.840
 5228TIP3   OH215626   4.371   1.769   2.416
 5228TIP3    H115627   4.294   1.774   2.472
 5228TIP3    H215628   4.432   1.712   2.463
 5229TIP3   OH215629   5.766   2.142   5.399
 5229TIP3    H115630   5.776   2.230   5.365
 5229TIP3    H215631   5.737   2.090   5.324
 5230TIP3   OH215632   3.387   1.360   2.906
 5230TIP3    H115633   3.461   1.330   2.959
 5230TIP3    H215634   3.328   1.402   2.968
 5231TIP3   OH215635   7.471   7.542   0.267
 5231TIP3    H115636   7.498   7.454   0.240
 5231TIP3    H215637   7.552   7.581   0.301
 5232TIP3   OH215638   5.794   3.589   4.866
 5232TIP3    H115639   5.739   3.584   4.944
 5232TIP3    H215640   5.852   3.513   4.872
 5233TIP3   OH215641   3.884   6.552   5.151
 5233TIP3    H115642   3.862   6.641   5.177
 5233TIP3    H215643   3.799   6.508   5.144
 5234TIP3   OH215644   7.757   3.515   1.001
 5234TIP3    H115645   7.763   3.439   0.944
 5234TIP3    H215646   7.709   3.485   1.078
 5235TIP3   OH215647   2.073   0.925   6.528
 5235TIP3    H115648   2.104   0.846   6.484
 5235TIP3    H215649   2.098   0.997   6.470
 5236TIP3   OH215650   4.692   5.148   6.752
 5236TIP3    H115651   4.678   5.197   6.671
 5236TIP3    H215652   4.711   5.058   6.723
 5237TIP3   OH215653   2.655   4.666   3.799
 5237TIP3    H115654   2.666   4.666   3.894
 5237TIP3    H215655   2.732   4.619   3.767
 5238TIP3   OH215656   3.744   2.761   4.956
 5238TIP3    H115657   3.752   2.826   4.886
 5238TIP3    H215658   3.691   2.691   4.918
 5239TIP3   OH215659   2.869   6.163   5.288
 5239TIP3    H115660   2.907   6.247   5.266
 5239TIP3    H215661   2.790   6.184   5.339
 5240TIP3   OH215662   6.618   6.247   5.210
 5240TIP3    H115663   6.622   6.236   5.115
 5240TIP3    H215664   6.530   6.279   5.228
 5241TIP3   OH215665   6.901   5.463   4.388
 5241TIP3    H115666   6.850   5.540   4.414
 5241TIP3    H215667   6.908   5.471   4.293
 5242TIP3   OH215668   8.011   1.055   3.212
 5242TIP3    H115669   8.007   1.109   3.133
 5242TIP3    H215670   7.944   1.091   3.270
 5243TIP3   OH215671   2.507   4.973   4.203
 5243TIP3    H115672   2.443   5.038   4.232
 5243TIP3    H215673   2.525   4.921   4.282
 5244TIP3   OH215674   3.076   3.479   1.587
 5244TIP3    H115675   3.124   3.398   1.606
 5244TIP3    H215676   3.033   3.462   1.503
 5245TIP3   OH215677   2.256   4.024   1.214
 5245TIP3    H115678   2.327   4.039   1.276
 5245TIP3    H215679   2.178   4.010   1.268
 5246TIP3   OH215680   0.329   6.455   4.806
 5246TIP3    H115681   0.257   6.496   4.852
 5246TIP3    H215682   0.365   6.524   4.751
 5247TIP3   OH215683   8.115   0.686   1.557
 5247TIP3    H115684   8.026   0.700   1.525
 5247TIP3    H215685   8.171   0.709   1.483
 5248TIP3   OH215686   3.821   7.076   3.926
 5248TIP3    H115687   3.883   7.034   3.866
 5248TIP3    H215688   3.876   7.129   3.984
 5249TIP3   OH215689   2.554   2.115   4.627
 5249TIP3    H115690   2.594   2.128   4.714
 5249TIP3    H215691   2.625   2.080   4.574
 5250TIP3   OH215692   6.050   1.276   1.310
 5250TIP3    H115693   6.048   1.346   1.244
 5250TIP3    H215694   6.066   1.321   1.392
 5251TIP3   OH215695   2.537   1.638   1.580
 5251TIP3    H115696   2.537   1.574   1.509
 5251TIP3    H215697   2.480   1.600   1.647
 5252TIP3   OH215698   2.007   2.187   5.634
 5252TIP3    H115699   2.061   2.264   5.618
 5252TIP3    H215700   1.957   2.175   5.553
 5253TIP3   OH215701   4.347   0.341   5.174
 5253TIP3    H115702   4.332   0.433   5.155
 5253TIP3    H215703   4.379   0.340   5.264
 5254TIP3   OH215704   2.492   3.100   0.954
 5254TIP3    H115705   2.498   3.031   1.020
 5254TIP3    H215706   2.534   3.063   0.876
 5255TIP3   OH215707   6.657   5.735   1.101
 5255TIP3    H115708   6.615   5.771   1.023
 5255TIP3    H215709   6.617   5.784   1.174
 5256TIP3   OH215710   2.054   0.807   3.736
 5256TIP3    H115711   2.044   0.902   3.739
 5256TIP3    H215712   2.075   0.782   3.827
 5257TIP3   OH215713   4.398   3.079   6.158
 5257TIP3    H115714   4.376   3.055   6.068
 5257TIP3    H215715   4.342   3.153   6.178
 5258TIP3   OH215716   3.232   0.298   2.674
 5258TIP3    H115717   3.247   0.375   2.730
 5258TIP3    H215718   3.316   0.253   2.672
 5259TIP3   OH215719   3.582   1.286   6.496
 5259TIP3    H115720   3.580   1.204   6.447
 5259TIP3    H215721   3.565   1.353   6.429
 5260TIP3   OH215722   5.866   2.246   6.746
 5260TIP3    H115723   5.815   2.247   6.827
 5260TIP3    H215724   5.832   2.319   6.695
 5261TIP3   OH215725   4.175   3.256   6.080
 5261TIP3    H115726   4.088   3.219   6.067
 5261TIP3    H215727   4.176   3.335   6.026
 5262TIP3   OH215728   0.363   0.486   4.692
 5262TIP3    H115729   0.278   0.446   4.676
 5262TIP3    H215730   0.426   0.416   4.676
 5263TIP3   OH215731   5.817   0.601   5.490
 5263TIP3    H115732   5.757   0.675   5.487
 5263TIP3    H215733   5.761   0.525   5.507
 5264TIP3   OH215734   8.256   5.897   5.796
 5264TIP3    H115735   8.346   5.866   5.809
 5264TIP3    H215736   8.245   5.967   5.860
 5265TIP3   OH215737   3.211   0.778   5.267
 5265TIP3    H115738   3.274   0.724   5.219
 5265TIP3    H215739   3.145   0.802   5.202
 5266TIP3   OH215740   6.257   1.240   6.036
 5266TIP3    H115741   6.228   1.186   6.109
 5266TIP3    H215742   6.304   1.313   6.076
 5267TIP3   OH215743   5.738   2.207   0.234
 5267TIP3    H115744   5.790   2.265   0.180
 5267TIP3    H215745   5.685   2.157   0.172
 5268TIP3   OH215746   3.229   0.566   6.336
 5268TIP3    H115747   3.231   0.471   6.331
 5268TIP3    H215748   3.293   0.596   6.272
 5269TIP3   OH215749   2.799   7.067  -0.002
 5269TIP3    H115750   2.839   7.069   0.085
 5269TIP3    H215751   2.838   7.142  -0.048
 5270TIP3   OH215752   0.746   2.051   2.514
 5270TIP3    H115753   0.794   2.117   2.463
 5270TIP3    H215754   0.815   2.002   2.559
 5271TIP3   OH215755   1.993   5.933   4.538
 5271TIP3    H115756   2.088   5.931   4.541
 5271TIP3    H215757   1.965   5.891   4.620
 5272TIP3   OH215758   3.910   1.232   2.620
 5272TIP3    H115759   3.986   1.281   2.587
 5272TIP3    H215760   3.910   1.249   2.715
 5273TIP3   OH215761   3.932   5.762   6.704
 5273TIP3    H115762   3.900   5.751   6.615
 5273TIP3    H215763   4.025   5.785   6.694
 5274TIP3   OH215764   0.482   6.892   4.017
 5274TIP3    H115765   0.502   6.807   3.978
 5274TIP3    H215766   0.392   6.910   3.990
 5275TIP3   OH215767   6.248   4.966   2.111
 5275TIP3    H115768   6.283   4.942   2.025
 5275TIP3    H215769   6.257   4.886   2.163
 5276TIP3   OH215770   0.009   4.991   2.235
 5276TIP3    H115771   0.059   5.048   2.294
 5276TIP3    H215772   0.064   4.983   2.157
 5277TIP3   OH215773   0.365   0.598   3.988
 5277TIP3    H115774   0.351   0.674   4.044
 5277TIP3    H215775   0.287   0.595   3.932
 5278TIP3   OH215776   5.131   5.237   1.447
 5278TIP3    H115777   5.171   5.201   1.368
 5278TIP3    H215778   5.188   5.207   1.518
 5279TIP3   OH215779   3.979   6.829   6.334
 5279TIP3    H115780   4.023   6.912   6.315
 5279TIP3    H215781   4.049   6.764   6.337
 5280TIP3   OH215782   5.911   2.810   0.998
 5280TIP3    H115783   5.839   2.791   0.938
 5280TIP3    H215784   5.910   2.737   1.060
 5281TIP3   OH215785   2.395   7.562   2.162
 5281TIP3    H115786   2.457   7.603   2.222
 5281TIP3    H215787   2.409   7.468   2.173
 5282TIP3   OH215788   3.359   2.736   0.170
 5282TIP3    H115789   3.334   2.822   0.134
 5282TIP3    H215790   3.387   2.755   0.259
 5283TIP3   OH215791   8.037   3.399   2.435
 5283TIP3    H115792   7.942   3.390   2.428
 5283TIP3    H215793   8.062   3.346   2.511
 5284TIP3   OH215794   1.602   0.032   6.333
 5284TIP3    H115795   1.599  -0.061   6.356
 5284TIP3    H215796   1.621   0.033   6.239
 5285TIP3   OH215797   0.877   6.330   0.992
 5285TIP3    H115798   0.908   6.283   1.069
 5285TIP3    H215799   0.922   6.289   0.918
 5286TIP3   OH215800   2.105   7.784   3.177
 5286TIP3    H115801   2.191   7.765   3.214
 5286TIP3    H215802   2.074   7.861   3.226
 5287TIP3   OH215803   4.384   0.495   3.010
 5287TIP3    H115804   4.445   0.479   3.081
 5287TIP3    H215805   4.369   0.409   2.971
 5288TIP3   OH215806   0.318   1.589   2.648
 5288TIP3    H115807   0.309   1.494   2.646
 5288TIP3    H215808   0.248   1.618   2.707
 5289TIP3   OH215809   1.837   6.391   1.927
 5289TIP3    H115810   1.804   6.478   1.947
 5289TIP3    H215811   1.932   6.398   1.939
 5290TIP3   OH215812   0.702   3.414   2.202
 5290TIP3    H115813   0.629   3.428   2.262
 5290TIP3    H215814   0.672   3.344   2.144
 5291TIP3   OH215815   2.673   2.320   4.220
 5291TIP3    H115816   2.682   2.351   4.130
 5291TIP3    H215817   2.761   2.332   4.258
 5292TIP3   OH215818   2.383   6.452   4.673
 5292TIP3    H115819   2.352   6.458   4.583
 5292TIP3    H215820   2.380   6.359   4.693
 5293TIP3   OH215821   6.448   0.900   3.102
 5293TIP3    H115822   6.531   0.948   3.104
 5293TIP3    H215823   6.388   0.956   3.052
 5294TIP3   OH215824   3.544   3.334   4.288
 5294TIP3    H115825   3.544   3.256   4.231
 5294TIP3    H215826   3.630   3.333   4.330
 5295TIP3   OH215827   6.687   3.203   1.366
 5295TIP3    H115828   6.621   3.251   1.414
 5295TIP3    H215829   6.646   3.182   1.282
 5296TIP3   OH215830   5.185   5.996   0.778
 5296TIP3    H115831   5.260   5.959   0.732
 5296TIP3    H215832   5.197   6.090   0.770
 5297TIP3   OH215833   0.257   2.117   1.613
 5297TIP3    H115834   0.323   2.051   1.592
 5297TIP3    H215835   0.294   2.199   1.580
 5298TIP3   OH215836   6.885   4.601   4.866
 5298TIP3    H115837   6.935   4.680   4.847
 5298TIP3    H215838   6.812   4.604   4.804
 5299TIP3   OH215839   3.628   7.618   4.941
 5299TIP3    H115840   3.676   7.672   4.878
 5299TIP3    H215841   3.693   7.596   5.007
 5300TIP3   OH215842   5.843   2.397   0.047
 5300TIP3    H115843   5.797   2.356  -0.026
 5300TIP3    H215844   5.919   2.439   0.007
 5301TIP3   OH215845   0.015   0.521   0.559
 5301TIP3    H115846  -0.023   0.609   0.566
 5301TIP3    H215847   0.082   0.518   0.627
 5302TIP3   OH215848   1.177   4.568   6.580
 5302TIP3    H115849   1.227   4.489   6.563
 5302TIP3    H215850   1.091   4.537   6.608
 5303TIP3   OH215851   2.624   7.023   2.285
 5303TIP3    H115852   2.601   7.022   2.378
 5303TIP3    H215853   2.568   7.090   2.247
 5304TIP3   OH215854   1.108   3.669   5.248
 5304TIP3    H115855   1.056   3.656   5.328
 5304TIP3    H215856   1.124   3.581   5.215
 5305TIP3   OH215857   6.308   5.665   4.015
 5305TIP3    H115858   6.232   5.651   4.072
 5305TIP3    H215859   6.292   5.751   3.976
 5306TIP3   OH215860   3.139   1.868   0.356
 5306TIP3    H115861   3.168   1.959   0.361
 5306TIP3    H215862   3.048   1.874   0.325
 5307TIP3   OH215863   2.699   5.854   4.686
 5307TIP3    H115864   2.727   5.824   4.772
 5307TIP3    H215865   2.753   5.931   4.669
 5308TIP3   OH215866   1.341   1.371   2.587
 5308TIP3    H115867   1.382   1.457   2.589
 5308TIP3    H215868   1.388   1.321   2.654
 5309TIP3   OH215869   2.725   1.187   6.096
 5309TIP3    H115870   2.660   1.255   6.114
 5309TIP3    H215871   2.799   1.209   6.153
 5310TIP3   OH215872   1.498   0.138   4.419
 5310TIP3    H115873   1.594   0.140   4.419
 5310TIP3    H215874   1.473   0.230   4.430
 5311TIP3   OH215875   5.700   0.907   3.253
 5311TIP3    H115876   5.653   0.826   3.234
 5311TIP3    H215877   5.649   0.948   3.323
 5312TIP3   OH215878   4.453   4.841   5.350
 5312TIP3    H115879   4.365   4.836   5.386
 5312TIP3    H215880   4.461   4.932   5.320
 5313TIP3   OH215881   3.391   3.008   1.173
 5313TIP3    H115882   3.425   2.972   1.255
 5313TIP3    H215883   3.458   2.988   1.108
 5314TIP3   OH215884   6.288   5.972   1.535
 5314TIP3    H115885   6.259   5.907   1.599
 5314TIP3    H215886   6.277   5.929   1.450
 5315TIP3   OH215887   2.250   4.111   2.971
 5315TIP3    H115888   2.343   4.092   2.959
 5315TIP3    H215889   2.248   4.182   3.036
 5316TIP3   OH215890   8.014   0.438   2.446
 5316TIP3    H115891   7.960   0.498   2.498
 5316TIP3    H215892   7.953   0.372   2.414
 5317TIP3   OH215893   3.415   5.261   3.841
 5317TIP3    H115894   3.397   5.352   3.864
 5317TIP3    H215895   3.330   5.218   3.844
 5318TIP3   OH215896   2.576   6.533   0.620
 5318TIP3    H115897   2.548   6.511   0.532
 5318TIP3    H215898   2.672   6.529   0.617
 5319TIP3   OH215899   2.809   3.849   4.950
 5319TIP3    H115900   2.831   3.769   4.997
 5319TIP3    H215901   2.886   3.905   4.961
 5320TIP3   OH215902   7.930   6.422   1.276
 5320TIP3    H115903   7.997   6.435   1.210
 5320TIP3    H215904   7.927   6.505   1.323
 5321TIP3   OH215905   0.990   0.849   6.460
 5321TIP3    H115906   0.908   0.898   6.467
 5321TIP3    H215907   1.031   0.883   6.381
 5322TIP3   OH215908   4.434   2.382   6.420
 5322TIP3    H115909   4.507   2.357   6.364
 5322TIP3    H215910   4.404   2.466   6.384
 5323TIP3   OH215911   1.861   1.314   2.843
 5323TIP3    H115912   1.799   1.348   2.907
 5323TIP3    H215913   1.847   1.219   2.843
 5324TIP3   OH215914   0.978   2.606   1.322
 5324TIP3    H115915   0.975   2.608   1.226
 5324TIP3    H215916   0.897   2.647   1.350
 5325TIP3   OH215917   1.558   6.142   5.613
 5325TIP3    H115918   1.497   6.075   5.583
 5325TIP3    H215919   1.522   6.170   5.698
 5326TIP3   OH215920   3.492   5.880   4.069
 5326TIP3    H115921   3.516   5.972   4.067
 5326TIP3    H215922   3.575   5.833   4.067
 5327TIP3   OH215923   5.743   0.736   2.534
 5327TIP3    H115924   5.829   0.697   2.515
 5327TIP3    H215925   5.763   0.813   2.586
 5328TIP3   OH215926   6.541   7.674   1.965
 5328TIP3    H115927   6.599   7.602   1.988
 5328TIP3    H215928   6.599   7.740   1.927
 5329TIP3   OH215929   1.417   6.648   2.789
 5329TIP3    H115930   1.418   6.668   2.696
 5329TIP3    H215931   1.387   6.557   2.794
 5330TIP3   OH215932   1.696   3.261   1.427
 5330TIP3    H115933   1.774   3.206   1.422
 5330TIP3    H215934   1.678   3.286   1.336
 5331TIP3   OH215935   2.926   6.438   5.305
 5331TIP3    H115936   3.013   6.438   5.345
 5331TIP3    H215937   2.916   6.526   5.269
 5332TIP3   OH215938   1.607   7.407   4.682
 5332TIP3    H115939   1.515   7.383   4.689
 5332TIP3    H215940   1.652   7.347   4.742
 5333TIP3   OH215941   1.131   2.066   0.099
 5333TIP3    H115942   1.120   1.982   0.055
 5333TIP3    H215943   1.082   2.128   0.044
 5334TIP3   OH215944   7.800   3.380   5.107
 5334TIP3    H115945   7.882   3.332   5.104
 5334TIP3    H215946   7.790   3.417   5.019
 5335TIP3   OH215947   5.026   4.167   4.970
 5335TIP3    H115948   5.114   4.134   4.987
 5335TIP3    H215949   4.971   4.125   5.036
 5336TIP3   OH215950   2.999   2.761   0.581
 5336TIP3    H115951   2.950   2.680   0.563
 5336TIP3    H215952   3.090   2.732   0.588
 5337TIP3   OH215953   0.145   6.729   3.092
 5337TIP3    H115954   0.139   6.815   3.050
 5337TIP3    H215955   0.057   6.711   3.124
 5338TIP3   OH215956   4.318   2.133   1.908
 5338TIP3    H115957   4.404   2.112   1.944
 5338TIP3    H215958   4.315   2.087   1.824
 5339TIP3   OH215959   6.963   3.832   1.629
 5339TIP3    H115960   7.023   3.892   1.673
 5339TIP3    H215961   6.935   3.879   1.550
 5340TIP3   OH215962   6.445   4.419   6.622
 5340TIP3    H115963   6.520   4.399   6.678
 5340TIP3    H215964   6.445   4.514   6.615
 5341TIP3   OH215965   1.948   0.454   5.305
 5341TIP3    H115966   2.014   0.417   5.364
 5341TIP3    H215967   1.877   0.391   5.306
 5342TIP3   OH215968   4.560   6.017   2.806
 5342TIP3    H115969   4.636   6.038   2.751
 5342TIP3    H215970   4.487   6.008   2.744
 5343TIP3   OH215971   0.229   4.003   3.815
 5343TIP3    H115972   0.296   3.999   3.748
 5343TIP3    H215973   0.273   3.973   3.895
 5344TIP3   OH215974   3.191   4.084   4.357
 5344TIP3    H115975   3.111   4.033   4.347
 5344TIP3    H215976   3.197   4.102   4.450
 5345TIP3   OH215977   6.321   1.010   5.642
 5345TIP3    H115978   6.267   0.959   5.582
 5345TIP3    H215979   6.339   1.091   5.594
 5346TIP3   OH215980   3.147   3.894   0.701
 5346TIP3    H115981   3.114   3.807   0.680
 5346TIP3    H215982   3.237   3.878   0.731
 5347TIP3   OH215983   4.716   3.169   3.393
 5347TIP3    H115984   4.762   3.085   3.403
 5347TIP3    H215985   4.654   3.171   3.466
 5348TIP3   OH215986   5.842   7.174   5.731
 5348TIP3    H115987   5.868   7.258   5.768
 5348TIP3    H215988   5.758   7.190   5.689
 5349TIP3   OH215989   4.305   3.118   3.499
 5349TIP3    H115990   4.301   3.028   3.530
 5349TIP3    H215991   4.234   3.123   3.434
 5350TIP3   OH215992   6.036   7.008   5.480
 5350TIP3    H115993   5.976   6.960   5.536
 5350TIP3    H215994   6.073   6.942   5.421
 5351TIP3   OH215995   7.803   0.023   2.844
 5351TIP3    H115996   7.823  -0.044   2.778
 5351TIP3    H215997   7.858   0.097   2.821
 5352TIP3   OH215998   5.600   3.588   0.051
 5352TIP3    H115999   5.519   3.633   0.025
 5352TIP3    H216000   5.669   3.633   0.002
 5353TIP3   OH216001   4.963   3.772   2.039
 5353TIP3    H116002   5.000   3.859   2.053
 5353TIP3    H216003   4.985   3.751   1.948
 5354TIP3   OH216004   5.584   6.655   5.090
 5354TIP3    H116005   5.505   6.615   5.052
 5354TIP3    H216006   5.589   6.619   5.179
 5355TIP3   OH216007   2.971   3.570   3.641
 5355TIP3    H116008   3.045   3.515   3.616
 5355TIP3    H216009   2.898   3.539   3.587
 5356TIP3   OH216010   4.684   3.631   6.233
 5356TIP3    H116011   4.675   3.677   6.150
 5356TIP3    H216012   4.631   3.681   6.295
 5357TIP3   OH216013   1.776   2.869   0.810
 5357TIP3    H116014   1.829   2.887   0.888
 5357TIP3    H216015   1.768   2.773   0.809
 5358TIP3   OH216016   1.703   6.933   2.464
 5358TIP3    H116017   1.661   6.853   2.432
 5358TIP3    H216018   1.743   6.972   2.387
 5359TIP3   OH216019   6.923   0.931   4.573
 5359TIP3    H116020   7.008   0.933   4.617
 5359TIP3    H216021   6.860   0.939   4.644
 5360TIP3   OH216022   7.573   6.885   2.467
 5360TIP3    H116023   7.494   6.831   2.458
 5360TIP3    H216024   7.550   6.968   2.427
 5361TIP3   OH216025   5.673   2.766   2.120
 5361TIP3    H116026   5.645   2.852   2.151
 5361TIP3    H216027   5.644   2.706   2.189
 5362TIP3   OH216028   6.578   4.479   4.115
 5362TIP3    H116029   6.586   4.443   4.027
 5362TIP3    H216030   6.597   4.572   4.106
 5363TIP3   OH216031   4.832   4.185   2.606
 5363TIP3    H116032   4.781   4.132   2.667
 5363TIP3    H216033   4.923   4.160   2.624
 5364TIP3   OH216034   4.194   0.838   1.265
 5364TIP3    H116035   4.141   0.773   1.219
 5364TIP3    H216036   4.187   0.917   1.210
 5365TIP3   OH216037   3.811   1.843   6.227
 5365TIP3    H116038   3.720   1.833   6.198
 5365TIP3    H216039   3.851   1.901   6.162
 5366TIP3   OH216040   6.106   5.948   2.852
 5366TIP3    H116041   6.193   5.930   2.886
 5366TIP3    H216042   6.079   6.029   2.896
 5367TIP3   OH216043   1.796   2.645   1.169
 5367TIP3    H116044   1.798   2.585   1.095
 5367TIP3    H216045   1.822   2.729   1.133
 5368TIP3   OH216046   0.521   7.188   5.576
 5368TIP3    H116047   0.515   7.131   5.653
 5368TIP3    H216048   0.437   7.177   5.532
 5369TIP3   OH216049   5.752   6.924   0.498
 5369TIP3    H116050   5.673   6.876   0.521
 5369TIP3    H216051   5.808   6.919   0.575
 5370TIP3   OH216052   2.712   2.698   1.632
 5370TIP3    H116053   2.744   2.608   1.627
 5370TIP3    H216054   2.698   2.724   1.541
 5371TIP3   OH216055   6.447   5.136   3.709
 5371TIP3    H116056   6.401   5.054   3.693
 5371TIP3    H216057   6.421   5.193   3.637
 5372TIP3   OH216058   3.308   0.681   6.594
 5372TIP3    H116059   3.264   0.657   6.513
 5372TIP3    H216060   3.366   0.753   6.569
 5373TIP3   OH216061   0.420   1.083   5.239
 5373TIP3    H116062   0.405   0.991   5.261
 5373TIP3    H216063   0.386   1.131   5.314
 5374TIP3   OH216064   2.284   3.306   3.192
 5374TIP3    H116065   2.368   3.333   3.153
 5374TIP3    H216066   2.294   3.213   3.207
 5375TIP3   OH216067   5.286   6.255   5.175
 5375TIP3    H116068   5.382   6.251   5.180
 5375TIP3    H216069   5.268   6.324   5.111
 5376TIP3   OH216070   6.177   1.882   5.375
 5376TIP3    H116071   6.103   1.834   5.412
 5376TIP3    H216072   6.252   1.824   5.389
 5377TIP3   OH216073   1.295   5.655   5.126
 5377TIP3    H116074   1.256   5.680   5.042
 5377TIP3    H216075   1.309   5.561   5.120
 5378TIP3   OH216076   3.557   1.423   6.256
 5378TIP3    H116077   3.532   1.473   6.179
 5378TIP3    H216078   3.608   1.350   6.222
 5379TIP3   OH216079   7.314   5.089   1.055
 5379TIP3    H116080   7.385   5.045   1.101
 5379TIP3    H216081   7.291   5.029   0.984
 5380TIP3   OH216082   6.691   1.958   4.153
 5380TIP3    H116083   6.628   1.888   4.172
 5380TIP3    H216084   6.721   1.987   4.239
 5381TIP3   OH216085   4.487   1.452   1.020
 5381TIP3    H116086   4.462   1.542   1.000
 5381TIP3    H216087   4.579   1.457   1.043
 5382TIP3   OH216088   2.559   7.520   1.121
 5382TIP3    H116089   2.527   7.430   1.109
 5382TIP3    H216090   2.585   7.548   1.034
 5383TIP3   OH216091   5.727   0.226   0.601
 5383TIP3    H116092   5.683   0.285   0.661
 5383TIP3    H216093   5.731   0.274   0.518
 5384TIP3   OH216094   3.726   3.330   5.797
 5384TIP3    H116095   3.682   3.276   5.732
 5384TIP3    H216096   3.657   3.355   5.858
 5385TIP3   OH216097   2.799   2.705   5.420
 5385TIP3    H116098   2.868   2.704   5.353
 5385TIP3    H216099   2.757   2.619   5.412
 5386TIP3   OH216100   0.471   1.551   1.558
 5386TIP3    H116101   0.556   1.514   1.537
 5386TIP3    H216102   0.455   1.526   1.649
 5387TIP3   OH216103   4.689   7.790   0.669
 5387TIP3    H116104   4.675   7.813   0.577
 5387TIP3    H216105   4.623   7.840   0.717
 5388TIP3   OH216106   1.500   4.377   4.303
 5388TIP3    H116107   1.525   4.298   4.255
 5388TIP3    H216108   1.406   4.369   4.314
 5389TIP3   OH216109   4.085   5.371   4.941
 5389TIP3    H116110   4.057   5.292   4.894
 5389TIP3    H216111   4.154   5.341   5.000
 5390TIP3   OH216112   4.936   7.209   5.678
 5390TIP3    H116113   4.912   7.145   5.745
 5390TIP3    H216114   4.858   7.217   5.623
 5391TIP3   OH216115   4.504   5.691   6.251
 5391TIP3    H116116   4.578   5.641   6.285
 5391TIP3    H216117   4.542   5.747   6.184
 5392TIP3   OH216118   5.768   6.295   1.628
 5392TIP3    H116119   5.819   6.228   1.583
 5392TIP3    H216120   5.830   6.366   1.643
 5393TIP3   OH216121   1.646   1.468   1.098
 5393TIP3    H116122   1.678   1.525   1.167
 5393TIP3    H216123   1.690   1.499   1.019
 5394TIP3   OH216124   3.122   5.427   4.379
 5394TIP3    H116125   3.091   5.353   4.431
 5394TIP3    H216126   3.211   5.403   4.355
 5395TIP3   OH216127   2.691   6.582   5.441
 5395TIP3    H116128   2.703   6.568   5.347
 5395TIP3    H216129   2.628   6.515   5.468
 5396TIP3   OH216130   0.706   5.773   5.200
 5396TIP3    H116131   0.620   5.732   5.198
 5396TIP3    H216132   0.726   5.792   5.108
 5397TIP3   OH216133   0.406   0.321   1.591
 5397TIP3    H116134   0.408   0.335   1.496
 5397TIP3    H216135   0.489   0.358   1.622
 5398TIP3   OH216136   8.239   4.926   0.496
 5398TIP3    H116137   8.277   5.012   0.481
 5398TIP3    H216138   8.297   4.865   0.451
 5399TIP3   OH216139   8.204   2.586   5.657
 5399TIP3    H116140   8.185   2.544   5.740
 5399TIP3    H216141   8.295   2.614   5.664
 5400TIP3   OH216142   1.875   2.109   5.374
 5400TIP3    H116143   1.835   2.196   5.367
 5400TIP3    H216144   1.935   2.105   5.299
 5401TIP3   OH216145   6.358   2.206   6.642
 5401TIP3    H116146   6.452   2.214   6.658
 5401TIP3    H216147   6.333   2.285   6.595
 5402TIP3   OH216148   7.857   5.682   3.185
 5402TIP3    H116149   7.930   5.694   3.246
 5402TIP3    H216150   7.898   5.662   3.101
 5403TIP3   OH216151   7.598   2.188   0.839
 5403TIP3    H116152   7.580   2.263   0.782
 5403TIP3    H216153   7.518   2.136   0.837
 5404TIP3   OH216154   4.384   3.117   1.993
 5404TIP3    H116155   4.390   3.173   2.071
 5404TIP3    H216156   4.468   3.127   1.949
 5405TIP3   OH216157   6.888   1.987   1.577
 5405TIP3    H116158   6.841   2.064   1.545
 5405TIP3    H216159   6.821   1.920   1.587
 5406TIP3   OH216160   1.374   0.203   6.323
 5406TIP3    H116161   1.435   0.144   6.368
 5406TIP3    H216162   1.346   0.265   6.390
 5407TIP3   OH216163   5.317   3.916   1.771
 5407TIP3    H116164   5.355   3.828   1.774
 5407TIP3    H216165   5.302   3.932   1.678
 5408TIP3   OH216166   5.702   5.465   4.175
 5408TIP3    H116167   5.611   5.490   4.193
 5408TIP3    H216168   5.755   5.530   4.220
 5409TIP3   OH216169   6.185   0.054   0.206
 5409TIP3    H116170   6.190   0.131   0.150
 5409TIP3    H216171   6.158   0.088   0.292
 5410TIP3   OH216172   5.128   1.179   2.624
 5410TIP3    H116173   5.216   1.197   2.659
 5410TIP3    H216174   5.093   1.111   2.680
 5411TIP3   OH216175   0.198   5.148   2.971
 5411TIP3    H116176   0.259   5.155   2.897
 5411TIP3    H216177   0.224   5.066   3.014
 5412TIP3   OH216178   5.191   7.593   1.551
 5412TIP3    H116179   5.212   7.648   1.475
 5412TIP3    H216180   5.234   7.637   1.625
 5413TIP3   OH216181   7.587   0.866   0.599
 5413TIP3    H116182   7.605   0.959   0.583
 5413TIP3    H216183   7.498   0.865   0.633
 5414TIP3   OH216184   3.605   3.169   4.641
 5414TIP3    H116185   3.545   3.108   4.598
 5414TIP3    H216186   3.692   3.142   4.609
 5415TIP3   OH216187   8.244   4.452   0.112
 5415TIP3    H116188   8.168   4.395   0.115
 5415TIP3    H216189   8.316   4.399   0.147
 5416TIP3   OH216190   6.801   1.578   4.132
 5416TIP3    H116191   6.867   1.613   4.192
 5416TIP3    H216192   6.850   1.520   4.074
 5417TIP3   OH216193   1.090   3.697   1.428
 5417TIP3    H116194   1.043   3.630   1.477
 5417TIP3    H216195   1.054   3.780   1.459
 5418TIP3   OH216196   4.482   0.879   1.886
 5418TIP3    H116197   4.565   0.835   1.904
 5418TIP3    H216198   4.505   0.969   1.865
 5419TIP3   OH216199   2.418   0.661   5.027
 5419TIP3    H116200   2.339   0.707   5.000
 5419TIP3    H216201   2.387   0.580   5.066
 5420TIP3   OH216202   2.233   1.572   3.454
 5420TIP3    H116203   2.156   1.579   3.398
 5420TIP3    H216204   2.281   1.496   3.420
 5421TIP3   OH216205   0.516   7.456   6.478
 5421TIP3    H116206   0.463   7.464   6.399
 5421TIP3    H216207   0.514   7.543   6.517
 5422TIP3   OH216208   5.900   1.725   0.179
 5422TIP3    H116209   5.901   1.661   0.250
 5422TIP3    H216210   5.821   1.776   0.192
 5423TIP3   OH216211   6.658   6.620   5.832
 5423TIP3    H116212   6.599   6.545   5.832
 5423TIP3    H216213   6.680   6.633   5.924
 5424TIP3   OH216214   0.959   7.098   0.895
 5424TIP3    H116215   1.017   7.101   0.819
 5424TIP3    H216216   1.013   7.062   0.965
 5425TIP3   OH216217   1.697   5.776   3.438
 5425TIP3    H116218   1.660   5.715   3.502
 5425TIP3    H216219   1.631   5.846   3.431
 5426TIP3   OH216220   5.830   2.595   0.236
 5426TIP3    H116221   5.738   2.614   0.222
 5426TIP3    H216222   5.851   2.525   0.174
 5427TIP3   OH216223   2.569   4.177   3.890
 5427TIP3    H116224   2.639   4.125   3.850
 5427TIP3    H216225   2.503   4.112   3.916
 5428TIP3   OH216226   6.694   6.782   6.073
 5428TIP3    H116227   6.602   6.762   6.089
 5428TIP3    H216228   6.697   6.878   6.072
 5429TIP3   OH216229   1.632   6.208   0.524
 5429TIP3    H116230   1.555   6.197   0.468
 5429TIP3    H216231   1.637   6.303   0.537
 5430TIP3   OH216232   0.126   2.609   1.418
 5430TIP3    H116233   0.156   2.549   1.349
 5430TIP3    H216234   0.074   2.553   1.477
 5431TIP3   OH216235   1.408   6.222   5.841
 5431TIP3    H116236   1.487   6.275   5.853
 5431TIP3    H216237   1.349   6.248   5.911
 5432TIP3   OH216238   4.027   5.753   3.208
 5432TIP3    H116239   3.981   5.671   3.226
 5432TIP3    H216240   3.978   5.793   3.136
 5433TIP3   OH216241   4.458   7.377   2.742
 5433TIP3    H116242   4.531   7.391   2.802
 5433TIP3    H216243   4.434   7.465   2.712
 5434TIP3   OH216244   4.146   6.783   4.471
 5434TIP3    H116245   4.138   6.841   4.547
 5434TIP3    H216246   4.136   6.841   4.395
 5435TIP3   OH216247   4.682   7.365   1.123
 5435TIP3    H116248   4.593   7.336   1.103
 5435TIP3    H216249   4.731   7.351   1.042
 5436TIP3   OH216250   1.328   0.353   3.738
 5436TIP3    H116251   1.311   0.268   3.778
 5436TIP3    H216252   1.256   0.367   3.677
 5437TIP3   OH216253   5.782   1.381   2.599
 5437TIP3    H116254   5.707   1.371   2.540
 5437TIP3    H216255   5.776   1.306   2.658
 5438TIP3   OH216256   0.858   7.252   4.355
 5438TIP3    H116257   0.810   7.329   4.324
 5438TIP3    H216258   0.799   7.211   4.418
 5439TIP3   OH216259   2.980   3.417   0.541
 5439TIP3    H116260   3.044   3.346   0.544
 5439TIP3    H216261   2.901   3.379   0.581
 5440TIP3   OH216262   4.237   6.983   5.762
 5440TIP3    H116263   4.148   6.981   5.726
 5440TIP3    H216264   4.288   7.028   5.695
 5441TIP3   OH216265   4.268   2.230   1.407
 5441TIP3    H116266   4.180   2.200   1.382
 5441TIP3    H216267   4.327   2.185   1.346
 5442TIP3   OH216268   5.008   2.262   2.485
 5442TIP3    H116269   5.007   2.198   2.413
 5442TIP3    H216270   4.985   2.212   2.563
 5443TIP3   OH216271   3.808   0.207   3.903
 5443TIP3    H116272   3.763   0.126   3.927
 5443TIP3    H216273   3.799   0.264   3.979
 5444TIP3   OH216274   5.945   0.094   3.474
 5444TIP3    H116275   5.941  -0.002   3.476
 5444TIP3    H216276   5.860   0.123   3.507
 5445TIP3   OH216277   6.024   4.604   1.976
 5445TIP3    H116278   5.969   4.620   2.053
 5445TIP3    H216279   6.113   4.597   2.011
 5446TIP3   OH216280   2.583   5.218   5.155
 5446TIP3    H116281   2.612   5.308   5.142
 5446TIP3    H216282   2.664   5.167   5.160
 5447TIP3   OH216283   1.420   1.164   6.719
 5447TIP3    H116284   1.473   1.203   6.788
 5447TIP3    H216285   1.331   1.193   6.737
 5448TIP3   OH216286   3.291   7.319   1.375
 5448TIP3    H116287   3.344   7.356   1.305
 5448TIP3    H216288   3.201   7.329   1.344
 5449TIP3   OH216289   4.047   1.155   0.766
 5449TIP3    H116290   3.969   1.167   0.820
 5449TIP3    H216291   4.120   1.163   0.828
 5450TIP3   OH216292   1.323   0.372   2.648
 5450TIP3    H116293   1.369   0.453   2.628
 5450TIP3    H216294   1.392   0.309   2.668
 5451TIP3   OH216295   0.880   7.007   6.562
 5451TIP3    H116296   0.817   6.977   6.628
 5451TIP3    H216297   0.925   6.927   6.534
 5452TIP3   OH216298   1.585   5.188   2.477
 5452TIP3    H116299   1.623   5.209   2.562
 5452TIP3    H216300   1.639   5.236   2.414
 5453TIP3   OH216301   0.725   0.758   0.747
 5453TIP3    H116302   0.681   0.673   0.757
 5453TIP3    H216303   0.660   0.822   0.774
 5454TIP3   OH216304   4.491   4.088   6.357
 5454TIP3    H116305   4.547   4.098   6.280
 5454TIP3    H216306   4.520   4.157   6.416
 5455TIP3   OH216307   8.282   5.231   3.746
 5455TIP3    H116308   8.224   5.307   3.760
 5455TIP3    H216309   8.341   5.232   3.821
 5456TIP3   OH216310   5.335   3.837   6.600
 5456TIP3    H116311   5.367   3.881   6.522
 5456TIP3    H216312   5.240   3.853   6.599
 5457TIP3   OH216313   4.043   0.751   6.502
 5457TIP3    H116314   4.016   0.706   6.582
 5457TIP3    H216315   4.064   0.840   6.530
 5458TIP3   OH216316   3.594   3.790   6.202
 5458TIP3    H116317   3.653   3.792   6.277
 5458TIP3    H216318   3.548   3.707   6.210
 5459TIP3   OH216319   4.917   7.008   5.855
 5459TIP3    H116320   4.867   7.019   5.936
 5459TIP3    H216321   4.966   6.926   5.868
 5460TIP3   OH216322   5.126   4.248   6.448
 5460TIP3    H116323   5.078   4.315   6.496
 5460TIP3    H216324   5.132   4.174   6.509
 5461TIP3   OH216325   4.391   3.628   5.359
 5461TIP3    H116326   4.396   3.638   5.454
 5461TIP3    H216327   4.311   3.675   5.334
 5462TIP3   OH216328   0.802   2.132   6.517
 5462TIP3    H116329   0.779   2.049   6.475
 5462TIP3    H216330   0.726   2.188   6.502
 5463TIP3   OH216331   4.575   1.969   0.276
 5463TIP3    H116332   4.496   2.020   0.262
 5463TIP3    H216333   4.646   2.023   0.241
 5464TIP3   OH216334   7.117   6.943   1.849
 5464TIP3    H116335   7.188   6.881   1.868
 5464TIP3    H216336   7.145   7.025   1.889
 5465TIP3   OH216337   3.255   2.142   3.916
 5465TIP3    H116338   3.162   2.148   3.894
 5465TIP3    H216339   3.288   2.231   3.905
 5466TIP3   OH216340   0.633   7.459   4.289
 5466TIP3    H116341   0.555   7.412   4.260
 5466TIP3    H216342   0.611   7.489   4.377
 5467TIP3   OH216343   1.566   3.484   1.519
 5467TIP3    H116344   1.552   3.397   1.482
 5467TIP3    H216345   1.478   3.518   1.535
 5468TIP3   OH216346   2.838   3.259   6.242
 5468TIP3    H116347   2.895   3.184   6.223
 5468TIP3    H216348   2.759   3.221   6.281
 5469TIP3   OH216349   2.835   1.064   1.205
 5469TIP3    H116350   2.785   0.993   1.245
 5469TIP3    H216351   2.894   1.020   1.143
 5470TIP3   OH216352   7.161   1.979   6.083
 5470TIP3    H116353   7.083   2.008   6.131
 5470TIP3    H216354   7.163   2.035   6.006
 5471TIP3   OH216355   1.830   5.867   0.422
 5471TIP3    H116356   1.873   5.952   0.419
 5471TIP3    H216357   1.787   5.864   0.508
 5472TIP3   OH216358   3.971   1.026   6.234
 5472TIP3    H116359   4.054   1.065   6.205
 5472TIP3    H216360   3.950   0.961   6.166
 5473TIP3   OH216361   5.654   4.975   2.752
 5473TIP3    H116362   5.727   5.037   2.748
 5473TIP3    H216363   5.582   5.027   2.787
 5474TIP3   OH216364   4.034   3.154   0.313
 5474TIP3    H116365   4.045   3.073   0.363
 5474TIP3    H216366   4.006   3.218   0.378
 5475TIP3   OH216367   5.294   0.708   0.734
 5475TIP3    H116368   5.259   0.620   0.743
 5475TIP3    H216369   5.330   0.728   0.821
 5476TIP3   OH216370   8.132   2.679   1.628
 5476TIP3    H116371   8.215   2.648   1.663
 5476TIP3    H216372   8.110   2.755   1.681
 5477TIP3   OH216373   4.353   5.375   3.965
 5477TIP3    H116374   4.375   5.286   3.994
 5477TIP3    H216375   4.371   5.430   4.041
 5478TIP3   OH216376   1.523   2.687   2.035
 5478TIP3    H116377   1.573   2.697   2.116
 5478TIP3    H216378   1.436   2.721   2.056
 5479TIP3   OH216379   2.672   4.370   0.024
 5479TIP3    H116380   2.752   4.353   0.074
 5479TIP3    H216381   2.631   4.284   0.012
 5480TIP3   OH216382   4.802   7.166   2.620
 5480TIP3    H116383   4.733   7.103   2.637
 5480TIP3    H216384   4.797   7.228   2.692
 5481TIP3   OH216385   4.748   4.578   2.198
 5481TIP3    H116386   4.656   4.553   2.210
 5481TIP3    H216387   4.797   4.516   2.252
 5482TIP3   OH216388   2.654   4.243   0.987
 5482TIP3    H116389   2.653   4.299   0.910
 5482TIP3    H216390   2.581   4.275   1.040
 5483TIP3   OH216391   7.209   4.643   3.651
 5483TIP3    H116392   7.273   4.651   3.721
 5483TIP3    H216393   7.143   4.582   3.685
 5484TIP3   OH216394   4.255   6.760   1.606
 5484TIP3    H116395   4.266   6.847   1.568
 5484TIP3    H216396   4.333   6.711   1.577
 5485TIP3   OH216397   6.938   1.191   2.426
 5485TIP3    H116398   6.846   1.211   2.414
 5485TIP3    H216399   6.982   1.276   2.422
 5486TIP3   OH216400   5.555   3.422   3.662
 5486TIP3    H116401   5.508   3.347   3.626
 5486TIP3    H216402   5.543   3.491   3.598
 5487TIP3   OH216403   0.990   1.975   4.916
 5487TIP3    H116404   0.953   2.063   4.921
 5487TIP3    H216405   1.082   1.986   4.943
 5488TIP3   OH216406   3.542   6.870   5.022
 5488TIP3    H116407   3.460   6.879   5.071
 5488TIP3    H216408   3.604   6.924   5.070
 5489TIP3   OH216409   1.654   3.835   5.186
 5489TIP3    H116410   1.558   3.836   5.194
 5489TIP3    H216411   1.685   3.811   5.273
 5490TIP3   OH216412   4.154   2.859   3.258
 5490TIP3    H116413   4.154   2.928   3.192
 5490TIP3    H216414   4.239   2.817   3.250
 5491TIP3   OH216415   4.840   7.269   3.432
 5491TIP3    H116416   4.748   7.293   3.443
 5491TIP3    H216417   4.851   7.258   3.338
 5492TIP3   OH216418   6.864   7.531   3.204
 5492TIP3    H116419   6.846   7.591   3.276
 5492TIP3    H216420   6.811   7.564   3.132
 5493TIP3   OH216421   0.371   0.737   4.453
 5493TIP3    H116422   0.392   0.826   4.424
 5493TIP3    H216423   0.456   0.694   4.463
 5494TIP3   OH216424   7.049   3.128   3.970
 5494TIP3    H116425   7.103   3.152   3.895
 5494TIP3    H216426   7.108   3.137   4.045
 5495TIP3   OH216427   5.163   3.252   2.003
 5495TIP3    H116428   5.204   3.216   2.081
 5495TIP3    H216429   5.215   3.330   1.982
 5496TIP3   OH216430   0.529   4.512   5.887
 5496TIP3    H116431   0.566   4.560   5.961
 5496TIP3    H216432   0.438   4.498   5.911
 5497TIP3   OH216433   5.008   4.490   6.009
 5497TIP3    H116434   4.917   4.517   5.999
 5497TIP3    H216435   5.015   4.407   5.962
 5498TIP3   OH216436   5.429   0.971   1.745
 5498TIP3    H116437   5.515   0.935   1.767
 5498TIP3    H216438   5.407   1.028   1.818
 5499TIP3   OH216439   0.661   5.237   1.433
 5499TIP3    H116440   0.594   5.241   1.364
 5499TIP3    H216441   0.744   5.248   1.387
 5500TIP3   OH216442   7.413   4.546   5.191
 5500TIP3    H116443   7.402   4.452   5.179
 5500TIP3    H216444   7.505   4.562   5.168
 5501TIP3   OH216445   7.879   2.608   0.377
 5501TIP3    H116446   7.794   2.595   0.334
 5501TIP3    H216447   7.932   2.656   0.313
 5502TIP3   OH216448   7.965   1.268   3.415
 5502TIP3    H116449   7.970   1.311   3.500
 5502TIP3    H216450   7.983   1.337   3.352
 5503TIP3   OH216451   1.723   2.963   4.260
 5503TIP3    H116452   1.705   3.034   4.322
 5503TIP3    H216453   1.671   2.890   4.292
 5504TIP3   OH216454   7.800   6.992   2.978
 5504TIP3    H116455   7.743   6.976   2.903
 5504TIP3    H216456   7.753   7.056   3.031
 5505TIP3   OH216457   2.288   2.177   5.227
 5505TIP3    H116458   2.378   2.194   5.256
 5505TIP3    H216459   2.245   2.137   5.303
 5506TIP3   OH216460   4.048   2.538   3.848
 5506TIP3    H116461   4.074   2.487   3.925
 5506TIP3    H216462   3.965   2.579   3.874
 5507TIP3   OH216463   2.907   5.423   2.654
 5507TIP3    H116464   2.964   5.500   2.655
 5507TIP3    H216465   2.846   5.437   2.727
 5508TIP3   OH216466   5.881   1.101   1.917
 5508TIP3    H116467   5.903   1.179   1.867
 5508TIP3    H216468   5.929   1.030   1.873
 5509TIP3   OH216469   6.187   3.044   4.101
 5509TIP3    H116470   6.250   3.060   4.171
 5509TIP3    H216471   6.230   3.076   4.022
 5510TIP3   OH216472   1.361   2.498   5.154
 5510TIP3    H116473   1.306   2.521   5.229
 5510TIP3    H216474   1.332   2.557   5.084
 5511TIP3   OH216475   8.133   1.780   4.714
 5511TIP3    H116476   8.144   1.875   4.709
 5511TIP3    H216477   8.078   1.758   4.638
 5512TIP3   OH216478   2.424   1.887   4.787
 5512TIP3    H116479   2.415   1.809   4.731
 5512TIP3    H216480   2.490   1.941   4.742
 5513TIP3   OH216481   1.372   0.218   0.286
 5513TIP3    H116482   1.391   0.306   0.316
 5513TIP3    H216483   1.452   0.191   0.240
 5514TIP3   OH216484   5.128   4.508   0.190
 5514TIP3    H116485   5.147   4.554   0.108
 5514TIP3    H216486   5.095   4.575   0.249
 5515TIP3   OH216487   1.626   1.554   6.289
 5515TIP3    H116488   1.545   1.599   6.265
 5515TIP3    H216489   1.642   1.494   6.216
 5516TIP3   OH216490   2.860   7.772   6.565
 5516TIP3    H116491   2.886   7.748   6.654
 5516TIP3    H216492   2.766   7.751   6.561
 5517TIP3   OH216493   1.618   5.655   3.698
 5517TIP3    H116494   1.545   5.593   3.707
 5517TIP3    H216495   1.694   5.608   3.732
 5518TIP3   OH216496   4.550   7.164   0.239
 5518TIP3    H116497   4.515   7.094   0.294
 5518TIP3    H216498   4.639   7.135   0.217
 5519TIP3   OH216499   6.194   3.292   5.455
 5519TIP3    H116500   6.238   3.371   5.422
 5519TIP3    H216501   6.126   3.273   5.390
 5520TIP3   OH216502   2.832   1.547   4.705
 5520TIP3    H116503   2.895   1.519   4.639
 5520TIP3    H216504   2.832   1.475   4.769
 5521TIP3   OH216505   3.759   6.329   0.956
 5521TIP3    H116506   3.831   6.345   1.018
 5521TIP3    H216507   3.704   6.406   0.963
 5522TIP3   OH216508   5.832   5.897   0.012
 5522TIP3    H116509   5.880   5.815  -0.003
 5522TIP3    H216510   5.860   5.926   0.098
 5523TIP3   OH216511   3.618   5.609   1.895
 5523TIP3    H116512   3.697   5.555   1.888
 5523TIP3    H216513   3.650   5.694   1.925
 5524TIP3   OH216514   5.745   3.444   3.346
 5524TIP3    H116515   5.822   3.468   3.398
 5524TIP3    H216516   5.772   3.460   3.255
 5525TIP3   OH216517   5.719   5.915   1.619
 5525TIP3    H116518   5.763   5.996   1.593
 5525TIP3    H216519   5.788   5.863   1.661
 5526TIP3   OH216520   2.501   0.610   6.119
 5526TIP3    H116521   2.487   0.697   6.156
 5526TIP3    H216522   2.473   0.550   6.188
 5527TIP3   OH216523   0.101   1.013   0.616
 5527TIP3    H116524   0.060   1.015   0.530
 5527TIP3    H216525   0.030   1.031   0.678
 5528TIP3   OH216526   3.306   3.191   4.749
 5528TIP3    H116527   3.401   3.192   4.764
 5528TIP3    H216528   3.297   3.190   4.654
 5529TIP3   OH216529   4.083   0.180   0.466
 5529TIP3    H116530   4.004   0.230   0.490
 5529TIP3    H216531   4.049   0.095   0.436
 5530TIP3   OH216532   2.205   3.124   1.381
 5530TIP3    H116533   2.206   3.113   1.286
 5530TIP3    H216534   2.273   3.066   1.413
 5531TIP3   OH216535   6.712   1.708   1.074
 5531TIP3    H116536   6.639   1.737   1.019
 5531TIP3    H216537   6.695   1.749   1.159
 5532TIP3   OH216538   2.299   0.939   4.108
 5532TIP3    H116539   2.236   0.994   4.062
 5532TIP3    H216540   2.374   0.933   4.048
 5533TIP3   OH216541   3.595   3.415   2.152
 5533TIP3    H116542   3.533   3.412   2.225
 5533TIP3    H216543   3.662   3.351   2.175
 5534TIP3   OH216544   7.491   4.226   1.633
 5534TIP3    H116545   7.439   4.283   1.576
 5534TIP3    H216546   7.474   4.258   1.721
 5535TIP3   OH216547   6.558   6.618   1.517
 5535TIP3    H116548   6.607   6.700   1.514
 5535TIP3    H216549   6.567   6.588   1.608
 5536TIP3   OH216550   2.098   4.384   6.598
 5536TIP3    H116551   2.094   4.298   6.555
 5536TIP3    H216552   2.073   4.366   6.689
 5537TIP3   OH216553   5.688   5.320   3.114
 5537TIP3    H116554   5.718   5.397   3.064
 5537TIP3    H216555   5.612   5.351   3.162
 5538TIP3   OH216556   4.097   1.918   6.730
 5538TIP3    H116557   4.011   1.905   6.771
 5538TIP3    H216558   4.114   2.011   6.738
 5539TIP3   OH216559   1.798   5.781   5.883
 5539TIP3    H116560   1.707   5.751   5.888
 5539TIP3    H216561   1.836   5.755   5.967
 5540TIP3   OH216562   5.339   1.946   2.894
 5540TIP3    H116563   5.409   1.883   2.877
 5540TIP3    H216564   5.380   2.032   2.877
 5541TIP3   OH216565   1.899   0.980   0.159
 5541TIP3    H116566   1.833   0.957   0.224
 5541TIP3    H216567   1.892   1.075   0.149
 5542TIP3   OH216568   1.002   2.275   4.997
 5542TIP3    H116569   1.079   2.273   4.941
 5542TIP3    H216570   0.927   2.276   4.937
 5543TIP3   OH216571   6.926   1.508   1.068
 5543TIP3    H116572   6.975   1.567   1.125
 5543TIP3    H216573   6.862   1.564   1.024
 5544TIP3   OH216574   1.900   4.873   6.561
 5544TIP3    H116575   1.951   4.839   6.634
 5544TIP3    H216576   1.907   4.968   6.568
 5545TIP3   OH216577   4.185   6.280   5.323
 5545TIP3    H116578   4.253   6.236   5.375
 5545TIP3    H216579   4.175   6.224   5.246
 5546TIP3   OH216580   4.100   1.073   1.628
 5546TIP3    H116581   4.041   1.023   1.685
 5546TIP3    H216582   4.178   1.018   1.619
 5547TIP3   OH216583   2.135   3.804   6.556
 5547TIP3    H116584   2.207   3.788   6.617
 5547TIP3    H216585   2.167   3.773   6.472
 5548TIP3   OH216586   4.137   1.526   1.350
 5548TIP3    H116587   4.105   1.591   1.287
 5548TIP3    H216588   4.088   1.546   1.431
 5549TIP3   OH216589   8.133   6.448   1.071
 5549TIP3    H116590   8.076   6.442   0.994
 5549TIP3    H216591   8.211   6.398   1.047
 5550TIP3   OH216592   4.016   7.797   1.157
 5550TIP3    H116593   3.965   7.864   1.203
 5550TIP3    H216594   4.016   7.721   1.216
 5551TIP3   OH216595   8.074   0.290   1.156
 5551TIP3    H116596   8.071   0.274   1.061
 5551TIP3    H216597   7.983   0.283   1.184
 5552TIP3   OH216598   2.596   1.357   4.493
 5552TIP3    H116599   2.679   1.322   4.525
 5552TIP3    H216600   2.615   1.449   4.474
 5553TIP3   OH216601   8.160   4.988   3.258
 5553TIP3    H116602   8.103   4.939   3.199
 5553TIP3    H216603   8.100   5.033   3.318
 5554TIP3   OH216604   2.424   4.706   6.731
 5554TIP3    H116605   2.406   4.631   6.788
 5554TIP3    H216606   2.404   4.783   6.784
 5555TIP3   OH216607   1.876   5.570   2.517
 5555TIP3    H116608   1.970   5.559   2.504
 5555TIP3    H216609   1.868   5.608   2.605
 5556TIP3   OH216610   7.057   2.527   0.226
 5556TIP3    H116611   7.058   2.621   0.241
 5556TIP3    H216612   7.038   2.489   0.312
 5557TIP3   OH216613   8.041   0.807   3.399
 5557TIP3    H116614   8.014   0.876   3.338
 5557TIP3    H216615   8.104   0.755   3.350
 5558TIP3   OH216616   0.124   6.872   3.552
 5558TIP3    H116617   0.157   6.807   3.614
 5558TIP3    H216618   0.032   6.848   3.540
 5559TIP3   OH216619   7.889   4.742   4.620
 5559TIP3    H116620   7.826   4.811   4.643
 5559TIP3    H216621   7.844   4.660   4.640
 5560TIP3   OH216622   0.773   0.353   3.844
 5560TIP3    H116623   0.746   0.388   3.759
 5560TIP3    H216624   0.728   0.408   3.908
 5561TIP3   OH216625   5.581   2.796   4.446
 5561TIP3    H116626   5.659   2.765   4.491
 5561TIP3    H216627   5.547   2.720   4.399
 5562TIP3   OH216628   2.665   4.958   4.912
 5562TIP3    H116629   2.755   4.944   4.940
 5562TIP3    H216630   2.664   5.047   4.878
 5563TIP3   OH216631   0.373   6.115   1.752
 5563TIP3    H116632   0.340   6.058   1.682
 5563TIP3    H216633   0.387   6.199   1.709
 5564TIP3   OH216634   3.838   4.633   3.675
 5564TIP3    H116635   3.819   4.623   3.582
 5564TIP3    H216636   3.774   4.697   3.706
 5565TIP3   OH216637   4.066   4.209   5.978
 5565TIP3    H116638   4.115   4.128   5.990
 5565TIP3    H216639   4.098   4.245   5.896
 5566TIP3   OH216640   1.641   3.641   4.387
 5566TIP3    H116641   1.623   3.640   4.293
 5566TIP3    H216642   1.638   3.549   4.413
 5567TIP3   OH216643   5.792   1.623   1.342
 5567TIP3    H116644   5.719   1.684   1.331
 5567TIP3    H216645   5.866   1.679   1.366
 5568TIP3   OH216646   3.297   1.260   1.523
 5568TIP3    H116647   3.220   1.259   1.466
 5568TIP3    H216648   3.336   1.174   1.512
 5569TIP3   OH216649   3.035   2.625   3.795
 5569TIP3    H116650   3.019   2.593   3.706
 5569TIP3    H216651   3.112   2.681   3.787
 5570TIP3   OH216652   7.522   7.410   4.928
 5570TIP3    H116653   7.544   7.329   4.974
 5570TIP3    H216654   7.542   7.390   4.836
 5571TIP3   OH216655   5.945   1.051   6.464
 5571TIP3    H116656   5.998   1.124   6.495
 5571TIP3    H216657   5.927   0.999   6.542
 5572TIP3   OH216658   1.471   3.469   4.864
 5572TIP3    H116659   1.520   3.545   4.895
 5572TIP3    H216660   1.393   3.505   4.823
 5573TIP3   OH216661   6.248   4.463   4.250
 5573TIP3    H116662   6.298   4.393   4.208
 5573TIP3    H216663   6.209   4.422   4.327
 5574TIP3   OH216664   3.723   5.675   2.286
 5574TIP3    H116665   3.639   5.692   2.330
 5574TIP3    H216666   3.738   5.752   2.232
 5575TIP3   OH216667   6.262   7.736   4.822
 5575TIP3    H116668   6.332   7.790   4.786
 5575TIP3    H216669   6.225   7.789   4.893
 5576TIP3   OH216670   4.093   7.158   0.881
 5576TIP3    H116671   4.100   7.114   0.795
 5576TIP3    H216672   4.177   7.139   0.923
 5577TIP3   OH216673   2.676   4.053   2.182
 5577TIP3    H116674   2.655   4.022   2.270
 5577TIP3    H216675   2.696   3.973   2.133
 5578TIP3   OH216676   6.067   4.191   1.878
 5578TIP3    H116677   6.038   4.100   1.890
 5578TIP3    H216678   6.005   4.243   1.927
 5579TIP3   OH216679   2.890   3.492   2.731
 5579TIP3    H116680   2.828   3.474   2.802
 5579TIP3    H216681   2.878   3.420   2.670
 5580TIP3   OH216682   6.928   7.569   0.949
 5580TIP3    H116683   6.991   7.536   1.013
 5580TIP3    H216684   6.956   7.659   0.932
 5581TIP3   OH216685   7.511   3.799   5.717
 5581TIP3    H116686   7.535   3.884   5.679
 5581TIP3    H216687   7.491   3.744   5.642
 5582TIP3   OH216688   1.677   5.043   6.801
 5582TIP3    H116689   1.627   4.980   6.749
 5582TIP3    H216690   1.721   5.098   6.737
 5583TIP3   OH216691   7.126   4.440   5.120
 5583TIP3    H116692   7.175   4.517   5.092
 5583TIP3    H216693   7.160   4.420   5.207
 5584TIP3   OH216694   4.169   1.375   4.984
 5584TIP3    H116695   4.225   1.431   4.930
 5584TIP3    H216696   4.211   1.289   4.982
 5585TIP3   OH216697   1.885   5.397   3.468
 5585TIP3    H116698   1.802   5.390   3.421
 5585TIP3    H216699   1.911   5.489   3.456
 5586TIP3   OH216700   4.597   5.633   5.359
 5586TIP3    H116701   4.658   5.700   5.328
 5586TIP3    H216702   4.580   5.579   5.281
 5587TIP3   OH216703   2.985   4.684   4.741
 5587TIP3    H116704   3.043   4.630   4.689
 5587TIP3    H216705   2.916   4.711   4.681
 5588TIP3   OH216706   2.218   0.537   5.728
 5588TIP3    H116707   2.227   0.452   5.685
 5588TIP3    H216708   2.134   0.570   5.699
 5589TIP3   OH216709   4.655   2.365   4.237
 5589TIP3    H116710   4.681   2.283   4.280
 5589TIP3    H216711   4.716   2.373   4.163
 5590TIP3   OH216712   1.945   7.343   3.467
 5590TIP3    H116713   1.916   7.262   3.510
 5590TIP3    H216714   1.967   7.402   3.539
 5591TIP3   OH216715   7.862   4.098   1.868
 5591TIP3    H116716   7.869   4.124   1.776
 5591TIP3    H216717   7.945   4.124   1.907
 5592TIP3   OH216718   6.381   4.680   2.465
 5592TIP3    H116719   6.370   4.774   2.453
 5592TIP3    H216720   6.455   4.657   2.409
 5593TIP3   OH216721   8.045   0.103   4.054
 5593TIP3    H116722   8.047   0.104   3.958
 5593TIP3    H216723   8.025   0.012   4.076
 5594TIP3   OH216724   4.219   7.395   4.728
 5594TIP3    H116725   4.255   7.312   4.696
 5594TIP3    H216726   4.229   7.455   4.654
 5595TIP3   OH216727   7.214   0.096   2.143
 5595TIP3    H116728   7.304   0.128   2.135
 5595TIP3    H216729   7.205   0.034   2.070
 5596TIP3   OH216730   7.168   5.012   5.277
 5596TIP3    H116731   7.220   5.092   5.269
 5596TIP3    H216732   7.097   5.022   5.214
 5597TIP3   OH216733   7.701   6.971   0.921
 5597TIP3    H116734   7.639   7.035   0.887
 5597TIP3    H216735   7.762   6.955   0.848
 5598TIP3   OH216736   3.695   6.858   2.652
 5598TIP3    H116737   3.656   6.820   2.731
 5598TIP3    H216738   3.787   6.833   2.656
 5599TIP3   OH216739   0.459   1.315   2.425
 5599TIP3    H116740   0.370   1.328   2.460
 5599TIP3    H216741   0.487   1.402   2.398
 5600TIP3   OH216742   4.591   2.876   6.453
 5600TIP3    H116743   4.516   2.830   6.491
 5600TIP3    H216744   4.610   2.946   6.515
 5601TIP3   OH216745   1.768   3.291   3.188
 5601TIP3    H116746   1.684   3.334   3.179
 5601TIP3    H216747   1.749   3.210   3.236
 5602TIP3   OH216748   7.689   2.406   5.669
 5602TIP3    H116749   7.657   2.420   5.758
 5602TIP3    H216750   7.636   2.464   5.615
 5603TIP3   OH216751   7.632   2.269   1.116
 5603TIP3    H116752   7.606   2.238   1.029
 5603TIP3    H216753   7.578   2.345   1.133
 5604TIP3   OH216754   4.800   4.874   0.636
 5604TIP3    H116755   4.770   4.845   0.722
 5604TIP3    H216756   4.789   4.798   0.580
 5605TIP3   OH216757   3.772   5.996   2.587
 5605TIP3    H116758   3.703   5.988   2.653
 5605TIP3    H216759   3.746   6.071   2.534
 5606TIP3   OH216760   7.151   1.123   4.386
 5606TIP3    H116761   7.100   1.138   4.306
 5606TIP3    H216762   7.116   1.186   4.449
 5607TIP3   OH216763   6.661   4.604   1.545
 5607TIP3    H116764   6.743   4.580   1.589
 5607TIP3    H216765   6.599   4.538   1.573
 5608TIP3   OH216766   7.921   0.962   0.175
 5608TIP3    H116767   7.886   0.919   0.253
 5608TIP3    H216768   8.016   0.950   0.182
 5609TIP3   OH216769   2.021   3.596   4.320
 5609TIP3    H116770   1.957   3.658   4.283
 5609TIP3    H216771   2.052   3.547   4.244
 5610TIP3   OH216772   0.586   1.690   1.254
 5610TIP3    H116773   0.534   1.712   1.331
 5610TIP3    H216774   0.576   1.596   1.244
 5611TIP3   OH216775   7.331   7.154   1.271
 5611TIP3    H116776   7.291   7.081   1.223
 5611TIP3    H216777   7.345   7.120   1.359
 5612TIP3   OH216778   1.207   6.264   2.427
 5612TIP3    H116779   1.135   6.200   2.433
 5612TIP3    H216780   1.172   6.342   2.469
 5613TIP3   OH216781   4.634   3.138   5.823
 5613TIP3    H116782   4.568   3.201   5.854
 5613TIP3    H216783   4.592   3.095   5.749
 5614TIP3   OH216784   4.943   6.552   4.593
 5614TIP3    H116785   4.983   6.482   4.645
 5614TIP3    H216786   4.961   6.528   4.502
 5615TIP3   OH216787   4.428   4.803   4.718
 5615TIP3    H116788   4.487   4.792   4.793
 5615TIP3    H216789   4.429   4.719   4.674
 5616TIP3   OH216790   5.195   1.152   1.650
 5616TIP3    H116791   5.237   1.069   1.626
 5616TIP3    H216792   5.243   1.218   1.601
 5617TIP3   OH216793   2.824   7.752   5.053
 5617TIP3    H116794   2.745   7.737   5.105
 5617TIP3    H216795   2.804   7.718   4.966
 5618TIP3   OH216796   0.478   2.924   2.017
 5618TIP3    H116797   0.470   2.834   2.048
 5618TIP3    H216798   0.397   2.940   1.969
 5619TIP3   OH216799   0.658   7.753   2.072
 5619TIP3    H116800   0.596   7.741   2.144
 5619TIP3    H216801   0.608   7.730   1.994
 5620TIP3   OH216802   6.033   0.976   0.257
 5620TIP3    H116803   5.991   0.912   0.314
 5620TIP3    H216804   6.053   1.050   0.315
 5621TIP3   OH216805   2.068   4.599   3.514
 5621TIP3    H116806   2.075   4.535   3.585
 5621TIP3    H216807   2.159   4.613   3.486
 5622TIP3   OH216808   4.967   1.699   3.946
 5622TIP3    H116809   4.880   1.740   3.947
 5622TIP3    H216810   4.960   1.629   3.880
 5623TIP3   OH216811   7.078   0.824   0.286
 5623TIP3    H116812   6.994   0.780   0.285
 5623TIP3    H216813   7.062   0.905   0.334
 5624TIP3   OH216814   4.121   5.133   6.413
 5624TIP3    H116815   4.076   5.107   6.493
 5624TIP3    H216816   4.207   5.091   6.419
 5625TIP3   OH216817   0.363   1.604   6.742
 5625TIP3    H116818   0.404   1.518   6.743
 5625TIP3    H216819   0.337   1.617   6.651
 5626TIP3   OH216820   1.563   1.018   4.952
 5626TIP3    H116821   1.627   1.043   4.885
 5626TIP3    H216822   1.485   1.069   4.930
 5627TIP3   OH216823   7.167   2.950   2.682
 5627TIP3    H116824   7.245   2.995   2.647
 5627TIP3    H216825   7.199   2.865   2.711
 5628TIP3   OH216826   7.804   1.378   3.121
 5628TIP3    H116827   7.777   1.304   3.176
 5628TIP3    H216828   7.860   1.431   3.178
 5629TIP3   OH216829   5.021   6.377   4.389
 5629TIP3    H116830   4.933   6.357   4.357
 5629TIP3    H216831   5.080   6.334   4.327
 5630TIP3   OH216832   8.256   3.626   2.828
 5630TIP3    H116833   8.346   3.596   2.830
 5630TIP3    H216834   8.226   3.607   2.739
 5631TIP3   OH216835   4.253   7.820   5.265
 5631TIP3    H116836   4.279   7.746   5.210
 5631TIP3    H216837   4.158   7.809   5.277
 5632TIP3   OH216838   5.336   0.744   5.870
 5632TIP3    H116839   5.346   0.747   5.774
 5632TIP3    H216840   5.405   0.684   5.899
 5633TIP3   OH216841   8.185   6.065   1.921
 5633TIP3    H116842   8.243   6.080   1.995
 5633TIP3    H216843   8.101   6.044   1.960
 5634TIP3   OH216844   5.293   2.892   0.851
 5634TIP3    H116845   5.306   2.811   0.901
 5634TIP3    H216846   5.374   2.941   0.863
 5635TIP3   OH216847   5.806   6.924   5.605
 5635TIP3    H116848   5.824   7.011   5.639
 5635TIP3    H216849   5.816   6.866   5.681
 5636TIP3   OH216850   5.232   6.519   4.503
 5636TIP3    H116851   5.241   6.470   4.585
 5636TIP3    H216852   5.159   6.477   4.457
 5637TIP3   OH216853   1.189   4.976   0.822
 5637TIP3    H116854   1.215   4.955   0.732
 5637TIP3    H216855   1.154   4.894   0.857
 5638TIP3   OH216856   3.972   0.709   0.554
 5638TIP3    H116857   4.012   0.634   0.509
 5638TIP3    H216858   3.882   0.712   0.521
 5639TIP3   OH216859   7.806   5.228   4.456
 5639TIP3    H116860   7.721   5.207   4.495
 5639TIP3    H216861   7.871   5.191   4.516
 5640TIP3   OH216862   7.871   4.272   4.208
 5640TIP3    H116863   7.929   4.250   4.281
 5640TIP3    H216864   7.795   4.215   4.222
 5641TIP3   OH216865   7.282   3.380   6.494
 5641TIP3    H116866   7.343   3.378   6.420
 5641TIP3    H216867   7.338   3.366   6.570
 5642TIP3   OH216868   5.103   1.635   4.406
 5642TIP3    H116869   5.181   1.673   4.447
 5642TIP3    H216870   5.118   1.648   4.312
 5643TIP3   OH216871   5.878   0.802   0.401
 5643TIP3    H116872   5.783   0.799   0.414
 5643TIP3    H216873   5.914   0.817   0.488
 5644TIP3   OH216874   3.048   5.910   4.124
 5644TIP3    H116875   3.039   6.005   4.136
 5644TIP3    H216876   3.055   5.898   4.029
 5645TIP3   OH216877   2.277   0.372   0.511
 5645TIP3    H116878   2.235   0.362   0.425
 5645TIP3    H216879   2.370   0.377   0.492
 5646TIP3   OH216880   4.805   7.556   5.669
 5646TIP3    H116881   4.886   7.590   5.631
 5646TIP3    H216882   4.736   7.599   5.618
 5647TIP3   OH216883   5.965   7.262   3.757
 5647TIP3    H116884   6.053   7.246   3.791
 5647TIP3    H216885   5.907   7.224   3.822
 5648TIP3   OH216886   7.493   3.720   2.019
 5648TIP3    H116887   7.518   3.811   2.037
 5648TIP3    H216888   7.437   3.726   1.941
 5649TIP3   OH216889   4.537   4.653   5.126
 5649TIP3    H116890   4.600   4.591   5.161
 5649TIP3    H216891   4.503   4.699   5.203
 5650TIP3   OH216892   7.992   1.530   3.539
 5650TIP3    H116893   8.086   1.514   3.543
 5650TIP3    H216894   7.968   1.556   3.628
 5651TIP3   OH216895   7.885   2.590   2.419
 5651TIP3    H116896   7.825   2.554   2.354
 5651TIP3    H216897   7.855   2.554   2.503
 5652TIP3   OH216898   1.121   3.759   4.939
 5652TIP3    H116899   1.065   3.773   5.015
 5652TIP3    H216900   1.149   3.667   4.946
 5653TIP3   OH216901   2.899   2.255   4.821
 5653TIP3    H116902   2.879   2.327   4.762
 5653TIP3    H216903   2.890   2.292   4.909
 5654TIP3   OH216904   3.159   6.472   1.612
 5654TIP3    H116905   3.246   6.432   1.608
 5654TIP3    H216906   3.158   6.521   1.694
 5655TIP3   OH216907   5.821   6.358   6.265
 5655TIP3    H116908   5.745   6.357   6.322
 5655TIP3    H216909   5.858   6.446   6.275
 5656TIP3   OH216910   1.878   1.208   1.071
 5656TIP3    H116911   1.895   1.147   1.000
 5656TIP3    H216912   1.859   1.152   1.147
 5657TIP3   OH216913   1.373   5.776   2.269
 5657TIP3    H116914   1.433   5.759   2.197
 5657TIP3    H216915   1.287   5.757   2.234
 5658TIP3   OH216916   7.155   3.588   4.583
 5658TIP3    H116917   7.066   3.603   4.614
 5658TIP3    H216918   7.205   3.569   4.662
 5659TIP3   OH216919   6.858   7.184   6.028
 5659TIP3    H116920   6.775   7.187   6.076
 5659TIP3    H216921   6.869   7.092   6.005
 5660TIP3   OH216922   3.968   5.410   2.505
 5660TIP3    H116923   4.006   5.481   2.454
 5660TIP3    H216924   3.995   5.428   2.595
 5661TIP3   OH216925   1.262   3.292   2.279
 5661TIP3    H116926   1.166   3.294   2.275
 5661TIP3    H216927   1.290   3.281   2.189
 5662TIP3   OH216928   6.751   7.169   2.769
 5662TIP3    H116929   6.810   7.174   2.694
 5662TIP3    H216930   6.792   7.105   2.827
 5663TIP3   OH216931   7.548   5.814   5.482
 5663TIP3    H116932   7.472   5.756   5.480
 5663TIP3    H216933   7.608   5.776   5.418
 5664TIP3   OH216934   1.178   4.389   0.661
 5664TIP3    H116935   1.095   4.367   0.703
 5664TIP3    H216936   1.168   4.480   0.633
 5665TIP3   OH216937   3.270   6.771   2.132
 5665TIP3    H116938   3.273   6.811   2.219
 5665TIP3    H216939   3.237   6.841   2.075
 5666TIP3   OH216940   7.692   1.720   3.780
 5666TIP3    H116941   7.748   1.797   3.771
 5666TIP3    H216942   7.749   1.646   3.761
 5667TIP3   OH216943   6.447   5.071   0.237
 5667TIP3    H116944   6.374   5.037   0.289
 5667TIP3    H216945   6.523   5.019   0.265
 5668TIP3   OH216946   3.231   6.016   5.468
 5668TIP3    H116947   3.286   6.094   5.474
 5668TIP3    H216948   3.269   5.954   5.531
 5669TIP3   OH216949   5.566   3.272   1.773
 5669TIP3    H116950   5.540   3.205   1.710
 5669TIP3    H216951   5.589   3.348   1.719
 5670TIP3   OH216952   1.554   1.887   6.440
 5670TIP3    H116953   1.587   1.948   6.506
 5670TIP3    H216954   1.610   1.900   6.364
 5671TIP3   OH216955   4.415   6.959   0.338
 5671TIP3    H116956   4.449   6.871   0.328
 5671TIP3    H216957   4.332   6.947   0.385
 5672TIP3   OH216958   0.128   2.171   6.722
 5672TIP3    H116959   0.168   2.257   6.735
 5672TIP3    H216960   0.197   2.118   6.683
 5673TIP3   OH216961   7.906   2.231   3.586
 5673TIP3    H116962   7.934   2.287   3.513
 5673TIP3    H216963   7.881   2.292   3.655
 5674TIP3   OH216964   7.911   3.666   2.171
 5674TIP3    H116965   7.999   3.668   2.208
 5674TIP3    H216966   7.919   3.710   2.087
 5675TIP3   OH216967   4.371   4.208   1.705
 5675TIP3    H116968   4.390   4.232   1.796
 5675TIP3    H216969   4.309   4.275   1.676
 5676TIP3   OH216970   1.727   3.073   3.354
 5676TIP3    H116971   1.634   3.086   3.339
 5676TIP3    H216972   1.732   3.000   3.417
 5677TIP3   OH216973   7.521   4.406   3.905
 5677TIP3    H116974   7.518   4.385   3.998
 5677TIP3    H216975   7.572   4.487   3.901
 5678TIP3   OH216976   0.889   6.155   1.804
 5678TIP3    H116977   0.832   6.175   1.730
 5678TIP3    H216978   0.857   6.211   1.875
 5679TIP3   OH216979   7.893   3.625   2.625
 5679TIP3    H116980   7.937   3.624   2.541
 5679TIP3    H216981   7.940   3.691   2.676
 5680TIP3   OH216982   7.557   7.262   2.748
 5680TIP3    H116983   7.540   7.173   2.716
 5680TIP3    H216984   7.471   7.303   2.752
 5681TIP3   OH216985   5.894   4.912   1.488
 5681TIP3    H116986   5.864   5.001   1.503
 5681TIP3    H216987   5.821   4.857   1.517
 5682TIP3   OH216988   3.709   2.518   1.569
 5682TIP3    H116989   3.767   2.572   1.515
 5682TIP3    H216990   3.766   2.450   1.606
 5683TIP3   OH216991   2.700   1.134   3.220
 5683TIP3    H116992   2.673   1.065   3.160
 5683TIP3    H216993   2.658   1.213   3.185
 5684TIP3   OH216994   5.743   5.788   3.536
 5684TIP3    H116995   5.693   5.736   3.473
 5684TIP3    H216996   5.773   5.724   3.601
 5685TIP3   OH216997   6.784   7.394   4.575
 5685TIP3    H116998   6.802   7.487   4.560
 5685TIP3    H216999   6.692   7.391   4.600
 5686TIP3   OH217000   2.071   0.485   2.896
 5686TIP3    H117001   2.017   0.442   2.962
 5686TIP3    H217002   2.033   0.458   2.812
 5687TIP3   OH217003   4.921   1.575   5.422
 5687TIP3    H117004   4.873   1.506   5.376
 5687TIP3    H217005   5.013   1.555   5.407
 5688TIP3   OH217006   8.288   5.830   1.448
 5688TIP3    H117007   8.210   5.844   1.501
 5688TIP3    H217008   8.294   5.908   1.393
 5689TIP3   OH217009   1.712   3.351   0.901
 5689TIP3    H117010   1.699   3.257   0.886
 5689TIP3    H217011   1.700   3.361   0.995
 5690TIP3   OH217012   4.739   4.244   0.246
 5690TIP3    H117013   4.763   4.183   0.176
 5690TIP3    H217014   4.715   4.188   0.320
 5691TIP3   OH217015   2.548   7.836   4.899
 5691TIP3    H117016   2.461   7.805   4.921
 5691TIP3    H217017   2.595   7.759   4.869
 5692TIP3   OH217018   5.331   3.970   0.272
 5692TIP3    H117019   5.305   3.949   0.182
 5692TIP3    H217020   5.319   4.065   0.279
 5693TIP3   OH217021   6.683   1.166   0.961
 5693TIP3    H117022   6.643   1.248   0.990
 5693TIP3    H217023   6.770   1.192   0.928
 5694TIP3   OH217024   7.167   3.737   2.836
 5694TIP3    H117025   7.121   3.810   2.877
 5694TIP3    H217026   7.098   3.684   2.796
 5695TIP3   OH217027   4.664   5.356   3.892
 5695TIP3    H117028   4.570   5.345   3.911
 5695TIP3    H217029   4.696   5.266   3.880
 5696TIP3   OH217030   4.567   6.381   6.404
 5696TIP3    H117031   4.627   6.345   6.338
 5696TIP3    H217032   4.620   6.388   6.483
 5697TIP3   OH217033   3.924   5.865   0.358
 5697TIP3    H117034   3.980   5.884   0.433
 5697TIP3    H217035   3.949   5.777   0.331
 5698TIP3   OH217036   1.052   7.442   3.033
 5698TIP3    H117037   1.077   7.482   2.950
 5698TIP3    H217038   1.024   7.515   3.089
 5699TIP3   OH217039   4.112   3.380   2.158
 5699TIP3    H117040   4.182   3.435   2.194
 5699TIP3    H217041   4.041   3.387   2.221
 5700TIP3   OH217042   3.569   4.843   3.979
 5700TIP3    H117043   3.603   4.780   4.043
 5700TIP3    H217044   3.559   4.792   3.899
 5701TIP3   OH217045   6.151   7.550   5.226
 5701TIP3    H117046   6.078   7.580   5.281
 5701TIP3    H217047   6.197   7.486   5.281
 5702TIP3   OH217048   5.285   2.193   1.779
 5702TIP3    H117049   5.267   2.101   1.765
 5702TIP3    H217050   5.296   2.229   1.691
 5703TIP3   OH217051   3.628   0.330   2.430
 5703TIP3    H117052   3.556   0.375   2.385
 5703TIP3    H217053   3.656   0.262   2.368
 5704TIP3   OH217054   7.927   5.329   1.002
 5704TIP3    H117055   7.976   5.297   1.077
 5704TIP3    H217056   7.860   5.386   1.039
 5705TIP3   OH217057   7.411   5.068   3.342
 5705TIP3    H117058   7.457   5.058   3.425
 5705TIP3    H217059   7.320   5.042   3.361
 5706TIP3   OH217060   7.494   5.003   3.608
 5706TIP3    H117061   7.421   4.978   3.664
 5706TIP3    H217062   7.563   4.940   3.628
 5707TIP3   OH217063   0.932   5.852   4.987
 5707TIP3    H117064   0.969   5.939   4.998
 5707TIP3    H217065   0.881   5.857   4.906
 5708TIP3   OH217066   5.247   1.300   0.298
 5708TIP3    H117067   5.153   1.305   0.310
 5708TIP3    H217068   5.280   1.385   0.327
 5709TIP3   OH217069   5.559   1.878   4.918
 5709TIP3    H117070   5.546   1.925   4.835
 5709TIP3    H217071   5.472   1.846   4.942
 5710TIP3   OH217072   6.569   3.481   0.227
 5710TIP3    H117073   6.594   3.532   0.149
 5710TIP3    H217074   6.552   3.393   0.193
 5711TIP3   OH217075   7.574   0.734   4.005
 5711TIP3    H117076   7.612   0.647   3.988
 5711TIP3    H217077   7.595   0.752   4.096
 5712TIP3   OH217078   2.907   1.418   1.066
 5712TIP3    H117079   2.965   1.489   1.093
 5712TIP3    H217080   2.837   1.461   1.017
 5713TIP3   OH217081   7.164   2.746   4.015
 5713TIP3    H117082   7.202   2.706   3.937
 5713TIP3    H217083   7.225   2.816   4.039
 5714TIP3   OH217084   5.561   4.212   4.110
 5714TIP3    H117085   5.617   4.202   4.032
 5714TIP3    H217086   5.608   4.165   4.179
 5715TIP3   OH217087   6.013   3.062   1.046
 5715TIP3    H117088   5.936   3.114   1.069
 5715TIP3    H217089   5.977   2.977   1.021
 5716TIP3   OH217090   2.103   2.592   4.600
 5716TIP3    H117091   2.168   2.613   4.533
 5716TIP3    H217092   2.021   2.628   4.566
 5717TIP3   OH217093   1.629   7.282   3.984
 5717TIP3    H117094   1.585   7.358   3.945
 5717TIP3    H217095   1.573   7.208   3.962
 5718TIP3   OH217096   7.436   7.236   5.997
 5718TIP3    H117097   7.459   7.211   5.908
 5718TIP3    H217098   7.344   7.212   6.006
 5719TIP3   OH217099   0.304   4.653   5.716
 5719TIP3    H117100   0.309   4.566   5.755
 5719TIP3    H217101   0.341   4.643   5.628
 5720TIP3   OH217102   6.056   7.767   0.718
 5720TIP3    H117103   6.068   7.850   0.671
 5720TIP3    H217104   6.051   7.793   0.810
 5721TIP3   OH217105   0.930   5.667   6.057
 5721TIP3    H117106   1.021   5.686   6.078
 5721TIP3    H217107   0.915   5.711   5.973
 5722TIP3   OH217108   2.196   5.904   4.960
 5722TIP3    H117109   2.171   5.936   4.873
 5722TIP3    H217110   2.127   5.842   4.984
 5723TIP3   OH217111   2.573   0.593   2.671
 5723TIP3    H117112   2.539   0.558   2.589
 5723TIP3    H217113   2.666   0.604   2.656
 5724TIP3   OH217114   1.842   4.418   5.721
 5724TIP3    H117115   1.811   4.356   5.787
 5724TIP3    H217116   1.821   4.504   5.755
 5725TIP3   OH217117   7.166   2.704   0.895
 5725TIP3    H117118   7.135   2.768   0.959
 5725TIP3    H217119   7.211   2.757   0.828
 5726TIP3   OH217120   7.319   3.745   6.337
 5726TIP3    H117121   7.389   3.713   6.393
 5726TIP3    H217122   7.352   3.734   6.248
 5727TIP3   OH217123   3.881   1.468   5.340
 5727TIP3    H117124   3.870   1.489   5.247
 5727TIP3    H217125   3.896   1.552   5.383
 5728TIP3   OH217126   2.628   2.958   1.693
 5728TIP3    H117127   2.663   2.872   1.670
 5728TIP3    H217128   2.705   3.014   1.704
 5729TIP3   OH217129   8.117   6.852   2.152
 5729TIP3    H117130   8.062   6.838   2.075
 5729TIP3    H217131   8.182   6.781   2.148
 5730TIP3   OH217132   7.798   6.455   6.268
 5730TIP3    H117133   7.722   6.514   6.275
 5730TIP3    H217134   7.854   6.480   6.341
 5731TIP3   OH217135   7.116   6.709   5.075
 5731TIP3    H117136   7.174   6.637   5.051
 5731TIP3    H217137   7.151   6.741   5.158
 5732TIP3   OH217138   5.453   3.196   2.615
 5732TIP3    H117139   5.383   3.162   2.670
 5732TIP3    H217140   5.468   3.127   2.550
 5733TIP3   OH217141   7.225   3.855   5.216
 5733TIP3    H117142   7.300   3.852   5.157
 5733TIP3    H217143   7.195   3.946   5.213
 5734TIP3   OH217144   0.261   1.330   5.687
 5734TIP3    H117145   0.183   1.282   5.715
 5734TIP3    H217146   0.294   1.280   5.612
 5735TIP3   OH217147   7.624   2.843   4.804
 5735TIP3    H117148   7.577   2.831   4.887
 5735TIP3    H217149   7.707   2.884   4.829
 5736TIP3   OH217150   6.377   2.310   1.158
 5736TIP3    H117151   6.425   2.320   1.240
 5736TIP3    H217152   6.445   2.315   1.090
 5737TIP3   OH217153   4.041   6.538   3.232
 5737TIP3    H117154   3.983   6.499   3.296
 5737TIP3    H217155   4.105   6.470   3.212
 5738TIP3   OH217156   5.116   1.923   0.126
 5738TIP3    H117157   5.149   1.881   0.205
 5738TIP3    H217158   5.104   1.851   0.064
 5739TIP3   OH217159   0.503   3.303   4.689
 5739TIP3    H117160   0.555   3.283   4.611
 5739TIP3    H217161   0.426   3.348   4.654
 5740TIP3   OH217162   1.867   2.344   4.351
 5740TIP3    H117163   1.828   2.418   4.399
 5740TIP3    H217164   1.792   2.292   4.323
 5741TIP3   OH217165   0.902   3.528   2.345
 5741TIP3    H117166   0.827   3.581   2.374
 5741TIP3    H217167   0.871   3.487   2.264
 5742TIP3   OH217168   1.163   1.003   4.185
 5742TIP3    H117169   1.196   1.065   4.121
 5742TIP3    H217170   1.088   1.047   4.225
 5743TIP3   OH217171   5.759   1.985   1.845
 5743TIP3    H117172   5.742   1.908   1.791
 5743TIP3    H217173   5.770   2.057   1.783
 5744TIP3   OH217174   7.023   2.903   2.070
 5744TIP3    H117175   7.061   2.924   1.985
 5744TIP3    H217176   7.097   2.876   2.124
 5745TIP3   OH217177   1.595   3.899   0.856
 5745TIP3    H117178   1.573   3.812   0.891
 5745TIP3    H217179   1.631   3.947   0.931
 5746TIP3   OH217180   5.750   4.027   4.964
 5746TIP3    H117181   5.771   3.958   4.901
 5746TIP3    H217182   5.774   3.991   5.049
 5747TIP3   OH217183   7.881   2.260   1.215
 5747TIP3    H117184   7.922   2.193   1.160
 5747TIP3    H217185   7.792   2.267   1.180
 5748TIP3   OH217186   1.268   1.699   4.533
 5748TIP3    H117187   1.347   1.647   4.516
 5748TIP3    H217188   1.283   1.739   4.619
 5749TIP3   OH217189   7.393   4.131   0.767
 5749TIP3    H117190   7.470   4.180   0.796
 5749TIP3    H217191   7.427   4.043   0.750
 5750TIP3   OH217192   5.767   2.438   5.304
 5750TIP3    H117193   5.763   2.495   5.227
 5750TIP3    H217194   5.847   2.466   5.350
 5751TIP3   OH217195   7.030   1.329   4.561
 5751TIP3    H117196   7.072   1.302   4.643
 5751TIP3    H217197   6.939   1.301   4.571
 5752TIP3   OH217198   4.179   4.405   1.354
 5752TIP3    H117199   4.217   4.394   1.267
 5752TIP3    H217200   4.219   4.487   1.387
 5753TIP3   OH217201   1.778   6.060   1.554
 5753TIP3    H117202   1.826   6.025   1.628
 5753TIP3    H217203   1.715   6.121   1.593
 5754TIP3   OH217204   0.812   1.066   0.918
 5754TIP3    H117205   0.886   1.005   0.911
 5754TIP3    H217206   0.780   1.075   0.828
 5755TIP3   OH217207   2.806   7.020   0.735
 5755TIP3    H117208   2.738   6.958   0.759
 5755TIP3    H217209   2.888   6.973   0.749
 5756TIP3   OH217210   1.281   7.572   4.590
 5756TIP3    H117211   1.314   7.499   4.537
 5756TIP3    H217212   1.191   7.584   4.562
 5757TIP3   OH217213   5.622   6.668   0.878
 5757TIP3    H117214   5.566   6.710   0.944
 5757TIP3    H217215   5.590   6.578   0.873
 5758TIP3   OH217216   2.460   6.719   1.670
 5758TIP3    H117217   2.550   6.741   1.647
 5758TIP3    H217218   2.462   6.625   1.687
 5759TIP3   OH217219   5.368   3.651   1.864
 5759TIP3    H117220   5.322   3.595   1.927
 5759TIP3    H217221   5.455   3.664   1.902
 5760TIP3   OH217222   7.888   3.202   5.827
 5760TIP3    H117223   7.859   3.172   5.740
 5760TIP3    H217224   7.816   3.258   5.857
 5761TIP3   OH217225   5.921   4.798   3.947
 5761TIP3    H117226   5.931   4.703   3.949
 5761TIP3    H217227   5.906   4.822   4.039
 5762TIP3   OH217228   7.122   0.859   1.432
 5762TIP3    H117229   7.131   0.824   1.343
 5762TIP3    H217230   7.202   0.834   1.476
 5763TIP3   OH217231   3.826   6.080   1.604
 5763TIP3    H117232   3.879   6.157   1.583
 5763TIP3    H217233   3.856   6.012   1.545
 5764TIP3   OH217234   2.563   2.660   2.147
 5764TIP3    H117235   2.525   2.589   2.095
 5764TIP3    H217236   2.510   2.663   2.227
 5765TIP3   OH217237   5.110   6.503   1.371
 5765TIP3    H117238   5.029   6.555   1.367
 5765TIP3    H217239   5.093   6.439   1.439
 5766TIP3   OH217240   6.637   3.192   0.531
 5766TIP3    H117241   6.703   3.234   0.476
 5766TIP3    H217242   6.665   3.101   0.537
 5767TIP3   OH217243   8.204   5.529   5.851
 5767TIP3    H117244   8.175   5.517   5.761
 5767TIP3    H217245   8.169   5.615   5.876
 5768TIP3   OH217246   2.898   6.005   0.790
 5768TIP3    H117247   2.839   5.964   0.853
 5768TIP3    H217248   2.874   6.097   0.791
 5769TIP3   OH217249   0.368   2.516   5.120
 5769TIP3    H117250   0.374   2.464   5.040
 5769TIP3    H217251   0.431   2.475   5.179
 5770TIP3   OH217252   6.538   2.912   5.626
 5770TIP3    H117253   6.471   2.947   5.686
 5770TIP3    H217254   6.617   2.961   5.648
 5771TIP3   OH217255   0.147   4.570   2.761
 5771TIP3    H117256   0.129   4.524   2.679
 5771TIP3    H217257   0.198   4.507   2.812
 5772TIP3   OH217258   3.073   1.827   5.860
 5772TIP3    H117259   3.011   1.761   5.830
 5772TIP3    H217260   3.046   1.846   5.950
 5773TIP3   OH217261   6.671   4.141   0.217
 5773TIP3    H117262   6.760   4.168   0.240
 5773TIP3    H217263   6.625   4.138   0.301
 5774TIP3   OH217264   3.557   6.625   2.190
 5774TIP3    H117265   3.486   6.614   2.253
 5774TIP3    H217266   3.517   6.675   2.118
 5775TIP3   OH217267   3.299   6.627   6.166
 5775TIP3    H117268   3.285   6.714   6.129
 5775TIP3    H217269   3.305   6.570   6.090
 5776TIP3   OH217270   7.149   7.288   2.293
 5776TIP3    H117271   7.125   7.269   2.384
 5776TIP3    H217272   7.239   7.319   2.299
 5777TIP3   OH217273   4.556   7.492   3.680
 5777TIP3    H117274   4.526   7.407   3.649
 5777TIP3    H217275   4.513   7.556   3.623
 5778TIP3   OH217276   6.187   2.418   4.899
 5778TIP3    H117277   6.129   2.452   4.967
 5778TIP3    H217278   6.259   2.377   4.946
 5779TIP3   OH217279   7.017   3.862   0.724
 5779TIP3    H117280   6.926   3.877   0.749
 5779TIP3    H217281   7.063   3.850   0.807
 5780TIP3   OH217282   4.667   0.080   5.837
 5780TIP3    H117283   4.629  -0.005   5.861
 5780TIP3    H217284   4.745   0.058   5.787
 5781TIP3   OH217285   5.177   1.777   0.405
 5781TIP3    H117286   5.134   1.716   0.465
 5781TIP3    H217287   5.158   1.864   0.442
 5782TIP3   OH217288   0.665   1.438   4.532
 5782TIP3    H117289   0.710   1.460   4.614
 5782TIP3    H217290   0.731   1.452   4.464
 5783TIP3   OH217291   1.766   3.819   3.737
 5783TIP3    H117292   1.671   3.810   3.732
 5783TIP3    H217293   1.800   3.742   3.693
 5784TIP3   OH217294   8.258   6.747   2.819
 5784TIP3    H117295   8.275   6.814   2.753
 5784TIP3    H217296   8.168   6.762   2.846
 5785TIP3   OH217297   3.331   3.554   2.235
 5785TIP3    H117298   3.268   3.485   2.210
 5785TIP3    H217299   3.336   3.611   2.158
 5786TIP3   OH217300   5.749   3.289   5.778
 5786TIP3    H117301   5.740   3.378   5.810
 5786TIP3    H217302   5.840   3.282   5.750
 5787TIP3   OH217303   3.632   0.439   4.889
 5787TIP3    H117304   3.545   0.401   4.884
 5787TIP3    H217305   3.691   0.368   4.862
 5788TIP3   OH217306   0.317   1.176   6.111
 5788TIP3    H117307   0.228   1.155   6.083
 5788TIP3    H217308   0.348   1.096   6.154
 5789TIP3   OH217309   6.149   0.209   3.322
 5789TIP3    H117310   6.124   0.291   3.280
 5789TIP3    H217311   6.077   0.191   3.383
 5790TIP3   OH217312   4.670   6.119   0.985
 5790TIP3    H117313   4.747   6.076   1.023
 5790TIP3    H217314   4.600   6.054   0.991
 5791TIP3   OH217315   0.877   5.268   4.946
 5791TIP3    H117316   0.858   5.181   4.981
 5791TIP3    H217317   0.877   5.326   5.022
 5792TIP3   OH217318   0.128   5.186   3.995
 5792TIP3    H117319   0.040   5.177   4.030
 5792TIP3    H217320   0.186   5.167   4.069
 5793TIP3   OH217321   1.342   0.485   4.005
 5793TIP3    H117322   1.257   0.521   3.979
 5793TIP3    H217323   1.360   0.416   3.941
 5794TIP3   OH217324   7.136   4.102   0.816
 5794TIP3    H117325   7.225   4.118   0.785
 5794TIP3    H217326   7.099   4.041   0.753
 5795TIP3   OH217327   3.131   1.549   2.017
 5795TIP3    H117328   3.171   1.635   2.006
 5795TIP3    H217329   3.051   1.565   2.067
 5796TIP3   OH217330   1.323   0.796   4.192
 5796TIP3    H117331   1.413   0.821   4.212
 5796TIP3    H217332   1.272   0.876   4.204
 5797TIP3   OH217333   0.036   2.835   5.990
 5797TIP3    H117334   0.083   2.843   5.907
 5797TIP3    H217335   0.072   2.905   6.044
 5798TIP3   OH217336   6.997   4.165   1.060
 5798TIP3    H117337   7.015   4.123   0.976
 5798TIP3    H217338   6.960   4.250   1.037
 5799TIP3   OH217339   2.490   1.462   0.364
 5799TIP3    H117340   2.566   1.520   0.356
 5799TIP3    H217341   2.415   1.522   0.373
 5800TIP3   OH217342   2.706   5.614   3.096
 5800TIP3    H117343   2.679   5.692   3.143
 5800TIP3    H217344   2.666   5.542   3.145
 5801TIP3   OH217345   7.308   6.713   2.742
 5801TIP3    H117346   7.229   6.725   2.795
 5801TIP3    H217347   7.358   6.794   2.754
 5802TIP3   OH217348   1.380   1.735   5.905
 5802TIP3    H117349   1.467   1.755   5.940
 5802TIP3    H217350   1.348   1.818   5.871
 5803TIP3   OH217351   0.162   6.721   4.093
 5803TIP3    H117352   0.165   6.814   4.073
 5803TIP3    H217353   0.224   6.709   4.164
 5804TIP3   OH217354   5.901   5.708   6.522
 5804TIP3    H117355   5.992   5.727   6.503
 5804TIP3    H217356   5.851   5.778   6.480
 5805TIP3   OH217357   8.015  -0.032   1.352
 5805TIP3    H117358   7.948   0.035   1.336
 5805TIP3    H217359   8.084   0.015   1.398
 5806TIP3   OH217360   8.106   0.502   3.975
 5806TIP3    H117361   8.065   0.421   4.005
 5806TIP3    H217362   8.042   0.542   3.917
 5807TIP3   OH217363   1.007   3.285   6.175
 5807TIP3    H117364   1.054   3.214   6.132
 5807TIP3    H217365   0.953   3.241   6.242
 5808TIP3   OH217366   6.515   3.523   3.753
 5808TIP3    H117367   6.568   3.588   3.708
 5808TIP3    H217368   6.491   3.564   3.836
 5809TIP3   OH217369   2.047   0.817   0.621
 5809TIP3    H117370   1.962   0.771   0.623
 5809TIP3    H217371   2.100   0.767   0.559
 5810TIP3   OH217372   3.578   6.105   2.300
 5810TIP3    H117373   3.536   6.122   2.385
 5810TIP3    H217374   3.547   6.176   2.244
 5811TIP3   OH217375   5.626   2.111   5.672
 5811TIP3    H117376   5.625   2.099   5.577
 5811TIP3    H217377   5.718   2.103   5.696
 5812TIP3   OH217378   2.126   0.104   5.604
 5812TIP3    H117379   2.214   0.123   5.636
 5812TIP3    H217380   2.140   0.043   5.531
 5813TIP3   OH217381   3.002   3.412   1.332
 5813TIP3    H117382   2.975   3.327   1.298
 5813TIP3    H217383   2.944   3.474   1.289
 5814TIP3   OH217384   6.237   6.767   1.752
 5814TIP3    H117385   6.258   6.678   1.724
 5814TIP3    H217386   6.222   6.761   1.846
 5815TIP3   OH217387   2.486   0.760   5.277
 5815TIP3    H117388   2.413   0.713   5.316
 5815TIP3    H217389   2.471   0.754   5.183
 5816TIP3   OH217390   1.346   3.143   2.811
 5816TIP3    H117391   1.307   3.201   2.747
 5816TIP3    H217392   1.438   3.170   2.816
 5817TIP3   OH217393   7.539   4.440   4.735
 5817TIP3    H117394   7.613   4.380   4.726
 5817TIP3    H217395   7.515   4.463   4.645
 5818TIP3   OH217396   3.625   4.411   0.393
 5818TIP3    H117397   3.616   4.439   0.302
 5818TIP3    H217398   3.697   4.348   0.392
 5819TIP3   OH217399   1.671   4.604   3.931
 5819TIP3    H117400   1.693   4.540   3.999
 5819TIP3    H217401   1.641   4.681   3.979
 5820TIP3   OH217402   5.055   1.432   2.169
 5820TIP3    H117403   5.140   1.464   2.138
 5820TIP3    H217404   5.052   1.341   2.140
 5821TIP3   OH217405   5.855   3.272   4.560
 5821TIP3    H117406   5.944   3.306   4.562
 5821TIP3    H217407   5.864   3.178   4.571
 5822TIP3   OH217408   6.294   4.542   3.215
 5822TIP3    H117409   6.288   4.457   3.259
 5822TIP3    H217410   6.382   4.573   3.234
 5823TIP3   OH217411   3.152   0.389   1.518
 5823TIP3    H117412   3.160   0.477   1.557
 5823TIP3    H217413   3.077   0.395   1.460
 5824TIP3   OH217414   0.466   5.049   5.534
 5824TIP3    H117415   0.470   5.013   5.623
 5824TIP3    H217416   0.380   5.021   5.501
 5825TIP3   OH217417   7.245   6.231   5.433
 5825TIP3    H117418   7.248   6.223   5.529
 5825TIP3    H217419   7.260   6.142   5.401
 5826TIP3   OH217420   0.058   0.963   1.490
 5826TIP3    H117421   0.078   1.030   1.556
 5826TIP3    H217422   0.096   0.882   1.526
 5827TIP3   OH217423   6.038   2.984   1.814
 5827TIP3    H117424   6.041   3.076   1.787
 5827TIP3    H217425   5.999   2.986   1.902
 5828TIP3   OH217426   0.656   0.283   5.277
 5828TIP3    H117427   0.706   0.205   5.296
 5828TIP3    H217428   0.713   0.356   5.303
 5829TIP3   OH217429   5.542   4.111   3.326
 5829TIP3    H117430   5.604   4.177   3.358
 5829TIP3    H217431   5.530   4.131   3.233
 5830TIP3   OH217432   7.954   5.601   2.498
 5830TIP3    H117433   7.905   5.623   2.577
 5830TIP3    H217434   7.916   5.517   2.470
 5831TIP3   OH217435   5.300   1.148   1.025
 5831TIP3    H117436   5.220   1.141   0.974
 5831TIP3    H217437   5.320   1.058   1.051
 5832TIP3   OH217438   0.959   5.822   4.094
 5832TIP3    H117439   0.942   5.887   4.026
 5832TIP3    H217440   0.994   5.746   4.046
 5833TIP3   OH217441   3.755   5.217   5.485
 5833TIP3    H117442   3.787   5.297   5.527
 5833TIP3    H217443   3.661   5.229   5.479
 5834TIP3   OH217444   3.518   0.685   0.957
 5834TIP3    H117445   3.547   0.729   0.877
 5834TIP3    H217446   3.548   0.742   1.028
 5835TIP3   OH217447   7.388   5.954   3.265
 5835TIP3    H117448   7.478   5.922   3.268
 5835TIP3    H217449   7.389   6.034   3.318
 5836TIP3   OH217450   6.409   5.571   3.542
 5836TIP3    H117451   6.359   5.651   3.528
 5836TIP3    H217452   6.393   5.549   3.634
 5837TIP3   OH217453   5.154   2.582   4.860
 5837TIP3    H117454   5.103   2.574   4.779
 5837TIP3    H217455   5.223   2.517   4.852
 5838TIP3   OH217456   3.449   2.508   3.193
 5838TIP3    H117457   3.502   2.554   3.257
 5838TIP3    H217458   3.500   2.514   3.111
 5839TIP3   OH217459   2.514   2.064   6.748
 5839TIP3    H117460   2.596   2.025   6.781
 5839TIP3    H217461   2.535   2.156   6.735
 5840TIP3   OH217462   0.454   6.317   4.181
 5840TIP3    H117463   0.476   6.229   4.210
 5840TIP3    H217464   0.388   6.348   4.243
 5841TIP3   OH217465   5.674   1.340   3.720
 5841TIP3    H117466   5.649   1.248   3.724
 5841TIP3    H217467   5.686   1.366   3.811
 5842TIP3   OH217468   5.174   2.565   0.190
 5842TIP3    H117469   5.205   2.593   0.276
 5842TIP3    H217470   5.098   2.621   0.173
 5843TIP3   OH217471   1.659   4.004   1.842
 5843TIP3    H117472   1.653   4.085   1.791
 5843TIP3    H217473   1.709   4.029   1.919
 5844TIP3   OH217474   6.896   5.301   1.608
 5844TIP3    H117475   6.986   5.277   1.584
 5844TIP3    H217476   6.900   5.316   1.703
 5845TIP3   OH217477   5.422   0.137   3.928
 5845TIP3    H117478   5.464   0.057   3.895
 5845TIP3    H217479   5.475   0.162   4.003
 5846TIP3   OH217480   1.264   5.607   6.493
 5846TIP3    H117481   1.191   5.550   6.515
 5846TIP3    H217482   1.342   5.555   6.510
 5847TIP3   OH217483   1.703   5.825   6.755
 5847TIP3    H117484   1.662   5.898   6.801
 5847TIP3    H217485   1.630   5.777   6.716
 5848TIP3   OH217486   2.839   6.147   1.648
 5848TIP3    H117487   2.852   6.226   1.595
 5848TIP3    H217488   2.914   6.092   1.628
 5849TIP3   OH217489   1.166   6.733   0.941
 5849TIP3    H117490   1.112   6.769   1.012
 5849TIP3    H217491   1.164   6.801   0.873
 5850TIP3   OH217492   3.005   2.321   6.192
 5850TIP3    H117493   3.059   2.361   6.260
 5850TIP3    H217494   3.051   2.240   6.171
 5851TIP3   OH217495   7.475   5.101   1.389
 5851TIP3    H117496   7.418   5.026   1.405
 5851TIP3    H217497   7.505   5.091   1.299
 5852TIP3   OH217498   2.221   4.673   2.943
 5852TIP3    H117499   2.249   4.743   2.884
 5852TIP3    H217500   2.278   4.682   3.020
 5853TIP3   OH217501   7.442   5.678   1.910
 5853TIP3    H117502   7.529   5.640   1.895
 5853TIP3    H217503   7.448   5.719   1.996
 5854TIP3   OH217504   5.734   2.756   0.783
 5854TIP3    H117505   5.716   2.712   0.700
 5854TIP3    H217506   5.714   2.690   0.849
 5855TIP3   OH217507   4.228   0.966   1.923
 5855TIP3    H117508   4.260   1.055   1.936
 5855TIP3    H217509   4.306   0.912   1.917
 5856TIP3   OH217510   7.654   6.341   5.926
 5856TIP3    H117511   7.676   6.321   6.017
 5856TIP3    H217512   7.630   6.434   5.927
 5857TIP3   OH217513   1.703   6.365   2.646
 5857TIP3    H117514   1.706   6.289   2.703
 5857TIP3    H217515   1.624   6.352   2.593
 5858TIP3   OH217516   1.257   1.611   4.031
 5858TIP3    H117517   1.220   1.647   3.951
 5858TIP3    H217518   1.329   1.556   4.002
 5859TIP3   OH217519   5.900   7.296   6.424
 5859TIP3    H117520   5.966   7.334   6.483
 5859TIP3    H217521   5.952   7.250   6.358
 5860TIP3   OH217522   6.512   7.219   0.946
 5860TIP3    H117523   6.509   7.258   0.859
 5860TIP3    H217524   6.444   7.264   0.995
 5861TIP3   OH217525   5.754   5.579   3.003
 5861TIP3    H117526   5.774   5.656   3.055
 5861TIP3    H217527   5.673   5.601   2.957
 5862TIP3   OH217528   6.125   0.850   6.644
 5862TIP3    H117529   6.216   0.845   6.675
 5862TIP3    H217530   6.074   0.805   6.712
 5863TIP3   OH217531   3.673   5.025   3.447
 5863TIP3    H117532   3.615   5.018   3.523
 5863TIP3    H217533   3.624   5.079   3.385
 5864TIP3   OH217534   1.523   6.959   1.684
 5864TIP3    H117535   1.496   6.873   1.651
 5864TIP3    H217536   1.444   7.013   1.678
 5865TIP3   OH217537   0.627   0.630   4.757
 5865TIP3    H117538   0.552   0.569   4.757
 5865TIP3    H217539   0.702   0.575   4.733
 5866TIP3   OH217540   7.488   6.079   5.373
 5866TIP3    H117541   7.487   6.002   5.430
 5866TIP3    H217542   7.469   6.045   5.285
 5867TIP3   OH217543   8.263   6.014   4.151
 5867TIP3    H117544   8.238   6.087   4.208
 5867TIP3    H217545   8.179   5.977   4.122
 5868TIP3   OH217546   7.174   6.499   0.204
 5868TIP3    H117547   7.171   6.519   0.111
 5868TIP3    H217548   7.084   6.476   0.227
 5869TIP3   OH217549   3.420   6.302   1.586
 5869TIP3    H117550   3.512   6.327   1.584
 5869TIP3    H217551   3.402   6.285   1.679
 5870TIP3   OH217552   4.127   3.330   5.568
 5870TIP3    H117553   4.136   3.236   5.583
 5870TIP3    H217554   4.051   3.338   5.511
 5871TIP3   OH217555   4.749   4.160   5.346
 5871TIP3    H117556   4.751   4.234   5.406
 5871TIP3    H217557   4.831   4.168   5.296
 5872TIP3   OH217558   5.308   2.639   1.973
 5872TIP3    H117559   5.361   2.559   1.965
 5872TIP3    H217560   5.222   2.614   1.938
 5873TIP3   OH217561   6.422   7.326   0.120
 5873TIP3    H117562   6.459   7.339   0.033
 5873TIP3    H217563   6.332   7.299   0.105
 5874TIP3   OH217564   3.039   6.861   3.654
 5874TIP3    H117565   3.101   6.933   3.645
 5874TIP3    H217566   3.014   6.862   3.746
 5875TIP3   OH217567   3.613   3.356   1.308
 5875TIP3    H117568   3.535   3.310   1.275
 5875TIP3    H217569   3.605   3.445   1.274
 5876TIP3   OH217570   0.336   4.622   4.055
 5876TIP3    H117571   0.257   4.569   4.049
 5876TIP3    H217572   0.408   4.559   4.047
 5877TIP3   OH217573   4.910   7.439   6.160
 5877TIP3    H117574   4.958   7.358   6.143
 5877TIP3    H217575   4.904   7.481   6.074
 5878TIP3   OH217576   3.793   4.834   1.628
 5878TIP3    H117577   3.739   4.755   1.629
 5878TIP3    H217578   3.822   4.842   1.537
 5879TIP3   OH217579   5.962   0.107   2.267
 5879TIP3    H117580   5.916   0.082   2.347
 5879TIP3    H217581   6.028   0.170   2.296
 5880TIP3   OH217582   2.048   7.059   6.203
 5880TIP3    H117583   2.064   7.027   6.291
 5880TIP3    H217584   2.069   7.152   6.207
 5881TIP3   OH217585   7.986   2.228   5.897
 5881TIP3    H117586   8.050   2.158   5.884
 5881TIP3    H217587   7.949   2.211   5.984
 5882TIP3   OH217588   1.380   5.210   0.900
 5882TIP3    H117589   1.306   5.156   0.928
 5882TIP3    H217590   1.345   5.261   0.826
 5883TIP3   OH217591   0.505   0.727   5.771
 5883TIP3    H117592   0.469   0.667   5.837
 5883TIP3    H217593   0.435   0.791   5.756
 5884TIP3   OH217594   2.501   5.690   5.103
 5884TIP3    H117595   2.515   5.711   5.196
 5884TIP3    H217596   2.411   5.656   5.101
 5885TIP3   OH217597   4.974   2.634   2.743
 5885TIP3    H117598   4.922   2.557   2.720
 5885TIP3    H217599   4.931   2.707   2.698
 5886TIP3   OH217600   5.961   6.545   3.149
 5886TIP3    H117601   5.939   6.549   3.056
 5886TIP3    H217602   5.926   6.460   3.178
 5887TIP3   OH217603   4.294   5.442   1.299
 5887TIP3    H117604   4.331   5.447   1.387
 5887TIP3    H217605   4.212   5.492   1.305
 5888TIP3   OH217606   7.789   4.968   0.682
 5888TIP3    H117607   7.816   4.897   0.625
 5888TIP3    H217608   7.748   5.032   0.623
 5889TIP3   OH217609   5.269   7.594   1.182
 5889TIP3    H117610   5.333   7.531   1.216
 5889TIP3    H217611   5.268   7.664   1.246
 5890TIP3   OH217612   4.002   0.826   0.798
 5890TIP3    H117613   4.005   0.791   0.709
 5890TIP3    H217614   3.939   0.770   0.843
 5891TIP3   OH217615   7.427   4.287   3.503
 5891TIP3    H117616   7.448   4.377   3.528
 5891TIP3    H217617   7.444   4.235   3.582
 5892TIP3   OH217618   7.396   7.367   6.350
 5892TIP3    H117619   7.353   7.284   6.372
 5892TIP3    H217620   7.431   7.353   6.262
 5893TIP3   OH217621   7.295   2.368   6.358
 5893TIP3    H117622   7.281   2.358   6.264
 5893TIP3    H217623   7.317   2.280   6.389
 5894TIP3   OH217624   3.088   3.971   0.397
 5894TIP3    H117625   3.129   3.975   0.483
 5894TIP3    H217626   3.105   4.057   0.358
 5895TIP3   OH217627   7.359   6.836   6.576
 5895TIP3    H117628   7.349   6.758   6.521
 5895TIP3    H217629   7.385   6.801   6.661
 5896TIP3   OH217630   6.730   2.212   0.670
 5896TIP3    H117631   6.702   2.303   0.661
 5896TIP3    H217632   6.665   2.162   0.620
 5897TIP3   OH217633   1.579   4.941   5.600
 5897TIP3    H117634   1.668   4.942   5.564
 5897TIP3    H217635   1.588   4.897   5.685
 5898TIP3   OH217636   2.457   5.951   0.208
 5898TIP3    H117637   2.458   5.857   0.188
 5898TIP3    H217638   2.550   5.975   0.212
 5899TIP3   OH217639   0.670   3.064   1.332
 5899TIP3    H117640   0.627   3.093   1.413
 5899TIP3    H217641   0.763   3.083   1.347
 5900TIP3   OH217642   3.331   3.602   4.683
 5900TIP3    H117643   3.353   3.695   4.689
 5900TIP3    H217644   3.394   3.567   4.619
 5901TIP3   OH217645   7.677   7.154   3.832
 5901TIP3    H117646   7.634   7.239   3.843
 5901TIP3    H217647   7.741   7.150   3.903
 5902TIP3   OH217648   2.588   4.501   2.307
 5902TIP3    H117649   2.542   4.478   2.388
 5902TIP3    H217650   2.523   4.547   2.254
 5903TIP3   OH217651   2.156   4.874   4.568
 5903TIP3    H117652   2.163   4.936   4.495
 5903TIP3    H217653   2.071   4.894   4.607
 5904TIP3   OH217654   0.714   2.677   3.438
 5904TIP3    H117655   0.692   2.752   3.382
 5904TIP3    H217656   0.803   2.653   3.413
 5905TIP3   OH217657   3.700   4.562   5.037
 5905TIP3    H117658   3.616   4.589   5.074
 5905TIP3    H217659   3.760   4.634   5.059
 5906TIP3   OH217660   0.399   3.321   2.820
 5906TIP3    H117661   0.468   3.261   2.792
 5906TIP3    H217662   0.346   3.271   2.881
 5907TIP3   OH217663   2.581   5.068   4.489
 5907TIP3    H117664   2.666   5.024   4.493
 5907TIP3    H217665   2.527   5.022   4.553
 5908TIP3   OH217666   4.289   2.056   4.765
 5908TIP3    H117667   4.352   2.127   4.781
 5908TIP3    H217668   4.205   2.093   4.792
 5909TIP3   OH217669   0.035   0.462   3.438
 5909TIP3    H117670   0.041   0.487   3.346
 5909TIP3    H217671   0.017   0.544   3.484
 5910TIP3   OH217672   5.970   7.819   6.482
 5910TIP3    H117673   5.934   7.745   6.529
 5910TIP3    H217674   5.917   7.825   6.402
 5911TIP3   OH217675   2.322   2.413   4.053
 5911TIP3    H117676   2.319   2.360   3.973
 5911TIP3    H217677   2.306   2.351   4.124
 5912TIP3   OH217678   3.593   5.882   3.025
 5912TIP3    H117679   3.633   5.915   3.106
 5912TIP3    H217680   3.499   5.880   3.043
 5913TIP3   OH217681   2.832   5.913   2.281
 5913TIP3    H117682   2.750   5.926   2.235
 5913TIP3    H217683   2.873   6.000   2.283
 5914TIP3   OH217684   0.209   7.226   4.861
 5914TIP3    H117685   0.198   7.139   4.901
 5914TIP3    H217686   0.143   7.228   4.792
 5915TIP3   OH217687   5.982   6.604   4.972
 5915TIP3    H117688   5.996   6.699   4.981
 5915TIP3    H217689   6.067   6.565   4.994
 5916TIP3   OH217690   3.533   7.104   1.198
 5916TIP3    H117691   3.474   7.076   1.268
 5916TIP3    H217692   3.479   7.162   1.143
 5917TIP3   OH217693   3.454   2.771   5.690
 5917TIP3    H117694   3.480   2.863   5.685
 5917TIP3    H217695   3.438   2.755   5.783
 5918TIP3   OH217696   2.321   4.686   4.141
 5918TIP3    H117697   2.404   4.709   4.100
 5918TIP3    H217698   2.339   4.689   4.235
 5919TIP3   OH217699   2.988   4.557   6.670
 5919TIP3    H117700   3.015   4.617   6.601
 5919TIP3    H217701   2.904   4.593   6.701
 5920TIP3   OH217702   5.111   6.442   5.021
 5920TIP3    H117703   5.078   6.530   5.039
 5920TIP3    H217704   5.051   6.384   5.068
 5921TIP3   OH217705   5.587   0.914   2.752
 5921TIP3    H117706   5.656   0.970   2.789
 5921TIP3    H217707   5.570   0.952   2.666
 5922TIP3   OH217708   0.685   2.818   0.158
 5922TIP3    H117709   0.765   2.833   0.108
 5922TIP3    H217710   0.616   2.858   0.106
 5923TIP3   OH217711   5.844   4.523   0.748
 5923TIP3    H117712   5.794   4.551   0.825
 5923TIP3    H217713   5.932   4.508   0.780
 5924TIP3   OH217714   1.558   0.312   6.586
 5924TIP3    H117715   1.620   0.254   6.542
 5924TIP3    H217716   1.585   0.400   6.560
 5925TIP3   OH217717   0.079   1.632   4.784
 5925TIP3    H117718  -0.009   1.658   4.758
 5925TIP3    H217719   0.073   1.616   4.878
 5926TIP3   OH217720   2.592   4.374   4.074
 5926TIP3    H117721   2.521   4.344   4.131
 5926TIP3    H217722   2.584   4.320   3.996
 5927TIP3   OH217723   0.881   0.057   1.630
 5927TIP3    H117724   0.972   0.082   1.614
 5927TIP3    H217725   0.867  -0.018   1.572
 5928TIP3   OH217726   0.397   6.694   6.315
 5928TIP3    H117727   0.355   6.634   6.377
 5928TIP3    H217728   0.333   6.764   6.302
 5929TIP3   OH217729   4.862   1.438   4.460
 5929TIP3    H117730   4.795   1.433   4.392
 5929TIP3    H217731   4.943   1.412   4.416
 5930TIP3   OH217732   2.384   1.671   0.983
 5930TIP3    H117733   2.364   1.587   0.942
 5930TIP3    H217734   2.451   1.651   1.049
 5931TIP3   OH217735   2.848   1.871   0.315
 5931TIP3    H117736   2.827   1.935   0.383
 5931TIP3    H217737   2.867   1.924   0.238
 5932TIP3   OH217738   6.159   2.029   3.308
 5932TIP3    H117739   6.085   1.969   3.304
 5932TIP3    H217740   6.125   2.112   3.275
 5933TIP3   OH217741   4.922   2.633   1.785
 5933TIP3    H117742   4.997   2.573   1.790
 5933TIP3    H217743   4.874   2.618   1.866
 5934TIP3   OH217744   0.327   7.454   6.199
 5934TIP3    H117745   0.275   7.508   6.139
 5934TIP3    H217746   0.264   7.398   6.243
 5935TIP3   OH217747   4.665   0.826   2.332
 5935TIP3    H117748   4.616   0.837   2.413
 5935TIP3    H217749   4.600   0.800   2.268
 5936TIP3   OH217750   6.805   1.550   0.236
 5936TIP3    H117751   6.716   1.582   0.222
 5936TIP3    H217752   6.814   1.478   0.174
 5937TIP3   OH217753   6.643   5.969   6.374
 5937TIP3    H117754   6.561   6.006   6.406
 5937TIP3    H217755   6.617   5.905   6.308
 5938TIP3   OH217756   2.673   6.991   5.687
 5938TIP3    H117757   2.608   6.982   5.617
 5938TIP3    H217758   2.638   6.940   5.760
 5939TIP3   OH217759   7.641   4.055   2.849
 5939TIP3    H117760   7.601   3.968   2.859
 5939TIP3    H217761   7.734   4.038   2.841
 5940TIP3   OH217762   2.565   4.297   5.573
 5940TIP3    H117763   2.608   4.345   5.503
 5940TIP3    H217764   2.627   4.228   5.596
 5941TIP3   OH217765   1.507   0.400   6.142
 5941TIP3    H117766   1.454   0.349   6.204
 5941TIP3    H217767   1.517   0.342   6.066
 5942TIP3   OH217768   5.750   6.943   6.380
 5942TIP3    H117769   5.670   6.917   6.334
 5942TIP3    H217770   5.719   6.982   6.462
 5943TIP3   OH217771   3.604   3.652   4.438
 5943TIP3    H117772   3.691   3.652   4.479
 5943TIP3    H217773   3.597   3.567   4.395
 5944TIP3   OH217774   7.262   1.817   4.313
 5944TIP3    H117775   7.338   1.759   4.307
 5944TIP3    H217776   7.296   1.905   4.294
 5945TIP3   OH217777   2.719   4.855   6.575
 5945TIP3    H117778   2.645   4.907   6.544
 5945TIP3    H217779   2.694   4.764   6.558
 5946TIP3   OH217780   7.003   6.810   2.607
 5946TIP3    H117781   6.935   6.798   2.540
 5946TIP3    H217782   7.030   6.901   2.598
 5947TIP3   OH217783   5.165   1.871   3.313
 5947TIP3    H117784   5.120   1.925   3.248
 5947TIP3    H217785   5.231   1.929   3.351
 5948TIP3   OH217786   8.110   4.645   4.182
 5948TIP3    H117787   8.069   4.579   4.126
 5948TIP3    H217788   8.204   4.627   4.174
 5949TIP3   OH217789   6.556   2.899   4.358
 5949TIP3    H117790   6.493   2.911   4.286
 5949TIP3    H217791   6.515   2.833   4.414
 5950TIP3   OH217792   2.861   0.373   0.041
 5950TIP3    H117793   2.803   0.433  -0.007
 5950TIP3    H217794   2.920   0.431   0.090
 5951TIP3   OH217795   5.720   4.067   2.083
 5951TIP3    H117796   5.771   4.144   2.059
 5951TIP3    H217797   5.635   4.102   2.112
 5952TIP3   OH217798   0.365   4.216   4.736
 5952TIP3    H117799   0.364   4.126   4.701
 5952TIP3    H217800   0.425   4.263   4.679
 5953TIP3   OH217801   1.544   7.692   3.618
 5953TIP3    H117802   1.639   7.687   3.627
 5953TIP3    H217803   1.510   7.649   3.696
 5954TIP3   OH217804   6.847   5.218   2.935
 5954TIP3    H117805   6.869   5.310   2.950
 5954TIP3    H217806   6.903   5.170   2.995
 5955TIP3   OH217807   8.126   2.786   5.490
 5955TIP3    H117808   8.181   2.739   5.552
 5955TIP3    H217809   8.182   2.855   5.455
 5956TIP3   OH217810   4.818   6.870   6.256
 5956TIP3    H117811   4.809   6.818   6.176
 5956TIP3    H217812   4.901   6.841   6.294
 5957TIP3   OH217813   0.827   7.280   1.048
 5957TIP3    H117814   0.870   7.221   0.987
 5957TIP3    H217815   0.735   7.255   1.044
 5958TIP3   OH217816   5.105   2.150   3.148
 5958TIP3    H117817   5.154   2.221   3.107
 5958TIP3    H217818   5.025   2.192   3.180
 5959TIP3   OH217819   2.291   2.015   3.855
 5959TIP3    H117820   2.311   2.034   3.947
 5959TIP3    H217821   2.257   1.925   3.856
 5960TIP3   OH217822   7.539   0.069   5.166
 5960TIP3    H117823   7.541   0.164   5.154
 5960TIP3    H217824   7.476   0.038   5.101
 5961TIP3   OH217825   1.373   5.924   5.598
 5961TIP3    H117826   1.314   5.887   5.532
 5961TIP3    H217827   1.330   5.905   5.681
 5962TIP3   OH217828   6.269   6.579   5.306
 5962TIP3    H117829   6.240   6.507   5.361
 5962TIP3    H217830   6.365   6.578   5.314
 5963TIP3   OH217831   4.260   7.401   0.402
 5963TIP3    H117832   4.279   7.369   0.314
 5963TIP3    H217833   4.287   7.329   0.459
 5964TIP3   OH217834   2.878   7.421   1.502
 5964TIP3    H117835   2.869   7.376   1.586
 5964TIP3    H217836   2.846   7.358   1.437
 5965TIP3   OH217837   5.790   6.663   2.543
 5965TIP3    H117838   5.881   6.654   2.514
 5965TIP3    H217839   5.739   6.641   2.465
 5966TIP3   OH217840   2.656   4.679   5.348
 5966TIP3    H117841   2.577   4.710   5.304
 5966TIP3    H217842   2.675   4.746   5.413
 5967TIP3   OH217843   5.522   2.510   0.355
 5967TIP3    H117844   5.451   2.564   0.390
 5967TIP3    H217845   5.545   2.552   0.272
 5968TIP3   OH217846   7.743   2.669   2.805
 5968TIP3    H117847   7.714   2.743   2.752
 5968TIP3    H217848   7.814   2.705   2.859
 5969TIP3   OH217849   2.681   7.391   5.018
 5969TIP3    H117850   2.736   7.423   4.946
 5969TIP3    H217851   2.609   7.346   4.974
 5970TIP3   OH217852   5.486   6.298   1.557
 5970TIP3    H117853   5.471   6.385   1.594
 5970TIP3    H217854   5.578   6.279   1.575
 5971TIP3   OH217855   3.897   4.986   1.870
 5971TIP3    H117856   3.835   4.965   1.940
 5971TIP3    H217857   3.845   4.982   1.790
 5972TIP3   OH217858   5.656   2.103   4.545
 5972TIP3    H117859   5.734   2.085   4.492
 5972TIP3    H217860   5.585   2.058   4.500
 5973TIP3   OH217861   7.809   0.280   3.222
 5973TIP3    H117862   7.827   0.193   3.185
 5973TIP3    H217863   7.882   0.295   3.282
 5974TIP3   OH217864   7.644   1.220   2.445
 5974TIP3    H117865   7.703   1.294   2.432
 5974TIP3    H217866   7.595   1.241   2.524
 5975TIP3   OH217867   6.512   3.217   0.173
 5975TIP3    H117868   6.449   3.173   0.117
 5975TIP3    H217869   6.551   3.147   0.225
 5976TIP3   OH217870   3.215   5.817   2.158
 5976TIP3    H117871   3.235   5.788   2.069
 5976TIP3    H217872   3.142   5.878   2.147
 5977TIP3   OH217873   8.075   3.284   4.139
 5977TIP3    H117874   8.088   3.238   4.222
 5977TIP3    H217875   8.072   3.376   4.162
 5978TIP3   OH217876   7.934   5.496   2.145
 5978TIP3    H117877   7.936   5.471   2.053
 5978TIP3    H217878   8.016   5.463   2.181
 5979TIP3   OH217879   7.964   5.834  -0.022
 5979TIP3    H117880   7.910   5.884   0.039
 5979TIP3    H217881   7.950   5.743   0.003
 5980TIP3   OH217882   4.390   1.425   1.897
 5980TIP3    H117883   4.435   1.486   1.954
 5980TIP3    H217884   4.336   1.481   1.840
 5981TIP3   OH217885   2.727   6.313   2.816
 5981TIP3    H117886   2.751   6.252   2.746
 5981TIP3    H217887   2.704   6.394   2.770
 5982TIP3   OH217888   4.464   6.960   0.652
 5982TIP3    H117889   4.408   6.892   0.614
 5982TIP3    H217890   4.537   6.967   0.592
 5983TIP3   OH217891   1.688   4.445   0.347
 5983TIP3    H117892   1.660   4.504   0.417
 5983TIP3    H217893   1.757   4.392   0.386
 5984TIP3   OH217894   4.971   0.764   1.739
 5984TIP3    H117895   5.014   0.724   1.663
 5984TIP3    H217896   4.998   0.709   1.813
 5985TIP3   OH217897   1.564   6.333   5.434
 5985TIP3    H117898   1.576   6.282   5.515
 5985TIP3    H217899   1.652   6.337   5.396
 5986TIP3   OH217900   2.083   6.899   6.434
 5986TIP3    H117901   2.043   6.899   6.521
 5986TIP3    H217902   2.117   6.810   6.423
 5987TIP3   OH217903   3.952   3.634   0.823
 5987TIP3    H117904   4.015   3.643   0.895
 5987TIP3    H217905   3.929   3.541   0.823
 5988TIP3   OH217906   7.307   4.124   4.861
 5988TIP3    H117907   7.374   4.193   4.860
 5988TIP3    H217908   7.226   4.169   4.839
 5989TIP3   OH217909   3.418   7.442   5.900
 5989TIP3    H117910   3.455   7.365   5.857
 5989TIP3    H217911   3.354   7.475   5.837
 5990TIP3   OH217912   4.651   4.873   4.505
 5990TIP3    H117913   4.674   4.933   4.576
 5990TIP3    H217914   4.617   4.795   4.549
 5991TIP3   OH217915   7.671   7.791   2.167
 5991TIP3    H117916   7.578   7.801   2.147
 5991TIP3    H217917   7.680   7.828   2.255
 5992TIP3   OH217918   0.995   1.118   3.297
 5992TIP3    H117919   1.014   1.042   3.242
 5992TIP3    H217920   0.979   1.190   3.235
 5993TIP3   OH217921   2.892   4.750   5.686
 5993TIP3    H117922   2.844   4.786   5.611
 5993TIP3    H217923   2.890   4.819   5.752
 5994TIP3   OH217924   8.030   6.508   3.861
 5994TIP3    H117925   7.973   6.516   3.785
 5994TIP3    H217926   8.030   6.415   3.882
 5995TIP3   OH217927   3.095   1.753   5.305
 5995TIP3    H117928   3.114   1.693   5.377
 5995TIP3    H217929   3.010   1.791   5.328
 5996TIP3   OH217930   4.883   5.196   0.121
 5996TIP3    H117931   4.800   5.152   0.103
 5996TIP3    H217932   4.927   5.202   0.036
 5997TIP3   OH217933   7.062   4.266   2.607
 5997TIP3    H117934   7.154   4.293   2.609
 5997TIP3    H217935   7.065   4.172   2.623
 5998TIP3   OH217936   1.784   2.994   0.298
 5998TIP3    H117937   1.740   2.931   0.355
 5998TIP3    H217938   1.875   2.966   0.298
 5999TIP3   OH217939   0.172   7.575   2.918
 5999TIP3    H117940   0.189   7.480   2.917
 5999TIP3    H217941   0.193   7.603   2.829
 6000TIP3   OH217942   5.545   4.533   0.157
 6000TIP3    H117943   5.508   4.548   0.244
 6000TIP3    H217944   5.639   4.530   0.170
 6001TIP3   OH217945   4.477   6.687   0.260
 6001TIP3    H117946   4.547   6.707   0.198
 6001TIP3    H217947   4.489   6.595   0.282
 6002TIP3   OH217948   3.839   6.289   2.788
 6002TIP3    H117949   3.835   6.261   2.697
 6002TIP3    H217950   3.794   6.374   2.789
 6003TIP3   OH217951   6.164   6.375   5.732
 6003TIP3    H117952   6.224   6.449   5.723
 6003TIP3    H217953   6.104   6.401   5.801
 6004TIP3   OH217954   7.023   5.086   0.788
 6004TIP3    H117955   7.029   5.150   0.718
 6004TIP3    H217956   7.047   5.135   0.867
 6005TIP3   OH217957   2.305   1.939   6.608
 6005TIP3    H117958   2.366   2.009   6.631
 6005TIP3    H217959   2.271   1.908   6.692
 6006TIP3   OH217960   1.430   2.115   0.166
 6006TIP3    H117961   1.442   2.154   0.079
 6006TIP3    H217962   1.336   2.097   0.171
 6007TIP3   OH217963   0.976   7.799   6.225
 6007TIP3    H117964   0.894   7.836   6.258
 6007TIP3    H217965   0.950   7.716   6.184
 6008TIP3   OH217966   6.726   2.303   5.293
 6008TIP3    H117967   6.663   2.273   5.227
 6008TIP3    H217968   6.698   2.392   5.315
 6009TIP3   OH217969   5.097   0.331   3.575
 6009TIP3    H117970   5.155   0.292   3.641
 6009TIP3    H217971   5.015   0.346   3.620
 6010TIP3   OH217972   7.881   5.661   4.075
 6010TIP3    H117973   7.856   5.628   3.989
 6010TIP3    H217974   7.906   5.584   4.125
 6011TIP3   OH217975   6.998   5.012   5.069
 6011TIP3    H117976   7.078   5.041   5.024
 6011TIP3    H217977   6.941   5.089   5.067
 6012TIP3   OH217978   6.163   2.467   1.165
 6012TIP3    H117979   6.211   2.482   1.247
 6012TIP3    H217980   6.195   2.382   1.134
 6013TIP3   OH217981   1.876   7.640   5.949
 6013TIP3    H117982   1.793   7.642   5.997
 6013TIP3    H217983   1.896   7.546   5.939
 6014TIP3   OH217984   2.055   2.758   5.913
 6014TIP3    H117985   2.123   2.693   5.932
 6014TIP3    H217986   1.977   2.726   5.957
 6015TIP3   OH217987   8.092   6.192   4.325
 6015TIP3    H117988   8.007   6.167   4.287
 6015TIP3    H217989   8.090   6.154   4.413
 6016TIP3   OH217990   6.062   6.813   0.018
 6016TIP3    H117991   6.146   6.843   0.053
 6016TIP3    H217992   5.997   6.845   0.080
 6017TIP3   OH217993   0.379   7.187   2.276
 6017TIP3    H117994   0.306   7.230   2.232
 6017TIP3    H217995   0.388   7.103   2.231
 6018TIP3   OH217996   3.911   7.478   4.239
 6018TIP3    H117997   3.970   7.415   4.281
 6018TIP3    H217998   3.965   7.556   4.225
 6019TIP3   OH217999   7.717   4.537   6.089
 6019TIP3    H118000   7.636   4.509   6.046
 6019TIP3    H218001   7.776   4.560   6.017
 6020TIP3   OH218002   5.342   2.893   4.209
 6020TIP3    H118003   5.290   2.814   4.196
 6020TIP3    H218004   5.360   2.925   4.121
 6021TIP3   OH218005   6.332   5.066   2.843
 6021TIP3    H118006   6.408   5.125   2.839
 6021TIP3    H218007   6.364   4.983   2.807
 6022TIP3   OH218008   7.630   2.739   3.448
 6022TIP3    H118009   7.556   2.771   3.396
 6022TIP3    H218010   7.611   2.646   3.461
 6023TIP3   OH218011   3.766   2.169   2.049
 6023TIP3    H118012   3.691   2.220   2.079
 6023TIP3    H218013   3.841   2.212   2.090
 6024TIP3   OH218014   4.844   3.641   5.767
 6024TIP3    H118015   4.921   3.645   5.711
 6024TIP3    H218016   4.849   3.721   5.820
 6025TIP3   OH218017   6.838   4.262   4.076
 6025TIP3    H118018   6.802   4.191   4.129
 6025TIP3    H218019   6.767   4.285   4.016
 6026TIP3   OH218020   4.112   1.420   6.588
 6026TIP3    H118021   4.016   1.418   6.590
 6026TIP3    H218022   4.134   1.513   6.584
 6027TIP3   OH218023   1.972   7.287   2.808
 6027TIP3    H118024   1.898   7.339   2.776
 6027TIP3    H218025   2.033   7.353   2.842
 6028TIP3   OH218026   5.081   3.738   3.477
 6028TIP3    H118027   5.005   3.771   3.430
 6028TIP3    H218028   5.154   3.791   3.444
 6029TIP3   OH218029   7.151   1.981   3.503
 6029TIP3    H118030   7.178   1.959   3.415
 6029TIP3    H218031   7.126   1.897   3.543
 6030TIP3   OH218032   6.607   0.657   6.147
 6030TIP3    H118033   6.528   0.642   6.198
 6030TIP3    H218034   6.614   0.579   6.091
 6031TIP3   OH218035   0.460   5.647   5.675
 6031TIP3    H118036   0.402   5.581   5.636
 6031TIP3    H218037   0.522   5.669   5.606
 6032TIP3   OH218038   2.331   5.008   5.902
 6032TIP3    H118039   2.312   5.098   5.876
 6032TIP3    H218040   2.408   4.984   5.851
 6033TIP3   OH218041   3.961   2.940   5.414
 6033TIP3    H118042   3.957   2.978   5.501
 6033TIP3    H218043   3.949   2.846   5.428
 6034TIP3   OH218044   3.327   0.941   5.998
 6034TIP3    H118045   3.317   1.013   5.936
 6034TIP3    H218046   3.420   0.942   6.020
 6035TIP3   OH218047   2.144   4.800   2.191
 6035TIP3    H118048   2.224   4.800   2.138
 6035TIP3    H218049   2.074   4.820   2.128
 6036TIP3   OH218050   3.402   3.128   3.334
 6036TIP3    H118051   3.374   3.058   3.276
 6036TIP3    H218052   3.327   3.144   3.391
 6037TIP3   OH218053   3.792   2.835   6.149
 6037TIP3    H118054   3.769   2.765   6.088
 6037TIP3    H218055   3.813   2.789   6.230
 6038TIP3   OH218056   1.346   5.605   0.124
 6038TIP3    H118057   1.420   5.631   0.069
 6038TIP3    H218058   1.321   5.686   0.170
 6039TIP3   OH218059   5.126   1.578   1.758
 6039TIP3    H118060   5.203   1.617   1.718
 6039TIP3    H218061   5.078   1.652   1.795
 6040TIP3   OH218062   5.173   2.856   1.323
 6040TIP3    H118063   5.176   2.942   1.365
 6040TIP3    H218064   5.153   2.874   1.231
 6041TIP3   OH218065   0.074   7.337   4.358
 6041TIP3    H118066  -0.007   7.363   4.401
 6041TIP3    H218067   0.105   7.417   4.315
 6042TIP3   OH218068   7.827   6.532   4.959
 6042TIP3    H118069   7.747   6.480   4.944
 6042TIP3    H218070   7.869   6.490   5.034
 6043TIP3   OH218071   2.172   3.267   6.705
 6043TIP3    H118072   2.170   3.294   6.613
 6043TIP3    H218073   2.248   3.312   6.741
 6044TIP3   OH218074   2.092   3.924   4.819
 6044TIP3    H118075   2.021   3.940   4.881
 6044TIP3    H218076   2.103   4.007   4.773
 6045TIP3   OH218077   5.626   4.285   3.822
 6045TIP3    H118078   5.643   4.359   3.764
 6045TIP3    H218079   5.533   4.266   3.810
 6046TIP3   OH218080   7.943   4.138   6.516
 6046TIP3    H118081   8.010   4.112   6.579
 6046TIP3    H218082   7.867   4.083   6.537
 6047TIP3   OH218083   0.726   2.803   1.553
 6047TIP3    H118084   0.642   2.844   1.571
 6047TIP3    H218085   0.705   2.726   1.501
 6048TIP3   OH218086   4.604   1.311   1.613
 6048TIP3    H118087   4.636   1.310   1.703
 6048TIP3    H218088   4.512   1.286   1.620
 6049TIP3   OH218089   3.613   3.315   2.652
 6049TIP3    H118090   3.561   3.290   2.576
 6049TIP3    H218091   3.604   3.410   2.658
 6050TIP3   OH218092   3.748   1.660   4.398
 6050TIP3    H118093   3.807   1.592   4.434
 6050TIP3    H218094   3.690   1.682   4.471
 6051TIP3   OH218095   2.534   5.299   1.289
 6051TIP3    H118096   2.477   5.317   1.363
 6051TIP3    H218097   2.503   5.357   1.219
 6052TIP3   OH218098   7.484   7.154   2.298
 6052TIP3    H118099   7.418   7.085   2.293
 6052TIP3    H218100   7.488   7.190   2.209
 6053TIP3   OH218101   7.320   3.682   1.788
 6053TIP3    H118102   7.266   3.695   1.710
 6053TIP3    H218103   7.361   3.597   1.774
 6054TIP3   OH218104   1.222   0.848   0.653
 6054TIP3    H118105   1.317   0.861   0.663
 6054TIP3    H218106   1.204   0.877   0.564
 6055TIP3   OH218107   3.083   1.750   3.969
 6055TIP3    H118108   3.129   1.830   3.992
 6055TIP3    H218109   3.088   1.746   3.873
 6056TIP3   OH218110   0.655   1.677   5.836
 6056TIP3    H118111   0.638   1.624   5.758
 6056TIP3    H218112   0.716   1.624   5.887
 6057TIP3   OH218113   8.003   0.443   5.013
 6057TIP3    H118114   8.068   0.442   4.943
 6057TIP3    H218115   8.020   0.362   5.062
 6058TIP3   OH218116   2.344   5.447   3.062
 6058TIP3    H118117   2.324   5.353   3.065
 6058TIP3    H218118   2.406   5.461   3.133
 6059TIP3   OH218119   1.745   4.499   4.205
 6059TIP3    H118120   1.678   4.470   4.267
 6059TIP3    H218121   1.792   4.569   4.250
 6060TIP3   OH218122   2.598   3.348   3.250
 6060TIP3    H118123   2.611   3.271   3.195
 6060TIP3    H218124   2.654   3.332   3.326
 6061TIP3   OH218125   0.867   5.430   5.171
 6061TIP3    H118126   0.874   5.523   5.195
 6061TIP3    H218127   0.944   5.389   5.210
 6062TIP3   OH218128   0.732   4.351   0.485
 6062TIP3    H118129   0.768   4.326   0.400
 6062TIP3    H218130   0.777   4.433   0.506
 6063TIP3   OH218131   6.533   6.945   2.436
 6063TIP3    H118132   6.541   7.035   2.405
 6063TIP3    H218133   6.624   6.914   2.444
 6064TIP3   OH218134   0.391   2.506   3.702
 6064TIP3    H118135   0.335   2.500   3.625
 6064TIP3    H218136   0.333   2.529   3.774
 6065TIP3   OH218137   6.510   0.502   3.922
 6065TIP3    H118138   6.440   0.459   3.873
 6065TIP3    H218139   6.537   0.437   3.987
 6066TIP3   OH218140   0.260   0.820   0.907
 6066TIP3    H118141   0.247   0.910   0.937
 6066TIP3    H218142   0.306   0.829   0.824
 6067TIP3   OH218143   4.501   6.541   4.276
 6067TIP3    H118144   4.512   6.626   4.319
 6067TIP3    H218145   4.461   6.561   4.192
 6068TIP3   OH218146   0.335   0.049   1.644
 6068TIP3    H118147   0.252   0.051   1.692
 6068TIP3    H218148   0.330   0.124   1.585
 6069TIP3   OH218149   4.465   2.124   0.539
 6069TIP3    H118150   4.456   2.154   0.449
 6069TIP3    H218151   4.555   2.144   0.563
 6070TIP3   OH218152   6.770   1.858   6.394
 6070TIP3    H118153   6.807   1.771   6.400
 6070TIP3    H218154   6.681   1.849   6.430
 6071TIP3   OH218155   0.214   7.704   0.035
 6071TIP3    H118156   0.121   7.685   0.042
 6071TIP3    H218157   0.218   7.798   0.014
 6072TIP3   OH218158   1.399   7.415   6.046
 6072TIP3    H118159   1.358   7.338   6.086
 6072TIP3    H218160   1.338   7.486   6.062
 6073TIP3   OH218161   8.182   6.417   2.210
 6073TIP3    H118162   8.179   6.381   2.121
 6073TIP3    H218163   8.104   6.381   2.253
 6074TIP3   OH218164   6.935   4.129   5.033
 6074TIP3    H118165   6.911   4.207   5.085
 6074TIP3    H218166   7.030   4.121   5.045
 6075TIP3   OH218167   5.904   1.379   5.195
 6075TIP3    H118168   5.878   1.297   5.152
 6075TIP3    H218169   5.845   1.445   5.157
 6076TIP3   OH218170   4.345   7.480   4.460
 6076TIP3    H118171   4.332   7.505   4.369
 6076TIP3    H218172   4.401   7.403   4.457
 6077TIP3   OH218173   7.929   7.212   0.822
 6077TIP3    H118174   7.980   7.246   0.749
 6077TIP3    H218175   7.937   7.117   0.814
 6078TIP3   OH218176   6.354   3.033   0.770
 6078TIP3    H118177   6.296   2.985   0.829
 6078TIP3    H218178   6.358   3.122   0.807
 6079TIP3   OH218179   4.813   0.003   0.584
 6079TIP3    H118180   4.867   0.023   0.661
 6079TIP3    H218181   4.873   0.012   0.510
 6080TIP3   OH218182   3.836   4.188   3.682
 6080TIP3    H118183   3.835   4.106   3.731
 6080TIP3    H218184   3.863   4.163   3.594
 6081TIP3   OH218185   6.989   7.626   4.949
 6081TIP3    H118186   6.919   7.671   4.902
 6081TIP3    H218187   7.063   7.685   4.945
 6082TIP3   OH218188   5.124   1.560   6.029
 6082TIP3    H118189   5.113   1.572   6.123
 6082TIP3    H218190   5.216   1.534   6.019
 6083TIP3   OH218191   0.266   0.851   3.893
 6083TIP3    H118192   0.173   0.826   3.894
 6083TIP3    H218193   0.265   0.944   3.874
 6084TIP3   OH218194   8.153   2.882   0.266
 6084TIP3    H118195   8.162   2.814   0.199
 6084TIP3    H218196   8.214   2.856   0.335
 6085TIP3   OH218197   5.030   6.798   4.599
 6085TIP3    H118198   5.026   6.704   4.617
 6085TIP3    H218199   5.054   6.837   4.682
 6086TIP3   OH218200   0.595   6.235   6.374
 6086TIP3    H118201   0.656   6.225   6.301
 6086TIP3    H218202   0.521   6.179   6.351
 6087TIP3   OH218203   3.845   5.012   5.647
 6087TIP3    H118204   3.919   4.979   5.596
 6087TIP3    H218205   3.808   5.081   5.592
 6088TIP3   OH218206   3.558   6.361   1.971
 6088TIP3    H118207   3.501   6.433   1.946
 6088TIP3    H218208   3.499   6.285   1.977
 6089TIP3   OH218209   3.141   5.648   3.847
 6089TIP3    H118210   3.174   5.583   3.908
 6089TIP3    H218211   3.203   5.721   3.852
 6090TIP3   OH218212   1.311   1.791   6.495
 6090TIP3    H118213   1.308   1.782   6.590
 6090TIP3    H218214   1.400   1.820   6.476
 6091TIP3   OH218215   6.829   7.419   5.851
 6091TIP3    H118216   6.879   7.501   5.859
 6091TIP3    H218217   6.861   7.364   5.922
 6092TIP3   OH218218   2.361   1.548   6.559
 6092TIP3    H118219   2.435   1.501   6.522
 6092TIP3    H218220   2.321   1.593   6.484
 6093TIP3   OH218221   4.451   5.164   0.932
 6093TIP3    H118222   4.432   5.158   1.025
 6093TIP3    H218223   4.367   5.189   0.892
 6094TIP3   OH218224   5.803   2.310   4.706
 6094TIP3    H118225   5.722   2.267   4.679
 6094TIP3    H218226   5.853   2.241   4.750
 6095TIP3   OH218227   8.303   4.283   5.634
 6095TIP3    H118228   8.234   4.350   5.637
 6095TIP3    H218229   8.282   4.224   5.706
 6096TIP3   OH218230   7.071   3.195   6.085
 6096TIP3    H118231   7.047   3.234   6.169
 6096TIP3    H218232   7.152   3.147   6.104
 6097TIP3   OH218233   5.349   6.842   5.738
 6097TIP3    H118234   5.379   6.759   5.702
 6097TIP3    H218235   5.289   6.876   5.671
 6098TIP3   OH218236   0.302   5.930   6.553
 6098TIP3    H118237   0.224   5.877   6.539
 6098TIP3    H218238   0.369   5.889   6.498
 6099TIP3   OH218239   5.768   2.504   3.590
 6099TIP3    H118240   5.798   2.565   3.523
 6099TIP3    H218241   5.682   2.537   3.616
 6100TIP3   OH218242   0.734   6.736   5.971
 6100TIP3    H118243   0.778   6.744   5.886
 6100TIP3    H218244   0.767   6.811   6.022
 6101TIP3   OH218245   0.387   5.834   4.075
 6101TIP3    H118246   0.348   5.830   3.987
 6101TIP3    H218247   0.481   5.829   4.059
 6102TIP3   OH218248   5.815   3.847   5.160
 6102TIP3    H118249   5.802   3.849   5.255
 6102TIP3    H218250   5.766   3.770   5.131
 6103TIP3   OH218251   2.682   3.343   1.464
 6103TIP3    H118252   2.680   3.437   1.444
 6103TIP3    H218253   2.623   3.303   1.399
 6104TIP3   OH218254   5.702   7.322   1.430
 6104TIP3    H118255   5.677   7.241   1.474
 6104TIP3    H218256   5.794   7.309   1.407
 6105TIP3   OH218257   3.326   7.442   1.789
 6105TIP3    H118258   3.329   7.401   1.702
 6105TIP3    H218259   3.259   7.510   1.781
 6106TIP3   OH218260   7.938   7.737   5.567
 6106TIP3    H118261   7.979   7.770   5.487
 6106TIP3    H218262   7.857   7.696   5.536
 6107TIP3   OH218263   5.497   7.148   1.281
 6107TIP3    H118264   5.491   7.178   1.372
 6107TIP3    H218265   5.532   7.224   1.234
 6108TIP3   OH218266   6.350   2.670   3.589
 6108TIP3    H118267   6.265   2.627   3.591
 6108TIP3    H218268   6.348   2.731   3.663
 6109TIP3   OH218269   1.852   4.031   5.094
 6109TIP3    H118270   1.902   4.074   5.164
 6109TIP3    H218271   1.781   3.987   5.139
 6110TIP3   OH218272   4.263   1.839   1.162
 6110TIP3    H118273   4.349   1.864   1.196
 6110TIP3    H218274   4.216   1.804   1.238
 6111TIP3   OH218275   6.240   6.307   4.512
 6111TIP3    H118276   6.191   6.269   4.584
 6111TIP3    H218277   6.318   6.345   4.553
 6112TIP3   OH218278   0.606   5.782   3.128
 6112TIP3    H118279   0.675   5.741   3.075
 6112TIP3    H218280   0.545   5.818   3.063
 6113TIP3   OH218281   6.864   1.372   1.591
 6113TIP3    H118282   6.859   1.330   1.505
 6113TIP3    H218283   6.953   1.407   1.596
 6114TIP3   OH218284   1.362   5.844   4.171
 6114TIP3    H118285   1.278   5.885   4.193
 6114TIP3    H218286   1.357   5.830   4.076
 6115TIP3   OH218287   1.882   6.821   5.609
 6115TIP3    H118288   1.816   6.817   5.540
 6115TIP3    H218289   1.924   6.735   5.608
 6116TIP3   OH218290   7.406   4.212   3.755
 6116TIP3    H118291   7.316   4.203   3.786
 6116TIP3    H218292   7.444   4.279   3.813
 6117TIP3   OH218293   1.473   7.400   2.489
 6117TIP3    H118294   1.396   7.385   2.545
 6117TIP3    H218295   1.539   7.338   2.521
 6118TIP3   OH218296   0.327   2.710   2.167
 6118TIP3    H118297   0.362   2.706   2.256
 6118TIP3    H218298   0.303   2.620   2.146
 6119TIP3   OH218299   3.226   7.637   4.622
 6119TIP3    H118300   3.282   7.577   4.574
 6119TIP3    H218301   3.263   7.638   4.711
 6120TIP3   OH218302   5.117   0.200   4.152
 6120TIP3    H118303   5.179   0.272   4.137
 6120TIP3    H218304   5.037   0.227   4.106
 6121TIP3   OH218305   1.678   7.584   2.572
 6121TIP3    H118306   1.612   7.545   2.515
 6121TIP3    H218307   1.674   7.532   2.652
 6122TIP3   OH218308   7.020   1.312   3.119
 6122TIP3    H118309   6.997   1.405   3.119
 6122TIP3    H218310   6.936   1.266   3.130
 6123TIP3   OH218311   0.117   0.658   1.098
 6123TIP3    H118312   0.043   0.719   1.092
 6123TIP3    H218313   0.188   0.703   1.052
 6124TIP3   OH218314   3.739   2.764   4.322
 6124TIP3    H118315   3.751   2.704   4.396
 6124TIP3    H218316   3.825   2.802   4.308
 6125TIP3   OH218317   5.454   2.719   0.654
 6125TIP3    H118318   5.409   2.765   0.724
 6125TIP3    H218319   5.511   2.785   0.614
 6126TIP3   OH218320   1.309   2.926   1.756
 6126TIP3    H118321   1.276   2.875   1.683
 6126TIP3    H218322   1.258   3.007   1.754
 6127TIP3   OH218323   3.123   4.937   0.479
 6127TIP3    H118324   3.042   4.894   0.451
 6127TIP3    H218325   3.098   4.988   0.556
 6128TIP3   OH218326   5.713   6.042   6.575
 6128TIP3    H118327   5.672   6.127   6.562
 6128TIP3    H218328   5.740   6.014   6.488
 6129TIP3   OH218329   5.299   0.758   4.279
 6129TIP3    H118330   5.218   0.787   4.237
 6129TIP3    H218331   5.368   0.786   4.219
 6130TIP3   OH218332   0.020   0.170   0.011
 6130TIP3    H118333   0.072   0.147   0.088
 6130TIP3    H218334   0.042   0.261  -0.007
 6131TIP3   OH218335   5.060   5.969   5.656
 6131TIP3    H118336   5.063   6.035   5.586
 6131TIP3    H218337   5.058   6.020   5.737
 6132TIP3   OH218338   2.210   4.132   0.956
 6132TIP3    H118339   2.230   4.102   1.045
 6132TIP3    H218340   2.114   4.134   0.952
 6133TIP3   OH218341   6.908   7.279   3.236
 6133TIP3    H118342   6.931   7.372   3.226
 6133TIP3    H218343   6.813   7.279   3.244
 6134TIP3   OH218344   7.323   5.358   0.322
 6134TIP3    H118345   7.333   5.415   0.246
 6134TIP3    H218346   7.410   5.324   0.338
 6135TIP3   OH218347   4.717   3.200   5.222
 6135TIP3    H118348   4.644   3.234   5.274
 6135TIP3    H218349   4.682   3.192   5.133
 6136TIP3   OH218350   1.120   5.386   1.069
 6136TIP3    H118351   1.078   5.323   1.010
 6136TIP3    H218352   1.047   5.433   1.109
 6137TIP3   OH218353   4.217   0.619   2.043
 6137TIP3    H118354   4.269   0.644   2.120
 6137TIP3    H218355   4.280   0.573   1.987
 6138TIP3   OH218356   2.154   4.195   2.651
 6138TIP3    H118357   2.197   4.241   2.723
 6138TIP3    H218358   2.077   4.248   2.631
 6139TIP3   OH218359   1.556   5.499   4.866
 6139TIP3    H118360   1.606   5.561   4.812
 6139TIP3    H218361   1.558   5.417   4.817
 6140TIP3   OH218362   6.077   7.015   2.937
 6140TIP3    H118363   6.113   6.986   2.853
 6140TIP3    H218364   6.152   7.014   2.996
 6141TIP3   OH218365   3.986   4.967   1.353
 6141TIP3    H118366   3.972   4.952   1.259
 6141TIP3    H218367   4.007   4.881   1.388
 6142TIP3   OH218368   4.463   4.471   3.785
 6142TIP3    H118369   4.407   4.396   3.765
 6142TIP3    H218370   4.551   4.434   3.793
 6143TIP3   OH218371   0.408   7.494   0.078
 6143TIP3    H118372   0.365   7.580   0.079
 6143TIP3    H218373   0.337   7.432   0.090
 6144TIP3   OH218374   5.217   6.382   4.734
 6144TIP3    H118375   5.161   6.402   4.809
 6144TIP3    H218376   5.217   6.287   4.728
 6145TIP3   OH218377   1.221   4.327   4.293
 6145TIP3    H118378   1.234   4.237   4.261
 6145TIP3    H218379   1.217   4.380   4.214
 6146TIP3   OH218380   7.146   6.118   3.196
 6146TIP3    H118381   7.204   6.042   3.212
 6146TIP3    H218382   7.119   6.109   3.105
 6147TIP3   OH218383   2.996   3.103   1.383
 6147TIP3    H118384   3.023   3.118   1.292
 6147TIP3    H218385   3.042   3.170   1.433
 6148TIP3   OH218386   1.438   4.120   0.669
 6148TIP3    H118387   1.451   4.072   0.751
 6148TIP3    H218388   1.424   4.210   0.695
 6149TIP3   OH218389   7.013   3.142   0.533
 6149TIP3    H118390   6.933   3.167   0.580
 6149TIP3    H218391   7.017   3.047   0.542
 6150TIP3   OH218392   2.841   5.417   1.971
 6150TIP3    H118393   2.765   5.427   1.913
 6150TIP3    H218394   2.842   5.498   2.023
 6151TIP3   OH218395   3.105   5.938   1.003
 6151TIP3    H118396   3.069   5.967   1.087
 6151TIP3    H218397   3.030   5.938   0.943
 6152TIP3   OH218398   3.471   6.102   6.407
 6152TIP3    H118399   3.552   6.147   6.383
 6152TIP3    H218400   3.471   6.103   6.502
 6153TIP3   OH218401   6.437   4.932   2.395
 6153TIP3    H118402   6.490   4.924   2.315
 6153TIP3    H218403   6.404   5.022   2.393
 6154TIP3   OH218404   0.215   1.442   3.639
 6154TIP3    H118405   0.283   1.375   3.646
 6154TIP3    H218406   0.262   1.521   3.614
 6155TIP3   OH218407   2.149   2.595   5.422
 6155TIP3    H118408   2.208   2.660   5.461
 6155TIP3    H218409   2.191   2.571   5.340
 6156TIP3   OH218410   7.500   3.992   5.480
 6156TIP3    H118411   7.525   4.082   5.456
 6156TIP3    H218412   7.568   3.937   5.442
 6157TIP3   OH218413   1.554   2.601   6.004
 6157TIP3    H118414   1.528   2.638   5.920
 6157TIP3    H218415   1.510   2.516   6.007
 6158TIP3   OH218416   3.564   1.085   2.872
 6158TIP3    H118417   3.489   1.108   2.927
 6158TIP3    H218418   3.627   1.046   2.932
 6159TIP3   OH218419   5.431   7.526   2.145
 6159TIP3    H118420   5.421   7.431   2.138
 6159TIP3    H218421   5.341   7.558   2.155
 6160TIP3   OH218422   5.046   7.452   4.289
 6160TIP3    H118423   5.072   7.515   4.356
 6160TIP3    H218424   5.128   7.414   4.259
 6161TIP3   OH218425   2.886   4.867   6.327
 6161TIP3    H118426   2.834   4.893   6.403
 6161TIP3    H218427   2.854   4.779   6.305
 6162TIP3   OH218428   7.442   7.236   3.343
 6162TIP3    H118429   7.409   7.170   3.405
 6162TIP3    H218430   7.375   7.304   3.343
 6163TIP3   OH218431   7.683   3.736   3.258
 6163TIP3    H118432   7.731   3.654   3.243
 6163TIP3    H218433   7.750   3.798   3.288
 6164TIP3   OH218434   0.075   0.292   3.698
 6164TIP3    H118435   0.062   0.337   3.614
 6164TIP3    H218436   0.164   0.258   3.692
 6165TIP3   OH218437   4.056   3.249   3.057
 6165TIP3    H118438   4.148   3.230   3.077
 6165TIP3    H218439   4.042   3.213   2.970
 6166TIP3   OH218440   0.176   0.451   0.772
 6166TIP3    H118441   0.108   0.384   0.784
 6166TIP3    H218442   0.257   0.401   0.764
 6167TIP3   OH218443   2.259   6.885   4.709
 6167TIP3    H118444   2.312   6.926   4.640
 6167TIP3    H218445   2.237   6.956   4.769
 6168TIP3   OH218446   0.062   2.133   5.202
 6168TIP3    H118447   0.141   2.159   5.249
 6168TIP3    H218448   0.086   2.050   5.159
 6169TIP3   OH218449   5.230   2.013   2.387
 6169TIP3    H118450   5.255   2.048   2.302
 6169TIP3    H218451   5.191   1.928   2.368
 6170TIP3   OH218452   2.115   0.765   3.998
 6170TIP3    H118453   2.197   0.805   4.027
 6170TIP3    H218454   2.109   0.684   4.049
 6171TIP3   OH218455   7.083   5.281   5.517
 6171TIP3    H118456   6.989   5.284   5.496
 6171TIP3    H218457   7.099   5.191   5.543
 6172TIP3   OH218458   4.113   1.935   2.509
 6172TIP3    H118459   4.055   1.977   2.446
 6172TIP3    H218460   4.074   1.850   2.525
 6173TIP3   OH218461   6.091   1.769   5.152
 6173TIP3    H118462   6.076   1.697   5.213
 6173TIP3    H218463   6.135   1.836   5.204
 6174TIP3   OH218464   5.094   0.456   5.283
 6174TIP3    H118465   5.021   0.474   5.343
 6174TIP3    H218466   5.145   0.388   5.328
 6175TIP3   OH218467   5.384   2.139   6.015
 6175TIP3    H118468   5.429   2.218   5.983
 6175TIP3    H218469   5.350   2.097   5.936
 6176TIP3   OH218470   4.036   2.935   3.781
 6176TIP3    H118471   4.032   2.939   3.877
 6176TIP3    H218472   4.129   2.944   3.761
 6177TIP3   OH218473   5.627   6.633   0.530
 6177TIP3    H118474   5.547   6.604   0.486
 6177TIP3    H218475   5.602   6.639   0.622
 6178TIP3   OH218476   0.593   2.021   4.723
 6178TIP3    H118477   0.607   1.972   4.642
 6178TIP3    H218478   0.616   1.959   4.792
 6179TIP3   OH218479   6.938   2.882   0.634
 6179TIP3    H118480   6.864   2.932   0.600
 6179TIP3    H218481   6.916   2.791   0.617
 6180TIP3   OH218482   4.952   2.366   2.052
 6180TIP3    H118483   4.968   2.335   1.963
 6180TIP3    H218484   5.018   2.321   2.105
 6181TIP3   OH218485   4.990   3.670   5.023
 6181TIP3    H118486   5.059   3.728   5.054
 6181TIP3    H218487   4.916   3.688   5.081
 6182TIP3   OH218488   7.790   2.082   3.344
 6182TIP3    H118489   7.790   2.134   3.425
 6182TIP3    H218490   7.882   2.056   3.333
 6183TIP3   OH218491   3.062   0.995   0.712
 6183TIP3    H118492   3.077   1.054   0.786
 6183TIP3    H218493   2.986   0.943   0.738
 6184TIP3   OH218494   6.732   7.367   1.325
 6184TIP3    H118495   6.655   7.343   1.378
 6184TIP3    H218496   6.695   7.407   1.246
 6185TIP3   OH218497   5.790   4.111   2.887
 6185TIP3    H118498   5.756   4.134   2.974
 6185TIP3    H218499   5.718   4.130   2.827
 6186TIP3   OH218500   2.249   5.485   2.138
 6186TIP3    H118501   2.261   5.580   2.143
 6186TIP3    H218502   2.263   5.455   2.227
 6187TIP3   OH218503   6.187   0.441   5.096
 6187TIP3    H118504   6.127   0.476   5.030
 6187TIP3    H218505   6.145   0.462   5.180
 6188TIP3   OH218506   4.742   7.025   0.552
 6188TIP3    H118507   4.716   7.117   0.546
 6188TIP3    H218508   4.835   7.025   0.531
 6189TIP3   OH218509   5.880   3.185   5.376
 6189TIP3    H118510   5.814   3.219   5.437
 6189TIP3    H218511   5.890   3.254   5.310
 6190TIP3   OH218512   7.780   1.670   4.256
 6190TIP3    H118513   7.703   1.637   4.303
 6190TIP3    H218514   7.755   1.757   4.226
 6191TIP3   OH218515   7.952   2.557   6.396
 6191TIP3    H118516   7.938   2.652   6.402
 6191TIP3    H218517   8.004   2.536   6.473
 6192TIP3   OH218518   1.607   2.916   2.806
 6192TIP3    H118519   1.628   2.960   2.723
 6192TIP3    H218520   1.685   2.929   2.860
 6193TIP3   OH218521   1.266   7.345   3.165
 6193TIP3    H118522   1.194   7.381   3.113
 6193TIP3    H218523   1.319   7.421   3.187
 6194TIP3   OH218524   6.633   6.297   2.683
 6194TIP3    H118525   6.710   6.246   2.660
 6194TIP3    H218526   6.644   6.317   2.776
 6195TIP3   OH218527   1.635   3.847   6.238
 6195TIP3    H118528   1.693   3.804   6.177
 6195TIP3    H218529   1.667   3.937   6.243
 6196TIP3   OH218530   4.093   7.228   4.925
 6196TIP3    H118531   4.103   7.313   4.881
 6196TIP3    H218532   4.113   7.247   5.017
 6197TIP3   OH218533   2.141   6.328   5.817
 6197TIP3    H118534   2.161   6.310   5.909
 6197TIP3    H218535   2.049   6.301   5.807
 6198TIP3   OH218536   6.992   3.518   2.854
 6198TIP3    H118537   7.033   3.544   2.937
 6198TIP3    H218538   6.930   3.589   2.835
 6199TIP3   OH218539   2.587   1.791   6.036
 6199TIP3    H118540   2.661   1.803   6.095
 6199TIP3    H218541   2.582   1.696   6.022
 6200TIP3   OH218542   2.871   3.944   0.731
 6200TIP3    H118543   2.849   4.012   0.667
 6200TIP3    H218544   2.967   3.942   0.731
 6201TIP3   OH218545   4.559   0.940   5.253
 6201TIP3    H118546   4.482   0.919   5.305
 6201TIP3    H218547   4.525   0.964   5.167
 6202TIP3   OH218548   2.846   6.260   1.059
 6202TIP3    H118549   2.815   6.178   1.099
 6202TIP3    H218550   2.810   6.259   0.971
 6203TIP3   OH218551   3.773   5.119   4.851
 6203TIP3    H118552   3.868   5.110   4.842
 6203TIP3    H218553   3.738   5.100   4.764
 6204TIP3   OH218554   2.961   0.228   4.240
 6204TIP3    H118555   2.897   0.214   4.310
 6204TIP3    H218556   3.029   0.163   4.258
 6205TIP3   OH218557   6.558   1.766   5.792
 6205TIP3    H118558   6.525   1.821   5.721
 6205TIP3    H218559   6.566   1.825   5.867
 6206TIP3   OH218560   5.447   2.515   1.653
 6206TIP3    H118561   5.512   2.545   1.589
 6206TIP3    H218562   5.410   2.595   1.690
 6207TIP3   OH218563   3.054   0.431   3.359
 6207TIP3    H118564   3.145   0.456   3.345
 6207TIP3    H218565   3.053   0.386   3.444
 6208TIP3   OH218566   5.159   6.096   4.659
 6208TIP3    H118567   5.089   6.158   4.639
 6208TIP3    H218568   5.125   6.011   4.629
 6209TIP3   OH218569   6.212   3.201   5.056
 6209TIP3    H118570   6.214   3.144   5.133
 6209TIP3    H218571   6.135   3.172   5.007
 6210TIP3   OH218572   4.975   7.490   3.084
 6210TIP3    H118573   4.987   7.558   3.150
 6210TIP3    H218574   5.038   7.512   3.016
 6211TIP3   OH218575   5.643   6.947   3.875
 6211TIP3    H118576   5.560   6.930   3.831
 6211TIP3    H218577   5.640   6.893   3.954
 6212TIP3   OH218578   1.347   7.623   6.419
 6212TIP3    H118579   1.423   7.598   6.367
 6212TIP3    H218580   1.385   7.662   6.498
 6213TIP3   OH218581   3.967   0.809   0.151
 6213TIP3    H118582   3.924   0.895   0.150
 6213TIP3    H218583   4.023   0.812   0.229
 6214TIP3   OH218584   6.752   2.178   4.595
 6214TIP3    H118585   6.798   2.258   4.622
 6214TIP3    H218586   6.776   2.166   4.503
 6215TIP3   OH218587   6.608   2.872   5.382
 6215TIP3    H118588   6.555   2.853   5.459
 6215TIP3    H218589   6.655   2.952   5.404
 6216TIP3   OH218590   3.603   7.487   3.345
 6216TIP3    H118591   3.583   7.408   3.295
 6216TIP3    H218592   3.528   7.544   3.332
 6217TIP3   OH218593   6.589   0.569   1.210
 6217TIP3    H118594   6.638   0.550   1.130
 6217TIP3    H218595   6.646   0.628   1.260
 6218TIP3   OH218596   5.277   6.053   1.311
 6218TIP3    H118597   5.264   6.059   1.406
 6218TIP3    H218598   5.343   5.984   1.300
 6219TIP3   OH218599   3.085   6.619   6.343
 6219TIP3    H118600   3.153   6.659   6.288
 6219TIP3    H218601   3.021   6.585   6.281
 6220TIP3   OH218602   5.156   4.493   0.832
 6220TIP3    H118603   5.244   4.455   0.823
 6220TIP3    H218604   5.155   4.564   0.767
 6221TIP3   OH218605   7.739   4.765   1.919
 6221TIP3    H118606   7.726   4.848   1.965
 6221TIP3    H218607   7.698   4.700   1.976
 6222TIP3   OH218608   4.524   7.203   3.593
 6222TIP3    H118609   4.448   7.178   3.539
 6222TIP3    H218610   4.546   7.123   3.640
 6223TIP3   OH218611   4.569   1.700   2.587
 6223TIP3    H118612   4.664   1.708   2.600
 6223TIP3    H218613   4.536   1.789   2.598
 6224TIP3   OH218614   1.563   3.577   6.347
 6224TIP3    H118615   1.550   3.579   6.442
 6224TIP3    H218616   1.589   3.667   6.325
 6225TIP3   OH218617   0.167   4.203   4.369
 6225TIP3    H118618   0.137   4.279   4.418
 6225TIP3    H218619   0.139   4.128   4.421
 6226TIP3   OH218620   1.755   2.439   1.013
 6226TIP3    H118621   1.670   2.443   0.969
 6226TIP3    H218622   1.753   2.356   1.060
 6227TIP3   OH218623   5.161   0.696   3.297
 6227TIP3    H118624   5.137   0.663   3.384
 6227TIP3    H218625   5.121   0.783   3.292
 6228TIP3   OH218626   6.893   0.346   0.405
 6228TIP3    H118627   6.946   0.376   0.331
 6228TIP3    H218628   6.936   0.266   0.435
 6229TIP3   OH218629   5.443   4.926   3.047
 6229TIP3    H118630   5.446   4.986   2.973
 6229TIP3    H218631   5.524   4.944   3.095
 6230TIP3   OH218632   2.378   4.629   0.692
 6230TIP3    H118633   2.324   4.564   0.736
 6230TIP3    H218634   2.383   4.598   0.601
 6231TIP3   OH218635   1.459   4.778   2.161
 6231TIP3    H118636   1.471   4.684   2.145
 6231TIP3    H218637   1.521   4.820   2.102
 6232TIP3   OH218638   6.840   1.340   6.507
 6232TIP3    H118639   6.879   1.340   6.595
 6232TIP3    H218640   6.907   1.300   6.452
 6233TIP3   OH218641   7.733   5.734   6.062
 6233TIP3    H118642   7.703   5.819   6.030
 6233TIP3    H218643   7.663   5.673   6.037
 6234TIP3   OH218644   4.576   7.636   3.223
 6234TIP3    H118645   4.626   7.717   3.224
 6234TIP3    H218646   4.621   7.581   3.158
 6235TIP3   OH218647  -0.009   3.150   6.428
 6235TIP3    H118648  -0.067   3.141   6.504
 6235TIP3    H218649   0.079   3.139   6.464
 6236TIP3   OH218650   7.640   0.663   2.797
 6236TIP3    H118651   7.589   0.662   2.878
 6236TIP3    H218652   7.638   0.754   2.769
 6237TIP3   OH218653   7.313   2.585   1.432
 6237TIP3    H118654   7.286   2.635   1.355
 6237TIP3    H218655   7.368   2.514   1.396
 6238TIP3   OH218656   4.263   0.820   6.283
 6238TIP3    H118657   4.172   0.809   6.313
 6238TIP3    H218658   4.265   0.777   6.198
 6239TIP3   OH218659   2.466   6.903   0.214
 6239TIP3    H118660   2.374   6.904   0.239
 6239TIP3    H218661   2.490   6.995   0.204
 6240TIP3   OH218662   8.239   1.013   6.612
 6240TIP3    H118663   8.282   0.935   6.646
 6240TIP3    H218664   8.146   0.992   6.614
 6241TIP3   OH218665   3.666   0.591   5.594
 6241TIP3    H118666   3.762   0.591   5.603
 6241TIP3    H218667   3.634   0.622   5.679
 6242TIP3   OH218668   2.019   6.659   6.122
 6242TIP3    H118669   2.063   6.637   6.204
 6242TIP3    H218670   2.075   6.726   6.082
 6243TIP3   OH218671   5.488   3.821   0.457
 6243TIP3    H118672   5.532   3.748   0.412
 6243TIP3    H218673   5.430   3.858   0.391
 6244TIP3   OH218674   4.291   3.654   4.532
 6244TIP3    H118675   4.217   3.614   4.577
 6244TIP3    H218676   4.351   3.680   4.602
 6245TIP3   OH218677   6.727   2.680   3.047
 6245TIP3    H118678   6.670   2.753   3.071
 6245TIP3    H218679   6.761   2.647   3.130
 6246TIP3   OH218680   0.635   1.125   3.656
 6246TIP3    H118681   0.594   1.059   3.712
 6246TIP3    H218682   0.709   1.079   3.616
 6247TIP3   OH218683   4.416   7.219   2.185
 6247TIP3    H118684   4.372   7.299   2.211
 6247TIP3    H218685   4.372   7.193   2.104
 6248TIP3   OH218686   6.672   7.457   1.058
 6248TIP3    H118687   6.618   7.392   1.013
 6248TIP3    H218688   6.705   7.514   0.989
 6249TIP3   OH218689   7.194   2.123   0.783
 6249TIP3    H118690   7.199   2.062   0.710
 6249TIP3    H218691   7.104   2.156   0.780
 6250TIP3   OH218692   1.839   3.680   6.149
 6250TIP3    H118693   1.868   3.651   6.235
 6250TIP3    H218694   1.820   3.599   6.101
 6251TIP3   OH218695   1.661   6.120   5.991
 6251TIP3    H118696   1.568   6.102   5.980
 6251TIP3    H218697   1.681   6.090   6.079
 6252TIP3   OH218698   5.375   4.417   1.981
 6252TIP3    H118699   5.362   4.397   2.074
 6252TIP3    H218700   5.375   4.332   1.938
 6253TIP3   OH218701   6.600   2.497   6.561
 6253TIP3    H118702   6.638   2.442   6.629
 6253TIP3    H218703   6.539   2.439   6.515
 6254TIP3   OH218704   0.135   2.913   2.177
 6254TIP3    H118705   0.089   2.942   2.098
 6254TIP3    H218706   0.190   2.841   2.147
 6255TIP3   OH218707   1.883   1.788   0.746
 6255TIP3    H118708   1.967   1.831   0.732
 6255TIP3    H218709   1.831   1.812   0.669
 6256TIP3   OH218710   5.660   7.809   0.885
 6256TIP3    H118711   5.712   7.810   0.965
 6256TIP3    H218712   5.571   7.790   0.914
 6257TIP3   OH218713   2.494   2.828   3.803
 6257TIP3    H118714   2.547   2.843   3.725
 6257TIP3    H218715   2.530   2.748   3.842
 6258TIP3   OH218716   0.484   6.056   4.267
 6258TIP3    H118717   0.424   5.990   4.230
 6258TIP3    H218718   0.571   6.027   4.239
 6259TIP3   OH218719   5.278   6.820   1.787
 6259TIP3    H118720   5.229   6.752   1.740
 6259TIP3    H218721   5.222   6.844   1.860
 6260TIP3   OH218722   5.892   1.161   6.068
 6260TIP3    H118723   5.906   1.186   5.977
 6260TIP3    H218724   5.979   1.167   6.108
 6261TIP3   OH218725   4.576   0.751   6.194
 6261TIP3    H118726   4.566   0.811   6.121
 6261TIP3    H218727   4.582   0.664   6.154
 6262TIP3   OH218728   7.531   7.604   2.677
 6262TIP3    H118729   7.587   7.556   2.738
 6262TIP3    H218730   7.587   7.672   2.640
 6263TIP3   OH218731   2.193   0.882   2.543
 6263TIP3    H118732   2.130   0.885   2.616
 6263TIP3    H218733   2.264   0.940   2.571
 6264TIP3   OH218734   2.110   5.719   2.819
 6264TIP3    H118735   2.124   5.663   2.896
 6264TIP3    H218736   2.176   5.787   2.826
 6265TIP3   OH218737   1.837   4.068   6.236
 6265TIP3    H118738   1.915   4.086   6.183
 6265TIP3    H218739   1.797   4.153   6.249
 6266TIP3   OH218740   3.794   2.917   2.820
 6266TIP3    H118741   3.719   2.878   2.775
 6266TIP3    H218742   3.848   2.843   2.848
 6267TIP3   OH218743   5.854   4.403   5.387
 6267TIP3    H118744   5.897   4.488   5.386
 6267TIP3    H218745   5.888   4.360   5.466
 6268TIP3   OH218746   5.023   4.819   5.056
 6268TIP3    H118747   4.960   4.877   5.099
 6268TIP3    H218748   4.975   4.784   4.981
 6269TIP3   OH218749   0.646   4.238   5.833
 6269TIP3    H118750   0.607   4.325   5.835
 6269TIP3    H218751   0.586   4.186   5.779
 6270TIP3   OH218752   1.475   4.454   6.098
 6270TIP3    H118753   1.473   4.403   6.017
 6270TIP3    H218754   1.396   4.507   6.095
 6271TIP3   OH218755   5.546   5.644   6.584
 6271TIP3    H118756   5.597   5.620   6.661
 6271TIP3    H218757   5.594   5.607   6.511
 6272TIP3   OH218758   3.674   7.075   5.118
 6272TIP3    H118759   3.698   7.124   5.196
 6272TIP3    H218760   3.646   7.142   5.055
 6273TIP3   OH218761   5.554   0.795   3.806
 6273TIP3    H118762   5.466   0.788   3.844
 6273TIP3    H218763   5.607   0.735   3.858
 6274TIP3   OH218764   6.598   0.756   3.985
 6274TIP3    H118765   6.555   0.797   3.910
 6274TIP3    H218766   6.555   0.672   3.994
 6275TIP3   OH218767   7.253   3.252   1.252
 6275TIP3    H118768   7.191   3.324   1.244
 6275TIP3    H218769   7.308   3.258   1.174
 6276TIP3   OH218770   8.027   4.027   5.854
 6276TIP3    H118771   8.011   4.109   5.807
 6276TIP3    H218772   7.994   4.044   5.942
 6277TIP3   OH218773   7.680   2.926   1.103
 6277TIP3    H118774   7.669   2.855   1.165
 6277TIP3    H218775   7.745   2.893   1.040
 6278TIP3   OH218776   4.966   6.104   5.878
 6278TIP3    H118777   5.050   6.123   5.920
 6278TIP3    H218778   4.924   6.189   5.866
 6279TIP3   OH218779   3.090   3.301   2.946
 6279TIP3    H118780   3.063   3.273   3.033
 6279TIP3    H218781   3.016   3.353   2.913
 6280TIP3   OH218782   4.643   2.628   2.276
 6280TIP3    H118783   4.697   2.587   2.344
 6280TIP3    H218784   4.610   2.708   2.317
 6281TIP3   OH218785   1.977   4.002   5.501
 6281TIP3    H118786   1.891   3.967   5.477
 6281TIP3    H218787   2.027   3.925   5.531
 6282TIP3   OH218788   4.042   5.370   5.474
 6282TIP3    H118789   3.967   5.380   5.533
 6282TIP3    H218790   4.118   5.384   5.531
 6283TIP3   OH218791   8.213   1.078   0.997
 6283TIP3    H118792   8.298   1.121   0.985
 6283TIP3    H218793   8.151   1.149   1.009
 6284TIP3   OH218794   4.666   2.545   1.225
 6284TIP3    H118795   4.717   2.606   1.171
 6284TIP3    H218796   4.672   2.582   1.314
 6285TIP3   OH218797   5.501   3.444   0.459
 6285TIP3    H118798   5.530   3.518   0.405
 6285TIP3    H218799   5.581   3.410   0.499
 6286TIP3   OH218800   4.144   4.238   0.654
 6286TIP3    H118801   4.053   4.207   0.652
 6286TIP3    H218802   4.139   4.331   0.634
 6287TIP3   OH218803   5.318   6.753   2.697
 6287TIP3    H118804   5.348   6.689   2.632
 6287TIP3    H218805   5.238   6.714   2.733
 6288TIP3   OH218806   0.046   5.182   1.099
 6288TIP3    H118807   0.026   5.094   1.131
 6288TIP3    H218808   0.022   5.179   1.006
 6289TIP3   OH218809   2.524   2.748   1.394
 6289TIP3    H118810   2.484   2.676   1.442
 6289TIP3    H218811   2.605   2.711   1.359
 6290TIP3   OH218812   1.474   2.079   5.426
 6290TIP3    H118813   1.397   2.136   5.420
 6290TIP3    H218814   1.526   2.117   5.496
 6291TIP3   OH218815   7.315   6.319   2.155
 6291TIP3    H118816   7.241   6.272   2.195
 6291TIP3    H218817   7.287   6.334   2.065
 6292TIP3   OH218818   3.984   0.660   1.879
 6292TIP3    H118819   4.017   0.703   1.800
 6292TIP3    H218820   4.062   0.627   1.923
 6293TIP3   OH218821   2.279   3.465   1.117
 6293TIP3    H118822   2.334   3.542   1.133
 6293TIP3    H218823   2.248   3.439   1.204
 6294TIP3   OH218824   5.090   1.311   6.584
 6294TIP3    H118825   5.064   1.251   6.653
 6294TIP3    H218826   5.166   1.357   6.619
 6295TIP3   OH218827   7.800   3.987   3.317
 6295TIP3    H118828   7.877   3.930   3.318
 6295TIP3    H218829   7.835   4.074   3.338
 6296TIP3   OH218830   6.656   6.700   3.467
 6296TIP3    H118831   6.631   6.753   3.391
 6296TIP3    H218832   6.709   6.629   3.430
 6297TIP3   OH218833   1.250   5.497   2.818
 6297TIP3    H118834   1.342   5.474   2.805
 6297TIP3    H218835   1.205   5.413   2.820
 6298TIP3   OH218836   2.912   0.865   1.477
 6298TIP3    H118837   2.852   0.859   1.403
 6298TIP3    H218838   2.855   0.870   1.554
 6299TIP3   OH218839   0.637   4.063   5.526
 6299TIP3    H118840   0.603   4.021   5.605
 6299TIP3    H218841   0.587   4.144   5.519
 6300TIP3   OH218842   2.120   6.672   0.754
 6300TIP3    H118843   2.142   6.760   0.722
 6300TIP3    H218844   2.202   6.640   0.792
 6301TIP3   OH218845   1.006   3.380   3.763
 6301TIP3    H118846   1.073   3.447   3.775
 6301TIP3    H218847   1.048   3.299   3.792
 6302TIP3   OH218848   3.723   5.595   1.501
 6302TIP3    H118849   3.784   5.668   1.492
 6302TIP3    H218850   3.643   5.626   1.458
 6303TIP3   OH218851   7.690   3.905   6.179
 6303TIP3    H118852   7.651   3.870   6.099
 6303TIP3    H218853   7.617   3.947   6.225
 6304TIP3   OH218854   1.274   0.544   0.058
 6304TIP3    H118855   1.343   0.485   0.030
 6304TIP3    H218856   1.203   0.487   0.087
 6305TIP3   OH218857   7.061   3.293   0.045
 6305TIP3    H118858   7.072   3.324  -0.045
 6305TIP3    H218859   7.149   3.271   0.074
 6306TIP3   OH218860   7.578   5.278   4.855
 6306TIP3    H118861   7.636   5.204   4.835
 6306TIP3    H218862   7.584   5.333   4.777
 6307TIP3   OH218863   3.659   1.750   2.801
 6307TIP3    H118864   3.742   1.706   2.782
 6307TIP3    H218865   3.619   1.698   2.870
 6308TIP3   OH218866   0.785   2.821   3.088
 6308TIP3    H118867   0.796   2.726   3.093
 6308TIP3    H218868   0.872   2.856   3.110
 6309TIP3   OH218869   4.555   0.961   4.134
 6309TIP3    H118870   4.563   0.891   4.070
 6309TIP3    H218871   4.493   0.928   4.199
 6310TIP3   OH218872   6.125   6.373   5.462
 6310TIP3    H118873   6.032   6.393   5.456
 6310TIP3    H218874   6.140   6.355   5.554
 6311TIP3   OH218875   3.202   5.044   1.896
 6311TIP3    H118876   3.181   5.078   1.809
 6311TIP3    H218877   3.173   4.953   1.893
 6312TIP3   OH218878   5.157   1.083   1.963
 6312TIP3    H118879   5.082   1.143   1.969
 6312TIP3    H218880   5.157   1.053   1.872
 6313TIP3   OH218881   2.382   6.148   5.670
 6313TIP3    H118882   2.362   6.102   5.752
 6313TIP3    H218883   2.446   6.214   5.695
 6314TIP3   OH218884   7.053   4.029   6.735
 6314TIP3    H118885   7.019   4.117   6.752
 6314TIP3    H218886   7.001   3.972   6.791
 6315TIP3   OH218887   6.938   5.168   0.062
 6315TIP3    H118888   6.867   5.198   0.118
 6315TIP3    H218889   6.928   5.219  -0.019
 6316TIP3   OH218890   1.821   1.597   1.313
 6316TIP3    H118891   1.854   1.518   1.356
 6316TIP3    H218892   1.790   1.652   1.386
 6317TIP3   OH218893   4.997   4.419   5.559
 6317TIP3    H118894   5.018   4.476   5.634
 6317TIP3    H218895   5.067   4.355   5.556
 6318TIP3   OH218896   5.248   4.735   1.939
 6318TIP3    H118897   5.302   4.713   2.014
 6318TIP3    H218898   5.233   4.829   1.948
 6319TIP3   OH218899   5.116   7.179   5.192
 6319TIP3    H118900   5.023   7.181   5.168
 6319TIP3    H218901   5.150   7.263   5.162
 6320TIP3   OH218902   6.343   7.203   2.814
 6320TIP3    H118903   6.391   7.131   2.774
 6320TIP3    H218904   6.257   7.202   2.771
 6321TIP3   OH218905   6.618   4.319   3.405
 6321TIP3    H118906   6.565   4.264   3.463
 6321TIP3    H218907   6.571   4.318   3.322
 6322TIP3   OH218908   3.957   2.269   4.123
 6322TIP3    H118909   3.865   2.279   4.097
 6322TIP3    H218910   4.002   2.246   4.042
 6323TIP3   OH218911   5.809   1.566   6.777
 6323TIP3    H118912   5.903   1.570   6.789
 6323TIP3    H218913   5.794   1.490   6.722
 6324TIP3   OH218914   1.017   4.191   2.632
 6324TIP3    H118915   1.066   4.219   2.554
 6324TIP3    H218916   0.931   4.231   2.621
 6325TIP3   OH218917   1.342   6.964   3.583
 6325TIP3    H118918   1.435   6.950   3.602
 6325TIP3    H218919   1.341   7.033   3.518
 6326TIP3   OH218920   2.187   0.078   4.349
 6326TIP3    H118921   2.145   0.093   4.264
 6326TIP3    H218922   2.275   0.047   4.327
 6327TIP3   OH218923   5.939   2.431   2.936
 6327TIP3    H118924   5.971   2.380   2.861
 6327TIP3    H218925   5.945   2.522   2.908
 6328TIP3   OH218926   5.843   1.257   2.335
 6328TIP3    H118927   5.788   1.208   2.274
 6328TIP3    H218928   5.838   1.347   2.305
 6329TIP3   OH218929   4.678   1.394   2.210
 6329TIP3    H118930   4.674   1.410   2.116
 6329TIP3    H218931   4.724   1.470   2.245
 6330TIP3   OH218932   2.200   3.331   5.864
 6330TIP3    H118933   2.154   3.259   5.908
 6330TIP3    H218934   2.194   3.309   5.771
 6331TIP3   OH218935   5.460   3.891   4.519
 6331TIP3    H118936   5.428   3.954   4.583
 6331TIP3    H218937   5.478   3.812   4.571
 6332TIP3   OH218938   1.241   1.139   1.315
 6332TIP3    H118939   1.185   1.176   1.384
 6332TIP3    H218940   1.247   1.046   1.337
 6333TIP3   OH218941   4.987   7.082   2.448
 6333TIP3    H118942   4.944   7.064   2.364
 6333TIP3    H218943   4.915   7.091   2.510
 6334TIP3   OH218944   1.854   2.173   0.074
 6334TIP3    H118945   1.849   2.184  -0.021
 6334TIP3    H218946   1.913   2.099   0.088
 6335TIP3   OH218947   0.448   6.772   0.928
 6335TIP3    H118948   0.416   6.862   0.923
 6335TIP3    H218949   0.432   6.734   0.842
 6336TIP3   OH218950   2.160   3.489   3.343
 6336TIP3    H118951   2.173   3.416   3.282
 6336TIP3    H218952   2.071   3.519   3.326
 6337TIP3   OH218953   7.531   0.661   1.132
 6337TIP3    H118954   7.599   0.601   1.102
 6337TIP3    H218955   7.545   0.667   1.226
 6338TIP3   OH218956   3.849   7.416   3.458
 6338TIP3    H118957   3.908   7.404   3.383
 6338TIP3    H218958   3.762   7.415   3.420
 6339TIP3   OH218959   3.119   7.442   0.203
 6339TIP3    H118960   3.156   7.452   0.291
 6339TIP3    H218961   3.180   7.491   0.147
 6340TIP3   OH218962   7.789   1.651   5.538
 6340TIP3    H118963   7.871   1.673   5.492
 6340TIP3    H218964   7.817   1.625   5.626
 6341TIP3   OH218965   6.436   3.403   5.762
 6341TIP3    H118966   6.413   3.482   5.712
 6341TIP3    H218967   6.484   3.436   5.838
 6342TIP3   OH218968   3.526   5.182   0.976
 6342TIP3    H118969   3.605   5.129   0.979
 6342TIP3    H218970   3.454   5.119   0.979
 6343TIP3   OH218971   5.575   1.403   0.283
 6343TIP3    H118972   5.539   1.477   0.235
 6343TIP3    H218973   5.526   1.401   0.365
 6344TIP3   OH218974   3.454   4.252   4.899
 6344TIP3    H118975   3.379   4.304   4.929
 6344TIP3    H218976   3.455   4.176   4.957
 6345TIP3   OH218977   0.719   1.019   6.159
 6345TIP3    H118978   0.736   1.111   6.141
 6345TIP3    H218979   0.700   0.981   6.073
 6346TIP3   OH218980   8.175   1.742   3.416
 6346TIP3    H118981   8.164   1.648   3.426
 6346TIP3    H218982   8.269   1.755   3.414
 6347TIP3   OH218983   2.621   6.148   2.491
 6347TIP3    H118984   2.601   6.231   2.447
 6347TIP3    H218985   2.715   6.134   2.474
 6348TIP3   OH218986   3.671   4.936   1.261
 6348TIP3    H118987   3.664   4.841   1.253
 6348TIP3    H218988   3.585   4.969   1.237
 6349TIP3   OH218989   4.367   3.670   1.123
 6349TIP3    H118990   4.358   3.722   1.203
 6349TIP3    H218991   4.303   3.707   1.063
 6350TIP3   OH218992   5.072   5.372   5.414
 6350TIP3    H118993   5.047   5.325   5.334
 6350TIP3    H218994   5.168   5.370   5.413
 6351TIP3   OH218995   1.272   5.316   5.898
 6351TIP3    H118996   1.187   5.359   5.906
 6351TIP3    H218997   1.327   5.380   5.853
 6352TIP3   OH218998   7.352   1.114   4.582
 6352TIP3    H118999   7.330   1.124   4.489
 6352TIP3    H219000   7.446   1.098   4.583
 6353TIP3   OH219001   3.569   5.133   0.644
 6353TIP3    H119002   3.496   5.156   0.587
 6353TIP3    H219003   3.569   5.202   0.711
 6354TIP3   OH219004   1.592   5.186   1.084
 6354TIP3    H119005   1.525   5.201   1.017
 6354TIP3    H219006   1.675   5.205   1.041
 6355TIP3   OH219007   1.323   3.616   2.570
 6355TIP3    H119008   1.334   3.708   2.591
 6355TIP3    H219009   1.240   3.611   2.522
 6356TIP3   OH219010   5.831   0.144   0.127
 6356TIP3    H119011   5.886   0.165   0.203
 6356TIP3    H219012   5.873   0.069   0.086
 6357TIP3   OH219013   3.424   3.559   1.825
 6357TIP3    H119014   3.502   3.615   1.828
 6357TIP3    H219015   3.382   3.580   1.742
 6358TIP3   OH219016   4.949   5.429   0.978
 6358TIP3    H119017   4.858   5.409   0.956
 6358TIP3    H219018   4.943   5.501   1.041
 6359TIP3   OH219019   7.078   4.248   1.551
 6359TIP3    H119020   7.033   4.303   1.615
 6359TIP3    H219021   7.155   4.298   1.525
 6360TIP3   OH219022   0.675   1.591   2.512
 6360TIP3    H119023   0.604   1.590   2.576
 6360TIP3    H219024   0.754   1.582   2.564
 6361TIP3   OH219025   6.939   5.169   3.355
 6361TIP3    H119026   6.858   5.131   3.389
 6361TIP3    H219027   6.952   5.248   3.407
 6362TIP3   OH219028   1.617   4.770   2.676
 6362TIP3    H119029   1.600   4.823   2.598
 6362TIP3    H219030   1.531   4.734   2.700
 6363TIP3   OH219031   6.257   4.495   2.730
 6363TIP3    H119032   6.230   4.431   2.665
 6363TIP3    H219033   6.178   4.547   2.748
 6364TIP3   OH219034   6.701   3.974   4.213
 6364TIP3    H119035   6.666   4.050   4.259
 6364TIP3    H219036   6.649   3.968   4.132
 6365TIP3   OH219037   6.134   5.864   1.074
 6365TIP3    H119038   6.185   5.831   1.000
 6365TIP3    H219039   6.126   5.958   1.058
 6366TIP3   OH219040   6.693   6.092   0.870
 6366TIP3    H119041   6.756   6.048   0.813
 6366TIP3    H219042   6.687   6.181   0.836
 6367TIP3   OH219043   4.010   3.665   5.587
 6367TIP3    H119044   4.001   3.680   5.493
 6367TIP3    H219045   3.941   3.602   5.608
 6368TIP3   OH219046   8.222   6.169   0.525
 6368TIP3    H119047   8.153   6.121   0.571
 6368TIP3    H219048   8.298   6.160   0.581
 6369TIP3   OH219049   6.779   7.155   1.067
 6369TIP3    H119050   6.702   7.172   1.013
 6369TIP3    H219051   6.809   7.242   1.093
 6370TIP3   OH219052   5.893   5.139   0.383
 6370TIP3    H119053   5.959   5.130   0.314
 6370TIP3    H219054   5.822   5.081   0.356
 6371TIP3   OH219055   0.429   3.998   6.450
 6371TIP3    H119056   0.475   3.951   6.380
 6371TIP3    H219057   0.340   4.009   6.417
 6372TIP3   OH219058   1.568   0.892   4.189
 6372TIP3    H119059   1.568   0.963   4.253
 6372TIP3    H219060   1.656   0.856   4.194
 6373TIP3   OH219061   6.522   4.671   3.227
 6373TIP3    H119062   6.537   4.766   3.230
 6373TIP3    H219063   6.607   4.634   3.203
 6374TIP3   OH219064   6.702   4.012   6.594
 6374TIP3    H119065   6.748   3.927   6.591
 6374TIP3    H219066   6.617   3.994   6.554
 6375TIP3   OH219067   7.679   2.737   6.360
 6375TIP3    H119068   7.756   2.794   6.354
 6375TIP3    H219069   7.632   2.752   6.279
 6376TIP3   OH219070   0.627   0.102   5.541
 6376TIP3    H119071   0.578   0.026   5.571
 6376TIP3    H219072   0.566   0.175   5.549
 6377TIP3   OH219073   5.790   0.092   5.115
 6377TIP3    H119074   5.715   0.034   5.097
 6377TIP3    H219075   5.841   0.091   5.034
 6378TIP3   OH219076   6.866   1.544   2.091
 6378TIP3    H119077   6.818   1.481   2.036
 6378TIP3    H219078   6.958   1.522   2.077
 6379TIP3   OH219079   0.224   7.662   6.663
 6379TIP3    H119080   0.152   7.682   6.602
 6379TIP3    H219081   0.301   7.701   6.623
 6380TIP3   OH219082   0.471   3.975   5.743
 6380TIP3    H119083   0.444   3.885   5.728
 6380TIP3    H219084   0.407   4.027   5.694
 6381TIP3   OH219085   5.148   4.377   4.342
 6381TIP3    H119086   5.070   4.427   4.320
 6381TIP3    H219087   5.217   4.443   4.354
 6382TIP3   OH219088   1.825   5.259   5.765
 6382TIP3    H119089   1.749   5.316   5.758
 6382TIP3    H219090   1.900   5.319   5.759
 6383TIP3   OH219091   5.979   3.494   2.018
 6383TIP3    H119092   5.921   3.417   2.011
 6383TIP3    H219093   5.922   3.563   2.052
 6384TIP3   OH219094   1.396   6.895   0.338
 6384TIP3    H119095   1.391   6.987   0.364
 6384TIP3    H219096   1.311   6.858   0.361
 6385TIP3   OH219097   0.688   4.167   5.203
 6385TIP3    H119098   0.667   4.081   5.165
 6385TIP3    H219099   0.776   4.156   5.239
 6386TIP3   OH219100   7.508   1.963   3.629
 6386TIP3    H119101   7.603   1.951   3.631
 6386TIP3    H219102   7.476   1.891   3.574
 6387TIP3   OH219103   0.270   2.399   1.803
 6387TIP3    H119104   0.306   2.313   1.779
 6387TIP3    H219105   0.310   2.460   1.742
 6388TIP3   OH219106   5.274   7.535   6.216
 6388TIP3    H119107   5.331   7.574   6.149
 6388TIP3    H219108   5.321   7.457   6.245
 6389TIP3   OH219109   1.234   6.101   5.324
 6389TIP3    H119110   1.161   6.040   5.312
 6389TIP3    H219111   1.304   6.065   5.269
 6390TIP3   OH219112   0.080   5.200   0.729
 6390TIP3    H119113  -0.002   5.186   0.777
 6390TIP3    H219114   0.132   5.256   0.786
 6391TIP3   OH219115   7.529   0.337   0.645
 6391TIP3    H119116   7.458   0.363   0.704
 6391TIP3    H219117   7.608   0.372   0.687
 6392TIP3   OH219118   7.681   1.690   6.325
 6392TIP3    H119119   7.638   1.775   6.334
 6392TIP3    H219120   7.720   1.692   6.237
 6393TIP3   OH219121   0.685   2.516   5.870
 6393TIP3    H119122   0.657   2.564   5.793
 6393TIP3    H219123   0.735   2.442   5.836
 6394TIP3   OH219124   6.558   3.109   2.568
 6394TIP3    H119125   6.466   3.123   2.547
 6394TIP3    H219126   6.605   3.172   2.514
 6395TIP3   OH219127   3.484   7.069   0.421
 6395TIP3    H119128   3.520   6.982   0.404
 6395TIP3    H219129   3.450   7.097   0.336
 6396TIP3   OH219130   8.093   4.752   2.838
 6396TIP3    H119131   8.020   4.702   2.802
 6396TIP3    H219132   8.054   4.832   2.872
 6397TIP3   OH219133   1.573   2.350   0.536
 6397TIP3    H119134   1.531   2.422   0.583
 6397TIP3    H219135   1.502   2.311   0.484
 6398TIP3   OH219136   2.504   2.560   3.120
 6398TIP3    H119137   2.464   2.582   3.036
 6398TIP3    H219138   2.462   2.478   3.146
 6399TIP3   OH219139   7.159   0.282   1.887
 6399TIP3    H119140   7.209   0.333   1.951
 6399TIP3    H219141   7.135   0.202   1.934
 6400TIP3   OH219142   5.620   4.884   3.540
 6400TIP3    H119143   5.680   4.952   3.508
 6400TIP3    H219144   5.655   4.802   3.503
 6401TIP3   OH219145   6.432   4.822   6.349
 6401TIP3    H119146   6.445   4.789   6.260
 6401TIP3    H219147   6.356   4.773   6.382
 6402TIP3   OH219148   5.064   2.819   5.568
 6402TIP3    H119149   5.120   2.745   5.590
 6402TIP3    H219150   4.976   2.782   5.562
 6403TIP3   OH219151   1.127   5.154   3.443
 6403TIP3    H119152   1.216   5.183   3.465
 6403TIP3    H219153   1.075   5.233   3.443
 6404TIP3   OH219154   4.183   7.187   3.957
 6404TIP3    H119155   4.222   7.186   3.870
 6404TIP3    H219156   4.121   7.260   3.954
 6405TIP3   OH219157   2.817   3.271   2.587
 6405TIP3    H119158   2.722   3.261   2.589
 6405TIP3    H219159   2.850   3.184   2.561
 6406TIP3   OH219160   3.074   6.770   5.842
 6406TIP3    H119161   3.031   6.734   5.764
 6406TIP3    H219162   3.147   6.822   5.807
 6407TIP3   OH219163   5.041   7.833   3.120
 6407TIP3    H119164   5.054   7.829   3.026
 6407TIP3    H219165   5.093   7.761   3.155
 6408TIP3   OH219166   2.012   4.610   1.519
 6408TIP3    H119167   2.054   4.558   1.587
 6408TIP3    H219168   2.083   4.659   1.479
 6409TIP3   OH219169   6.123   5.893   4.504
 6409TIP3    H119170   6.193   5.861   4.447
 6409TIP3    H219171   6.113   5.985   4.480
 6410TIP3   OH219172   4.018   0.450   1.366
 6410TIP3    H119173   4.003   0.467   1.459
 6410TIP3    H219174   3.963   0.374   1.346
 6411TIP3   OH219175   5.276   1.487   1.985
 6411TIP3    H119176   5.362   1.477   2.027
 6411TIP3    H219177   5.291   1.461   1.894
 6412TIP3   OH219178   1.561   1.231   0.844
 6412TIP3    H119179   1.648   1.268   0.863
 6412TIP3    H219180   1.530   1.199   0.928
 6413TIP3   OH219181   6.023   4.411   5.820
 6413TIP3    H119182   6.118   4.412   5.832
 6413TIP3    H219183   5.988   4.410   5.909
 6414TIP3   OH219184   6.018   0.441   1.345
 6414TIP3    H119185   6.070   0.472   1.419
 6414TIP3    H219186   5.977   0.360   1.375
 6415TIP3   OH219187   8.017   3.573   3.492
 6415TIP3    H119188   7.957   3.645   3.508
 6415TIP3    H219189   8.001   3.511   3.564
 6416TIP3   OH219190   4.410   1.642   3.171
 6416TIP3    H119191   4.340   1.634   3.107
 6416TIP3    H219192   4.490   1.637   3.120
 6417TIP3   OH219193   7.421   6.944   2.812
 6417TIP3    H119194   7.510   6.947   2.776
 6417TIP3    H219195   7.430   6.983   2.899
 6418TIP3   OH219196   2.124   3.013   4.859
 6418TIP3    H119197   2.177   3.080   4.815
 6418TIP3    H219198   2.138   2.933   4.809
 6419TIP3   OH219199   3.829   1.043   1.297
 6419TIP3    H119200   3.913   1.068   1.260
 6419TIP3    H219201   3.849   0.968   1.353
 6420TIP3   OH219202   6.131   0.504   2.601
 6420TIP3    H119203   6.108   0.489   2.510
 6420TIP3    H219204   6.175   0.424   2.629
 6421TIP3   OH219205   2.754   6.420   6.203
 6421TIP3    H119206   2.726   6.486   6.266
 6421TIP3    H219207   2.826   6.374   6.247
 6422TIP3   OH219208   6.295   3.613   4.678
 6422TIP3    H119209   6.288   3.606   4.583
 6422TIP3    H219210   6.288   3.523   4.709
 6423TIP3   OH219211   5.027   7.109   1.817
 6423TIP3    H119212   4.934   7.135   1.816
 6423TIP3    H219213   5.042   7.070   1.731
 6424TIP3   OH219214   5.243   0.508   3.818
 6424TIP3    H119215   5.161   0.553   3.836
 6424TIP3    H219216   5.273   0.544   3.735
 6425TIP3   OH219217   2.421   5.709   1.450
 6425TIP3    H119218   2.386   5.629   1.410
 6425TIP3    H219219   2.454   5.761   1.377
 6426TIP3   OH219220   5.508   6.852   1.080
 6426TIP3    H119221   5.565   6.885   1.150
 6426TIP3    H219222   5.492   6.928   1.024
 6427TIP3   OH219223   3.764   3.096   2.528
 6427TIP3    H119224   3.742   3.157   2.599
 6427TIP3    H219225   3.679   3.073   2.490
 6428TIP3   OH219226   2.050   2.130   6.577
 6428TIP3    H119227   2.012   2.176   6.503
 6428TIP3    H219228   2.060   2.039   6.546
 6429TIP3   OH219229   7.391   6.462   3.781
 6429TIP3    H119230   7.311   6.421   3.815
 6429TIP3    H219231   7.421   6.518   3.853
 6430TIP3   OH219232   6.670   2.879   4.011
 6430TIP3    H119233   6.761   2.874   4.040
 6430TIP3    H219234   6.666   2.958   3.958
 6431TIP3   OH219235   0.751   1.732   3.357
 6431TIP3    H119236   0.812   1.695   3.293
 6431TIP3    H219237   0.685   1.777   3.304
 6432TIP3   OH219238   2.147   6.759   3.907
 6432TIP3    H119239   2.165   6.853   3.907
 6432TIP3    H219240   2.213   6.722   3.966
 6433TIP3   OH219241   4.823   6.119   2.956
 6433TIP3    H119242   4.888   6.050   2.943
 6433TIP3    H219243   4.771   6.089   3.030
 6434TIP3   OH219244   1.381   7.194   3.450
 6434TIP3    H119245   1.421   7.267   3.498
 6434TIP3    H219246   1.292   7.224   3.433
 6435TIP3   OH219247   3.551   0.806   4.554
 6435TIP3    H119248   3.464   0.815   4.515
 6435TIP3    H219249   3.610   0.846   4.491
 6436TIP3   OH219250   3.968   2.511   5.017
 6436TIP3    H119251   3.917   2.465   4.951
 6436TIP3    H219252   4.056   2.516   4.980
 6437TIP3   OH219253   7.276   6.357   3.170
 6437TIP3    H119254   7.328   6.302   3.112
 6437TIP3    H219255   7.222   6.296   3.220
 6438TIP3   OH219256   4.837   2.797   1.596
 6438TIP3    H119257   4.747   2.783   1.626
 6438TIP3    H219258   4.891   2.747   1.658
 6439TIP3   OH219259   7.201   1.209   1.564
 6439TIP3    H119260   7.128   1.183   1.619
 6439TIP3    H219261   7.240   1.126   1.536
 6440TIP3   OH219262   3.882   7.812   4.373
 6440TIP3    H119263   3.838   7.816   4.458
 6440TIP3    H219264   3.964   7.766   4.391
 6441TIP3   OH219265   7.776   6.223   1.911
 6441TIP3    H119266   7.685   6.239   1.936
 6441TIP3    H219267   7.791   6.281   1.836
 6442TIP3   OH219268   7.503   1.087   3.562
 6442TIP3    H119269   7.453   1.113   3.639
 6442TIP3    H219270   7.481   1.152   3.495
 6443TIP3   OH219271   6.700   6.920   1.425
 6443TIP3    H119272   6.709   6.899   1.332
 6443TIP3    H219273   6.769   6.868   1.467
 6444TIP3   OH219274   2.594   6.978   4.129
 6444TIP3    H119275   2.681   6.968   4.168
 6444TIP3    H219276   2.607   7.044   4.060
 6445TIP3   OH219277   6.946   7.707   6.613
 6445TIP3    H119278   6.904   7.728   6.530
 6445TIP3    H219279   6.874   7.696   6.675
 6446TIP3   OH219280   6.914   4.769   3.428
 6446TIP3    H119281   6.855   4.792   3.499
 6446TIP3    H219282   6.888   4.825   3.355
 6447TIP3   OH219283   6.652   1.724   2.454
 6447TIP3    H119284   6.608   1.808   2.466
 6447TIP3    H219285   6.669   1.693   2.543
 6448TIP3   OH219286   3.427   2.481   0.547
 6448TIP3    H119287   3.497   2.547   0.551
 6448TIP3    H219288   3.473   2.399   0.528
 6449TIP3   OH219289   7.621   1.305   0.401
 6449TIP3    H119290   7.570   1.383   0.377
 6449TIP3    H219291   7.585   1.235   0.346
 6450TIP3   OH219292   5.240   1.555   6.336
 6450TIP3    H119293   5.314   1.503   6.306
 6450TIP3    H219294   5.279   1.620   6.395
 6451TIP3   OH219295   6.287   6.059   5.055
 6451TIP3    H119296   6.282   6.038   4.961
 6451TIP3    H219297   6.333   5.984   5.093
 6452TIP3   OH219298   4.286   5.752   4.347
 6452TIP3    H119299   4.200   5.719   4.371
 6452TIP3    H219300   4.284   5.844   4.375
 6453TIP3   OH219301   2.542   1.838   3.856
 6453TIP3    H119302   2.448   1.852   3.860
 6453TIP3    H219303   2.554   1.747   3.881
 6454TIP3   OH219304   2.898   6.268   4.196
 6454TIP3    H119305   2.944   6.321   4.261
 6454TIP3    H219306   2.805   6.288   4.210
 6455TIP3   OH219307   6.099   2.122   3.624
 6455TIP3    H119308   6.114   2.092   3.535
 6455TIP3    H219309   6.172   2.181   3.643
 6456TIP3   OH219310   8.242   2.563   2.357
 6456TIP3    H119311   8.189   2.492   2.321
 6456TIP3    H219312   8.320   2.518   2.391
 6457TIP3   OH219313   0.105   1.599   1.235
 6457TIP3    H119314   0.027   1.593   1.179
 6457TIP3    H219315   0.165   1.534   1.199
 6458TIP3   OH219316   5.732   3.126   6.425
 6458TIP3    H119317   5.665   3.187   6.455
 6458TIP3    H219318   5.711   3.111   6.333
 6459TIP3   OH219319   2.491   7.533   5.704
 6459TIP3    H119320   2.418   7.501   5.757
 6459TIP3    H219321   2.524   7.455   5.659
 6460TIP3   OH219322   1.073   3.237   0.673
 6460TIP3    H119323   1.134   3.310   0.669
 6460TIP3    H219324   1.097   3.190   0.753
 6461TIP3   OH219325   5.904   3.681   2.192
 6461TIP3    H119326   5.935   3.751   2.249
 6461TIP3    H219327   5.891   3.606   2.250
 6462TIP3   OH219328   3.081   4.004   2.172
 6462TIP3    H119329   3.152   4.056   2.210
 6462TIP3    H219330   3.115   3.915   2.167
 6463TIP3   OH219331   5.024   2.158   0.730
 6463TIP3    H119332   5.092   2.128   0.791
 6463TIP3    H219333   5.011   2.250   0.753
 6464TIP3   OH219334   5.035   1.798   2.311
 6464TIP3    H119335   4.983   1.719   2.329
 6464TIP3    H219336   5.029   1.810   2.216
 6465TIP3   OH219337   2.342   7.002   3.809
 6465TIP3    H119338   2.378   7.061   3.743
 6465TIP3    H219339   2.330   6.919   3.762
 6466TIP3   OH219340   0.581   2.674   5.275
 6466TIP3    H119341   0.649   2.663   5.342
 6466TIP3    H219342   0.616   2.628   5.199
 6467TIP3   OH219343   5.539   7.126   1.862
 6467TIP3    H119344   5.569   7.137   1.953
 6467TIP3    H219345   5.617   7.143   1.809
 6468TIP3   OH219346   7.160   4.674   6.581
 6468TIP3    H119347   7.088   4.720   6.625
 6468TIP3    H219348   7.117   4.604   6.532
 6469TIP3   OH219349   3.752   6.428   0.701
 6469TIP3    H119350   3.755   6.348   0.754
 6469TIP3    H219351   3.669   6.423   0.655
 6470TIP3   OH219352   7.104   5.346   3.206
 6470TIP3    H119353   7.084   5.428   3.251
 6470TIP3    H219354   7.037   5.284   3.236
 6471TIP3   OH219355   6.744   4.136   3.055
 6471TIP3    H119356   6.820   4.193   3.045
 6471TIP3    H219357   6.679   4.190   3.100
 6472TIP3   OH219358   7.667   1.293   2.858
 6472TIP3    H119359   7.740   1.303   2.797
 6472TIP3    H219360   7.698   1.334   2.939
 6473TIP3   OH219361   4.337   0.634   2.770
 6473TIP3    H119362   4.279   0.575   2.723
 6473TIP3    H219363   4.368   0.583   2.845
 6474TIP3   OH219364   4.780   5.599   0.670
 6474TIP3    H119365   4.873   5.623   0.670
 6474TIP3    H219366   4.749   5.622   0.757
 6475TIP3   OH219367   2.240   4.425   2.798
 6475TIP3    H119368   2.318   4.382   2.832
 6475TIP3    H219369   2.243   4.513   2.835
 6476TIP3   OH219370   7.915   7.472   3.953
 6476TIP3    H119371   7.916   7.378   3.967
 6476TIP3    H219372   7.861   7.484   3.874
 6477TIP3   OH219373   7.370   1.337   6.505
 6477TIP3    H119374   7.424   1.261   6.480
 6477TIP3    H219375   7.385   1.400   6.435
 6478TIP3   OH219376   0.981   1.568   3.796
 6478TIP3    H119377   0.910   1.598   3.740
 6478TIP3    H219378   1.057   1.621   3.771
 6479TIP3   OH219379   6.828   7.146   4.704
 6479TIP3    H119380   6.908   7.132   4.754
 6479TIP3    H219381   6.827   7.239   4.684
 6480TIP3   OH219382   1.795   2.149   2.486
 6480TIP3    H119383   1.768   2.135   2.395
 6480TIP3    H219384   1.745   2.226   2.514
 6481TIP3   OH219385   2.307   1.209   5.202
 6481TIP3    H119386   2.274   1.119   5.196
 6481TIP3    H219387   2.294   1.245   5.114
 6482TIP3   OH219388   2.208   3.366   4.572
 6482TIP3    H119389   2.198   3.434   4.639
 6482TIP3    H219390   2.246   3.292   4.618
 6483TIP3   OH219391   2.297   3.876   6.100
 6483TIP3    H119392   2.207   3.845   6.095
 6483TIP3    H219393   2.297   3.959   6.054
 6484TIP3   OH219394   3.665   7.667   5.787
 6484TIP3    H119395   3.630   7.630   5.868
 6484TIP3    H219396   3.719   7.597   5.750
 6485TIP3   OH219397   2.407   7.192   4.690
 6485TIP3    H119398   2.465   7.169   4.762
 6485TIP3    H219399   2.365   7.274   4.718
 6486TIP3   OH219400   0.841   3.238   4.119
 6486TIP3    H119401   0.891   3.303   4.168
 6486TIP3    H219402   0.895   3.219   4.041
 6487TIP3   OH219403   7.733   6.635   0.454
 6487TIP3    H119404   7.804   6.662   0.512
 6487TIP3    H219405   7.737   6.540   0.453
 6488TIP3   OH219406   3.682   4.875   6.686
 6488TIP3    H119407   3.625   4.817   6.636
 6488TIP3    H219408   3.633   4.894   6.766
 6489TIP3   OH219409   7.228   0.525   6.109
 6489TIP3    H119410   7.137   0.499   6.120
 6489TIP3    H219411   7.279   0.448   6.136
 6490TIP3   OH219412   3.017   2.349   4.281
 6490TIP3    H119413   3.072   2.275   4.307
 6490TIP3    H219414   3.080   2.417   4.255
 6491TIP3   OH219415   4.320   5.991   0.845
 6491TIP3    H119416   4.238   6.026   0.880
 6491TIP3    H219417   4.294   5.911   0.799
 6492TIP3   OH219418   7.625   5.420   4.008
 6492TIP3    H119419   7.680   5.461   3.941
 6492TIP3    H219420   7.668   5.442   4.091
 6493TIP3   OH219421   6.669   6.136   3.345
 6493TIP3    H119422   6.642   6.151   3.435
 6493TIP3    H219423   6.591   6.099   3.302
 6494TIP3   OH219424   1.701   3.905   5.461
 6494TIP3    H119425   1.680   3.829   5.516
 6494TIP3    H219426   1.618   3.953   5.454
 6495TIP3   OH219427   1.141   6.710   2.782
 6495TIP3    H119428   1.146   6.795   2.737
 6495TIP3    H219429   1.232   6.691   2.804
 6496TIP3   OH219430   5.164   4.063   2.978
 6496TIP3    H119431   5.090   4.002   2.977
 6496TIP3    H219432   5.155   4.111   3.060
 6497TIP3   OH219433   0.180   1.812   5.721
 6497TIP3    H119434   0.203   1.849   5.806
 6497TIP3    H219435   0.179   1.718   5.735
 6498TIP3   OH219436   2.631   5.070   5.878
 6498TIP3    H119437   2.695   5.090   5.948
 6498TIP3    H219438   2.633   4.975   5.870
 6499TIP3   OH219439   7.553   0.746   0.122
 6499TIP3    H119440   7.520   0.836   0.127
 6499TIP3    H219441   7.536   0.720   0.031
 6500TIP3   OH219442   5.601   5.774   5.750
 6500TIP3    H119443   5.689   5.805   5.728
 6500TIP3    H219444   5.615   5.689   5.791
 6501TIP3   OH219445   3.680   0.397   4.054
 6501TIP3    H119446   3.661   0.380   4.146
 6501TIP3    H219447   3.610   0.352   4.007
 6502TIP3   OH219448   0.969   1.333   4.913
 6502TIP3    H119449   0.912   1.375   4.848
 6502TIP3    H219450   1.058   1.355   4.885
 6503TIP3   OH219451   0.379   2.500   4.305
 6503TIP3    H119452   0.452   2.493   4.244
 6503TIP3    H219453   0.330   2.577   4.277
 6504TIP3   OH219454   5.461   4.326   5.104
 6504TIP3    H119455   5.441   4.348   5.013
 6504TIP3    H219456   5.447   4.408   5.152
 6505TIP3   OH219457   5.785   3.953   4.124
 6505TIP3    H119458   5.742   3.898   4.059
 6505TIP3    H219459   5.754   3.918   4.208
 6506TIP3   OH219460   3.120   4.936   1.258
 6506TIP3    H119461   3.122   4.876   1.333
 6506TIP3    H219462   3.078   5.015   1.293
 6507TIP3   OH219463   8.002   1.106   2.027
 6507TIP3    H119464   8.058   1.099   2.104
 6507TIP3    H219465   7.918   1.138   2.062
 6508TIP3   OH219466   7.354   5.559   4.491
 6508TIP3    H119467   7.288   5.539   4.425
 6508TIP3    H219468   7.420   5.610   4.444
 6509TIP3   OH219469   3.399   7.690   1.557
 6509TIP3    H119470   3.320   7.680   1.611
 6509TIP3    H219471   3.439   7.604   1.557
 6510TIP3   OH219472   2.807   7.309   4.748
 6510TIP3    H119473   2.852   7.292   4.665
 6510TIP3    H219474   2.740   7.374   4.726
 6511TIP3   OH219475   0.433   5.954   4.976
 6511TIP3    H119476   0.524   5.959   4.947
 6511TIP3    H219477   0.413   6.041   5.008
 6512TIP3   OH219478   6.949   1.413   5.917
 6512TIP3    H119479   6.889   1.478   5.878
 6512TIP3    H219480   7.023   1.465   5.948
 6513TIP3   OH219481   6.546   5.527   1.657
 6513TIP3    H119482   6.451   5.520   1.669
 6513TIP3    H219483   6.582   5.514   1.745
 6514TIP3   OH219484   5.127   4.433   3.011
 6514TIP3    H119485   5.041   4.394   3.027
 6514TIP3    H219486   5.136   4.432   2.916
 6515TIP3   OH219487   3.733   0.004   0.778
 6515TIP3    H119488   3.676   0.080   0.791
 6515TIP3    H219489   3.751   0.003   0.684
 6516TIP3   OH219490   6.093   6.196   1.179
 6516TIP3    H119491   6.109   6.287   1.202
 6516TIP3    H219492   6.120   6.189   1.087
 6517TIP3   OH219493   2.871   3.342   2.017
 6517TIP3    H119494   2.951   3.330   2.068
 6517TIP3    H219495   2.828   3.257   2.018
 6518TIP3   OH219496   2.395   5.398   4.370
 6518TIP3    H119497   2.369   5.336   4.302
 6518TIP3    H219498   2.489   5.383   4.381
 6519TIP3   OH219499   6.359   5.891   4.343
 6519TIP3    H119500   6.396   5.823   4.287
 6519TIP3    H219501   6.432   5.917   4.400
 6520TIP3   OH219502   7.008   4.530   2.722
 6520TIP3    H119503   7.061   4.503   2.647
 6520TIP3    H219504   7.069   4.530   2.796
 6521TIP3   OH219505   3.324   0.123   4.771
 6521TIP3    H119506   3.233   0.121   4.743
 6521TIP3    H219507   3.373   0.088   4.697
 6522TIP3   OH219508   0.141   7.136   3.589
 6522TIP3    H119509   0.137   7.045   3.563
 6522TIP3    H219510   0.186   7.181   3.517
 6523TIP3   OH219511   4.107   4.472   5.313
 6523TIP3    H119512   4.125   4.451   5.221
 6523TIP3    H219513   4.190   4.459   5.358
 6524TIP3   OH219514   1.078   0.389   0.131
 6524TIP3    H119515   1.025   0.353   0.060
 6524TIP3    H219516   1.049   0.342   0.209
 6525TIP3   OH219517   7.766   5.263   3.419
 6525TIP3    H119518   7.716   5.285   3.341
 6525TIP3    H219519   7.842   5.321   3.416
 6526TIP3   OH219520   1.815   2.669   6.092
 6526TIP3    H119521   1.728   2.645   6.061
 6526TIP3    H219522   1.810   2.764   6.107
 6527TIP3   OH219523   0.730   1.066   4.548
 6527TIP3    H119524   0.711   1.159   4.531
 6527TIP3    H219525   0.710   1.055   4.641
 6528TIP3   OH219526   4.207   1.341   2.288
 6528TIP3    H119527   4.147   1.284   2.240
 6528TIP3    H219528   4.199   1.426   2.244
 6529TIP3   OH219529   7.542   4.090   3.112
 6529TIP3    H119530   7.580   4.078   3.025
 6529TIP3    H219531   7.485   4.015   3.123
 6530TIP3   OH219532   6.484   1.351   2.588
 6530TIP3    H119533   6.388   1.344   2.597
 6530TIP3    H219534   6.509   1.416   2.654
 6531TIP3   OH219535   5.801   7.645   1.128
 6531TIP3    H119536   5.869   7.596   1.175
 6531TIP3    H219537   5.828   7.641   1.036
 6532TIP3   OH219538   4.981   0.379   4.659
 6532TIP3    H119539   4.936   0.449   4.613
 6532TIP3    H219540   4.993   0.310   4.593
 6533TIP3   OH219541   0.691   1.145   3.019
 6533TIP3    H119542   0.723   1.232   2.994
 6533TIP3    H219543   0.693   1.146   3.115
 6534TIP3   OH219544   7.812   4.206   5.427
 6534TIP3    H119545   7.723   4.239   5.437
 6534TIP3    H219546   7.839   4.235   5.340
 6535TIP3   OH219547   1.812   4.504   0.090
 6535TIP3    H119548   1.884   4.454   0.128
 6535TIP3    H219549   1.745   4.505   0.159
 6536TIP3   OH219550   0.092   1.842   5.158
 6536TIP3    H119551   0.011   1.826   5.109
 6536TIP3    H219552   0.153   1.776   5.125
 6537TIP3   OH219553   8.215   7.784   4.319
 6537TIP3    H119554   8.246   7.825   4.400
 6537TIP3    H219555   8.122   7.768   4.334
 6538TIP3   OH219556   0.644   1.843   4.523
 6538TIP3    H119557   0.697   1.828   4.444
 6538TIP3    H219558   0.573   1.779   4.516
 6539TIP3   OH219559   7.144   3.028   0.183
 6539TIP3    H119560   7.238   3.016   0.169
 6539TIP3    H219561   7.138   3.093   0.254
 6540TIP3   OH219562   6.367   0.277   3.498
 6540TIP3    H119563   6.318   0.234   3.427
 6540TIP3    H219564   6.458   0.250   3.484
 6541TIP3   OH219565   7.370   4.459   2.301
 6541TIP3    H119566   7.446   4.401   2.305
 6541TIP3    H219567   7.328   4.449   2.386
 6542TIP3   OH219568   7.724   7.750   5.386
 6542TIP3    H119569   7.731   7.663   5.347
 6542TIP3    H219570   7.757   7.809   5.318
 6543TIP3   OH219571   7.176   4.260   3.899
 6543TIP3    H119572   7.220   4.309   3.969
 6543TIP3    H219573   7.145   4.180   3.941
 6544TIP3   OH219574   8.020   6.992   6.045
 6544TIP3    H119575   8.097   6.937   6.031
 6544TIP3    H219576   8.018   7.050   5.968
 6545TIP3   OH219577   0.819   5.008   2.844
 6545TIP3    H119578   0.737   4.987   2.799
 6545TIP3    H219579   0.805   5.095   2.880
 6546TIP3   OH219580   1.701   3.176   4.859
 6546TIP3    H119581   1.654   3.129   4.791
 6546TIP3    H219582   1.638   3.184   4.931
 6547TIP3   OH219583   1.967   3.210   1.071
 6547TIP3    H119584   2.060   3.200   1.051
 6547TIP3    H219585   1.938   3.282   1.015
 6548TIP3   OH219586   0.834   2.190   4.790
 6548TIP3    H119587   0.805   2.132   4.720
 6548TIP3    H219588   0.758   2.244   4.810
 6549TIP3   OH219589   7.922   7.760   5.849
 6549TIP3    H119590   7.948   7.670   5.872
 6549TIP3    H219591   7.911   7.759   5.754
 6550TIP3   OH219592   3.355   1.390   1.927
 6550TIP3    H119593   3.367   1.440   1.846
 6550TIP3    H219594   3.277   1.428   1.968
 6551TIP3   OH219595   0.281   1.899   5.472
 6551TIP3    H119596   0.360   1.847   5.459
 6551TIP3    H219597   0.249   1.873   5.559
 6552TIP3   OH219598   2.148   5.978   6.233
 6552TIP3    H119599   2.098   6.033   6.293
 6552TIP3    H219600   2.240   5.992   6.259
 6553TIP3   OH219601   2.535   3.593   3.172
 6553TIP3    H119602   2.557   3.502   3.192
 6553TIP3    H219603   2.504   3.591   3.081
 6554TIP3   OH219604   1.251   0.324   6.540
 6554TIP3    H119605   1.236   0.295   6.630
 6554TIP3    H219606   1.342   0.352   6.539
 6555TIP3   OH219607   4.826   5.927   3.871
 6555TIP3    H119608   4.880   5.848   3.881
 6555TIP3    H219609   4.868   5.976   3.801
 6556TIP3   OH219610   3.798   6.257   4.974
 6556TIP3    H119611   3.757   6.232   5.057
 6556TIP3    H219612   3.771   6.189   4.912
 6557TIP3   OH219613   3.173   4.461   2.249
 6557TIP3    H119614   3.087   4.447   2.289
 6557TIP3    H219615   3.154   4.506   2.166
 6558TIP3   OH219616   8.260   3.651   3.649
 6558TIP3    H119617   8.171   3.626   3.623
 6558TIP3    H219618   8.301   3.568   3.674
 6559TIP3   OH219619   1.338   1.764   3.252
 6559TIP3    H119620   1.263   1.738   3.305
 6559TIP3    H219621   1.330   1.711   3.173
 6560TIP3   OH219622   0.518   1.401   5.379
 6560TIP3    H119623   0.478   1.323   5.416
 6560TIP3    H219624   0.591   1.368   5.327
 6561TIP3   OH219625   3.339   6.311   2.902
 6561TIP3    H119626   3.298   6.225   2.888
 6561TIP3    H219627   3.384   6.302   2.986
 6562TIP3   OH219628   3.485   6.231   3.124
 6562TIP3    H119629   3.578   6.237   3.143
 6562TIP3    H219630   3.459   6.145   3.156
 6563TIP3   OH219631   6.347   4.197   1.893
 6563TIP3    H119632   6.255   4.171   1.897
 6563TIP3    H219633   6.395   4.120   1.925
 6564TIP3   OH219634   7.244   0.626   0.415
 6564TIP3    H119635   7.180   0.590   0.477
 6564TIP3    H219636   7.196   0.693   0.367
 6565TIP3   OH219637   6.750   1.115   3.113
 6565TIP3    H119638   6.756   1.053   3.039
 6565TIP3    H219639   6.808   1.078   3.180
 6566TIP3   OH219640   1.549   4.559   1.473
 6566TIP3    H119641   1.639   4.562   1.442
 6566TIP3    H219642   1.498   4.596   1.401
 6567TIP3   OH219643   7.533   6.005   0.235
 6567TIP3    H119644   7.498   5.969   0.153
 6567TIP3    H219645   7.501   6.096   0.236
 6568TIP3   OH219646   4.289   0.235   2.982
 6568TIP3    H119647   4.266   0.188   2.902
 6568TIP3    H219648   4.205   0.262   3.019
 6569TIP3   OH219649   2.368   5.132   3.843
 6569TIP3    H119650   2.462   5.151   3.843
 6569TIP3    H219651   2.327   5.214   3.815
 6570TIP3   OH219652   7.768   7.767   4.054
 6570TIP3    H119653   7.704   7.706   4.091
 6570TIP3    H219654   7.715   7.836   4.013
 6571TIP3   OH219655   4.984   3.293   6.225
 6571TIP3    H119656   4.917   3.313   6.160
 6571TIP3    H219657   4.950   3.216   6.272
 6572TIP3   OH219658   7.089   1.919   4.116
 6572TIP3    H119659   7.162   1.892   4.172
 6572TIP3    H219660   7.095   1.860   4.040
 6573TIP3   OH219661   1.456   2.649   6.659
 6573TIP3    H119662   1.448   2.727   6.604
 6573TIP3    H219663   1.458   2.684   6.749
 6574TIP3   OH219664   7.380   0.766   2.715
 6574TIP3    H119665   7.428   0.833   2.666
 6574TIP3    H219666   7.309   0.814   2.757
 6575TIP3   OH219667   4.224   2.540   1.737
 6575TIP3    H119668   4.267   2.620   1.708
 6575TIP3    H219669   4.254   2.473   1.675
 6576TIP3   OH219670   5.988   6.457   0.796
 6576TIP3    H119671   6.077   6.462   0.832
 6576TIP3    H219672   5.934   6.503   0.860
 6577TIP3   OH219673   0.547   0.545   3.073
 6577TIP3    H119674   0.619   0.593   3.114
 6577TIP3    H219675   0.578   0.455   3.069
 6578TIP3   OH219676   5.036   0.957   2.756
 6578TIP3    H119677   5.102   0.905   2.710
 6578TIP3    H219678   4.952   0.925   2.723
 6579TIP3   OH219679   2.308   6.293   2.903
 6579TIP3    H119680   2.311   6.386   2.926
 6579TIP3    H219681   2.330   6.291   2.810
 6580TIP3   OH219682   3.633   6.528   6.161
 6580TIP3    H119683   3.635   6.532   6.065
 6580TIP3    H219684   3.619   6.619   6.188
 6581TIP3   OH219685   5.977   5.684   4.612
 6581TIP3    H119686   6.012   5.763   4.571
 6581TIP3    H219687   6.053   5.626   4.620
 6582TIP3   OH219688   0.491   3.972   1.065
 6582TIP3    H119689   0.529   4.043   1.117
 6582TIP3    H219690   0.452   3.914   1.130
 6583TIP3   OH219691   4.883   5.914   1.020
 6583TIP3    H119692   4.979   5.913   1.019
 6583TIP3    H219693   4.860   5.949   1.106
 6584TIP3   OH219694   6.611   3.378   6.591
 6584TIP3    H119695   6.527   3.400   6.551
 6584TIP3    H219696   6.607   3.419   6.678
 6585TIP3   OH219697   2.306   3.133   4.681
 6585TIP3    H119698   2.398   3.108   4.679
 6585TIP3    H219699   2.267   3.087   4.607
 6586TIP3   OH219700   7.991   6.919   1.559
 6586TIP3    H119701   8.068   6.937   1.506
 6586TIP3    H219702   8.001   6.973   1.637
 6587TIP3   OH219703   1.993   4.127   4.467
 6587TIP3    H119704   1.961   4.039   4.447
 6587TIP3    H219705   2.069   4.139   4.410
 6588TIP3   OH219706   0.699   0.720   5.093
 6588TIP3    H119707   0.760   0.720   5.019
 6588TIP3    H219708   0.612   0.721   5.051
 6589TIP3   OH219709   5.957   2.868   2.064
 6589TIP3    H119710   5.869   2.830   2.056
 6589TIP3    H219711   5.942   2.956   2.096
 6590TIP3   OH219712   7.193   7.430   1.073
 6590TIP3    H119713   7.147   7.347   1.078
 6590TIP3    H219714   7.234   7.441   1.159
 6591TIP3   OH219715   1.450   0.143   5.145
 6591TIP3    H119716   1.542   0.131   5.121
 6591TIP3    H219717   1.443   0.106   5.233
 6592TIP3   OH219718   1.902   3.636   4.869
 6592TIP3    H119719   1.876   3.550   4.838
 6592TIP3    H219720   1.901   3.691   4.790
 6593TIP3   OH219721   5.677   0.444   4.778
 6593TIP3    H119722   5.599   0.404   4.740
 6593TIP3    H219723   5.696   0.519   4.722
 6594TIP3   OH219724   2.487   7.566   4.220
 6594TIP3    H119725   2.439   7.538   4.297
 6594TIP3    H219726   2.423   7.615   4.168
 6595TIP3   OH219727   0.597   2.890   5.506
 6595TIP3    H119728   0.658   2.833   5.552
 6595TIP3    H219729   0.544   2.831   5.453
 6596TIP3   OH219730   3.201   2.344   2.177
 6596TIP3    H119731   3.114   2.342   2.217
 6596TIP3    H219732   3.192   2.293   2.096
 6597TIP3   OH219733   1.190   7.160   5.439
 6597TIP3    H119734   1.204   7.252   5.461
 6597TIP3    H219735   1.139   7.162   5.358
 6598TIP3   OH219736   2.142   5.284   3.736
 6598TIP3    H119737   2.056   5.292   3.777
 6598TIP3    H219738   2.123   5.279   3.642
 6599TIP3   OH219739   5.472   7.079   4.271
 6599TIP3    H119740   5.543   7.057   4.331
 6599TIP3    H219741   5.468   7.006   4.210
 6600TIP3   OH219742   2.266   1.571   4.316
 6600TIP3    H119743   2.225   1.560   4.230
 6600TIP3    H219744   2.337   1.507   4.317
 6601TIP3   OH219745   1.989   6.418   4.597
 6601TIP3    H119746   1.940   6.384   4.522
 6601TIP3    H219747   2.075   6.378   4.590
 6602TIP3   OH219748   0.726   7.309   0.370
 6602TIP3    H119749   0.642   7.274   0.398
 6602TIP3    H219750   0.710   7.347   0.284
 6603TIP3   OH219751   5.731   5.324   5.667
 6603TIP3    H119752   5.823   5.297   5.678
 6603TIP3    H219753   5.728   5.412   5.703
 6604TIP3   OH219754   1.678   6.881   4.437
 6604TIP3    H119755   1.595   6.869   4.483
 6604TIP3    H219756   1.718   6.956   4.480
 6605TIP3   OH219757   5.280   4.710   3.001
 6605TIP3    H119758   5.341   4.782   2.983
 6605TIP3    H219759   5.236   4.694   2.918
 6606TIP3   OH219760   5.795   1.286   5.439
 6606TIP3    H119761   5.715   1.276   5.388
 6606TIP3    H219762   5.862   1.313   5.376
 6607TIP3   OH219763   2.768   2.471   3.111
 6607TIP3    H119764   2.822   2.547   3.093
 6607TIP3    H219765   2.678   2.504   3.111
 6608TIP3   OH219766   3.320   1.848   1.010
 6608TIP3    H119767   3.313   1.897   1.092
 6608TIP3    H219768   3.256   1.778   1.018
 6609TIP3   OH219769   0.159   4.986   6.356
 6609TIP3    H119770   0.098   5.028   6.295
 6609TIP3    H219771   0.136   5.022   6.441
 6610TIP3   OH219772   2.919   0.603   1.037
 6610TIP3    H119773   2.972   0.531   1.001
 6610TIP3    H219774   2.831   0.567   1.043
 6611TIP3   OH219775   0.511   1.720   0.987
 6611TIP3    H119776   0.506   1.636   0.942
 6611TIP3    H219777   0.547   1.699   1.073
 6612TIP3   OH219778   1.754   6.748   1.505
 6612TIP3    H119779   1.819   6.704   1.450
 6612TIP3    H219780   1.735   6.830   1.459
 6613TIP3   OH219781   7.148   1.831   0.912
 6613TIP3    H119782   7.072   1.884   0.886
 6613TIP3    H219783   7.138   1.750   0.862
 6614TIP3   OH219784   3.279   5.480   2.640
 6614TIP3    H119785   3.225   5.539   2.692
 6614TIP3    H219786   3.254   5.392   2.669
 6615TIP3   OH219787   1.988   3.760   3.453
 6615TIP3    H119788   1.918   3.696   3.458
 6615TIP3    H219789   1.965   3.815   3.378
 6616TIP3   OH219790   6.082   0.034   4.422
 6616TIP3    H119791   6.071   0.002   4.512
 6616TIP3    H219792   6.014   0.100   4.412
 6617TIP3   OH219793   8.048   7.117   5.799
 6617TIP3    H119794   8.083   7.206   5.794
 6617TIP3    H219795   8.104   7.066   5.740
 6618TIP3   OH219796   5.205   4.883   0.167
 6618TIP3    H119797   5.159   4.889   0.083
 6618TIP3    H219798   5.208   4.973   0.200
 6619TIP3   OH219799   5.029   6.467   2.407
 6619TIP3    H119800   5.009   6.482   2.499
 6619TIP3    H219801   5.101   6.404   2.407
 6620TIP3   OH219802   7.926   5.712   4.878
 6620TIP3    H119803   7.897   5.774   4.946
 6620TIP3    H219804   7.845   5.674   4.844
 6621TIP3   OH219805   6.992   7.613   1.955
 6621TIP3    H119806   6.914   7.590   2.006
 6621TIP3    H219807   7.065   7.597   2.014
 6622TIP3   OH219808   3.972   3.133   2.823
 6622TIP3    H119809   3.906   3.199   2.842
 6622TIP3    H219810   3.923   3.059   2.787
 6623TIP3   OH219811   5.859   4.677   6.284
 6623TIP3    H119812   5.766   4.698   6.280
 6623TIP3    H219813   5.861   4.582   6.297
 6624TIP3   OH219814   6.142   6.595   2.742
 6624TIP3    H119815   6.230   6.606   2.707
 6624TIP3    H219816   6.126   6.501   2.738
 6625TIP3   OH219817   6.409   6.626   2.929
 6625TIP3    H119818   6.451   6.710   2.914
 6625TIP3    H219819   6.316   6.647   2.938
 6626TIP3   OH219820   7.179   6.187   6.543
 6626TIP3    H119821   7.146   6.242   6.614
 6626TIP3    H219822   7.168   6.097   6.575
 6627TIP3   OH219823   7.027   1.631   4.284
 6627TIP3    H119824   7.072   1.559   4.240
 6627TIP3    H219825   7.088   1.704   4.281
 6628TIP3   OH219826   6.220   2.533   3.228
 6628TIP3    H119827   6.247   2.532   3.136
 6628TIP3    H219828   6.302   2.544   3.277
 6629TIP3   OH219829   0.289   2.080   2.501
 6629TIP3    H119830   0.361   2.138   2.525
 6629TIP3    H219831   0.218   2.105   2.560
 6630TIP3   OH219832   4.912   1.198   1.168
 6630TIP3    H119833   4.951   1.114   1.194
 6630TIP3    H219834   4.911   1.249   1.249
 6631TIP3   OH219835   6.928   0.101   1.987
 6631TIP3    H119836   6.886   0.072   1.906
 6631TIP3    H219837   6.902   0.192   1.996
 6632TIP3   OH219838   0.192   6.999   2.382
 6632TIP3    H119839   0.267   7.058   2.370
 6632TIP3    H219840   0.197   6.939   2.307
 6633TIP3   OH219841   3.314   1.057   4.565
 6633TIP3    H119842   3.280   0.968   4.577
 6633TIP3    H219843   3.350   1.080   4.651
 6634TIP3   OH219844   2.161   0.450   6.415
 6634TIP3    H119845   2.090   0.476   6.358
 6634TIP3    H219846   2.182   0.529   6.466
 6635TIP3   OH219847   4.598   5.625   4.438
 6635TIP3    H119848   4.685   5.623   4.479
 6635TIP3    H219849   4.608   5.683   4.363
 6636TIP3   OH219850   2.352   5.903   3.797
 6636TIP3    H119851   2.262   5.914   3.765
 6636TIP3    H219852   2.385   5.992   3.806
 6637TIP3   OH219853   5.463   7.246   0.200
 6637TIP3    H119854   5.376   7.224   0.232
 6637TIP3    H219855   5.509   7.161   0.195
 6638TIP3   OH219856   4.679   0.548   1.754
 6638TIP3    H119857   4.728   0.480   1.800
 6638TIP3    H219858   4.709   0.630   1.794
 6639TIP3   OH219859   0.408   5.639   2.898
 6639TIP3    H119860   0.428   5.546   2.906
 6639TIP3    H219861   0.492   5.679   2.875
 6640TIP3   OH219862   2.485   1.201   0.966
 6640TIP3    H119863   2.544   1.175   0.895
 6640TIP3    H219864   2.542   1.205   1.043
 6641TIP3   OH219865   3.478   5.074   1.856
 6641TIP3    H119866   3.389   5.070   1.890
 6641TIP3    H219867   3.507   4.983   1.854
 6642TIP3   OH219868   8.130   5.018   3.651
 6642TIP3    H119869   8.216   5.051   3.627
 6642TIP3    H219870   8.109   5.060   3.734
 6643TIP3   OH219871   1.576   3.423   6.118
 6643TIP3    H119872   1.561   3.460   6.206
 6643TIP3    H219873   1.671   3.431   6.105
 6644TIP3   OH219874   0.595   2.995   2.980
 6644TIP3    H119875   0.658   2.925   2.990
 6644TIP3    H219876   0.618   3.059   3.048
 6645TIP3   OH219877   0.788   1.852   1.164
 6645TIP3    H119878   0.716   1.797   1.195
 6645TIP3    H219879   0.851   1.789   1.127
 6646TIP3   OH219880   3.578   3.760   4.835
 6646TIP3    H119881   3.591   3.689   4.772
 6646TIP3    H219882   3.567   3.715   4.919
 6647TIP3   OH219883   5.730   0.620   6.580
 6647TIP3    H119884   5.712   0.554   6.514
 6647TIP3    H219885   5.703   0.703   6.540
 6648TIP3   OH219886   4.846   7.717   1.743
 6648TIP3    H119887   4.837   7.624   1.763
 6648TIP3    H219888   4.777   7.735   1.680
 6649TIP3   OH219889   3.688   7.194   1.662
 6649TIP3    H119890   3.777   7.187   1.627
 6649TIP3    H219891   3.696   7.255   1.735
 6650TIP3   OH219892   1.056   4.625   2.563
 6650TIP3    H119893   1.038   4.657   2.651
 6650TIP3    H219894   1.133   4.674   2.535
 6651TIP3   OH219895   6.926   2.926   3.727
 6651TIP3    H119896   6.897   3.016   3.712
 6651TIP3    H219897   7.012   2.921   3.685
 6652TIP3   OH219898   3.454   4.993   0.163
 6652TIP3    H119899   3.391   5.029   0.225
 6652TIP3    H219900   3.459   4.900   0.185
 6653TIP3   OH219901   1.230   5.306   0.681
 6653TIP3    H119902   1.194   5.255   0.608
 6653TIP3    H219903   1.230   5.396   0.649
 6654TIP3   OH219904   3.506   3.942   3.661
 6654TIP3    H119905   3.506   3.984   3.747
 6654TIP3    H219906   3.500   4.015   3.598
 6655TIP3   OH219907   6.067   4.690   2.719
 6655TIP3    H119908   6.012   4.708   2.796
 6655TIP3    H219909   6.150   4.733   2.739
 6656TIP3   OH219910   3.777   1.815   0.734
 6656TIP3    H119911   3.731   1.816   0.818
 6656TIP3    H219912   3.824   1.899   0.732
 6657TIP3   OH219913   4.765   5.259   5.411
 6657TIP3    H119914   4.841   5.225   5.364
 6657TIP3    H219915   4.691   5.212   5.373
 6658TIP3   OH219916   3.898   3.464   1.718
 6658TIP3    H119917   3.809   3.435   1.699
 6658TIP3    H219918   3.895   3.494   1.809
 6659TIP3   OH219919   5.243   0.233   5.383
 6659TIP3    H119920   5.300   0.163   5.350
 6659TIP3    H219921   5.201   0.195   5.460
 6660TIP3   OH219922   7.582   1.512   1.658
 6660TIP3    H119923   7.561   1.492   1.750
 6660TIP3    H219924   7.674   1.538   1.660
 6661TIP3   OH219925   2.603   7.392   2.705
 6661TIP3    H119926   2.620   7.392   2.799
 6661TIP3    H219927   2.690   7.400   2.665
 6662TIP3   OH219928   6.854   5.225   4.693
 6662TIP3    H119929   6.874   5.267   4.777
 6662TIP3    H219930   6.902   5.143   4.696
 6663TIP3   OH219931   5.299   7.040   3.826
 6663TIP3    H119932   5.215   7.016   3.867
 6663TIP3    H219933   5.320   6.965   3.770
 6664TIP3   OH219934   2.785   6.835   6.436
 6664TIP3    H119935   2.845   6.904   6.409
 6664TIP3    H219936   2.739   6.870   6.512
 6665TIP3   OH219937   3.080   1.567   1.581
 6665TIP3    H119938   3.044   1.541   1.496
 6665TIP3    H219939   3.039   1.508   1.644
 6666TIP3   OH219940   5.167   1.965   6.232
 6666TIP3    H119941   5.118   1.950   6.152
 6666TIP3    H219942   5.254   1.929   6.215
 6667TIP3   OH219943   1.872   7.667   5.593
 6667TIP3    H119944   1.864   7.603   5.522
 6667TIP3    H219945   1.948   7.638   5.643
 6668TIP3   OH219946   5.682   5.250   5.969
 6668TIP3    H119947   5.671   5.308   5.894
 6668TIP3    H219948   5.593   5.223   5.992
 6669TIP3   OH219949   5.180   1.230   3.851
 6669TIP3    H119950   5.264   1.201   3.884
 6669TIP3    H219951   5.115   1.179   3.900
 6670TIP3   OH219952   2.502   6.602   6.742
 6670TIP3    H119953   2.478   6.523   6.693
 6670TIP3    H219954   2.589   6.583   6.776
 6671TIP3   OH219955   8.250   3.038   5.391
 6671TIP3    H119956   8.215   3.127   5.397
 6671TIP3    H219957   8.270   3.027   5.298
 6672TIP3   OH219958   2.939   1.906   6.089
 6672TIP3    H119959   2.952   1.850   6.166
 6672TIP3    H219960   3.001   1.978   6.102
 6673TIP3   OH219961   3.389   3.931   5.532
 6673TIP3    H119962   3.398   3.930   5.437
 6673TIP3    H219963   3.391   3.839   5.557
 6674TIP3   OH219964   2.265   4.380   4.961
 6674TIP3    H119965   2.285   4.416   5.047
 6674TIP3    H219966   2.245   4.288   4.976
 6675TIP3   OH219967   8.194   6.313   5.789
 6675TIP3    H119968   8.212   6.288   5.698
 6675TIP3    H219969   8.102   6.338   5.790
 6676TIP3   OH219970   4.497   7.787   0.086
 6676TIP3    H119971   4.482   7.732   0.008
 6676TIP3    H219972   4.558   7.736   0.139
 6677TIP3   OH219973   5.236   4.948   4.696
 6677TIP3    H119974   5.294   4.880   4.730
 6677TIP3    H219975   5.289   5.028   4.696
 6678TIP3   OH219976   3.906   7.711   0.624
 6678TIP3    H119977   3.919   7.669   0.709
 6678TIP3    H219978   3.987   7.694   0.576
 6679TIP3   OH219979   4.343   6.521   6.510
 6679TIP3    H119980   4.412   6.456   6.497
 6679TIP3    H219981   4.390   6.604   6.522
 6680TIP3   OH219982   7.655   3.931   0.933
 6680TIP3    H119983   7.707   3.856   0.962
 6680TIP3    H219984   7.714   3.980   0.876
 6681TIP3   OH219985   3.478   4.383   1.471
 6681TIP3    H119986   3.396   4.391   1.422
 6681TIP3    H219987   3.467   4.304   1.524
 6682TIP3   OH219988   7.413   3.137   6.723
 6682TIP3    H119989   7.436   3.212   6.777
 6682TIP3    H219990   7.320   3.122   6.740
 6683TIP3   OH219991   6.865   6.536   1.443
 6683TIP3    H119992   6.793   6.503   1.388
 6683TIP3    H219993   6.892   6.461   1.495
 6684TIP3   OH219994   0.906   2.770   3.891
 6684TIP3    H119995   0.851   2.816   3.954
 6684TIP3    H219996   0.856   2.773   3.809
 6685TIP3   OH219997   7.302   0.412   6.653
 6685TIP3    H119998   7.218   0.388   6.691
 6685TIP3    H219999   7.354   0.444   6.727
 6686TIP3   OH220000   8.236   1.286   4.566
 6686TIP3    H120001   8.323   1.323   4.583
 6686TIP3    H220002   8.180   1.362   4.549
 6687TIP3   OH220003   3.538   0.093   3.718
 6687TIP3    H120004   3.613   0.051   3.676
 6687TIP3    H220005   3.577   0.166   3.767
 6688TIP3   OH220006   5.128   7.645   5.861
 6688TIP3    H120007   5.050   7.651   5.917
 6688TIP3    H220008   5.112   7.709   5.791
 6689TIP3   OH220009   6.587   4.124   0.534
 6689TIP3    H120010   6.629   4.136   0.619
 6689TIP3    H220011   6.510   4.182   0.536
 6690TIP3   OH220012   4.461   2.599   0.559
 6690TIP3    H120013   4.461   2.567   0.650
 6690TIP3    H220014   4.446   2.694   0.567
 6691TIP3   OH220015   4.579   3.941   5.270
 6691TIP3    H120016   4.617   3.862   5.308
 6691TIP3    H220017   4.625   4.013   5.313
 6692TIP3   OH220018   7.352   3.955   3.658
 6692TIP3    H120019   7.362   4.049   3.670
 6692TIP3    H220020   7.407   3.935   3.582
 6693TIP3   OH220021   5.698   1.908   0.220
 6693TIP3    H120022   5.743   1.985   0.256
 6693TIP3    H220023   5.608   1.939   0.204
 6694TIP3   OH220024   5.941   7.495   1.417
 6694TIP3    H120025   5.938   7.399   1.412
 6694TIP3    H220026   5.932   7.514   1.511
 6695TIP3   OH220027   6.953   4.392   5.376
 6695TIP3    H120028   7.024   4.455   5.371
 6695TIP3    H220029   6.996   4.306   5.377
 6696TIP3   OH220030   6.075   0.441   5.349
 6696TIP3    H120031   5.984   0.413   5.344
 6696TIP3    H220032   6.123   0.362   5.373
 6697TIP3   OH220033   1.711   0.090   5.577
 6697TIP3    H120034   1.724   0.145   5.500
 6697TIP3    H220035   1.655   0.018   5.547
 6698TIP3   OH220036   4.717   3.971   0.761
 6698TIP3    H120037   4.716   3.884   0.721
 6698TIP3    H220038   4.806   3.979   0.797
 6699TIP3   OH220039   8.241   5.600   4.102
 6699TIP3    H120040   8.218   5.529   4.163
 6699TIP3    H220041   8.319   5.639   4.141
 6700TIP3   OH220042   5.340   4.749   6.432
 6700TIP3    H120043   5.379   4.830   6.463
 6700TIP3    H220044   5.266   4.777   6.378
 6701TIP3   OH220045   7.927   4.430   0.776
 6701TIP3    H120046   7.884   4.347   0.758
 6701TIP3    H220047   7.893   4.456   0.862
 6702TIP3   OH220048   2.951   7.490   0.483
 6702TIP3    H120049   2.909   7.558   0.431
 6702TIP3    H220050   3.041   7.520   0.495
 6703TIP3   OH220051   0.859   4.883   4.781
 6703TIP3    H120052   0.897   4.815   4.726
 6703TIP3    H220053   0.934   4.933   4.812
 6704TIP3   OH220054   0.737   1.961   5.730
 6704TIP3    H120055   0.661   1.907   5.752
 6704TIP3    H220056   0.770   1.923   5.648
 6705TIP3   OH220057   7.609   0.270   2.216
 6705TIP3    H120058   7.604   0.364   2.237
 6705TIP3    H220059   7.696   0.244   2.246
 6706TIP3   OH220060   0.183   6.920   0.460
 6706TIP3    H120061   0.240   6.977   0.511
 6706TIP3    H220062   0.224   6.917   0.373
 6707TIP3   OH220063   6.768   3.699   1.285
 6707TIP3    H120064   6.853   3.682   1.246
 6707TIP3    H220065   6.765   3.794   1.296
 6708TIP3   OH220066   1.257   2.249   4.075
 6708TIP3    H120067   1.179   2.229   4.126
 6708TIP3    H220068   1.231   2.321   4.017
 6709TIP3   OH220069   1.094   1.189   0.797
 6709TIP3    H120070   1.024   1.233   0.846
 6709TIP3    H220071   1.133   1.128   0.860
 6710TIP3   OH220072   1.215   6.650   1.675
 6710TIP3    H120073   1.165   6.569   1.667
 6710TIP3    H220074   1.215   6.669   1.769
 6711TIP3   OH220075   3.653   1.096   2.619
 6711TIP3    H120076   3.631   1.166   2.558
 6711TIP3    H220077   3.616   1.125   2.702
 6712TIP3   OH220078   0.729   1.465   6.668
 6712TIP3    H120079   0.702   1.448   6.759
 6712TIP3    H220080   0.824   1.454   6.670
 6713TIP3   OH220081   0.801   5.345   0.422
 6713TIP3    H120082   0.873   5.408   0.417
 6713TIP3    H220083   0.789   5.329   0.515
 6714TIP3   OH220084   2.404   5.165   4.935
 6714TIP3    H120085   2.465   5.158   5.009
 6714TIP3    H220086   2.387   5.074   4.910
 6715TIP3   OH220087   7.603   5.478   2.982
 6715TIP3    H120088   7.590   5.573   2.975
 6715TIP3    H220089   7.557   5.442   2.906
 6716TIP3   OH220090   1.845   6.656   4.420
 6716TIP3    H120091   1.794   6.729   4.383
 6716TIP3    H220092   1.933   6.693   4.433
 6717TIP3   OH220093   2.126   0.668   4.785
 6717TIP3    H120094   2.053   0.648   4.844
 6717TIP3    H220095   2.146   0.586   4.741
 6718TIP3   OH220096   7.255   4.395   5.373
 6718TIP3    H120097   7.246   4.359   5.462
 6718TIP3    H220098   7.322   4.341   5.332
 6719TIP3   OH220099   0.177   6.583   2.229
 6719TIP3    H120100   0.100   6.611   2.278
 6719TIP3    H220101   0.143   6.531   2.157
 6720TIP3   OH220102   3.062   2.262   3.607
 6720TIP3    H120103   3.017   2.206   3.544
 6720TIP3    H220104   3.147   2.280   3.567
 6721TIP3   OH220105   7.719   6.164   3.725
 6721TIP3    H120106   7.626   6.156   3.744
 6721TIP3    H220107   7.750   6.232   3.785
 6722TIP3   OH220108   5.016   5.927   4.496
 6722TIP3    H120109   5.038   5.838   4.523
 6722TIP3    H220110   4.928   5.941   4.532
 6723TIP3   OH220111   4.224   1.533   1.731
 6723TIP3    H120112   4.162   1.460   1.719
 6723TIP3    H220113   4.169   1.605   1.762
 6724TIP3   OH220114   6.687   4.873   5.936
 6724TIP3    H120115   6.637   4.892   6.015
 6724TIP3    H220116   6.623   4.881   5.865
 6725TIP3   OH220117   2.568   7.024   4.518
 6725TIP3    H120118   2.606   7.080   4.451
 6725TIP3    H220119   2.522   7.083   4.577
 6726TIP3   OH220120   2.359   4.062   6.653
 6726TIP3    H120121   2.348   3.967   6.648
 6726TIP3    H220122   2.371   4.080   6.746
 6727TIP3   OH220123   1.799   6.481   0.905
 6727TIP3    H120124   1.706   6.495   0.924
 6727TIP3    H220125   1.817   6.392   0.934
 6728TIP3   OH220126   2.776   1.868   4.450
 6728TIP3    H120127   2.692   1.828   4.472
 6728TIP3    H220128   2.820   1.878   4.534
 6729TIP3   OH220129   3.013   6.311   0.027
 6729TIP3    H120130   3.087   6.307   0.087
 6729TIP3    H220131   2.945   6.358   0.075
 6730TIP3   OH220132   7.031   1.784   1.390
 6730TIP3    H120133   6.991   1.863   1.426
 6730TIP3    H220134   7.001   1.781   1.299
 6731TIP3   OH220135   7.483   2.758   1.676
 6731TIP3    H120136   7.461   2.709   1.597
 6731TIP3    H220137   7.434   2.840   1.668
 6732TIP3   OH220138   1.352   1.102   4.829
 6732TIP3    H120139   1.313   1.039   4.767
 6732TIP3    H220140   1.338   1.187   4.788
 6733TIP3   OH220141   6.079   4.182   6.658
 6733TIP3    H120142   6.040   4.135   6.732
 6733TIP3    H220143   6.163   4.138   6.643
 6734TIP3   OH220144   5.880   7.670   2.440
 6734TIP3    H120145   5.975   7.665   2.446
 6734TIP3    H220146   5.858   7.623   2.360
 6735TIP3   OH220147   4.503   6.792   6.122
 6735TIP3    H120148   4.575   6.763   6.065
 6735TIP3    H220149   4.476   6.713   6.168
 6736TIP3   OH220150   3.665   4.286   3.859
 6736TIP3    H120151   3.594   4.332   3.814
 6736TIP3    H220152   3.728   4.265   3.791
 6737TIP3   OH220153   0.373   4.585   6.322
 6737TIP3    H120154   0.298   4.553   6.372
 6737TIP3    H220155   0.337   4.656   6.269
 6738TIP3   OH220156   6.415   5.612   3.174
 6738TIP3    H120157   6.400   5.685   3.113
 6738TIP3    H220158   6.418   5.654   3.260
 6739TIP3   OH220159   2.993   6.395   2.792
 6739TIP3    H120160   2.903   6.383   2.824
 6739TIP3    H220161   3.045   6.409   2.871
 6740TIP3   OH220162   0.953   6.832   0.549
 6740TIP3    H120163   0.858   6.837   0.563
 6740TIP3    H220164   0.976   6.919   0.516
 6741TIP3   OH220165   7.778   3.842   4.355
 6741TIP3    H120166   7.693   3.840   4.312
 6741TIP3    H220167   7.759   3.820   4.446
 6742TIP3   OH220168   6.257   6.662   6.501
 6742TIP3    H120169   6.197   6.715   6.554
 6742TIP3    H220170   6.336   6.653   6.556
 6743TIP3   OH220171   0.607   6.252   3.648
 6743TIP3    H120172   0.688   6.272   3.695
 6743TIP3    H220173   0.568   6.180   3.697
 6744TIP3   OH220174   5.652   1.082   3.882
 6744TIP3    H120175   5.704   1.069   3.962
 6744TIP3    H220176   5.656   0.997   3.837
 6745TIP3   OH220177   2.828   4.716   6.017
 6745TIP3    H120178   2.738   4.720   5.985
 6745TIP3    H220179   2.876   4.780   5.965
 6746TIP3   OH220180   6.332   0.318   3.771
 6746TIP3    H120181   6.368   0.295   3.685
 6746TIP3    H220182   6.376   0.258   3.832
 6747TIP3   OH220183   6.721   3.917   2.903
 6747TIP3    H120184   6.636   3.872   2.902
 6747TIP3    H220185   6.701   4.006   2.932
 6748TIP3   OH220186   2.870   0.255   3.841
 6748TIP3    H120187   2.869   0.334   3.895
 6748TIP3    H220188   2.956   0.216   3.856
 6749TIP3   OH220189   6.880   1.182   2.786
 6749TIP3    H120190   6.796   1.151   2.821
 6749TIP3    H220191   6.863   1.272   2.760
 6750TIP3   OH220192   3.260   1.098   2.791
 6750TIP3    H120193   3.258   1.122   2.884
 6750TIP3    H220194   3.349   1.117   2.763
 6751TIP3   OH220195   2.709   5.504   1.288
 6751TIP3    H120196   2.730   5.523   1.379
 6751TIP3    H220197   2.659   5.423   1.292
 6752TIP3   OH220198   4.066   2.916   5.922
 6752TIP3    H120199   4.056   2.850   5.991
 6752TIP3    H220200   4.026   2.875   5.845
 6753TIP3   OH220201   3.339   1.752   2.024
 6753TIP3    H120202   3.353   1.846   2.037
 6753TIP3    H220203   3.425   1.719   1.998
 6754TIP3   OH220204   4.727   5.599   6.061
 6754TIP3    H120205   4.708   5.684   6.023
 6754TIP3    H220206   4.792   5.560   6.003
 6755TIP3   OH220207   5.741   3.937   2.418
 6755TIP3    H120208   5.706   4.025   2.404
 6755TIP3    H220209   5.687   3.901   2.488
 6756TIP3   OH220210   0.665   5.416   4.498
 6756TIP3    H120211   0.675   5.324   4.523
 6756TIP3    H220212   0.687   5.465   4.576
 6757TIP3   OH220213   6.481   2.360   3.566
 6757TIP3    H120214   6.454   2.446   3.599
 6757TIP3    H220215   6.525   2.378   3.484
 6758TIP3   OH220216   0.792   3.853   0.364
 6758TIP3    H120217   0.718   3.807   0.324
 6758TIP3    H220218   0.868   3.803   0.337
 6759TIP3   OH220219   2.038   7.061   4.019
 6759TIP3    H120220   2.021   6.996   4.087
 6759TIP3    H220221   2.001   7.023   3.939
 6760TIP3   OH220222   6.816   5.054   1.331
 6760TIP3    H120223   6.816   4.958   1.331
 6760TIP3    H220224   6.805   5.077   1.424
 6761TIP3   OH220225   1.961   6.342   2.526
 6761TIP3    H120226   2.021   6.392   2.581
 6761TIP3    H220227   1.874   6.374   2.550
 6762TIP3   OH220228   2.149   5.000   6.375
 6762TIP3    H120229   2.133   5.094   6.369
 6762TIP3    H220230   2.218   4.984   6.311
 6763TIP3   OH220231   4.071   3.528   6.123
 6763TIP3    H120232   4.042   3.557   6.037
 6763TIP3    H220233   3.991   3.529   6.176
 6764TIP3   OH220234   6.983   1.721   5.387
 6764TIP3    H120235   7.062   1.752   5.343
 6764TIP3    H220236   7.012   1.693   5.473
 6765TIP3   OH220237   7.961   4.654   2.157
 6765TIP3    H120238   7.955   4.726   2.219
 6765TIP3    H220239   7.883   4.664   2.102
 6766TIP3   OH220240   4.917   0.680   2.901
 6766TIP3    H120241   4.985   0.670   2.968
 6766TIP3    H220242   4.835   0.659   2.947
 6767TIP3   OH220243   6.742   7.681   4.613
 6767TIP3    H120244   6.724   7.773   4.593
 6767TIP3    H220245   6.717   7.671   4.705
 6768TIP3   OH220246   2.456   3.757   0.599
 6768TIP3    H120247   2.517   3.705   0.547
 6768TIP3    H220248   2.438   3.703   0.676
 6769TIP3   OH220249   3.018   0.841   5.075
 6769TIP3    H120250   3.056   0.849   4.987
 6769TIP3    H220251   2.936   0.890   5.070
 6770TIP3   OH220252   2.932   3.989   4.339
 6770TIP3    H120253   2.846   3.977   4.380
 6770TIP3    H220254   2.924   3.947   4.253
 6771TIP3   OH220255   3.894   5.279   0.815
 6771TIP3    H120256   3.949   5.348   0.776
 6771TIP3    H220257   3.872   5.312   0.902
 6772TIP3   OH220258   4.402   5.038   2.373
 6772TIP3    H120259   4.493   5.008   2.363
 6772TIP3    H220260   4.370   4.990   2.450
 6773TIP3   OH220261   4.667   4.704   2.488
 6773TIP3    H120262   4.608   4.670   2.419
 6773TIP3    H220263   4.698   4.626   2.533
 6774TIP3   OH220264   6.845   0.762   3.753
 6774TIP3    H120265   6.798   0.729   3.676
 6774TIP3    H220266   6.779   0.810   3.802
 6775TIP3   OH220267   1.831   7.669   4.415
 6775TIP3    H120268   1.868   7.740   4.468
 6775TIP3    H220269   1.739   7.666   4.441
 6776TIP3   OH220270   5.019   0.576   5.786
 6776TIP3    H120271   5.055   0.656   5.747
 6776TIP3    H220272   4.956   0.608   5.852
 6777TIP3   OH220273   0.296   5.188   4.898
 6777TIP3    H120274   0.209   5.180   4.938
 6777TIP3    H220275   0.326   5.275   4.925
 6778TIP3   OH220276   7.371   0.402   1.274
 6778TIP3    H120277   7.382   0.356   1.190
 6778TIP3    H220278   7.301   0.354   1.319
 6779TIP3   OH220279   5.555   6.837   4.140
 6779TIP3    H120280   5.507   6.806   4.217
 6779TIP3    H220281   5.590   6.758   4.100
 6780TIP3   OH220282   4.412   6.452   3.117
 6780TIP3    H120283   4.337   6.397   3.139
 6780TIP3    H220284   4.434   6.429   3.027
 6781TIP3   OH220285   6.086   6.530   2.155
 6781TIP3    H120286   6.091   6.577   2.237
 6781TIP3    H220287   6.099   6.596   2.087
 6782TIP3   OH220288   3.331   2.224   2.408
 6782TIP3    H120289   3.281   2.254   2.333
 6782TIP3    H220290   3.274   2.162   2.452
 6783TIP3   OH220291   5.238   2.891   2.025
 6783TIP3    H120292   5.277   2.814   1.983
 6783TIP3    H220293   5.259   2.964   1.966
 6784TIP3   OH220294   7.811   3.382   4.026
 6784TIP3    H120295   7.886   3.409   4.078
 6784TIP3    H220296   7.799   3.290   4.047
 6785TIP3   OH220297   1.916   1.071   6.279
 6785TIP3    H120298   1.996   1.110   6.314
 6785TIP3    H220299   1.894   1.124   6.203
 6786TIP3   OH220300   2.468   6.569   3.210
 6786TIP3    H120301   2.537   6.512   3.175
 6786TIP3    H220302   2.486   6.655   3.172
 6787TIP3   OH220303   6.623   0.772   4.590
 6787TIP3    H120304   6.682   0.699   4.571
 6787TIP3    H220305   6.637   0.833   4.517
 6788TIP3   OH220306   3.282   0.506   3.568
 6788TIP3    H120307   3.235   0.470   3.643
 6788TIP3    H220308   3.316   0.429   3.522
 6789TIP3   OH220309   1.596   4.917   5.968
 6789TIP3    H120310   1.684   4.942   5.942
 6789TIP3    H220311   1.540   4.988   5.937
 6790TIP3   OH220312   1.289   2.336   1.512
 6790TIP3    H120313   1.262   2.247   1.488
 6790TIP3    H220314   1.312   2.377   1.428
 6791TIP3   OH220315   6.957   1.972   2.906
 6791TIP3    H120316   6.881   1.957   2.962
 6791TIP3    H220317   6.920   1.986   2.819
 6792TIP3   OH220318   6.314   2.805   6.275
 6792TIP3    H120319   6.254   2.832   6.345
 6792TIP3    H220320   6.386   2.762   6.321
 6793TIP3   OH220321   0.545   5.200   1.724
 6793TIP3    H120322   0.631   5.159   1.734
 6793TIP3    H220323   0.554   5.258   1.648
 6794TIP3   OH220324   6.298   3.843   0.502
 6794TIP3    H120325   6.352   3.764   0.509
 6794TIP3    H220326   6.258   3.838   0.416
 6795TIP3   OH220327   6.334   2.152   3.033
 6795TIP3    H120328   6.248   2.110   3.022
 6795TIP3    H220329   6.386   2.087   3.079
 6796TIP3   OH220330   1.625   4.972   1.786
 6796TIP3    H120331   1.573   4.975   1.706
 6796TIP3    H220332   1.700   5.028   1.769
 6797TIP3   OH220333   3.119   6.912   0.165
 6797TIP3    H120334   3.188   6.961   0.122
 6797TIP3    H220335   3.045   6.972   0.169
 6798TIP3   OH220336   8.230   4.213   4.605
 6798TIP3    H120337   8.284   4.289   4.581
 6798TIP3    H220338   8.157   4.215   4.544
 6799TIP3   OH220339   3.120   0.172   0.595
 6799TIP3    H120340   3.069   0.180   0.515
 6799TIP3    H220341   3.104   0.254   0.642
 6800TIP3   OH220342   3.470   0.955   3.527
 6800TIP3    H120343   3.557   0.991   3.542
 6800TIP3    H220344   3.418   0.984   3.602
 6801TIP3   OH220345   0.057   2.086   6.052
 6801TIP3    H120346   0.132   2.051   6.003
 6801TIP3    H220347   0.052   2.178   6.025
 6802TIP3   OH220348   3.016   4.425   1.207
 6802TIP3    H120349   2.972   4.488   1.264
 6802TIP3    H220350   2.960   4.421   1.130
 6803TIP3   OH220351   2.470   2.695   6.154
 6803TIP3    H120352   2.495   2.621   6.098
 6803TIP3    H220353   2.383   2.719   6.124
 6804TIP3   OH220354   7.976   4.791   3.128
 6804TIP3    H120355   7.923   4.737   3.070
 6804TIP3    H220356   8.007   4.731   3.196
 6805TIP3   OH220357   1.013   4.777   6.122
 6805TIP3    H120358   1.040   4.849   6.179
 6805TIP3    H220359   0.918   4.786   6.115
 6806TIP3   OH220360   4.228   7.180   3.170
 6806TIP3    H120361   4.159   7.240   3.141
 6806TIP3    H220362   4.250   7.210   3.258
 6807TIP3   OH220363   0.935   2.906   6.382
 6807TIP3    H120364   0.847   2.869   6.387
 6807TIP3    H220365   0.981   2.852   6.319
 6808TIP3   OH220366   6.195   7.339   4.293
 6808TIP3    H120367   6.231   7.287   4.364
 6808TIP3    H220368   6.263   7.404   4.274
 6809TIP3   OH220369   6.871   1.595   6.217
 6809TIP3    H120370   6.951   1.607   6.269
 6809TIP3    H220371   6.902   1.588   6.127
 6810TIP3   OH220372   1.368   6.355   2.749
 6810TIP3    H120373   1.379   6.265   2.781
 6810TIP3    H220374   1.372   6.348   2.654
 6811TIP3   OH220375   0.267   0.654   3.164
 6811TIP3    H120376   0.357   0.622   3.173
 6811TIP3    H220377   0.222   0.586   3.114
 6812TIP3   OH220378   7.137   1.234   5.015
 6812TIP3    H120379   7.224   1.274   5.009
 6812TIP3    H220380   7.080   1.292   4.963
 6813TIP3   OH220381   5.344   2.598   2.813
 6813TIP3    H120382   5.282   2.541   2.768
 6813TIP3    H220383   5.430   2.574   2.778
 6814TIP3   OH220384   2.331   1.487   2.944
 6814TIP3    H120385   2.325   1.574   2.903
 6814TIP3    H220386   2.420   1.484   2.979
 6815TIP3   OH220387   6.782   2.262   6.006
 6815TIP3    H120388   6.694   2.298   5.993
 6815TIP3    H220389   6.816   2.250   5.917
 6816TIP3   OH220390   6.526   0.118   1.218
 6816TIP3    H120391   6.505   0.120   1.125
 6816TIP3    H220392   6.440   0.122   1.261
 6817TIP3   OH220393   4.279   4.527   5.961
 6817TIP3    H120394   4.242   4.525   6.050
 6817TIP3    H220395   4.211   4.568   5.908
 6818TIP3   OH220396   7.499   5.407   2.731
 6818TIP3    H120397   7.507   5.350   2.655
 6818TIP3    H220398   7.453   5.484   2.699
 6819TIP3   OH220399   6.530   5.780   6.229
 6819TIP3    H120400   6.543   5.699   6.279
 6819TIP3    H220401   6.439   5.776   6.199
 6820TIP3   OH220402   3.705   1.276   4.571
 6820TIP3    H120403   3.624   1.276   4.520
 6820TIP3    H220404   3.702   1.196   4.622
 6821TIP3   OH220405   6.689   5.575   5.258
 6821TIP3    H120406   6.660   5.487   5.233
 6821TIP3    H220407   6.666   5.581   5.351
 6822TIP3   OH220408   4.743   7.443   4.136
 6822TIP3    H120409   4.708   7.369   4.187
 6822TIP3    H220410   4.831   7.414   4.112
 6823TIP3   OH220411   3.838   0.231   1.767
 6823TIP3    H120412   3.927   0.213   1.798
 6823TIP3    H220413   3.847   0.313   1.719
 6824TIP3   OH220414   8.186   1.799   4.978
 6824TIP3    H120415   8.133   1.784   4.900
 6824TIP3    H220416   8.257   1.855   4.948
 6825TIP3   OH220417   7.429   2.697   0.044
 6825TIP3    H120418   7.495   2.691  -0.026
 6825TIP3    H220419   7.346   2.706  -0.002
 6826TIP3   OH220420   2.629   3.561   5.075
 6826TIP3    H120421   2.615   3.474   5.112
 6826TIP3    H220422   2.679   3.607   5.142
 6827TIP3   OH220423   6.432   4.890   1.271
 6827TIP3    H120424   6.461   4.806   1.235
 6827TIP3    H220425   6.339   4.896   1.247
 6828TIP3   OH220426   7.343   2.478   2.977
 6828TIP3    H120427   7.427   2.434   2.961
 6828TIP3    H220428   7.279   2.407   2.975
 6829TIP3   OH220429   1.533   1.674   0.573
 6829TIP3    H120430   1.516   1.690   0.666
 6829TIP3    H220431   1.559   1.582   0.568
 6830TIP3   OH220432   2.158   5.675   4.776
 6830TIP3    H120433   2.179   5.641   4.862
 6830TIP3    H220434   2.191   5.609   4.715
 6831TIP3   OH220435   0.258   3.699   3.705
 6831TIP3    H120436   0.317   3.704   3.780
 6831TIP3    H220437   0.245   3.605   3.692
 6832TIP3   OH220438   3.692   5.965   5.751
 6832TIP3    H120439   3.747   5.925   5.683
 6832TIP3    H220440   3.628   5.897   5.772
 6833TIP3   OH220441   2.777   3.625   5.956
 6833TIP3    H120442   2.742   3.649   5.870
 6833TIP3    H220443   2.748   3.695   6.014
 6834TIP3   OH220444   1.346   0.074   5.390
 6834TIP3    H120445   1.323   0.016   5.463
 6834TIP3    H220446   1.287   0.148   5.398
 6835TIP3   OH220447   6.480   6.244   0.417
 6835TIP3    H120448   6.470   6.299   0.495
 6835TIP3    H220449   6.507   6.159   0.451
 6836TIP3   OH220450   7.383   2.998   1.582
 6836TIP3    H120451   7.444   2.976   1.511
 6836TIP3    H220452   7.397   3.092   1.596
 6837TIP3   OH220453   0.159   2.399   2.481
 6837TIP3    H120454   0.155   2.381   2.575
 6837TIP3    H220455   0.245   2.440   2.468
 6838TIP3   OH220456   2.034   6.237   5.052
 6838TIP3    H120457   2.054   6.330   5.063
 6838TIP3    H220458   2.110   6.192   5.090
 6839TIP3   OH220459   7.218   0.179   5.020
 6839TIP3    H120460   7.213   0.255   4.963
 6839TIP3    H220461   7.245   0.214   5.105
 6840TIP3   OH220462   5.949   3.211   0.174
 6840TIP3    H120463   5.963   3.301   0.204
 6840TIP3    H220464   6.037   3.180   0.151
 6841TIP3   OH220465   2.109   3.836   0.261
 6841TIP3    H120466   2.024   3.823   0.218
 6841TIP3    H220467   2.100   3.791   0.345
 6842TIP3   OH220468   7.505   2.828   5.079
 6842TIP3    H120469   7.521   2.863   5.167
 6842TIP3    H220470   7.415   2.854   5.059
 6843TIP3   OH220471   5.294   6.064   0.328
 6843TIP3    H120472   5.267   6.124   0.259
 6843TIP3    H220473   5.363   6.111   0.375
 6844TIP3   OH220474   4.692   5.790   1.246
 6844TIP3    H120475   4.690   5.697   1.269
 6844TIP3    H220476   4.615   5.803   1.191
 6845TIP3   OH220477   6.495   2.314   1.415
 6845TIP3    H120478   6.560   2.385   1.418
 6845TIP3    H220479   6.511   2.264   1.495
 6846TIP3   OH220480   0.544   0.106   4.121
 6846TIP3    H120481   0.578   0.031   4.073
 6846TIP3    H220482   0.481   0.147   4.061
 6847TIP3   OH220483   0.044   2.510   3.673
 6847TIP3    H120484  -0.032   2.470   3.631
 6847TIP3    H220485   0.115   2.498   3.610
 6848TIP3   OH220486   4.513   1.795   4.943
 6848TIP3    H120487   4.489   1.844   4.865
 6848TIP3    H220488   4.513   1.859   5.014
 6849TIP3   OH220489   6.974   6.950   5.856
 6849TIP3    H120490   6.965   6.898   5.936
 6849TIP3    H220491   7.011   6.890   5.792
 6850TIP3   OH220492   5.808   6.301   6.773
 6850TIP3    H120493   5.833   6.343   6.691
 6850TIP3    H220494   5.870   6.337   6.837
 6851TIP3   OH220495   6.522   6.270   6.565
 6851TIP3    H120496   6.509   6.356   6.603
 6851TIP3    H220497   6.617   6.259   6.562
 6852TIP3   OH220498   2.289   2.092   2.925
 6852TIP3    H120499   2.255   2.166   2.975
 6852TIP3    H220500   2.216   2.064   2.870
 6853TIP3   OH220501   2.275   2.961   2.852
 6853TIP3    H120502   2.265   2.918   2.767
 6853TIP3    H220503   2.367   2.951   2.873
 6854TIP3   OH220504   0.930   6.174   2.451
 6854TIP3    H120505   0.885   6.209   2.528
 6854TIP3    H220506   0.869   6.189   2.379
 6855TIP3   OH220507   1.301   1.913   1.632
 6855TIP3    H120508   1.393   1.928   1.655
 6855TIP3    H220509   1.296   1.933   1.539
 6856TIP3   OH220510   5.009   6.949   0.472
 6856TIP3    H120511   5.018   6.854   0.474
 6856TIP3    H220512   5.037   6.978   0.558
 6857TIP3   OH220513   6.547   0.339   6.224
 6857TIP3    H120514   6.555   0.327   6.129
 6857TIP3    H220515   6.452   0.343   6.239
 6858TIP3   OH220516   2.937   7.605   0.044
 6858TIP3    H120517   2.957   7.681   0.099
 6858TIP3    H220518   2.977   7.531   0.089
 6859TIP3   OH220519   0.348   6.608   4.359
 6859TIP3    H120520   0.419   6.672   4.362
 6859TIP3    H220521   0.376   6.538   4.417
 6860TIP3   OH220522   4.554   1.567   6.439
 6860TIP3    H120523   4.532   1.573   6.532
 6860TIP3    H220524   4.571   1.475   6.424
 6861TIP3   OH220525   7.840   7.665   2.705
 6861TIP3    H120526   7.787   7.595   2.741
 6861TIP3    H220527   7.928   7.648   2.738
 6862TIP3   OH220528   2.282   2.924   3.487
 6862TIP3    H120529   2.234   2.888   3.561
 6862TIP3    H220530   2.231   3.001   3.460
 6863TIP3   OH220531   3.252   4.000   3.981
 6863TIP3    H120532   3.292   4.022   4.065
 6863TIP3    H220533   3.247   3.904   3.981
 6864TIP3   OH220534   0.178   7.332   2.204
 6864TIP3    H120535   0.087   7.316   2.230
 6864TIP3    H220536   0.172   7.391   2.129
 6865TIP3   OH220537   2.884   4.611   0.159
 6865TIP3    H120538   2.898   4.647   0.247
 6865TIP3    H220539   2.890   4.516   0.171
 6866TIP3   OH220540   2.679   1.601   1.018
 6866TIP3    H120541   2.695   1.649   1.099
 6866TIP3    H220542   2.724   1.653   0.950
 6867TIP3   OH220543   4.024   5.384   3.116
 6867TIP3    H120544   4.110   5.376   3.076
 6867TIP3    H220545   4.038   5.364   3.208
 6868TIP3   OH220546   2.053   5.061   1.690
 6868TIP3    H120547   1.980   4.999   1.689
 6868TIP3    H220548   2.070   5.077   1.783
 6869TIP3   OH220549   2.286   2.932   6.125
 6869TIP3    H120550   2.374   2.961   6.102
 6869TIP3    H220551   2.279   2.947   6.219
 6870TIP3   OH220552   6.582   5.330   4.668
 6870TIP3    H120553   6.576   5.424   4.652
 6870TIP3    H220554   6.675   5.309   4.654
 6871TIP3   OH220555   5.933   1.758   1.580
 6871TIP3    H120556   6.012   1.715   1.611
 6871TIP3    H220557   5.965   1.831   1.527
 6872TIP3   OH220558   1.741   7.042   5.297
 6872TIP3    H120559   1.783   7.080   5.374
 6872TIP3    H220560   1.680   6.978   5.332
 6873TIP3   OH220561   1.480   2.192   2.635
 6873TIP3    H120562   1.443   2.138   2.705
 6873TIP3    H220563   1.519   2.267   2.681
 6874TIP3   OH220564   1.533   3.377   4.281
 6874TIP3    H120565   1.452   3.421   4.255
 6874TIP3    H220566   1.508   3.285   4.293
 6875TIP3   OH220567   2.708   4.149   3.139
 6875TIP3    H120568   2.765   4.174   3.066
 6875TIP3    H220569   2.765   4.149   3.216
 6876TIP3   OH220570   7.669   1.457   3.519
 6876TIP3    H120571   7.733   1.512   3.474
 6876TIP3    H220572   7.585   1.501   3.506
 6877TIP3   OH220573   1.587   5.379   6.434
 6877TIP3    H120574   1.531   5.308   6.465
 6877TIP3    H220575   1.628   5.345   6.355
 6878TIP3   OH220576   7.827   4.615   5.851
 6878TIP3    H120577   7.739   4.606   5.816
 6878TIP3    H220578   7.884   4.586   5.780
 6879TIP3   OH220579   4.886   2.865   2.377
 6879TIP3    H120580   4.846   2.873   2.290
 6879TIP3    H220581   4.918   2.953   2.397
 6880TIP3   OH220582   2.634   4.648   4.094
 6880TIP3    H120583   2.619   4.555   4.077
 6880TIP3    H220584   2.721   4.651   4.132
 6881TIP3   OH220585   5.212   0.843   2.218
 6881TIP3    H120586   5.172   0.889   2.291
 6881TIP3    H220587   5.259   0.912   2.170
 6882TIP3   OH220588   3.974   5.800   2.487
 6882TIP3    H120589   3.916   5.743   2.436
 6882TIP3    H220590   3.914   5.862   2.530
 6883TIP3   OH220591   4.605   4.317   4.835
 6883TIP3    H120592   4.642   4.300   4.748
 6883TIP3    H220593   4.644   4.249   4.891
 6884TIP3   OH220594   6.550   3.993   3.398
 6884TIP3    H120595   6.492   4.030   3.332
 6884TIP3    H220596   6.624   3.959   3.349
 6885TIP3   OH220597   1.179   0.133   4.618
 6885TIP3    H120598   1.255   0.150   4.674
 6885TIP3    H220599   1.169   0.213   4.566
 6886TIP3   OH220600   5.237   2.384   0.972
 6886TIP3    H120601   5.153   2.422   0.949
 6886TIP3    H220602   5.258   2.326   0.898
 6887TIP3   OH220603   0.601   4.881   2.686
 6887TIP3    H120604   0.527   4.822   2.677
 6887TIP3    H220605   0.561   4.969   2.686
 6888TIP3   OH220606   6.135   2.396   2.441
 6888TIP3    H120607   6.048   2.431   2.457
 6888TIP3    H220608   6.192   2.473   2.441
 6889TIP3   OH220609   4.207   0.772   0.348
 6889TIP3    H120610   4.232   0.769   0.441
 6889TIP3    H220611   4.145   0.699   0.338
 6890TIP3   OH220612   7.474   0.520   0.304
 6890TIP3    H120613   7.403   0.537   0.366
 6890TIP3    H220614   7.474   0.595   0.245
 6891TIP3   OH220615   1.244   2.523   1.691
 6891TIP3    H120616   1.253   2.439   1.645
 6891TIP3    H220617   1.311   2.520   1.759
 6892TIP3   OH220618   1.689   1.997   3.577
 6892TIP3    H120619   1.695   1.994   3.481
 6892TIP3    H220620   1.598   1.972   3.596
 6893TIP3   OH220621   1.247   4.741   5.518
 6893TIP3    H120622   1.289   4.663   5.555
 6893TIP3    H220623   1.194   4.708   5.445
 6894TIP3   OH220624   1.149   4.768   0.167
 6894TIP3    H120625   1.087   4.765   0.095
 6894TIP3    H220626   1.219   4.708   0.142
 6895TIP3   OH220627   3.284   7.433   3.349
 6895TIP3    H120628   3.350   7.366   3.329
 6895TIP3    H220629   3.232   7.440   3.269
 6896TIP3   OH220630   0.972   0.557   6.500
 6896TIP3    H120631   1.026   0.541   6.423
 6896TIP3    H220632   0.978   0.652   6.515
 6897TIP3   OH220633   5.607   4.742   5.574
 6897TIP3    H120634   5.647   4.655   5.583
 6897TIP3    H220635   5.545   4.748   5.646
 6898TIP3   OH220636   5.948   1.371   0.087
 6898TIP3    H120637   5.920   1.422   0.163
 6898TIP3    H220638   5.975   1.437   0.023
 6899TIP3   OH220639   8.154   4.034   1.809
 6899TIP3    H120640   8.116   3.946   1.809
 6899TIP3    H220641   8.192   4.042   1.897
 6900TIP3   OH220642   0.120   6.367   2.408
 6900TIP3    H120643   0.073   6.355   2.326
 6900TIP3    H220644   0.051   6.374   2.474
 6901TIP3   OH220645   5.140   1.307   3.258
 6901TIP3    H120646   5.059   1.308   3.206
 6901TIP3    H220647   5.149   1.397   3.289
 6902TIP3   OH220648   6.774   3.123   3.248
 6902TIP3    H120649   6.801   3.189   3.185
 6902TIP3    H220650   6.851   3.068   3.261
 6903TIP3   OH220651   7.748   2.638   0.062
 6903TIP3    H120652   7.826   2.676   0.020
 6903TIP3    H220653   7.690   2.618  -0.011
 6904TIP3   OH220654   5.845   5.986   4.057
 6904TIP3    H120655   5.828   6.054   3.992
 6904TIP3    H220656   5.934   6.003   4.088
 6905TIP3   OH220657   7.148   3.834   5.491
 6905TIP3    H120658   7.177   3.917   5.527
 6905TIP3    H220659   7.182   3.834   5.401
 6906TIP3   OH220660   0.935   4.021   2.176
 6906TIP3    H120661   0.881   3.973   2.113
 6906TIP3    H220662   1.025   4.010   2.144
 6907TIP3   OH220663   6.545   5.773   5.738
 6907TIP3    H120664   6.454   5.786   5.709
 6907TIP3    H220665   6.539   5.714   5.813
 6908TIP3   OH220666   6.284   1.632   0.584
 6908TIP3    H120667   6.212   1.570   0.592
 6908TIP3    H220668   6.280   1.684   0.664
 6909TIP3   OH220669   7.348   0.892   1.583
 6909TIP3    H120670   7.308   0.885   1.670
 6909TIP3    H220671   7.421   0.953   1.596
 6910TIP3   OH220672   8.012   3.700   4.805
 6910TIP3    H120673   8.105   3.694   4.826
 6910TIP3    H220674   8.006   3.673   4.713
 6911TIP3   OH220675   3.625   6.324   6.348
 6911TIP3    H120676   3.624   6.380   6.270
 6911TIP3    H220677   3.542   6.343   6.392
 6912TIP3   OH220678   6.557   4.868   3.844
 6912TIP3    H120679   6.508   4.907   3.916
 6912TIP3    H220680   6.495   4.809   3.802
 6913TIP3   OH220681   3.799   4.226   1.960
 6913TIP3    H120682   3.743   4.283   2.013
 6913TIP3    H220683   3.835   4.163   2.023
 6914TIP3   OH220684   5.011   0.291   2.799
 6914TIP3    H120685   5.039   0.351   2.730
 6914TIP3    H220686   5.091   0.266   2.844
 6915TIP3   OH220687   7.979   4.459   4.049
 6915TIP3    H120688   8.027   4.424   3.974
 6915TIP3    H220689   7.941   4.382   4.091
 6916TIP3   OH220690   7.417   5.387   2.428
 6916TIP3    H120691   7.372   5.420   2.350
 6916TIP3    H220692   7.375   5.432   2.501
 6917TIP3   OH220693   4.607   7.737   4.261
 6917TIP3    H120694   4.672   7.698   4.319
 6917TIP3    H220695   4.523   7.715   4.302
 6918TIP3   OH220696   7.584   5.748   2.513
 6918TIP3    H120697   7.636   5.694   2.453
 6918TIP3    H220698   7.511   5.691   2.540
 6919TIP3   OH220699   0.090   6.053   4.513
 6919TIP3    H120700   0.023   5.985   4.519
 6919TIP3    H220701   0.170   6.010   4.544
 6920TIP3   OH220702   6.733   6.858   1.163
 6920TIP3    H120703   6.708   6.766   1.159
 6920TIP3    H220704   6.669   6.903   1.108
 6921TIP3   OH220705   7.833   6.480   0.838
 6921TIP3    H120706   7.853   6.501   0.747
 6921TIP3    H220707   7.858   6.388   0.848
 6922TIP3   OH220708   4.505   3.346   5.389
 6922TIP3    H120709   4.444   3.417   5.367
 6922TIP3    H220710   4.523   3.358   5.482
 6923TIP3   OH220711   2.178   7.440   4.112
 6923TIP3    H120712   2.147   7.509   4.054
 6923TIP3    H220713   2.224   7.378   4.055
 6924TIP3   OH220714   4.534   0.900   5.958
 6924TIP3    H120715   4.524   0.995   5.955
 6924TIP3    H220716   4.476   0.867   5.889
 6925TIP3   OH220717   7.725   6.692   4.525
 6925TIP3    H120718   7.654   6.755   4.508
 6925TIP3    H220719   7.805   6.742   4.511
 6926TIP3   OH220720   5.498   6.032   4.148
 6926TIP3    H120721   5.534   6.112   4.109
 6926TIP3    H220722   5.492   6.052   4.241
 6927TIP3   OH220723   6.905   6.756   5.390
 6927TIP3    H120724   6.883   6.720   5.476
 6927TIP3    H220725   6.987   6.714   5.366
 6928TIP3   OH220726   0.718   3.547   0.787
 6928TIP3    H120727   0.628   3.566   0.813
 6928TIP3    H220728   0.763   3.631   0.797
 6929TIP3   OH220729   3.368   7.316   3.857
 6929TIP3    H120730   3.330   7.329   3.770
 6929TIP3    H220731   3.298   7.342   3.917
 6930TIP3   OH220732   0.637   3.879   1.803
 6930TIP3    H120733   0.556   3.854   1.761
 6930TIP3    H220734   0.614   3.956   1.855
 6931TIP3   OH220735   3.037   7.400   6.348
 6931TIP3    H120736   2.953   7.406   6.393
 6931TIP3    H220737   3.015   7.394   6.255
 6932TIP3   OH220738   3.749   1.652   6.683
 6932TIP3    H120739   3.662   1.690   6.698
 6932TIP3    H220740   3.742   1.563   6.718
 6933TIP3   OH220741   7.226   1.650   1.162
 6933TIP3    H120742   7.232   1.641   1.067
 6933TIP3    H220743   7.270   1.733   1.181
 6934TIP3   OH220744   5.975   5.804   1.736
 6934TIP3    H120745   6.035   5.737   1.768
 6934TIP3    H220746   5.999   5.883   1.784
 6935TIP3   OH220747   8.026   6.840   3.840
 6935TIP3    H120748   8.066   6.801   3.918
 6935TIP3    H220749   7.939   6.868   3.869
 6936TIP3   OH220750   5.962   2.619   2.519
 6936TIP3    H120751   5.870   2.591   2.527
 6936TIP3    H220752   5.984   2.653   2.606
 6937TIP3   OH220753   0.009   1.979   2.460
 6937TIP3    H120754  -0.067   1.999   2.406
 6937TIP3    H220755   0.082   1.974   2.398
 6938TIP3   OH220756   1.383   5.013   4.826
 6938TIP3    H120757   1.382   4.952   4.899
 6938TIP3    H220758   1.308   4.988   4.772
 6939TIP3   OH220759   2.105   1.391   5.310
 6939TIP3    H120760   2.146   1.315   5.269
 6939TIP3    H220761   2.080   1.447   5.237
 6940TIP3   OH220762   5.400   6.046   2.607
 6940TIP3    H120763   5.397   6.022   2.700
 6940TIP3    H220764   5.435   5.969   2.563
 6941TIP3   OH220765   2.289   5.993   5.897
 6941TIP3    H120766   2.224   5.934   5.859
 6941TIP3    H220767   2.354   5.935   5.936
 6942TIP3   OH220768   6.506   5.076   1.484
 6942TIP3    H120769   6.479   5.004   1.427
 6942TIP3    H220770   6.593   5.052   1.514
 6943TIP3   OH220771   7.966  -0.003   0.750
 6943TIP3    H120772   7.880   0.007   0.710
 6943TIP3    H220773   8.027   0.007   0.678
 6944TIP3   OH220774   0.935   7.471   0.482
 6944TIP3    H120775   0.882   7.417   0.423
 6944TIP3    H220776   0.961   7.546   0.429
 6945TIP3   OH220777   3.446   6.852   5.588
 6945TIP3    H120778   3.526   6.804   5.612
 6945TIP3    H220779   3.383   6.783   5.568
 6946TIP3   OH220780   3.551   2.967   3.965
 6946TIP3    H120781   3.615   3.004   4.027
 6946TIP3    H220782   3.486   2.924   4.019
 6947TIP3   OH220783   6.499   5.476   2.025
 6947TIP3    H120784   6.405   5.497   2.027
 6947TIP3    H220785   6.502   5.382   2.007
 6948TIP3   OH220786   1.770   1.290   3.393
 6948TIP3    H120787   1.859   1.296   3.430
 6948TIP3    H220788   1.718   1.347   3.450
 6949TIP3   OH220789   7.348   0.309   6.202
 6949TIP3    H120790   7.364   0.253   6.278
 6949TIP3    H220791   7.303   0.253   6.139
 6950TIP3   OH220792   2.196   7.202   2.666
 6950TIP3    H120793   2.106   7.228   2.682
 6950TIP3    H220794   2.200   7.185   2.571
 6951TIP3   OH220795   7.194   1.942   2.046
 6951TIP3    H120796   7.134   1.927   1.973
 6951TIP3    H220797   7.137   1.967   2.119
 6952TIP3   OH220798   4.841   2.983   0.677
 6952TIP3    H120799   4.835   3.013   0.587
 6952TIP3    H220800   4.935   2.976   0.694
 6953TIP3   OH220801   1.948   1.439   0.440
 6953TIP3    H120802   1.916   1.437   0.530
 6953TIP3    H220803   2.043   1.450   0.449
 6954TIP3   OH220804   5.608   3.003   4.223
 6954TIP3    H120805   5.646   2.929   4.269
 6954TIP3    H220806   5.516   2.981   4.212
 6955TIP3   OH220807   6.007   5.857   4.973
 6955TIP3    H120808   5.945   5.786   4.989
 6955TIP3    H220809   6.024   5.895   5.059
 6956TIP3   OH220810   1.400   6.778   3.191
 6956TIP3    H120811   1.335   6.763   3.260
 6956TIP3    H220812   1.401   6.873   3.181
 6957TIP3   OH220813   0.518   0.864   4.834
 6957TIP3    H120814   0.423   0.856   4.847
 6957TIP3    H220815   0.545   0.776   4.807
 6958TIP3   OH220816   6.170   2.973   2.686
 6958TIP3    H120817   6.213   3.000   2.605
 6958TIP3    H220818   6.195   3.040   2.749
 6959TIP3   OH220819   2.550   2.077   3.986
 6959TIP3    H120820   2.572   2.049   4.074
 6959TIP3    H220821   2.563   2.000   3.931
 6960TIP3   OH220822   6.501   1.841   3.003
 6960TIP3    H120823   6.592   1.867   3.018
 6960TIP3    H220824   6.458   1.856   3.087
 6961TIP3   OH220825   5.409   5.159   0.450
 6961TIP3    H120826   5.350   5.162   0.374
 6961TIP3    H220827   5.456   5.243   0.446
 6962TIP3   OH220828   5.453   1.941   4.450
 6962TIP3    H120829   5.438   1.963   4.358
 6962TIP3    H220830   5.389   1.873   4.469
 6963TIP3   OH220831   1.136   0.205   4.248
 6963TIP3    H120832   1.066   0.139   4.253
 6963TIP3    H220833   1.118   0.263   4.322
 6964TIP3   OH220834   1.965   2.167   4.905
 6964TIP3    H120835   1.917   2.160   4.823
 6964TIP3    H220836   2.042   2.113   4.893
 6965TIP3   OH220837   4.772   1.007   5.373
 6965TIP3    H120838   4.753   1.092   5.412
 6965TIP3    H220839   4.691   0.982   5.330
 6966TIP3   OH220840   2.670   0.915   0.793
 6966TIP3    H120841   2.653   0.882   0.881
 6966TIP3    H220842   2.668   1.010   0.802
 6967TIP3   OH220843   6.936   1.287   0.893
 6967TIP3    H120844   7.030   1.276   0.907
 6967TIP3    H220845   6.908   1.341   0.967
 6968TIP3   OH220846   6.000   5.471   5.875
 6968TIP3    H120847   6.011   5.485   5.969
 6968TIP3    H220848   6.026   5.379   5.861
 6969TIP3   OH220849   2.047   2.464   1.811
 6969TIP3    H120850   2.027   2.548   1.769
 6969TIP3    H220851   2.134   2.477   1.849
 6970TIP3   OH220852   8.183   6.984   0.934
 6970TIP3    H120853   8.276   6.983   0.954
 6970TIP3    H220854   8.141   7.008   1.016
 6971TIP3   OH220855   4.013   3.297   4.195
 6971TIP3    H120856   4.096   3.249   4.200
 6971TIP3    H220857   4.037   3.383   4.162
 6972TIP3   OH220858   4.782   4.820   0.304
 6972TIP3    H120859   4.708   4.768   0.337
 6972TIP3    H220860   4.787   4.798   0.211
 6973TIP3   OH220861   7.301   4.877   2.629
 6973TIP3    H120862   7.386   4.860   2.588
 6973TIP3    H220863   7.323   4.927   2.708
 6974TIP3   OH220864   0.974   6.706   3.952
 6974TIP3    H120865   0.996   6.663   4.035
 6974TIP3    H220866   0.889   6.746   3.967
 6975TIP3   OH220867   0.943   6.569   2.032
 6975TIP3    H120868   0.858   6.595   2.069
 6975TIP3    H220869   0.966   6.488   2.078
 6976TIP3   OH220870   1.202   6.216   4.349
 6976TIP3    H120871   1.172   6.167   4.272
 6976TIP3    H220872   1.257   6.154   4.397
 6977TIP3   OH220873   1.894   0.348   3.147
 6977TIP3    H120874   1.845   0.320   3.224
 6977TIP3    H220875   1.975   0.297   3.150
 6978TIP3   OH220876   2.575   1.757   2.862
 6978TIP3    H120877   2.562   1.848   2.891
 6978TIP3    H220878   2.497   1.737   2.811
 6979TIP3   OH220879   5.937   0.932   1.022
 6979TIP3    H120880   5.975   0.917   0.936
 6979TIP3    H220881   5.845   0.953   1.004
 6980TIP3   OH220882   2.424   6.880   6.068
 6980TIP3    H120883   2.375   6.866   5.986
 6980TIP3    H220884   2.406   6.801   6.120
 6981TIP3   OH220885   1.416   0.694   2.190
 6981TIP3    H120886   1.421   0.759   2.121
 6981TIP3    H220887   1.492   0.637   2.176
 6982TIP3   OH220888   5.039   5.980   6.395
 6982TIP3    H120889   4.997   6.002   6.478
 6982TIP3    H220890   5.122   6.028   6.397
 6983TIP3   OH220891   2.831   1.774   0.884
 6983TIP3    H120892   2.845   1.764   0.790
 6983TIP3    H220893   2.855   1.864   0.903
 6984TIP3   OH220894   1.550   2.262   6.700
 6984TIP3    H120895   1.591   2.348   6.699
 6984TIP3    H220896   1.494   2.262   6.622
 6985TIP3   OH220897   0.723   5.028   0.882
 6985TIP3    H120898   0.639   5.070   0.900
 6985TIP3    H220899   0.702   4.934   0.876
 6986TIP3   OH220900   0.656   0.377   2.773
 6986TIP3    H120901   0.750   0.365   2.766
 6986TIP3    H220902   0.630   0.412   2.688
 6987TIP3   OH220903   5.074   5.790   2.207
 6987TIP3    H120904   5.094   5.813   2.116
 6987TIP3    H220905   4.978   5.793   2.212
 6988TIP3   OH220906   5.512   2.033   3.450
 6988TIP3    H120907   5.538   1.994   3.367
 6988TIP3    H220908   5.522   2.127   3.437
 6989TIP3   OH220909   1.989   1.048   3.279
 6989TIP3    H120910   1.960   0.975   3.224
 6989TIP3    H220911   2.082   1.031   3.295
 6990TIP3   OH220912   0.090   0.518   3.889
 6990TIP3    H120913   0.077   0.439   3.836
 6990TIP3    H220914   0.008   0.529   3.937
 6991TIP3   OH220915   6.186   3.474   4.160
 6991TIP3    H120916   6.259   3.412   4.153
 6991TIP3    H220917   6.110   3.419   4.180
 6992TIP3   OH220918   4.650   7.191   4.214
 6992TIP3    H120919   4.694   7.111   4.241
 6992TIP3    H220920   4.568   7.161   4.175
 6993TIP3   OH220921   6.252   0.653   3.619
 6993TIP3    H120922   6.238   0.739   3.581
 6993TIP3    H220923   6.247   0.667   3.714
 6994TIP3   OH220924   4.154   0.586   5.399
 6994TIP3    H120925   4.070   0.624   5.374
 6994TIP3    H220926   4.204   0.581   5.318
 6995TIP3   OH220927   6.676   0.994   2.330
 6995TIP3    H120928   6.694   1.075   2.377
 6995TIP3    H220929   6.642   0.934   2.397
 6996TIP3   OH220930   1.166   6.716   1.941
 6996TIP3    H120931   1.110   6.645   1.971
 6996TIP3    H220932   1.176   6.773   2.018
 6997TIP3   OH220933   2.630   5.669   5.881
 6997TIP3    H120934   2.624   5.702   5.791
 6997TIP3    H220935   2.723   5.677   5.903
 6998TIP3   OH220936   3.244   1.509   5.050
 6998TIP3    H120937   3.329   1.502   5.006
 6998TIP3    H220938   3.266   1.527   5.142
 6999TIP3   OH220939   5.752   4.259   3.461
 6999TIP3    H120940   5.754   4.185   3.522
 6999TIP3    H220941   5.733   4.335   3.517
 7000TIP3   OH220942   3.127   3.532   4.866
 7000TIP3    H120943   3.128   3.437   4.869
 7000TIP3    H220944   3.190   3.555   4.798
 7001TIP3   OH220945   5.082   1.696   5.756
 7001TIP3    H120946   5.135   1.628   5.799
 7001TIP3    H220947   5.132   1.776   5.767
 7002TIP3   OH220948   7.536   6.891   4.458
 7002TIP3    H120949   7.448   6.855   4.472
 7002TIP3    H220950   7.522   6.986   4.455
 7003TIP3   OH220951   3.534   0.927   3.245
 7003TIP3    H120952   3.609   0.869   3.259
 7003TIP3    H220953   3.479   0.914   3.322
 7004TIP3   OH220954   0.957   4.399   0.210
 7004TIP3    H120955   0.998   4.464   0.267
 7004TIP3    H220956   0.989   4.315   0.242
 7005TIP3   OH220957   0.692   5.524   4.225
 7005TIP3    H120958   0.706   5.618   4.226
 7005TIP3    H220959   0.657   5.504   4.312
 7006TIP3   OH220960   0.831   3.096   5.580
 7006TIP3    H120961   0.831   3.070   5.673
 7006TIP3    H220962   0.778   3.176   5.578
 7007TIP3   OH220963   5.193   3.857   0.686
 7007TIP3    H120964   5.218   3.879   0.776
 7007TIP3    H220965   5.277   3.844   0.641
 7008TIP3   OH220966   3.250   0.906   0.513
 7008TIP3    H120967   3.196   0.882   0.437
 7008TIP3    H220968   3.191   0.951   0.572
 7009TIP3   OH220969   5.079   2.802   5.996
 7009TIP3    H120970   5.168   2.802   5.960
 7009TIP3    H220971   5.069   2.888   6.036
 7010TIP3   OH220972   3.313   2.355   2.731
 7010TIP3    H120973   3.233   2.311   2.703
 7010TIP3    H220974   3.295   2.448   2.718
 7011TIP3   OH220975   5.017   3.122   2.415
 7011TIP3    H120976   5.002   3.204   2.368
 7011TIP3    H220977   4.977   3.136   2.500
 7012TIP3   OH220978   1.403   5.084   5.900
 7012TIP3    H120979   1.365   5.170   5.883
 7012TIP3    H220980   1.337   5.022   5.870
 7013TIP3   OH220981   5.221   3.077   2.240
 7013TIP3    H120982   5.163   3.094   2.314
 7013TIP3    H220983   5.190   2.993   2.204
 7014TIP3   OH220984   0.666   5.218   3.445
 7014TIP3    H120985   0.662   5.289   3.510
 7014TIP3    H220986   0.760   5.205   3.430
 7015TIP3   OH220987   1.218   1.018   1.637
 7015TIP3    H120988   1.135   0.977   1.662
 7015TIP3    H220989   1.201   1.112   1.643
 7016TIP3   OH220990   3.972   1.698   2.330
 7016TIP3    H120991   3.954   1.617   2.282
 7016TIP3    H220992   4.060   1.686   2.365
 7017TIP3   OH220993   7.011   6.522   2.644
 7017TIP3    H120994   7.031   6.497   2.734
 7017TIP3    H220995   7.026   6.616   2.640
 7018TIP3   OH220996   5.450   0.615   0.055
 7018TIP3    H120997   5.482   0.702   0.077
 7018TIP3    H220998   5.528   0.560   0.054
 7019TIP3   OH220999   7.518   2.761   5.734
 7019TIP3    H121000   7.561   2.833   5.780
 7019TIP3    H221001   7.574   2.745   5.658
 7020TIP3   OH221002   6.776   7.052   4.253
 7020TIP3    H121003   6.749   7.115   4.186
 7020TIP3    H221004   6.864   7.025   4.226
 7021TIP3   OH221005   6.875   4.494   0.223
 7021TIP3    H121006   6.925   4.541   0.288
 7021TIP3    H221007   6.937   4.476   0.152
 7022TIP3   OH221008   7.700   0.748   5.332
 7022TIP3    H121009   7.778   0.774   5.381
 7022TIP3    H221010   7.681   0.659   5.361
 7023TIP3   OH221011   4.759   4.403   5.869
 7023TIP3    H121012   4.826   4.354   5.916
 7023TIP3    H221013   4.676   4.374   5.907
 7024TIP3   OH221014   6.132   2.450   0.734
 7024TIP3    H121015   6.188   2.397   0.678
 7024TIP3    H221016   6.097   2.518   0.677
 7025TIP3   OH221017   7.243   4.193   5.877
 7025TIP3    H121018   7.245   4.268   5.936
 7025TIP3    H221019   7.155   4.156   5.888
 7026TIP3   OH221020   0.653   1.443   2.094
 7026TIP3    H121021   0.588   1.374   2.104
 7026TIP3    H221022   0.605   1.524   2.111
 7027TIP3   OH221023   1.257   2.497   1.270
 7027TIP3    H121024   1.251   2.591   1.250
 7027TIP3    H221025   1.167   2.466   1.269
 7028TIP3   OH221026   4.280   4.146   5.509
 7028TIP3    H121027   4.248   4.065   5.469
 7028TIP3    H221028   4.245   4.215   5.454
 7029TIP3   OH221029   5.120   1.571   3.341
 7029TIP3    H121030   5.133   1.664   3.324
 7029TIP3    H221031   5.048   1.568   3.405
 7030TIP3   OH221032   0.864   2.740   1.785
 7030TIP3    H121033   0.931   2.806   1.799
 7030TIP3    H221034   0.806   2.778   1.719
 7031TIP3   OH221035   5.757   5.328   0.869
 7031TIP3    H121036   5.830   5.286   0.822
 7031TIP3    H221037   5.785   5.330   0.960
 7032TIP3   OH221038   6.364   0.414   1.615
 7032TIP3    H121039   6.346   0.420   1.522
 7032TIP3    H221040   6.350   0.321   1.636
 7033TIP3   OH221041   3.890   3.036   3.131
 7033TIP3    H121042   3.937   3.116   3.106
 7033TIP3    H221043   3.798   3.063   3.134
 7034TIP3   OH221044   7.860   6.735   5.351
 7034TIP3    H121045   7.819   6.741   5.437
 7034TIP3    H221046   7.852   6.643   5.327
 7035TIP3   OH221047   1.784   5.618   0.801
 7035TIP3    H121048   1.862   5.566   0.787
 7035TIP3    H221049   1.730   5.603   0.724
 7036TIP3   OH221050   5.220   5.081   0.910
 7036TIP3    H121051   5.311   5.067   0.935
 7036TIP3    H221052   5.183   5.131   0.982
 7037TIP3   OH221053   8.142   0.709   2.725
 7037TIP3    H121054   8.223   0.672   2.759
 7037TIP3    H221055   8.168   0.750   2.642
 7038TIP3   OH221056   6.579   6.014   5.964
 7038TIP3    H121057   6.552   5.922   5.970
 7038TIP3    H221058   6.564   6.049   6.051
 7039TIP3   OH221059   3.967   5.596   2.893
 7039TIP3    H121060   4.003   5.526   2.839
 7039TIP3    H221061   3.938   5.552   2.973
 7040TIP3   OH221062   6.856   6.806   5.015
 7040TIP3    H121063   6.937   6.771   5.051
 7040TIP3    H221064   6.860   6.786   4.921
 7041TIP3   OH221065   3.448   5.136   1.325
 7041TIP3    H121066   3.451   5.227   1.354
 7041TIP3    H221067   3.399   5.139   1.243
 7042TIP3   OH221068   5.431   5.930   0.698
 7042TIP3    H121069   5.508   5.979   0.728
 7042TIP3    H221070   5.463   5.840   0.687
 7043TIP3   OH221071   1.731   5.772   0.144
 7043TIP3    H121072   1.799   5.838   0.157
 7043TIP3    H221073   1.681   5.773   0.225
 7044TIP3   OH221074   1.442   6.795   4.555
 7044TIP3    H121075   1.436   6.814   4.649
 7044TIP3    H221076   1.482   6.708   4.551
 7045TIP3   OH221077   0.394   4.940   5.068
 7045TIP3    H121078   0.304   4.918   5.044
 7045TIP3    H221079   0.411   5.023   5.021
 7046TIP3   OH221080   5.930   7.445   4.349
 7046TIP3    H121081   6.016   7.408   4.369
 7046TIP3    H221082   5.893   7.385   4.284
 7047TIP3   OH221083   0.969   7.148   5.615
 7047TIP3    H121084   1.052   7.153   5.569
 7047TIP3    H221085   0.962   7.057   5.642
 7048TIP3   OH221086   0.498   7.712   6.563
 7048TIP3    H121087   0.489   7.719   6.468
 7048TIP3    H221088   0.473   7.798   6.596
 7049TIP3   OH221089   7.125   0.027   2.643
 7049TIP3    H121090   7.113   0.038   2.549
 7049TIP3    H221091   7.139   0.116   2.676
 7050TIP3   OH221092   5.213   6.630   0.374
 7050TIP3    H121093   5.194   6.541   0.344
 7050TIP3    H221094   5.150   6.685   0.328
 7051TIP3   OH221095   3.836   0.660   3.081
 7051TIP3    H121096   3.809   0.744   3.045
 7051TIP3    H221097   3.917   0.638   3.034
 7052TIP3   OH221098   7.219   0.712   0.870
 7052TIP3    H121099   7.279   0.691   0.799
 7052TIP3    H221100   7.202   0.806   0.861
 7053TIP3   OH221101   1.595   5.840   1.551
 7053TIP3    H121102   1.621   5.930   1.574
 7053TIP3    H221103   1.666   5.786   1.584
 7054TIP3   OH221104   3.079   1.259   3.113
 7054TIP3    H121105   3.125   1.226   3.190
 7054TIP3    H221106   3.003   1.202   3.104
 7055TIP3   OH221107   4.769   5.072   1.526
 7055TIP3    H121108   4.676   5.097   1.529
 7055TIP3    H221109   4.771   4.994   1.470
 7056TIP3   OH221110   0.356   2.676   1.109
 7056TIP3    H121111   0.319   2.697   1.023
 7056TIP3    H221112   0.311   2.596   1.136
 7057TIP3   OH221113   0.700   4.913   3.511
 7057TIP3    H121114   0.714   4.998   3.552
 7057TIP3    H221115   0.769   4.858   3.548
 7058TIP3   OH221116   7.559   6.311   3.028
 7058TIP3    H121117   7.571   6.392   3.078
 7058TIP3    H221118   7.590   6.242   3.087
 7059TIP3   OH221119   1.319   5.349   4.514
 7059TIP3    H121120   1.258   5.370   4.585
 7059TIP3    H221121   1.279   5.387   4.436
 7060TIP3   OH221122   5.574   5.794   0.047
 7060TIP3    H121123   5.594   5.759   0.134
 7060TIP3    H221124   5.633   5.868   0.037
 7061TIP3   OH221125   6.265   2.547   1.416
 7061TIP3    H121126   6.312   2.466   1.436
 7061TIP3    H221127   6.251   2.588   1.502
 7062TIP3   OH221128   1.778   4.563   2.588
 7062TIP3    H121129   1.710   4.627   2.611
 7062TIP3    H221130   1.825   4.604   2.515
 7063TIP3   OH221131   3.725   7.401   4.492
 7063TIP3    H121132   3.762   7.318   4.522
 7063TIP3    H221133   3.797   7.443   4.445
 7064TIP3   OH221134   0.172   1.122   3.929
 7064TIP3    H121135   0.147   1.214   3.922
 7064TIP3    H221136   0.144   1.083   3.847
 7065TIP3   OH221137   4.264   2.885   2.001
 7065TIP3    H121138   4.327   2.815   1.989
 7065TIP3    H221139   4.317   2.964   2.014
 7066TIP3   OH221140   7.068   0.139   0.209
 7066TIP3    H121141   7.044   0.108   0.297
 7066TIP3    H221142   7.145   0.087   0.186
 7067TIP3   OH221143   3.556   0.635   5.829
 7067TIP3    H121144   3.465   0.646   5.857
 7067TIP3    H221145   3.587   0.559   5.878
 7068TIP3   OH221146   3.725   5.206   6.406
 7068TIP3    H121147   3.780   5.263   6.460
 7068TIP3    H221148   3.732   5.243   6.318
 7069TIP3   OH221149   7.145   6.344   6.275
 7069TIP3    H121150   7.110   6.310   6.193
 7069TIP3    H221151   7.144   6.270   6.334
 7070TIP3   OH221152   2.531   7.104   2.571
 7070TIP3    H121153   2.456   7.048   2.588
 7070TIP3    H221154   2.553   7.141   2.657
 7071TIP3   OH221155   0.122   4.177   0.554
 7071TIP3    H121156   0.149   4.241   0.620
 7071TIP3    H221157   0.195   4.174   0.492
 7072TIP3   OH221158   4.124   4.826   5.064
 7072TIP3    H121159   4.185   4.899   5.069
 7072TIP3    H221160   4.178   4.749   5.080
 7073TIP3   OH221161   7.278   4.176   6.737
 7073TIP3    H121162   7.362   4.177   6.782
 7073TIP3    H221163   7.238   4.093   6.763
 7074TIP3   OH221164   6.797   6.248   4.092
 7074TIP3    H121165   6.711   6.273   4.059
 7074TIP3    H221166   6.853   6.246   4.015
 7075TIP3   OH221167   4.452   7.410   6.066
 7075TIP3    H121168   4.381   7.461   6.105
 7075TIP3    H221169   4.509   7.387   6.139
 7076TIP3   OH221170   4.748   2.427   3.611
 7076TIP3    H121171   4.720   2.514   3.639
 7076TIP3    H221172   4.800   2.442   3.532
 7077TIP3   OH221173   2.782   3.407   0.723
 7077TIP3    H121174   2.699   3.373   0.758
 7077TIP3    H221175   2.758   3.491   0.684
 7078TIP3   OH221176   8.107   4.875   4.761
 7078TIP3    H121177   8.171   4.827   4.707
 7078TIP3    H221178   8.023   4.836   4.739
 7079TIP3   OH221179   7.041   7.685   4.032
 7079TIP3    H121180   6.994   7.766   4.013
 7079TIP3    H221181   7.110   7.681   3.966
 7080TIP3   OH221182   3.433   3.953   3.176
 7080TIP3    H121183   3.463   3.887   3.114
 7080TIP3    H221184   3.415   3.903   3.256
 7081TIP3   OH221185   2.234   2.005   3.549
 7081TIP3    H121186   2.160   1.962   3.505
 7081TIP3    H221187   2.214   2.099   3.543
 7082TIP3   OH221188   7.934   0.411   0.294
 7082TIP3    H121189   7.892   0.425   0.379
 7082TIP3    H221190   7.872   0.447   0.230
 7083TIP3   OH221191   2.902   2.968   5.227
 7083TIP3    H121192   2.980   2.980   5.280
 7083TIP3    H221193   2.832   3.012   5.275
 7084TIP3   OH221194   2.079   3.148   0.409
 7084TIP3    H121195   2.066   3.089   0.483
 7084TIP3    H221196   2.098   3.233   0.449
 7085TIP3   OH221197   0.422   4.220   5.354
 7085TIP3    H121198   0.509   4.206   5.317
 7085TIP3    H221199   0.365   4.163   5.303
 7086TIP3   OH221200   5.537   6.386   4.379
 7086TIP3    H121201   5.524   6.371   4.473
 7086TIP3    H221202   5.632   6.384   4.367
 7087TIP3   OH221203   0.091   2.482   3.013
 7087TIP3    H121204   0.142   2.419   3.064
 7087TIP3    H221205   0.143   2.497   2.934
 7088TIP3   OH221206   6.547   2.960   6.175
 7088TIP3    H121207   6.496   2.880   6.191
 7088TIP3    H221208   6.639   2.931   6.182
 7089TIP3   OH221209   8.142   7.258   3.960
 7089TIP3    H121210   8.193   7.181   3.936
 7089TIP3    H221211   8.206   7.321   3.993
 7090TIP3   OH221212   2.901   4.008   6.369
 7090TIP3    H121213   2.880   3.990   6.460
 7090TIP3    H221214   2.994   3.984   6.360
 7091TIP3   OH221215   1.678   1.085   2.606
 7091TIP3    H121216   1.613   1.119   2.668
 7091TIP3    H221217   1.635   1.012   2.563
 7092TIP3   OH221218   7.968   1.652   4.031
 7092TIP3    H121219   7.917   1.625   4.107
 7092TIP3    H221220   8.057   1.624   4.050
 7093TIP3   OH221221   4.567   0.626   3.705
 7093TIP3    H121222   4.569   0.627   3.610
 7093TIP3    H221223   4.516   0.548   3.727
 7094TIP3   OH221224   0.538   6.576   5.848
 7094TIP3    H121225   0.606   6.624   5.894
 7094TIP3    H221226   0.547   6.602   5.756
 7095TIP3   OH221227   0.973   2.786   5.905
 7095TIP3    H121228   1.018   2.734   5.839
 7095TIP3    H221229   0.905   2.728   5.940
 7096TIP3   OH221230   2.588   1.338   4.068
 7096TIP3    H121231   2.511   1.319   4.014
 7096TIP3    H221232   2.651   1.378   4.008
 7097TIP3   OH221233   4.579   3.321   0.865
 7097TIP3    H121234   4.555   3.413   0.867
 7097TIP3    H221235   4.654   3.315   0.925
 7098TIP3   OH221236   5.557   0.389   5.734
 7098TIP3    H121237   5.514   0.304   5.733
 7098TIP3    H221238   5.560   0.415   5.642
 7099TIP3   OH221239   1.830   6.864   6.177
 7099TIP3    H121240   1.882   6.920   6.235
 7099TIP3    H221241   1.888   6.791   6.155
 7100TIP3   OH221242   6.171   7.299   1.153
 7100TIP3    H121243   6.150   7.301   1.247
 7100TIP3    H221244   6.132   7.218   1.122
 7101TIP3   OH221245   6.143   0.131   0.478
 7101TIP3    H121246   6.196   0.177   0.543
 7101TIP3    H221247   6.084   0.198   0.444
 7102TIP3   OH221248   7.650   3.210   1.123
 7102TIP3    H121249   7.656   3.115   1.129
 7102TIP3    H221250   7.673   3.231   1.033
 7103TIP3   OH221251   1.656   6.953   4.990
 7103TIP3    H121252   1.657   6.971   5.084
 7103TIP3    H221253   1.736   6.903   4.974
 7104TIP3   OH221254   4.074   7.488   6.156
 7104TIP3    H121255   4.140   7.431   6.195
 7104TIP3    H221256   4.092   7.575   6.192
 7105TIP3   OH221257   7.983   1.834   2.669
 7105TIP3    H121258   7.910   1.835   2.731
 7105TIP3    H221259   7.943   1.811   2.585
 7106TIP3   OH221260   6.121   2.025   4.843
 7106TIP3    H121261   6.197   2.062   4.888
 7106TIP3    H221262   6.097   2.091   4.778
 7107TIP3   OH221263   4.040   5.937   6.308
 7107TIP3    H121264   3.963   5.946   6.252
 7107TIP3    H221265   4.014   5.872   6.374
 7108TIP3   OH221266   1.501   3.890   2.350
 7108TIP3    H121267   1.545   3.975   2.362
 7108TIP3    H221268   1.434   3.908   2.284
 7109TIP3   OH221269   5.092   6.160   0.141
 7109TIP3    H121270   5.029   6.104   0.097
 7109TIP3    H221271   5.158   6.179   0.074
 7110TIP3   OH221272   7.882   1.657   0.630
 7110TIP3    H121273   7.817   1.724   0.610
 7110TIP3    H221274   7.832   1.575   0.628
 7111TIP3   OH221275   5.466   5.231   6.720
 7111TIP3    H121276   5.373   5.241   6.737
 7111TIP3    H221277   5.509   5.261   6.800
 7112TIP3   OH221278   4.103   1.591   3.820
 7112TIP3    H121279   4.079   1.644   3.896
 7112TIP3    H221280   4.047   1.624   3.750
 7113TIP3   OH221281   3.633   6.040   1.780
 7113TIP3    H121282   3.699   6.032   1.711
 7113TIP3    H221283   3.552   6.064   1.734
 7114TIP3   OH221284   8.219   7.067   1.972
 7114TIP3    H121285   8.182   6.982   1.997
 7114TIP3    H221286   8.148   7.111   1.925
 7115TIP3   OH221287   6.411   1.945   1.630
 7115TIP3    H121288   6.398   2.006   1.702
 7115TIP3    H221289   6.382   1.993   1.552
 7116TIP3   OH221290   1.331   6.568   6.720
 7116TIP3    H121291   1.348   6.659   6.745
 7116TIP3    H221292   1.374   6.559   6.635
 7117TIP3   OH221293   4.348   2.600   3.492
 7117TIP3    H121294   4.270   2.549   3.471
 7117TIP3    H221295   4.339   2.619   3.586
 7118TIP3   OH221296   7.085   0.872   3.672
 7118TIP3    H121297   7.161   0.823   3.641
 7118TIP3    H221298   7.019   0.805   3.689
 7119TIP3   OH221299   2.996   5.906   1.633
 7119TIP3    H121300   2.985   5.901   1.728
 7119TIP3    H221301   3.082   5.868   1.616
 7120TIP3   OH221302   0.647   6.209   3.363
 7120TIP3    H121303   0.702   6.285   3.341
 7120TIP3    H221304   0.642   6.211   3.459
 7121TIP3   OH221305   3.824   3.198   1.245
 7121TIP3    H121306   3.869   3.219   1.327
 7121TIP3    H221307   3.739   3.240   1.252
 7122TIP3   OH221308   2.722   1.126   0.262
 7122TIP3    H121309   2.734   1.220   0.274
 7122TIP3    H221310   2.794   1.087   0.311
 7123TIP3   OH221311   6.695   2.336   2.556
 7123TIP3    H121312   6.631   2.363   2.491
 7123TIP3    H221313   6.693   2.405   2.622
 7124TIP3   OH221314   5.396   1.526   2.302
 7124TIP3    H121315   5.398   1.461   2.372
 7124TIP3    H221316   5.427   1.478   2.225
 7125TIP3   OH221317   5.648   6.636   6.662
 7125TIP3    H121318   5.614   6.635   6.751
 7125TIP3    H221319   5.641   6.728   6.635
 7126TIP3   OH221320   1.541   7.681   4.193
 7126TIP3    H121321   1.562   7.664   4.102
 7126TIP3    H221322   1.613   7.642   4.243
 7127TIP3   OH221323   3.445   4.023   4.209
 7127TIP3    H121324   3.436   4.101   4.263
 7127TIP3    H221325   3.443   3.950   4.271
 7128TIP3   OH221326   4.584   5.902   5.520
 7128TIP3    H121327   4.579   5.946   5.605
 7128TIP3    H221328   4.675   5.871   5.514
 7129TIP3   OH221329   5.662   1.158   2.109
 7129TIP3    H121330   5.641   1.089   2.172
 7129TIP3    H221331   5.724   1.119   2.049
 7130TIP3   OH221332   6.775   5.471   2.071
 7130TIP3    H121333   6.698   5.484   2.017
 7130TIP3    H221334   6.845   5.451   2.009
 7131TIP3   OH221335   2.840   5.366   3.648
 7131TIP3    H121336   2.762   5.390   3.697
 7131TIP3    H221337   2.908   5.355   3.715
 7132TIP3   OH221338   4.685   3.714   0.624
 7132TIP3    H121339   4.688   3.742   0.533
 7132TIP3    H221340   4.775   3.686   0.643
 7133TIP3   OH221341   7.795   3.866   1.988
 7133TIP3    H121342   7.830   3.954   1.971
 7133TIP3    H221343   7.731   3.852   1.919
 7134TIP3   OH221344   5.291   1.542   3.113
 7134TIP3    H121345   5.378   1.568   3.144
 7134TIP3    H221346   5.233   1.560   3.186
 7135TIP3   OH221347   2.378   2.213   0.812
 7135TIP3    H121348   2.362   2.300   0.776
 7135TIP3    H221349   2.343   2.216   0.901
 7136TIP3   OH221350   7.972   3.462   5.719
 7136TIP3    H121351   8.003   3.552   5.725
 7136TIP3    H221352   7.965   3.433   5.810
 7137TIP3   OH221353   7.703   4.573   3.694
 7137TIP3    H121354   7.684   4.663   3.668
 7137TIP3    H221355   7.734   4.580   3.785
 7138TIP3   OH221356   7.163   4.125   5.200
 7138TIP3    H121357   7.243   4.171   5.178
 7138TIP3    H221358   7.142   4.155   5.289
 7139TIP3   OH221359   1.017   4.577   3.781
 7139TIP3    H121360   1.028   4.606   3.871
 7139TIP3    H221361   0.955   4.504   3.786
 7140TIP3   OH221362   5.510   6.267   3.514
 7140TIP3    H121363   5.585   6.245   3.570
 7140TIP3    H221364   5.434   6.247   3.569
 7141TIP3   OH221365   5.373   4.471   6.119
 7141TIP3    H121366   5.341   4.459   6.208
 7141TIP3    H221367   5.370   4.383   6.080
 7142TIP3   OH221368   4.934   3.834   0.860
 7142TIP3    H121369   5.015   3.885   0.862
 7142TIP3    H221370   4.951   3.764   0.798
 7143TIP3   OH221371   1.946   0.125   5.175
 7143TIP3    H121372   1.859   0.103   5.209
 7143TIP3    H221373   1.968   0.051   5.117
 7144TIP3   OH221374   2.720   3.800   4.490
 7144TIP3    H121375   2.764   3.846   4.562
 7144TIP3    H221376   2.637   3.772   4.527
 7145TIP3   OH221377   5.894   5.260   2.921
 7145TIP3    H121378   5.907   5.345   2.879
 7145TIP3    H221379   5.823   5.275   2.983
 7146TIP3   OH221380   1.805   6.847   0.363
 7146TIP3    H121381   1.735   6.839   0.427
 7146TIP3    H221382   1.818   6.941   0.351
 7147TIP3   OH221383   1.220   3.267   4.850
 7147TIP3    H121384   1.293   3.241   4.793
 7147TIP3    H221385   1.142   3.234   4.807
 7148TIP3   OH221386   0.936   0.963   1.569
 7148TIP3    H121387   0.994   0.972   1.494
 7148TIP3    H221388   0.878   1.040   1.563
 7149TIP3   OH221389   7.138   3.136   3.097
 7149TIP3    H121390   7.214   3.194   3.104
 7149TIP3    H221391   7.095   3.163   3.015
 7150TIP3   OH221392   2.826   0.467   6.245
 7150TIP3    H121393   2.788   0.520   6.174
 7150TIP3    H221394   2.906   0.514   6.269
 7151TIP3   OH221395   3.007   5.871   0.240
 7151TIP3    H121396   2.981   5.850   0.329
 7151TIP3    H221397   2.967   5.956   0.222
 7152TIP3   OH221398   5.133   5.729   2.635
 7152TIP3    H121399   5.049   5.768   2.611
 7152TIP3    H221400   5.199   5.784   2.592
 7153TIP3   OH221401   6.756   6.562   5.116
 7153TIP3    H121402   6.817   6.636   5.108
 7153TIP3    H221403   6.812   6.485   5.108
 7154TIP3   OH221404   7.737   4.856   3.645
 7154TIP3    H121405   7.719   4.897   3.730
 7154TIP3    H221406   7.823   4.890   3.620
 7155TIP3   OH221407   3.470   5.815   2.315
 7155TIP3    H121408   3.384   5.823   2.274
 7155TIP3    H221409   3.523   5.881   2.271
 7156TIP3   OH221410   2.855   0.274   2.230
 7156TIP3    H121411   2.786   0.286   2.295
 7156TIP3    H221412   2.813   0.227   2.158
 7157TIP3   OH221413   1.647   6.232   1.713
 7157TIP3    H121414   1.562   6.227   1.757
 7157TIP3    H221415   1.701   6.286   1.771
 7158TIP3   OH221416   3.956   2.255   6.284
 7158TIP3    H121417   4.030   2.268   6.343
 7158TIP3    H221418   3.941   2.341   6.245
 7159TIP3   OH221419   5.153   4.567   2.754
 7159TIP3    H121420   5.215   4.637   2.733
 7159TIP3    H221421   5.139   4.522   2.670
 7160TIP3   OH221422   1.791   0.948   5.397
 7160TIP3    H121423   1.771   1.008   5.469
 7160TIP3    H221424   1.726   0.968   5.330
 7161TIP3   OH221425   6.437   1.238   5.470
 7161TIP3    H121426   6.510   1.295   5.447
 7161TIP3    H221427   6.371   1.253   5.402
 7162TIP3   OH221428   0.981   0.636   5.703
 7162TIP3    H121429   0.900   0.620   5.752
 7162TIP3    H221430   1.045   0.660   5.770
 7163TIP3   OH221431   2.285   1.398   1.345
 7163TIP3    H121432   2.361   1.456   1.337
 7163TIP3    H221433   2.236   1.411   1.264
 7164TIP3   OH221434   7.449   1.899   4.013
 7164TIP3    H121435   7.532   1.938   3.987
 7164TIP3    H221436   7.445   1.816   3.965
 7165TIP3   OH221437   1.493   2.401   3.663
 7165TIP3    H121438   1.439   2.458   3.608
 7165TIP3    H221439   1.450   2.316   3.658
 7166TIP3   OH221440   5.456   1.904   0.026
 7166TIP3    H121441   5.402   1.864  -0.043
 7166TIP3    H221442   5.455   1.841   0.097
 7167TIP3   OH221443   6.161   5.065   2.581
 7167TIP3    H121444   6.221   5.100   2.515
 7167TIP3    H221445   6.202   5.089   2.664
 7168TIP3   OH221446   2.895   6.650   0.929
 7168TIP3    H121447   2.971   6.696   0.893
 7168TIP3    H221448   2.820   6.688   0.883
 7169TIP3   OH221449   1.925   1.881   0.191
 7169TIP3    H121450   1.890   1.799   0.226
 7169TIP3    H221451   2.011   1.857   0.157
 7170TIP3   OH221452   2.960   5.361   6.147
 7170TIP3    H121453   3.044   5.401   6.124
 7170TIP3    H221454   2.913   5.354   6.064
 7171TIP3   OH221455   1.751   2.728   1.869
 7171TIP3    H121456   1.668   2.724   1.916
 7171TIP3    H221457   1.730   2.702   1.779
 7172TIP3   OH221458   6.295   0.408   4.138
 7172TIP3    H121459   6.288   0.336   4.201
 7172TIP3    H221460   6.227   0.390   4.073
 7173TIP3   OH221461   4.984   5.115   1.704
 7173TIP3    H121462   5.076   5.092   1.690
 7173TIP3    H221463   4.938   5.078   1.629
 7174TIP3   OH221464   3.272   1.835   2.621
 7174TIP3    H121465   3.242   1.744   2.625
 7174TIP3    H221466   3.274   1.864   2.712
 7175TIP3   OH221467   6.434   0.049   0.340
 7175TIP3    H121468   6.465  -0.035   0.376
 7175TIP3    H221469   6.349   0.028   0.303
 7176TIP3   OH221470   5.030   6.362   6.652
 7176TIP3    H121471   5.050   6.425   6.583
 7176TIP3    H221472   5.104   6.369   6.713
 7177TIP3   OH221473   7.808   2.976   4.985
 7177TIP3    H121474   7.737   3.040   4.988
 7177TIP3    H221475   7.868   3.003   5.055
 7178TIP3   OH221476   7.435   3.047   5.962
 7178TIP3    H121477   7.492   3.006   6.027
 7178TIP3    H221478   7.455   3.141   5.968
 7179TIP3   OH221479   3.488   3.596   1.220
 7179TIP3    H121480   3.403   3.553   1.213
 7179TIP3    H221481   3.511   3.620   1.130
 7180TIP3   OH221482   7.657   2.685   5.523
 7180TIP3    H121483   7.659   2.756   5.459
 7180TIP3    H221484   7.717   2.619   5.488
 7181TIP3   OH221485   8.094   7.412   4.263
 7181TIP3    H121486   8.054   7.426   4.178
 7181TIP3    H221487   8.161   7.345   4.248
 7182TIP3   OH221488   3.857   7.477   5.714
 7182TIP3    H121489   3.795   7.415   5.677
 7182TIP3    H221490   3.914   7.424   5.770
 7183TIP3   OH221491   7.164   2.285   2.979
 7183TIP3    H121492   7.131   2.225   3.046
 7183TIP3    H221493   7.097   2.284   2.911
 7184TIP3   OH221494   0.441   6.063   6.234
 7184TIP3    H121495   0.409   6.010   6.161
 7184TIP3    H221496   0.363   6.102   6.271
 7185TIP3   OH221497   0.805   1.815   2.913
 7185TIP3    H121498   0.822   1.901   2.951
 7185TIP3    H221499   0.723   1.827   2.864
 7186TIP3   OH221500   7.281   2.012   3.803
 7186TIP3    H121501   7.307   1.993   3.893
 7186TIP3    H221502   7.360   1.993   3.752
 7187TIP3   OH221503   1.522   7.146   4.400
 7187TIP3    H121504   1.502   7.090   4.324
 7187TIP3    H221505   1.601   7.107   4.438
 7188TIP3   OH221506   5.220   3.148   2.785
 7188TIP3    H121507   5.153   3.149   2.717
 7188TIP3    H221508   5.178   3.187   2.862
 7189TIP3   OH221509   6.036   5.725   6.145
 7189TIP3    H121510   5.998   5.637   6.140
 7189TIP3    H221511   5.960   5.783   6.141
 7190TIP3   OH221512   4.171   1.373   3.626
 7190TIP3    H121513   4.254   1.324   3.626
 7190TIP3    H221514   4.155   1.392   3.718
 7191TIP3   OH221515   3.981   6.073   2.034
 7191TIP3    H121516   4.076   6.070   2.042
 7191TIP3    H221517   3.962   6.026   1.953
 7192TIP3   OH221518   1.072   1.926   4.642
 7192TIP3    H121519   1.029   1.840   4.646
 7192TIP3    H221520   1.053   1.965   4.727
 7193TIP3   OH221521   2.922   3.442   3.303
 7193TIP3    H121522   2.858   3.396   3.357
 7193TIP3    H221523   2.947   3.518   3.355
 7194TIP3   OH221524   1.104   5.119   6.070
 7194TIP3    H121525   1.136   5.090   5.985
 7194TIP3    H221526   1.010   5.129   6.058
 7195TIP3   OH221527   3.226   2.790   0.822
 7195TIP3    H121528   3.253   2.757   0.737
 7195TIP3    H221529   3.283   2.745   0.884
 7196TIP3   OH221530   5.063   6.188   1.204
 7196TIP3    H121531   5.153   6.160   1.222
 7196TIP3    H221532   5.010   6.108   1.215
 7197TIP3   OH221533   0.817   6.915   6.193
 7197TIP3    H121534   0.750   6.878   6.250
 7197TIP3    H221535   0.900   6.891   6.233
 7198TIP3   OH221536   2.149   1.118   3.657
 7198TIP3    H121537   2.240   1.123   3.628
 7198TIP3    H221538   2.150   1.151   3.747
 7199TIP3   OH221539   4.002   5.955   1.055
 7199TIP3    H121540   4.070   5.962   1.122
 7199TIP3    H221541   4.008   6.037   1.006
 7200TIP3   OH221542   5.525   4.982   1.714
 7200TIP3    H121543   5.498   4.978   1.806
 7200TIP3    H221544   5.576   4.902   1.701
 7201TIP3   OH221545   4.982   0.085   1.957
 7201TIP3    H121546   5.028   0.169   1.963
 7201TIP3    H221547   4.905   0.096   2.013
 7202TIP3   OH221548   8.283   0.651   1.763
 7202TIP3    H121549   8.233   0.599   1.826
 7202TIP3    H221550   8.219   0.676   1.696
 7203TIP3   OH221551   3.936   2.344   4.774
 7203TIP3    H121552   3.880   2.376   4.703
 7203TIP3    H221553   4.023   2.336   4.735
 7204TIP3   OH221554   2.390   5.359   1.496
 7204TIP3    H121555   2.303   5.326   1.518
 7204TIP3    H221556   2.408   5.425   1.563
 7205TIP3   OH221557   2.480   6.556   1.407
 7205TIP3    H121558   2.565   6.599   1.419
 7205TIP3    H221559   2.418   6.628   1.397
 7206TIP3   OH221560   0.914   4.217   3.245
 7206TIP3    H121561   0.839   4.275   3.257
 7206TIP3    H221562   0.891   4.163   3.169
 7207TIP3   OH221563   0.171   7.379   1.394
 7207TIP3    H121564   0.258   7.406   1.424
 7207TIP3    H221565   0.189   7.309   1.330
 7208TIP3   OH221566   7.786   5.598   4.474
 7208TIP3    H121567   7.841   5.533   4.518
 7208TIP3    H221568   7.733   5.636   4.543
 7209TIP3   OH221569   3.845   5.342   6.165
 7209TIP3    H121570   3.889   5.258   6.181
 7209TIP3    H221571   3.915   5.407   6.173
 7210TIP3   OH221572   2.670   7.725   4.477
 7210TIP3    H121573   2.728   7.799   4.499
 7210TIP3    H221574   2.619   7.711   4.557
 7211TIP3   OH221575   3.800   1.419   3.667
 7211TIP3    H121576   3.797   1.483   3.738
 7211TIP3    H221577   3.854   1.348   3.701
 7212TIP3   OH221578   4.879   6.735   1.240
 7212TIP3    H121579   4.856   6.824   1.266
 7212TIP3    H221580   4.863   6.682   1.319
 7213TIP3   OH221581   5.909   6.590   0.523
 7213TIP3    H121582   5.819   6.620   0.510
 7213TIP3    H221583   5.909   6.552   0.611
 7214TIP3   OH221584   6.274   1.609   6.499
 7214TIP3    H121585   6.226   1.538   6.456
 7214TIP3    H221586   6.352   1.622   6.445
 7215TIP3   OH221587   8.288   4.506   3.973
 7215TIP3    H121588   8.235   4.551   3.907
 7215TIP3    H221589   8.350   4.453   3.922
 7216TIP3   OH221590   4.005   1.129   4.487
 7216TIP3    H121591   4.014   1.188   4.562
 7216TIP3    H221592   4.014   1.041   4.525
 7217TIP3   OH221593   2.102   2.375   1.062
 7217TIP3    H121594   2.149   2.292   1.058
 7217TIP3    H221595   2.035   2.361   1.129
 7218TIP3   OH221596   8.144   5.932   0.671
 7218TIP3    H121597   8.057   5.924   0.632
 7218TIP3    H221598   8.134   5.898   0.759
 7219TIP3   OH221599   4.956   7.112   6.297
 7219TIP3    H121600   4.943   7.018   6.285
 7219TIP3    H221601   4.975   7.144   6.209
 7220TIP3   OH221602   3.474   6.198   6.075
 7220TIP3    H121603   3.559   6.206   6.119
 7220TIP3    H221604   3.496   6.178   5.984
 7221TIP3   OH221605   5.892   6.031   1.280
 7221TIP3    H121606   5.822   6.033   1.215
 7221TIP3    H221607   5.956   6.095   1.249
 7222TIP3   OH221608   0.938   1.895   6.123
 7222TIP3    H121609   0.862   1.870   6.176
 7222TIP3    H221610   1.014   1.878   6.179
 7223TIP3   OH221611   4.909   6.253   1.795
 7223TIP3    H121612   4.925   6.326   1.855
 7223TIP3    H221613   4.882   6.180   1.851
 7224TIP3   OH221614   3.882   0.040   4.689
 7224TIP3    H121615   3.969   0.064   4.658
 7224TIP3    H221616   3.843  -0.007   4.615
 7225TIP3   OH221617   3.406   2.182   0.889
 7225TIP3    H121618   3.480   2.179   0.949
 7225TIP3    H221619   3.446   2.192   0.803
 7226TIP3   OH221620   8.187   6.179   3.516
 7226TIP3    H121621   8.093   6.171   3.533
 7226TIP3    H221622   8.226   6.193   3.603
 7227TIP3   OH221623   2.546   5.671   6.262
 7227TIP3    H121624   2.500   5.619   6.327
 7227TIP3    H221625   2.626   5.621   6.244
 7228TIP3   OH221626   5.847   7.439   5.537
 7228TIP3    H121627   5.847   7.436   5.633
 7228TIP3    H221628   5.918   7.380   5.512
 7229TIP3   OH221629   5.519   6.492   5.341
 7229TIP3    H121630   5.592   6.509   5.401
 7229TIP3    H221631   5.558   6.441   5.270
 7230TIP3   OH221632   2.791   2.935   3.246
 7230TIP3    H121633   2.837   2.868   3.297
 7230TIP3    H221634   2.733   2.885   3.188
 7231TIP3   OH221635   5.899   1.284   4.694
 7231TIP3    H121636   5.974   1.255   4.746
 7231TIP3    H221637   5.823   1.249   4.741
 7232TIP3   OH221638   5.776   6.585   4.407
 7232TIP3    H121639   5.829   6.536   4.470
 7232TIP3    H221640   5.825   6.580   4.325
 7233TIP3   OH221641   7.785   4.620   2.979
 7233TIP3    H121642   7.803   4.526   2.979
 7233TIP3    H221643   7.699   4.628   3.020
 7234TIP3   OH221644   3.661   0.400   0.415
 7234TIP3    H121645   3.674   0.374   0.324
 7234TIP3    H221646   3.566   0.400   0.427
 7235TIP3   OH221647   0.690   3.801   4.338
 7235TIP3    H121648   0.715   3.804   4.430
 7235TIP3    H221649   0.767   3.836   4.291
 7236TIP3   OH221650   5.731   5.903   3.125
 7236TIP3    H121651   5.686   5.905   3.210
 7236TIP3    H221652   5.689   5.972   3.074
 7237TIP3   OH221653   3.965   5.978   3.594
 7237TIP3    H121654   4.041   6.034   3.577
 7237TIP3    H221655   3.956   5.978   3.689
 7238TIP3   OH221656   2.713   0.173   0.657
 7238TIP3    H121657   2.682   0.098   0.708
 7238TIP3    H221658   2.724   0.243   0.722
 7239TIP3   OH221659   0.317   2.805   1.364
 7239TIP3    H121660   0.340   2.779   1.275
 7239TIP3    H221661   0.255   2.737   1.393
 7240TIP3   OH221662   5.340   4.600   3.717
 7240TIP3    H121663   5.315   4.686   3.749
 7240TIP3    H221664   5.369   4.552   3.795
 7241TIP3   OH221665   0.795   0.669   2.475
 7241TIP3    H121666   0.788   0.579   2.444
 7241TIP3    H221667   0.889   0.684   2.486
 7242TIP3   OH221668   8.084   4.926   0.083
 7242TIP3    H121669   8.113   4.835   0.084
 7242TIP3    H221670   8.027   4.934   0.159
 7243TIP3   OH221671   0.087   1.413   5.450
 7243TIP3    H121672   0.155   1.400   5.517
 7243TIP3    H221673   0.089   1.507   5.433
 7244TIP3   OH221674   1.643   7.115   3.368
 7244TIP3    H121675   1.693   7.109   3.450
 7244TIP3    H221676   1.553   7.131   3.396
 7245TIP3   OH221677   5.437   5.530   5.018
 7245TIP3    H121678   5.465   5.596   4.954
 7245TIP3    H221679   5.375   5.476   4.970
 7246TIP3   OH221680   1.147   0.267   5.389
 7246TIP3    H121681   1.056   0.241   5.406
 7246TIP3    H221682   1.156   0.260   5.294
 7247TIP3   OH221683   0.031   4.680   5.668
 7247TIP3    H121684   0.122   4.671   5.694
 7247TIP3    H221685  -0.010   4.726   5.741
 7248TIP3   OH221686   3.105   5.884   4.840
 7248TIP3    H121687   3.030   5.940   4.863
 7248TIP3    H221688   3.075   5.795   4.857
 7249TIP3   OH221689   3.776   2.761   3.480
 7249TIP3    H121690   3.840   2.780   3.549
 7249TIP3    H221691   3.736   2.846   3.461
 7250TIP3   OH221692   4.846   5.645   2.017
 7250TIP3    H121693   4.757   5.612   2.030
 7250TIP3    H221694   4.903   5.572   2.040
 7251TIP3   OH221695   2.375   6.841   2.941
 7251TIP3    H121696   2.342   6.931   2.938
 7251TIP3    H221697   2.447   6.844   3.004
 7252TIP3   OH221698   3.032   0.161   5.135
 7252TIP3    H121699   3.098   0.214   5.179
 7252TIP3    H221700   3.069   0.073   5.130
 7253TIP3   OH221701   1.164   6.752   1.413
 7253TIP3    H121702   1.134   6.670   1.451
 7253TIP3    H221703   1.113   6.819   1.457
 7254TIP3   OH221704   8.035   1.272   4.332
 7254TIP3    H121705   8.082   1.236   4.256
 7254TIP3    H221706   8.077   1.230   4.407
 7255TIP3   OH221707   3.704   2.027   5.192
 7255TIP3    H121708   3.685   1.935   5.208
 7255TIP3    H221709   3.703   2.036   5.097
 7256TIP3   OH221710   4.775   3.401   3.259
 7256TIP3    H121711   4.758   3.337   3.328
 7256TIP3    H221712   4.754   3.355   3.177
 7257TIP3   OH221713   6.587   7.373   5.724
 7257TIP3    H121714   6.672   7.407   5.752
 7257TIP3    H221715   6.599   7.278   5.719
 7258TIP3   OH221716   6.683   4.641   5.191
 7258TIP3    H121717   6.772   4.676   5.179
 7258TIP3    H221718   6.631   4.687   5.125
 7259TIP3   OH221719   4.764   1.043   4.293
 7259TIP3    H121720   4.685   0.993   4.275
 7259TIP3    H221721   4.796   1.070   4.207
 7260TIP3   OH221722   3.076   7.356   4.498
 7260TIP3    H121723   3.107   7.322   4.582
 7260TIP3    H221724   2.998   7.407   4.521
 7261TIP3   OH221725   4.479   2.081   3.260
 7261TIP3    H121726   4.543   2.010   3.255
 7261TIP3    H221727   4.400   2.040   3.294
 7262TIP3   OH221728   2.350   3.897   2.695
 7262TIP3    H121729   2.347   3.833   2.624
 7262TIP3    H221730   2.431   3.945   2.680
 7263TIP3   OH221731   5.593   5.437   3.655
 7263TIP3    H121732   5.641   5.392   3.585
 7263TIP3    H221733   5.640   5.520   3.665
 7264TIP3   OH221734   3.124   4.487   3.203
 7264TIP3    H121735   3.205   4.503   3.154
 7264TIP3    H221736   3.079   4.419   3.153
 7265TIP3   OH221737   0.288   6.203   2.571
 7265TIP3    H121738   0.307   6.264   2.642
 7265TIP3    H221739   0.234   6.253   2.510
 7266TIP3   OH221740   1.829   1.524   4.941
 7266TIP3    H121741   1.785   1.443   4.915
 7266TIP3    H221742   1.830   1.578   4.862
 7267TIP3   OH221743   7.418   2.832   2.068
 7267TIP3    H121744   7.485   2.899   2.052
 7267TIP3    H221745   7.453   2.753   2.028
 7268TIP3   OH221746   4.886   7.350   1.595
 7268TIP3    H121747   4.967   7.301   1.579
 7268TIP3    H221748   4.874   7.346   1.690
 7269TIP3   OH221749   5.358   7.183   3.527
 7269TIP3    H121750   5.294   7.166   3.458
 7269TIP3    H221751   5.427   7.119   3.513
 7270TIP3   OH221752   7.169   0.441   5.323
 7270TIP3    H121753   7.209   0.363   5.361
 7270TIP3    H221754   7.077   0.419   5.315
 7271TIP3   OH221755   6.364   7.162   1.887
 7271TIP3    H121756   6.323   7.213   1.958
 7271TIP3    H221757   6.306   7.086   1.876
 7272TIP3   OH221758   3.700   3.872   0.221
 7272TIP3    H121759   3.733   3.785   0.197
 7272TIP3    H221760   3.750   3.896   0.299
 7273TIP3   OH221761   7.364   5.083   0.604
 7273TIP3    H121762   7.355   5.025   0.680
 7273TIP3    H221763   7.323   5.165   0.631
 7274TIP3   OH221764   3.579   3.723   6.608
 7274TIP3    H121765   3.635   3.758   6.539
 7274TIP3    H221766   3.597   3.629   6.608
 7275TIP3   OH221767   3.609   0.840   1.173
 7275TIP3    H121768   3.664   0.906   1.132
 7275TIP3    H221769   3.564   0.886   1.243
 7276TIP3   OH221770   3.875   3.055   4.534
 7276TIP3    H121771   3.957   3.047   4.582
 7276TIP3    H221772   3.884   2.992   4.461
 7277TIP3   OH221773   2.249   5.776   6.523
 7277TIP3    H121774   2.257   5.868   6.496
 7277TIP3    H221775   2.299   5.771   6.605
 7278TIP3   OH221776   0.796   1.109   2.241
 7278TIP3    H121777   0.841   1.079   2.320
 7278TIP3    H221778   0.781   1.203   2.257
 7279TIP3   OH221779   4.932   1.495   0.126
 7279TIP3    H121780   4.842   1.506   0.157
 7279TIP3    H221781   4.984   1.488   0.206
 7280TIP3   OH221782   4.835   1.606   6.039
 7280TIP3    H121783   4.924   1.582   6.013
 7280TIP3    H221784   4.812   1.543   6.107
 7281TIP3   OH221785   3.361   5.907   6.643
 7281TIP3    H121786   3.279   5.940   6.606
 7281TIP3    H221787   3.380   5.965   6.716
 7282TIP3   OH221788   0.334   2.136   5.353
 7282TIP3    H121789   0.376   2.139   5.268
 7282TIP3    H221790   0.320   2.042   5.370
 7283TIP3   OH221791   0.571   0.632   1.995
 7283TIP3    H121792   0.665   0.648   1.988
 7283TIP3    H221793   0.540   0.698   2.056
 7284TIP3   OH221794   2.129   5.603   6.292
 7284TIP3    H121795   2.113   5.664   6.220
 7284TIP3    H221796   2.175   5.655   6.357
 7285TIP3   OH221797   4.736   3.626   3.098
 7285TIP3    H121798   4.724   3.576   3.178
 7285TIP3    H221799   4.758   3.561   3.032
 7286TIP3   OH221800   6.691   0.925   5.891
 7286TIP3    H121801   6.719   1.006   5.849
 7286TIP3    H221802   6.605   0.945   5.927
 7287TIP3   OH221803   2.351   3.020   0.607
 7287TIP3    H121804   2.390   3.056   0.527
 7287TIP3    H221805   2.422   3.020   0.671
 7288TIP3   OH221806   4.920   6.497   2.679
 7288TIP3    H121807   4.831   6.530   2.674
 7288TIP3    H221808   4.910   6.406   2.708
 7289TIP3   OH221809   6.112   5.637   1.915
 7289TIP3    H121810   6.038   5.586   1.949
 7289TIP3    H221811   6.186   5.612   1.970
 7290TIP3   OH221812   6.384   0.999   6.414
 7290TIP3    H121813   6.421   0.986   6.502
 7290TIP3    H221814   6.358   0.911   6.386
 7291TIP3   OH221815   7.696   6.637   1.971
 7291TIP3    H121816   7.727   6.578   2.040
 7291TIP3    H221817   7.608   6.662   2.000
 7292TIP3   OH221818   7.828   5.376   3.143
 7292TIP3    H121819   7.858   5.291   3.109
 7292TIP3    H221820   7.753   5.399   3.088
 7293TIP3   OH221821   4.739   4.117   3.813
 7293TIP3    H121822   4.804   4.047   3.802
 7293TIP3    H221823   4.689   4.116   3.731
 7294TIP3   OH221824   4.340   6.496   0.841
 7294TIP3    H121825   4.422   6.529   0.804
 7294TIP3    H221826   4.337   6.404   0.814
 7295TIP3   OH221827   0.182   3.530   0.127
 7295TIP3    H121828   0.194   3.491   0.214
 7295TIP3    H221829   0.088   3.547   0.121
 7296TIP3   OH221830   6.945   3.332   4.957
 7296TIP3    H121831   6.851   3.315   4.951
 7296TIP3    H221832   6.978   3.320   4.868
 7297TIP3   OH221833   2.748   1.630   0.343
 7297TIP3    H121834   2.805   1.701   0.313
 7297TIP3    H221835   2.661   1.669   0.347
 7298TIP3   OH221836   6.900   6.477   1.842
 7298TIP3    H121837   6.946   6.559   1.865
 7298TIP3    H221838   6.954   6.439   1.773
 7299TIP3   OH221839  -0.009   5.480   3.858
 7299TIP3    H121840   0.019   5.505   3.946
 7299TIP3    H221841   0.071   5.479   3.806
 7300TIP3   OH221842   5.356   2.091   5.700
 7300TIP3    H121843   5.318   2.038   5.630
 7300TIP3    H221844   5.449   2.071   5.697
 7301TIP3   OH221845   1.200   1.419   4.786
 7301TIP3    H121846   1.246   1.386   4.708
 7301TIP3    H221847   1.269   1.433   4.850
 7302TIP3   OH221848   2.718   5.718   1.140
 7302TIP3    H121849   2.721   5.643   1.199
 7302TIP3    H221850   2.644   5.770   1.170
 7303TIP3   OH221851   7.082   5.193   6.374
 7303TIP3    H121852   7.078   5.121   6.437
 7303TIP3    H221853   7.175   5.201   6.353
 7304TIP3   OH221854   6.718   3.885   3.192
 7304TIP3    H121855   6.723   3.973   3.154
 7304TIP3    H221856   6.724   3.826   3.116
 7305TIP3   OH221857   1.333   4.169   6.482
 7305TIP3    H121858   1.423   4.202   6.480
 7305TIP3    H221859   1.342   4.075   6.498
 7306TIP3   OH221860   6.332   2.569   3.946
 7306TIP3    H121861   6.372   2.649   3.913
 7306TIP3    H221862   6.378   2.550   4.027
 7307TIP3   OH221863   6.525   5.886   1.315
 7307TIP3    H121864   6.566   5.882   1.401
 7307TIP3    H221865   6.476   5.969   1.316
 7308TIP3   OH221866   0.400   3.826   1.647
 7308TIP3    H121867   0.386   3.739   1.611
 7308TIP3    H221868   0.438   3.876   1.574
 7309TIP3   OH221869   4.358   4.486   5.624
 7309TIP3    H121870   4.397   4.446   5.701
 7309TIP3    H221871   4.269   4.508   5.651
 7310TIP3   OH221872   1.480   4.073   5.306
 7310TIP3    H121873   1.439   3.988   5.291
 7310TIP3    H221874   1.493   4.110   5.219
 7311TIP3   OH221875   3.165   3.284   0.156
 7311TIP3    H121876   3.128   3.200   0.185
 7311TIP3    H221877   3.145   3.345   0.228
 7312TIP3   OH221878   5.086   0.293   5.039
 7312TIP3    H121879   5.111   0.209   5.079
 7312TIP3    H221880   5.045   0.342   5.111
 7313TIP3   OH221881   8.236   0.342   2.278
 7313TIP3    H121882   8.227   0.248   2.265
 7313TIP3    H221883   8.202   0.358   2.366
 7314TIP3   OH221884   6.690   2.582   2.742
 7314TIP3    H121885   6.700   2.589   2.837
 7314TIP3    H221886   6.741   2.656   2.708
 7315TIP3   OH221887   7.414   5.472   4.994
 7315TIP3    H121888   7.326   5.500   4.970
 7315TIP3    H221889   7.449   5.433   4.914
 7316TIP3   OH221890   7.290   0.783   3.931
 7316TIP3    H121891   7.367   0.740   3.968
 7316TIP3    H221892   7.319   0.813   3.844
 7317TIP3   OH221893   1.813   7.603   2.262
 7317TIP3    H121894   1.816   7.519   2.307
 7317TIP3    H221895   1.901   7.640   2.274
 7318TIP3   OH221896   3.157   2.653   1.852
 7318TIP3    H121897   3.103   2.710   1.798
 7318TIP3    H221898   3.098   2.584   1.881
 7319TIP3   OH221899   0.575   7.373   6.189
 7319TIP3    H121900   0.494   7.425   6.189
 7319TIP3    H221901   0.594   7.358   6.097
 7320TIP3   OH221902   0.709   3.758   4.952
 7320TIP3    H121903   0.659   3.837   4.969
 7320TIP3    H221904   0.778   3.758   5.018
 7321TIP3   OH221905   8.190   6.387   2.566
 7321TIP3    H121906   8.221   6.434   2.644
 7321TIP3    H221907   8.102   6.421   2.551
 7322TIP3   OH221908   6.682   5.923   5.576
 7322TIP3    H121909   6.651   5.855   5.635
 7322TIP3    H221910   6.724   5.876   5.504
 7323TIP3   OH221911   7.806   3.457   3.733
 7323TIP3    H121912   7.738   3.462   3.666
 7323TIP3    H221913   7.766   3.495   3.811
 7324TIP3   OH221914   7.748   4.020   2.509
 7324TIP3    H121915   7.765   3.964   2.433
 7324TIP3    H221916   7.696   3.965   2.568
 7325TIP3   OH221917   0.621   5.887   6.401
 7325TIP3    H121918   0.577   5.961   6.360
 7325TIP3    H221919   0.637   5.825   6.330
 7326TIP3   OH221920   4.648   6.746   6.693
 7326TIP3    H121921   4.607   6.661   6.674
 7326TIP3    H221922   4.586   6.811   6.660
 7327TIP3   OH221923   8.248   3.551   5.863
 7327TIP3    H121924   8.184   3.525   5.929
 7327TIP3    H221925   8.298   3.471   5.845
 7328TIP3   OH221926   7.486   3.189   0.272
 7328TIP3    H121927   7.523   3.158   0.189
 7328TIP3    H221928   7.392   3.172   0.264
 7329TIP3   OH221929   7.795   4.221   0.237
 7329TIP3    H121930   7.838   4.239   0.320
 7329TIP3    H221931   7.713   4.178   0.261
 7330TIP3   OH221932   7.116   7.177   6.251
 7330TIP3    H121933   7.121   7.155   6.158
 7330TIP3    H221934   7.100   7.272   6.253
 7331TIP3   OH221935   1.557   2.845   1.155
 7331TIP3    H121936   1.482   2.858   1.214
 7331TIP3    H221937   1.634   2.852   1.212
 7332TIP3   OH221938   1.761   6.840   3.457
 7332TIP3    H121939   1.715   6.860   3.375
 7332TIP3    H221940   1.719   6.760   3.489
 7333TIP3   OH221941   4.892   4.670   1.556
 7333TIP3    H121942   4.902   4.693   1.649
 7333TIP3    H221943   4.913   4.752   1.510
 7334TIP3   OH221944   4.301   6.041   4.008
 7334TIP3    H121945   4.369   6.056   3.942
 7334TIP3    H221946   4.349   6.013   4.086
 7335TIP3   OH221947   2.289   5.315   5.786
 7335TIP3    H121948   2.381   5.342   5.780
 7335TIP3    H221949   2.268   5.323   5.878
 7336TIP3   OH221950   3.486   4.714   0.244
 7336TIP3    H121951   3.399   4.674   0.246
 7336TIP3    H221952   3.534   4.666   0.177
 7337TIP3   OH221953   1.177   4.139   2.877
 7337TIP3    H121954   1.261   4.180   2.856
 7337TIP3    H221955   1.117   4.174   2.811
 7338TIP3   OH221956   3.375   2.752   3.510
 7338TIP3    H121957   3.341   2.821   3.568
 7338TIP3    H221958   3.330   2.766   3.427
 7339TIP3   OH221959   2.217   0.303   1.531
 7339TIP3    H121960   2.157   0.242   1.488
 7339TIP3    H221961   2.245   0.257   1.610
 7340TIP3   OH221962   3.919   0.795   1.429
 7340TIP3    H121963   3.950   0.764   1.345
 7340TIP3    H221964   3.831   0.759   1.438
 7341TIP3   OH221965   4.819   4.153   2.045
 7341TIP3    H121966   4.902   4.108   2.030
 7341TIP3    H221967   4.839   4.246   2.030
 7342TIP3   OH221968   1.449   3.854   4.418
 7342TIP3    H121969   1.497   3.924   4.462
 7342TIP3    H221970   1.510   3.781   4.413
 7343TIP3   OH221971   1.805   5.065   4.389
 7343TIP3    H121972   1.760   4.983   4.407
 7343TIP3    H221973   1.823   5.062   4.295
 7344TIP3   OH221974   2.506   1.037   1.349
 7344TIP3    H121975   2.481   1.103   1.414
 7344TIP3    H221976   2.430   1.031   1.291
 7345TIP3   OH221977   6.285   4.505   1.549
 7345TIP3    H121978   6.283   4.601   1.551
 7345TIP3    H221979   6.228   4.479   1.621
 7346TIP3   OH221980   4.546   0.722   3.970
 7346TIP3    H121981   4.615   0.663   3.999
 7346TIP3    H221982   4.529   0.697   3.879
 7347TIP3   OH221983   0.387   6.811   5.666
 7347TIP3    H121984   0.335   6.784   5.742
 7347TIP3    H221985   0.396   6.732   5.614
 7348TIP3   OH221986   0.325   1.935   3.675
 7348TIP3    H121987   0.232   1.935   3.699
 7348TIP3    H221988   0.332   2.003   3.608
 7349TIP3   OH221989   2.227   6.875   5.559
 7349TIP3    H121990   2.140   6.915   5.560
 7349TIP3    H221991   2.215   6.792   5.512
 7350TIP3   OH221992   7.435   1.467   6.266
 7350TIP3    H121993   7.530   1.467   6.257
 7350TIP3    H221994   7.408   1.557   6.250
 7351TIP3   OH221995   6.616   3.709   2.383
 7351TIP3    H121996   6.697   3.723   2.335
 7351TIP3    H221997   6.574   3.636   2.339
 7352TIP3   OH221998   0.057   0.795   6.690
 7352TIP3    H121999   0.079   0.777   6.782
 7352TIP3    H222000   0.138   0.779   6.642
 7353TIP3   OH222001   7.181   1.919   6.452
 7353TIP3    H122002   7.142   1.857   6.391
 7353TIP3    H222003   7.230   1.980   6.396
 7354TIP3   OH222004   4.843   1.425   6.246
 7354TIP3    H122005   4.765   1.383   6.284
 7354TIP3    H222006   4.909   1.356   6.245
 7355TIP3   OH222007   3.921   0.596   3.796
 7355TIP3    H122008   3.940   0.551   3.713
 7355TIP3    H222009   4.006   0.604   3.839
 7356TIP3   OH222010   5.706   0.401   6.390
 7356TIP3    H122011   5.734   0.418   6.300
 7356TIP3    H222012   5.659   0.318   6.386
 7357TIP3   OH222013   7.147   6.477   1.348
 7357TIP3    H122014   7.065   6.522   1.326
 7357TIP3    H222015   7.131   6.385   1.324
 7358TIP3   OH222016   4.429   6.532   1.709
 7358TIP3    H122017   4.506   6.589   1.704
 7358TIP3    H222018   4.462   6.453   1.753
 7359TIP3   OH222019   3.089   6.154   4.035
 7359TIP3    H122020   3.167   6.205   4.059
 7359TIP3    H222021   3.022   6.181   4.098
 7360TIP3   OH222022   6.170   3.002   4.481
 7360TIP3    H122023   6.162   2.943   4.555
 7360TIP3    H222024   6.081   3.028   4.460
 7361TIP3   OH222025   7.095   6.865   6.373
 7361TIP3    H122026   7.031   6.870   6.444
 7361TIP3    H222027   7.116   6.772   6.365
 7362TIP3   OH222028   3.083   0.023   3.622
 7362TIP3    H122029   3.088   0.016   3.717
 7362TIP3    H222030   2.990   0.037   3.604
 7363TIP3   OH222031   3.920   0.172   3.340
 7363TIP3    H122032   4.013   0.155   3.326
 7363TIP3    H222033   3.909   0.168   3.435
 7364TIP3   OH222034   0.495   2.281   1.709
 7364TIP3    H122035   0.556   2.215   1.742
 7364TIP3    H222036   0.504   2.278   1.614
 7365TIP3   OH222037   4.826   0.351   1.912
 7365TIP3    H122038   4.901   0.307   1.873
 7365TIP3    H222039   4.858   0.383   1.996
 7366TIP3   OH222040   7.316   4.303   1.032
 7366TIP3    H122041   7.273   4.232   0.985
 7366TIP3    H222042   7.402   4.311   0.991
 7367TIP3   OH222043   1.122   6.580   0.046
 7367TIP3    H122044   1.216   6.578   0.028
 7367TIP3    H222045   1.087   6.641  -0.019
 7368TIP3   OH222046   4.842   6.484   1.959
 7368TIP3    H122047   4.924   6.527   1.933
 7368TIP3    H222048   4.774   6.547   1.935
 7369TIP3   OH222049   8.015   3.173   4.546
 7369TIP3    H122050   8.007   3.091   4.498
 7369TIP3    H222051   8.002   3.149   4.638
 7370TIP3   OH222052   7.773   3.868   2.303
 7370TIP3    H122053   7.821   3.901   2.228
 7370TIP3    H222054   7.803   3.778   2.313
 7371TIP3   OH222055   4.546   6.234   5.101
 7371TIP3    H122056   4.546   6.151   5.148
 7371TIP3    H222057   4.463   6.235   5.053
 7372TIP3   OH222058   1.797   1.968   2.684
 7372TIP3    H122059   1.787   2.022   2.606
 7372TIP3    H222060   1.817   1.880   2.651
 7373TIP3   OH222061   3.936   4.242   4.265
 7373TIP3    H122062   3.875   4.186   4.313
 7373TIP3    H222063   3.951   4.317   4.323
 7374TIP3   OH222064   2.597   2.206   2.713
 7374TIP3    H122065   2.661   2.227   2.781
 7374TIP3    H222066   2.513   2.235   2.749
 7375TIP3   OH222067   7.647   1.086   6.129
 7375TIP3    H122068   7.693   1.097   6.212
 7375TIP3    H222069   7.556   1.069   6.154
 7376TIP3   OH222070   6.862   5.689   1.752
 7376TIP3    H122071   6.792   5.681   1.817
 7376TIP3    H222072   6.905   5.603   1.753
 7377TIP3   OH222073   4.939   3.349   6.779
 7377TIP3    H122074   4.907   3.331   6.690
 7377TIP3    H222075   5.019   3.297   6.786
 7378TIP3   OH222076   1.075   5.280   3.071
 7378TIP3    H122077   1.045   5.355   3.019
 7378TIP3    H222078   1.164   5.263   3.040
 7379TIP3   OH222079   0.803   1.330   3.516
 7379TIP3    H122080   0.886   1.316   3.563
 7379TIP3    H222081   0.740   1.274   3.560
 7380TIP3   OH222082   4.662   1.228   4.032
 7380TIP3    H122083   4.614   1.163   4.083
 7380TIP3    H222084   4.754   1.202   4.040
 7381TIP3   OH222085   7.184   1.918   5.288
 7381TIP3    H122086   7.195   1.944   5.380
 7381TIP3    H222087   7.218   1.992   5.238
 7382TIP3   OH222088   2.806   3.488   1.763
 7382TIP3    H122089   2.863   3.484   1.686
 7382TIP3    H222090   2.848   3.432   1.827
 7383TIP3   OH222091   5.489   2.745   5.223
 7383TIP3    H122092   5.425   2.727   5.291
 7383TIP3    H222093   5.506   2.660   5.183
 7384TIP3   OH222094   1.545   6.748   3.849
 7384TIP3    H122095   1.461   6.704   3.844
 7384TIP3    H222096   1.584   6.717   3.931
 7385TIP3   OH222097   6.665   2.791   1.306
 7385TIP3    H122098   6.703   2.875   1.332
 7385TIP3    H222099   6.583   2.786   1.354
 7386TIP3   OH222100   2.908   5.687   5.946
 7386TIP3    H122101   2.928   5.613   5.889
 7386TIP3    H222102   2.973   5.753   5.921
 7387TIP3   OH222103   4.918   5.042   0.395
 7387TIP3    H122104   4.963   5.109   0.344
 7387TIP3    H222105   4.874   4.988   0.329
 7388TIP3   OH222106   6.363   5.169   1.707
 7388TIP3    H122107   6.278   5.131   1.688
 7388TIP3    H222108   6.424   5.123   1.648
 7389TIP3   OH222109   1.239   4.629   6.189
 7389TIP3    H122110   1.175   4.675   6.135
 7389TIP3    H222111   1.188   4.561   6.233
 7390TIP3   OH222112   8.305   4.471   3.570
 7390TIP3    H122113   8.281   4.427   3.489
 7390TIP3    H222114   8.260   4.555   3.566
 7391TIP3   OH222115   5.441   2.847   4.736
 7391TIP3    H122116   5.394   2.925   4.766
 7391TIP3    H222117   5.481   2.873   4.653
 7392TIP3   OH222118   0.074   2.372   6.287
 7392TIP3    H122119   0.020   2.427   6.230
 7392TIP3    H222120   0.014   2.340   6.354
 7393TIP3   OH222121   3.351   2.724   1.058
 7393TIP3    H122122   3.411   2.720   1.132
 7393TIP3    H222123   3.267   2.694   1.093
 7394TIP3   OH222124   6.603   3.223   0.995
 7394TIP3    H122125   6.561   3.276   0.926
 7394TIP3    H222126   6.539   3.155   1.015
 7395TIP3   OH222127   7.310   1.417   4.459
 7395TIP3    H122128   7.286   1.405   4.367
 7395TIP3    H222129   7.241   1.372   4.508
 7396TIP3   OH222130   3.337   7.744   4.140
 7396TIP3    H122131   3.410   7.683   4.152
 7396TIP3    H222132   3.310   7.768   4.229
 7397TIP3   OH222133   6.216   1.576   0.250
 7397TIP3    H122134   6.172   1.503   0.294
 7397TIP3    H222135   6.308   1.568   0.275
 7398TIP3   OH222136   7.421   0.715   4.507
 7398TIP3    H122137   7.330   0.736   4.486
 7398TIP3    H222138   7.427   0.620   4.494
 7399TIP3   OH222139   0.894   1.713   0.687
 7399TIP3    H122140   0.828   1.687   0.623
 7399TIP3    H222141   0.856   1.790   0.730
 7400TIP3   OH222142   8.248   2.601   6.202
 7400TIP3    H122143   8.283   2.669   6.144
 7400TIP3    H222144   8.185   2.648   6.257
 7401TIP3   OH222145   3.604   2.435   1.913
 7401TIP3    H122146   3.560   2.504   1.963
 7401TIP3    H222147   3.694   2.465   1.902
 7402TIP3   OH222148   3.548   5.141   5.000
 7402TIP3    H122149   3.625   5.142   4.943
 7402TIP3    H222150   3.584   5.159   5.087
 7403TIP3   OH222151   3.004   0.754   6.281
 7403TIP3    H122152   3.039   0.762   6.192
 7403TIP3    H222153   3.073   0.708   6.329
 7404TIP3   OH222154   0.397   3.892   2.771
 7404TIP3    H122155   0.302   3.886   2.761
 7404TIP3    H222156   0.419   3.833   2.843
 7405TIP3   OH222157   4.377   0.643   4.174
 7405TIP3    H122158   4.359   0.552   4.196
 7405TIP3    H222159   4.425   0.639   4.092
 7406TIP3   OH222160   5.812   3.194   3.678
 7406TIP3    H122161   5.801   3.251   3.754
 7406TIP3    H222162   5.789   3.248   3.603
 7407TIP3   OH222163   8.117   0.275   5.520
 7407TIP3    H122164   8.187   0.255   5.458
 7407TIP3    H222165   8.159   0.267   5.606
 7408TIP3   OH222166   0.390   0.466   1.020
 7408TIP3    H122167   0.323   0.510   0.968
 7408TIP3    H222168   0.459   0.531   1.030
 7409TIP3   OH222169   5.334   5.338   5.699
 7409TIP3    H122170   5.328   5.413   5.640
 7409TIP3    H222171   5.317   5.374   5.786
 7410TIP3   OH222172   5.824   7.784   5.930
 7410TIP3    H122173   5.807   7.815   5.841
 7410TIP3    H222174   5.912   7.746   5.926
 7411TIP3   OH222175   5.702   5.567   6.354
 7411TIP3    H122176   5.703   5.479   6.315
 7411TIP3    H222177   5.773   5.565   6.418
 7412TIP3   OH222178   2.070   4.813   4.166
 7412TIP3    H122179   2.148   4.758   4.166
 7412TIP3    H222180   2.020   4.786   4.089
 7413TIP3   OH222181   3.779   3.954   3.815
 7413TIP3    H122182   3.741   3.997   3.891
 7413TIP3    H222183   3.725   3.876   3.801
 7414TIP3   OH222184   4.022   5.398   6.467
 7414TIP3    H122185   4.066   5.319   6.435
 7414TIP3    H222186   4.067   5.419   6.549
 7415TIP3   OH222187   2.701   7.846   3.423
 7415TIP3    H122188   2.735   7.810   3.341
 7415TIP3    H222189   2.700   7.772   3.484
 7416TIP3   OH222190   4.386   3.907   0.125
 7416TIP3    H122191   4.353   3.945   0.044
 7416TIP3    H222192   4.333   3.828   0.138
 7417TIP3   OH222193   4.963   2.997   4.071
 7417TIP3    H122194   4.912   3.045   4.136
 7417TIP3    H222195   5.029   2.950   4.122
 7418TIP3   OH222196   1.828   7.111   0.311
 7418TIP3    H122197   1.779   7.144   0.387
 7418TIP3    H222198   1.771   7.129   0.237
 7419TIP3   OH222199   2.916   4.851   4.953
 7419TIP3    H122200   2.937   4.788   4.883
 7419TIP3    H222201   2.982   4.834   5.020
 7420TIP3   OH222202   1.723   7.168   2.907
 7420TIP3    H122203   1.757   7.141   2.992
 7420TIP3    H222204   1.742   7.093   2.849
 7421TIP3   OH222205   4.606   3.983   6.057
 7421TIP3    H122206   4.568   4.031   5.983
 7421TIP3    H222207   4.613   3.893   6.025
 7422TIP3   OH222208   4.281   7.355   5.570
 7422TIP3    H122209   4.242   7.416   5.632
 7422TIP3    H222210   4.323   7.411   5.504
 7423TIP3   OH222211   4.219   1.631   5.434
 7423TIP3    H122212   4.310   1.607   5.418
 7423TIP3    H222213   4.186   1.660   5.349
 7424TIP3   OH222214   0.137   6.293   5.001
 7424TIP3    H122215   0.158   6.386   5.006
 7424TIP3    H222216   0.095   6.282   4.915
 7425TIP3   OH222217   7.658   7.338   0.301
 7425TIP3    H122218   7.717   7.413   0.301
 7425TIP3    H222219   7.710   7.267   0.264
 7426TIP3   OH222220   7.211   1.510   5.344
 7426TIP3    H122221   7.282   1.453   5.314
 7426TIP3    H222222   7.208   1.497   5.439
 7427TIP3   OH222223   3.173   0.850   4.815
 7427TIP3    H122224   3.266   0.858   4.839
 7427TIP3    H222225   3.174   0.840   4.720
 7428TIP3   OH222226   4.179   6.309   0.549
 7428TIP3    H122227   4.189   6.234   0.490
 7428TIP3    H222228   4.256   6.305   0.606
 7429TIP3   OH222229   0.986   6.518   6.601
 7429TIP3    H122230   1.014   6.586   6.662
 7429TIP3    H222231   1.043   6.528   6.525
 7430TIP3   OH222232   5.995   5.014   2.276
 7430TIP3    H122233   6.055   4.981   2.208
 7430TIP3    H222234   5.989   4.942   2.339
 7431TIP3   OH222235   0.877   5.182   4.072
 7431TIP3    H122236   0.871   5.088   4.055
 7431TIP3    H222237   0.901   5.221   3.988
 7432TIP3   OH222238   7.227   0.262   1.481
 7432TIP3    H122239   7.296   0.256   1.547
 7432TIP3    H222240   7.146   0.269   1.531
 7433TIP3   OH222241   2.257   7.152   6.656
 7433TIP3    H122242   2.319   7.205   6.706
 7433TIP3    H222243   2.202   7.110   6.723
 7434TIP3   OH222244   3.437   5.100   5.345
 7434TIP3    H122245   3.463   5.181   5.390
 7434TIP3    H222246   3.368   5.063   5.399
 7435TIP3   OH222247   4.948   7.697   5.258
 7435TIP3    H122248   5.021   7.715   5.199
 7435TIP3    H222249   4.881   7.761   5.233
 7436TIP3   OH222250   4.650   1.597   3.031
 7436TIP3    H122251   4.740   1.628   3.029
 7436TIP3    H222252   4.605   1.652   2.967
 7437TIP3   OH222253   4.769   3.414   3.658
 7437TIP3    H122254   4.702   3.466   3.702
 7437TIP3    H222255   4.849   3.466   3.664
 7438TIP3   OH222256   4.960   5.469   4.316
 7438TIP3    H122257   5.032   5.497   4.371
 7438TIP3    H222258   5.000   5.415   4.248
 7439TIP3   OH222259   1.436   3.795   3.182
 7439TIP3    H122260   1.513   3.831   3.226
 7439TIP3    H222261   1.463   3.783   3.092
 7440TIP3   OH222262   0.914   4.477   6.114
 7440TIP3    H122263   0.839   4.536   6.104
 7440TIP3    H222264   0.974   4.501   6.044
 7441TIP3   OH222265   7.610   1.146   6.560
 7441TIP3    H122266   7.659   1.090   6.500
 7441TIP3    H222267   7.633   1.235   6.533
 7442TIP3   OH222268   5.252   4.685   5.987
 7442TIP3    H122269   5.162   4.657   5.974
 7442TIP3    H222270   5.296   4.609   6.025
 7443TIP3   OH222271   5.305   1.144   5.341
 7443TIP3    H122272   5.236   1.093   5.297
 7443TIP3    H222273   5.290   1.130   5.434
 7444TIP3   OH222274   5.818   4.744   2.110
 7444TIP3    H122275   5.860   4.712   2.190
 7444TIP3    H222276   5.745   4.684   2.096
 7445TIP3   OH222277   5.633   4.369   4.617
 7445TIP3    H122278   5.678   4.287   4.636
 7445TIP3    H222279   5.621   4.369   4.523
 7446TIP3   OH222280   1.000   2.689   3.424
 7446TIP3    H122281   1.022   2.629   3.496
 7446TIP3    H222282   1.073   2.679   3.362
 7447TIP3   OH222283   4.183   0.110   3.236
 7447TIP3    H122284   4.209   0.078   3.323
 7447TIP3    H222285   4.256   0.084   3.179
 7448TIP3   OH222286   5.131   7.126   3.324
 7448TIP3    H122287   5.052   7.178   3.312
 7448TIP3    H222288   5.124   7.056   3.258
 7449TIP3   OH222289   3.784   7.055   1.262
 7449TIP3    H122290   3.700   7.082   1.225
 7449TIP3    H222291   3.785   6.959   1.251
 7450TIP3   OH222292   4.499   6.355   5.379
 7450TIP3    H122293   4.567   6.306   5.332
 7450TIP3    H222294   4.454   6.289   5.432
 7451TIP3   OH222295   6.114   6.771   3.200
 7451TIP3    H122296   6.064   6.692   3.181
 7451TIP3    H222297   6.200   6.739   3.228
 7452TIP3   OH222298   4.829   6.912   5.060
 7452TIP3    H122299   4.886   6.914   4.982
 7452TIP3    H222300   4.859   6.986   5.113
 7453TIP3   OH222301   2.318   3.533   4.387
 7453TIP3    H122302   2.256   3.602   4.366
 7453TIP3    H222303   2.267   3.469   4.436
 7454TIP3   OH222304   7.889   2.847   4.209
 7454TIP3    H122305   7.942   2.872   4.133
 7454TIP3    H222306   7.944   2.868   4.285
 7455TIP3   OH222307   8.087   7.068   1.182
 7455TIP3    H122308   8.004   7.020   1.188
 7455TIP3    H222309   8.142   7.028   1.249
 7456TIP3   OH222310   1.211   7.477   1.802
 7456TIP3    H122311   1.208   7.529   1.721
 7456TIP3    H222312   1.289   7.509   1.848
 7457TIP3   OH222313   4.978   0.253   1.638
 7457TIP3    H122314   4.992   0.269   1.545
 7457TIP3    H222315   4.905   0.191   1.641
 7458TIP3   OH222316   0.615   6.130   0.125
 7458TIP3    H122317   0.595   6.221   0.144
 7458TIP3    H222318   0.550   6.104   0.060
 7459TIP3   OH222319   4.015   7.099   2.543
 7459TIP3    H122320   4.020   7.186   2.583
 7459TIP3    H222321   3.935   7.100   2.491
 7460TIP3   OH222322   0.800   2.454   1.065
 7460TIP3    H122323   0.726   2.503   1.100
 7460TIP3    H222324   0.872   2.517   1.063
 7461TIP3   OH222325   0.194   4.775   6.180
 7461TIP3    H122326   0.111   4.738   6.209
 7461TIP3    H222327   0.196   4.862   6.218
 7462TIP3   OH222328   4.711   0.408   2.896
 7462TIP3    H122329   4.648   0.429   2.826
 7462TIP3    H222330   4.770   0.344   2.857
 7463TIP3   OH222331   6.252   5.511   2.135
 7463TIP3    H122332   6.178   5.546   2.184
 7463TIP3    H222333   6.253   5.418   2.157
 7464TIP3   OH222334   8.097   7.547   3.576
 7464TIP3    H122335   8.085   7.625   3.523
 7464TIP3    H222336   8.145   7.578   3.653
 7465TIP3   OH222337   4.659   3.572   4.634
 7465TIP3    H122338   4.736   3.611   4.677
 7465TIP3    H222339   4.670   3.478   4.647
 7466TIP3   OH222340   6.338   4.583   4.973
 7466TIP3    H122341   6.275   4.567   5.044
 7466TIP3    H222342   6.288   4.566   4.893
 7467TIP3   OH222343   0.185   5.674   2.735
 7467TIP3    H122344   0.241   5.651   2.809
 7467TIP3    H222345   0.099   5.640   2.759
 7468TIP3   OH222346   1.792   1.599   0.912
 7468TIP3    H122347   1.817   1.665   0.847
 7468TIP3    H222348   1.801   1.516   0.867
 7469TIP3   OH222349   2.726   2.196   1.002
 7469TIP3    H122350   2.773   2.278   1.018
 7469TIP3    H222351   2.638   2.212   1.033
 7470TIP3   OH222352   7.360   3.297   3.134
 7470TIP3    H122353   7.383   3.388   3.114
 7470TIP3    H222354   7.445   3.254   3.146
 7471TIP3   OH222355   4.485   5.995   1.346
 7471TIP3    H122356   4.574   5.996   1.310
 7471TIP3    H222357   4.482   6.072   1.404
 7472TIP3   OH222358   1.008   3.679   1.969
 7472TIP3    H122359   1.009   3.727   1.886
 7472TIP3    H222360   0.927   3.708   2.012
 7473TIP3   OH222361   2.903   7.354   3.232
 7473TIP3    H122362   2.986   7.354   3.184
 7473TIP3    H222363   2.919   7.296   3.307
 7474TIP3   OH222364   2.542   7.247   1.956
 7474TIP3    H122365   2.610   7.305   1.992
 7474TIP3    H222366   2.509   7.200   2.032
 7475TIP3   OH222367   0.569   3.980   3.308
 7475TIP3    H122368   0.480   4.010   3.324
 7475TIP3    H222369   0.624   4.056   3.325
 7476TIP3   OH222370   0.346   3.383   5.547
 7476TIP3    H122371   0.436   3.372   5.517
 7476TIP3    H222372   0.354   3.394   5.642
 7477TIP3   OH222373   8.230   3.865   3.436
 7477TIP3    H122374   8.249   3.816   3.516
 7477TIP3    H222375   8.310   3.915   3.419
 7478TIP3   OH222376   2.735   2.706   1.080
 7478TIP3    H122377   2.748   2.685   1.173
 7478TIP3    H222378   2.700   2.795   1.080
 7479TIP3   OH222379   0.645   7.398   0.134
 7479TIP3    H122380   0.550   7.404   0.129
 7479TIP3    H222381   0.675   7.427   0.048
 7480TIP3   OH222382   3.781   6.056   1.227
 7480TIP3    H122383   3.820   6.044   1.140
 7480TIP3    H222384   3.854   6.084   1.282
 7481TIP3   OH222385   2.562   5.030   1.238
 7481TIP3    H122386   2.528   5.111   1.275
 7481TIP3    H222387   2.497   5.005   1.172
 7482TIP3   OH222388   5.054   3.674   5.583
 7482TIP3    H122389   5.073   3.747   5.524
 7482TIP3    H222390   5.040   3.599   5.524
 7483TIP3   OH222391   1.126   4.884   5.827
 7483TIP3    H122392   1.115   4.825   5.901
 7483TIP3    H222393   1.152   4.828   5.754
 7484TIP3   OH222394   7.354   6.172   0.114
 7484TIP3    H122395   7.295   6.173   0.038
 7484TIP3    H222396   7.297   6.152   0.188
 7485TIP3   OH222397   3.909   0.391   0.529
 7485TIP3    H122398   3.815   0.386   0.512
 7485TIP3    H222399   3.947   0.415   0.444
 7486TIP3   OH222400   3.331   4.249   5.995
 7486TIP3    H122401   3.335   4.156   6.018
 7486TIP3    H222402   3.238   4.268   5.986
 7487TIP3   OH222403   6.590   7.561   0.203
 7487TIP3    H122404   6.666   7.583   0.149
 7487TIP3    H222405   6.563   7.474   0.171
 7488TIP3   OH222406   3.282   6.295   5.430
 7488TIP3    H122407   3.274   6.308   5.525
 7488TIP3    H222408   3.287   6.384   5.394
 7489TIP3   OH222409   3.000   2.460   2.613
 7489TIP3    H122410   3.024   2.371   2.639
 7489TIP3    H222411   3.082   2.509   2.617
 7490TIP3   OH222412   7.826   6.033   2.795
 7490TIP3    H122413   7.746   5.982   2.782
 7490TIP3    H222414   7.796   6.124   2.799
 7491TIP3   OH222415   0.493   7.120   6.366
 7491TIP3    H122416   0.561   7.126   6.433
 7491TIP3    H222417   0.486   7.208   6.330
 7492TIP3   OH222418   6.817   7.195   2.509
 7492TIP3    H122419   6.871   7.271   2.489
 7492TIP3    H222420   6.821   7.142   2.429
 7493TIP3   OH222421   8.152   3.809   2.423
 7493TIP3    H122422   8.095   3.851   2.359
 7493TIP3    H222423   8.240   3.840   2.402
 7494TIP3   OH222424   0.383   0.863   0.510
 7494TIP3    H122425   0.293   0.891   0.494
 7494TIP3    H222426   0.406   0.810   0.433
 7495TIP3   OH222427   1.861   5.291   3.706
 7495TIP3    H122428   1.835   5.352   3.775
 7495TIP3    H222429   1.875   5.347   3.630
 7496TIP3   OH222430   2.710   1.557   2.526
 7496TIP3    H122431   2.621   1.582   2.501
 7496TIP3    H222432   2.761   1.638   2.515
 7497TIP3   OH222433   5.937   2.872   0.490
 7497TIP3    H122434   5.913   2.920   0.411
 7497TIP3    H222435   5.864   2.811   0.504
 7498TIP3   OH222436   1.489   6.802   6.754
 7498TIP3    H122437   1.519   6.869   6.815
 7498TIP3    H222438   1.481   6.848   6.670
 7499TIP3   OH222439   7.347   2.437   0.307
 7499TIP3    H122440   7.298   2.504   0.259
 7499TIP3    H222441   7.347   2.469   0.398
 7500TIP3   OH222442   4.974   6.505   6.237
 7500TIP3    H122443   4.880   6.515   6.254
 7500TIP3    H222444   5.016   6.529   6.320
 7501TIP3   OH222445   2.594   3.372   5.325
 7501TIP3    H122446   2.564   3.281   5.330
 7501TIP3    H222447   2.546   3.417   5.395
 7502TIP3   OH222448   5.863   0.994   1.455
 7502TIP3    H122449   5.838   1.018   1.544
 7502TIP3    H222450   5.844   1.072   1.403
 7503TIP3   OH222451   7.431   3.254   4.097
 7503TIP3    H122452   7.520   3.223   4.114
 7503TIP3    H222453   7.413   3.317   4.167
 7504TIP3   OH222454   1.428   5.264   3.558
 7504TIP3    H122455   1.342   5.292   3.589
 7504TIP3    H222456   1.462   5.210   3.630
 7505TIP3   OH222457   7.473   4.339   6.377
 7505TIP3    H122458   7.381   4.365   6.389
 7505TIP3    H222459   7.515   4.417   6.341
 7506TIP3   OH222460   5.113   7.043   1.543
 7506TIP3    H122461   5.109   7.138   1.540
 7506TIP3    H222462   5.207   7.023   1.544
 7507TIP3   OH222463   7.452   0.578   5.582
 7507TIP3    H122464   7.452   0.503   5.522
 7507TIP3    H222465   7.545   0.602   5.590
 7508TIP3   OH222466   5.411   1.944   0.653
 7508TIP3    H122467   5.484   1.953   0.592
 7508TIP3    H222468   5.427   1.861   0.698
 7509TIP3   OH222469   6.585   5.293   5.893
 7509TIP3    H122470   6.519   5.302   5.825
 7509TIP3    H222471   6.606   5.383   5.918
 7510TIP3   OH222472   6.207   7.651   3.515
 7510TIP3    H122473   6.158   7.688   3.588
 7510TIP3    H222474   6.208   7.720   3.449
 7511TIP3   OH222475   1.540   3.030   3.684
 7511TIP3    H122476   1.473   3.010   3.619
 7511TIP3    H222477   1.610   2.967   3.666
 7512TIP3   OH222478   1.416   5.931   1.344
 7512TIP3    H122479   1.463   5.894   1.419
 7512TIP3    H222480   1.335   5.879   1.339
 7513TIP3   OH222481   5.771   7.766   5.631
 7513TIP3    H122482   5.861   7.738   5.615
 7513TIP3    H222483   5.779   7.859   5.653
 7514TIP3   OH222484   6.624   6.882   2.160
 7514TIP3    H122485   6.529   6.892   2.169
 7514TIP3    H222486   6.641   6.897   2.067
 7515TIP3   OH222487   3.922   3.055   2.139
 7515TIP3    H122488   3.939   3.106   2.059
 7515TIP3    H222489   3.926   2.964   2.110
 7516TIP3   OH222490   1.420   0.055   0.570
 7516TIP3    H122491   1.393   0.039   0.479
 7516TIP3    H222492   1.345   0.099   0.609
 7517TIP3   OH222493   7.853   2.540   5.884
 7517TIP3    H122494   7.759   2.541   5.906
 7517TIP3    H222495   7.897   2.526   5.968
 7518TIP3   OH222496   6.548   3.262   4.539
 7518TIP3    H122497   6.465   3.244   4.584
 7518TIP3    H222498   6.614   3.261   4.608
 7519TIP3   OH222499   5.119   0.534   3.062
 7519TIP3    H122500   5.163   0.607   3.107
 7519TIP3    H222501   5.164   0.456   3.093
 7520TIP3   OH222502   1.048   4.405   2.406
 7520TIP3    H122503   1.106   4.412   2.331
 7520TIP3    H222504   1.063   4.485   2.457
 7521TIP3   OH222505   7.937   7.706   5.093
 7521TIP3    H122506   7.884   7.771   5.049
 7521TIP3    H222507   7.988   7.755   5.157
 7522TIP3   OH222508   0.945   4.352   0.807
 7522TIP3    H122509   0.905   4.438   0.790
 7522TIP3    H222510   0.873   4.290   0.799
 7523TIP3   OH222511   2.814   6.080   4.624
 7523TIP3    H122512   2.818   6.039   4.538
 7523TIP3    H222513   2.732   6.129   4.624
 7524TIP3   OH222514   8.142   1.449   6.268
 7524TIP3    H122515   8.111   1.539   6.253
 7524TIP3    H222516   8.236   1.453   6.252
 7525TIP3   OH222517   6.595   1.128   2.790
 7525TIP3    H122518   6.589   1.184   2.868
 7525TIP3    H222519   6.552   1.179   2.721
 7526TIP3   OH222520   3.628   4.028   4.554
 7526TIP3    H122521   3.675   4.049   4.473
 7526TIP3    H222522   3.685   4.061   4.623
 7527TIP3   OH222523   6.048   3.731   4.757
 7527TIP3    H122524   6.128   3.682   4.773
 7527TIP3    H222525   5.978   3.669   4.779
 7528TIP3   OH222526   7.424   1.207   3.797
 7528TIP3    H122527   7.484   1.271   3.835
 7528TIP3    H222528   7.344   1.215   3.849
 7529TIP3   OH222529   0.114   7.398   6.417
 7529TIP3    H122530   0.020   7.408   6.428
 7529TIP3    H222531   0.139   7.334   6.484
 7530TIP3   OH222532   7.200   4.174   4.363
 7530TIP3    H122533   7.151   4.094   4.342
 7530TIP3    H222534   7.292   4.147   4.360
 7531TIP3   OH222535   0.058   7.054   6.462
 7531TIP3    H122536   0.066   7.142   6.497
 7531TIP3    H222537  -0.017   7.058   6.403
 7532TIP3   OH222538   2.341   1.854   0.131
 7532TIP3    H122539   2.315   1.945   0.131
 7532TIP3    H222540   2.295   1.816   0.056
 7533TIP3   OH222541   3.343   3.019   1.540
 7533TIP3    H122542   3.337   2.947   1.603
 7533TIP3    H222543   3.316   2.980   1.457
 7534TIP3   OH222544   1.641   4.348   1.223
 7534TIP3    H122545   1.559   4.339   1.271
 7534TIP3    H222546   1.680   4.428   1.257
 7535TIP3   OH222547   1.356   6.097   3.497
 7535TIP3    H122548   1.436   6.104   3.445
 7535TIP3    H222549   1.287   6.131   3.439
 7536TIP3   OH222550   2.554   7.745   2.291
 7536TIP3    H122551   2.529   7.746   2.384
 7536TIP3    H222552   2.584   7.833   2.273
 7537TIP3   OH222553   7.270   6.724   0.857
 7537TIP3    H122554   7.244   6.673   0.781
 7537TIP3    H222555   7.244   6.672   0.932
 7538TIP3   OH222556   6.508   3.697   4.011
 7538TIP3    H122557   6.500   3.778   3.961
 7538TIP3    H222558   6.602   3.687   4.026
 7539TIP3   OH222559   3.656   0.873   0.766
 7539TIP3    H122560   3.738   0.861   0.814
 7539TIP3    H222561   3.682   0.915   0.684
 7540TIP3   OH222562   0.139   6.577   4.992
 7540TIP3    H122563   0.059   6.592   4.941
 7540TIP3    H222564   0.174   6.664   5.008
 7541TIP3   OH222565   0.596   6.452   5.331
 7541TIP3    H122566   0.675   6.505   5.344
 7541TIP3    H222567   0.627   6.361   5.333
 7542TIP3   OH222568   6.191   0.977   2.795
 7542TIP3    H122569   6.222   1.010   2.879
 7542TIP3    H222570   6.166   0.886   2.812
 7543TIP3   OH222571   8.027   6.568   4.773
 7543TIP3    H122572   7.949   6.570   4.828
 7543TIP3    H222573   7.999   6.523   4.693
 7544TIP3   OH222574   6.591   1.706   2.742
 7544TIP3    H122575   6.562   1.767   2.811
 7544TIP3    H222576   6.526   1.718   2.672
 7545TIP3   OH222577   2.853   0.135   2.609
 7545TIP3    H122578   2.801   0.055   2.610
 7545TIP3    H222579   2.794   0.203   2.576
 7546TIP3   OH222580   8.243   7.748   0.800
 7546TIP3    H122581   8.198   7.706   0.874
 7546TIP3    H222582   8.238   7.684   0.729
 7547TIP3   OH222583   3.112   6.548   6.737
 7547TIP3    H122584   3.169   6.606   6.686
 7547TIP3    H222585   3.152   6.547   6.824
 7548TIP3   OH222586   1.219   4.139   0.511
 7548TIP3    H122587   1.223   4.221   0.561
 7548TIP3    H222588   1.302   4.095   0.531
 7549TIP3   OH222589   1.962   0.535   0.254
 7549TIP3    H122590   2.034   0.578   0.300
 7549TIP3    H222591   1.902   0.506   0.323
 7550TIP3   OH222592   3.806   6.321   0.202
 7550TIP3    H122593   3.871   6.383   0.167
 7550TIP3    H222594   3.852   6.237   0.202
 7551TIP3   OH222595   6.073   3.925   5.116
 7551TIP3    H122596   5.984   3.891   5.119
 7551TIP3    H222597   6.077   3.988   5.188
 7552TIP3   OH222598   7.983   0.092   2.588
 7552TIP3    H122599   7.917   0.044   2.537
 7552TIP3    H222600   8.065   0.075   2.542
 7553TIP3   OH222601   4.459   7.014   2.362
 7553TIP3    H122602   4.456   7.064   2.280
 7553TIP3    H222603   4.490   6.927   2.337
 7554TIP3   OH222604   6.787   7.509   0.574
 7554TIP3    H122605   6.857   7.568   0.547
 7554TIP3    H222606   6.729   7.563   0.628
 7555TIP3   OH222607   1.040   2.957   3.137
 7555TIP3    H122608   1.027   2.939   3.230
 7555TIP3    H222609   1.118   3.012   3.133
 7556TIP3   OH222610   2.171   5.312   3.386
 7556TIP3    H122611   2.220   5.260   3.322
 7556TIP3    H222612   2.080   5.302   3.360
 7557TIP3   OH222613   4.741   0.228   0.105
 7557TIP3    H122614   4.774   0.288   0.038
 7557TIP3    H222615   4.818   0.177   0.132
 7558TIP3   OH222616   6.301   6.581   3.354
 7558TIP3    H122617   6.347   6.589   3.437
 7558TIP3    H222618   6.217   6.542   3.376
 7559TIP3   OH222619   0.665   0.790   6.656
 7559TIP3    H122620   0.594   0.821   6.712
 7559TIP3    H222621   0.691   0.867   6.604
 7560TIP3   OH222622   2.591   5.084   3.484
 7560TIP3    H122623   2.562   5.174   3.502
 7560TIP3    H222624   2.673   5.074   3.532
 7561TIP3   OH222625   2.104   6.828   2.771
 7561TIP3    H122626   2.076   6.737   2.780
 7561TIP3    H222627   2.051   6.876   2.836
 7562TIP3   OH222628   4.358   4.550   3.457
 7562TIP3    H122629   4.293   4.490   3.492
 7562TIP3    H222630   4.313   4.635   3.452
 7563TIP3   OH222631   1.146   1.229   2.713
 7563TIP3    H122632   1.061   1.249   2.673
 7563TIP3    H222633   1.210   1.255   2.647
 7564TIP3   OH222634   1.434   2.591   4.426
 7564TIP3    H122635   1.484   2.670   4.402
 7564TIP3    H222636   1.346   2.623   4.442
 7565TIP3   OH222637   0.864   2.847   5.148
 7565TIP3    H122638   0.870   2.855   5.052
 7565TIP3    H222639   0.916   2.768   5.168
 7566TIP3   OH222640   6.435   7.224   3.398
 7566TIP3    H122641   6.475   7.264   3.475
 7566TIP3    H222642   6.488   7.254   3.325
 7567TIP3   OH222643   5.327   5.535   1.291
 7567TIP3    H122644   5.258   5.540   1.358
 7567TIP3    H222645   5.378   5.458   1.315
 7568TIP3   OH222646   1.212   1.507   1.420
 7568TIP3    H122647   1.160   1.526   1.498
 7568TIP3    H222648   1.151   1.467   1.358
 7569TIP3   OH222649   1.036   2.270   6.517
 7569TIP3    H122650   0.941   2.255   6.521
 7569TIP3    H222651   1.074   2.182   6.517
 7570TIP3   OH222652   7.550   3.687   1.568
 7570TIP3    H122653   7.619   3.670   1.632
 7570TIP3    H222654   7.505   3.764   1.601
 7571TIP3   OH222655   1.012   1.054   5.622
 7571TIP3    H122656   0.946   0.991   5.594
 7571TIP3    H222657   1.069   1.064   5.546
 7572TIP3   OH222658   2.881   7.481   5.538
 7572TIP3    H122659   2.889   7.427   5.616
 7572TIP3    H222660   2.965   7.470   5.492
 7573TIP3   OH222661   3.172   1.076   0.114
 7573TIP3    H122662   3.251   1.080   0.059
 7573TIP3    H222663   3.168   0.986   0.144
 7574TIP3   OH222664   4.043   2.882   4.065
 7574TIP3    H122665   3.958   2.841   4.049
 7574TIP3    H222666   4.106   2.811   4.051
 7575TIP3   OH222667   0.712   2.187   0.041
 7575TIP3    H122668   0.756   2.195   0.126
 7575TIP3    H222669   0.773   2.224  -0.022
 7576TIP3   OH222670   6.423   7.404   2.967
 7576TIP3    H122671   6.406   7.316   2.935
 7576TIP3    H222672   6.518   7.414   2.962
 7577TIP3   OH222673   1.891   4.697   4.345
 7577TIP3    H122674   1.954   4.750   4.296
 7577TIP3    H222675   1.944   4.649   4.409
 7578TIP3   OH222676   3.166   7.526   5.108
 7578TIP3    H122677   3.150   7.502   5.017
 7578TIP3    H222678   3.083   7.507   5.152
 7579TIP3   OH222679   6.209   4.809   6.582
 7579TIP3    H122680   6.164   4.821   6.499
 7579TIP3    H222681   6.154   4.746   6.629
 7580TIP3   OH222682   4.080   6.188   2.561
 7580TIP3    H122683   4.114   6.156   2.477
 7580TIP3    H222684   3.986   6.202   2.546
 7581TIP3   OH222685   3.569   0.070   4.190
 7581TIP3    H122686   3.582  -0.007   4.135
 7581TIP3    H222687   3.656   0.092   4.222
 7582TIP3   OH222688   4.342   0.738   2.403
 7582TIP3    H122689   4.289   0.782   2.336
 7582TIP3    H222690   4.338   0.646   2.379
 7583TIP3   OH222691   4.804   1.329   5.872
 7583TIP3    H122692   4.779   1.418   5.847
 7583TIP3    H222693   4.806   1.280   5.790
 7584TIP3   OH222694   1.128   2.128   1.414
 7584TIP3    H122695   1.094   2.165   1.332
 7584TIP3    H222696   1.204   2.077   1.387
 7585TIP3   OH222697   3.805   5.515   0.482
 7585TIP3    H122698   3.722   5.539   0.441
 7585TIP3    H222699   3.799   5.420   0.496
 7586TIP3   OH222700   5.092   3.307   3.577
 7586TIP3    H122701   5.050   3.388   3.605
 7586TIP3    H222702   5.023   3.241   3.585
 7587TIP3   OH222703   6.227   4.295   3.366
 7587TIP3    H122704   6.248   4.290   3.459
 7587TIP3    H222705   6.195   4.208   3.344
 7588TIP3   OH222706   6.911   6.778   1.557
 7588TIP3    H122707   6.924   6.692   1.517
 7588TIP3    H222708   6.991   6.826   1.536
 7589TIP3   OH222709   7.543   3.335   0.688
 7589TIP3    H122710   7.538   3.259   0.630
 7589TIP3    H222711   7.615   3.315   0.748
 7590TIP3   OH222712   3.626   5.130   2.173
 7590TIP3    H122713   3.534   5.128   2.197
 7590TIP3    H222714   3.638   5.216   2.132
 7591TIP3   OH222715   3.078   5.125   0.694
 7591TIP3    H122716   2.985   5.129   0.671
 7591TIP3    H222717   3.085   5.048   0.752
 7592TIP3   OH222718   1.255   5.160   0.347
 7592TIP3    H122719   1.306   5.238   0.324
 7592TIP3    H222720   1.304   5.088   0.308
 7593TIP3   OH222721   2.892   0.827   2.550
 7593TIP3    H122722   2.974   0.865   2.519
 7593TIP3    H222723   2.862   0.773   2.477
 7594TIP3   OH222724   0.341   0.195   5.705
 7594TIP3    H122725   0.370   0.262   5.644
 7594TIP3    H222726   0.370   0.226   5.791
 7595TIP3   OH222727   0.525   0.855   3.131
 7595TIP3    H122728   0.554   0.788   3.070
 7595TIP3    H222729   0.494   0.927   3.075
 7596TIP3   OH222730   6.583   0.087   0.951
 7596TIP3    H122731   6.571   0.079   0.856
 7596TIP3    H222732   6.624   0.004   0.976
 7597TIP3   OH222733   6.937   4.729   5.856
 7597TIP3    H122734   6.990   4.776   5.920
 7597TIP3    H222735   6.872   4.793   5.827
 7598TIP3   OH222736   7.614   7.420   1.479
 7598TIP3    H122737   7.690   7.404   1.423
 7598TIP3    H222738   7.634   7.504   1.522
 7599TIP3   OH222739   6.895   2.260   5.717
 7599TIP3    H122740   6.918   2.167   5.714
 7599TIP3    H222741   6.978   2.306   5.705
 7600TIP3   OH222742   1.767   0.634   2.557
 7600TIP3    H122743   1.697   0.696   2.537
 7600TIP3    H222744   1.847   0.684   2.542
 7601TIP3   OH222745   6.656   3.546   1.522
 7601TIP3    H122746   6.672   3.560   1.429
 7601TIP3    H222747   6.737   3.507   1.555
 7602TIP3   OH222748   3.682   1.234   4.054
 7602TIP3    H122749   3.766   1.254   4.094
 7602TIP3    H222750   3.637   1.179   4.119
 7603TIP3   OH222751   0.302   0.913   5.811
 7603TIP3    H122752   0.284   1.004   5.789
 7603TIP3    H222753   0.254   0.898   5.892
 7604TIP3   OH222754   5.750   1.612   4.165
 7604TIP3    H122755   5.792   1.686   4.122
 7604TIP3    H222756   5.818   1.574   4.220
 7605TIP3   OH222757   4.836   7.291   6.461
 7605TIP3    H122758   4.891   7.220   6.428
 7605TIP3    H222759   4.846   7.361   6.396
 7606TIP3   OH222760   2.714   3.023   5.400
 7606TIP3    H122761   2.724   2.932   5.427
 7606TIP3    H222762   2.650   3.059   5.462
 7607TIP3   OH222763   5.892   0.632   0.162
 7607TIP3    H122764   5.986   0.621   0.147
 7607TIP3    H222765   5.885   0.651   0.256
 7608TIP3   OH222766   6.356   1.449   0.831
 7608TIP3    H122767   6.300   1.399   0.771
 7608TIP3    H222768   6.295   1.488   0.893
 7609TIP3   OH222769   4.906   4.243   0.930
 7609TIP3    H122770   4.903   4.247   1.026
 7609TIP3    H222771   4.852   4.316   0.901
 7610TIP3   OH222772   2.103   4.821   3.757
 7610TIP3    H122773   2.174   4.773   3.716
 7610TIP3    H222774   2.067   4.761   3.822
 7611TIP3   OH222775   1.259   7.728   4.098
 7611TIP3    H122776   1.268   7.798   4.034
 7611TIP3    H222777   1.345   7.686   4.100
 7612TIP3   OH222778   7.891   1.059   5.719
 7612TIP3    H122779   7.817   1.087   5.774
 7612TIP3    H222780   7.909   1.135   5.663
 7613TIP3   OH222781   6.262   3.049   5.570
 7613TIP3    H122782   6.306   3.049   5.655
 7613TIP3    H222783   6.259   3.142   5.545
 7614TIP3   OH222784   1.073   5.416   1.544
 7614TIP3    H122785   1.054   5.505   1.515
 7614TIP3    H222786   1.056   5.416   1.638
 7615TIP3   OH222787   4.885   4.521   0.850
 7615TIP3    H122788   4.978   4.498   0.846
 7615TIP3    H222789   4.874   4.562   0.936
 7616TIP3   OH222790   7.660   7.086   6.052
 7616TIP3    H122791   7.685   7.121   6.137
 7616TIP3    H222792   7.565   7.092   6.050
 7617TIP3   OH222793   5.994   2.387   1.889
 7617TIP3    H122794   5.930   2.454   1.910
 7617TIP3    H222795   5.953   2.305   1.917
 7618TIP3   OH222796   4.871   6.675   6.565
 7618TIP3    H122797   4.828   6.612   6.508
 7618TIP3    H222798   4.804   6.699   6.630
 7619TIP3   OH222799   7.359   5.030   2.890
 7619TIP3    H122800   7.341   5.109   2.942
 7619TIP3    H222801   7.363   4.959   2.954
 7620TIP3   OH222802   0.925   0.026   1.311
 7620TIP3    H122803   0.970   0.071   1.382
 7620TIP3    H222804   0.833   0.050   1.321
 7621TIP3   OH222805   0.568   7.322   5.903
 7621TIP3    H122806   0.473   7.326   5.914
 7621TIP3    H222807   0.582   7.250   5.841
 7622TIP3   OH222808   4.071   1.513   3.124
 7622TIP3    H122809   4.152   1.464   3.135
 7622TIP3    H222810   4.052   1.549   3.211
 7623TIP3   OH222811   1.029   4.592   5.800
 7623TIP3    H122812   1.045   4.509   5.755
 7623TIP3    H222813   0.947   4.625   5.762
 7624TIP3   OH222814   5.385   3.946   6.361
 7624TIP3    H122815   5.450   4.011   6.389
 7624TIP3    H222816   5.327   3.994   6.301
 7625TIP3   OH222817   4.728   1.976   4.182
 7625TIP3    H122818   4.697   1.957   4.271
 7625TIP3    H222819   4.820   1.999   4.193
 7626TIP3   OH222820   3.897   3.170   5.002
 7626TIP3    H122821   3.865   3.246   5.052
 7626TIP3    H222822   3.960   3.128   5.061
 7627TIP3   OH222823   7.375   4.303   0.566
 7627TIP3    H122824   7.343   4.344   0.647
 7627TIP3    H222825   7.382   4.210   0.587
 7628TIP3   OH222826   3.211   5.372   1.562
 7628TIP3    H122827   3.251   5.393   1.646
 7628TIP3    H222828   3.155   5.447   1.543
 7629TIP3   OH222829   2.959   6.278   1.333
 7629TIP3    H122830   2.929   6.274   1.243
 7629TIP3    H222831   3.055   6.274   1.327
 7630TIP3   OH222832   1.820   3.561   3.681
 7630TIP3    H122833   1.902   3.539   3.726
 7630TIP3    H222834   1.767   3.481   3.688
 7631TIP3   OH222835   1.795   6.337   5.289
 7631TIP3    H122836   1.733   6.300   5.227
 7631TIP3    H222837   1.828   6.416   5.246
 7632TIP3   OH222838   0.975   6.749   5.140
 7632TIP3    H122839   0.888   6.766   5.106
 7632TIP3    H222840   0.992   6.821   5.201
 7633TIP3   OH222841   5.422   2.286   0.201
 7633TIP3    H122842   5.434   2.380   0.185
 7633TIP3    H222843   5.404   2.249   0.114
 7634TIP3   OH222844   7.876   5.049   3.162
 7634TIP3    H122845   7.783   5.055   3.143
 7634TIP3    H222846   7.897   4.957   3.151
 7635TIP3   OH222847   2.968   4.951   5.899
 7635TIP3    H122848   3.044   5.002   5.925
 7635TIP3    H222849   2.894   4.996   5.939
 7636TIP3   OH222850   5.671   4.715   3.781
 7636TIP3    H122851   5.742   4.759   3.829
 7636TIP3    H222852   5.655   4.772   3.706
 7637TIP3   OH222853   3.058   3.280   6.436
 7637TIP3    H122854   3.003   3.322   6.502
 7637TIP3    H222855   2.996   3.242   6.373
 7638TIP3   OH222856   3.737   7.634   3.588
 7638TIP3    H122857   3.807   7.580   3.552
 7638TIP3    H222858   3.672   7.639   3.517
 7639TIP3   OH222859   4.504   3.201   2.805
 7639TIP3    H122860   4.409   3.195   2.795
 7639TIP3    H222861   4.540   3.152   2.731
 7640TIP3   OH222862   0.292   7.817   1.907
 7640TIP3    H122863   0.345   7.739   1.889
 7640TIP3    H222864   0.340   7.889   1.867
 7641TIP3   OH222865   5.776   1.980   6.355
 7641TIP3    H122866   5.846   1.972   6.289
 7641TIP3    H222867   5.703   2.020   6.307
 7642TIP3   OH222868   5.966   4.885   3.180
 7642TIP3    H122869   6.014   4.956   3.137
 7642TIP3    H222870   6.030   4.843   3.236
 7643TIP3   OH222871   1.473   7.554   6.688
 7643TIP3    H122872   1.561   7.524   6.709
 7643TIP3    H222873   1.422   7.474   6.679
 7644TIP3   OH222874   8.171   3.797   4.349
 7644TIP3    H122875   8.115   3.864   4.389
 7644TIP3    H222876   8.208   3.749   4.422
 7645TIP3   OH222877   0.739   1.146   6.668
 7645TIP3    H122878   0.667   1.113   6.615
 7645TIP3    H222879   0.710   1.132   6.759
 7646TIP3   OH222880   4.843   0.801   4.859
 7646TIP3    H122881   4.887   0.815   4.943
 7646TIP3    H222882   4.900   0.844   4.795
 7647TIP3   OH222883   7.238   5.921   2.495
 7647TIP3    H122884   7.280   5.928   2.409
 7647TIP3    H222885   7.165   5.861   2.481
 7648TIP3   OH222886   5.157   5.412   0.341
 7648TIP3    H122887   5.151   5.484   0.403
 7648TIP3    H222888   5.213   5.446   0.271
 7649TIP3   OH222889   5.272   4.233   2.784
 7649TIP3    H122890   5.325   4.302   2.825
 7649TIP3    H222891   5.252   4.173   2.856
 7650TIP3   OH222892   7.496   6.348   1.679
 7650TIP3    H122893   7.533   6.329   1.592
 7650TIP3    H222894   7.422   6.289   1.687
 7651TIP3   OH222895   7.825   0.634   0.133
 7651TIP3    H122896   7.854   0.669   0.217
 7651TIP3    H222897   7.743   0.680   0.115
 7652TIP3   OH222898   1.203   2.491   5.402
 7652TIP3    H122899   1.143   2.552   5.359
 7652TIP3    H222900   1.146   2.428   5.446
 7653TIP3   OH222901   0.174   5.870   3.523
 7653TIP3    H122902   0.158   5.818   3.445
 7653TIP3    H222903   0.268   5.891   3.519
 7654TIP3   OH222904   6.857   2.658   4.263
 7654TIP3    H122905   6.888   2.684   4.176
 7654TIP3    H222906   6.902   2.575   4.281
 7655TIP3   OH222907   3.626   4.580   6.034
 7655TIP3    H122908   3.554   4.637   6.008
 7655TIP3    H222909   3.620   4.505   5.976
 7656TIP3   OH222910   0.770   2.608   2.055
 7656TIP3    H122911   0.822   2.687   2.068
 7656TIP3    H222912   0.696   2.618   2.114
 7657TIP3   OH222913   1.859   4.755   3.428
 7657TIP3    H122914   1.886   4.840   3.395
 7657TIP3    H222915   1.940   4.715   3.461
 7658TIP3   OH222916   1.769   2.264   4.731
 7658TIP3    H122917   1.747   2.297   4.644
 7658TIP3    H222918   1.831   2.328   4.766
 7659TIP3   OH222919   0.595   2.410   4.142
 7659TIP3    H122920   0.585   2.321   4.110
 7659TIP3    H222921   0.591   2.464   4.063
 7660TIP3   OH222922   5.172   1.465   2.885
 7660TIP3    H122923   5.161   1.375   2.916
 7660TIP3    H222924   5.232   1.504   2.948
 7661TIP3   OH222925   3.102   1.718   2.937
 7661TIP3    H122926   3.095   1.638   2.884
 7661TIP3    H222927   3.142   1.689   3.019
 7662TIP3   OH222928   0.028   5.841   3.911
 7662TIP3    H122929   0.084   5.767   3.933
 7662TIP3    H222930  -0.024   5.857   3.990
 7663TIP3   OH222931   6.672   2.699   4.937
 7663TIP3    H122932   6.695   2.664   4.851
 7663TIP3    H222933   6.732   2.657   4.998
 7664TIP3   OH222934   7.616   4.068   2.116
 7664TIP3    H122935   7.644   4.002   2.053
 7664TIP3    H222936   7.644   4.151   2.078
 7665TIP3   OH222937   5.851   5.354   6.650
 7665TIP3    H122938   5.920   5.316   6.705
 7665TIP3    H222939   5.801   5.410   6.709
 7666TIP3   OH222940   0.379   2.098   2.088
 7666TIP3    H122941   0.413   2.116   2.176
 7666TIP3    H222942   0.302   2.043   2.103
 7667TIP3   OH222943   5.105   0.967   5.263
 7667TIP3    H122944   5.013   0.989   5.279
 7667TIP3    H222945   5.125   0.896   5.324
 7668TIP3   OH222946   4.887   1.772   2.963
 7668TIP3    H122947   4.959   1.826   2.931
 7668TIP3    H222948   4.873   1.802   3.053
 7669TIP3   OH222949   7.835   2.133   2.793
 7669TIP3    H122950   7.929   2.123   2.776
 7669TIP3    H222951   7.821   2.227   2.797
 7670TIP3   OH222952   0.419   5.061   6.171
 7670TIP3    H122953   0.377   5.092   6.091
 7670TIP3    H222954   0.400   5.129   6.236
 7671TIP3   OH222955   6.408   6.517   0.310
 7671TIP3    H122956   6.422   6.495   0.403
 7671TIP3    H222957   6.334   6.578   0.311
 7672TIP3   OH222958   6.965   0.160   1.435
 7672TIP3    H122959   6.945   0.224   1.503
 7672TIP3    H222960   6.942   0.204   1.353
 7673TIP3   OH222961   4.393   3.689   5.832
 7673TIP3    H122962   4.300   3.703   5.853
 7673TIP3    H222963   4.392   3.621   5.764
 7674TIP3   OH222964   3.487   6.202   4.506
 7674TIP3    H122965   3.493   6.135   4.573
 7674TIP3    H222966   3.401   6.187   4.465
 7675TIP3   OH222967   2.420   1.232   0.594
 7675TIP3    H122968   2.511   1.216   0.572
 7675TIP3    H222969   2.420   1.318   0.636
 7676TIP3   OH222970   7.171   4.751   1.253
 7676TIP3    H122971   7.265   4.739   1.238
 7676TIP3    H222972   7.144   4.815   1.188
 7677TIP3   OH222973   2.258   3.325   6.449
 7677TIP3    H122974   2.337   3.379   6.453
 7677TIP3    H222975   2.224   3.338   6.361
 7678TIP3   OH222976   2.653   0.710   3.468
 7678TIP3    H122977   2.706   0.647   3.419
 7678TIP3    H222978   2.649   0.787   3.411
 7679TIP3   OH222979   4.675   3.612   2.702
 7679TIP3    H122980   4.750   3.658   2.665
 7679TIP3    H222981   4.599   3.652   2.660
 7680TIP3   OH222982   8.074   1.826   0.096
 7680TIP3    H122983   8.131   1.885   0.145
 7680TIP3    H222984   7.987   1.843   0.130
 7681TIP3   OH222985   0.523   1.190   0.283
 7681TIP3    H122986   0.436   1.230   0.292
 7681TIP3    H222987   0.529   1.168   0.190
 7682TIP3   OH222988   0.138   3.764   0.563
 7682TIP3    H122989   0.061   3.732   0.516
 7682TIP3    H222990   0.186   3.684   0.588
 7683TIP3   OH222991   6.994   6.817   0.302
 7683TIP3    H122992   6.979   6.769   0.383
 7683TIP3    H222993   7.021   6.904   0.330
 7684TIP3   OH222994   3.476   7.249   3.228
 7684TIP3    H122995   3.434   7.210   3.151
 7684TIP3    H222996   3.557   7.199   3.239
 7685TIP3   OH222997   4.553   2.921   2.700
 7685TIP3    H122998   4.580   2.995   2.646
 7685TIP3    H222999   4.461   2.907   2.677
 7686TIP3   OH223000   5.276   5.423   5.982
 7686TIP3    H123001   5.289   5.436   6.076
 7686TIP3    H223002   5.180   5.425   5.971
 7687TIP3   OH223003   1.844   4.720   5.678
 7687TIP3    H123004   1.925   4.770   5.686
 7687TIP3    H223005   1.806   4.722   5.766
 7688TIP3   OH223006   4.211   3.091   5.654
 7688TIP3    H123007   4.232   3.061   5.565
 7688TIP3    H223008   4.136   3.038   5.680
 7689TIP3   OH223009   7.813   1.279   5.540
 7689TIP3    H123010   7.823   1.203   5.483
 7689TIP3    H223011   7.769   1.345   5.486
 7690TIP3   OH223012   3.401   1.930   6.451
 7690TIP3    H123013   3.471   1.991   6.473
 7690TIP3    H223014   3.447   1.852   6.420
 7691TIP3   OH223015   4.818   4.967   5.190
 7691TIP3    H123016   4.815   4.897   5.255
 7691TIP3    H223017   4.730   5.002   5.188
 7692TIP3   OH223018   2.453   4.735   2.375
 7692TIP3    H123019   2.363   4.755   2.398
 7692TIP3    H223020   2.498   4.820   2.379
 7693TIP3   OH223021   4.911   4.877   1.381
 7693TIP3    H123022   4.980   4.817   1.351
 7693TIP3    H223023   4.921   4.955   1.327
 7694TIP3   OH223024   0.414   6.318   3.169
 7694TIP3    H123025   0.348   6.380   3.198
 7694TIP3    H223026   0.483   6.323   3.235
 7695TIP3   OH223027   4.462   2.265   5.065
 7695TIP3    H123028   4.490   2.319   5.139
 7695TIP3    H223029   4.496   2.178   5.085
 7696TIP3   OH223030   0.612   0.147   3.534
 7696TIP3    H123031   0.547   0.215   3.552
 7696TIP3    H223032   0.630   0.108   3.619
 7697TIP3   OH223033   1.171   4.581   2.963
 7697TIP3    H123034   1.157   4.515   3.030
 7697TIP3    H223035   1.123   4.658   2.995
 7698TIP3   OH223036   1.977   3.939   2.187
 7698TIP3    H123037   2.064   3.969   2.161
 7698TIP3    H223038   1.970   3.962   2.280
 7699TIP3   OH223039   2.834   5.600   2.860
 7699TIP3    H123040   2.806   5.591   2.951
 7699TIP3    H223041   2.930   5.599   2.864
 7700TIP3   OH223042   6.951   2.664   2.850
 7700TIP3    H123043   6.912   2.706   2.927
 7700TIP3    H223044   6.910   2.709   2.776
 7701TIP3   OH223045   0.983   2.680   1.039
 7701TIP3    H123046   1.044   2.749   1.065
 7701TIP3    H223047   0.929   2.720   0.971
 7702TIP3   OH223048   7.532   0.514   0.847
 7702TIP3    H123049   7.475   0.576   0.893
 7702TIP3    H223050   7.603   0.567   0.811
 7703TIP3   OH223051   0.157   5.127   3.564
 7703TIP3    H123052   0.104   5.179   3.624
 7703TIP3    H223053   0.138   5.163   3.477
 7704TIP3   OH223054   0.561   5.375   0.329
 7704TIP3    H123055   0.536   5.291   0.367
 7704TIP3    H223056   0.654   5.384   0.352
 7705TIP3   OH223057   3.049   3.712   1.750
 7705TIP3    H123058   3.072   3.782   1.689
 7705TIP3    H223059   3.082   3.633   1.709
 7706TIP3   OH223060   7.097   5.890   4.908
 7706TIP3    H123061   7.125   5.817   4.853
 7706TIP3    H223062   7.177   5.922   4.949
 7707TIP3   OH223063   2.465   4.363   6.036
 7707TIP3    H123064   2.424   4.372   5.950
 7707TIP3    H223065   2.391   4.356   6.097
 7708TIP3   OH223066   3.331   3.588   6.645
 7708TIP3    H123067   3.387   3.521   6.607
 7708TIP3    H223068   3.388   3.664   6.654
 7709TIP3   OH223069   6.345   4.842   0.769
 7709TIP3    H123070   6.253   4.844   0.797
 7709TIP3    H223071   6.377   4.930   0.786
 7710TIP3   OH223072   5.522   0.918   4.844
 7710TIP3    H123073   5.455   0.880   4.900
 7710TIP3    H223074   5.474   0.953   4.769
 7711TIP3   OH223075   5.997   7.494   2.681
 7711TIP3    H123076   6.065   7.516   2.744
 7711TIP3    H223077   6.025   7.537   2.600
 7712TIP3   OH223078   6.333   4.978   5.193
 7712TIP3    H123079   6.427   4.992   5.202
 7712TIP3    H223080   6.317   4.894   5.237
 7713TIP3   OH223081   2.601   3.023   0.721
 7713TIP3    H123082   2.630   3.097   0.668
 7713TIP3    H223083   2.668   2.956   0.709
 7714TIP3   OH223084   4.020   4.412   1.921
 7714TIP3    H123085   4.071   4.476   1.871
 7714TIP3    H223086   3.976   4.359   1.855
 7715TIP3   OH223087   5.471   6.153   0.539
 7715TIP3    H123088   5.435   6.065   0.550
 7715TIP3    H223089   5.492   6.182   0.628
 7716TIP3   OH223090   1.884   3.373   4.784
 7716TIP3    H123091   1.827   3.305   4.820
 7716TIP3    H223092   1.971   3.353   4.818
 7717TIP3   OH223093   7.160   1.364   0.232
 7717TIP3    H123094   7.173   1.278   0.193
 7717TIP3    H223095   7.100   1.409   0.172
 7718TIP3   OH223096   1.646   3.039   0.083
 7718TIP3    H123097   1.584   2.980   0.127
 7718TIP3    H223098   1.723   3.039   0.139
 7719TIP3   OH223099   3.006   3.736   3.088
 7719TIP3    H123100   2.930   3.679   3.081
 7719TIP3    H223101   3.006   3.766   3.179
 7720TIP3   OH223102   7.570   0.596   5.899
 7720TIP3    H123103   7.576   0.513   5.852
 7720TIP3    H223104   7.644   0.595   5.959
 7721TIP3   OH223105   0.419   5.136   3.365
 7721TIP3    H123106   0.511   5.162   3.372
 7721TIP3    H223107   0.397   5.103   3.452
 7722TIP3   OH223108   5.068   4.218   5.325
 7722TIP3    H123109   5.152   4.205   5.368
 7722TIP3    H223110   5.079   4.181   5.238
 7723TIP3   OH223111   6.325   2.221   4.036
 7723TIP3    H123112   6.312   2.156   4.105
 7723TIP3    H223113   6.418   2.212   4.012
 7724TIP3   OH223114   6.221   3.042   1.205
 7724TIP3    H123115   6.135   3.052   1.166
 7724TIP3    H223116   6.212   3.079   1.293
 7725TIP3   OH223117   6.764   2.383   0.358
 7725TIP3    H123118   6.783   2.435   0.280
 7725TIP3    H223119   6.739   2.297   0.324
 7726TIP3   OH223120   4.855   5.769   5.561
 7726TIP3    H123121   4.905   5.692   5.588
 7726TIP3    H223122   4.862   5.830   5.636
 7727TIP3   OH223123   7.605   5.530   1.545
 7727TIP3    H123124   7.566   5.541   1.458
 7727TIP3    H223125   7.545   5.471   1.590
 7728TIP3   OH223126   2.957   3.163   4.086
 7728TIP3    H123127   2.996   3.211   4.013
 7728TIP3    H223128   2.976   3.216   4.163
 7729TIP3   OH223129   8.098   0.913   4.056
 7729TIP3    H123130   8.024   0.967   4.082
 7729TIP3    H223131   8.129   0.873   4.138
 7730TIP3   OH223132   2.382   4.699   3.740
 7730TIP3    H123133   2.477   4.685   3.742
 7730TIP3    H223134   2.360   4.727   3.829
 7731TIP3   OH223135   7.228   0.985   3.388
 7731TIP3    H123136   7.293   0.972   3.319
 7731TIP3    H223137   7.256   0.927   3.459
 7732TIP3   OH223138   5.419   2.970   2.864
 7732TIP3    H123139   5.447   3.009   2.947
 7732TIP3    H223140   5.329   3.001   2.852
 7733TIP3   OH223141   2.229   1.062   2.940
 7733TIP3    H123142   2.270   1.117   2.873
 7733TIP3    H223143   2.170   1.005   2.891
 7734TIP3   OH223144   6.972   2.008   5.700
 7734TIP3    H123145   6.987   1.938   5.764
 7734TIP3    H223146   6.901   1.975   5.645
 7735TIP3   OH223147   1.842   3.494   6.734
 7735TIP3    H123148   1.904   3.546   6.786
 7735TIP3    H223149   1.811   3.555   6.668
 7736TIP3   OH223150   0.086   5.247   2.318
 7736TIP3    H123151   0.155   5.247   2.251
 7736TIP3    H223152   0.128   5.286   2.395
 7737TIP3   OH223153   5.523   2.298   5.844
 7737TIP3    H123154   5.545   2.386   5.815
 7737TIP3    H223155   5.570   2.240   5.783
 7738TIP3   OH223156   7.861   6.046   4.263
 7738TIP3    H123157   7.776   6.081   4.238
 7738TIP3    H223158   7.851   6.023   4.355
 7739TIP3   OH223159   6.772   5.922   2.608
 7739TIP3    H123160   6.813   5.839   2.634
 7739TIP3    H223161   6.685   5.919   2.646
 7740TIP3   OH223162   2.050   3.528   2.017
 7740TIP3    H123163   2.112   3.593   2.050
 7740TIP3    H223164   1.965   3.572   2.018
 7741TIP3   OH223165   3.973   5.427   4.178
 7741TIP3    H123166   4.012   5.492   4.119
 7741TIP3    H223167   3.892   5.400   4.134
 7742TIP3   OH223168   7.585   6.235   5.651
 7742TIP3    H123169   7.641   6.196   5.584
 7742TIP3    H223170   7.638   6.234   5.730
 7743TIP3   OH223171   4.750   3.930   4.347
 7743TIP3    H123172   4.720   3.978   4.424
 7743TIP3    H223173   4.702   3.847   4.350
 7744TIP3   OH223174   7.745   0.150   3.881
 7744TIP3    H123175   7.767   0.113   3.795
 7744TIP3    H223176   7.799   0.228   3.888
 7745TIP3   OH223177   2.973   2.478   1.967
 7745TIP3    H123178   2.942   2.461   2.056
 7745TIP3    H223179   2.986   2.391   1.928
 7746TIP3   OH223180   6.774   4.113   1.530
 7746TIP3    H123181   6.683   4.082   1.535
 7746TIP3    H223182   6.813   4.060   1.460
 7747TIP3   OH223183   5.035   2.109   1.957
 7747TIP3    H123184   5.125   2.133   1.979
 7747TIP3    H223185   5.037   2.090   1.863
 7748TIP3   OH223186   5.059   0.699   3.945
 7748TIP3    H123187   5.025   0.731   4.029
 7748TIP3    H223188   4.986   0.712   3.884
 7749TIP3   OH223189   6.206   7.105   2.360
 7749TIP3    H123190   6.140   7.055   2.408
 7749TIP3    H223191   6.183   7.197   2.376
 7750TIP3   OH223192   6.096   4.569   3.025
 7750TIP3    H123193   6.173   4.553   3.080
 7750TIP3    H223194   6.099   4.663   3.007
 7751TIP3   OH223195   6.243   0.293   6.412
 7751TIP3    H123196   6.155   0.327   6.395
 7751TIP3    H223197   6.278   0.274   6.325
 7752TIP3   OH223198   2.290   2.551   1.912
 7752TIP3    H123199   2.376   2.533   1.874
 7752TIP3    H223200   2.295   2.642   1.940
 7753TIP3   OH223201   0.986   0.878   0.830
 7753TIP3    H123202   1.054   0.843   0.773
 7753TIP3    H223203   0.905   0.841   0.795
 7754TIP3   OH223204   2.986   1.759   2.612
 7754TIP3    H123205   2.990   1.691   2.679
 7754TIP3    H223206   2.912   1.814   2.638
 7755TIP3   OH223207   7.227   2.370   5.903
 7755TIP3    H123208   7.168   2.341   5.973
 7755TIP3    H223209   7.271   2.448   5.939
 7756TIP3   OH223210   7.548   0.940   1.342
 7756TIP3    H123211   7.473   0.968   1.289
 7756TIP3    H223212   7.515   0.868   1.396
 7757TIP3   OH223213   3.696   2.661   5.930
 7757TIP3    H123214   3.710   2.718   5.855
 7757TIP3    H223215   3.773   2.605   5.933
 7758TIP3   OH223216   2.608   5.207   3.184
 7758TIP3    H123217   2.625   5.145   3.255
 7758TIP3    H223218   2.528   5.253   3.212
 7759TIP3   OH223219   1.874   6.213   5.869
 7759TIP3    H123220   1.795   6.173   5.903
 7759TIP3    H223221   1.872   6.303   5.904
 7760TIP3   OH223222   0.474   5.010   1.273
 7760TIP3    H123223   0.502   4.955   1.346
 7760TIP3    H223224   0.550   5.015   1.215
 7761TIP3   OH223225   3.710   5.666   4.035
 7761TIP3    H123226   3.775   5.731   4.011
 7761TIP3    H223227   3.755   5.582   4.026
 7762TIP3   OH223228   3.498   6.110   5.560
 7762TIP3    H123229   3.467   6.170   5.627
 7762TIP3    H223230   3.476   6.023   5.593
 7763TIP3   OH223231   7.434   2.548   5.453
 7763TIP3    H123232   7.518   2.591   5.463
 7763TIP3    H223233   7.389   2.564   5.536
 7764TIP3   OH223234   0.363   1.159   5.499
 7764TIP3    H123235   0.426   1.118   5.558
 7764TIP3    H223236   0.289   1.098   5.496
 7765TIP3   OH223237   7.619   3.805   2.983
 7765TIP3    H123238   7.603   3.789   3.076
 7765TIP3    H223239   7.714   3.795   2.974
 7766TIP3   OH223240   4.872   3.884   5.886
 7766TIP3    H123241   4.931   3.953   5.855
 7766TIP3    H223242   4.854   3.906   5.977
 7767TIP3   OH223243   5.404   1.454   0.493
 7767TIP3    H123244   5.403   1.390   0.564
 7767TIP3    H223245   5.406   1.539   0.538
 7768TIP3   OH223246   3.056   7.146   5.293
 7768TIP3    H123247   3.081   7.081   5.358
 7768TIP3    H223248   2.961   7.154   5.303
 7769TIP3   OH223249   3.570   5.487   4.640
 7769TIP3    H123250   3.534   5.421   4.700
 7769TIP3    H223251   3.584   5.440   4.558
 7770TIP3   OH223252   0.992   7.029   3.962
 7770TIP3    H123253   0.949   7.003   3.881
 7770TIP3    H223254   0.931   7.002   4.032
 7771TIP3   OH223255   3.275   5.894   3.889
 7771TIP3    H123256   3.348   5.896   3.951
 7771TIP3    H223257   3.260   5.986   3.866
 7772TIP3   OH223258   4.173   5.037   5.594
 7772TIP3    H123259   4.209   4.954   5.561
 7772TIP3    H223260   4.240   5.102   5.572
 7773TIP3   OH223261   0.737   6.160   2.249
 7773TIP3    H123262   0.691   6.124   2.174
 7773TIP3    H223263   0.725   6.255   2.241
 7774TIP3   OH223264   7.212   5.582   3.515
 7774TIP3    H123265   7.167   5.589   3.431
 7774TIP3    H223266   7.207   5.671   3.552
 7775TIP3   OH223267   8.097   7.311   2.957
 7775TIP3    H123268   8.061   7.230   2.922
 7775TIP3    H223269   8.021   7.361   2.986
 7776TIP3   OH223270   0.567   6.009   5.865
 7776TIP3    H123271   0.660   6.006   5.885
 7776TIP3    H223272   0.525   6.035   5.947
 7777TIP3   OH223273   2.244   5.188   1.911
 7777TIP3    H123274   2.305   5.190   1.985
 7777TIP3    H223275   2.293   5.142   1.842
 7778TIP3   OH223276   4.210   3.091   4.155
 7778TIP3    H123277   4.237   3.064   4.243
 7778TIP3    H223278   4.140   3.030   4.132
 7779TIP3   OH223279   4.562   5.854   2.042
 7779TIP3    H123280   4.551   5.759   2.051
 7779TIP3    H223281   4.644   5.865   1.995
 7780TIP3   OH223282   0.238   2.319   4.052
 7780TIP3    H123283   0.166   2.357   4.102
 7780TIP3    H223284   0.244   2.229   4.084
 7781TIP3   OH223285   3.087   6.553   2.065
 7781TIP3    H123286   3.158   6.616   2.077
 7781TIP3    H223287   3.040   6.553   2.148
 7782TIP3   OH223288   1.905   3.993   0.575
 7782TIP3    H123289   1.886   3.913   0.623
 7782TIP3    H223290   1.993   4.017   0.602
 7783TIP3   OH223291   2.323   1.729   2.826
 7783TIP3    H123292   2.275   1.782   2.890
 7783TIP3    H223293   2.302   1.767   2.741
 7784TIP3   OH223294   4.800   1.998   4.676
 7784TIP3    H123295   4.799   1.939   4.751
 7784TIP3    H223296   4.832   1.944   4.604
 7785TIP3   OH223297   0.957   2.268   2.138
 7785TIP3    H123298   0.906   2.312   2.070
 7785TIP3    H223299   1.042   2.250   2.097
 7786TIP3   OH223300   6.787   3.965   1.284
 7786TIP3    H123301   6.740   4.046   1.267
 7786TIP3    H223302   6.875   3.994   1.310
 7787TIP3   OH223303   3.032   1.127   1.486
 7787TIP3    H123304   2.995   1.044   1.455
 7787TIP3    H223305   2.957   1.186   1.491
 7788TIP3   OH223306   4.490   0.758   0.323
 7788TIP3    H123307   4.396   0.745   0.317
 7788TIP3    H223308   4.527   0.702   0.255
 7789TIP3   OH223309   4.877   3.816   3.306
 7789TIP3    H123310   4.911   3.848   3.222
 7789TIP3    H223311   4.806   3.757   3.283
 7790TIP3   OH223312   1.844   3.653   5.314
 7790TIP3    H123313   1.881   3.695   5.392
 7790TIP3    H223314   1.769   3.603   5.348
 7791TIP3   OH223315   2.110   4.529   2.092
 7791TIP3    H123316   2.199   4.504   2.066
 7791TIP3    H223317   2.121   4.613   2.138
 7792TIP3   OH223318   5.352   0.964   2.891
 7792TIP3    H123319   5.439   0.944   2.856
 7792TIP3    H223320   5.295   0.898   2.852
 7793TIP3   OH223321   1.742   5.909   2.220
 7793TIP3    H123322   1.723   5.932   2.311
 7793TIP3    H223323   1.751   5.994   2.176
 7794TIP3   OH223324   0.778   2.293   5.792
 7794TIP3    H123325   0.800   2.219   5.848
 7794TIP3    H223326   0.820   2.274   5.708
 7795TIP3   OH223327   3.231   7.607   6.746
 7795TIP3    H123328   3.197   7.610   6.656
 7795TIP3    H223329   3.227   7.698   6.776
 7796TIP3   OH223330   6.657   3.496   2.573
 7796TIP3    H123331   6.646   3.427   2.507
 7796TIP3    H223332   6.635   3.577   2.528
 7797TIP3   OH223333   7.165   6.655   5.385
 7797TIP3    H123334   7.171   6.736   5.436
 7797TIP3    H223335   7.226   6.595   5.428
 7798TIP3   OH223336   4.909   1.531   2.844
 7798TIP3    H123337   4.898   1.615   2.889
 7798TIP3    H223338   4.999   1.504   2.864
 7799TIP3   OH223339   1.146   2.721   4.011
 7799TIP3    H123340   1.063   2.759   3.982
 7799TIP3    H223341   1.134   2.708   4.105
 7800TIP3   OH223342   5.852   4.193   3.919
 7800TIP3    H123343   5.766   4.223   3.890
 7800TIP3    H223344   5.836   4.108   3.960
 7801TIP3   OH223345   5.937   0.774   4.107
 7801TIP3    H123346   5.993   0.697   4.119
 7801TIP3    H223347   5.959   0.806   4.020
 7802TIP3   OH223348   0.982   6.626   6.186
 7802TIP3    H123349   1.000   6.532   6.191
 7802TIP3    H223350   0.887   6.632   6.196
 7803TIP3   OH223351   5.226   4.230   4.113
 7803TIP3    H123352   5.189   4.159   4.167
 7803TIP3    H223353   5.200   4.310   4.158
 7804TIP3   OH223354   5.237   7.172   2.364
 7804TIP3    H123355   5.161   7.145   2.416
 7804TIP3    H223356   5.272   7.091   2.328
 7805TIP3   OH223357   1.554   1.742   1.413
 7805TIP3    H123358   1.471   1.761   1.457
 7805TIP3    H223359   1.545   1.783   1.326
 7806TIP3   OH223360   2.543   3.929   4.866
 7806TIP3    H123361   2.515   4.016   4.896
 7806TIP3    H223362   2.629   3.916   4.904
 7807TIP3   OH223363   3.489   7.428   1.535
 7807TIP3    H123364   3.425   7.374   1.487
 7807TIP3    H223365   3.543   7.364   1.581
 7808TIP3   OH223366   3.052   6.745   4.290
 7808TIP3    H123367   2.995   6.685   4.242
 7808TIP3    H223368   3.104   6.688   4.347
 7809TIP3   OH223369   0.105   2.860   0.407
 7809TIP3    H123370   0.173   2.889   0.467
 7809TIP3    H223371   0.152   2.835   0.328
 7810TIP3   OH223372   5.998   7.253   5.359
 7810TIP3    H123373   6.080   7.303   5.360
 7810TIP3    H223374   6.025   7.163   5.381
 7811TIP3   OH223375   5.053   2.415   0.564
 7811TIP3    H123376   4.981   2.405   0.627
 7811TIP3    H223377   5.009   2.422   0.479
 7812TIP3   OH223378   0.247   4.607   1.447
 7812TIP3    H123379   0.279   4.591   1.536
 7812TIP3    H223380   0.200   4.690   1.453
 7813TIP3   OH223381   5.431   5.732   2.150
 7813TIP3    H123382   5.374   5.703   2.079
 7813TIP3    H223383   5.476   5.653   2.179
 7814TIP3   OH223384   5.127   7.465   5.142
 7814TIP3    H123385   5.095   7.540   5.191
 7814TIP3    H223386   5.221   7.479   5.134
 7815TIP3   OH223387   1.597   6.615   1.679
 7815TIP3    H123388   1.644   6.666   1.613
 7815TIP3    H223389   1.662   6.598   1.747
 7816TIP3   OH223390   7.329   2.481   6.599
 7816TIP3    H123391   7.342   2.576   6.596
 7816TIP3    H223392   7.333   2.453   6.507
 7817TIP3   OH223393   0.611   1.765   0.034
 7817TIP3    H123394   0.621   1.844  -0.019
 7817TIP3    H223395   0.661   1.698  -0.013
 7818TIP3   OH223396   5.874   5.261   4.986
 7818TIP3    H123397   5.847   5.286   4.898
 7818TIP3    H223398   5.793   5.261   5.038
 7819TIP3   OH223399   3.925   1.076   3.211
 7819TIP3    H123400   3.893   1.165   3.227
 7819TIP3    H223401   3.992   1.063   3.278
 7820TIP3   OH223402   0.541   4.394   4.549
 7820TIP3    H123403   0.573   4.305   4.567
 7820TIP3    H223404   0.483   4.384   4.474
 7821TIP3   OH223405   1.444   4.423   0.692
 7821TIP3    H123406   1.353   4.395   0.698
 7821TIP3    H223407   1.472   4.436   0.782
 7822TIP3   OH223408   2.315   6.368   5.341
 7822TIP3    H123409   2.239   6.331   5.386
 7822TIP3    H223410   2.278   6.414   5.266
 7823TIP3   OH223411   3.718   4.068   4.308
 7823TIP3    H123412   3.633   4.025   4.302
 7823TIP3    H223413   3.769   4.029   4.237
 7824TIP3   OH223414   4.497   3.539   3.769
 7824TIP3    H123415   4.425   3.577   3.718
 7824TIP3    H223416   4.458   3.463   3.812
 7825TIP3   OH223417   1.663   5.917   3.729
 7825TIP3    H123418   1.628   5.835   3.695
 7825TIP3    H223419   1.691   5.965   3.650
 7826TIP3   OH223420   1.906   5.817   4.005
 7826TIP3    H123421   1.890   5.898   4.054
 7826TIP3    H223422   1.823   5.798   3.962
 7827TIP3   OH223423   6.620   4.973   6.179
 7827TIP3    H123424   6.668   5.032   6.237
 7827TIP3    H223425   6.566   4.921   6.238
 7828TIP3   OH223426   2.566   1.576   5.204
 7828TIP3    H123427   2.540   1.519   5.131
 7828TIP3    H223428   2.496   1.641   5.210
 7829TIP3   OH223429   3.626   2.562   4.028
 7829TIP3    H123430   3.594   2.544   3.939
 7829TIP3    H223431   3.655   2.477   4.061
 7830TIP3   OH223432   7.679   3.409   3.471
 7830TIP3    H123433   7.701   3.449   3.387
 7830TIP3    H223434   7.737   3.333   3.477
 7831TIP3   OH223435   6.446   7.741   5.927
 7831TIP3    H123436   6.485   7.765   5.843
 7831TIP3    H223437   6.436   7.824   5.974
 7832TIP3   OH223438   2.983   5.072   3.122
 7832TIP3    H123439   3.013   5.006   3.059
 7832TIP3    H223440   2.929   5.132   3.070
 7833TIP3   OH223441   2.237   2.481   0.257
 7833TIP3    H123442   2.189   2.501   0.338
 7833TIP3    H223443   2.297   2.411   0.281
 7834TIP3   OH223444   5.988   3.363   6.363
 7834TIP3    H123445   6.037   3.442   6.339
 7834TIP3    H223446   5.999   3.305   6.287
 7835TIP3   OH223447   1.799   1.685   5.229
 7835TIP3    H123448   1.892   1.675   5.251
 7835TIP3    H223449   1.796   1.763   5.173
 7836TIP3   OH223450   2.204   0.308   2.701
 7836TIP3    H123451   2.261   0.237   2.672
 7836TIP3    H223452   2.134   0.265   2.749
 7837TIP3   OH223453   4.503   4.569   1.511
 7837TIP3    H123454   4.413   4.595   1.494
 7837TIP3    H223455   4.556   4.635   1.467
 7838TIP3   OH223456   7.445   5.443   1.101
 7838TIP3    H123457   7.421   5.385   1.029
 7838TIP3    H223458   7.539   5.457   1.089
 7839TIP3   OH223459   4.575   6.746   2.248
 7839TIP3    H123460   4.513   6.673   2.251
 7839TIP3    H223461   4.626   6.730   2.169
 7840TIP3   OH223462   5.397   1.294   3.389
 7840TIP3    H123463   5.311   1.273   3.353
 7840TIP3    H223464   5.440   1.342   3.318
 7841TIP3   OH223465   2.608   1.834   3.538
 7841TIP3    H123466   2.545   1.906   3.533
 7841TIP3    H223467   2.571   1.773   3.602
 7842TIP3   OH223468   5.345   1.381   0.746
 7842TIP3    H123469   5.374   1.396   0.836
 7842TIP3    H223470   5.250   1.371   0.753
 7843TIP3   OH223471   1.633   3.663   4.968
 7843TIP3    H123472   1.719   3.671   4.928
 7843TIP3    H223473   1.633   3.728   5.038
 7844TIP3   OH223474   5.510   7.691   3.588
 7844TIP3    H123475   5.601   7.700   3.560
 7844TIP3    H223476   5.502   7.599   3.614
 7845TIP3   OH223477   4.658   0.638   1.319
 7845TIP3    H123478   4.675   0.604   1.231
 7845TIP3    H223479   4.621   0.725   1.304
 7846TIP3   OH223480   0.206   0.330   1.792
 7846TIP3    H123481   0.273   0.341   1.725
 7846TIP3    H223482   0.148   0.406   1.781
 7847TIP3   OH223483   3.156   6.507   2.593
 7847TIP3    H123484   3.243   6.522   2.629
 7847TIP3    H223485   3.116   6.444   2.653
 7848TIP3   OH223486   7.924   6.731   5.791
 7848TIP3    H123487   7.896   6.822   5.788
 7848TIP3    H223488   7.843   6.680   5.784
 7849TIP3   OH223489   4.333   6.549   5.275
 7849TIP3    H123490   4.266   6.484   5.291
 7849TIP3    H223491   4.415   6.505   5.296
 7850TIP3   OH223492   2.519   4.024   0.585
 7850TIP3    H123493   2.474   4.029   0.670
 7850TIP3    H223494   2.561   3.938   0.585
 7851TIP3   OH223495   1.614   6.855   2.903
 7851TIP3    H123496   1.667   6.862   2.823
 7851TIP3    H223497   1.541   6.798   2.878
 7852TIP3   OH223498   2.978   4.041   5.346
 7852TIP3    H123499   2.960   4.107   5.413
 7852TIP3    H223500   2.901   4.043   5.289
 7853TIP3   OH223501   2.251   0.444   3.853
 7853TIP3    H123502   2.186   0.455   3.921
 7853TIP3    H223503   2.320   0.507   3.875
 7854TIP3   OH223504   8.233   6.807   6.028
 7854TIP3    H123505   8.306   6.848   5.981
 7854TIP3    H223506   8.212   6.729   5.976
 7855TIP3   OH223507   0.500   6.714   4.770
 7855TIP3    H123508   0.585   6.669   4.778
 7855TIP3    H223509   0.519   6.790   4.716
 7856TIP3   OH223510   4.853   6.103   2.562
 7856TIP3    H123511   4.785   6.164   2.534
 7856TIP3    H223512   4.911   6.156   2.617
 7857TIP3   OH223513   7.676   0.571   6.666
 7857TIP3    H123514   7.645   0.656   6.698
 7857TIP3    H223515   7.677   0.515   6.744
 7858TIP3   OH223516   0.032   4.442   5.072
 7858TIP3    H123517   0.108   4.495   5.050
 7858TIP3    H223518   0.020   4.384   4.997
 7859TIP3   OH223519   2.890   6.419   1.576
 7859TIP3    H123520   2.984   6.435   1.566
 7859TIP3    H223521   2.848   6.483   1.519
 7860TIP3   OH223522   7.153   1.398   0.519
 7860TIP3    H123523   7.199   1.478   0.546
 7860TIP3    H223524   7.168   1.393   0.424
 7861TIP3   OH223525   2.696   5.203   2.045
 7861TIP3    H123526   2.705   5.140   1.973
 7861TIP3    H223527   2.757   5.273   2.022
 7862TIP3   OH223528   1.413   1.248   2.262
 7862TIP3    H123529   1.435   1.337   2.234
 7862TIP3    H223530   1.492   1.216   2.307
 7863TIP3   OH223531   0.110   0.260   4.385
 7863TIP3    H123532   0.027   0.228   4.350
 7863TIP3    H223533   0.166   0.183   4.390
 7864TIP3   OH223534   6.666   4.955   2.201
 7864TIP3    H123535   6.698   5.045   2.204
 7864TIP3    H223536   6.742   4.902   2.229
 7865TIP3   OH223537   4.660   5.192   1.177
 7865TIP3    H123538   4.653   5.287   1.162
 7865TIP3    H223539   4.572   5.166   1.204
 7866TIP3   OH223540   2.748   5.151   0.265
 7866TIP3    H123541   2.815   5.218   0.277
 7866TIP3    H223542   2.792   5.069   0.291
 7867TIP3   OH223543   5.549   2.647   3.680
 7867TIP3    H123544   5.488   2.574   3.669
 7867TIP3    H223545   5.495   2.726   3.671
 7868TIP3   OH223546   3.722   3.977   4.996
 7868TIP3    H123547   3.683   3.912   4.937
 7868TIP3    H223548   3.780   3.927   5.052
 7869TIP3   OH223549   4.683   7.025   2.989
 7869TIP3    H123550   4.670   7.096   2.925
 7869TIP3    H223551   4.774   6.999   2.978
 7870TIP3   OH223552   2.687   5.451   5.036
 7870TIP3    H123553   2.780   5.470   5.025
 7870TIP3    H223554   2.647   5.536   5.052
 7871TIP3   OH223555   3.871   3.674   0.487
 7871TIP3    H123556   3.777   3.658   0.499
 7871TIP3    H223557   3.904   3.687   0.576
 7872TIP3   OH223558   1.192   6.866   4.428
 7872TIP3    H123559   1.177   6.808   4.353
 7872TIP3    H223560   1.271   6.831   4.469
 7873TIP3   OH223561   1.922   7.734   1.151
 7873TIP3    H123562   1.910   7.781   1.234
 7873TIP3    H223563   1.861   7.776   1.091
 7874TIP3   OH223564   2.307   0.150   0.735
 7874TIP3    H123565   2.240   0.186   0.793
 7874TIP3    H223566   2.347   0.226   0.694
 7875TIP3   OH223567   5.578   5.137   0.739
 7875TIP3    H123568   5.665   5.176   0.735
 7875TIP3    H223569   5.547   5.136   0.649
 7876TIP3   OH223570   3.488   4.632   5.222
 7876TIP3    H123571   3.505   4.719   5.188
 7876TIP3    H223572   3.414   4.643   5.281
 7877TIP3   OH223573   6.987   4.752   3.058
 7877TIP3    H123574   6.963   4.823   3.117
 7877TIP3    H223575   7.056   4.788   3.003
 7878TIP3   OH223576   2.372   0.311   2.941
 7878TIP3    H123577   2.288   0.356   2.929
 7878TIP3    H223578   2.438   0.377   2.923
 7879TIP3   OH223579   5.432   5.130   4.736
 7879TIP3    H123580   5.504   5.070   4.756
 7879TIP3    H223581   5.476   5.209   4.703
 7880TIP3   OH223582   8.216   3.119   1.103
 7880TIP3    H123583   8.198   3.206   1.066
 7880TIP3    H223584   8.233   3.064   1.027
 7881TIP3   OH223585   0.429   5.648   0.778
 7881TIP3    H123586   0.514   5.665   0.819
 7881TIP3    H223587   0.445   5.659   0.684
 7882TIP3   OH223588   7.682   7.702   1.055
 7882TIP3    H123589   7.590   7.676   1.048
 7882TIP3    H223590   7.721   7.635   1.112
 7883TIP3   OH223591   6.799   1.047   5.052
 7883TIP3    H123592   6.822   1.045   5.145
 7883TIP3    H223593   6.812   0.956   5.023
 7884TIP3   OH223594   6.351   7.738   4.352
 7884TIP3    H123595   6.364   7.787   4.271
 7884TIP3    H223596   6.256   7.731   4.361
 7885TIP3   OH223597   3.304   1.561   3.311
 7885TIP3    H123598   3.273   1.544   3.400
 7885TIP3    H223599   3.314   1.656   3.307
 7886TIP3   OH223600   4.974   6.257   2.754
 7886TIP3    H123601   4.945   6.193   2.819
 7886TIP3    H223602   5.047   6.302   2.796
 7887TIP3   OH223603   4.940   4.623   3.179
 7887TIP3    H123604   4.902   4.592   3.262
 7887TIP3    H223605   4.875   4.600   3.113
 7888TIP3   OH223606   0.545   2.230   5.142
 7888TIP3    H123607   0.472   2.188   5.096
 7888TIP3    H223608   0.603   2.158   5.165
 7889TIP3   OH223609   0.127   1.458   3.241
 7889TIP3    H123610   0.161   1.380   3.198
 7889TIP3    H223611   0.169   1.531   3.196
 7890TIP3   OH223612   7.737   0.543   4.664
 7890TIP3    H123613   7.832   0.533   4.665
 7890TIP3    H223614   7.707   0.490   4.739
 7891TIP3   OH223615   2.601   3.379   5.751
 7891TIP3    H123616   2.658   3.348   5.822
 7891TIP3    H223617   2.659   3.433   5.697
 7892TIP3   OH223618   0.892   4.524   2.869
 7892TIP3    H123619   0.889   4.436   2.908
 7892TIP3    H223620   0.985   4.543   2.860
 7893TIP3   OH223621   6.122   0.407   3.920
 7893TIP3    H123622   6.047   0.350   3.900
 7893TIP3    H223623   6.191   0.378   3.861
 7894TIP3   OH223624   5.497   0.513   1.564
 7894TIP3    H123625   5.465   0.476   1.647
 7894TIP3    H223626   5.553   0.444   1.528
 7895TIP3   OH223627   1.187   7.418   1.299
 7895TIP3    H123628   1.264   7.366   1.320
 7895TIP3    H223629   1.121   7.388   1.362
 7896TIP3   OH223630   0.432   0.662   3.642
 7896TIP3    H123631   0.366   0.691   3.704
 7896TIP3    H223632   0.450   0.739   3.588
 7897TIP3   OH223633   4.473   5.544   5.925
 7897TIP3    H123634   4.447   5.467   5.875
 7897TIP3    H223635   4.566   5.556   5.903
 7898TIP3   OH223636   8.225   1.368   2.781
 7898TIP3    H123637   8.215   1.285   2.735
 7898TIP3    H223638   8.139   1.383   2.822
 7899TIP3   OH223639   6.474   2.570   3.339
 7899TIP3    H123640   6.451   2.613   3.421
 7899TIP3    H223641   6.569   2.562   3.342
 7900TIP3   OH223642   1.678   1.736   4.224
 7900TIP3    H123643   1.592   1.773   4.203
 7900TIP3    H223644   1.707   1.695   4.142
 7901TIP3   OH223645   7.404   7.066   5.765
 7901TIP3    H123646   7.418   6.989   5.709
 7901TIP3    H223647   7.329   7.111   5.724
 7902TIP3   OH223648   6.516   3.375   1.908
 7902TIP3    H123649   6.612   3.372   1.905
 7902TIP3    H223650   6.491   3.290   1.946
 7903TIP3   OH223651   5.582   0.925   1.024
 7903TIP3    H123652   5.526   0.898   1.096
 7903TIP3    H223653   5.575   0.854   0.960
 7904TIP3   OH223654   5.606   3.047   1.612
 7904TIP3    H123655   5.679   3.096   1.574
 7904TIP3    H223656   5.565   3.004   1.538
 7905TIP3   OH223657   7.251   0.124   3.441
 7905TIP3    H123658   7.290   0.126   3.529
 7905TIP3    H223659   7.229   0.216   3.423
 7906TIP3   OH223660   1.914   3.061   5.017
 7906TIP3    H123661   1.991   3.055   4.961
 7906TIP3    H223662   1.848   3.104   4.962
 7907TIP3   OH223663   0.931   6.186   4.972
 7907TIP3    H123664   0.988   6.169   4.897
 7907TIP3    H223665   0.963   6.269   5.008
 7908TIP3   OH223666   2.806   0.059   3.614
 7908TIP3    H123667   2.784  -0.011   3.676
 7908TIP3    H223668   2.776   0.026   3.529
 7909TIP3   OH223669  -0.010   0.937   4.296
 7909TIP3    H123670   0.036   1.013   4.261
 7909TIP3    H223671   0.055   0.890   4.347
 7910TIP3   OH223672   1.727   1.081   5.846
 7910TIP3    H123673   1.788   1.132   5.899
 7910TIP3    H223674   1.719   1.130   5.765
 7911TIP3   OH223675   5.414   0.708   1.999
 7911TIP3    H123676   5.435   0.797   1.969
 7911TIP3    H223677   5.335   0.718   2.052
 7912TIP3   OH223678   5.168   7.370   5.756
 7912TIP3    H123679   5.163   7.443   5.818
 7912TIP3    H223680   5.077   7.342   5.746
 7913TIP3   OH223681   3.032   3.216   3.222
 7913TIP3    H123682   3.024   3.303   3.259
 7913TIP3    H223683   2.985   3.159   3.283
 7914TIP3   OH223684   3.355   0.393   4.812
 7914TIP3    H123685   3.338   0.457   4.742
 7914TIP3    H223686   3.332   0.309   4.773
 7915TIP3   OH223687   7.131   7.550   4.254
 7915TIP3    H123688   7.082   7.587   4.180
 7915TIP3    H223689   7.079   7.573   4.330
 7916TIP3   OH223690   5.959   3.943   3.792
 7916TIP3    H123691   5.919   3.877   3.849
 7916TIP3    H223692   6.016   3.994   3.851
 7917TIP3   OH223693   2.864   2.287   5.135
 7917TIP3    H123694   2.813   2.208   5.153
 7917TIP3    H223695   2.918   2.299   5.212
 7918TIP3   OH223696   4.044   1.367   2.880
 7918TIP3    H123697   4.048   1.398   2.970
 7918TIP3    H223698   4.089   1.282   2.882
 7919TIP3   OH223699   6.215   3.375   2.515
 7919TIP3    H123700   6.292   3.407   2.561
 7919TIP3    H223701   6.175   3.453   2.476
 7920TIP3   OH223702   6.987   2.228   3.804
 7920TIP3    H123703   6.966   2.139   3.776
 7920TIP3    H223704   6.945   2.284   3.739
 7921TIP3   OH223705   7.258   5.905   3.789
 7921TIP3    H123706   7.343   5.867   3.808
 7921TIP3    H223707   7.235   5.870   3.703
 7922TIP3   OH223708   6.688   7.592   4.175
 7922TIP3    H123709   6.779   7.620   4.184
 7922TIP3    H223710   6.693   7.503   4.141
 7923TIP3   OH223711   6.549   4.547   6.282
 7923TIP3    H123712   6.605   4.476   6.313
 7923TIP3    H223713   6.551   4.611   6.352
 7924TIP3   OH223714   7.109   3.360   2.559
 7924TIP3    H123715   7.043   3.316   2.505
 7924TIP3    H223716   7.086   3.336   2.649
 7925TIP3   OH223717   2.065   0.183   6.496
 7925TIP3    H123718   2.104   0.267   6.469
 7925TIP3    H223719   2.035   0.143   6.414
 7926TIP3   OH223720   1.742   1.119   3.168
 7926TIP3    H123721   1.822   1.074   3.197
 7926TIP3    H223722   1.723   1.181   3.239
 7927TIP3   OH223723   4.129   4.270   6.237
 7927TIP3    H123724   4.113   4.209   6.165
 7927TIP3    H223725   4.114   4.356   6.199
 7928TIP3   OH223726   3.144   1.206   3.829
 7928TIP3    H123727   3.220   1.253   3.865
 7928TIP3    H223728   3.155   1.116   3.859
 7929TIP3   OH223729   5.621   4.107   0.929
 7929TIP3    H123730   5.615   4.053   1.008
 7929TIP3    H223731   5.536   4.096   0.886
 7930TIP3   OH223732   2.823   7.116   2.123
 7930TIP3    H123733   2.762   7.079   2.186
 7930TIP3    H223734   2.815   7.060   2.046
 7931TIP3   OH223735   2.303   6.484   4.417
 7931TIP3    H123736   2.286   6.439   4.334
 7931TIP3    H223737   2.248   6.563   4.412
 7932TIP3   OH223738   7.565   5.084   5.352
 7932TIP3    H123739   7.616   5.163   5.370
 7932TIP3    H223740   7.475   5.115   5.341
 7933TIP3   OH223741   2.327   6.110   3.413
 7933TIP3    H123742   2.308   6.198   3.382
 7933TIP3    H223743   2.410   6.120   3.461
 7934TIP3   OH223744   7.632   5.445   0.623
 7934TIP3    H123745   7.661   5.367   0.670
 7934TIP3    H223746   7.662   5.519   0.676
 7935TIP3   OH223747   6.983   4.334   2.099
 7935TIP3    H123748   6.944   4.260   2.053
 7935TIP3    H223749   6.974   4.311   2.192
 7936TIP3   OH223750   7.546   4.111   0.379
 7936TIP3    H123751   7.480   4.044   0.364
 7936TIP3    H223752   7.509   4.191   0.342
 7937TIP3   OH223753   2.810   2.451   1.043
 7937TIP3    H123754   2.905   2.452   1.041
 7937TIP3    H223755   2.785   2.544   1.041
 7938TIP3   OH223756   2.574   7.312   4.162
 7938TIP3    H123757   2.531   7.251   4.222
 7938TIP3    H223758   2.541   7.398   4.187
 7939TIP3   OH223759   2.402   6.016   6.363
 7939TIP3    H123760   2.451   6.095   6.342
 7939TIP3    H223761   2.442   5.948   6.308
 7940TIP3   OH223762   5.760   5.867   4.301
 7940TIP3    H123763   5.778   5.919   4.223
 7940TIP3    H223764   5.703   5.922   4.354
 7941TIP3   OH223765   2.215   6.112   0.531
 7941TIP3    H123766   2.198   6.205   0.542
 7941TIP3    H223767   2.132   6.069   0.551
 7942TIP3   OH223768   3.099   0.439   0.716
 7942TIP3    H123769   3.075   0.394   0.798
 7942TIP3    H223770   3.144   0.518   0.745
 7943TIP3   OH223771   1.020   0.790   6.729
 7943TIP3    H123772   0.926   0.784   6.748
 7943TIP3    H223773   1.024   0.816   6.637
 7944TIP3   OH223774   2.541   7.314   5.565
 7944TIP3    H123775   2.555   7.305   5.471
 7944TIP3    H223776   2.522   7.225   5.595
 7945TIP3   OH223777   6.249   0.259   0.706
 7945TIP3    H123778   6.294   0.313   0.772
 7945TIP3    H223779   6.172   0.226   0.751
 7946TIP3   OH223780   7.098   7.711   5.437
 7946TIP3    H123781   7.083   7.622   5.403
 7946TIP3    H223782   7.010   7.746   5.451
 7947TIP3   OH223783   0.468   0.416   0.580
 7947TIP3    H123784   0.559   0.420   0.551
 7947TIP3    H223785   0.417   0.440   0.503
 7948TIP3   OH223786   2.003   0.579   3.272
 7948TIP3    H123787   1.977   0.493   3.241
 7948TIP3    H223788   2.091   0.566   3.309
 7949TIP3   OH223789   1.096   1.752   3.380
 7949TIP3    H123790   1.025   1.744   3.317
 7949TIP3    H223791   1.059   1.803   3.452
 7950TIP3   OH223792   5.314   1.915   3.624
 7950TIP3    H123793   5.319   1.875   3.711
 7950TIP3    H223794   5.405   1.937   3.602
 7951TIP3   OH223795   2.347   1.659   6.297
 7951TIP3    H123796   2.299   1.723   6.245
 7951TIP3    H223797   2.399   1.610   6.233
 7952TIP3   OH223798   5.329   0.490   6.234
 7952TIP3    H123799   5.302   0.569   6.280
 7952TIP3    H223800   5.294   0.418   6.286
 7953TIP3   OH223801   1.153   0.726   0.966
 7953TIP3    H123802   1.076   0.762   0.922
 7953TIP3    H223803   1.217   0.714   0.895
 7954TIP3   OH223804   0.641   4.205   6.132
 7954TIP3    H123805   0.572   4.244   6.186
 7954TIP3    H223806   0.614   4.224   6.042
 7955TIP3   OH223807   0.151   4.534   5.319
 7955TIP3    H123808   0.128   4.514   5.229
 7955TIP3    H223809   0.157   4.448   5.362
 7956TIP3   OH223810   2.530   7.789   1.224
 7956TIP3    H123811   2.533   7.711   1.168
 7956TIP3    H223812   2.449   7.780   1.274
 7957TIP3   OH223813   6.232   1.833   5.901
 7957TIP3    H123814   6.293   1.893   5.860
 7957TIP3    H223815   6.287   1.774   5.953
 7958TIP3   OH223816   8.100   7.520   2.749
 7958TIP3    H123817   8.054   7.469   2.682
 7958TIP3    H223818   8.125   7.455   2.815
 7959TIP3   OH223819   5.037   1.335   1.916
 7959TIP3    H123820   5.090   1.304   1.843
 7959TIP3    H223821   5.082   1.414   1.947
 7960TIP3   OH223822   6.505   7.783   0.348
 7960TIP3    H123823   6.551   7.721   0.291
 7960TIP3    H223824   6.522   7.751   0.437
 7961TIP3   OH223825   2.633   0.984   6.601
 7961TIP3    H123826   2.701   1.045   6.632
 7961TIP3    H223827   2.681   0.906   6.576
 7962TIP3   OH223828   0.392   5.471   1.483
 7962TIP3    H123829   0.345   5.392   1.511
 7962TIP3    H223830   0.328   5.542   1.495
 7963TIP3   OH223831   3.341   6.718   2.709
 7963TIP3    H123832   3.415   6.741   2.765
 7963TIP3    H223833   3.372   6.730   2.620
 7964TIP3   OH223834   7.237   7.602   3.834
 7964TIP3    H123835   7.288   7.583   3.755
 7964TIP3    H223836   7.188   7.521   3.850
 7965TIP3   OH223837   2.149   4.186   5.668
 7965TIP3    H123838   2.103   4.262   5.631
 7965TIP3    H223839   2.093   4.112   5.646
 7966TIP3   OH223840   1.154   7.172   2.744
 7966TIP3    H123841   1.098   7.157   2.820
 7966TIP3    H223842   1.201   7.090   2.732
 7967TIP3   OH223843   3.760   0.971   2.299
 7967TIP3    H123844   3.791   0.947   2.387
 7967TIP3    H223845   3.819   0.925   2.239
 7968TIP3   OH223846   0.100   4.190   3.240
 7968TIP3    H123847   0.044   4.251   3.287
 7968TIP3    H223848   0.163   4.246   3.194
 7969TIP3   OH223849   6.585   0.480   1.821
 7969TIP3    H123850   6.602   0.543   1.890
 7969TIP3    H223851   6.518   0.522   1.766
 7970TIP3   OH223852   1.341   4.262   1.402
 7970TIP3    H123853   1.366   4.205   1.330
 7970TIP3    H223854   1.420   4.269   1.456
 7971TIP3   OH223855   6.935   6.618   4.055
 7971TIP3    H123856   6.876   6.639   4.128
 7971TIP3    H223857   7.021   6.607   4.096
 7972TIP3   OH223858   5.643   0.851   6.429
 7972TIP3    H123859   5.610   0.781   6.372
 7972TIP3    H223860   5.654   0.926   6.371
 7973TIP3   OH223861   6.458   4.684   6.604
 7973TIP3    H123862   6.508   4.706   6.682
 7973TIP3    H223863   6.373   4.727   6.617
 7974TIP3   OH223864   7.331   2.073   6.295
 7974TIP3    H123865   7.395   2.002   6.287
 7974TIP3    H223866   7.264   2.051   6.231
 7975TIP3   OH223867   5.061   3.845   6.538
 7975TIP3    H123868   5.055   3.932   6.579
 7975TIP3    H223869   4.980   3.801   6.562
 7976TIP3   OH223870   2.249   0.698   2.863
 7976TIP3    H123871   2.217   0.609   2.881
 7976TIP3    H223872   2.306   0.688   2.786
 7977TIP3   OH223873   7.094   4.904   5.506
 7977TIP3    H123874   7.092   4.946   5.420
 7977TIP3    H223875   7.168   4.843   5.501
 7978TIP3   OH223876   5.863   5.863   0.950
 7978TIP3    H123877   5.933   5.922   0.922
 7978TIP3    H223878   5.889   5.835   1.037
 7979TIP3   OH223879   4.025   2.173   5.168
 7979TIP3    H123880   4.045   2.266   5.182
 7979TIP3    H223881   4.001   2.141   5.254
 7980TIP3   OH223882   0.121   1.409   3.901
 7980TIP3    H123883   0.034   1.447   3.896
 7980TIP3    H223884   0.163   1.434   3.819
 7981TIP3   OH223885   1.009   4.403   1.273
 7981TIP3    H123886   1.070   4.476   1.276
 7981TIP3    H223887   0.925   4.440   1.300
 7982TIP3   OH223888   7.441   6.186   3.735
 7982TIP3    H123889   7.433   6.212   3.643
 7982TIP3    H223890   7.352   6.195   3.770
 7983TIP3   OH223891   4.878   7.384   2.399
 7983TIP3    H123892   4.923   7.312   2.444
 7983TIP3    H223893   4.803   7.342   2.357
 7984TIP3   OH223894   3.884   3.118   3.642
 7984TIP3    H123895   3.940   3.064   3.697
 7984TIP3    H223896   3.907   3.095   3.552
 7985TIP3   OH223897   1.268   2.116   0.693
 7985TIP3    H123898   1.298   2.086   0.779
 7985TIP3    H223899   1.349   2.129   0.643
 7986TIP3   OH223900   5.475   5.593   4.249
 7986TIP3    H123901   5.476   5.678   4.206
 7986TIP3    H223902   5.431   5.608   4.332
 7987TIP3   OH223903   5.485   4.630   0.920
 7987TIP3    H123904   5.537   4.710   0.928
 7987TIP3    H223905   5.397   4.660   0.898
 7988TIP3   OH223906   6.884   3.221   3.669
 7988TIP3    H123907   6.932   3.280   3.727
 7988TIP3    H223908   6.896   3.258   3.582
 7989TIP3   OH223909   0.421   2.908   0.293
 7989TIP3    H123910   0.410   2.989   0.342
 7989TIP3    H223911   0.450   2.936   0.206
 7990TIP3   OH223912   3.187   4.750   2.462
 7990TIP3    H123913   3.169   4.675   2.404
 7990TIP3    H223914   3.101   4.776   2.495
 7991TIP3   OH223915   7.473   4.386   0.248
 7991TIP3    H123916   7.563   4.402   0.218
 7991TIP3    H223917   7.425   4.362   0.169
 7992TIP3   OH223918   5.817   5.325   3.506
 7992TIP3    H123919   5.851   5.236   3.494
 7992TIP3    H223920   5.895   5.380   3.508
 7993TIP3   OH223921   1.775   0.706   0.611
 7993TIP3    H123922   1.732   0.686   0.528
 7993TIP3    H223923   1.744   0.638   0.671
 7994TIP3   OH223924   0.217   3.053   4.570
 7994TIP3    H123925   0.179   2.999   4.500
 7994TIP3    H223926   0.294   3.004   4.598
 7995TIP3   OH223927   5.936   1.250   0.385
 7995TIP3    H123928   5.867   1.208   0.333
 7995TIP3    H223929   5.895   1.270   0.468
 7996TIP3   OH223930   5.171   1.216   4.635
 7996TIP3    H123931   5.099   1.170   4.678
 7996TIP3    H223932   5.250   1.168   4.661
 7997TIP3   OH223933   2.064   7.601   1.354
 7997TIP3    H123934   2.104   7.516   1.338
 7997TIP3    H223935   2.009   7.617   1.277
 7998TIP3   OH223936   0.922   4.728   3.314
 7998TIP3    H123937   1.006   4.694   3.286
 7998TIP3    H223938   0.937   4.760   3.403
 7999TIP3   OH223939   3.039   0.760   0.331
 7999TIP3    H123940   3.018   0.675   0.368
 7999TIP3    H223941   2.986   0.765   0.251
 8000TIP3   OH223942   2.078   6.930   5.059
 8000TIP3    H123943   2.153   6.877   5.089
 8000TIP3    H223944   2.109   6.973   4.980
 8001TIP3   OH223945   4.875   7.265   1.319
 8001TIP3    H123946   4.846   7.287   1.408
 8001TIP3    H223947   4.820   7.317   1.262
 8002TIP3   OH223948   7.671   1.782   0.227
 8002TIP3    H123949   7.589   1.764   0.181
 8002TIP3    H223950   7.738   1.744   0.170
 8003TIP3   OH223951   4.318   5.316   4.751
 8003TIP3    H123952   4.322   5.401   4.708
 8003TIP3    H223953   4.295   5.335   4.842
 8004TIP3   OH223954   3.401   5.397   1.369
 8004TIP3    H123955   3.464   5.468   1.369
 8004TIP3    H223956   3.333   5.425   1.430
 8005TIP3   OH223957   5.806   5.909   6.351
 8005TIP3    H123958   5.875   5.974   6.340
 8005TIP3    H223959   5.786   5.880   6.261
 8006TIP3   OH223960   4.660   7.675   2.247
 8006TIP3    H123961   4.668   7.767   2.271
 8006TIP3    H223962   4.595   7.640   2.309
 8007TIP3   OH223963   0.394   4.449   4.304
 8007TIP3    H123964   0.423   4.495   4.226
 8007TIP3    H223965   0.300   4.465   4.308
 8008TIP3   OH223966   3.178   0.658   2.082
 8008TIP3    H123967   3.113   0.642   2.151
 8008TIP3    H223968   3.256   0.689   2.129
 8009TIP3   OH223969   4.277   6.456   1.496
 8009TIP3    H123970   4.187   6.481   1.516
 8009TIP3    H223971   4.327   6.482   1.574
 8010TIP3   OH223972   3.610   7.351   3.997
 8010TIP3    H123973   3.671   7.341   3.925
 8010TIP3    H223974   3.524   7.338   3.958
 8011TIP3   OH223975   5.781   5.269   2.085
 8011TIP3    H123976   5.779   5.182   2.045
 8011TIP3    H223977   5.748   5.256   2.174
 8012TIP3   OH223978   3.068   1.449   0.269
 8012TIP3    H123979   3.150   1.405   0.247
 8012TIP3    H223980   3.093   1.540   0.286
 8013TIP3   OH223981   2.778   0.222   5.957
 8013TIP3    H123982   2.843   0.231   5.888
 8013TIP3    H223983   2.762   0.311   5.987
 8014TIP3   OH223984   6.846   4.407   5.080
 8014TIP3    H123985   6.834   4.453   4.997
 8014TIP3    H223986   6.937   4.424   5.104
 8015TIP3   OH223987   7.456   0.248   1.983
 8015TIP3    H123988   7.405   0.329   1.995
 8015TIP3    H223989   7.510   0.242   2.062
 8016TIP3   OH223990   3.279   1.880   0.738
 8016TIP3    H123991   3.364   1.900   0.700
 8016TIP3    H223992   3.291   1.892   0.832
 8017TIP3   OH223993   1.388   0.702   0.275
 8017TIP3    H123994   1.330   0.772   0.305
 8017TIP3    H223995   1.338   0.659   0.205
 8018TIP3   OH223996   6.229   1.057   4.065
 8018TIP3    H123997   6.246   1.058   4.159
 8018TIP3    H223998   6.229   0.964   4.042
 8019TIP3   OH223999   5.069   0.024   5.461
 8019TIP3    H124000   4.989  -0.018   5.430
 8019TIP3    H224001   5.124   0.033   5.383
 8020TIP3   OH224002   8.074   3.493   3.878
 8020TIP3    H124003   8.020   3.563   3.842
 8020TIP3    H224004   8.018   3.416   3.876
 8021TIP3   OH224005   6.185   2.539   6.498
 8021TIP3    H124006   6.239   2.611   6.532
 8021TIP3    H224007   6.247   2.467   6.487
 8022TIP3   OH224008   8.112   2.119   2.717
 8022TIP3    H124009   8.130   2.055   2.786
 8022TIP3    H224010   8.187   2.178   2.717
 8023TIP3   OH224011   2.895   6.188   2.318
 8023TIP3    H124012   2.841   6.263   2.343
 8023TIP3    H224013   2.976   6.200   2.366
 8024TIP3   OH224014   1.682   6.985   1.331
 8024TIP3    H124015   1.697   7.070   1.373
 8024TIP3    H224016   1.588   6.971   1.339
 8025TIP3   OH224017   5.317   2.565   4.157
 8025TIP3    H124018   5.273   2.591   4.076
 8025TIP3    H224019   5.380   2.499   4.130
 8026TIP3   OH224020   2.319   5.181   4.213
 8026TIP3    H124021   2.294   5.163   4.122
 8026TIP3    H224022   2.256   5.132   4.265
 8027TIP3   OH224023   3.008   2.941   3.649
 8027TIP3    H124024   2.919   2.968   3.625
 8027TIP3    H224025   3.014   2.960   3.743
 8028TIP3   OH224026   2.634   1.832   5.750
 8028TIP3    H124027   2.609   1.760   5.693
 8028TIP3    H224028   2.606   1.804   5.837
 8029TIP3   OH224029   2.923   6.180   3.422
 8029TIP3    H124030   2.925   6.225   3.506
 8029TIP3    H224031   2.987   6.109   3.431
 8030TIP3   OH224032   7.066   7.050   0.025
 8030TIP3    H124033   7.024   6.992   0.088
 8030TIP3    H224034   7.090   7.128   0.076
 8031TIP3   OH224035   0.561   1.179   4.148
 8031TIP3    H124036   0.650   1.162   4.115
 8031TIP3    H224037   0.506   1.116   4.102
 8032TIP3   OH224038   1.556   5.786   5.068
 8032TIP3    H124039   1.592   5.803   5.155
 8032TIP3    H224040   1.468   5.752   5.084
 8033TIP3   OH224041   7.224   3.790   6.756
 8033TIP3    H124042   7.162   3.858   6.782
 8033TIP3    H224043   7.305   3.838   6.736
 8034TIP3   OH224044   4.755   2.062   0.759
 8034TIP3    H124045   4.849   2.079   0.756
 8034TIP3    H224046   4.746   1.968   0.743
 8035TIP3   OH224047   5.992   2.113   0.360
 8035TIP3    H124048   5.955   2.200   0.375
 8035TIP3    H224049   5.990   2.102   0.265
 8036TIP3   OH224050   3.835   1.464   1.486
 8036TIP3    H124051   3.768   1.486   1.551
 8036TIP3    H224052   3.843   1.369   1.490
 8037TIP3   OH224053   4.127   1.714   6.543
 8037TIP3    H124054   4.110   1.783   6.607
 8037TIP3    H224055   4.044   1.705   6.495
 8038TIP3   OH224056   4.677   0.759   6.452
 8038TIP3    H124057   4.642   0.758   6.362
 8038TIP3    H224058   4.752   0.701   6.449
 8039TIP3   OH224059   2.917   4.705   1.292
 8039TIP3    H124060   2.984   4.720   1.359
 8039TIP3    H224061   2.964   4.718   1.209
 8040TIP3   OH224062   3.678   5.114   1.559
 8040TIP3    H124063   3.726   5.031   1.568
 8040TIP3    H224064   3.712   5.152   1.478
 8041TIP3   OH224065   5.822   7.418   1.892
 8041TIP3    H124066   5.848   7.453   1.978
 8041TIP3    H224067   5.728   7.433   1.887
 8042TIP3   OH224068   5.501   3.462   2.473
 8042TIP3    H124069   5.468   3.477   2.561
 8042TIP3    H224070   5.532   3.371   2.475
 8043TIP3   OH224071   3.486   4.516   4.637
 8043TIP3    H124072   3.561   4.464   4.608
 8043TIP3    H224073   3.409   4.464   4.613
 8044TIP3   OH224074   2.832   0.467   2.591
 8044TIP3    H124075   2.860   0.480   2.681
 8044TIP3    H224076   2.910   0.437   2.545
 8045TIP3   OH224077   3.446   5.838   0.861
 8045TIP3    H124078   3.421   5.756   0.818
 8045TIP3    H224079   3.486   5.890   0.791
 8046TIP3   OH224080   3.484   3.540   6.213
 8046TIP3    H124081   3.568   3.495   6.223
 8046TIP3    H224082   3.440   3.493   6.142
 8047TIP3   OH224083   6.121   6.791   5.864
 8047TIP3    H124084   6.184   6.848   5.907
 8047TIP3    H224085   6.041   6.843   5.859
 8048TIP3   OH224086   7.245   5.993   1.224
 8048TIP3    H124087   7.291   6.040   1.154
 8048TIP3    H224088   7.154   6.024   1.218
 8049TIP3   OH224089   2.464   1.811   5.325
 8049TIP3    H124090   2.466   1.869   5.249
 8049TIP3    H224091   2.553   1.814   5.360
 8050TIP3   OH224092   3.802   6.879   0.172
 8050TIP3    H124093   3.719   6.854   0.133
 8050TIP3    H224094   3.868   6.832   0.121
 8051TIP3   OH224095   4.814   2.912   3.389
 8051TIP3    H124096   4.890   2.864   3.423
 8051TIP3    H224097   4.740   2.852   3.403
 8052TIP3   OH224098   1.888   7.316   0.751
 8052TIP3    H124099   1.892   7.221   0.767
 8052TIP3    H224100   1.859   7.324   0.660
 8053TIP3   OH224101   5.743   2.979   5.746
 8053TIP3    H124102   5.750   3.023   5.831
 8053TIP3    H224103   5.833   2.960   5.721
 8054TIP3   OH224104   0.494   1.754   1.832
 8054TIP3    H124105   0.588   1.753   1.851
 8054TIP3    H224106   0.470   1.661   1.826
 8055TIP3   OH224107   5.798   7.243   4.222
 8055TIP3    H124108   5.858   7.205   4.158
 8055TIP3    H224109   5.762   7.168   4.269
 8056TIP3   OH224110   5.708   0.195   4.081
 8056TIP3    H124111   5.777   0.236   4.133
 8056TIP3    H224112   5.746   0.113   4.050
 8057TIP3   OH224113   1.653   3.369   5.113
 8057TIP3    H124114   1.749   3.371   5.114
 8057TIP3    H224115   1.628   3.446   5.062
 8058TIP3   OH224116   4.009   1.368   1.711
 8058TIP3    H124117   3.929   1.342   1.755
 8058TIP3    H224118   4.017   1.308   1.638
 8059TIP3   OH224119   4.835   5.460   3.622
 8059TIP3    H124120   4.761   5.426   3.572
 8059TIP3    H224121   4.796   5.522   3.684
 8060TIP3   OH224122   7.337   3.557   2.574
 8060TIP3    H124123   7.347   3.500   2.650
 8060TIP3    H224124   7.264   3.519   2.525
 8061TIP3   OH224125   5.372   3.737   0.022
 8061TIP3    H124126   5.382   3.827  -0.007
 8061TIP3    H224127   5.281   3.731   0.050
 8062TIP3   OH224128   0.689   4.828   0.533
 8062TIP3    H124129   0.660   4.850   0.444
 8062TIP3    H224130   0.713   4.912   0.571
 8063TIP3   OH224131   5.836   7.574   3.884
 8063TIP3    H124132   5.748   7.593   3.916
 8063TIP3    H224133   5.822   7.519   3.808
 8064TIP3   OH224134   0.891   6.090   0.156
 8064TIP3    H124135   0.796   6.087   0.148
 8064TIP3    H224136   0.924   6.032   0.088
 8065TIP3   OH224137   7.108   3.277   2.843
 8065TIP3    H124138   7.195   3.277   2.803
 8065TIP3    H224139   7.085   3.370   2.849
 8066TIP3   OH224140   3.658   4.386   2.122
 8066TIP3    H124141   3.629   4.476   2.137
 8066TIP3    H224142   3.588   4.331   2.158
 8067TIP3   OH224143   3.883   2.959   0.799
 8067TIP3    H124144   3.884   2.948   0.894
 8067TIP3    H224145   3.844   3.045   0.786
 8068TIP3   OH224146   4.201   6.171   6.709
 8068TIP3    H124147   4.152   6.217   6.641
 8068TIP3    H224148   4.209   6.234   6.780
 8069TIP3   OH224149   0.325   7.357   2.527
 8069TIP3    H124150   0.280   7.292   2.474
 8069TIP3    H224151   0.348   7.426   2.465
 8070TIP3   OH224152   4.238   1.813   5.637
 8070TIP3    H124153   4.269   1.770   5.716
 8070TIP3    H224154   4.227   1.743   5.574
 8071TIP3   OH224155   7.682   0.072   1.465
 8071TIP3    H124156   7.681   0.036   1.553
 8071TIP3    H224157   7.591   0.068   1.435
 8072TIP3   OH224158   4.192   5.869   2.329
 8072TIP3    H124159   4.109   5.837   2.365
 8072TIP3    H224160   4.217   5.804   2.264
 8073TIP3   OH224161   2.047   1.701   4.843
 8073TIP3    H124162   1.965   1.747   4.828
 8073TIP3    H224163   2.109   1.769   4.869
 8074TIP3   OH224164   1.240   6.508   4.341
 8074TIP3    H124165   1.324   6.513   4.296
 8074TIP3    H224166   1.227   6.414   4.357
 8075TIP3   OH224167   1.465   1.709   0.181
 8075TIP3    H124168   1.400   1.700   0.251
 8075TIP3    H224169   1.452   1.797   0.147
 8076TIP3   OH224170   2.473   5.480   4.066
 8076TIP3    H124171   2.557   5.486   4.111
 8076TIP3    H224172   2.446   5.389   4.076
 8077TIP3   OH224173   1.557   1.920   4.687
 8077TIP3    H124174   1.478   1.958   4.726
 8077TIP3    H224175   1.576   1.976   4.612
 8078TIP3   OH224176   5.670   0.412   1.998
 8078TIP3    H124177   5.678   0.343   2.064
 8078TIP3    H224178   5.651   0.491   2.048
 8079TIP3   OH224179   1.754   1.074   1.660
 8079TIP3    H124180   1.712   1.044   1.580
 8079TIP3    H224181   1.832   1.122   1.630
 8080TIP3   OH224182   3.490   6.406   0.602
 8080TIP3    H124183   3.442   6.481   0.567
 8080TIP3    H224184   3.441   6.381   0.681
 8081TIP3   OH224185   6.304   2.699   5.830
 8081TIP3    H124186   6.395   2.673   5.845
 8081TIP3    H224187   6.296   2.784   5.873
 8082TIP3   OH224188   7.485   3.844   2.312
 8082TIP3    H124189   7.443   3.928   2.294
 8082TIP3    H224190   7.578   3.859   2.293
 8083TIP3   OH224191   1.844   7.020   1.089
 8083TIP3    H124192   1.779   7.013   1.159
 8083TIP3    H224193   1.866   6.929   1.067
 8084TIP3   OH224194   1.551   6.690   0.444
 8084TIP3    H124195   1.523   6.675   0.535
 8084TIP3    H224196   1.501   6.767   0.417
 8085TIP3   OH224197   4.227   2.510   4.909
 8085TIP3    H124198   4.280   2.431   4.894
 8085TIP3    H224199   4.261   2.573   4.846
 8086TIP3   OH224200   1.895   0.387   4.169
 8086TIP3    H124201   1.822   0.329   4.149
 8086TIP3    H224202   1.853   0.470   4.193
 8087TIP3   OH224203   3.602   3.657   3.620
 8087TIP3    H124204   3.609   3.690   3.709
 8087TIP3    H224205   3.667   3.707   3.571
 8088TIP3   OH224206   7.621   7.001   1.895
 8088TIP3    H124207   7.691   7.058   1.926
 8088TIP3    H224208   7.658   6.957   1.819
 8089TIP3   OH224209   6.215   5.857   0.270
 8089TIP3    H124210   6.229   5.950   0.288
 8089TIP3    H224211   6.121   5.848   0.262
 8090TIP3   OH224212   7.577   1.940   6.262
 8090TIP3    H124213   7.608   1.920   6.173
 8090TIP3    H224214   7.618   2.024   6.283
 8091TIP3   OH224215   7.024   3.443   0.538
 8091TIP3    H124216   7.105   3.406   0.573
 8091TIP3    H224217   6.961   3.435   0.610
 8092TIP3   OH224218   3.963   4.898   0.940
 8092TIP3    H124219   3.914   4.936   0.867
 8092TIP3    H224220   3.948   4.804   0.933
 8093TIP3   OH224221   5.548   2.356   0.984
 8093TIP3    H124222   5.547   2.261   0.993
 8093TIP3    H224223   5.507   2.373   0.899
 8094TIP3   OH224224   2.382   0.631   1.682
 8094TIP3    H124225   2.293   0.603   1.662
 8094TIP3    H224226   2.385   0.634   1.778
 8095TIP3   OH224227   0.450   7.069   5.829
 8095TIP3    H124228   0.406   7.100   5.909
 8095TIP3    H224229   0.402   6.991   5.804
 8096TIP3   OH224230   0.709   6.642   2.108
 8096TIP3    H124231   0.644   6.647   2.038
 8096TIP3    H224232   0.663   6.601   2.181
 8097TIP3   OH224233   1.481   1.513   4.529
 8097TIP3    H124234   1.543   1.587   4.532
 8097TIP3    H224235   1.532   1.442   4.490
 8098TIP3   OH224236   1.936   4.583   6.616
 8098TIP3    H124237   1.853   4.566   6.572
 8098TIP3    H224238   1.984   4.500   6.610
 8099TIP3   OH224239   6.964   2.603   1.731
 8099TIP3    H124240   7.016   2.665   1.679
 8099TIP3    H224241   7.020   2.582   1.806
 8100TIP3   OH224242   6.937   1.418   3.453
 8100TIP3    H124243   6.933   1.499   3.402
 8100TIP3    H224244   6.990   1.442   3.529
 8101TIP3   OH224245   0.216   3.569   6.571
 8101TIP3    H124246   0.206   3.613   6.656
 8101TIP3    H224247   0.218   3.641   6.507
 8102TIP3   OH224248   0.058   4.450   4.514
 8102TIP3    H124249   0.075   4.532   4.468
 8102TIP3    H224250   0.031   4.478   4.602
 8103TIP3   OH224251   2.400   0.674   4.298
 8103TIP3    H124252   2.437   0.663   4.211
 8103TIP3    H224253   2.407   0.768   4.315
 8104TIP3   OH224254   8.156   5.378   6.091
 8104TIP3    H124255   8.077   5.425   6.118
 8104TIP3    H224256   8.162   5.392   5.997
 8105TIP3   OH224257   3.550   3.200   1.522
 8105TIP3    H124258   3.567   3.262   1.452
 8105TIP3    H224259   3.492   3.135   1.483
 8106TIP3   OH224260   5.838   7.581   2.957
 8106TIP3    H124261   5.807   7.544   2.874
 8106TIP3    H224262   5.889   7.510   2.997
 8107TIP3   OH224263   7.366   6.097   1.767
 8107TIP3    H124264   7.362   6.014   1.816
 8107TIP3    H224265   7.311   6.082   1.690
 8108TIP3   OH224266   2.773   1.740   1.696
 8108TIP3    H124267   2.683   1.737   1.664
 8108TIP3    H224268   2.766   1.729   1.790
 8109TIP3   OH224269   2.045   0.152   4.076
 8109TIP3    H124270   1.991   0.128   4.000
 8109TIP3    H224271   2.008   0.235   4.107
 8110TIP3   OH224272   3.666   0.092   0.499
 8110TIP3    H124273   3.661   0.173   0.449
 8110TIP3    H224274   3.575   0.064   0.508
 8111TIP3   OH224275   5.636   0.685   6.187
 8111TIP3    H124276   5.590   0.609   6.152
 8111TIP3    H224277   5.725   0.655   6.201
 8112TIP3   OH224278   4.523   6.799   5.031
 8112TIP3    H124279   4.604   6.839   5.063
 8112TIP3    H224280   4.538   6.705   5.039
 8113TIP3   OH224281   6.398   4.206   4.674
 8113TIP3    H124282   6.421   4.215   4.767
 8113TIP3    H224283   6.322   4.147   4.674
 8114TIP3   OH224284   6.349   3.888   3.721
 8114TIP3    H124285   6.385   3.945   3.789
 8114TIP3    H224286   6.302   3.820   3.769
 8115TIP3   OH224287   1.886   1.423   5.527
 8115TIP3    H124288   1.905   1.515   5.541
 8115TIP3    H224289   1.950   1.394   5.462
 8116TIP3   OH224290   2.576   3.011   0.036
 8116TIP3    H124291   2.596   3.103   0.056
 8116TIP3    H224292   2.484   3.012   0.012
 8117TIP3   OH224293   0.491   3.790   1.296
 8117TIP3    H124294   0.576   3.831   1.281
 8117TIP3    H224295   0.447   3.849   1.356
 8118TIP3   OH224296   2.911   6.593   4.060
 8118TIP3    H124297   2.818   6.571   4.064
 8118TIP3    H224298   2.947   6.536   3.992
 8119TIP3   OH224299   6.933   5.555   4.097
 8119TIP3    H124300   6.895   5.480   4.051
 8119TIP3    H224301   7.028   5.542   4.091
 8120TIP3   OH224302   1.922   1.586   6.241
 8120TIP3    H124303   1.828   1.581   6.222
 8120TIP3    H224304   1.927   1.605   6.335
 8121TIP3   OH224305   1.344   4.929   0.277
 8121TIP3    H124306   1.404   4.859   0.305
 8121TIP3    H224307   1.270   4.882   0.239
 8122TIP3   OH224308   1.178   0.066   0.147
 8122TIP3    H124309   1.115   0.048   0.216
 8122TIP3    H224310   1.243   0.123   0.188
 8123TIP3   OH224311   0.163   5.978   2.657
 8123TIP3    H124312   0.204   6.058   2.625
 8123TIP3    H224313   0.071   5.987   2.633
 8124TIP3   OH224314   5.987   5.112   5.412
 8124TIP3    H124315   6.046   5.067   5.472
 8124TIP3    H224316   5.938   5.042   5.369
 8125TIP3   OH224317   6.832   0.689   5.228
 8125TIP3    H124318   6.783   0.708   5.308
 8125TIP3    H224319   6.908   0.747   5.232
 8126TIP3   OH224320   1.170   1.567   4.304
 8126TIP3    H124321   1.209   1.552   4.218
 8126TIP3    H224322   1.234   1.621   4.350
 8127TIP3   OH224323   1.756   0.742   1.475
 8127TIP3    H124324   1.768   0.650   1.453
 8127TIP3    H224325   1.842   0.781   1.460
 8128TIP3   OH224326   0.730   0.297   4.216
 8128TIP3    H124327   0.683   0.242   4.153
 8128TIP3    H224328   0.780   0.358   4.161
 8129TIP3   OH224329   7.668   5.201   3.671
 8129TIP3    H124330   7.712   5.240   3.595
 8129TIP3    H224331   7.600   5.145   3.633
 8130TIP3   OH224332   5.280   5.520   6.548
 8130TIP3    H124333   5.302   5.440   6.502
 8130TIP3    H224334   5.365   5.559   6.570
 8131TIP3   OH224335   6.235   4.097   0.575
 8131TIP3    H124336   6.187   4.114   0.494
 8131TIP3    H224337   6.252   4.002   0.573
 8132TIP3   OH224338   1.961   4.345   1.191
 8132TIP3    H124339   1.910   4.386   1.261
 8132TIP3    H224340   1.952   4.251   1.207
 8133TIP3   OH224341   2.623   4.500   1.669
 8133TIP3    H124342   2.681   4.497   1.744
 8133TIP3    H224343   2.550   4.556   1.697
 8134TIP3   OH224344   5.866   5.165   0.680
 8134TIP3    H124345   5.947   5.116   0.690
 8134TIP3    H224346   5.856   5.178   0.586
 8135TIP3   OH224347   4.134   3.307   0.670
 8135TIP3    H124348   4.076   3.314   0.745
 8135TIP3    H224349   4.124   3.217   0.639
 8136TIP3   OH224350   5.051   0.759   6.325
 8136TIP3    H124351   5.114   0.827   6.299
 8136TIP3    H224352   4.993   0.750   6.249
 8137TIP3   OH224353   5.368   0.651   3.628
 8137TIP3    H124354   5.436   0.693   3.680
 8137TIP3    H224355   5.297   0.715   3.626
 8138TIP3   OH224356   2.688   4.571   4.798
 8138TIP3    H124357   2.700   4.662   4.770
 8138TIP3    H224358   2.712   4.572   4.891
 8139TIP3   OH224359   7.785   0.627   4.401
 8139TIP3    H124360   7.850   0.565   4.370
 8139TIP3    H224361   7.794   0.625   4.496
 8140TIP3   OH224362   0.432   6.820   3.615
 8140TIP3    H124363   0.384   6.771   3.682
 8140TIP3    H224364   0.522   6.822   3.646
 8141TIP3   OH224365   2.499   2.358   1.452
 8141TIP3    H124366   2.446   2.281   1.433
 8141TIP3    H224367   2.577   2.323   1.496
 8142TIP3   OH224368   4.242   2.055   2.926
 8142TIP3    H124369   4.196   2.138   2.935
 8142TIP3    H224370   4.260   2.028   3.016
 8143TIP3   OH224371   4.642   2.643   2.816
 8143TIP3    H124372   4.654   2.705   2.743
 8143TIP3    H224373   4.671   2.691   2.893
 8144TIP3   OH224374   6.021   5.782   3.497
 8144TIP3    H124375   6.031   5.829   3.579
 8144TIP3    H224376   5.926   5.780   3.482
 8145TIP3   OH224377   6.079   5.248   0.921
 8145TIP3    H124378   6.054   5.333   0.956
 8145TIP3    H224379   6.151   5.218   0.977
 8146TIP3   OH224380   3.733   6.239   6.115
 8146TIP3    H124381   3.782   6.313   6.150
 8146TIP3    H224382   3.744   6.246   6.020
 8147TIP3   OH224383   4.288   7.193   1.264
 8147TIP3    H124384   4.227   7.264   1.287
 8147TIP3    H224385   4.334   7.225   1.187
 8148TIP3   OH224386   7.960   6.724   1.888
 8148TIP3    H124387   7.887   6.774   1.852
 8148TIP3    H224388   7.920   6.651   1.935
 8149TIP3   OH224389   0.897   3.570   1.081
 8149TIP3    H124390   0.864   3.612   1.161
 8149TIP3    H224391   0.873   3.631   1.011
 8150TIP3   OH224392   1.353   2.445   5.812
 8150TIP3    H124393   1.287   2.500   5.854
 8150TIP3    H224394   1.396   2.399   5.884
 8151TIP3   OH224395   4.898   1.046   0.785
 8151TIP3    H124396   4.953   1.002   0.850
 8151TIP3    H224397   4.856   1.117   0.835
 8152TIP3   OH224398   6.586   0.316   5.938
 8152TIP3    H124399   6.517   0.318   5.872
 8152TIP3    H224400   6.641   0.392   5.918
 8153TIP3   OH224401   1.432   6.734   5.623
 8153TIP3    H124402   1.350   6.688   5.602
 8153TIP3    H224403   1.486   6.668   5.665
 8154TIP3   OH224404   3.907   2.379   0.231
 8154TIP3    H124405   3.993   2.380   0.190
 8154TIP3    H224406   3.859   2.309   0.187
 8155TIP3   OH224407   5.024   3.297   5.727
 8155TIP3    H124408   4.999   3.326   5.639
 8155TIP3    H224409   5.072   3.215   5.713
 8156TIP3   OH224410   2.715   7.049   3.028
 8156TIP3    H124411   2.811   7.049   3.026
 8156TIP3    H224412   2.694   7.036   3.120
 8157TIP3   OH224413   4.345   0.379   0.814
 8157TIP3    H124414   4.356   0.308   0.878
 8157TIP3    H224415   4.432   0.389   0.774
 8158TIP3   OH224416   1.359   3.505   0.303
 8158TIP3    H124417   1.274   3.461   0.303
 8158TIP3    H224418   1.419   3.439   0.266
 8159TIP3   OH224419   2.407   4.362   3.289
 8159TIP3    H124420   2.340   4.369   3.222
 8159TIP3    H224421   2.487   4.395   3.246
 8160TIP3   OH224422   3.321   6.227   1.828
 8160TIP3    H124423   3.305   6.134   1.845
 8160TIP3    H224424   3.243   6.271   1.862
 8161TIP3   OH224425   4.842   2.339   6.109
 8161TIP3    H124426   4.923   2.306   6.146
 8161TIP3    H224427   4.863   2.428   6.082
 8162TIP3   OH224428   4.757   1.940   1.074
 8162TIP3    H124429   4.736   1.968   0.985
 8162TIP3    H224430   4.838   1.987   1.095
 8163TIP3   OH224431   6.223   6.470   1.755
 8163TIP3    H124432   6.306   6.476   1.802
 8163TIP3    H224433   6.206   6.376   1.748
 8164TIP3   OH224434   5.458   5.337   6.444
 8164TIP3    H124435   5.484   5.274   6.377
 8164TIP3    H224436   5.450   5.285   6.524
 8165TIP3   OH224437   0.667   5.982   5.599
 8165TIP3    H124438   0.635   5.982   5.689
 8165TIP3    H224439   0.607   5.923   5.553
 8166TIP3   OH224440   4.802   3.485   5.292
 8166TIP3    H124441   4.742   3.533   5.236
 8166TIP3    H224442   4.785   3.393   5.272
 8167TIP3   OH224443   3.701   6.835   6.191
 8167TIP3    H124444   3.749   6.838   6.108
 8167TIP3    H224445   3.753   6.777   6.246
 8168TIP3   OH224446   6.832   0.368   1.934
 8168TIP3    H124447   6.757   0.373   1.874
 8168TIP3    H224448   6.851   0.459   1.956
 8169TIP3   OH224449   0.487   3.892   6.219
 8169TIP3    H124450   0.552   3.907   6.150
 8169TIP3    H224451   0.404   3.922   6.181
 8170TIP3   OH224452   6.535   7.341   3.635
 8170TIP3    H124453   6.488   7.416   3.670
 8170TIP3    H224454   6.567   7.294   3.712
 8171TIP3   OH224455   0.936   2.978   1.449
 8171TIP3    H124456   1.022   3.001   1.484
 8171TIP3    H224457   0.900   2.916   1.513
 8172TIP3   OH224458   7.433   5.799   6.701
 8172TIP3    H124459   7.429   5.714   6.745
 8172TIP3    H224460   7.386   5.785   6.619
 8173TIP3   OH224461   1.434   6.068   3.788
 8173TIP3    H124462   1.401   6.050   3.700
 8173TIP3    H224463   1.529   6.071   3.779
 8174TIP3   OH224464   7.421   6.723   4.246
 8174TIP3    H124465   7.406   6.817   4.246
 8174TIP3    H224466   7.394   6.694   4.334
 8175TIP3   OH224467   7.366   3.171   4.734
 8175TIP3    H124468   7.282   3.213   4.717
 8175TIP3    H224469   7.361   3.088   4.687
 8176TIP3   OH224470   6.018   2.591   6.081
 8176TIP3    H124471   5.992   2.589   5.989
 8176TIP3    H224472   5.993   2.678   6.112
 8177TIP3   OH224473   1.497   6.248   4.095
 8177TIP3    H124474   1.408   6.249   4.060
 8177TIP3    H224475   1.497   6.173   4.156
 8178TIP3   OH224476   0.986   1.029   2.454
 8178TIP3    H124477   0.942   1.035   2.539
 8178TIP3    H224478   1.021   0.940   2.452
 8179TIP3   OH224479   6.924   4.091   3.679
 8179TIP3    H124480   6.991   4.079   3.612
 8179TIP3    H224481   6.902   4.184   3.676
 8180TIP3   OH224482   1.087   5.794   1.031
 8180TIP3    H124483   1.027   5.746   1.088
 8180TIP3    H224484   1.031   5.849   0.976
 8181TIP3   OH224485   4.868   3.723   1.325
 8181TIP3    H124486   4.819   3.642   1.312
 8181TIP3    H224487   4.861   3.769   1.241
 8182TIP3   OH224488   4.847   3.773   4.069
 8182TIP3    H124489   4.912   3.810   4.129
 8182TIP3    H224490   4.877   3.684   4.051
 8183TIP3   OH224491   1.417   7.769   2.297
 8183TIP3    H124492   1.407   7.864   2.307
 8183TIP3    H224493   1.350   7.732   2.355
 8184TIP3   OH224494   3.740   4.233   5.254
 8184TIP3    H124495   3.740   4.175   5.178
 8184TIP3    H224496   3.674   4.300   5.232
 8185TIP3   OH224497   6.060   2.533   5.119
 8185TIP3    H124498   6.075   2.625   5.097
 8185TIP3    H224499   5.967   2.519   5.103
 8186TIP3   OH224500   2.200   5.229   1.221
 8186TIP3    H124501   2.225   5.305   1.168
 8186TIP3    H224502   2.254   5.157   1.186
 8187TIP3   OH224503   1.079   7.617   6.486
 8187TIP3    H124504   1.174   7.603   6.476
 8187TIP3    H224505   1.063   7.610   6.580
 8188TIP3   OH224506   1.989   6.261   4.318
 8188TIP3    H124507   2.021   6.206   4.246
 8188TIP3    H224508   1.953   6.199   4.382
 8189TIP3   OH224509   1.010   4.465   1.959
 8189TIP3    H124510   0.940   4.411   1.921
 8189TIP3    H224511   0.964   4.523   2.021
 8190TIP3   OH224512   7.852   3.702   6.232
 8190TIP3    H124513   7.823   3.631   6.176
 8190TIP3    H224514   7.792   3.774   6.212
 8191TIP3   OH224515   1.337   7.214   6.389
 8191TIP3    H124516   1.279   7.205   6.314
 8191TIP3    H224517   1.281   7.201   6.465
 8192TIP3   OH224518   3.775   7.710   4.690
 8192TIP3    H124519   3.839   7.640   4.693
 8192TIP3    H224520   3.721   7.690   4.613
 8193TIP3   OH224521   7.834   1.441   2.601
 8193TIP3    H124522   7.889   1.482   2.533
 8193TIP3    H224523   7.895   1.424   2.673
 8194TIP3   OH224524   0.632   4.163   4.628
 8194TIP3    H124525   0.581   4.084   4.646
 8194TIP3    H224526   0.669   4.187   4.713
 8195TIP3   OH224527   2.862   3.065   1.786
 8195TIP3    H124528   2.839   3.071   1.878
 8195TIP3    H224529   2.938   3.122   1.776
 8196TIP3   OH224530   8.122   2.189   4.957
 8196TIP3    H124531   8.104   2.263   5.014
 8196TIP3    H224532   8.212   2.204   4.927
 8197TIP3   OH224533   4.371   1.079   5.660
 8197TIP3    H124534   4.431   1.119   5.723
 8197TIP3    H224535   4.304   1.036   5.714
 8198TIP3   OH224536   0.575   6.274   2.874
 8198TIP3    H124537   0.582   6.353   2.927
 8198TIP3    H224538   0.484   6.246   2.885
 8199TIP3   OH224539   0.564   4.227   2.446
 8199TIP3    H124540   0.656   4.228   2.419
 8199TIP3    H224541   0.544   4.319   2.467
 8200TIP3   OH224542   6.023   0.515   4.165
 8200TIP3    H124543   6.056   0.505   4.075
 8200TIP3    H224544   6.000   0.426   4.192
 8201TIP3   OH224545   2.189   6.926   0.674
 8201TIP3    H124546   2.245   6.946   0.749
 8201TIP3    H224547   2.134   7.004   0.664
 8202TIP3   OH224548   4.809   7.601   4.413
 8202TIP3    H124549   4.885   7.629   4.463
 8202TIP3    H224550   4.845   7.562   4.333
 8203TIP3   OH224551   7.679   3.796   4.613
 8203TIP3    H124552   7.638   3.727   4.561
 8203TIP3    H224553   7.608   3.856   4.635
 8204TIP3   OH224554   3.753   5.593   3.662
 8204TIP3    H124555   3.751   5.502   3.693
 8204TIP3    H224556   3.845   5.609   3.642
 8205TIP3   OH224557   1.717   1.567   4.008
 8205TIP3    H124558   1.710   1.635   3.940
 8205TIP3    H224559   1.633   1.522   4.006
 8206TIP3   OH224560   3.526   5.455   2.758
 8206TIP3    H124561   3.597   5.494   2.709
 8206TIP3    H224562   3.447   5.476   2.707
 8207TIP3   OH224563   0.477   1.876   4.276
 8207TIP3    H124564   0.434   1.844   4.356
 8207TIP3    H224565   0.537   1.807   4.251
 8208TIP3   OH224566   2.867   4.414   0.959
 8208TIP3    H124567   2.788   4.376   0.997
 8208TIP3    H224568   2.841   4.502   0.933
 8209TIP3   OH224569   6.982   2.153   0.571
 8209TIP3    H124570   6.946   2.073   0.532
 8209TIP3    H224571   6.908   2.214   0.575
 8210TIP3   OH224572   2.299   3.116   0.249
 8210TIP3    H124573   2.308   3.021   0.253
 8210TIP3    H224574   2.224   3.136   0.305
 8211TIP3   OH224575   3.978   6.266   4.424
 8211TIP3    H124576   4.045   6.203   4.400
 8211TIP3    H224577   4.025   6.335   4.471
 8212TIP3   OH224578   4.263   2.079   6.276
 8212TIP3    H124579   4.306   2.153   6.233
 8212TIP3    H224580   4.230   2.115   6.359
 8213TIP3   OH224581   5.243   6.060   5.987
 8213TIP3    H124582   5.235   5.979   6.038
 8213TIP3    H224583   5.285   6.033   5.905
 8214TIP3   OH224584   6.948   2.665   3.809
 8214TIP3    H124585   7.031   2.651   3.764
 8214TIP3    H224586   6.934   2.760   3.805
 8215TIP3   OH224587   2.450   6.196   1.411
 8215TIP3    H124588   2.530   6.247   1.427
 8215TIP3    H224589   2.435   6.204   1.317
 8216TIP3   OH224590   3.060   2.202   2.728
 8216TIP3    H124591   3.064   2.151   2.647
 8216TIP3    H224592   3.024   2.141   2.793
 8217TIP3   OH224593   2.480   7.204   3.673
 8217TIP3    H124594   2.522   7.242   3.750
 8217TIP3    H224595   2.552   7.180   3.615
 8218TIP3   OH224596   2.736   4.437   5.386
 8218TIP3    H124597   2.827   4.433   5.356
 8218TIP3    H224598   2.707   4.526   5.366
 8219TIP3   OH224599   6.102   2.809   3.704
 8219TIP3    H124600   6.074   2.791   3.614
 8219TIP3    H224601   6.035   2.869   3.737
 8220TIP3   OH224602   2.803   5.980   1.115
 8220TIP3    H124603   2.772   5.893   1.140
 8220TIP3    H224604   2.793   6.032   1.194
 8221TIP3   OH224605   1.758   6.830   3.137
 8221TIP3    H124606   1.798   6.744   3.127
 8221TIP3    H224607   1.716   6.846   3.052
 8222TIP3   OH224608   5.559   6.876   1.752
 8222TIP3    H124609   5.480   6.834   1.786
 8222TIP3    H224610   5.555   6.965   1.785
 8223TIP3   OH224611   2.625   2.674   0.415
 8223TIP3    H124612   2.539   2.712   0.401
 8223TIP3    H224613   2.621   2.638   0.504
 8224TIP3   OH224614   4.844   2.701   5.812
 8224TIP3    H124615   4.808   2.786   5.839
 8224TIP3    H224616   4.935   2.720   5.790
 8225TIP3   OH224617   2.386   1.534   4.993
 8225TIP3    H124618   2.426   1.546   4.907
 8225TIP3    H224619   2.358   1.443   4.994
 8226TIP3   OH224620   2.276   0.258   2.076
 8226TIP3    H124621   2.192   0.241   2.034
 8226TIP3    H224622   2.292   0.351   2.062
 8227TIP3   OH224623   6.051   6.156   3.019
 8227TIP3    H124624   5.958   6.171   3.036
 8227TIP3    H224625   6.091   6.152   3.106
 8228TIP3   OH224626   5.847   0.274   6.734
 8228TIP3    H124627   5.844   0.346   6.797
 8228TIP3    H224628   5.756   0.264   6.706
 8229TIP3   OH224629   3.753   0.954   6.413
 8229TIP3    H124630   3.843   0.959   6.379
 8229TIP3    H224631   3.755   1.004   6.495
 8230TIP3   OH224632   0.133   0.042   6.611
 8230TIP3    H124633   0.196  -0.007   6.665
 8230TIP3    H224634   0.071  -0.024   6.581
 8231TIP3   OH224635   8.217   7.273   2.256
 8231TIP3    H124636   8.218   7.193   2.309
 8231TIP3    H224637   8.154   7.255   2.187
 8232TIP3   OH224638   0.803   6.814   3.304
 8232TIP3    H124639   0.720   6.798   3.350
 8232TIP3    H224640   0.797   6.904   3.273
 8233TIP3   OH224641   6.304   2.376   0.527
 8233TIP3    H124642   6.399   2.384   0.519
 8233TIP3    H224643   6.269   2.428   0.455
 8234TIP3   OH224644   5.328   4.767   2.728
 8234TIP3    H124645   5.410   4.743   2.684
 8234TIP3    H224646   5.335   4.861   2.740
 8235TIP3   OH224647   1.359   3.058   0.102
 8235TIP3    H124648   1.345   2.984   0.043
 8235TIP3    H224649   1.409   3.021   0.175
 8236TIP3   OH224650   6.604   2.639   5.870
 8236TIP3    H124651   6.664   2.603   5.935
 8236TIP3    H224652   6.614   2.581   5.794
 8237TIP3   OH224653   6.583   6.016   0.512
 8237TIP3    H124654   6.658   6.038   0.567
 8237TIP3    H224655   6.616   5.949   0.452
 8238TIP3   OH224656   6.518   4.059   1.483
 8238TIP3    H124657   6.508   4.146   1.446
 8238TIP3    H224658   6.432   4.038   1.519
 8239TIP3   OH224659   2.940   6.921   4.746
 8239TIP3    H124660   2.991   6.950   4.670
 8239TIP3    H224661   2.865   6.875   4.708
 8240TIP3   OH224662   0.654   7.664   0.201
 8240TIP3    H124663   0.598   7.588   0.185
 8240TIP3    H224664   0.655   7.674   0.296
 8241TIP3   OH224665   2.196   2.112   1.012
 8241TIP3    H124666   2.223   2.044   1.074
 8241TIP3    H224667   2.141   2.066   0.948
 8242TIP3   OH224668   3.310   2.984   3.705
 8242TIP3    H124669   3.282   2.937   3.784
 8242TIP3    H224670   3.371   3.050   3.736
 8243TIP3   OH224671   4.296   5.327   1.902
 8243TIP3    H124672   4.301   5.294   1.992
 8243TIP3    H224673   4.229   5.274   1.860
 8244TIP3   OH224674   3.662   6.665   4.485
 8244TIP3    H124675   3.642   6.685   4.577
 8244TIP3    H224676   3.599   6.717   4.435
 8245TIP3   OH224677   2.617   0.238   2.099
 8245TIP3    H124678   2.604   0.183   2.022
 8245TIP3    H224679   2.583   0.185   2.171
 8246TIP3   OH224680   5.277   4.992   5.277
 8246TIP3    H124681   5.322   4.908   5.284
 8246TIP3    H224682   5.338   5.047   5.226
 8247TIP3   OH224683   0.256   3.514   0.687
 8247TIP3    H124684   0.177   3.507   0.741
 8247TIP3    H224685   0.258   3.432   0.637
 8248TIP3   OH224686   3.265   7.293   5.696
 8248TIP3    H124687   3.244   7.336   5.613
 8248TIP3    H224688   3.184   7.249   5.721
 8249TIP3   OH224689   7.083   3.434   4.242
 8249TIP3    H124690   7.119   3.384   4.315
 8249TIP3    H224691   7.159   3.453   4.187
 8250TIP3   OH224692   8.003   3.072   5.142
 8250TIP3    H124693   8.077   3.016   5.120
 8250TIP3    H224694   8.040   3.139   5.200
 8251TIP3   OH224695   2.295   3.888   4.348
 8251TIP3    H124696   2.292   3.886   4.444
 8251TIP3    H224697   2.374   3.840   4.325
 8252TIP3   OH224698   3.269   1.946   1.243
 8252TIP3    H124699   3.226   1.878   1.294
 8252TIP3    H224700   3.202   2.014   1.234
 8253TIP3   OH224701   0.617   6.605   5.085
 8253TIP3    H124702   0.623   6.561   5.170
 8253TIP3    H224703   0.527   6.590   5.056
 8254TIP3   OH224704   2.684   0.302   2.452
 8254TIP3    H124705   2.709   0.372   2.512
 8254TIP3    H224706   2.589   0.310   2.443
 8255TIP3   OH224707   1.455   2.702   0.483
 8255TIP3    H124708   1.465   2.630   0.546
 8255TIP3    H224709   1.360   2.715   0.476
 8256TIP3   OH224710   8.165   7.421   1.806
 8256TIP3    H124711   8.242   7.429   1.750
 8256TIP3    H224712   8.165   7.501   1.859
 8257TIP3   OH224713   4.608   5.882   0.392
 8257TIP3    H124714   4.639   5.821   0.325
 8257TIP3    H224715   4.653   5.964   0.372
 8258TIP3   OH224716   5.754   1.304   0.587
 8258TIP3    H124717   5.735   1.393   0.618
 8258TIP3    H224718   5.672   1.256   0.600
 8259TIP3   OH224719   1.744   0.623   4.198
 8259TIP3    H124720   1.788   0.678   4.134
 8259TIP3    H224721   1.655   0.614   4.165
 8260TIP3   OH224722   7.480   0.840   6.222
 8260TIP3    H124723   7.490   0.759   6.271
 8260TIP3    H224724   7.550   0.838   6.156
 8261TIP3   OH224725   3.613   6.677   0.796
 8261TIP3    H124726   3.572   6.670   0.709
 8261TIP3    H224727   3.707   6.665   0.779
 8262TIP3   OH224728   6.721   5.057   0.409
 8262TIP3    H124729   6.721   5.148   0.380
 8262TIP3    H224730   6.785   5.014   0.352
 8263TIP3   OH224731   7.426   0.352   5.451
 8263TIP3    H124732   7.388   0.307   5.375
 8263TIP3    H224733   7.519   0.328   5.449
 8264TIP3   OH224734   0.298   3.816   4.044
 8264TIP3    H124735   0.209   3.848   4.057
 8264TIP3    H224736   0.353   3.881   4.087
 8265TIP3   OH224737   4.665   2.889   5.223
 8265TIP3    H124738   4.703   2.931   5.299
 8265TIP3    H224739   4.731   2.898   5.154
 8266TIP3   OH224740   7.319   1.692   2.041
 8266TIP3    H124741   7.279   1.779   2.040
 8266TIP3    H224742   7.406   1.706   2.002
 8267TIP3   OH224743   6.585   1.992   2.434
 8267TIP3    H124744   6.509   2.016   2.488
 8267TIP3    H224745   6.558   2.014   2.345
 8268TIP3   OH224746   5.109   7.703   0.995
 8268TIP3    H124747   5.157   7.749   0.927
 8268TIP3    H224748   5.176   7.671   1.054
 8269TIP3   OH224749   6.915   3.418   6.643
 8269TIP3    H124750   7.005   3.445   6.627
 8269TIP3    H224751   6.907   3.421   6.739
 8270TIP3   OH224752   5.662   7.339   2.329
 8270TIP3    H124753   5.588   7.398   2.335
 8270TIP3    H224754   5.722   7.381   2.268
 8271TIP3   OH224755   1.611   7.007   6.048
 8271TIP3    H124756   1.686   6.971   6.096
 8271TIP3    H224757   1.605   6.952   5.970
 8272TIP3   OH224758   2.029   6.155   3.380
 8272TIP3    H124759   2.075   6.167   3.297
 8272TIP3    H224760   2.040   6.238   3.426
 8273TIP3   OH224761   0.545   0.923   3.809
 8273TIP3    H124762   0.594   0.935   3.891
 8273TIP3    H224763   0.495   0.842   3.823
 8274TIP3   OH224764   6.600   5.039   5.242
 8274TIP3    H124765   6.666   4.976   5.269
 8274TIP3    H224766   6.650   5.113   5.208
 8275TIP3   OH224767   1.422   2.297   4.935
 8275TIP3    H124768   1.392   2.355   5.006
 8275TIP3    H224769   1.506   2.263   4.966
 8276TIP3   OH224770   6.725   0.892   0.533
 8276TIP3    H124771   6.782   0.917   0.606
 8276TIP3    H224772   6.672   0.820   0.568
 8277TIP3   OH224773   0.510   0.806   2.781
 8277TIP3    H124774   0.476   0.847   2.701
 8277TIP3    H224775   0.473   0.718   2.781
 8278TIP3   OH224776   0.948   5.792   1.825
 8278TIP3    H124777   0.992   5.843   1.757
 8278TIP3    H224778   0.930   5.855   1.895
 8279TIP3   OH224779   0.308   1.134   6.727
 8279TIP3    H124780   0.297   1.139   6.632
 8279TIP3    H224781   0.256   1.206   6.761
 8280TIP3   OH224782   5.307   5.555   2.746
 8280TIP3    H124783   5.349   5.534   2.663
 8280TIP3    H224784   5.241   5.620   2.724
 8281TIP3   OH224785   7.524   1.119   1.707
 8281TIP3    H124786   7.505   1.168   1.627
 8281TIP3    H224787   7.617   1.133   1.722
 8282TIP3   OH224788   3.931   1.098   0.271
 8282TIP3    H124789   3.961   1.063   0.355
 8282TIP3    H224790   3.877   1.174   0.295
 8283TIP3   OH224791   4.976   3.989   5.513
 8283TIP3    H124792   4.897   3.969   5.462
 8283TIP3    H224793   5.044   4.005   5.447
 8284TIP3   OH224794   6.348   2.772   1.264
 8284TIP3    H124795   6.315   2.697   1.313
 8284TIP3    H224796   6.269   2.817   1.233
 8285TIP3   OH224797   5.952   4.051   5.733
 8285TIP3    H124798   5.988   3.963   5.718
 8285TIP3    H224799   5.970   4.068   5.826
 8286TIP3   OH224800   1.761   0.557   1.034
 8286TIP3    H124801   1.793   0.543   0.944
 8286TIP3    H224802   1.670   0.585   1.023
 8287TIP3   OH224803   1.942   3.372   5.139
 8287TIP3    H124804   2.000   3.353   5.064
 8287TIP3    H224805   1.965   3.461   5.166
 8288TIP3   OH224806   7.838   4.473   1.045
 8288TIP3    H124807   7.866   4.392   1.087
 8288TIP3    H224808   7.894   4.541   1.082
 8289TIP3   OH224809   3.012   5.301   1.262
 8289TIP3    H124810   3.014   5.381   1.314
 8289TIP3    H224811   2.921   5.294   1.232
 8290TIP3   OH224812   7.277   2.134   2.220
 8290TIP3    H124813   7.270   2.102   2.310
 8290TIP3    H224814   7.284   2.054   2.167
 8291TIP3   OH224815   0.383   7.139   3.758
 8291TIP3    H124816   0.366   7.222   3.802
 8291TIP3    H224817   0.348   7.151   3.669
 8292TIP3   OH224818   2.940   2.039   2.927
 8292TIP3    H124819   2.934   1.947   2.952
 8292TIP3    H224820   2.852   2.074   2.943
 8293TIP3   OH224821   5.833   3.875   1.930
 8293TIP3    H124822   5.778   3.935   1.981
 8293TIP3    H224823   5.887   3.831   1.995
 8294TIP3   OH224824   1.251   2.320   2.795
 8294TIP3    H124825   1.202   2.361   2.723
 8294TIP3    H224826   1.217   2.230   2.798
 8295TIP3   OH224827   5.682   2.995   2.805
 8295TIP3    H124828   5.685   2.940   2.883
 8295TIP3    H224829   5.597   3.040   2.811
 8296TIP3   OH224830   1.243   2.080   6.681
 8296TIP3    H124831   1.163   2.033   6.705
 8296TIP3    H224832   1.250   2.151   6.746
 8297TIP3   OH224833   3.687   2.692   5.341
 8297TIP3    H124834   3.777   2.682   5.372
 8297TIP3    H224835   3.667   2.608   5.299
 8298TIP3   OH224836   3.809   6.001   3.365
 8298TIP3    H124837   3.874   6.039   3.306
 8298TIP3    H224838   3.848   6.010   3.452
 8299TIP3   OH224839   6.496   5.278   6.376
 8299TIP3    H124840   6.582   5.240   6.359
 8299TIP3    H224841   6.462   5.228   6.450
 8300TIP3   OH224842   1.468   6.495   4.173
 8300TIP3    H124843   1.522   6.553   4.121
 8300TIP3    H224844   1.498   6.407   4.151
 8301TIP3   OH224845   5.473   4.046   4.945
 8301TIP3    H124846   5.568   4.057   4.943
 8301TIP3    H224847   5.443   4.082   4.862
 8302TIP3   OH224848   5.283   3.168   5.872
 8302TIP3    H124849   5.222   3.131   5.935
 8302TIP3    H224850   5.256   3.130   5.788
 8303TIP3   OH224851   0.823   4.587   0.536
 8303TIP3    H124852   0.916   4.601   0.550
 8303TIP3    H224853   0.788   4.675   0.517
 8304TIP3   OH224854   4.675   5.687   0.206
 8304TIP3    H124855   4.711   5.614   0.255
 8304TIP3    H224856   4.612   5.647   0.146
 8305TIP3   OH224857   7.267   0.462   2.059
 8305TIP3    H124858   7.186   0.508   2.081
 8305TIP3    H224859   7.331   0.497   2.120
 8306TIP3   OH224860   7.132   7.534   6.015
 8306TIP3    H124861   7.095   7.500   6.097
 8306TIP3    H224862   7.225   7.513   6.020
 8307TIP3   OH224863   8.195   6.087   2.584
 8307TIP3    H124864   8.204   6.182   2.585
 8307TIP3    H224865   8.148   6.069   2.503
 8308TIP3   OH224866   2.393   4.869   5.318
 8308TIP3    H124867   2.403   4.841   5.409
 8308TIP3    H224868   2.303   4.900   5.312
 8309TIP3   OH224869   7.256   4.022   2.009
 8309TIP3    H124870   7.329   4.054   2.061
 8309TIP3    H224871   7.188   4.001   2.074
 8310TIP3   OH224872   3.084   3.204   1.797
 8310TIP3    H124873   3.120   3.157   1.872
 8310TIP3    H224874   3.161   3.229   1.745
 8311TIP3   OH224875   2.857   3.058   5.715
 8311TIP3    H124876   2.854   2.990   5.783
 8311TIP3    H224877   2.789   3.120   5.740
 8312TIP3   OH224878   4.969   0.951   3.265
 8312TIP3    H124879   4.884   0.984   3.238
 8312TIP3    H224880   5.029   0.979   3.195
 8313TIP3   OH224881   4.102   6.909   4.889
 8313TIP3    H124882   4.097   6.986   4.945
 8313TIP3    H224883   4.119   6.837   4.950
 8314TIP3   OH224884   3.119   7.154   4.312
 8314TIP3    H124885   3.082   7.236   4.347
 8314TIP3    H224886   3.209   7.177   4.287
 8315TIP3   OH224887   0.308   2.843   4.875
 8315TIP3    H124888   0.387   2.796   4.851
 8315TIP3    H224889   0.294   2.905   4.804
 8316TIP3   OH224890   7.537   7.202   0.528
 8316TIP3    H124891   7.623   7.234   0.500
 8316TIP3    H224892   7.552   7.169   0.617
 8317TIP3   OH224893   1.848   0.612   4.871
 8317TIP3    H124894   1.776   0.554   4.846
 8317TIP3    H224895   1.825   0.642   4.959
 8318TIP3   OH224896   3.106   3.298   2.146
 8318TIP3    H124897   3.155   3.267   2.070
 8318TIP3    H224898   3.053   3.223   2.172
 8319TIP3   OH224899   3.236   1.082   6.245
 8319TIP3    H124900   3.219   1.023   6.172
 8319TIP3    H224901   3.327   1.065   6.269
 8320TIP3   OH224902   3.417   0.328   1.422
 8320TIP3    H124903   3.451   0.266   1.486
 8320TIP3    H224904   3.335   0.359   1.460
 8321TIP3   OH224905   6.097   2.860   4.711
 8321TIP3    H124906   6.133   2.866   4.799
 8321TIP3    H224907   6.070   2.769   4.702
 8322TIP3   OH224908   5.538   3.151   3.778
 8322TIP3    H124909   5.495   3.199   3.707
 8322TIP3    H224910   5.602   3.213   3.813
 8323TIP3   OH224911   7.604   2.298   3.841
 8323TIP3    H124912   7.657   2.350   3.779
 8323TIP3    H224913   7.545   2.362   3.881
 8324TIP3   OH224914   5.766   4.524   0.500
 8324TIP3    H124915   5.804   4.538   0.586
 8324TIP3    H224916   5.821   4.457   0.459
 8325TIP3   OH224917   7.190   4.580   1.511
 8325TIP3    H124918   7.245   4.582   1.590
 8325TIP3    H224919   7.238   4.524   1.450
 8326TIP3   OH224920   1.227   7.599   6.158
 8326TIP3    H124921   1.224   7.644   6.243
 8326TIP3    H224922   1.135   7.590   6.133
 8327TIP3   OH224923   3.544   4.694   2.629
 8327TIP3    H124924   3.600   4.678   2.553
 8327TIP3    H224925   3.565   4.784   2.655
 8328TIP3   OH224926   4.563   4.322   2.296
 8328TIP3    H124927   4.481   4.346   2.252
 8328TIP3    H224928   4.537   4.304   2.386
 8329TIP3   OH224929   5.170   2.312   2.789
 8329TIP3    H124930   5.221   2.285   2.713
 8329TIP3    H224931   5.093   2.254   2.788
 8330TIP3   OH224932   1.680   6.603   5.705
 8330TIP3    H124933   1.641   6.521   5.735
 8330TIP3    H224934   1.713   6.582   5.617
 8331TIP3   OH224935   4.002   3.275   0.901
 8331TIP3    H124936   3.906   3.273   0.897
 8331TIP3    H224937   4.027   3.187   0.927
 8332TIP3   OH224938   0.007   1.341   1.514
 8332TIP3    H124939   0.089   1.362   1.470
 8332TIP3    H224940   0.020   1.251   1.546
 8333TIP3   OH224941   1.179   7.422   5.519
 8333TIP3    H124942   1.166   7.446   5.427
 8333TIP3    H224943   1.093   7.437   5.560
 8334TIP3   OH224944   3.162   5.107   2.502
 8334TIP3    H124945   3.223   5.137   2.435
 8334TIP3    H224946   3.197   5.023   2.531
 8335TIP3   OH224947   6.945   2.182   4.058
 8335TIP3    H124948   6.986   2.097   4.068
 8335TIP3    H224949   6.961   2.206   3.966
 8336TIP3   OH224950   0.701   4.132   6.761
 8336TIP3    H124951   0.796   4.140   6.756
 8336TIP3    H224952   0.671   4.137   6.670
 8337TIP3   OH224953   5.543   0.835   4.134
 8337TIP3    H124954   5.621   0.888   4.120
 8337TIP3    H224955   5.483   0.861   4.064
 8338TIP3   OH224956   3.462   3.906   1.779
 8338TIP3    H124957   3.450   3.920   1.685
 8338TIP3    H224958   3.454   3.994   1.818
 8339TIP3   OH224959   5.996   4.177   0.691
 8339TIP3    H124960   6.042   4.226   0.759
 8339TIP3    H224961   6.065   4.129   0.645
 8340TIP3   OH224962   6.055   1.567   4.161
 8340TIP3    H124963   6.058   1.591   4.068
 8340TIP3    H224964   6.040   1.472   4.160
 8341TIP3   OH224965   2.531   2.933   2.761
 8341TIP3    H124966   2.546   3.020   2.724
 8341TIP3    H224967   2.581   2.874   2.704
 8342TIP3   OH224968   5.373   7.419   5.110
 8342TIP3    H124969   5.406   7.344   5.159
 8342TIP3    H224970   5.446   7.480   5.106
 8343TIP3   OH224971   1.811   5.772   2.767
 8343TIP3    H124972   1.778   5.814   2.847
 8343TIP3    H224973   1.887   5.722   2.795
 8344TIP3   OH224974   6.688   0.106   0.277
 8344TIP3    H124975   6.605   0.108   0.324
 8344TIP3    H224976   6.729   0.190   0.297
 8345TIP3   OH224977   4.064   5.655   2.101
 8345TIP3    H124978   4.063   5.697   2.015
 8345TIP3    H224979   3.987   5.598   2.101
 8346TIP3   OH224980   0.403   6.395   0.861
 8346TIP3    H124981   0.494   6.426   0.869
 8346TIP3    H224982   0.412   6.304   0.832
 8347TIP3   OH224983   3.321   4.611   3.916
 8347TIP3    H124984   3.322   4.620   3.820
 8347TIP3    H224985   3.276   4.528   3.932
 8348TIP3   OH224986   5.800   1.640   3.220
 8348TIP3    H124987   5.795   1.729   3.255
 8348TIP3    H224988   5.824   1.586   3.296
 8349TIP3   OH224989   0.056   3.101   3.701
 8349TIP3    H124990   0.113   3.177   3.694
 8349TIP3    H224991   0.029   3.082   3.611
 8350TIP3   OH224992   6.906   0.651   6.641
 8350TIP3    H124993   6.920   0.681   6.551
 8350TIP3    H224994   6.823   0.603   6.638
 8351TIP3   OH224995   4.490   0.712   2.129
 8351TIP3    H124996   4.456   0.767   2.058
 8351TIP3    H224997   4.504   0.626   2.089
 8352TIP3   OH224998   5.145   4.953   6.035
 8352TIP3    H124999   5.120   4.863   6.053
 8352TIP3    H225000   5.109   4.971   5.948
 8353TIP3   OH225001   0.193   5.434   2.524
 8353TIP3    H125002   0.117   5.492   2.515
 8353TIP3    H225003   0.249   5.456   2.449
 8354TIP3   OH225004   7.959   5.505   0.804
 8354TIP3    H125005   7.945   5.433   0.865
 8354TIP3    H225006   8.006   5.466   0.731
 8355TIP3   OH225007   4.656   6.599   6.029
 8355TIP3    H125008   4.600   6.532   5.992
 8355TIP3    H225009   4.721   6.617   5.961
 8356TIP3   OH225010   0.990   6.598   3.188
 8356TIP3    H125011   0.986   6.681   3.235
 8356TIP3    H225012   0.987   6.623   3.095
 8357TIP3   OH225013   7.239   2.819   5.920
 8357TIP3    H125014   7.305   2.885   5.938
 8357TIP3    H225015   7.213   2.835   5.829
 8358TIP3   OH225016   2.805   5.419   3.986
 8358TIP3    H125017   2.766   5.393   4.069
 8358TIP3    H225018   2.896   5.387   3.990
 8359TIP3   OH225019   6.589   2.545   5.333
 8359TIP3    H125020   6.527   2.481   5.299
 8359TIP3    H225021   6.547   2.582   5.410
 8360TIP3   OH225022   7.066   5.068   0.491
 8360TIP3    H125023   7.008   5.143   0.506
 8360TIP3    H225024   7.127   5.099   0.425
 8361TIP3   OH225025   7.093   6.116   4.463
 8361TIP3    H125026   7.016   6.149   4.417
 8361TIP3    H225027   7.057   6.075   4.542
 8362TIP3   OH225028   7.567   1.850   1.989
 8362TIP3    H125029   7.604   1.908   1.922
 8362TIP3    H225030   7.569   1.902   2.070
 8363TIP3   OH225031   0.674   6.425   0.805
 8363TIP3    H125032   0.737   6.393   0.868
 8363TIP3    H225033   0.710   6.402   0.720
 8364TIP3   OH225034   4.105   6.998   4.617
 8364TIP3    H125035   4.101   6.960   4.705
 8364TIP3    H225036   4.045   7.073   4.621
 8365TIP3   OH225037   7.583   3.510   4.739
 8365TIP3    H125038   7.621   3.504   4.652
 8365TIP3    H225039   7.489   3.512   4.724
 8366TIP3   OH225040   1.241   6.849   6.157
 8366TIP3    H125041   1.266   6.932   6.197
 8366TIP3    H225042   1.265   6.858   6.065
 8367TIP3   OH225043   5.492   5.856   3.923
 8367TIP3    H125044   5.483   5.907   4.003
 8367TIP3    H225045   5.406   5.863   3.880
 8368TIP3   OH225046   7.509   6.404   2.327
 8368TIP3    H125047   7.502   6.496   2.301
 8368TIP3    H225048   7.453   6.357   2.266
 8369TIP3   OH225049   7.701   3.541   2.089
 8369TIP3    H125050   7.645   3.619   2.086
 8369TIP3    H225051   7.790   3.576   2.102
 8370TIP3   OH225052   0.580   3.682   5.274
 8370TIP3    H125053   0.615   3.616   5.333
 8370TIP3    H225054   0.511   3.637   5.225
 8371TIP3   OH225055   6.017   5.616   0.869
 8371TIP3    H125056   5.931   5.657   0.882
 8371TIP3    H225057   6.035   5.573   0.953
 8372TIP3   OH225058   6.606   2.149   3.977
 8372TIP3    H125059   6.652   2.232   3.990
 8372TIP3    H225060   6.647   2.089   4.039
 8373TIP3   OH225061   7.239   3.315   0.636
 8373TIP3    H125062   7.276   3.229   0.655
 8373TIP3    H225063   7.296   3.377   0.682
 8374TIP3   OH225064   4.784   7.665   3.698
 8374TIP3    H125065   4.783   7.702   3.609
 8374TIP3    H225066   4.722   7.592   3.694
 8375TIP3   OH225067   5.936   4.380   2.277
 8375TIP3    H125068   5.958   4.473   2.284
 8375TIP3    H225069   5.883   4.362   2.355
 8376TIP3   OH225070   8.229   0.459   2.597
 8376TIP3    H125071   8.184   0.478   2.679
 8376TIP3    H225072   8.160   0.463   2.531
 8377TIP3   OH225073   0.901   6.638   2.914
 8377TIP3    H125074   0.828   6.686   2.877
 8377TIP3    H225075   0.977   6.667   2.864
 8378TIP3   OH225076   1.874   0.518   1.960
 8378TIP3    H125077   1.848   0.516   1.868
 8378TIP3    H225078   1.919   0.435   1.975
 8379TIP3   OH225079   4.335   5.208   0.144
 8379TIP3    H125080   4.319   5.198   0.238
 8379TIP3    H225081   4.393   5.284   0.137
 8380TIP3   OH225082   5.826   1.878   4.055
 8380TIP3    H125083   5.908   1.924   4.034
 8380TIP3    H225084   5.769   1.896   3.981
 8381TIP3   OH225085   2.613   7.196   5.878
 8381TIP3    H125086   2.621   7.290   5.893
 8381TIP3    H225087   2.669   7.178   5.803
 8382TIP3   OH225088   4.600   7.120   3.263
 8382TIP3    H125089   4.576   7.045   3.318
 8382TIP3    H225090   4.621   7.081   3.178
 8383TIP3   OH225091   1.404   1.274   3.042
 8383TIP3    H125092   1.310   1.277   3.024
 8383TIP3    H225093   1.410   1.241   3.131
 8384TIP3   OH225094   2.247   5.926   4.674
 8384TIP3    H125095   2.327   5.897   4.631
 8384TIP3    H225096   2.204   5.844   4.702
 8385TIP3   OH225097   1.541   5.142   1.438
 8385TIP3    H125098   1.566   5.230   1.466
 8385TIP3    H225099   1.516   5.152   1.346
 8386TIP3   OH225100   4.683   4.168   4.105
 8386TIP3    H125101   4.694   4.152   4.011
 8386TIP3    H225102   4.593   4.200   4.113
 8387TIP3   OH225103   2.566   1.380   3.182
 8387TIP3    H125104   2.498   1.363   3.247
 8387TIP3    H225105   2.632   1.432   3.229
 8388TIP3   OH225106   1.188   1.658   5.053
 8388TIP3    H125107   1.227   1.571   5.061
 8388TIP3    H225108   1.258   1.719   5.077
 8389TIP3   OH225109   0.450   4.575   4.735
 8389TIP3    H125110   0.379   4.615   4.685
 8389TIP3    H225111   0.493   4.516   4.673
 8390TIP3   OH225112   2.663   3.849   5.627
 8390TIP3    H125113   2.608   3.895   5.691
 8390TIP3    H225114   2.679   3.913   5.558
 8391TIP3   OH225115   6.540   7.578   4.435
 8391TIP3    H125116   6.617   7.625   4.466
 8391TIP3    H225117   6.495   7.641   4.378
 8392TIP3   OH225118   1.665   2.596   4.209
 8392TIP3    H125119   1.612   2.676   4.206
 8392TIP3    H225120   1.614   2.531   4.162
 8393TIP3   OH225121   0.173   1.709   2.201
 8393TIP3    H125122   0.264   1.732   2.178
 8393TIP3    H225123   0.134   1.792   2.230
 8394TIP3   OH225124   2.065   0.890   2.786
 8394TIP3    H125125   1.982   0.880   2.831
 8394TIP3    H225126   2.112   0.808   2.802
 8395TIP3   OH225127   4.953   0.450   6.213
 8395TIP3    H125128   4.932   0.544   6.216
 8395TIP3    H225129   5.016   0.438   6.284
 8396TIP3   OH225130   6.542   2.047   5.270
 8396TIP3    H125131   6.522   1.987   5.342
 8396TIP3    H225132   6.633   2.029   5.247
 8397TIP3   OH225133   7.588   3.692   6.419
 8397TIP3    H125134   7.624   3.699   6.507
 8397TIP3    H225135   7.641   3.751   6.365
 8398TIP3   OH225136   6.104   1.148   5.083
 8398TIP3    H125137   6.125   1.222   5.140
 8398TIP3    H225138   6.170   1.082   5.105
 8399TIP3   OH225139   6.755   5.180   6.320
 8399TIP3    H125140   6.799   5.122   6.382
 8399TIP3    H225141   6.815   5.254   6.308
 8400TIP3   OH225142   0.300   7.499   1.877
 8400TIP3    H125143   0.350   7.455   1.945
 8400TIP3    H225144   0.210   7.500   1.910
 8401TIP3   OH225145   0.729   1.574   6.083
 8401TIP3    H125146   0.705   1.646   6.142
 8401TIP3    H225147   0.825   1.572   6.086
 8402TIP3   OH225148   5.927   1.898   0.513
 8402TIP3    H125149   5.961   1.977   0.473
 8402TIP3    H225150   5.832   1.902   0.499
 8403TIP3   OH225151   0.350   4.845   0.496
 8403TIP3    H125152   0.414   4.873   0.431
 8403TIP3    H225153   0.339   4.921   0.553
 8404TIP3   OH225154   7.927   4.063   6.111
 8404TIP3    H125155   7.988   4.045   6.183
 8404TIP3    H225156   7.854   4.004   6.126
 8405TIP3   OH225157   3.122   5.456   5.932
 8405TIP3    H125158   3.196   5.466   5.872
 8405TIP3    H225159   3.059   5.403   5.884
 8406TIP3   OH225160   4.399   6.253   0.733
 8406TIP3    H125161   4.489   6.239   0.704
 8406TIP3    H225162   4.379   6.175   0.786
 8407TIP3   OH225163   0.752   4.453   1.335
 8407TIP3    H125164   0.730   4.367   1.369
 8407TIP3    H225165   0.678   4.508   1.359
 8408TIP3   OH225166   0.665   2.622   1.372
 8408TIP3    H125167   0.687   2.529   1.385
 8408TIP3    H225168   0.640   2.628   1.280
 8409TIP3   OH225169   0.639   5.942   0.950
 8409TIP3    H125170   0.641   5.848   0.932
 8409TIP3    H225171   0.730   5.969   0.946
 8410TIP3   OH225172   3.603   0.963   5.993
 8410TIP3    H125173   3.668   1.030   6.016
 8410TIP3    H225174   3.634   0.884   6.037
 8411TIP3   OH225175   2.791   7.088   5.411
 8411TIP3    H125176   2.732   7.113   5.483
 8411TIP3    H225177   2.753   7.008   5.376
 8412TIP3   OH225178   7.046   5.162   3.953
 8412TIP3    H125179   7.024   5.150   3.861
 8412TIP3    H225180   6.990   5.234   3.983
 8413TIP3   OH225181   7.210   1.438   1.753
 8413TIP3    H125182   7.223   1.350   1.719
 8413TIP3    H225183   7.178   1.489   1.679
 8414TIP3   OH225184   3.527   1.397   3.183
 8414TIP3    H125185   3.540   1.309   3.221
 8414TIP3    H225186   3.490   1.449   3.254
 8415TIP3   OH225187   5.812   1.972   2.767
 8415TIP3    H125188   5.873   1.899   2.756
 8415TIP3    H225189   5.727   1.936   2.741
 8416TIP3   OH225190   0.266   3.280   2.510
 8416TIP3    H125191   0.250   3.200   2.459
 8416TIP3    H225192   0.268   3.250   2.601
 8417TIP3   OH225193   1.158   5.370   3.651
 8417TIP3    H125194   1.118   5.316   3.720
 8417TIP3    H225195   1.091   5.436   3.631
 8418TIP3   OH225196   7.976   4.596   5.341
 8418TIP3    H125197   8.061   4.634   5.361
 8418TIP3    H225198   7.996   4.523   5.281
 8419TIP3   OH225199   4.054   6.809   2.949
 8419TIP3    H125200   4.061   6.858   3.031
 8419TIP3    H225201   4.122   6.742   2.956
 8420TIP3   OH225202   6.195   6.088   2.459
 8420TIP3    H125203   6.254   6.039   2.516
 8420TIP3    H225204   6.117   6.103   2.512
 8421TIP3   OH225205   6.135   6.445   3.950
 8421TIP3    H125206   6.153   6.374   3.887
 8421TIP3    H225207   6.213   6.449   4.005
 8422TIP3   OH225208   5.790   4.521   4.821
 8422TIP3    H125209   5.758   4.472   4.745
 8422TIP3    H225210   5.720   4.513   4.886
 8423TIP3   OH225211   1.614   0.402   3.812
 8423TIP3    H125212   1.667   0.482   3.811
 8423TIP3    H225213   1.543   0.420   3.750
 8424TIP3   OH225214   6.688   1.296   2.390
 8424TIP3    H125215   6.649   1.306   2.304
 8424TIP3    H225216   6.617   1.314   2.451
 8425TIP3   OH225217   1.310   7.347   4.446
 8425TIP3    H125218   1.349   7.368   4.361
 8425TIP3    H225219   1.267   7.262   4.432
 8426TIP3   OH225220   1.608   2.305   1.607
 8426TIP3    H125221   1.576   2.303   1.517
 8426TIP3    H225222   1.537   2.344   1.658
 8427TIP3   OH225223   3.507   3.539   0.388
 8427TIP3    H125224   3.505   3.453   0.431
 8427TIP3    H225225   3.539   3.598   0.455
 8428TIP3   OH225226   7.750   5.688   0.778
 8428TIP3    H125227   7.756   5.741   0.858
 8428TIP3    H225228   7.823   5.627   0.785
 8429TIP3   OH225229   5.091   2.142   1.507
 8429TIP3    H125230   5.156   2.196   1.462
 8429TIP3    H225231   5.035   2.205   1.552
 8430TIP3   OH225232   0.763   5.377   0.798
 8430TIP3    H125233   0.760   5.327   0.880
 8430TIP3    H225234   0.684   5.350   0.751
 8431TIP3   OH225235   3.965   6.998   5.309
 8431TIP3    H125236   3.897   7.026   5.371
 8431TIP3    H225237   3.935   6.913   5.277
 8432TIP3   OH225238   6.948   5.613   2.983
 8432TIP3    H125239   6.854   5.602   2.971
 8432TIP3    H225240   6.959   5.704   3.012
 8433TIP3   OH225241   0.338   4.716   5.431
 8433TIP3    H125242   0.269   4.665   5.389
 8433TIP3    H225243   0.293   4.795   5.463
 8434TIP3   OH225244   6.196   0.709   1.999
 8434TIP3    H125245   6.211   0.773   1.929
 8434TIP3    H225246   6.112   0.669   1.978
 8435TIP3   OH225247   3.504   6.474   3.390
 8435TIP3    H125248   3.488   6.564   3.418
 8435TIP3    H225249   3.428   6.452   3.336
 8436TIP3   OH225250   5.512   6.010   2.216
 8436TIP3    H125251   5.581   5.951   2.247
 8436TIP3    H225252   5.452   5.953   2.168
 8437TIP3   OH225253   4.126   4.832   4.116
 8437TIP3    H125254   4.102   4.875   4.198
 8437TIP3    H225255   4.043   4.806   4.078
 8438TIP3   OH225256   8.077   5.436   2.958
 8438TIP3    H125257   8.091   5.531   2.960
 8438TIP3    H225258   7.998   5.424   2.906
 8439TIP3   OH225259   5.667   3.632   0.309
 8439TIP3    H125260   5.652   3.601   0.219
 8439TIP3    H225261   5.751   3.677   0.304
 8440TIP3   OH225262   6.955   4.630   1.028
 8440TIP3    H125263   6.932   4.722   1.044
 8440TIP3    H225264   6.948   4.619   0.934
 8441TIP3   OH225265   2.646   7.630   3.972
 8441TIP3    H125266   2.560   7.656   3.938
 8441TIP3    H225267   2.647   7.663   4.062
 8442TIP3   OH225268   0.260   2.726   0.863
 8442TIP3    H125269   0.202   2.659   0.828
 8442TIP3    H225270   0.343   2.713   0.817
 8443TIP3   OH225271   0.770   3.211   0.947
 8443TIP3    H125272   0.746   3.120   0.963
 8443TIP3    H225273   0.721   3.260   1.013
 8444TIP3   OH225274   3.332   2.574   1.326
 8444TIP3    H125275   3.299   2.497   1.279
 8444TIP3    H225276   3.307   2.559   1.417
 8445TIP3   OH225277   1.412   1.707   0.837
 8445TIP3    H125278   1.388   1.628   0.885
 8445TIP3    H225279   1.340   1.768   0.852
 8446TIP3   OH225280   6.981   3.722   2.183
 8446TIP3    H125281   6.893   3.699   2.153
 8446TIP3    H225282   6.991   3.674   2.265
 8447TIP3   OH225283   7.749   2.962   3.273
 8447TIP3    H125284   7.710   2.875   3.286
 8447TIP3    H225285   7.838   2.944   3.244
 8448TIP3   OH225286   4.078   4.187   5.228
 8448TIP3    H125287   3.988   4.160   5.242
 8448TIP3    H225288   4.076   4.239   5.148
 8449TIP3   OH225289   1.123   5.639   4.896
 8449TIP3    H125290   1.061   5.711   4.911
 8449TIP3    H225291   1.185   5.674   4.832
 8450TIP3   OH225292   1.335   2.531   3.491
 8450TIP3    H125293   1.319   2.565   3.404
 8450TIP3    H225294   1.256   2.555   3.541
 8451TIP3   OH225295   3.198   4.787   5.785
 8451TIP3    H125296   3.119   4.819   5.829
 8451TIP3    H225297   3.210   4.848   5.712
 8452TIP3   OH225298   7.165   5.099   0.222
 8452TIP3    H125299   7.097   5.107   0.156
 8452TIP3    H225300   7.203   5.187   0.228
 8453TIP3   OH225301   0.484   4.474   2.518
 8453TIP3    H125302   0.502   4.526   2.596
 8453TIP3    H225303   0.496   4.534   2.445
 8454TIP3   OH225304   5.551   4.876   0.084
 8454TIP3    H125305   5.517   4.964   0.098
 8454TIP3    H225306   5.481   4.817   0.113
 8455TIP3   OH225307   3.702   1.631   0.530
 8455TIP3    H125308   3.714   1.704   0.591
 8455TIP3    H225309   3.609   1.634   0.507
 8456TIP3   OH225310   0.559   3.046   2.355
 8456TIP3    H125311   0.625   3.077   2.417
 8456TIP3    H225312   0.584   2.955   2.337
 8457TIP3   OH225313   6.520   6.854   5.799
 8457TIP3    H125314   6.468   6.833   5.722
 8457TIP3    H225315   6.588   6.786   5.803
 8458TIP3   OH225316   1.357   5.552   3.712
 8458TIP3    H125317   1.286   5.489   3.701
 8458TIP3    H225318   1.319   5.636   3.686
 8459TIP3   OH225319   8.135   0.830   4.495
 8459TIP3    H125320   8.225   0.796   4.499
 8459TIP3    H225321   8.136   0.892   4.422
 8460TIP3   OH225322   4.935   0.628   6.543
 8460TIP3    H125323   4.991   0.586   6.608
 8460TIP3    H225324   4.995   0.656   6.474
 8461TIP3   OH225325   6.340   6.910   2.205
 8461TIP3    H125326   6.375   6.945   2.288
 8461TIP3    H225327   6.281   6.978   2.174
 8462TIP3   OH225328   5.077   4.297   2.135
 8462TIP3    H125329   5.148   4.311   2.198
 8462TIP3    H225330   4.997   4.294   2.189
 8463TIP3   OH225331   4.292   7.148   6.429
 8463TIP3    H125332   4.304   7.168   6.522
 8463TIP3    H225333   4.375   7.171   6.388
 8464TIP3   OH225334   4.036   7.761   6.305
 8464TIP3    H125335   3.964   7.769   6.368
 8464TIP3    H225336   4.020   7.831   6.242
 8465TIP3   OH225337   4.495   2.622   4.772
 8465TIP3    H125338   4.492   2.545   4.830
 8465TIP3    H225339   4.580   2.662   4.791
 8466TIP3   OH225340   7.180   5.453   2.874
 8466TIP3    H125341   7.128   5.450   2.794
 8466TIP3    H225342   7.127   5.505   2.935
 8467TIP3   OH225343   6.768   1.671   0.514
 8467TIP3    H125344   6.709   1.598   0.494
 8467TIP3    H225345   6.849   1.650   0.467
 8468TIP3   OH225346   0.932   5.406   4.424
 8468TIP3    H125347   0.949   5.312   4.417
 8468TIP3    H225348   0.837   5.413   4.423
 8469TIP3   OH225349   5.215   3.183   0.145
 8469TIP3    H125350   5.194   3.103   0.194
 8469TIP3    H225351   5.283   3.157   0.084
 8470TIP3   OH225352   4.348   4.261   0.872
 8470TIP3    H125353   4.272   4.249   0.816
 8470TIP3    H225354   4.406   4.188   0.850
 8471TIP3   OH225355   0.618   6.639   3.922
 8471TIP3    H125356   0.550   6.572   3.927
 8471TIP3    H225357   0.662   6.635   4.007
 8472TIP3   OH225358   6.989   1.042   0.438
 8472TIP3    H125359   6.910   1.096   0.429
 8472TIP3    H225360   7.021   1.062   0.526
 8473TIP3   OH225361   8.193   3.570   0.203
 8473TIP3    H125362   8.172   3.478   0.221
 8473TIP3    H225363   8.121   3.601   0.147
 8474TIP3   OH225364   1.169   1.786   6.236
 8474TIP3    H125365   1.220   1.798   6.316
 8474TIP3    H225366   1.233   1.791   6.165
 8475TIP3   OH225367   6.740   0.860   3.278
 8475TIP3    H125368   6.733   0.837   3.186
 8475TIP3    H225369   6.822   0.819   3.306
 8476TIP3   OH225370   8.228   0.194   5.770
 8476TIP3    H125371   8.298   0.206   5.835
 8476TIP3    H225372   8.150   0.181   5.823
 8477TIP3   OH225373   5.744   1.032   6.257
 8477TIP3    H125374   5.811   1.024   6.325
 8477TIP3    H225375   5.793   1.056   6.179
 8478TIP3   OH225376   6.483   1.983   5.986
 8478TIP3    H125377   6.391   2.010   5.994
 8478TIP3    H225378   6.525   2.018   6.064
 8479TIP3   OH225379   7.290   6.059   4.287
 8479TIP3    H125380   7.216   6.028   4.339
 8479TIP3    H225381   7.367   6.040   4.340
 8480TIP3   OH225382   3.683   0.475   5.346
 8480TIP3    H125383   3.674   0.515   5.432
 8480TIP3    H225384   3.676   0.548   5.284
 8481TIP3   OH225385   7.978   7.662   3.069
 8481TIP3    H125386   7.954   7.751   3.043
 8481TIP3    H225387   8.072   7.655   3.049
 8482TIP3   OH225388   6.805   1.808   3.625
 8482TIP3    H125389   6.753   1.869   3.679
 8482TIP3    H225390   6.827   1.737   3.685
 8483TIP3   OH225391   1.586   6.844   5.422
 8483TIP3    H125392   1.580   6.788   5.345
 8483TIP3    H225393   1.523   6.808   5.484
 8484TIP3   OH225394   4.034   7.019   2.088
 8484TIP3    H125395   4.128   7.003   2.080
 8484TIP3    H225396   4.028   7.104   2.133
 8485TIP3   OH225397   4.575   6.152   3.601
 8485TIP3    H125398   4.586   6.081   3.665
 8485TIP3    H225399   4.661   6.191   3.593
 8486TIP3   OH225400   6.393   1.130   3.834
 8486TIP3    H125401   6.334   1.130   3.910
 8486TIP3    H225402   6.381   1.216   3.793
 8487TIP3   OH225403   2.839   6.482   0.633
 8487TIP3    H125404   2.930   6.478   0.664
 8487TIP3    H225405   2.844   6.535   0.553
 8488TIP3   OH225406   0.133   1.656   0.233
 8488TIP3    H125407   0.043   1.630   0.252
 8488TIP3    H225408   0.164   1.695   0.314
 8489TIP3   OH225409   5.688   1.512   1.685
 8489TIP3    H125410   5.601   1.478   1.665
 8489TIP3    H225411   5.687   1.602   1.651
 8490TIP3   OH225412   5.436   7.777   4.555
 8490TIP3    H125413   5.457   7.727   4.476
 8490TIP3    H225414   5.446   7.713   4.626
 8491TIP3   OH225415   3.876   5.524   0.965
 8491TIP3    H125416   3.842   5.606   0.929
 8491TIP3    H225417   3.799   5.479   1.000
 8492TIP3   OH225418   3.777   1.194   0.863
 8492TIP3    H125419   3.695   1.158   0.897
 8492TIP3    H225420   3.800   1.264   0.923
 8493TIP3   OH225421   5.951   0.755   5.926
 8493TIP3    H125422   5.974   0.791   5.840
 8493TIP3    H225423   5.914   0.668   5.907
 8494TIP3   OH225424   2.645   6.115   2.061
 8494TIP3    H125425   2.622   6.058   2.134
 8494TIP3    H225426   2.649   6.203   2.100
 8495TIP3   OH225427   8.309   4.012   5.757
 8495TIP3    H125428   8.216   3.992   5.771
 8495TIP3    H225429   8.326   3.986   5.667
 8496TIP3   OH225430   5.712   5.602   0.855
 8496TIP3    H125431   5.698   5.508   0.850
 8496TIP3    H225432   5.703   5.623   0.948
 8497TIP3   OH225433   5.124   2.986   3.644
 8497TIP3    H125434   5.098   2.895   3.657
 8497TIP3    H225435   5.042   3.035   3.645
 8498TIP3   OH225436   1.634   2.475   1.340
 8498TIP3    H125437   1.608   2.420   1.266
 8498TIP3    H225438   1.684   2.546   1.301
 8499TIP3   OH225439   4.747   6.078   3.215
 8499TIP3    H125440   4.722   6.155   3.265
 8499TIP3    H225441   4.707   6.005   3.262
 8500TIP3   OH225442   4.567   6.998   2.634
 8500TIP3    H125443   4.522   6.987   2.550
 8500TIP3    H225444   4.499   7.033   2.692
 8501TIP3   OH225445   4.900   2.582   6.048
 8501TIP3    H125446   4.959   2.654   6.073
 8501TIP3    H225447   4.838   2.623   5.987
 8502TIP3   OH225448   3.700   3.791   2.750
 8502TIP3    H125449   3.780   3.831   2.785
 8502TIP3    H225450   3.670   3.851   2.683
 8503TIP3   OH225451   7.767   6.775   4.026
 8503TIP3    H125452   7.759   6.822   4.109
 8503TIP3    H225453   7.777   6.683   4.052
 8504TIP3   OH225454   8.088   4.134   3.116
 8504TIP3    H125455   8.096   4.198   3.045
 8504TIP3    H225456   8.167   4.081   3.110
 8505TIP3   OH225457   0.926   5.938   0.872
 8505TIP3    H125458   0.910   5.909   0.782
 8505TIP3    H225459   0.950   6.030   0.863
 8506TIP3   OH225460   1.040   3.960   6.093
 8506TIP3    H125461   0.975   3.978   6.160
 8506TIP3    H225462   1.019   4.021   6.022
 8507TIP3   OH225463   0.453   1.342   3.623
 8507TIP3    H125464   0.510   1.405   3.667
 8507TIP3    H225465   0.497   1.257   3.634
 8508TIP3   OH225466   4.511   5.769   1.529
 8508TIP3    H125467   4.607   5.765   1.528
 8508TIP3    H225468   4.489   5.838   1.466
 8509TIP3   OH225469   1.291   2.914   2.652
 8509TIP3    H125470   1.312   2.989   2.707
 8509TIP3    H225471   1.252   2.952   2.573
 8510TIP3   OH225472   3.846   6.399   6.527
 8510TIP3    H125473   3.782   6.443   6.584
 8510TIP3    H225474   3.802   6.392   6.443
 8511TIP3   OH225475   6.639   1.624   6.732
 8511TIP3    H125476   6.704   1.642   6.664
 8511TIP3    H225477   6.687   1.637   6.814
 8512TIP3   OH225478   7.172   5.625   2.030
 8512TIP3    H125479   7.125   5.573   1.965
 8512TIP3    H225480   7.261   5.630   1.997
 8513TIP3   OH225481   8.159   6.940   4.756
 8513TIP3    H125482   8.191   6.876   4.819
 8513TIP3    H225483   8.066   6.951   4.778
 8514TIP3   OH225484   6.725   0.561   2.596
 8514TIP3    H125485   6.696   0.528   2.681
 8514TIP3    H225486   6.769   0.643   2.616
 8515TIP3   OH225487   7.728   5.490   1.106
 8515TIP3    H125488   7.734   5.460   1.196
 8515TIP3    H225489   7.777   5.573   1.106
 8516TIP3   OH225490   3.998   0.332   3.139
 8516TIP3    H125491   3.946   0.331   3.219
 8516TIP3    H225492   4.066   0.266   3.154
 8517TIP3   OH225493   7.631   5.776   5.746
 8517TIP3    H125494   7.594   5.792   5.659
 8517TIP3    H225495   7.559   5.742   5.798
 8518TIP3   OH225496   4.708   2.208   0.508
 8518TIP3    H125497   4.745   2.185   0.593
 8518TIP3    H225498   4.784   2.211   0.449
 8519TIP3   OH225499   2.693   2.895   4.914
 8519TIP3    H125500   2.613   2.864   4.957
 8519TIP3    H225501   2.692   2.989   4.927
 8520TIP3   OH225502   4.203   0.904   0.969
 8520TIP3    H125503   4.263   0.830   0.960
 8520TIP3    H225504   4.130   0.884   0.911
 8521TIP3   OH225505   7.438   7.738   1.234
 8521TIP3    H125506   7.426   7.646   1.259
 8521TIP3    H225507   7.524   7.761   1.268
 8522TIP3   OH225508   5.411   1.073   0.398
 8522TIP3    H125509   5.339   1.134   0.380
 8522TIP3    H225510   5.480   1.099   0.337
 8523TIP3   OH225511   6.191   2.140   5.352
 8523TIP3    H125512   6.107   2.157   5.395
 8523TIP3    H225513   6.196   2.045   5.344
 8524TIP3   OH225514   6.522   0.966   0.858
 8524TIP3    H125515   6.559   1.049   0.888
 8524TIP3    H225516   6.508   0.915   0.939
 8525TIP3   OH225517   7.042   4.654   3.939
 8525TIP3    H125518   7.050   4.582   3.876
 8525TIP3    H225519   7.012   4.612   4.020
 8526TIP3   OH225520   4.947   5.718   4.142
 8526TIP3    H125521   4.924   5.676   4.225
 8526TIP3    H225522   4.865   5.756   4.110
 8527TIP3   OH225523   4.874   4.295   3.260
 8527TIP3    H125524   4.797   4.311   3.206
 8527TIP3    H225525   4.849   4.219   3.314
 8528TIP3   OH225526   5.705   0.481   0.034
 8528TIP3    H125527   5.770   0.450  -0.029
 8528TIP3    H225528   5.756   0.525   0.102
 8529TIP3   OH225529   6.058   0.905   0.767
 8529TIP3    H125530   6.044   0.999   0.750
 8529TIP3    H225531   5.974   0.865   0.747
 8530TIP3   OH225532   7.230   4.739   3.282
 8530TIP3    H125533   7.264   4.782   3.361
 8530TIP3    H225534   7.136   4.731   3.298
 8531TIP3   OH225535   2.751   1.152   4.201
 8531TIP3    H125536   2.669   1.185   4.166
 8531TIP3    H225537   2.789   1.101   4.130
 8532TIP3   OH225538   5.863   4.803   5.902
 8532TIP3    H125539   5.837   4.880   5.851
 8532TIP3    H225540   5.799   4.799   5.974
 8533TIP3   OH225541   7.547   0.888   4.899
 8533TIP3    H125542   7.561   0.793   4.897
 8533TIP3    H225543   7.511   0.905   4.986
 8534TIP3   OH225544   5.449   7.315   2.764
 8534TIP3    H125545   5.539   7.344   2.747
 8534TIP3    H225546   5.457   7.222   2.786
 8535TIP3   OH225547   2.092   1.987   5.152
 8535TIP3    H125548   2.150   2.063   5.166
 8535TIP3    H225549   2.149   1.921   5.112
 8536TIP3   OH225550   8.195   6.747   0.260
 8536TIP3    H125551   8.132   6.679   0.282
 8536TIP3    H225552   8.273   6.700   0.230
 8537TIP3   OH225553   2.888   5.774   6.222
 8537TIP3    H125554   2.896   5.747   6.130
 8537TIP3    H225555   2.854   5.864   6.218
 8538TIP3   OH225556   3.149   7.646   1.726
 8538TIP3    H125557   3.100   7.644   1.644
 8538TIP3    H225558   3.084   7.633   1.794
 8539TIP3   OH225559   4.698   1.364   2.866
 8539TIP3    H125560   4.622   1.411   2.832
 8539TIP3    H225561   4.760   1.432   2.889
 8540TIP3   OH225562   7.009   0.637   4.775
 8540TIP3    H125563   7.104   0.622   4.769
 8540TIP3    H225564   6.979   0.637   4.684
 8541TIP3   OH225565   1.064   1.312   5.715
 8541TIP3    H125566   1.052   1.220   5.693
 8541TIP3    H225567   1.017   1.360   5.646
 8542TIP3   OH225568   4.886   4.605   1.112
 8542TIP3    H125569   4.877   4.550   1.190
 8542TIP3    H225570   4.796   4.629   1.089
 8543TIP3   OH225571   8.272   5.150   6.188
 8543TIP3    H125572   8.309   5.102   6.114
 8543TIP3    H225573   8.245   5.235   6.151
 8544TIP3   OH225574   0.501   3.118   5.639
 8544TIP3    H125575   0.560   3.054   5.598
 8544TIP3    H225576   0.436   3.064   5.684
 8545TIP3   OH225577   3.207   4.987   4.259
 8545TIP3    H125578   3.288   5.036   4.242
 8545TIP3    H225579   3.192   4.937   4.179
 8546TIP3   OH225580   6.061   6.992   3.539
 8546TIP3    H125581   6.089   7.064   3.596
 8546TIP3    H225582   6.097   7.015   3.453
 8547TIP3   OH225583   2.257   6.086   5.175
 8547TIP3    H125584   2.347   6.092   5.145
 8547TIP3    H225585   2.227   6.000   5.144
 8548TIP3   OH225586   4.110   5.206   4.249
 8548TIP3    H125587   4.062   5.146   4.306
 8548TIP3    H225588   4.060   5.288   4.253
 8549TIP3   OH225589   3.584   2.216   1.202
 8549TIP3    H125590   3.630   2.241   1.283
 8549TIP3    H225591   3.560   2.125   1.216
 8550TIP3   OH225592   6.588   7.711   5.458
 8550TIP3    H125593   6.665   7.713   5.514
 8550TIP3    H225594   6.618   7.671   5.377
 8551TIP3   OH225595   0.676   4.522   3.567
 8551TIP3    H125596   0.735   4.597   3.553
 8551TIP3    H225597   0.589   4.556   3.546
 8552TIP3   OH225598   2.719   5.165   4.191
 8552TIP3    H125599   2.722   5.181   4.285
 8552TIP3    H225600   2.654   5.096   4.180
 8553TIP3   OH225601   0.600   5.852   1.758
 8553TIP3    H125602   0.565   5.896   1.836
 8553TIP3    H225603   0.618   5.762   1.787
 8554TIP3   OH225604   2.128   7.578   2.251
 8554TIP3    H125605   2.190   7.647   2.229
 8554TIP3    H225606   2.110   7.534   2.168
 8555TIP3   OH225607   1.680   6.152   2.819
 8555TIP3    H125608   1.631   6.101   2.754
 8555TIP3    H225609   1.684   6.095   2.895
 8556TIP3   OH225610   1.519   2.404   0.873
 8556TIP3    H125611   1.533   2.320   0.829
 8556TIP3    H225612   1.454   2.449   0.819
 8557TIP3   OH225613   3.782   4.748   2.458
 8557TIP3    H125614   3.738   4.830   2.436
 8557TIP3    H225615   3.831   4.767   2.538
 8558TIP3   OH225616   3.404   1.960   5.581
 8558TIP3    H125617   3.486   2.006   5.566
 8558TIP3    H225618   3.360   1.962   5.496
 8559TIP3   OH225619   7.964   3.409   0.005
 8559TIP3    H125620   7.910   3.465   0.061
 8559TIP3    H225621   8.026   3.368   0.066
 8560TIP3   OH225622   4.333   5.589   1.918
 8560TIP3    H125623   4.312   5.499   1.890
 8560TIP3    H225624   4.276   5.605   1.993
 8561TIP3   OH225625   6.540   6.317   5.547
 8561TIP3    H125626   6.485   6.243   5.522
 8561TIP3    H225627   6.606   6.280   5.606
 8562TIP3   OH225628   0.363   0.777   2.516
 8562TIP3    H125629   0.300   0.708   2.539
 8562TIP3    H225630   0.344   0.797   2.424
 8563TIP3   OH225631   7.123   3.444   3.367
 8563TIP3    H125632   7.036   3.450   3.407
 8563TIP3    H225633   7.151   3.354   3.385
 8564TIP3   OH225634   0.297   7.765   3.895
 8564TIP3    H125635   0.358   7.706   3.940
 8564TIP3    H225636   0.217   7.760   3.947
 8565TIP3   OH225637   3.725   7.479   6.214
 8565TIP3    H125638   3.700   7.545   6.278
 8565TIP3    H225639   3.770   7.528   6.145
 8566TIP3   OH225640   2.457   4.869   3.964
 8566TIP3    H125641   2.428   4.942   3.910
 8566TIP3    H225642   2.475   4.907   4.050
 8567TIP3   OH225643   2.266   0.651   2.402
 8567TIP3    H125644   2.343   0.689   2.360
 8567TIP3    H225645   2.228   0.723   2.451
 8568TIP3   OH225646   0.631   0.484   0.792
 8568TIP3    H125647   0.543   0.462   0.761
 8568TIP3    H225648   0.687   0.418   0.752
 8569TIP3   OH225649   2.307   0.085   6.232
 8569TIP3    H125650   2.371   0.106   6.164
 8569TIP3    H225651   2.230   0.138   6.210
 8570TIP3   OH225652   2.314   5.525   0.700
 8570TIP3    H125653   2.398   5.568   0.690
 8570TIP3    H225654   2.323   5.442   0.653
 8571TIP3   OH225655   6.951   0.877   1.929
 8571TIP3    H125656   6.931   0.825   2.007
 8571TIP3    H225657   6.883   0.943   1.925
 8572TIP3   OH225658   4.303   4.525   2.567
 8572TIP3    H125659   4.328   4.433   2.562
 8572TIP3    H225660   4.208   4.525   2.557
 8573TIP3   OH225661   3.672   3.438   5.364
 8573TIP3    H125662   3.615   3.514   5.353
 8573TIP3    H225663   3.612   3.363   5.369
 8574TIP3   OH225664   0.905   1.928   3.477
 8574TIP3    H125665   0.831   1.889   3.430
 8574TIP3    H225666   0.905   2.019   3.449
 8575TIP3   OH225667   3.966   5.706   1.755
 8575TIP3    H125668   3.929   5.776   1.809
 8575TIP3    H225669   3.905   5.633   1.765
 8576TIP3   OH225670   2.939   5.572   6.734
 8576TIP3    H125671   2.851   5.554   6.701
 8576TIP3    H225672   2.929   5.572   6.829
 8577TIP3   OH225673   6.584   0.156   0.551
 8577TIP3    H125674   6.526   0.114   0.488
 8577TIP3    H225675   6.646   0.087   0.576
 8578TIP3   OH225676   1.168   3.914   3.204
 8578TIP3    H125677   1.254   3.874   3.196
 8578TIP3    H225678   1.182   4.006   3.185
 8579TIP3   OH225679   4.622   6.075   5.738
 8579TIP3    H125680   4.649   6.161   5.705
 8579TIP3    H225681   4.530   6.087   5.763
 8580TIP3   OH225682   2.880   3.310   4.720
 8580TIP3    H125683   2.815   3.377   4.702
 8580TIP3    H225684   2.962   3.345   4.685
 8581TIP3   OH225685   1.129   5.598   0.837
 8581TIP3    H125686   1.088   5.543   0.905
 8581TIP3    H225687   1.151   5.679   0.883
 8582TIP3   OH225688   1.663   5.035   6.420
 8582TIP3    H125689   1.697   4.988   6.345
 8582TIP3    H225690   1.741   5.073   6.462
 8583TIP3   OH225691   2.467   1.178   0.144
 8583TIP3    H125692   2.551   1.144   0.176
 8583TIP3    H225693   2.461   1.266   0.182
 8584TIP3   OH225694   6.266   1.136   4.339
 8584TIP3    H125695   6.228   1.220   4.364
 8584TIP3    H225696   6.293   1.096   4.422
 8585TIP3   OH225697   1.733   6.383   4.376
 8585TIP3    H125698   1.771   6.468   4.399
 8585TIP3    H225699   1.790   6.350   4.306
 8586TIP3   OH225700   1.604   0.054   5.876
 8586TIP3    H125701   1.667   0.076   5.808
 8586TIP3    H225702   1.537   0.122   5.870
 8587TIP3   OH225703   3.153   3.407   5.466
 8587TIP3    H125704   3.163   3.468   5.539
 8587TIP3    H225705   3.137   3.322   5.507
 8588TIP3   OH225706   6.168   6.449   1.249
 8588TIP3    H125707   6.085   6.493   1.270
 8588TIP3    H225708   6.232   6.488   1.308
 8589TIP3   OH225709   3.958   7.512   4.746
 8589TIP3    H125710   3.892   7.444   4.732
 8589TIP3    H225711   4.038   7.463   4.767
 8590TIP3   OH225712   2.538   2.236   5.304
 8590TIP3    H125713   2.613   2.189   5.267
 8590TIP3    H225714   2.568   2.327   5.311
 8591TIP3   OH225715   3.751   7.077   2.416
 8591TIP3    H125716   3.668   7.045   2.451
 8591TIP3    H225717   3.750   7.050   2.324
 8592TIP3   OH225718   2.869   5.550   5.670
 8592TIP3    H125719   2.932   5.615   5.639
 8592TIP3    H225720   2.803   5.545   5.600
 8593TIP3   OH225721   5.082   4.202   1.726
 8593TIP3    H125722   5.062   4.294   1.745
 8593TIP3    H225723   5.033   4.183   1.646
 8594TIP3   OH225724   7.624   3.786   5.952
 8594TIP3    H125725   7.576   3.810   5.872
 8594TIP3    H225726   7.700   3.737   5.920
 8595TIP3   OH225727   7.148   5.457   2.544
 8595TIP3    H125728   7.125   5.367   2.564
 8595TIP3    H225729   7.080   5.487   2.484
 8596TIP3   OH225730   6.265   2.611   0.947
 8596TIP3    H125731   6.192   2.580   0.894
 8596TIP3    H225732   6.238   2.591   1.037
 8597TIP3   OH225733   4.016   5.525   0.717
 8597TIP3    H125734   4.009   5.595   0.783
 8597TIP3    H225735   4.079   5.558   0.653
 8598TIP3   OH225736   7.129   2.313   4.598
 8598TIP3    H125737   7.155   2.405   4.599
 8598TIP3    H225738   7.200   2.268   4.553
 8599TIP3   OH225739   7.478   1.904   0.552
 8599TIP3    H125740   7.559   1.858   0.535
 8599TIP3    H225741   7.493   1.950   0.634
 8600TIP3   OH225742   5.645   1.685   0.430
 8600TIP3    H125743   5.579   1.688   0.361
 8600TIP3    H225744   5.662   1.776   0.452
 8601TIP3   OH225745   7.784   5.178   5.184
 8601TIP3    H125746   7.835   5.218   5.254
 8601TIP3    H225747   7.780   5.085   5.208
 8602TIP3   OH225748   3.157   1.322   5.580
 8602TIP3    H125749   3.165   1.398   5.638
 8602TIP3    H225750   3.063   1.304   5.577
 8603TIP3   OH225751   6.020   1.295   4.070
 8603TIP3    H125752   6.071   1.214   4.074
 8603TIP3    H225753   5.983   1.296   3.982
 8604TIP3   OH225754   0.861   2.036   0.486
 8604TIP3    H125755   0.866   2.023   0.581
 8604TIP3    H225756   0.950   2.019   0.454
 8605TIP3   OH225757   1.489   4.610   3.532
 8605TIP3    H125758   1.397   4.598   3.555
 8605TIP3    H225759   1.487   4.641   3.441
 8606TIP3   OH225760   7.067   2.102   0.078
 8606TIP3    H125761   7.001   2.155   0.124
 8606TIP3    H225762   7.032   2.092  -0.010
 8607TIP3   OH225763   2.152   6.007   1.048
 8607TIP3    H125764   2.140   5.943   1.117
 8607TIP3    H225765   2.075   5.998   0.992
 8608TIP3   OH225766   6.294   3.123   2.471
 8608TIP3    H125767   6.302   3.106   2.377
 8608TIP3    H225768   6.243   3.204   2.477
 8609TIP3   OH225769   1.737   6.961   1.843
 8609TIP3    H125770   1.812   6.933   1.790
 8609TIP3    H225771   1.661   6.948   1.786
 8610TIP3   OH225772   4.260   1.004   4.191
 8610TIP3    H125773   4.285   1.089   4.228
 8610TIP3    H225774   4.282   0.941   4.259
 8611TIP3   OH225775   1.821   1.327   0.821
 8611TIP3    H125776   1.847   1.300   0.909
 8611TIP3    H225777   1.904   1.339   0.774
 8612TIP3   OH225778   3.410   4.589   2.380
 8612TIP3    H125779   3.335   4.534   2.358
 8612TIP3    H225780   3.414   4.589   2.475
 8613TIP3   OH225781   6.915   5.933   3.052
 8613TIP3    H125782   6.900   6.026   3.031
 8613TIP3    H225783   6.829   5.899   3.076
 8614TIP3   OH225784   0.354   0.083   6.204
 8614TIP3    H125785   0.327   0.045   6.121
 8614TIP3    H225786   0.273   0.118   6.241
 8615TIP3   OH225787   2.875   1.666   5.523
 8615TIP3    H125788   2.839   1.625   5.602
 8615TIP3    H225789   2.905   1.593   5.469
 8616TIP3   OH225790   5.581   3.082   6.181
 8616TIP3    H125791   5.611   3.080   6.090
 8616TIP3    H225792   5.524   3.006   6.189
 8617TIP3   OH225793   1.424   6.015   6.096
 8617TIP3    H125794   1.468   5.960   6.161
 8617TIP3    H225795   1.389   5.953   6.032
 8618TIP3   OH225796   5.157   3.058   5.654
 8618TIP3    H125797   5.113   2.977   5.678
 8618TIP3    H225798   5.186   3.045   5.564
 8619TIP3   OH225799   7.468   7.778   4.611
 8619TIP3    H125800   7.409   7.721   4.661
 8619TIP3    H225801   7.409   7.832   4.558
 8620TIP3   OH225802   8.247   4.060   5.200
 8620TIP3    H125803   8.299   4.037   5.123
 8620TIP3    H225804   8.157   4.054   5.171
 8621TIP3   OH225805   1.071   4.751   0.997
 8621TIP3    H125806   1.067   4.785   1.086
 8621TIP3    H225807   1.006   4.681   0.995
 8622TIP3   OH225808   7.645   0.255   2.538
 8622TIP3    H125809   7.640   0.168   2.499
 8622TIP3    H225810   7.617   0.243   2.628
 8623TIP3   OH225811   5.548   3.798   3.381
 8623TIP3    H125812   5.624   3.754   3.420
 8623TIP3    H225813   5.586   3.874   3.335
 8624TIP3   OH225814   3.081   5.735   1.882
 8624TIP3    H125815   3.089   5.642   1.864
 8624TIP3    H225816   3.025   5.741   1.959
 8625TIP3   OH225817   3.858   7.775   6.506
 8625TIP3    H125818   3.821   7.860   6.529
 8625TIP3    H225819   3.785   7.727   6.465
 8626TIP3   OH225820   0.568   1.898   3.212
 8626TIP3    H125821   0.534   1.969   3.158
 8626TIP3    H225822   0.533   1.819   3.171
 8627TIP3   OH225823   7.293   1.325   6.768
 8627TIP3    H125824   7.252   1.239   6.762
 8627TIP3    H225825   7.332   1.340   6.682
 8628TIP3   OH225826   1.016   1.640   0.077
 8628TIP3    H125827   1.036   1.732   0.059
 8628TIP3    H225828   1.017   1.634   0.173
 8629TIP3   OH225829   2.577   4.069   1.321
 8629TIP3    H125830   2.524   4.017   1.380
 8629TIP3    H225831   2.626   4.129   1.378
 8630TIP3   OH225832   3.891   3.574   4.463
 8630TIP3    H125833   3.831   3.502   4.445
 8630TIP3    H225834   3.948   3.578   4.386
 8631TIP3   OH225835   2.561   5.740   3.755
 8631TIP3    H125836   2.477   5.786   3.759
 8631TIP3    H225837   2.597   5.764   3.669
 8632TIP3   OH225838   3.064   5.825   2.807
 8632TIP3    H125839   3.066   5.820   2.712
 8632TIP3    H225840   2.982   5.871   2.827
 8633TIP3   OH225841   4.381   2.051   5.648
 8633TIP3    H125842   4.325   1.973   5.640
 8633TIP3    H225843   4.400   2.057   5.742
 8634TIP3   OH225844   5.138   7.307   1.218
 8634TIP3    H125845   5.047   7.297   1.246
 8634TIP3    H225846   5.146   7.399   1.194
 8635TIP3   OH225847   5.950   2.885   2.983
 8635TIP3    H125848   6.019   2.885   3.050
 8635TIP3    H225849   5.935   2.978   2.964
 8636TIP3   OH225850   8.218   6.893   0.492
 8636TIP3    H125851   8.194   6.836   0.419
 8636TIP3    H225852   8.313   6.898   0.488
 8637TIP3   OH225853   5.271   1.046   3.499
 8637TIP3    H125854   5.284   1.035   3.404
 8637TIP3    H225855   5.349   1.095   3.528
 8638TIP3   OH225856   4.831   1.788   2.673
 8638TIP3    H125857   4.817   1.741   2.755
 8638TIP3    H225858   4.801   1.878   2.691
 8639TIP3   OH225859   1.288   2.015   3.138
 8639TIP3    H125860   1.271   2.071   3.214
 8639TIP3    H225861   1.301   1.928   3.176
 8640TIP3   OH225862   3.936   3.324   0.503
 8640TIP3    H125863   3.883   3.296   0.578
 8640TIP3    H225864   4.010   3.370   0.542
 8641TIP3   OH225865   8.221   5.787   1.807
 8641TIP3    H125866   8.253   5.867   1.849
 8641TIP3    H225867   8.252   5.716   1.864
 8642TIP3   OH225868   4.102   6.577   0.986
 8642TIP3    H125869   4.155   6.583   1.065
 8642TIP3    H225870   4.152   6.519   0.928
 8643TIP3   OH225871   1.154   6.821   2.213
 8643TIP3    H125872   1.167   6.727   2.222
 8643TIP3    H225873   1.196   6.859   2.291
 8644TIP3   OH225874   7.380   5.877   0.490
 8644TIP3    H125875   7.435   5.808   0.526
 8644TIP3    H225876   7.423   5.902   0.408
 8645TIP3   OH225877   4.679   3.171   4.935
 8645TIP3    H125878   4.639   3.239   4.882
 8645TIP3    H225879   4.772   3.193   4.937
 8646TIP3   OH225880   6.090   5.106   4.882
 8646TIP3    H125881   6.031   5.147   4.945
 8646TIP3    H225882   6.044   5.112   4.798
 8647TIP3   OH225883   3.282   0.207   2.304
 8647TIP3    H125884   3.272   0.190   2.397
 8647TIP3    H225885   3.207   0.166   2.263
 8648TIP3   OH225886   7.929   2.466   6.138
 8648TIP3    H125887   7.909   2.380   6.175
 8648TIP3    H225888   7.957   2.519   6.213
 8649TIP3   OH225889   6.855   3.302   5.298
 8649TIP3    H125890   6.831   3.352   5.376
 8649TIP3    H225891   6.812   3.217   5.310
 8650TIP3   OH225892   6.870   2.407   0.080
 8650TIP3    H125893   6.957   2.402   0.121
 8650TIP3    H225894   6.872   2.487   0.028
 8651TIP3   OH225895   5.002   2.332   4.287
 8651TIP3    H125896   4.917   2.299   4.316
 8651TIP3    H225897   5.014   2.413   4.336
 8652TIP3   OH225898   6.853   3.992   4.537
 8652TIP3    H125899   6.768   3.952   4.556
 8652TIP3    H225900   6.882   3.949   4.456
 8653TIP3   OH225901   7.639   0.406   1.768
 8653TIP3    H125902   7.733   0.413   1.751
 8653TIP3    H225903   7.616   0.488   1.811
 8654TIP3   OH225904   7.059   5.594   3.312
 8654TIP3    H125905   7.123   5.646   3.264
 8654TIP3    H225906   6.974   5.623   3.279
 8655TIP3   OH225907   0.418   4.907   6.425
 8655TIP3    H125908   0.470   4.983   6.450
 8655TIP3    H225909   0.350   4.941   6.368
 8656TIP3   OH225910   3.635   1.219   5.886
 8656TIP3    H125911   3.615   1.134   5.847
 8656TIP3    H225912   3.560   1.237   5.943
 8657TIP3   OH225913   1.559   4.557   1.730
 8657TIP3    H125914   1.465   4.549   1.742
 8657TIP3    H225915   1.571   4.575   1.637
 8658TIP3   OH225916   5.867   7.836   2.868
 8658TIP3    H125917   5.834   7.749   2.891
 8658TIP3    H225918   5.960   7.824   2.850
 8659TIP3   OH225919   4.371  -0.019   0.424
 8659TIP3    H125920   4.379   0.025   0.339
 8659TIP3    H225921   4.349   0.051   0.486
 8660TIP3   OH225922   3.201   4.197   0.293
 8660TIP3    H125923   3.207   4.272   0.234
 8660TIP3    H225924   3.291   4.180   0.320
 8661TIP3   OH225925   6.237   3.185   2.865
 8661TIP3    H125926   6.302   3.255   2.870
 8661TIP3    H225927   6.153   3.229   2.880
 8662TIP3   OH225928   0.060   7.652   5.305
 8662TIP3    H125929   0.054   7.742   5.336
 8662TIP3    H225930   0.119   7.609   5.367
 8663TIP3   OH225931   5.296   6.896   0.078
 8663TIP3    H125932   5.280   6.938  -0.006
 8663TIP3    H225933   5.277   6.963   0.143
 8664TIP3   OH225934   5.236   0.541   1.535
 8664TIP3    H125935   5.332   0.531   1.535
 8664TIP3    H225936   5.215   0.568   1.624
 8665TIP3   OH225937   6.437   6.009   0.092
 8665TIP3    H125938   6.474   6.097   0.093
 8665TIP3    H225939   6.376   6.008   0.165
 8666TIP3   OH225940   6.252   3.617   3.811
 8666TIP3    H125941   6.237   3.543   3.870
 8666TIP3    H225942   6.234   3.582   3.724
 8667TIP3   OH225943   4.873   0.238   4.846
 8667TIP3    H125944   4.943   0.249   4.911
 8667TIP3    H225945   4.886   0.310   4.785
 8668TIP3   OH225946   2.282   1.743   5.512
 8668TIP3    H125947   2.293   1.650   5.495
 8668TIP3    H225948   2.344   1.786   5.453
 8669TIP3   OH225949   4.271   5.479   1.006
 8669TIP3    H125950   4.203   5.544   1.025
 8669TIP3    H225951   4.302   5.451   1.092
 8670TIP3   OH225952   0.355   5.540   4.105
 8670TIP3    H125953   0.437   5.492   4.091
 8670TIP3    H225954   0.357   5.562   4.198
 8671TIP3   OH225955   8.130   0.187   1.958
 8671TIP3    H125956   8.038   0.160   1.953
 8671TIP3    H225957   8.158   0.160   2.045
 8672TIP3   OH225958   3.370   1.189   4.232
 8672TIP3    H125959   3.434   1.119   4.221
 8672TIP3    H225960   3.285   1.144   4.233
 8673TIP3   OH225961   8.197   2.138   3.050
 8673TIP3    H125962   8.155   2.056   3.025
 8673TIP3    H225963   8.152   2.205   2.998
 8674TIP3   OH225964   0.066   2.334   5.878
 8674TIP3    H125965  -0.003   2.397   5.898
 8674TIP3    H225966   0.051   2.311   5.786
 8675TIP3   OH225967   2.910   7.616   3.348
 8675TIP3    H125968   2.913   7.523   3.323
 8675TIP3    H225969   2.995   7.633   3.390
 8676TIP3   OH225970   1.923   2.603   4.101
 8676TIP3    H125971   1.919   2.508   4.092
 8676TIP3    H225972   1.832   2.629   4.117
 8677TIP3   OH225973   4.002   4.120   0.048
 8677TIP3    H125974   4.093   4.136   0.073
 8677TIP3    H225975   3.994   4.025   0.049
 8678TIP3   OH225976   4.771   2.454   4.987
 8678TIP3    H125977   4.829   2.413   4.923
 8678TIP3    H225978   4.801   2.421   5.071
 8679TIP3   OH225979   7.661   6.346   1.440
 8679TIP3    H125980   7.696   6.397   1.367
 8679TIP3    H225981   7.641   6.260   1.402
 8680TIP3   OH225982   1.646   7.511   6.053
 8680TIP3    H125983   1.694   7.435   6.083
 8680TIP3    H225984   1.564   7.475   6.018
 8681TIP3   OH225985   4.464   2.268   1.613
 8681TIP3    H125986   4.430   2.301   1.530
 8681TIP3    H225987   4.445   2.174   1.612
 8682TIP3   OH225988   4.023   7.601   6.733
 8682TIP3    H125989   4.082   7.536   6.772
 8682TIP3    H225990   4.073   7.639   6.661
 8683TIP3   OH225991   4.279   6.271   1.789
 8683TIP3    H125992   4.216   6.325   1.836
 8683TIP3    H225993   4.362   6.285   1.836
 8684TIP3   OH225994   1.066   6.442   3.470
 8684TIP3    H125995   0.980   6.464   3.435
 8684TIP3    H225996   1.065   6.476   3.560
 8685TIP3   OH225997   7.554   3.377   5.646
 8685TIP3    H125998   7.623   3.313   5.627
 8685TIP3    H225999   7.568   3.403   5.737
 8686TIP3   OH226000   3.274   5.761   3.397
 8686TIP3    H126001   3.319   5.677   3.391
 8686TIP3    H226002   3.298   5.796   3.482
 8687TIP3   OH226003   3.957   6.554   6.074
 8687TIP3    H126004   3.907   6.522   5.999
 8687TIP3    H226005   3.923   6.504   6.148
 8688TIP3   OH226006   3.379   6.510   2.386
 8688TIP3    H126007   3.394   6.602   2.411
 8688TIP3    H226008   3.291   6.490   2.418
 8689TIP3   OH226009   6.199   3.921   4.347
 8689TIP3    H126010   6.258   3.981   4.392
 8689TIP3    H226011   6.257   3.856   4.306
 8690TIP3   OH226012   1.384   3.993   1.849
 8690TIP3    H126013   1.474   3.974   1.820
 8690TIP3    H226014   1.331   3.983   1.770
 8691TIP3   OH226015   4.864   7.370   6.758
 8691TIP3    H126016   4.772   7.346   6.752
 8691TIP3    H226017   4.902   7.338   6.676
 8692TIP3   OH226018   2.283   4.884   4.906
 8692TIP3    H126019   2.254   4.809   4.958
 8692TIP3    H226020   2.202   4.930   4.884
 8693TIP3   OH226021   5.780   7.241   5.180
 8693TIP3    H126022   5.706   7.290   5.218
 8693TIP3    H226023   5.850   7.251   5.244
 8694TIP3   OH226024   2.171   0.638   6.061
 8694TIP3    H126025   2.100   0.574   6.057
 8694TIP3    H226026   2.135   0.716   6.019
 8695TIP3   OH226027   0.490   5.402   2.014
 8695TIP3    H126028   0.582   5.381   1.996
 8695TIP3    H226029   0.441   5.342   1.959
 8696TIP3   OH226030   3.472   7.277   5.424
 8696TIP3    H126031   3.380   7.292   5.406
 8696TIP3    H226032   3.489   7.187   5.397
 8697TIP3   OH226033   4.753   6.498   2.356
 8697TIP3    H126034   4.842   6.473   2.379
 8697TIP3    H226035   4.752   6.594   2.364
 8698TIP3   OH226036   3.341   3.741   3.638
 8698TIP3    H126037   3.415   3.683   3.624
 8698TIP3    H226038   3.379   3.823   3.670
 8699TIP3   OH226039   5.278   2.598   0.458
 8699TIP3    H126040   5.207   2.552   0.503
 8699TIP3    H226041   5.322   2.647   0.526
 8700TIP3   OH226042   2.763   2.182   3.603
 8700TIP3    H126043   2.687   2.131   3.632
 8700TIP3    H226044   2.729   2.236   3.531
 8701TIP3   OH226045   4.946   6.241   4.787
 8701TIP3    H126046   4.898   6.256   4.869
 8701TIP3    H226047   4.879   6.250   4.719
 8702TIP3   OH226048   7.873   4.357   3.056
 8702TIP3    H126049   7.860   4.332   2.964
 8702TIP3    H226050   7.942   4.299   3.087
 8703TIP3   OH226051   1.077   5.746   0.259
 8703TIP3    H126052   1.134   5.785   0.325
 8703TIP3    H226053   1.087   5.802   0.182
 8704TIP3   OH226054   6.974   5.445   2.325
 8704TIP3    H126055   6.883   5.460   2.301
 8704TIP3    H226056   6.983   5.349   2.329
 8705TIP3   OH226057   5.270   0.051   0.294
 8705TIP3    H126058   5.243   0.124   0.349
 8705TIP3    H226059   5.329   0.000   0.350
 8706TIP3   OH226060   3.243   3.551   3.865
 8706TIP3    H126061   3.261   3.632   3.818
 8706TIP3    H226062   3.297   3.485   3.821
 8707TIP3   OH226063   6.004   3.482   0.342
 8707TIP3    H126064   5.998   3.411   0.405
 8707TIP3    H226065   6.085   3.465   0.294
 8708TIP3   OH226066   7.317   0.277   2.547
 8708TIP3    H126067   7.249   0.291   2.613
 8708TIP3    H226068   7.382   0.346   2.564
 8709TIP3   OH226069   1.109   2.781   1.607
 8709TIP3    H126070   1.023   2.741   1.621
 8709TIP3    H226071   1.169   2.707   1.597
 8710TIP3   OH226072   6.296   4.981   3.218
 8710TIP3    H126073   6.245   4.919   3.270
 8710TIP3    H226074   6.230   5.032   3.171
 8711TIP3   OH226075   3.233   7.301   3.606
 8711TIP3    H126076   3.294   7.326   3.536
 8711TIP3    H226077   3.211   7.384   3.649
 8712TIP3   OH226078   1.732   0.679   6.688
 8712TIP3    H126079   1.752   0.614   6.620
 8712TIP3    H226080   1.764   0.640   6.769
 8713TIP3   OH226081   1.838   3.736   4.143
 8713TIP3    H126082   1.746   3.729   4.119
 8713TIP3    H226083   1.866   3.821   4.109
 8714TIP3   OH226084   8.305   0.229   2.726
 8714TIP3    H126085   8.289   0.317   2.693
 8714TIP3    H226086   8.272   0.170   2.658
 8715TIP3   OH226087   5.579   3.140   4.622
 8715TIP3    H126088   5.507   3.086   4.589
 8715TIP3    H226089   5.606   3.191   4.546
 8716TIP3   OH226090   0.169   4.376   6.237
 8716TIP3    H126091   0.121   4.303   6.197
 8716TIP3    H226092   0.125   4.389   6.321
 8717TIP3   OH226093   3.285   7.211   1.622
 8717TIP3    H126094   3.274   7.257   1.539
 8717TIP3    H226095   3.328   7.129   1.599
 8718TIP3   OH226096   6.347  -0.009   2.276
 8718TIP3    H126097   6.276   0.053   2.257
 8718TIP3    H226098   6.374   0.012   2.365
 8719TIP3   OH226099   4.441   1.771   1.855
 8719TIP3    H126100   4.516   1.830   1.848
 8719TIP3    H226101   4.431   1.734   1.767
 8720TIP3   OH226102   3.306   0.521   5.943
 8720TIP3    H126103   3.349   0.435   5.938
 8720TIP3    H226104   3.217   0.500   5.973
 8721TIP3   OH226105   7.402   3.903   2.781
 8721TIP3    H126106   7.321   3.852   2.769
 8721TIP3    H226107   7.452   3.887   2.701
 8722TIP3   OH226108   6.560   2.448   0.994
 8722TIP3    H126109   6.628   2.475   1.056
 8722TIP3    H226110   6.492   2.514   1.003
 8723TIP3   OH226111   5.636   1.285   3.058
 8723TIP3    H126112   5.550   1.314   3.030
 8723TIP3    H226113   5.674   1.242   2.980
 8724TIP3   OH226114   8.062   0.088   0.143
 8724TIP3    H126115   8.090   0.150   0.210
 8724TIP3    H226116   8.140   0.073   0.089
 8725TIP3   OH226117   2.243   1.639   5.763
 8725TIP3    H126118   2.250   1.718   5.817
 8725TIP3    H226119   2.276   1.666   5.677
 8726TIP3   OH226120   0.008   3.940   3.105
 8726TIP3    H126121   0.080   3.876   3.107
 8726TIP3    H226122   0.036   4.010   3.164
 8727TIP3   OH226123   5.644   4.847   6.125
 8727TIP3    H126124   5.555   4.881   6.115
 8727TIP3    H226125   5.670   4.872   6.213
 8728TIP3   OH226126   7.560   4.734   4.807
 8728TIP3    H126127   7.598   4.713   4.893
 8728TIP3    H226128   7.531   4.650   4.773
 8729TIP3   OH226129   1.121   2.513   6.605
 8729TIP3    H126130   1.105   2.419   6.591
 8729TIP3    H226131   1.170   2.540   6.527
 8730TIP3   OH226132   2.417   2.324   3.207
 8730TIP3    H126133   2.335   2.287   3.174
 8730TIP3    H226134   2.416   2.304   3.300
 8731TIP3   OH226135   3.889   2.166   3.548
 8731TIP3    H126136   3.949   2.105   3.505
 8731TIP3    H226137   3.871   2.234   3.483
 8732TIP3   OH226138   7.639   6.258   3.317
 8732TIP3    H126139   7.668   6.349   3.322
 8732TIP3    H226140   7.561   6.254   3.373
 8733TIP3   OH226141   0.061   1.297   1.897
 8733TIP3    H126142   0.057   1.335   1.984
 8733TIP3    H226143   0.012   1.358   1.841
 8734TIP3   OH226144   5.864   5.468   0.412
 8734TIP3    H126145   5.895   5.378   0.408
 8734TIP3    H226146   5.881   5.503   0.325
 8735TIP3   OH226147   0.777   0.643   2.796
 8735TIP3    H126148   0.709   0.672   2.734
 8735TIP3    H226149   0.859   0.651   2.747
 8736TIP3   OH226150   8.157   2.101   6.235
 8736TIP3    H126151   8.217   2.101   6.160
 8736TIP3    H226152   8.147   2.009   6.258
 8737TIP3   OH226153   7.693   5.206   5.602
 8737TIP3    H126154   7.772   5.178   5.555
 8737TIP3    H226155   7.709   5.181   5.693
 8738TIP3   OH226156   4.752   1.643   3.759
 8738TIP3    H126157   4.743   1.728   3.801
 8738TIP3    H226158   4.675   1.594   3.786
 8739TIP3   OH226159   0.123   1.685   5.400
 8739TIP3    H126160   0.213   1.673   5.431
 8739TIP3    H226161   0.127   1.766   5.348
 8740TIP3   OH226162   1.322   3.486   1.746
 8740TIP3    H126163   1.372   3.564   1.723
 8740TIP3    H226164   1.230   3.511   1.731
 8741TIP3   OH226165   7.475   7.736   6.621
 8741TIP3    H126166   7.381   7.748   6.630
 8741TIP3    H226167   7.487   7.641   6.616
 8742TIP3   OH226168   7.780   7.484   3.330
 8742TIP3    H126169   7.700   7.534   3.348
 8742TIP3    H226170   7.791   7.429   3.407
 8743TIP3   OH226171   4.761   6.772   4.504
 8743TIP3    H126172   4.844   6.730   4.526
 8743TIP3    H226173   4.728   6.805   4.588
 8744TIP3   OH226174   7.719   5.009   2.043
 8744TIP3    H126175   7.651   5.029   2.108
 8744TIP3    H226176   7.751   5.095   2.014
 8745TIP3   OH226177   8.119   1.605   5.686
 8745TIP3    H126178   8.213   1.596   5.701
 8745TIP3    H226179   8.082   1.523   5.719
 8746TIP3   OH226180   6.121   1.068   5.384
 8746TIP3    H126181   6.167   1.022   5.313
 8746TIP3    H226182   6.036   1.024   5.390
 8747TIP3   OH226183   4.135   0.139   4.612
 8747TIP3    H126184   4.217   0.112   4.654
 8747TIP3    H226185   4.137   0.098   4.526
 8748TIP3   OH226186   4.199   7.374   6.771
 8748TIP3    H126187   4.213   7.289   6.729
 8748TIP3    H226188   4.275   7.426   6.747
 8749TIP3   OH226189   8.236   6.893   0.040
 8749TIP3    H126190   8.201   6.842   0.114
 8749TIP3    H226191   8.301   6.835   0.000
 8750TIP3   OH226192   5.141   1.982   0.571
 8750TIP3    H126193   5.089   2.051   0.612
 8750TIP3    H226194   5.232   2.009   0.586
 8751TIP3   OH226195   3.078   1.447   4.059
 8751TIP3    H126196   3.056   1.490   3.977
 8751TIP3    H226197   3.159   1.400   4.041
 8752TIP3   OH226198   5.370   4.612   0.367
 8752TIP3    H126199   5.359   4.565   0.450
 8752TIP3    H226200   5.291   4.667   0.361
 8753TIP3   OH226201   3.515   1.371   0.686
 8753TIP3    H126202   3.525   1.393   0.779
 8753TIP3    H226203   3.584   1.308   0.669
 8754TIP3   OH226204   3.216   0.190   1.738
 8754TIP3    H126205   3.186   0.266   1.687
 8754TIP3    H226206   3.300   0.166   1.698
 8755TIP3   OH226207   5.483   3.152   1.126
 8755TIP3    H126208   5.473   3.244   1.151
 8755TIP3    H226209   5.395   3.124   1.100
 8756TIP3   OH226210   4.439   0.862   4.358
 8756TIP3    H126211   4.440   0.779   4.311
 8756TIP3    H226212   4.469   0.841   4.446
 8757TIP3   OH226213   1.731   2.416   2.572
 8757TIP3    H126214   1.725   2.494   2.627
 8757TIP3    H226215   1.822   2.415   2.541
 8758TIP3   OH226216   1.133   2.224   5.848
 8758TIP3    H126217   1.136   2.310   5.890
 8758TIP3    H226218   1.048   2.188   5.874
 8759TIP3   OH226219   8.141   1.925   2.216
 8759TIP3    H126220   8.093   1.845   2.194
 8759TIP3    H226221   8.118   1.987   2.147
 8760TIP3   OH226222   3.294   0.557   4.089
 8760TIP3    H126223   3.206   0.596   4.087
 8760TIP3    H226224   3.286   0.482   4.148
 8761TIP3   OH226225   0.835   2.993   4.459
 8761TIP3    H126226   0.916   3.015   4.414
 8761TIP3    H226227   0.814   2.904   4.430
 8762TIP3   OH226228   5.066   7.658   4.484
 8762TIP3    H126229   5.091   7.639   4.574
 8762TIP3    H226230   5.145   7.696   4.445
 8763TIP3   OH226231   5.660   0.377   5.467
 8763TIP3    H126232   5.702   0.362   5.382
 8763TIP3    H226233   5.648   0.290   5.504
 8764TIP3   OH226234   7.266   5.303   0.674
 8764TIP3    H126235   7.202   5.335   0.739
 8764TIP3    H226236   7.278   5.376   0.614
 8765TIP3   OH226237   5.908   0.779   4.582
 8765TIP3    H126238   5.961   0.816   4.512
 8765TIP3    H226239   5.931   0.686   4.582
 8766TIP3   OH226240   7.287   6.197   5.709
 8766TIP3    H126241   7.299   6.153   5.793
 8766TIP3    H226242   7.374   6.228   5.685
 8767TIP3   OH226243   2.965   7.730   0.965
 8767TIP3    H126244   3.051   7.768   0.981
 8767TIP3    H226245   2.963   7.713   0.870
 8768TIP3   OH226246   0.001   7.518   4.008
 8768TIP3    H126247   0.074   7.548   4.062
 8768TIP3    H226248  -0.069   7.582   4.025
 8769TIP3   OH226249   1.687  -0.022   4.780
 8769TIP3    H126250   1.612   0.025   4.745
 8769TIP3    H226251   1.734   0.042   4.833
 8770TIP3   OH226252   7.118   6.674   2.934
 8770TIP3    H126253   7.064   6.699   3.009
 8770TIP3    H226254   7.112   6.578   2.932
 8771TIP3   OH226255   3.186   2.783   2.820
 8771TIP3    H126256   3.229   2.720   2.878
 8771TIP3    H226257   3.141   2.843   2.879
 8772TIP3   OH226258   4.520   5.671   0.534
 8772TIP3    H126259   4.554   5.739   0.475
 8772TIP3    H226260   4.598   5.638   0.578
 8773TIP3   OH226261   0.195   1.752   4.170
 8773TIP3    H126262   0.166   1.665   4.197
 8773TIP3    H226263   0.237   1.789   4.247
 8774TIP3   OH226264   4.371   7.564   4.180
 8774TIP3    H126265   4.335   7.479   4.155
 8774TIP3    H226266   4.461   7.563   4.148
 8775TIP3   OH226267   0.073   4.263   5.343
 8775TIP3    H126268   0.028   4.184   5.312
 8775TIP3    H226269   0.069   4.256   5.439
 8776TIP3   OH226270   6.776   0.344   2.442
 8776TIP3    H126271   6.823   0.301   2.514
 8776TIP3    H226272   6.723   0.411   2.484
 8777TIP3   OH226273   1.573   5.181   5.249
 8777TIP3    H126274   1.564   5.086   5.260
 8777TIP3    H226275   1.607   5.211   5.333
 8778TIP3   OH226276   0.078   3.326   6.011
 8778TIP3    H126277   0.109   3.363   6.093
 8778TIP3    H226278  -0.017   3.320   6.022
 8779TIP3   OH226279   2.519   4.374   2.837
 8779TIP3    H126280   2.566   4.291   2.829
 8779TIP3    H226281   2.539   4.404   2.926
 8780TIP3   OH226282   5.258   3.921   3.365
 8780TIP3    H126283   5.326   3.985   3.384
 8780TIP3    H226284   5.184   3.974   3.333
 8781TIP3   OH226285   2.489   5.549   2.808
 8781TIP3    H126286   2.485   5.568   2.901
 8781TIP3    H226287   2.557   5.481   2.800
 8782TIP3   OH226288   7.800   2.821   0.569
 8782TIP3    H126289   7.781   2.804   0.477
 8782TIP3    H226290   7.782   2.738   0.613
 8783TIP3   OH226291   3.131   4.332   6.261
 8783TIP3    H126292   3.218   4.361   6.234
 8783TIP3    H226293   3.142   4.304   6.352
 8784TIP3   OH226294   1.335   7.122   2.030
 8784TIP3    H126295   1.400   7.052   2.040
 8784TIP3    H226296   1.289   7.124   2.115
 8785TIP3   OH226297   5.032   4.515   5.308
 8785TIP3    H126298   4.979   4.477   5.378
 8785TIP3    H226299   4.996   4.479   5.227
 8786TIP3   OH226300   0.012   7.612   0.576
 8786TIP3    H126301   0.091   7.596   0.627
 8786TIP3    H226302  -0.030   7.526   0.570
 8787TIP3   OH226303   4.548   2.589   1.510
 8787TIP3    H126304   4.511   2.525   1.450
 8787TIP3    H226305   4.575   2.538   1.586
 8788TIP3   OH226306   6.903   0.171   3.290
 8788TIP3    H126307   6.934   0.091   3.248
 8788TIP3    H226308   6.878   0.144   3.378
 8789TIP3   OH226309   4.649   7.053   6.537
 8789TIP3    H126310   4.671   7.144   6.518
 8789TIP3    H226311   4.711   7.028   6.606
 8790TIP3   OH226312   3.075   3.184   5.607
 8790TIP3    H126313   3.110   3.182   5.696
 8790TIP3    H226314   2.993   3.135   5.612
 8791TIP3   OH226315   1.521   3.592   0.517
 8791TIP3    H126316   1.537   3.501   0.540
 8791TIP3    H226317   1.473   3.588   0.434
 8792TIP3   OH226318   6.465   3.000   1.098
 8792TIP3    H126319   6.377   3.022   1.128
 8792TIP3    H226320   6.491   2.924   1.150
 8793TIP3   OH226321   1.824   3.883   1.369
 8793TIP3    H126322   1.805   3.793   1.343
 8793TIP3    H226323   1.751   3.908   1.425
 8794TIP3   OH226324   2.532   0.775   1.495
 8794TIP3    H126325   2.539   0.867   1.520
 8794TIP3    H226326   2.490   0.733   1.570
 8795TIP3   OH226327   4.925   4.513   4.290
 8795TIP3    H126328   4.905   4.593   4.338
 8795TIP3    H226329   4.882   4.523   4.206
 8796TIP3   OH226330   4.653   6.069   0.029
 8796TIP3    H126331   4.712   6.047   0.101
 8796TIP3    H226332   4.707   6.068  -0.049
 8797TIP3   OH226333   4.099   5.266   3.379
 8797TIP3    H126334   4.139   5.348   3.408
 8797TIP3    H226335   4.084   5.217   3.460
 8798TIP3   OH226336   8.092   1.512   4.482
 8798TIP3    H126337   8.078   1.603   4.456
 8798TIP3    H226338   8.086   1.462   4.401
 8799TIP3   OH226339   4.532   6.364   5.900
 8799TIP3    H126340   4.458   6.365   5.840
 8799TIP3    H226341   4.506   6.304   5.969
 8800TIP3   OH226342   1.353   2.296   0.376
 8800TIP3    H126343   1.385   2.257   0.295
 8800TIP3    H226344   1.258   2.293   0.369
 8801TIP3   OH226345   7.711   2.866   2.007
 8801TIP3    H126346   7.669   2.940   1.961
 8801TIP3    H226347   7.663   2.789   1.977
 8802TIP3   OH226348   8.080   3.419   5.052
 8802TIP3    H126349   8.080   3.493   5.113
 8802TIP3    H226350   8.168   3.421   5.013
 8803TIP3   OH226351   2.917   2.553   3.550
 8803TIP3    H126352   2.974   2.479   3.527
 8803TIP3    H226353   2.829   2.521   3.534
 8804TIP3   OH226354   6.491   0.136   6.737
 8804TIP3    H126355   6.417   0.076   6.731
 8804TIP3    H226356   6.458   0.219   6.703
 8805TIP3   OH226357   6.417   2.864   4.121
 8805TIP3    H126358   6.498   2.843   4.075
 8805TIP3    H226359   6.383   2.941   4.076
 8806TIP3   OH226360   3.924   6.965   1.493
 8806TIP3    H126361   3.870   6.988   1.417
 8806TIP3    H226362   4.007   7.011   1.477
 8807TIP3   OH226363   7.106   0.649   1.819
 8807TIP3    H126364   7.089   0.626   1.910
 8807TIP3    H226365   7.189   0.605   1.799
 8808TIP3   OH226366   6.394   1.793   0.393
 8808TIP3    H126367   6.345   1.749   0.462
 8808TIP3    H226368   6.430   1.722   0.340
 8809TIP3   OH226369   2.877   1.406   4.279
 8809TIP3    H126370   2.913   1.438   4.196
 8809TIP3    H226371   2.870   1.312   4.267
 8810TIP3   OH226372   5.920   6.348   3.367
 8810TIP3    H126373   5.882   6.342   3.454
 8810TIP3    H226374   5.974   6.428   3.370
 8811TIP3   OH226375   2.139   5.506   0.474
 8811TIP3    H126376   2.214   5.477   0.422
 8811TIP3    H226377   2.164   5.591   0.508
 8812TIP3   OH226378   0.506   5.368   6.240
 8812TIP3    H126379   0.432   5.365   6.179
 8812TIP3    H226380   0.583   5.356   6.184
 8813TIP3   OH226381   2.628   3.160   2.272
 8813TIP3    H126382   2.639   3.083   2.216
 8813TIP3    H226383   2.717   3.189   2.291
 8814TIP3   OH226384   1.625   3.489   5.347
 8814TIP3    H126385   1.653   3.431   5.277
 8814TIP3    H226386   1.548   3.534   5.312
 8815TIP3   OH226387   4.229   4.950   2.799
 8815TIP3    H126388   4.316   4.953   2.838
 8815TIP3    H226389   4.214   5.040   2.768
 8816TIP3   OH226390   1.021   3.939   0.516
 8816TIP3    H126391   1.092   3.990   0.477
 8816TIP3    H226392   0.945   3.958   0.462
 8817TIP3   OH226393   4.283   6.732   3.542
 8817TIP3    H126394   4.209   6.737   3.482
 8817TIP3    H226395   4.251   6.774   3.622
 8818TIP3   OH226396   6.710   5.542   0.189
 8818TIP3    H126397   6.683   5.622   0.144
 8818TIP3    H226398   6.633   5.485   0.184
 8819TIP3   OH226399   4.117   0.410   5.827
 8819TIP3    H126400   4.179   0.379   5.761
 8819TIP3    H226401   4.058   0.336   5.841
 8820TIP3   OH226402   1.664   7.201   2.539
 8820TIP3    H126403   1.682   7.172   2.628
 8820TIP3    H226404   1.648   7.120   2.490
 8821TIP3   OH226405   7.849   6.492   6.568
 8821TIP3    H126406   7.761   6.462   6.591
 8821TIP3    H226407   7.907   6.426   6.605
 8822TIP3   OH226408   1.815   1.377   3.786
 8822TIP3    H126409   1.727   1.341   3.797
 8822TIP3    H226410   1.843   1.399   3.875
 8823TIP3   OH226411   5.888   7.569   1.678
 8823TIP3    H126412   5.867   7.662   1.691
 8823TIP3    H226413   5.856   7.526   1.757
 8824TIP3   OH226414   2.318   2.820   5.602
 8824TIP3    H126415   2.405   2.856   5.584
 8824TIP3    H226416   2.333   2.727   5.617
 8825TIP3   OH226417   2.250   5.614   6.772
 8825TIP3    H126418   2.289   5.544   6.719
 8825TIP3    H226419   2.163   5.625   6.735
 8826TIP3   OH226420   5.921   1.515   4.898
 8826TIP3    H126421   6.005   1.553   4.874
 8826TIP3    H226422   5.910   1.440   4.840
 8827TIP3   OH226423   4.708   0.293   5.604
 8827TIP3    H126424   4.638   0.228   5.612
 8827TIP3    H226425   4.775   0.248   5.552
 8828TIP3   OH226426   2.345   4.956   6.167
 8828TIP3    H126427   2.332   4.975   6.074
 8828TIP3    H226428   2.395   4.875   6.168
 8829TIP3   OH226429   5.255   5.075   1.603
 8829TIP3    H126430   5.240   4.993   1.557
 8829TIP3    H226431   5.307   5.051   1.680
 8830TIP3   OH226432   2.755   0.270   4.466
 8830TIP3    H126433   2.677   0.288   4.518
 8830TIP3    H226434   2.778   0.179   4.488
 8831TIP3   OH226435   0.448   1.861   3.966
 8831TIP3    H126436   0.440   1.779   4.014
 8831TIP3    H226437   0.370   1.865   3.911
 8832TIP3   OH226438   4.111   2.886   0.111
 8832TIP3    H126439   4.200   2.885   0.076
 8832TIP3    H226440   4.117   2.939   0.190
 8833TIP3   OH226441   0.947   4.690   5.127
 8833TIP3    H126442   0.859   4.727   5.122
 8833TIP3    H226443   0.985   4.706   5.040
 8834TIP3   OH226444   7.673   1.009   3.149
 8834TIP3    H126445   7.607   1.058   3.100
 8834TIP3    H226446   7.724   0.963   3.082
 8835TIP3   OH226447   0.564   1.505   2.773
 8835TIP3    H126448   0.484   1.462   2.805
 8835TIP3    H226449   0.543   1.598   2.773
 8836TIP3   OH226450   5.645   5.910   4.610
 8836TIP3    H126451   5.705   5.922   4.683
 8836TIP3    H226452   5.566   5.957   4.636
 8837TIP3   OH226453   0.928   0.278   2.035
 8837TIP3    H126454   0.897   0.258   2.123
 8837TIP3    H226455   0.884   0.215   1.979
 8838TIP3   OH226456   3.057   5.621   4.930
 8838TIP3    H126457   3.017   5.566   4.997
 8838TIP3    H226458   3.075   5.561   4.857
 8839TIP3   OH226459   3.916   3.739   4.705
 8839TIP3    H126460   3.914   3.832   4.680
 8839TIP3    H226461   3.907   3.692   4.623
 8840TIP3   OH226462   4.680   3.400   0.595
 8840TIP3    H126463   4.587   3.420   0.597
 8840TIP3    H226464   4.698   3.359   0.680
 8841TIP3   OH226465   0.357   6.812   0.166
 8841TIP3    H126466   0.299   6.802   0.091
 8841TIP3    H226467   0.436   6.851   0.130
 8842TIP3   OH226468   1.048   4.169   0.314
 8842TIP3    H126469   1.116   4.168   0.382
 8842TIP3    H226470   1.077   4.105   0.249
 8843TIP3   OH226471   7.767   1.657   4.666
 8843TIP3    H126472   7.766   1.720   4.739
 8843TIP3    H226473   7.827   1.588   4.695
 8844TIP3   OH226474   7.590   2.019   2.700
 8844TIP3    H126475   7.532   2.069   2.757
 8844TIP3    H226476   7.677   2.056   2.716
 8845TIP3   OH226477   4.470   2.026   5.892
 8845TIP3    H126478   4.470   1.975   5.972
 8845TIP3    H226479   4.556   2.068   5.890
 8846TIP3   OH226480   5.368   2.548   6.000
 8846TIP3    H126481   5.450   2.502   6.010
 8846TIP3    H226482   5.313   2.489   5.948
 8847TIP3   OH226483   0.077   2.574   6.487
 8847TIP3    H126484   0.088   2.490   6.442
 8847TIP3    H226485   0.035   2.552   6.570
 8848TIP3   OH226486   5.699   1.500   5.599
 8848TIP3    H126487   5.725   1.567   5.535
 8848TIP3    H226488   5.721   1.417   5.556
 8849TIP3   OH226489   2.293   1.391   3.683
 8849TIP3    H126490   2.309   1.314   3.628
 8849TIP3    H226491   2.331   1.464   3.634
 8850TIP3   OH226492   2.880   3.592   1.177
 8850TIP3    H126493   2.853   3.661   1.237
 8850TIP3    H226494   2.928   3.638   1.108
 8851TIP3   OH226495   5.105   1.638   0.988
 8851TIP3    H126496   5.021   1.598   0.964
 8851TIP3    H226497   5.131   1.687   0.910
 8852TIP3   OH226498   4.481   3.053   4.266
 8852TIP3    H126499   4.400   3.054   4.317
 8852TIP3    H226500   4.491   2.961   4.238
 8853TIP3   OH226501   5.687   0.888   5.984
 8853TIP3    H126502   5.782   0.896   5.996
 8853TIP3    H226503   5.655   0.848   6.065
 8854TIP3   OH226504   5.210   3.627   4.073
 8854TIP3    H126505   5.268   3.567   4.027
 8854TIP3    H226506   5.192   3.697   4.009
 8855TIP3   OH226507   0.394   4.316   6.622
 8855TIP3    H126508   0.450   4.238   6.623
 8855TIP3    H226509   0.454   4.387   6.600
 8856TIP3   OH226510   4.293   4.627   4.149
 8856TIP3    H126511   4.252   4.544   4.122
 8856TIP3    H226512   4.227   4.693   4.128
 8857TIP3   OH226513   5.595   2.949   0.558
 8857TIP3    H126514   5.638   3.005   0.493
 8857TIP3    H226515   5.515   2.996   0.580
 8858TIP3   OH226516   6.104   1.386   1.557
 8858TIP3    H126517   6.055   1.385   1.639
 8858TIP3    H226518   6.111   1.479   1.535
 8859TIP3   OH226519   2.713   3.581   5.603
 8859TIP3    H126520   2.803   3.595   5.573
 8859TIP3    H226521   2.676   3.670   5.610
 8860TIP3   OH226522   4.834   5.702   4.831
 8860TIP3    H126523   4.831   5.670   4.741
 8860TIP3    H226524   4.880   5.786   4.825
 8861TIP3   OH226525   4.605   3.055   3.144
 8861TIP3    H126526   4.628   3.069   3.236
 8861TIP3    H226527   4.628   2.963   3.128
 8862TIP3   OH226528   3.888   6.623   4.353
 8862TIP3    H126529   3.798   6.637   4.382
 8862TIP3    H226530   3.938   6.615   4.435
 8863TIP3   OH226531   1.990   0.619   5.551
 8863TIP3    H126532   1.939   0.697   5.574
 8863TIP3    H226533   1.927   0.547   5.554
 8864TIP3   OH226534   4.507   4.210   1.233
 8864TIP3    H126535   4.447   4.258   1.176
 8864TIP3    H226536   4.470   4.220   1.321
 8865TIP3   OH226537   1.017   5.419   5.934
 8865TIP3    H126538   0.973   5.334   5.931
 8865TIP3    H226539   0.951   5.481   5.901
 8866TIP3   OH226540   0.248   6.503   3.235
 8866TIP3    H126541   0.265   6.542   3.321
 8866TIP3    H226542   0.205   6.572   3.185
 8867TIP3   OH226543   1.998   2.066   4.546
 8867TIP3    H126544   1.966   2.154   4.524
 8867TIP3    H226545   2.089   2.065   4.515
 8868TIP3   OH226546   0.362   6.047   0.972
 8868TIP3    H126547   0.449   6.013   0.993
 8868TIP3    H226548   0.365   6.065   0.878
 8869TIP3   OH226549   2.245   3.841   5.208
 8869TIP3    H126550   2.262   3.758   5.253
 8869TIP3    H226551   2.169   3.823   5.153
 8870TIP3   OH226552   2.047   0.325   6.038
 8870TIP3    H126553   2.143   0.328   6.044
 8870TIP3    H226554   2.029   0.327   5.944
 8871TIP3   OH226555   5.995   1.203   5.822
 8871TIP3    H126556   6.059   1.259   5.867
 8871TIP3    H226557   6.013   1.218   5.729
 8872TIP3   OH226558   3.991   1.983   6.437
 8872TIP3    H126559   3.978   2.065   6.485
 8872TIP3    H226560   3.925   1.985   6.368
 8873TIP3   OH226561   3.230   5.190   1.116
 8873TIP3    H126562   3.191   5.204   1.202
 8873TIP3    H226563   3.263   5.276   1.090
 8874TIP3   OH226564   0.980   4.547   5.469
 8874TIP3    H126565   1.066   4.521   5.501
 8874TIP3    H226566   0.958   4.482   5.403
 8875TIP3   OH226567   4.483   5.595   2.533
 8875TIP3    H126568   4.427   5.673   2.530
 8875TIP3    H226569   4.572   5.630   2.536
 8876TIP3   OH226570   2.187   5.990   0.123
 8876TIP3    H126571   2.280   5.974   0.135
 8876TIP3    H226572   2.180   6.084   0.110
 8877TIP3   OH226573   1.630   4.519   4.522
 8877TIP3    H126574   1.580   4.445   4.489
 8877TIP3    H226575   1.720   4.487   4.528
 8878TIP3   OH226576   5.186   2.601   1.591
 8878TIP3    H126577   5.189   2.585   1.497
 8878TIP3    H226578   5.244   2.676   1.605
 8879TIP3   OH226579   0.148   0.299   4.658
 8879TIP3    H126580   0.164   0.211   4.693
 8879TIP3    H226581   0.140   0.286   4.563
 8880TIP3   OH226582   0.650   2.019   1.328
 8880TIP3    H126583   0.680   1.958   1.396
 8880TIP3    H226584   0.691   1.988   1.248
 8881TIP3   OH226585   4.423   7.478   1.804
 8881TIP3    H126586   4.489   7.490   1.872
 8881TIP3    H226587   4.472   7.483   1.722
 8882TIP3   OH226588   7.353   6.242   2.815
 8882TIP3    H126589   7.367   6.242   2.720
 8882TIP3    H226590   7.394   6.323   2.845
 8883TIP3   OH226591   8.153   3.745   0.741
 8883TIP3    H126592   8.204   3.822   0.717
 8883TIP3    H226593   8.177   3.679   0.675
 8884TIP3   OH226594   3.321   1.833   5.169
 8884TIP3    H126595   3.233   1.816   5.203
 8884TIP3    H226596   3.309   1.836   5.074
 8885TIP3   OH226597   7.262   2.832   0.612
 8885TIP3    H126598   7.252   2.927   0.611
 8885TIP3    H226599   7.183   2.799   0.569
 8886TIP3   OH226600   4.013   6.936   1.108
 8886TIP3    H126601   3.966   6.902   1.032
 8886TIP3    H226602   3.975   7.022   1.124
 8887TIP3   OH226603   4.137   2.204   4.564
 8887TIP3    H126604   4.196   2.147   4.612
 8887TIP3    H226605   4.097   2.147   4.498
 8888TIP3   OH226606   3.766   3.125   6.152
 8888TIP3    H126607   3.817   3.156   6.077
 8888TIP3    H226608   3.773   3.030   6.147
 8889TIP3   OH226609   1.850   1.230   0.255
 8889TIP3    H126610   1.887   1.300   0.308
 8889TIP3    H226611   1.838   1.268   0.169
 8890TIP3   OH226612   0.372   1.570   5.711
 8890TIP3    H126613   0.329   1.484   5.715
 8890TIP3    H226614   0.378   1.598   5.802
 8891TIP3   OH226615   1.228   0.073   1.869
 8891TIP3    H126616   1.273   0.027   1.797
 8891TIP3    H226617   1.217   0.162   1.836
 8892TIP3   OH226618   4.664   6.117   4.448
 8892TIP3    H126619   4.572   6.138   4.436
 8892TIP3    H226620   4.707   6.148   4.368
 8893TIP3   OH226621   3.799   5.797  -0.016
 8893TIP3    H126622   3.860   5.730   0.015
 8893TIP3    H226623   3.714   5.770   0.019
 8894TIP3   OH226624   4.752   7.176   3.909
 8894TIP3    H126625   4.793   7.158   3.825
 8894TIP3    H226626   4.809   7.240   3.951
 8895TIP3   OH226627   3.312   4.565   1.167
 8895TIP3    H126628   3.322   4.619   1.245
 8895TIP3    H226629   3.315   4.475   1.199
 8896TIP3   OH226630   0.423   2.303   2.868
 8896TIP3    H126631   0.335   2.326   2.839
 8896TIP3    H226632   0.467   2.387   2.877
 8897TIP3   OH226633   7.510   1.253   5.721
 8897TIP3    H126634   7.476   1.237   5.633
 8897TIP3    H226635   7.435   1.235   5.779
 8898TIP3   OH226636   6.985   5.722   5.117
 8898TIP3    H126637   6.997   5.779   5.193
 8898TIP3    H226638   7.035   5.764   5.048
 8899TIP3   OH226639   4.298   3.812   0.866
 8899TIP3    H126640   4.319   3.719   0.856
 8899TIP3    H226641   4.219   3.812   0.920
 8900TIP3   OH226642   2.250   4.577   5.586
 8900TIP3    H126643   2.247   4.666   5.621
 8900TIP3    H226644   2.340   4.567   5.553
 8901TIP3   OH226645   2.217   6.530   3.101
 8901TIP3    H126646   2.302   6.551   3.139
 8901TIP3    H226647   2.224   6.558   3.010
 8902TIP3   OH226648   2.320   1.653   4.667
 8902TIP3    H126649   2.236   1.631   4.625
 8902TIP3    H226650   2.305   1.638   4.760
 8903TIP3   OH226651   2.912   0.847   5.836
 8903TIP3    H126652   2.831   0.807   5.803
 8903TIP3    H226653   2.890   0.939   5.849
 8904TIP3   OH226654   1.959   6.083   2.438
 8904TIP3    H126655   1.959   6.178   2.453
 8904TIP3    H226656   1.867   6.061   2.425
 8905TIP3   OH226657   6.803   6.232   1.091
 8905TIP3    H126658   6.740   6.304   1.082
 8905TIP3    H226659   6.787   6.177   1.015
 8906TIP3   OH226660   2.787   7.391   2.042
 8906TIP3    H126661   2.818   7.309   2.081
 8906TIP3    H226662   2.756   7.442   2.117
 8907TIP3   OH226663   2.689   2.666   4.763
 8907TIP3    H126664   2.713   2.746   4.809
 8907TIP3    H226665   2.631   2.695   4.692
 8908TIP3   OH226666   8.163   5.931   0.329
 8908TIP3    H126667   8.216   5.977   0.394
 8908TIP3    H226668   8.081   5.910   0.375
 8909TIP3   OH226669   7.939   3.745   1.573
 8909TIP3    H126670   7.998   3.817   1.553
 8909TIP3    H226671   7.958   3.723   1.664
 8910TIP3   OH226672   1.020   2.886   0.536
 8910TIP3    H126673   1.009   2.918   0.625
 8910TIP3    H226674   1.007   2.963   0.481
 8911TIP3   OH226675   7.617   2.074   5.302
 8911TIP3    H126676   7.583   2.009   5.364
 8911TIP3    H226677   7.579   2.157   5.332
 8912TIP3   OH226678   3.906   7.715   2.138
 8912TIP3    H126679   3.956   7.774   2.195
 8912TIP3    H226680   3.863   7.655   2.199
 8913TIP3   OH226681   6.732   1.584   5.892
 8913TIP3    H126682   6.681   1.610   5.969
 8913TIP3    H226683   6.693   1.634   5.820
 8914TIP3   OH226684   0.676   5.698   5.492
 8914TIP3    H126685   0.691   5.749   5.413
 8914TIP3    H226686   0.758   5.649   5.505
 8915TIP3   OH226687   3.421   4.977   2.934
 8915TIP3    H126688   3.385   5.048   2.988
 8915TIP3    H226689   3.498   4.948   2.982
 8916TIP3   OH226690   0.068   7.560   4.741
 8916TIP3    H126691   0.159   7.550   4.714
 8916TIP3    H226692   0.069   7.544   4.835
 8917TIP3   OH226693   5.461   3.126   0.013
 8917TIP3    H126694   5.551   3.099  -0.006
 8917TIP3    H226695   5.469   3.184   0.089
 8918TIP3   OH226696   0.638   0.302   3.023
 8918TIP3    H126697   0.627   0.328   2.931
 8918TIP3    H226698   0.687   0.220   3.019
 8919TIP3   OH226699   5.561   3.989   6.024
 8919TIP3    H126700   5.584   3.959   5.936
 8919TIP3    H226701   5.502   3.922   6.057
 8920TIP3   OH226702   0.678   1.416   5.061
 8920TIP3    H126703   0.704   1.432   4.971
 8920TIP3    H226704   0.628   1.334   5.058
 8921TIP3   OH226705   6.508   3.756   4.780
 8921TIP3    H126706   6.445   3.690   4.752
 8921TIP3    H226707   6.484   3.776   4.870
 8922TIP3   OH226708   4.748   6.498   4.369
 8922TIP3    H126709   4.755   6.590   4.393
 8922TIP3    H226710   4.670   6.493   4.314
 8923TIP3   OH226711   7.718   7.458   2.850
 8923TIP3    H126712   7.655   7.388   2.837
 8923TIP3    H226713   7.784   7.421   2.909
 8924TIP3   OH226714   3.320   4.944   3.910
 8924TIP3    H126715   3.413   4.924   3.920
 8924TIP3    H226716   3.276   4.867   3.946
 8925TIP3   OH226717   1.890   1.042   3.864
 8925TIP3    H126718   1.858   1.050   3.775
 8925TIP3    H226719   1.820   1.079   3.918
 8926TIP3   OH226720   7.232   4.919   0.845
 8926TIP3    H126721   7.238   4.826   0.868
 8926TIP3    H226722   7.159   4.923   0.783
 8927TIP3   OH226723   4.225   6.489   0.192
 8927TIP3    H126724   4.190   6.501   0.280
 8927TIP3    H226725   4.150   6.461   0.139
 8928TIP3   OH226726   4.909   2.374   0.850
 8928TIP3    H126727   4.841   2.335   0.906
 8928TIP3    H226728   4.887   2.468   0.849
 8929TIP3   OH226729   3.636   1.557   1.680
 8929TIP3    H126730   3.553   1.514   1.699
 8929TIP3    H226731   3.632   1.640   1.728
 8930TIP3   OH226732   5.145   0.571   0.973
 8930TIP3    H126733   5.058   0.609   0.959
 8930TIP3    H226734   5.144   0.540   1.064
 8931TIP3   OH226735   5.053   2.766   4.497
 8931TIP3    H126736   5.132   2.758   4.551
 8931TIP3    H226737   5.004   2.838   4.536
 8932TIP3   OH226738   4.830   0.977   3.733
 8932TIP3    H126739   4.859   1.026   3.810
 8932TIP3    H226740   4.871   1.021   3.659
 8933TIP3   OH226741   7.597   4.660   0.360
 8933TIP3    H126742   7.561   4.738   0.401
 8933TIP3    H226743   7.639   4.692   0.280
 8934TIP3   OH226744   1.788   3.669   2.417
 8934TIP3    H126745   1.708   3.623   2.441
 8934TIP3    H226746   1.761   3.761   2.409
 8935TIP3   OH226747   8.059   5.550   5.296
 8935TIP3    H126748   8.094   5.634   5.326
 8935TIP3    H226749   8.077   5.549   5.202
 8936TIP3   OH226750   0.289   4.714   0.037
 8936TIP3    H126751   0.367   4.685   0.084
 8936TIP3    H226752   0.276   4.648  -0.031
 8937TIP3   OH226753   8.186   4.805   5.884
 8937TIP3    H126754   8.127   4.739   5.920
 8937TIP3    H226755   8.130   4.881   5.866
 8938TIP3   OH226756   7.601   1.141   4.829
 8938TIP3    H126757   7.582   1.058   4.873
 8938TIP3    H226758   7.624   1.115   4.739
 8939TIP3   OH226759   1.201   7.238   6.143
 8939TIP3    H126760   1.186   7.230   6.049
 8939TIP3    H226761   1.122   7.280   6.176
 8940TIP3   OH226762   7.062   3.816   3.360
 8940TIP3    H126763   6.997   3.769   3.412
 8940TIP3    H226764   7.080   3.896   3.409
 8941TIP3   OH226765   5.843   4.139   0.272
 8941TIP3    H126766   5.806   4.173   0.190
 8941TIP3    H226767   5.800   4.055   0.284
 8942TIP3   OH226768   4.646   0.090   2.730
 8942TIP3    H126769   4.573   0.028   2.733
 8942TIP3    H226770   4.702   0.065   2.804
 8943TIP3   OH226771   5.771   1.236   1.340
 8943TIP3    H126772   5.726   1.278   1.267
 8943TIP3    H226773   5.862   1.267   1.334
 8944TIP3   OH226774   1.999   3.169   1.634
 8944TIP3    H126775   2.085   3.205   1.610
 8944TIP3    H226776   1.938   3.242   1.622
 8945TIP3   OH226777   2.662   0.362   6.456
 8945TIP3    H126778   2.735   0.374   6.396
 8945TIP3    H226779   2.672   0.431   6.521
 8946TIP3   OH226780   0.913   3.764   0.842
 8946TIP3    H126781   0.847   3.833   0.852
 8946TIP3    H226782   0.985   3.806   0.795
 8947TIP3   OH226783   4.814   2.416   2.676
 8947TIP3    H126784   4.864   2.427   2.596
 8947TIP3    H226785   4.727   2.387   2.647
 8948TIP3   OH226786   2.491   2.345   6.734
 8948TIP3    H126787   2.573   2.339   6.684
 8948TIP3    H226788   2.440   2.412   6.688
 8949TIP3   OH226789   4.058   1.944   1.670
 8949TIP3    H126790   4.151   1.952   1.646
 8949TIP3    H226791   4.059   1.929   1.764
 8950TIP3   OH226792   0.626   1.146   5.079
 8950TIP3    H126793   0.697   1.189   5.127
 8950TIP3    H226794   0.569   1.110   5.147
 8951TIP3   OH226795   0.327   1.085   4.439
 8951TIP3    H126796   0.321   1.179   4.454
 8951TIP3    H226797   0.388   1.075   4.366
 8952TIP3   OH226798   0.088   7.651   4.994
 8952TIP3    H126799   0.029   7.726   4.990
 8952TIP3    H226800   0.094   7.630   5.087
 8953TIP3   OH226801   1.093   2.477   3.646
 8953TIP3    H126802   1.001   2.488   3.667
 8953TIP3    H226803   1.102   2.384   3.626
 8954TIP3   OH226804   2.877   0.190   0.446
 8954TIP3    H126805   2.850   0.268   0.398
 8954TIP3    H226806   2.827   0.194   0.528
 8955TIP3   OH226807   3.748   3.228   2.258
 8955TIP3    H126808   3.818   3.167   2.236
 8955TIP3    H226809   3.685   3.176   2.308
 8956TIP3   OH226810   4.345   5.808   5.112
 8956TIP3    H126811   4.339   5.756   5.192
 8956TIP3    H226812   4.263   5.858   5.110
 8957TIP3   OH226813   3.122   5.172   5.335
 8957TIP3    H126814   3.129   5.105   5.404
 8957TIP3    H226815   3.205   5.218   5.339
 8958TIP3   OH226816   5.736   1.322   6.629
 8958TIP3    H126817   5.748   1.235   6.665
 8958TIP3    H226818   5.711   1.307   6.537
 8959TIP3   OH226819   6.176   3.649   1.372
 8959TIP3    H126820   6.200   3.568   1.326
 8959TIP3    H226821   6.228   3.647   1.452
 8960TIP3   OH226822   5.795   3.588   6.010
 8960TIP3    H126823   5.818   3.671   6.052
 8960TIP3    H226824   5.862   3.527   6.041
 8961TIP3   OH226825   3.241   6.207   1.393
 8961TIP3    H126826   3.289   6.219   1.311
 8961TIP3    H226827   3.297   6.248   1.460
 8962TIP3   OH226828   5.222   5.757   5.586
 8962TIP3    H126829   5.172   5.834   5.611
 8962TIP3    H226830   5.159   5.700   5.542
 8963TIP3   OH226831   7.006   2.478   4.010
 8963TIP3    H126832   7.053   2.411   3.961
 8963TIP3    H226833   7.008   2.555   3.953
 8964TIP3   OH226834   1.169   6.837   4.887
 8964TIP3    H126835   1.105   6.841   4.958
 8964TIP3    H226836   1.203   6.748   4.890
 8965TIP3   OH226837   7.891   7.717   2.417
 8965TIP3    H126838   7.858   7.711   2.507
 8965TIP3    H226839   7.884   7.628   2.383
 8966TIP3   OH226840   1.662   4.833   4.433
 8966TIP3    H126841   1.633   4.802   4.519
 8966TIP3    H226842   1.735   4.775   4.411
 8967TIP3   OH226843   8.209   2.543   0.434
 8967TIP3    H126844   8.179   2.622   0.480
 8967TIP3    H226845   8.270   2.577   0.368
 8968TIP3   OH226846   3.087   1.075   5.222
 8968TIP3    H126847   3.084   0.994   5.273
 8968TIP3    H226848   3.159   1.125   5.260
 8969TIP3   OH226849   0.389   3.667   4.641
 8969TIP3    H126850   0.426   3.612   4.710
 8969TIP3    H226851   0.406   3.618   4.560
 8970TIP3   OH226852   7.055   6.115   1.715
 8970TIP3    H126853   7.007   6.043   1.757
 8970TIP3    H226854   7.113   6.072   1.652
 8971TIP3   OH226855   2.596   5.458   2.256
 8971TIP3    H126856   2.536   5.527   2.283
 8971TIP3    H226857   2.618   5.478   2.165
 8972TIP3   OH226858   2.878   0.448   4.097
 8972TIP3    H126859   2.929   0.406   4.166
 8972TIP3    H226860   2.922   0.532   4.082
 8973TIP3   OH226861   7.501   3.620   5.488
 8973TIP3    H126862   7.578   3.671   5.462
 8973TIP3    H226863   7.537   3.544   5.535
 8974TIP3   OH226864   5.130   3.827   2.661
 8974TIP3    H126865   5.189   3.765   2.618
 8974TIP3    H226866   5.076   3.774   2.719
 8975TIP3   OH226867   5.413   2.403   2.345
 8975TIP3    H126868   5.365   2.368   2.420
 8975TIP3    H226869   5.353   2.466   2.305
 8976TIP3   OH226870   2.354   3.227   2.075
 8976TIP3    H126871   2.402   3.163   2.024
 8976TIP3    H226872   2.276   3.180   2.106
 8977TIP3   OH226873   0.665   4.182   4.334
 8977TIP3    H126874   0.581   4.168   4.378
 8977TIP3    H226875   0.730   4.141   4.391
 8978TIP3   OH226876   3.085   1.250   6.514
 8978TIP3    H126877   3.121   1.174   6.560
 8978TIP3    H226878   3.095   1.229   6.421
 8979TIP3   OH226879   4.412   6.035   4.245
 8979TIP3    H126880   4.426   5.988   4.327
 8979TIP3    H226881   4.396   6.125   4.272
 8980TIP3   OH226882   4.735   7.080   6.062
 8980TIP3    H126883   4.717   7.020   6.134
 8980TIP3    H226884   4.648   7.108   6.031
 8981TIP3   OH226885   5.091   5.631   0.476
 8981TIP3    H126886   5.067   5.672   0.559
 8981TIP3    H226887   5.082   5.701   0.411
 8982TIP3   OH226888   4.114   2.052   5.805
 8982TIP3    H126889   4.136   1.967   5.843
 8982TIP3    H226890   4.048   2.032   5.738
 8983TIP3   OH226891   6.663   6.911   3.139
 8983TIP3    H126892   6.630   6.849   3.075
 8983TIP3    H226893   6.627   6.996   3.110
 8984TIP3   OH226894   1.516   4.464   2.589
 8984TIP3    H126895   1.602   4.497   2.614
 8984TIP3    H226896   1.457   4.497   2.657
 8985TIP3   OH226897   0.946   6.286   4.368
 8985TIP3    H126898   1.007   6.292   4.295
 8985TIP3    H226899   0.997   6.243   4.438
 8986TIP3   OH226900   3.488   0.128   1.197
 8986TIP3    H126901   3.418   0.177   1.242
 8986TIP3    H226902   3.519   0.188   1.129
 8987TIP3   OH226903   3.168   3.863   5.263
 8987TIP3    H126904   3.145   3.770   5.269
 8987TIP3    H226905   3.096   3.908   5.307
 8988TIP3   OH226906   8.050   3.805   5.661
 8988TIP3    H126907   8.038   3.829   5.569
 8988TIP3    H226908   8.023   3.882   5.709
 8989TIP3   OH226909   7.842   0.548   0.522
 8989TIP3    H126910   7.899   0.606   0.571
 8989TIP3    H226911   7.798   0.495   0.589
 8990TIP3   OH226912   8.050   7.369   1.100
 8990TIP3    H126913   7.966   7.377   1.056
 8990TIP3    H226914   8.050   7.280   1.137
 8991TIP3   OH226915   5.645   2.546   2.406
 8991TIP3    H126916   5.584   2.487   2.363
 8991TIP3    H226917   5.589   2.610   2.451
 8992TIP3   OH226918   1.111   0.308   0.964
 8992TIP3    H126919   1.191   0.347   0.931
 8992TIP3    H226920   1.089   0.360   1.042
 8993TIP3   OH226921   3.570   3.128   5.009
 8993TIP3    H126922   3.564   3.047   5.059
 8993TIP3    H226923   3.634   3.181   5.056
 8994TIP3   OH226924   0.067   7.348   0.334
 8994TIP3    H126925  -0.028   7.365   0.333
 8994TIP3    H226926   0.092   7.345   0.242
 8995TIP3   OH226927   6.178   7.201   3.342
 8995TIP3    H126928   6.273   7.207   3.344
 8995TIP3    H226929   6.149   7.264   3.409
 8996TIP3   OH226930   7.150   6.086   0.290
 8996TIP3    H126931   7.150   6.060   0.382
 8996TIP3    H226932   7.063   6.062   0.258
 8997TIP3   OH226933   3.458   3.728   0.781
 8997TIP3    H126934   3.415   3.804   0.821
 8997TIP3    H226935   3.479   3.672   0.855
 8998TIP3   OH226936   0.550   2.144   4.017
 8998TIP3    H126937   0.540   2.049   4.021
 8998TIP3    H226938   0.558   2.164   3.923
 8999TIP3   OH226939   8.041   3.303   3.603
 8999TIP3    H126940   7.964   3.325   3.655
 8999TIP3    H226941   8.051   3.208   3.615
 9000TIP3   OH226942   4.389   2.872   5.219
 9000TIP3    H126943   4.347   2.874   5.133
 9000TIP3    H226944   4.483   2.878   5.200
 9001TIP3   OH226945   5.271   0.578   4.720
 9001TIP3    H126946   5.227   0.659   4.695
 9001TIP3    H226947   5.331   0.560   4.647
 9002TIP3   OH226948   2.265   2.164   1.726
 9002TIP3    H126949   2.274   2.092   1.664
 9002TIP3    H226950   2.277   2.124   1.812
 9003TIP3   OH226951   0.720   6.527   6.164
 9003TIP3    H126952   0.705   6.589   6.093
 9003TIP3    H226953   0.698   6.442   6.126
 9004TIP3   OH226954   3.029   1.255   2.047
 9004TIP3    H126955   3.053   1.275   2.137
 9004TIP3    H226956   3.055   1.164   2.035
 9005TIP3   OH226957   0.213   0.714   1.604
 9005TIP3    H126958   0.154   0.677   1.670
 9005TIP3    H226959   0.205   0.654   1.530
 9006TIP3   OH226960   5.759   6.992   4.288
 9006TIP3    H126961   5.850   6.963   4.277
 9006TIP3    H226962   5.710   6.944   4.221
 9007TIP3   OH226963   5.406   6.461   0.850
 9007TIP3    H126964   5.339   6.487   0.787
 9007TIP3    H226965   5.394   6.521   0.924
 9008TIP3   OH226966   7.365   3.736   6.074
 9008TIP3    H126967   7.322   3.669   6.021
 9008TIP3    H226968   7.448   3.752   6.029
 9009TIP3   OH226969   4.392   2.687   3.109
 9009TIP3    H126970   4.366   2.755   3.046
 9009TIP3    H226971   4.485   2.704   3.125
 9010TIP3   OH226972   5.851   0.005   3.949
 9010TIP3    H126973   5.888   0.091   3.930
 9010TIP3    H226974   5.927  -0.047   3.976
 9011TIP3   OH226975   5.926   5.167   6.036
 9011TIP3    H126976   5.945   5.142   5.945
 9011TIP3    H226977   5.831   5.182   6.036
 9012TIP3   OH226978   6.648   5.618   4.694
 9012TIP3    H126979   6.725   5.632   4.750
 9012TIP3    H226980   6.585   5.685   4.723
 9013TIP3   OH226981   0.105   0.389   1.121
 9013TIP3    H126982   0.088   0.332   1.046
 9013TIP3    H226983   0.084   0.477   1.089
 9014TIP3   OH226984   6.556   0.184   3.896
 9014TIP3    H126985   6.581   0.126   3.825
 9014TIP3    H226986   6.536   0.124   3.969
 9015TIP3   OH226987   0.651   4.763   0.951
 9015TIP3    H126988   0.687   4.699   1.013
 9015TIP3    H226989   0.560   4.736   0.938
 9016TIP3   OH226990   2.736   4.589   3.339
 9016TIP3    H126991   2.751   4.657   3.273
 9016TIP3    H226992   2.823   4.567   3.372
 9017TIP3   OH226993   5.884   5.809   2.729
 9017TIP3    H126994   5.952   5.833   2.792
 9017TIP3    H226995   5.802   5.833   2.772
 9018TIP3   OH226996   4.602   2.915   6.189
 9018TIP3    H126997   4.520   2.964   6.179
 9018TIP3    H226998   4.596   2.876   6.276
 9019TIP3   OH226999   2.169   4.001   0.623
 9019TIP3    H127000   2.251   3.982   0.579
 9019TIP3    H227001   2.153   3.925   0.678
 9020TIP3   OH227002   6.860   7.254   6.654
 9020TIP3    H127003   6.896   7.177   6.608
 9020TIP3    H227004   6.937   7.298   6.690
 9021TIP3   OH227005   8.235   4.555   4.754
 9021TIP3    H127006   8.210   4.473   4.796
 9021TIP3    H227007   8.165   4.616   4.776
 9022TIP3   OH227008   5.481   3.597   5.332
 9022TIP3    H127009   5.478   3.692   5.336
 9022TIP3    H227010   5.488   3.568   5.423
 9023TIP3   OH227011   6.243   0.757   1.253
 9023TIP3    H127012   6.189   0.831   1.281
 9023TIP3    H227013   6.318   0.758   1.313
 9024TIP3   OH227014   4.370   1.707   5.838
 9024TIP3    H127015   4.440   1.748   5.888
 9024TIP3    H227016   4.355   1.623   5.882
 9025TIP3   OH227017   4.763   7.286   0.519
 9025TIP3    H127018   4.744   7.346   0.447
 9025TIP3    H227019   4.730   7.330   0.597
 9026TIP3   OH227020   4.381   7.667   3.497
 9026TIP3    H127021   4.444   7.698   3.432
 9026TIP3    H227022   4.349   7.747   3.539
 9027TIP3   OH227023   3.380   4.443   6.182
 9027TIP3    H127024   3.368   4.375   6.115
 9027TIP3    H227025   3.470   4.433   6.211
 9028TIP3   OH227026   6.901   4.223   5.708
 9028TIP3    H127027   6.884   4.317   5.709
 9028TIP3    H227028   6.937   4.204   5.795
 9029TIP3   OH227029   1.374   4.650   0.134
 9029TIP3    H127030   1.398   4.571   0.183
 9029TIP3    H227031   1.380   4.624   0.042
 9030TIP3   OH227032   8.230   5.167   5.074
 9030TIP3    H127033   8.146   5.134   5.043
 9030TIP3    H227034   8.271   5.207   4.997
 9031TIP3   OH227035   1.613   0.263   0.555
 9031TIP3    H127036   1.631   0.249   0.648
 9031TIP3    H227037   1.553   0.193   0.531
 9032TIP3   OH227038   5.240   5.032   6.273
 9032TIP3    H127039   5.221   4.994   6.187
 9032TIP3    H227040   5.179   4.989   6.332
 9033TIP3   OH227041   4.577   0.626   0.090
 9033TIP3    H127042   4.624   0.593   0.013
 9033TIP3    H227043   4.485   0.607   0.073
 9034TIP3   OH227044   5.471   0.537   3.042
 9034TIP3    H127045   5.506   0.463   3.092
 9034TIP3    H227046   5.398   0.499   2.992
 9035TIP3   OH227047   0.945   0.489   4.791
 9035TIP3    H127048   0.884   0.439   4.843
 9035TIP3    H227049   0.904   0.495   4.704
 9036TIP3   OH227050   3.527   1.015   5.724
 9036TIP3    H127051   3.568   0.937   5.760
 9036TIP3    H227052   3.436   0.989   5.709
 9037TIP3   OH227053   7.639   1.441   5.377
 9037TIP3    H127054   7.678   1.525   5.400
 9037TIP3    H227055   7.648   1.436   5.281
 9038TIP3   OH227056   6.212   6.491   0.979
 9038TIP3    H127057   6.252   6.408   1.002
 9038TIP3    H227058   6.196   6.535   1.062
 9039TIP3   OH227059   3.442   1.338   4.516
 9039TIP3    H127060   3.366   1.280   4.519
 9039TIP3    H227061   3.440   1.375   4.428
 9040TIP3   OH227062   4.773   4.897   6.395
 9040TIP3    H127063   4.727   4.981   6.384
 9040TIP3    H227064   4.749   4.847   6.318
 9041TIP3   OH227065   3.725   0.209   3.013
 9041TIP3    H127066   3.812   0.179   3.042
 9041TIP3    H227067   3.726   0.197   2.918
 9042TIP3   OH227068   5.938   1.347   2.882
 9042TIP3    H127069   6.029   1.332   2.907
 9042TIP3    H227070   5.926   1.442   2.890
 9043TIP3   OH227071   5.855   3.780   2.805
 9043TIP3    H127072   5.851   3.875   2.798
 9043TIP3    H227073   5.794   3.758   2.876
 9044TIP3   OH227074   4.454   6.859   6.545
 9044TIP3    H127075   4.386   6.866   6.478
 9044TIP3    H227076   4.486   6.948   6.557
 9045TIP3   OH227077   1.240   6.557   3.077
 9045TIP3    H127078   1.186   6.592   3.148
 9045TIP3    H227079   1.278   6.634   3.035
 9046TIP3   OH227080   6.664   1.154   5.672
 9046TIP3    H127081   6.651   1.066   5.636
 9046TIP3    H227082   6.674   1.210   5.595
 9047TIP3   OH227083   1.611   3.738   1.438
 9047TIP3    H127084   1.635   3.648   1.460
 9047TIP3    H227085   1.643   3.790   1.512
 9048TIP3   OH227086   4.393   2.280   6.146
 9048TIP3    H127087   4.381   2.272   6.052
 9048TIP3    H227088   4.450   2.356   6.157
 9049TIP3   OH227089   1.373   7.687   0.072
 9049TIP3    H127090   1.302   7.671   0.009
 9049TIP3    H227091   1.383   7.605   0.118
 9050TIP3   OH227092   8.143   5.055   6.408
 9050TIP3    H127093   8.221   5.029   6.457
 9050TIP3    H227094   8.178   5.098   6.330
 9051TIP3   OH227095   0.769   6.904   4.082
 9051TIP3    H127096   0.758   6.957   4.161
 9051TIP3    H227097   0.687   6.916   4.034
 9052TIP3   OH227098   2.865   4.475   1.824
 9052TIP3    H127099   2.893   4.527   1.899
 9052TIP3    H227100   2.931   4.492   1.757
 9053TIP3   OH227101   4.877   4.420   0.402
 9053TIP3    H127102   4.958   4.435   0.353
 9053TIP3    H227103   4.822   4.370   0.342
 9054TIP3   OH227104   6.956   6.391   3.540
 9054TIP3    H127105   6.919   6.446   3.471
 9054TIP3    H227106   6.931   6.434   3.622
 9055TIP3   OH227107   6.423   1.639   1.742
 9055TIP3    H127108   6.478   1.589   1.682
 9055TIP3    H227109   6.434   1.597   1.827
 9056TIP3   OH227110   5.329   3.393   5.215
 9056TIP3    H127111   5.275   3.433   5.146
 9056TIP3    H227112   5.379   3.466   5.251
 9057TIP3   OH227113   4.876   2.646   0.866
 9057TIP3    H127114   4.906   2.705   0.797
 9057TIP3    H227115   4.929   2.669   0.942
 9058TIP3   OH227116   6.095   5.895   5.865
 9058TIP3    H127117   6.016   5.871   5.913
 9058TIP3    H227118   6.101   5.990   5.876
 9059TIP3   OH227119   1.548   2.722   0.096
 9059TIP3    H127120   1.641   2.730   0.118
 9059TIP3    H227121   1.502   2.748   0.175
 9060TIP3   OH227122   6.782   3.897   3.813
 9060TIP3    H127123   6.804   3.973   3.760
 9060TIP3    H227124   6.710   3.926   3.868
 9061TIP3   OH227125   0.677   0.654   5.980
 9061TIP3    H127126   0.590   0.643   6.019
 9061TIP3    H227127   0.676   0.744   5.947
 9062TIP3   OH227128   4.036   4.009   1.653
 9062TIP3    H127129   3.958   3.975   1.609
 9062TIP3    H227130   4.070   4.076   1.593
 9063TIP3   OH227131   3.659   1.805   3.679
 9063TIP3    H127132   3.624   1.829   3.593
 9063TIP3    H227133   3.620   1.868   3.739
 9064TIP3   OH227134   6.044   3.364   2.734
 9064TIP3    H127135   6.090   3.313   2.667
 9064TIP3    H227136   5.972   3.405   2.687
 9065TIP3   OH227137   3.124   7.396   3.064
 9065TIP3    H127138   3.166   7.313   3.043
 9065TIP3    H227139   3.181   7.463   3.027
 9066TIP3   OH227140   4.215   0.492   6.243
 9066TIP3    H127141   4.236   0.509   6.151
 9066TIP3    H227142   4.299   0.475   6.284
 9067TIP3   OH227143   3.601   5.438   4.243
 9067TIP3    H127144   3.667   5.446   4.313
 9067TIP3    H227145   3.652   5.424   4.164
 9068TIP3   OH227146   3.892   6.011   5.235
 9068TIP3    H127147   3.868   5.920   5.220
 9068TIP3    H227148   3.813   6.061   5.217
 9069TIP3   OH227149   5.034   4.763   4.639
 9069TIP3    H127150   5.089   4.685   4.630
 9069TIP3    H227151   5.091   4.829   4.676
 9070TIP3   OH227152   1.777   7.462   1.201
 9070TIP3    H127153   1.752   7.390   1.259
 9070TIP3    H227154   1.748   7.435   1.114
 9071TIP3   OH227155   5.897   1.444   4.452
 9071TIP3    H127156   5.889   1.539   4.463
 9071TIP3    H227157   5.852   1.407   4.528
 9072TIP3   OH227158   1.051   4.807   3.047
 9072TIP3    H127159   1.073   4.889   3.091
 9072TIP3    H227160   0.956   4.799   3.057
 9073TIP3   OH227161   6.168   1.932   2.244
 9073TIP3    H127162   6.247   1.898   2.287
 9073TIP3    H227163   6.097   1.879   2.281
 9074TIP3   OH227164   5.008   0.046   6.341
 9074TIP3    H127165   5.090   0.075   6.302
 9074TIP3    H227166   4.948   0.036   6.266
 9075TIP3   OH227167   6.056   7.513   4.021
 9075TIP3    H127168   6.066   7.419   4.007
 9075TIP3    H227169   5.962   7.529   4.014
 9076TIP3   OH227170   5.139   6.523   6.447
 9076TIP3    H127171   5.219   6.560   6.484
 9076TIP3    H227172   5.169   6.445   6.399
 9077TIP3   OH227173   4.902   0.500   5.500
 9077TIP3    H127174   4.827   0.444   5.521
 9077TIP3    H227175   4.949   0.510   5.583
 9078TIP3   OH227176   7.499   4.330   3.243
 9078TIP3    H127177   7.478   4.296   3.330
 9078TIP3    H227178   7.512   4.253   3.189
 9079TIP3   OH227179   1.432   0.869   4.591
 9079TIP3    H127180   1.403   0.842   4.678
 9079TIP3    H227181   1.524   0.843   4.587
 9080TIP3   OH227182   2.256   0.619   0.080
 9080TIP3    H127183   2.182   0.670   0.113
 9080TIP3    H227184   2.333   0.674   0.097
 9081TIP3   OH227185   0.001   6.207   4.786
 9081TIP3    H127186  -0.005   6.183   4.694
 9081TIP3    H227187   0.014   6.124   4.832
 9082TIP3   OH227188   8.084   5.991   3.335
 9082TIP3    H127189   8.136   6.053   3.386
 9082TIP3    H227190   8.074   6.032   3.249
 9083TIP3   OH227191   0.333   6.663   2.606
 9083TIP3    H127192   0.253   6.709   2.581
 9083TIP3    H227193   0.336   6.670   2.702
 9084TIP3   OH227194   2.229   7.375   0.582
 9084TIP3    H127195   2.297   7.327   0.535
 9084TIP3    H227196   2.272   7.404   0.662
 9085TIP3   OH227197   3.658   1.971   4.445
 9085TIP3    H127198   3.709   1.892   4.426
 9085TIP3    H227199   3.656   1.976   4.540
 9086TIP3   OH227200   1.301   5.119   2.433
 9086TIP3    H127201   1.394   5.109   2.412
 9086TIP3    H227202   1.294   5.092   2.524
 9087TIP3   OH227203   0.554   6.234   5.548
 9087TIP3    H127204   0.490   6.195   5.608
 9087TIP3    H227205   0.634   6.183   5.562
 9088TIP3   OH227206   5.980   0.616   3.372
 9088TIP3    H127207   6.067   0.576   3.377
 9088TIP3    H227208   5.920   0.545   3.394
 9089TIP3   OH227209   3.362   5.401   6.126
 9089TIP3    H127210   3.296   5.467   6.106
 9089TIP3    H227211   3.355   5.338   6.055
 9090TIP3   OH227212   5.668   6.346   4.625
 9090TIP3    H127213   5.715   6.417   4.669
 9090TIP3    H227214   5.597   6.324   4.686
 9091TIP3   OH227215   1.417   7.547   2.820
 9091TIP3    H127216   1.340   7.533   2.764
 9091TIP3    H227217   1.449   7.458   2.838
 9092TIP3   OH227218   3.641   3.399   1.713
 9092TIP3    H127219   3.556   3.423   1.750
 9092TIP3    H227220   3.622   3.336   1.645
 9093TIP3   OH227221   1.542   5.683   5.933
 9093TIP3    H127222   1.463   5.723   5.898
 9093TIP3    H227223   1.521   5.664   6.024
 9094TIP3   OH227224   0.933   0.557   6.040
 9094TIP3    H127225   0.852   0.599   6.011
 9094TIP3    H227226   0.904   0.491   6.103
 9095TIP3   OH227227   5.940   7.201   1.380
 9095TIP3    H127228   5.981   7.137   1.437
 9095TIP3    H227229   5.922   7.154   1.299
 9096TIP3   OH227230   3.632   2.585   6.277
 9096TIP3    H127231   3.608   2.569   6.369
 9096TIP3    H227232   3.623   2.679   6.266
 9097TIP3   OH227233   6.367   1.036   2.576
 9097TIP3    H127234   6.351   1.103   2.510
 9097TIP3    H227235   6.293   1.043   2.636
 9098TIP3   OH227236   1.867   2.025   4.276
 9098TIP3    H127237   1.808   1.969   4.225
 9098TIP3    H227238   1.926   1.964   4.320
 9099TIP3   OH227239   5.244   3.906   1.506
 9099TIP3    H127240   5.320   3.895   1.448
 9099TIP3    H227241   5.169   3.911   1.446
 9100TIP3   OH227242   4.260   5.206   2.713
 9100TIP3    H127243   4.346   5.211   2.670
 9100TIP3    H227244   4.198   5.194   2.642
 9101TIP3   OH227245   1.873   2.914   1.085
 9101TIP3    H127246   1.823   2.996   1.083
 9101TIP3    H227247   1.954   2.937   1.131
 9102TIP3   OH227248   3.001   0.868   1.114
 9102TIP3    H127249   2.962   0.782   1.100
 9102TIP3    H227250   3.078   0.870   1.057
 9103TIP3   OH227251   5.233   2.337   5.782
 9103TIP3    H127252   5.152   2.296   5.810
 9103TIP3    H227253   5.289   2.263   5.756
 9104TIP3   OH227254   6.669   5.842   3.132
 9104TIP3    H127255   6.658   5.877   3.221
 9104TIP3    H227256   6.583   5.854   3.091
 9105TIP3   OH227257   5.713   7.380   4.573
 9105TIP3    H127258   5.790   7.365   4.628
 9105TIP3    H227259   5.748   7.402   4.487
 9106TIP3   OH227260   7.681   1.962   4.232
 9106TIP3    H127261   7.612   2.002   4.178
 9106TIP3    H227262   7.635   1.933   4.311
 9107TIP3   OH227263   2.652   2.454   0.644
 9107TIP3    H127264   2.656   2.492   0.732
 9107TIP3    H227265   2.591   2.381   0.652
 9108TIP3   OH227266   0.302   5.838   5.422
 9108TIP3    H127267   0.370   5.881   5.370
 9108TIP3    H227268   0.252   5.909   5.460
 9109TIP3   OH227269   6.624   7.273   3.183
 9109TIP3    H127270   6.646   7.351   3.131
 9109TIP3    H227271   6.599   7.207   3.118
 9110TIP3   OH227272   8.009   5.201   1.883
 9110TIP3    H127273   7.925   5.222   1.924
 9110TIP3    H227274   8.029   5.112   1.913
 9111TIP3   OH227275   0.999   6.772   5.931
 9111TIP3    H127276   1.092   6.790   5.920
 9111TIP3    H227277   0.994   6.722   6.013
 9112TIP3   OH227278   1.518   2.478   4.741
 9112TIP3    H127279   1.504   2.412   4.809
 9112TIP3    H227280   1.436   2.528   4.741
 9113TIP3   OH227281   4.115   0.344   0.013
 9113TIP3    H127282   4.089   0.412  -0.049
 9113TIP3    H227283   4.033   0.312   0.050
 9114TIP3   OH227284   3.923   7.592   0.890
 9114TIP3    H127285   4.016   7.614   0.897
 9114TIP3    H227286   3.921   7.515   0.833
 9115TIP3   OH227287   3.362   7.659   4.899
 9115TIP3    H127288   3.456   7.652   4.910
 9115TIP3    H227289   3.326   7.634   4.984
 9116TIP3   OH227290   0.049   0.097   3.251
 9116TIP3    H127291   0.064   0.004   3.237
 9116TIP3    H227292   0.134   0.131   3.279
 9117TIP3   OH227293   4.993   2.097   1.181
 9117TIP3    H127294   5.028   2.055   1.102
 9117TIP3    H227295   5.064   2.154   1.211
 9118TIP3   OH227296   1.185   4.135   2.347
 9118TIP3    H127297   1.160   4.069   2.283
 9118TIP3    H227298   1.185   4.218   2.299
 9119TIP3   OH227299   5.015   5.757   0.708
 9119TIP3    H127300   5.068   5.699   0.763
 9119TIP3    H227301   4.972   5.816   0.770
 9120TIP3   OH227302   4.941   2.010   1.688
 9120TIP3    H127303   4.997   1.990   1.614
 9120TIP3    H227304   4.965   1.944   1.754
 9121TIP3   OH227305   4.392   5.263   5.897
 9121TIP3    H127306   4.450   5.228   5.829
 9121TIP3    H227307   4.376   5.188   5.955
 9122TIP3   OH227308   5.303   3.029   5.282
 9122TIP3    H127309   5.226   2.972   5.277
 9122TIP3    H227310   5.292   3.089   5.208
 9123TIP3   OH227311   1.328   3.792   0.294
 9123TIP3    H127312   1.233   3.803   0.297
 9123TIP3    H227313   1.342   3.702   0.325
 9124TIP3   OH227314   1.427   0.540   5.508
 9124TIP3    H127315   1.370   0.515   5.435
 9124TIP3    H227316   1.501   0.584   5.466
 9125TIP3   OH227317   8.228   4.378   5.902
 9125TIP3    H127318   8.170   4.352   5.974
 9125TIP3    H227319   8.224   4.474   5.902
 9126TIP3   OH227320   3.921   1.742   0.385
 9126TIP3    H127321   3.853   1.676   0.374
 9126TIP3    H227322   3.875   1.826   0.374
 9127TIP3   OH227323   4.326   2.287   5.541
 9127TIP3    H127324   4.308   2.195   5.560
 9127TIP3    H227325   4.327   2.330   5.627
 9128TIP3   OH227326   1.800   1.633   1.976
 9128TIP3    H127327   1.745   1.560   2.006
 9128TIP3    H227328   1.830   1.607   1.889
 9129TIP3   OH227329   8.134   2.659   2.795
 9129TIP3    H127330   8.212   2.651   2.850
 9129TIP3    H227331   8.067   2.696   2.854
 9130TIP3   OH227332   5.482   3.571   2.753
 9130TIP3    H127333   5.501   3.646   2.809
 9130TIP3    H227334   5.399   3.537   2.785
 9131TIP3   OH227335   0.896   0.154   5.472
 9131TIP3    H127336   0.876   0.067   5.438
 9131TIP3    H227337   0.814   0.183   5.513
 9132TIP3   OH227338   5.503   5.638   0.694
 9132TIP3    H127339   5.436   5.577   0.725
 9132TIP3    H227340   5.581   5.618   0.746
 9133TIP3   OH227341   3.292   1.865   6.686
 9133TIP3    H127342   3.243   1.807   6.627
 9133TIP3    H227343   3.342   1.922   6.629
 9134TIP3   OH227344   0.336   5.424   5.591
 9134TIP3    H127345   0.424   5.389   5.578
 9134TIP3    H227346   0.278   5.355   5.561
 9135TIP3   OH227347   3.186   5.423   4.774
 9135TIP3    H127348   3.180   5.469   4.690
 9135TIP3    H227349   3.278   5.396   4.780
 9136TIP3   OH227350   0.631   5.538   3.344
 9136TIP3    H127351   0.656   5.515   3.255
 9136TIP3    H227352   0.552   5.487   3.361
 9137TIP3   OH227353   5.428   4.472   1.261
 9137TIP3    H127354   5.508   4.441   1.218
 9137TIP3    H227355   5.439   4.567   1.266
 9138TIP3   OH227356   1.627   3.008   4.662
 9138TIP3    H127357   1.627   2.916   4.689
 9138TIP3    H227358   1.686   3.010   4.586
 9139TIP3   OH227359   2.734   5.794   4.973
 9139TIP3    H127360   2.664   5.792   5.038
 9139TIP3    H227361   2.810   5.826   5.021
 9140TIP3   OH227362   0.412   6.206   2.294
 9140TIP3    H127363   0.421   6.292   2.336
 9140TIP3    H227364   0.464   6.147   2.349
 9141TIP3   OH227365   0.841   4.816   0.260
 9141TIP3    H127366   0.876   4.818   0.170
 9141TIP3    H227367   0.914   4.784   0.313
 9142TIP3   OH227368   5.163   1.785   0.767
 9142TIP3    H127369   5.257   1.765   0.761
 9142TIP3    H227370   5.140   1.817   0.680
 9143TIP3   OH227371   1.589   3.238   2.804
 9143TIP3    H127372   1.594   3.331   2.829
 9143TIP3    H227373   1.672   3.201   2.833
 9144TIP3   OH227374   3.506   1.095   2.199
 9144TIP3    H127375   3.546   1.171   2.157
 9144TIP3    H227376   3.580   1.040   2.225
 9145TIP3   OH227377   4.179   6.557   2.158
 9145TIP3    H127378   4.117   6.486   2.144
 9145TIP3    H227379   4.128   6.625   2.202
 9146TIP3   OH227380   2.524   3.185   3.487
 9146TIP3    H127381   2.566   3.157   3.568
 9146TIP3    H227382   2.494   3.274   3.505
 9147TIP3   OH227383   4.420   1.546   4.998
 9147TIP3    H127384   4.368   1.565   5.076
 9147TIP3    H227385   4.438   1.632   4.960
 9148TIP3   OH227386   5.468   2.144   4.744
 9148TIP3    H127387   5.388   2.124   4.697
 9148TIP3    H227388   5.536   2.148   4.677
 9149TIP3   OH227389   5.734   2.433   3.249
 9149TIP3    H127390   5.823   2.415   3.217
 9149TIP3    H227391   5.744   2.511   3.304
 9150TIP3   OH227392   0.620   5.645   4.826
 9150TIP3    H127393   0.606   5.558   4.865
 9150TIP3    H227394   0.542   5.695   4.852
 9151TIP3   OH227395   7.449   3.848   0.663
 9151TIP3    H127396   7.397   3.826   0.586
 9151TIP3    H227397   7.507   3.773   0.675
 9152TIP3   OH227398   6.408   3.705   5.744
 9152TIP3    H127399   6.322   3.689   5.704
 9152TIP3    H227400   6.447   3.773   5.690
 9153TIP3   OH227401   2.208   2.606   2.206
 9153TIP3    H127402   2.218   2.558   2.288
 9153TIP3    H227403   2.139   2.558   2.158
 9154TIP3   OH227404   4.007   3.518   3.080
 9154TIP3    H127405   4.069   3.519   3.008
 9154TIP3    H227406   3.997   3.426   3.103
 9155TIP3   OH227407   1.899   1.706   2.660
 9155TIP3    H127408   1.918   1.647   2.588
 9155TIP3    H227409   1.954   1.674   2.732
 9156TIP3   OH227410   5.753   6.534   2.290
 9156TIP3    H127411   5.849   6.528   2.286
 9156TIP3    H227412   5.726   6.450   2.327
 9157TIP3   OH227413   0.622   2.519   0.811
 9157TIP3    H127414   0.548   2.472   0.773
 9157TIP3    H227415   0.669   2.452   0.860
 9158TIP3   OH227416   1.308   5.337   1.307
 9158TIP3    H127417   1.393   5.377   1.295
 9158TIP3    H227418   1.273   5.327   1.218
 9159TIP3   OH227419   4.260   5.677   5.646
 9159TIP3    H127420   4.309   5.701   5.725
 9159TIP3    H227421   4.241   5.584   5.658
 9160TIP3   OH227422   1.973   2.372   3.836
 9160TIP3    H127423   1.893   2.338   3.796
 9160TIP3    H227424   1.973   2.336   3.924
 9161TIP3   OH227425   5.162   5.136   3.117
 9161TIP3    H127426   5.125   5.177   3.194
 9161TIP3    H227427   5.251   5.170   3.111
 9162TIP3   OH227428   7.083   5.924   3.992
 9162TIP3    H127429   7.150   5.952   4.055
 9162TIP3    H227430   7.131   5.919   3.909
 9163TIP3   OH227431   7.037   6.434   4.954
 9163TIP3    H127432   7.052   6.340   4.956
 9163TIP3    H227433   7.035   6.460   5.046
 9164TIP3   OH227434   6.830   0.049   3.525
 9164TIP3    H127435   6.884   0.055   3.604
 9164TIP3    H227436   6.743   0.075   3.553
 9165TIP3   OH227437   6.236   6.214   3.416
 9165TIP3    H127438   6.274   6.234   3.331
 9165TIP3    H227439   6.161   6.157   3.395
 9166TIP3   OH227440   1.160   3.914   0.755
 9166TIP3    H127441   1.244   3.887   0.719
 9166TIP3    H227442   1.101   3.917   0.679
 9167TIP3   OH227443   7.102   3.075   3.548
 9167TIP3    H127444   7.156   3.123   3.486
 9167TIP3    H227445   7.095   3.133   3.624
 9168TIP3   OH227446   4.486   3.065   0.749
 9168TIP3    H127447   4.506   2.999   0.815
 9168TIP3    H227448   4.503   3.148   0.793
 9169TIP3   OH227449   6.641   0.050   1.874
 9169TIP3    H127450   6.665  -0.019   1.936
 9169TIP3    H227451   6.553   0.078   1.902
 9170TIP3   OH227452   3.241   0.321   5.674
 9170TIP3    H127453   3.259   0.399   5.726
 9170TIP3    H227454   3.319   0.310   5.619
 9171TIP3   OH227455   2.790   2.946   1.368
 9171TIP3    H127456   2.736   2.978   1.296
 9171TIP3    H227457   2.867   3.004   1.368
 9172TIP3   OH227458   6.321   0.085   5.954
 9172TIP3    H127459   6.351   0.090   5.864
 9172TIP3    H227460   6.307  -0.009   5.970
 9173TIP3   OH227461   6.849   1.001   1.150
 9173TIP3    H127462   6.767   1.038   1.118
 9173TIP3    H227463   6.837   0.906   1.144
 9174TIP3   OH227464   6.394   1.847   3.874
 9174TIP3    H127465   6.403   1.930   3.921
 9174TIP3    H227466   6.468   1.794   3.904
 9175TIP3   OH227467   3.050   2.414   5.662
 9175TIP3    H127468   3.140   2.383   5.667
 9175TIP3    H227469   3.056   2.508   5.678
 9176TIP3   OH227470   2.185   2.885   0.784
 9176TIP3    H127471   2.130   2.859   0.711
 9176TIP3    H227472   2.252   2.941   0.745
 9177TIP3   OH227473   5.696   3.916   0.212
 9177TIP3    H127474   5.620   3.922   0.153
 9177TIP3    H227475   5.755   3.854   0.169
 9178TIP3   OH227476   4.980   0.776   0.578
 9178TIP3    H127477   4.925   0.851   0.553
 9178TIP3    H227478   5.068   0.801   0.552
 9179TIP3   OH227479   0.023   4.822   2.590
 9179TIP3    H127480  -0.004   4.912   2.569
 9179TIP3    H227481  -0.017   4.768   2.522
 9180TIP3   OH227482   1.979   0.194   1.434
 9180TIP3    H127483   1.939   0.272   1.396
 9180TIP3    H227484   1.904   0.143   1.466
 9181TIP3   OH227485   5.778   0.242   3.174
 9181TIP3    H127486   5.684   0.257   3.185
 9181TIP3    H227487   5.815   0.254   3.261
 9182TIP3   OH227488   5.855   3.505   3.695
 9182TIP3    H127489   5.770   3.471   3.724
 9182TIP3    H227490   5.902   3.523   3.776
 9183TIP3   OH227491   5.114   4.453   1.913
 9183TIP3    H127492   5.087   4.391   1.980
 9183TIP3    H227493   5.191   4.497   1.950
 9184TIP3   OH227494   3.021   0.308   3.617
 9184TIP3    H127495   3.101   0.263   3.642
 9184TIP3    H227496   3.004   0.369   3.688
 9185TIP3   OH227497   5.504   1.775   5.223
 9185TIP3    H127498   5.541   1.687   5.234
 9185TIP3    H227499   5.412   1.759   5.200
 9186TIP3   OH227500   1.757   7.602   1.496
 9186TIP3    H127501   1.843   7.614   1.456
 9186TIP3    H227502   1.729   7.515   1.467
 9187TIP3   OH227503   5.099   0.136   4.451
 9187TIP3    H127504   5.116   0.172   4.364
 9187TIP3    H227505   5.020   0.082   4.439
 9188TIP3   OH227506   2.959   3.726   0.022
 9188TIP3    H127507   3.023   3.720   0.093
 9188TIP3    H227508   2.889   3.666   0.048
 9189TIP3   OH227509   6.229   3.281   6.609
 9189TIP3    H127510   6.134   3.280   6.623
 9189TIP3    H227511   6.251   3.190   6.586
 9190TIP3   OH227512   2.847   4.337   6.212
 9190TIP3    H127513   2.942   4.329   6.222
 9190TIP3    H227514   2.832   4.331   6.118
 9191TIP3   OH227515   4.797   7.587   0.107
 9191TIP3    H127516   4.883   7.559   0.137
 9191TIP3    H227517   4.791   7.679   0.132
 9192TIP3   OH227518   2.645   3.710   3.475
 9192TIP3    H127519   2.704   3.785   3.477
 9192TIP3    H227520   2.569   3.739   3.425
 9193TIP3   OH227521   5.202   2.796   2.660
 9193TIP3    H127522   5.167   2.735   2.724
 9193TIP3    H227523   5.233   2.870   2.712
 9194TIP3   OH227524   4.995   2.734   0.528
 9194TIP3    H127525   4.902   2.754   0.539
 9194TIP3    H227526   5.041   2.805   0.573
 9195TIP3   OH227527   3.531   2.187   6.000
 9195TIP3    H127528   3.473   2.118   5.965
 9195TIP3    H227529   3.618   2.164   5.967
 9196TIP3   OH227530   1.401   0.074   2.790
 9196TIP3    H127531   1.447   0.043   2.869
 9196TIP3    H227532   1.472   0.099   2.731
 9197TIP3   OH227533   4.372   5.192   1.195
 9197TIP3    H127534   4.330   5.251   1.257
 9197TIP3    H227535   4.303   5.131   1.169
 9198TIP3   OH227536   1.671   5.014   3.611
 9198TIP3    H127537   1.722   5.086   3.575
 9198TIP3    H227538   1.686   5.019   3.705
 9199TIP3   OH227539   4.609   0.729   3.277
 9199TIP3    H127540   4.621   0.694   3.189
 9199TIP3    H227541   4.696   0.729   3.315
 9200TIP3   OH227542   1.470   0.407   4.413
 9200TIP3    H127543   1.416   0.443   4.343
 9200TIP3    H227544   1.471   0.476   4.480
 9201TIP3   OH227545   3.219   5.794   1.367
 9201TIP3    H127546   3.166   5.873   1.366
 9201TIP3    H227547   3.205   5.755   1.281
 9202TIP3   OH227548   0.404   3.710   2.991
 9202TIP3    H127549   0.357   3.739   3.069
 9202TIP3    H227550   0.457   3.636   3.020
 9203TIP3   OH227551   1.768   0.688   5.140
 9203TIP3    H127552   1.710   0.677   5.215
 9203TIP3    H227553   1.853   0.656   5.169
 9204TIP3   OH227554   0.492   6.211   0.413
 9204TIP3    H127555   0.423   6.268   0.447
 9204TIP3    H227556   0.531   6.261   0.341
 9205TIP3   OH227557   1.911   2.230   6.187
 9205TIP3    H127558   1.948   2.281   6.259
 9205TIP3    H227559   1.966   2.252   6.111
 9206TIP3   OH227560   2.542   5.150   6.519
 9206TIP3    H127561   2.494   5.072   6.546
 9206TIP3    H227562   2.546   5.144   6.424
 9207TIP3   OH227563   1.203   1.507   3.122
 9207TIP3    H127564   1.166   1.447   3.057
 9207TIP3    H227565   1.147   1.497   3.199
 9208TIP3   OH227566   1.450   5.914   3.155
 9208TIP3    H127567   1.368   5.947   3.116
 9208TIP3    H227568   1.477   5.983   3.216
 9209TIP3   OH227569   3.867   7.203   6.516
 9209TIP3    H127570   3.890   7.241   6.601
 9209TIP3    H227571   3.840   7.113   6.536
 9210TIP3   OH227572   5.937   3.131   2.068
 9210TIP3    H127573   5.992   3.187   2.124
 9210TIP3    H227574   5.883   3.193   2.019
 9211TIP3   OH227575   5.539   7.746   1.830
 9211TIP3    H127576   5.525   7.822   1.885
 9211TIP3    H227577   5.558   7.782   1.743
 9212TIP3   OH227578   4.541   0.162   3.106
 9212TIP3    H127579   4.588   0.238   3.140
 9212TIP3    H227580   4.469   0.198   3.054
 9213TIP3   OH227581   0.209   6.184   6.596
 9213TIP3    H127582   0.178   6.231   6.518
 9213TIP3    H227583   0.237   6.099   6.563
 9214TIP3   OH227584   4.088   6.434   4.205
 9214TIP3    H127585   4.031   6.506   4.231
 9214TIP3    H227586   4.150   6.425   4.277
 9215TIP3   OH227587   8.005   2.277   1.757
 9215TIP3    H127588   7.979   2.327   1.834
 9215TIP3    H227589   8.011   2.342   1.687
 9216TIP3   OH227590   6.207   4.288   2.521
 9216TIP3    H127591   6.127   4.264   2.569
 9216TIP3    H227592   6.205   4.234   2.442
 9217TIP3   OH227593   4.687   7.317   5.572
 9217TIP3    H127594   4.743   7.392   5.594
 9217TIP3    H227595   4.618   7.318   5.639
 9218TIP3   OH227596   0.111   2.949   1.604
 9218TIP3    H127597   0.058   2.879   1.567
 9218TIP3    H227598   0.051   2.999   1.658
 9219TIP3   OH227599   2.100   5.711   3.839
 9219TIP3    H127600   2.163   5.681   3.904
 9219TIP3    H227601   2.018   5.722   3.888
 9220TIP3   OH227602   8.212   0.510   5.778
 9220TIP3    H127603   8.209   0.433   5.835
 9220TIP3    H227604   8.305   0.524   5.761
 9221TIP3   OH227605   1.695   1.383   3.069
 9221TIP3    H127606   1.706   1.439   3.146
 9221TIP3    H227607   1.686   1.295   3.104
 9222TIP3   OH227608   7.112   1.650   6.338
 9222TIP3    H127609   7.185   1.708   6.316
 9222TIP3    H227610   7.136   1.613   6.423
 9223TIP3   OH227611   4.297   3.083   5.379
 9223TIP3    H127612   4.319   3.019   5.312
 9223TIP3    H227613   4.382   3.119   5.407
 9224TIP3   OH227614   7.993   3.415   1.296
 9224TIP3    H127615   8.019   3.392   1.385
 9224TIP3    H227616   8.075   3.417   1.247
 9225TIP3   OH227617   4.776   1.152   6.059
 9225TIP3    H127618   4.797   1.230   6.007
 9225TIP3    H227619   4.696   1.175   6.106
 9226TIP3   OH227620   1.673   1.072   6.432
 9226TIP3    H127621   1.753   1.057   6.382
 9226TIP3    H227622   1.694   1.042   6.521
 9227TIP3   OH227623   0.814   1.411   3.026
 9227TIP3    H127624   0.854   1.496   3.046
 9227TIP3    H227625   0.720   1.425   3.040
 9228TIP3   OH227626   3.740   5.390   3.156
 9228TIP3    H127627   3.735   5.295   3.160
 9228TIP3    H227628   3.813   5.408   3.095
 9229TIP3   OH227629   7.259   4.131   1.266
 9229TIP3    H127630   7.234   4.159   1.178
 9229TIP3    H227631   7.313   4.053   1.253
 9230TIP3   OH227632   2.490   3.289   6.115
 9230TIP3    H127633   2.500   3.195   6.098
 9230TIP3    H227634   2.578   3.324   6.103
 9231TIP3   OH227635   4.437   2.369   0.994
 9231TIP3    H127636   4.352   2.357   1.036
 9231TIP3    H227637   4.419   2.426   0.919
 9232TIP3   OH227638   4.030   0.678   4.841
 9232TIP3    H127639   4.061   0.743   4.905
 9232TIP3    H227640   4.104   0.665   4.782
 9233TIP3   OH227641   6.311   1.166   0.170
 9233TIP3    H127642   6.389   1.212   0.140
 9233TIP3    H227643   6.257   1.158   0.091
 9234TIP3   OH227644   0.884   6.595   1.095
 9234TIP3    H127645   0.954   6.658   1.079
 9234TIP3    H227646   0.912   6.516   1.047
 9235TIP3   OH227647   4.073   0.529   0.297
 9235TIP3    H127648   4.142   0.462   0.298
 9235TIP3    H227649   4.038   0.526   0.208
 9236TIP3   OH227650   6.683   6.908   1.893
 9236TIP3    H127651   6.630   6.900   1.813
 9236TIP3    H227652   6.769   6.874   1.867
 9237TIP3   OH227653   5.735   3.290   0.592
 9237TIP3    H127654   5.716   3.218   0.532
 9237TIP3    H227655   5.764   3.247   0.672
 9238TIP3   OH227656   7.356   7.706   2.366
 9238TIP3    H127657   7.412   7.628   2.364
 9238TIP3    H227658   7.405   7.770   2.417
 9239TIP3   OH227659   1.467   6.353   0.788
 9239TIP3    H127660   1.489   6.424   0.849
 9239TIP3    H227661   1.533   6.286   0.805
 9240TIP3   OH227662   7.373   2.816   6.201
 9240TIP3    H127663   7.442   2.850   6.143
 9240TIP3    H227664   7.320   2.893   6.222
 9241TIP3   OH227665   2.049   1.525   2.853
 9241TIP3    H127666   2.109   1.489   2.917
 9241TIP3    H227667   1.980   1.459   2.844
 9242TIP3   OH227668   5.376   3.771   6.086
 9242TIP3    H127669   5.295   3.815   6.112
 9242TIP3    H227670   5.352   3.720   6.009
 9243TIP3   OH227671   4.464   0.498   1.976
 9243TIP3    H127672   4.472   0.414   2.022
 9243TIP3    H227673   4.484   0.478   1.885
 9244TIP3   OH227674   2.653   5.810   0.528
 9244TIP3    H127675   2.596   5.881   0.499
 9244TIP3    H227676   2.610   5.774   0.605
 9245TIP3   OH227677   7.582   5.022   6.040
 9245TIP3    H127678   7.491   4.992   6.037
 9245TIP3    H227679   7.596   5.048   6.131
 9246TIP3   OH227680   3.981   5.128   2.680
 9246TIP3    H127681   3.981   5.035   2.658
 9246TIP3    H227682   3.928   5.169   2.612
 9247TIP3   OH227683   8.032   1.287   0.494
 9247TIP3    H127684   8.103   1.230   0.464
 9247TIP3    H227685   7.954   1.232   0.489
 9248TIP3   OH227686   8.182   1.274   5.540
 9248TIP3    H127687   8.238   1.349   5.523
 9248TIP3    H227688   8.169   1.233   5.455
 9249TIP3   OH227689   6.532   0.913   3.776
 9249TIP3    H127690   6.485   0.993   3.801
 9249TIP3    H227691   6.567   0.932   3.689
 9250TIP3   OH227692   3.571   7.109   2.744
 9250TIP3    H127693   3.611   7.029   2.711
 9250TIP3    H227694   3.483   7.082   2.770
 9251TIP3   OH227695   2.841   1.963   0.053
 9251TIP3    H127696   2.846   2.059   0.054
 9251TIP3    H227697   2.909   1.936  -0.009
 9252TIP3   OH227698   0.436   2.926   4.335
 9252TIP3    H127699   0.392   3.007   4.360
 9252TIP3    H227700   0.528   2.952   4.324
 9253TIP3   OH227701   6.853   4.946   4.685
 9253TIP3    H127702   6.849   4.871   4.627
 9253TIP3    H227703   6.918   4.923   4.751
 9254TIP3   OH227704   5.339   7.673   2.427
 9254TIP3    H127705   5.313   7.671   2.335
 9254TIP3    H227706   5.340   7.581   2.453
 9255TIP3   OH227707   8.075   1.998   3.309
 9255TIP3    H127708   8.140   2.061   3.339
 9255TIP3    H227709   8.113   1.913   3.331
 9256TIP3   OH227710   3.896   1.566   2.767
 9256TIP3    H127711   3.962   1.619   2.811
 9256TIP3    H227712   3.922   1.475   2.785
 9257TIP3   OH227713   1.145   5.878   1.649
 9257TIP3    H127714   1.219   5.820   1.669
 9257TIP3    H227715   1.186   5.963   1.631
 9258TIP3   OH227716   5.068   4.853   6.382
 9258TIP3    H127717   5.059   4.765   6.344
 9258TIP3    H227718   4.979   4.886   6.387
 9259TIP3   OH227719   8.255   2.469   4.472
 9259TIP3    H127720   8.280   2.452   4.382
 9259TIP3    H227721   8.317   2.417   4.524
 9260TIP3   OH227722   3.724   4.455   4.470
 9260TIP3    H127723   3.735   4.483   4.561
 9260TIP3    H227724   3.808   4.414   4.447
 9261TIP3   OH227725   0.170   6.026   3.244
 9261TIP3    H127726   0.167   6.121   3.236
 9261TIP3    H227727   0.264   6.005   3.248
 9262TIP3   OH227728   2.458   2.301   0.261
 9262TIP3    H127729   2.497   2.217   0.237
 9262TIP3    H227730   2.478   2.311   0.354
 9263TIP3   OH227731   2.262   2.612   4.392
 9263TIP3    H127732   2.328   2.545   4.408
 9263TIP3    H227733   2.311   2.689   4.366
 9264TIP3   OH227734   1.479   0.546   3.210
 9264TIP3    H127735   1.472   0.641   3.210
 9264TIP3    H227736   1.509   0.523   3.122
 9265TIP3   OH227737   1.365   7.809   4.358
 9265TIP3    H127738   1.293   7.780   4.301
 9265TIP3    H227739   1.444   7.778   4.314
 9266TIP3   OH227740   4.660   1.773   0.818
 9266TIP3    H127741   4.625   1.806   0.736
 9266TIP3    H227742   4.584   1.743   0.867
 9267TIP3   OH227743   2.542   2.380   6.147
 9267TIP3    H127744   2.613   2.317   6.137
 9267TIP3    H227745   2.462   2.328   6.144
 9268TIP3   OH227746   1.026   3.136   3.924
 9268TIP3    H127747   0.965   3.107   3.856
 9268TIP3    H227748   1.113   3.123   3.886
 9269TIP3   OH227749   7.905   1.951   6.377
 9269TIP3    H127750   7.873   1.950   6.467
 9269TIP3    H227751   7.826   1.964   6.324
 9270TIP3   OH227752   2.607   6.784   2.142
 9270TIP3    H127753   2.634   6.867   2.181
 9270TIP3    H227754   2.529   6.806   2.091
 9271TIP3   OH227755   0.667   7.563   2.675
 9271TIP3    H127756   0.650   7.609   2.757
 9271TIP3    H227757   0.647   7.471   2.694
 9272TIP3   OH227758   5.072   2.780   3.162
 9272TIP3    H127759   5.087   2.719   3.234
 9272TIP3    H227760   5.153   2.777   3.111
 9273TIP3   OH227761   6.916   3.303   2.345
 9273TIP3    H127762   6.980   3.291   2.275
 9273TIP3    H227763   6.923   3.223   2.397
 9274TIP3   OH227764   6.749   4.888   3.635
 9274TIP3    H127765   6.690   4.876   3.709
 9274TIP3    H227766   6.834   4.905   3.676
 9275TIP3   OH227767   0.221   1.045   6.493
 9275TIP3    H127768   0.220   0.985   6.419
 9275TIP3    H227769   0.140   1.026   6.540
 9276TIP3   OH227770   3.412   2.774   2.504
 9276TIP3    H127771   3.465   2.752   2.428
 9276TIP3    H227772   3.476   2.789   2.574
 9277TIP3   OH227773   0.107   2.622   5.150
 9277TIP3    H127774   0.079   2.579   5.230
 9277TIP3    H227775   0.199   2.597   5.140
 9278TIP3   OH227776   8.096   0.190   5.199
 9278TIP3    H127777   8.104   0.168   5.106
 9278TIP3    H227778   8.186   0.191   5.231
 9279TIP3   OH227779   3.236   5.257   0.058
 9279TIP3    H127780   3.274   5.227   0.140
 9279TIP3    H227781   3.196   5.179   0.020
 9280TIP3   OH227782   0.642   1.059   1.829
 9280TIP3    H127783   0.718   1.054   1.887
 9280TIP3    H227784   0.606   0.970   1.828
 9281TIP3   OH227785   2.697   5.605   3.496
 9281TIP3    H127786   2.734   5.693   3.507
 9281TIP3    H227787   2.693   5.570   3.585
 9282TIP3   OH227788   7.769   1.393   6.498
 9282TIP3    H127789   7.813   1.394   6.583
 9282TIP3    H227790   7.832   1.354   6.438
 9283TIP3   OH227791   0.485   7.177   0.263
 9283TIP3    H127792   0.439   7.149   0.184
 9283TIP3    H227793   0.417   7.185   0.329
 9284TIP3   OH227794   4.640   6.247   2.491
 9284TIP3    H127795   4.633   6.341   2.472
 9284TIP3    H227796   4.561   6.209   2.453
 9285TIP3   OH227797   2.284   6.022   1.839
 9285TIP3    H127798   2.255   5.962   1.770
 9285TIP3    H227799   2.349   6.077   1.796
 9286TIP3   OH227800   0.692   6.324   1.916
 9286TIP3    H127801   0.655   6.382   1.849
 9286TIP3    H227802   0.723   6.383   1.985
 9287TIP3   OH227803   2.591   7.485   4.650
 9287TIP3    H127804   2.505   7.476   4.690
 9287TIP3    H227805   2.575   7.481   4.555
 9288TIP3   OH227806   6.825   6.631   5.614
 9288TIP3    H127807   6.769   6.655   5.688
 9288TIP3    H227808   6.792   6.547   5.584
 9289TIP3   OH227809   0.219   6.938   2.779
 9289TIP3    H127810   0.148   6.931   2.843
 9289TIP3    H227811   0.182   6.902   2.698
 9290TIP3   OH227812   1.600   7.606   6.294
 9290TIP3    H127813   1.592   7.582   6.201
 9290TIP3    H227814   1.637   7.694   6.293
 9291TIP3   OH227815   6.051   2.563   1.642
 9291TIP3    H127816   6.098   2.482   1.621
 9291TIP3    H227817   6.024   2.552   1.733
 9292TIP3   OH227818   7.357   0.384   4.517
 9292TIP3    H127819   7.294   0.418   4.454
 9292TIP3    H227820   7.408   0.320   4.469
 9293TIP3   OH227821   7.766   6.106   6.584
 9293TIP3    H127822   7.809   6.169   6.642
 9293TIP3    H227823   7.673   6.114   6.605
 9294TIP3   OH227824   6.282   2.337   3.734
 9294TIP3    H127825   6.231   2.382   3.666
 9294TIP3    H227826   6.364   2.313   3.690
 9295TIP3   OH227827   1.323   0.574   0.712
 9295TIP3    H127828   1.346   0.533   0.629
 9295TIP3    H227829   1.263   0.645   0.688
 9296TIP3   OH227830   6.379   4.872   1.871
 9296TIP3    H127831   6.355   4.880   1.779
 9296TIP3    H227832   6.390   4.778   1.885
 9297TIP3   OH227833   1.626   0.693   5.374
 9297TIP3    H127834   1.671   0.735   5.448
 9297TIP3    H227835   1.586   0.765   5.326
 9298TIP3   OH227836   2.624   2.072   1.363
 9298TIP3    H127837   2.713   2.106   1.356
 9298TIP3    H227838   2.602   2.083   1.456
 9299TIP3   OH227839   0.399   7.408   3.841
 9299TIP3    H127840   0.494   7.401   3.847
 9299TIP3    H227841   0.377   7.477   3.903
 9300TIP3   OH227842   3.221   6.474   5.030
 9300TIP3    H127843   3.226   6.493   5.124
 9300TIP3    H227844   3.302   6.510   4.994
 9301TIP3   OH227845   0.325   7.053   0.660
 9301TIP3    H127846   0.418   7.032   0.664
 9301TIP3    H227847   0.298   7.057   0.751
 9302TIP3   OH227848   1.373   5.410   2.523
 9302TIP3    H127849   1.395   5.380   2.611
 9302TIP3    H227850   1.408   5.342   2.465
 9303TIP3   OH227851   6.431   1.357   4.602
 9303TIP3    H127852   6.489   1.296   4.558
 9303TIP3    H227853   6.343   1.323   4.586
 9304TIP3   OH227854   7.858   3.575   0.223
 9304TIP3    H127855   7.839   3.483   0.241
 9304TIP3    H227856   7.784   3.623   0.260
 9305TIP3   OH227857   1.694   3.015   6.659
 9305TIP3    H127858   1.749   2.937   6.657
 9305TIP3    H227859   1.754   3.087   6.642
 9306TIP3   OH227860   3.502   7.031   1.534
 9306TIP3    H127861   3.499   6.952   1.589
 9306TIP3    H227862   3.582   7.076   1.561
 9307TIP3   OH227863   1.633   1.891   0.899
 9307TIP3    H127864   1.720   1.855   0.882
 9307TIP3    H227865   1.572   1.822   0.872
 9308TIP3   OH227866   2.041   7.697   4.051
 9308TIP3    H127867   1.951   7.671   4.031
 9308TIP3    H227868   2.048   7.787   4.017
 9309TIP3   OH227869   3.425   3.229   5.342
 9309TIP3    H127870   3.397   3.315   5.312
 9309TIP3    H227871   3.427   3.175   5.263
 9310TIP3   OH227872   7.610   5.084   3.125
 9310TIP3    H127873   7.552   5.107   3.197
 9310TIP3    H227874   7.564   5.016   3.077
 9311TIP3   OH227875   1.995   3.551   1.410
 9311TIP3    H127876   2.064   3.492   1.440
 9311TIP3    H227877   1.941   3.567   1.488
 9312TIP3   OH227878   1.741   0.334   3.377
 9312TIP3    H127879   1.805   0.396   3.411
 9312TIP3    H227880   1.656   0.369   3.406
 9313TIP3   OH227881   6.976   4.034   0.075
 9313TIP3    H127882   7.071   4.043   0.081
 9313TIP3    H227883   6.947   4.031   0.167
 9314TIP3   OH227884   7.238   1.864   0.405
 9314TIP3    H127885   7.225   1.954   0.373
 9314TIP3    H227886   7.323   1.867   0.448
 9315TIP3   OH227887   3.651   7.290   5.630
 9315TIP3    H127888   3.565   7.292   5.589
 9315TIP3    H227889   3.635   7.258   5.719
 9316TIP3   OH227890   4.413   7.268   1.039
 9316TIP3    H127891   4.385   7.194   0.986
 9316TIP3    H227892   4.420   7.341   0.978
 9317TIP3   OH227893   4.263   5.113   4.591
 9317TIP3    H127894   4.294   5.187   4.642
 9317TIP3    H227895   4.172   5.099   4.620
 9318TIP3   OH227896   0.152   3.551   1.766
 9318TIP3    H127897   0.188   3.478   1.816
 9318TIP3    H227898   0.140   3.515   1.678
 9319TIP3   OH227899   0.476   3.130   4.888
 9319TIP3    H127900   0.461   3.047   4.843
 9319TIP3    H227901   0.478   3.195   4.818
 9320TIP3   OH227902   8.136   1.250   4.039
 9320TIP3    H127903   8.100   1.260   3.951
 9320TIP3    H227904   8.210   1.190   4.028
 9321TIP3   OH227905   4.902   3.713   4.764
 9321TIP3    H127906   4.927   3.801   4.735
 9321TIP3    H227907   4.907   3.717   4.860
 9322TIP3   OH227908   3.752   4.961   2.865
 9322TIP3    H127909   3.754   4.966   2.961
 9322TIP3    H227910   3.728   5.050   2.838
 9323TIP3   OH227911   5.411   1.460   3.608
 9323TIP3    H127912   5.504   1.458   3.628
 9323TIP3    H227913   5.401   1.396   3.537
 9324TIP3   OH227914   6.502   2.278   5.136
 9324TIP3    H127915   6.489   2.185   5.153
 9324TIP3    H227916   6.432   2.322   5.185
 9325TIP3   OH227917   7.348   3.573   2.993
 9325TIP3    H127918   7.281   3.620   2.943
 9325TIP3    H227919   7.350   3.616   3.078
 9326TIP3   OH227920   5.279   2.655   5.379
 9326TIP3    H127921   5.229   2.663   5.461
 9326TIP3    H227922   5.214   2.628   5.314
 9327TIP3   OH227923   4.469   2.840   0.903
 9327TIP3    H127924   4.443   2.855   0.994
 9327TIP3    H227925   4.507   2.752   0.903
 9328TIP3   OH227926   5.923   1.536   2.236
 9328TIP3    H127927   5.956   1.555   2.148
 9328TIP3    H227928   5.935   1.617   2.285
 9329TIP3   OH227929   1.449   6.106   0.330
 9329TIP3    H127930   1.524   6.128   0.274
 9329TIP3    H227931   1.380   6.165   0.300
 9330TIP3   OH227932   7.085   4.148   6.240
 9330TIP3    H127933   6.997   4.132   6.274
 9330TIP3    H227934   7.127   4.201   6.308
 9331TIP3   OH227935   4.273   1.517   6.001
 9331TIP3    H127936   4.266   1.422   5.998
 9331TIP3    H227937   4.313   1.536   6.085
 9332TIP3   OH227938   0.225   5.903   2.940
 9332TIP3    H127939   0.173   5.889   2.862
 9332TIP3    H227940   0.264   5.818   2.960
 9333TIP3   OH227941   1.345   1.327   6.078
 9333TIP3    H127942   1.347   1.242   6.034
 9333TIP3    H227943   1.292   1.313   6.156
 9334TIP3   OH227944   4.829   0.297   0.696
 9334TIP3    H127945   4.891   0.363   0.666
 9334TIP3    H227946   4.866   0.264   0.778
 9335TIP3   OH227947   3.690   6.225   5.845
 9335TIP3    H127948   3.633   6.285   5.796
 9335TIP3    H227949   3.662   6.138   5.816
 9336TIP3   OH227950   0.748   1.139   0.674
 9336TIP3    H127951   0.730   1.060   0.623
 9336TIP3    H227952   0.702   1.209   0.628
 9337TIP3   OH227953   4.226   4.125   2.844
 9337TIP3    H127954   4.266   4.170   2.769
 9337TIP3    H227955   4.232   4.032   2.822
 9338TIP3   OH227956   0.904   4.960   5.698
 9338TIP3    H127957   0.838   4.891   5.696
 9338TIP3    H227958   0.959   4.938   5.773
 9339TIP3   OH227959   2.985   0.151   0.008
 9339TIP3    H127960   2.933   0.230  -0.003
 9339TIP3    H227961   3.001   0.145   0.102
 9340TIP3   OH227962   1.744   4.048   0.194
 9340TIP3    H127963   1.733   4.053   0.289
 9340TIP3    H227964   1.727   4.137   0.164
 9341TIP3   OH227965   3.419   7.457   4.503
 9341TIP3    H127966   3.506   7.421   4.519
 9341TIP3    H227967   3.379   7.396   4.441
 9342TIP3   OH227968   7.515   2.956   3.618
 9342TIP3    H127969   7.551   2.885   3.564
 9342TIP3    H227970   7.553   3.036   3.582
 9343TIP3   OH227971   3.124   6.816   4.933
 9343TIP3    H127972   3.061   6.883   4.907
 9343TIP3    H227973   3.154   6.777   4.851
 9344TIP3   OH227974   0.564   5.395   0.040
 9344TIP3    H127975   0.564   5.366   0.131
 9344TIP3    H227976   0.653   5.379   0.009
 9345TIP3   OH227977   6.425   1.593   2.010
 9345TIP3    H127978   6.339   1.600   2.052
 9345TIP3    H227979   6.487   1.618   2.079
 9346TIP3   OH227980   3.025   3.618   5.285
 9346TIP3    H127981   2.977   3.576   5.215
 9346TIP3    H227982   3.069   3.547   5.331
 9347TIP3   OH227983   7.196   1.240   3.951
 9347TIP3    H127984   7.123   1.186   3.922
 9347TIP3    H227985   7.228   1.196   4.030
 9348TIP3   OH227986   0.773   6.692   3.696
 9348TIP3    H127987   0.711   6.677   3.768
 9348TIP3    H227988   0.851   6.727   3.739
 9349TIP3   OH227989   1.620   2.408   2.321
 9349TIP3    H127990   1.669   2.411   2.403
 9349TIP3    H227991   1.568   2.328   2.326
 9350TIP3   OH227992   2.391   0.119   2.680
 9350TIP3    H127993   2.424   0.162   2.759
 9350TIP3    H227994   2.378   0.028   2.706
 9351TIP3   OH227995   2.463   7.650   3.758
 9351TIP3    H127996   2.447   7.574   3.701
 9351TIP3    H227997   2.379   7.694   3.764
 9352TIP3   OH227998   1.128   3.923   6.676
 9352TIP3    H127999   1.189   3.971   6.732
 9352TIP3    H228000   1.180   3.851   6.641
 9353TIP3   OH228001   0.589   3.304   4.241
 9353TIP3    H128002   0.661   3.260   4.195
 9353TIP3    H228003   0.613   3.397   4.240
 9354TIP3   OH228004   2.336   6.263   0.026
 9354TIP3    H128005   2.424   6.288  -0.002
 9354TIP3    H228006   2.336   6.281   0.120
 9355TIP3   OH228007   6.758   7.105   3.586
 9355TIP3    H128008   6.742   7.164   3.513
 9355TIP3    H228009   6.850   7.079   3.576
 9356TIP3   OH228010   0.101   7.568   3.404
 9356TIP3    H128011   0.158   7.565   3.481
 9356TIP3    H228012   0.131   7.494   3.350
 9357TIP3   OH228013   1.649   3.013   2.002
 9357TIP3    H128014   1.719   2.972   2.052
 9357TIP3    H228015   1.684   3.023   1.914
 9358TIP3   OH228016   1.594   0.819   2.455
 9358TIP3    H128017   1.517   0.778   2.417
 9358TIP3    H228018   1.634   0.869   2.383
 9359TIP3   OH228019   0.368   5.373   5.140
 9359TIP3    H128020   0.456   5.335   5.130
 9359TIP3    H228021   0.335   5.333   5.220
 9360TIP3   OH228022   4.920   0.886   2.393
 9360TIP3    H128023   4.831   0.867   2.364
 9360TIP3    H228024   4.911   0.905   2.486
 9361TIP3   OH228025   6.673   0.900   0.267
 9361TIP3    H128026   6.722   0.822   0.244
 9361TIP3    H228027   6.690   0.913   0.361
 9362TIP3   OH228028   6.620   6.995   6.634
 9362TIP3    H128029   6.680   7.008   6.708
 9362TIP3    H228030   6.533   7.009   6.671
 9363TIP3   OH228031   3.316   6.873   6.358
 9363TIP3    H128032   3.298   6.852   6.266
 9363TIP3    H228033   3.384   6.941   6.354
 9364TIP3   OH228034   2.245   2.286   3.820
 9364TIP3    H128035   2.152   2.298   3.841
 9364TIP3    H228036   2.252   2.193   3.798
 9365TIP3   OH228037   6.897   2.588   5.356
 9365TIP3    H128038   6.896   2.500   5.394
 9365TIP3    H228039   6.829   2.635   5.405
 9366TIP3   OH228040   4.836   5.481   2.300
 9366TIP3    H128041   4.904   5.414   2.285
 9366TIP3    H228042   4.755   5.431   2.310
 9367TIP3   OH228043   6.110   3.111   1.472
 9367TIP3    H128044   6.133   3.071   1.556
 9367TIP3    H228045   6.025   3.151   1.487
 9368TIP3   OH228046   7.373   6.553   6.516
 9368TIP3    H128047   7.455   6.523   6.557
 9368TIP3    H228048   7.306   6.496   6.554
 9369TIP3   OH228049   3.332   4.875   6.367
 9369TIP3    H128050   3.240   4.899   6.372
 9369TIP3    H228051   3.379   4.946   6.411
 9370TIP3   OH228052   3.251   4.824   4.802
 9370TIP3    H128053   3.213   4.739   4.825
 9370TIP3    H228054   3.197   4.854   4.729
 9371TIP3   OH228055   5.414   3.787   2.874
 9371TIP3    H128056   5.327   3.815   2.845
 9371TIP3    H228057   5.411   3.794   2.969
 9372TIP3   OH228058   8.142   3.100   6.028
 9372TIP3    H128059   8.228   3.076   6.062
 9372TIP3    H228060   8.138   3.059   5.942
 9373TIP3   OH228061   1.344   6.520   3.810
 9373TIP3    H128062   1.266   6.556   3.769
 9373TIP3    H228063   1.311   6.453   3.870
 9374TIP3   OH228064   7.459   1.128   1.017
 9374TIP3    H128065   7.417   1.069   1.079
 9374TIP3    H228066   7.551   1.102   1.017
 9375TIP3   OH228067   6.818   5.371   3.950
 9375TIP3    H128068   6.763   5.424   3.892
 9375TIP3    H228069   6.779   5.284   3.946
 9376TIP3   OH228070   7.692   1.885   0.740
 9376TIP3    H128071   7.739   1.837   0.808
 9376TIP3    H228072   7.619   1.928   0.786
 9377TIP3   OH228073   1.925   1.671   6.514
 9377TIP3    H128074   1.859   1.708   6.573
 9377TIP3    H228075   1.986   1.743   6.498
 9378TIP3   OH228076   1.373   4.079   4.251
 9378TIP3    H128077   1.445   4.100   4.191
 9378TIP3    H228078   1.392   3.990   4.280
 9379TIP3   OH228079   6.928   4.698   1.654
 9379TIP3    H128080   6.950   4.641   1.728
 9379TIP3    H228081   6.888   4.775   1.694
 9380TIP3   OH228082   4.170   4.596   2.840
 9380TIP3    H128083   4.126   4.514   2.858
 9380TIP3    H228084   4.248   4.594   2.896
 9381TIP3   OH228085   1.069   6.058   6.684
 9381TIP3    H128086   1.047   6.129   6.744
 9381TIP3    H228087   1.036   6.087   6.599
 9382TIP3   OH228088   5.759   3.044   4.817
 9382TIP3    H128089   5.695   3.034   4.888
 9382TIP3    H228090   5.708   3.077   4.743
 9383TIP3   OH228091   7.334   2.586   6.042
 9383TIP3    H128092   7.367   2.636   6.117
 9383TIP3    H228093   7.272   2.644   5.999
 9384TIP3   OH228094   3.643   3.447   4.677
 9384TIP3    H128095   3.590   3.370   4.658
 9384TIP3    H228096   3.734   3.415   4.677
 9385TIP3   OH228097   3.726   7.134   3.541
 9385TIP3    H128098   3.789   7.122   3.469
 9385TIP3    H228099   3.778   7.121   3.620
 9386TIP3   OH228100   5.128   1.630   4.153
 9386TIP3    H128101   5.067   1.672   4.093
 9386TIP3    H228102   5.107   1.537   4.148
 9387TIP3   OH228103   8.121   3.729   3.034
 9387TIP3    H128104   8.170   3.810   3.043
 9387TIP3    H228105   8.169   3.680   2.967
 9388TIP3   OH228106   0.274   4.536   5.999
 9388TIP3    H128107   0.236   4.472   6.059
 9388TIP3    H228108   0.268   4.619   6.046
 9389TIP3   OH228109   0.126   1.353   2.304
 9389TIP3    H128110   0.051   1.373   2.247
 9389TIP3    H228111   0.125   1.423   2.370
 9390TIP3   OH228112   4.598   0.352   2.163
 9390TIP3    H128113   4.647   0.322   2.087
 9390TIP3    H228114   4.662   0.397   2.218
 9391TIP3   OH228115   2.892   1.806   4.776
 9391TIP3    H128116   2.959   1.781   4.840
 9391TIP3    H228117   2.857   1.722   4.745
 9392TIP3   OH228118   7.484   1.132   2.970
 9392TIP3    H128119   7.542   1.205   2.947
 9392TIP3    H228120   7.421   1.128   2.899
 9393TIP3   OH228121   6.230   2.996   0.533
 9393TIP3    H128122   6.281   3.002   0.614
 9393TIP3    H228123   6.153   2.945   0.556
 9394TIP3   OH228124   2.266   1.793   5.033
 9394TIP3    H128125   2.314   1.710   5.040
 9394TIP3    H228126   2.334   1.860   5.035
 9395TIP3   OH228127   7.596   5.761   5.036
 9395TIP3    H128128   7.533   5.833   5.042
 9395TIP3    H228129   7.674   5.794   5.082
 9396TIP3   OH228130   6.884   3.074   2.755
 9396TIP3    H128131   6.856   3.166   2.757
 9396TIP3    H228132   6.979   3.078   2.743
 9397TIP3   OH228133   4.648   6.650   4.038
 9397TIP3    H128134   4.727   6.596   4.036
 9397TIP3    H228135   4.678   6.736   4.069
 9398TIP3   OH228136   5.083   7.406   3.475
 9398TIP3    H128137   5.126   7.359   3.547
 9398TIP3    H228138   4.995   7.368   3.471
 9399TIP3   OH228139   5.238   4.296   5.662
 9399TIP3    H128140   5.279   4.218   5.700
 9399TIP3    H228141   5.297   4.367   5.685
 9400TIP3   OH228142   3.587   1.533   2.305
 9400TIP3    H128143   3.602   1.460   2.245
 9400TIP3    H228144   3.660   1.526   2.368
 9401TIP3   OH228145   3.311   6.107   0.907
 9401TIP3    H128146   3.244   6.055   0.952
 9401TIP3    H228147   3.390   6.054   0.911
 9402TIP3   OH228148   6.884   6.185   2.626
 9402TIP3    H128149   6.830   6.105   2.620
 9402TIP3    H228150   6.972   6.152   2.642
 9403TIP3   OH228151   3.627   4.965   3.134
 9403TIP3    H128152   3.547   4.956   3.186
 9403TIP3    H228153   3.668   5.045   3.167
 9404TIP3   OH228154   6.751   4.886   1.813
 9404TIP3    H128155   6.820   4.880   1.878
 9404TIP3    H228156   6.672   4.856   1.859
 9405TIP3   OH228157   6.409   3.100   1.468
 9405TIP3    H128158   6.483   3.042   1.486
 9405TIP3    H228159   6.349   3.084   1.541
 9406TIP3   OH228160   1.348   3.119   0.450
 9406TIP3    H128161   1.322   3.203   0.411
 9406TIP3    H228162   1.281   3.102   0.517
 9407TIP3   OH228163   1.643   1.994   4.084
 9407TIP3    H128164   1.647   2.081   4.122
 9407TIP3    H228165   1.558   1.960   4.111
 9408TIP3   OH228166   1.919   1.375   2.151
 9408TIP3    H128167   2.008   1.370   2.185
 9408TIP3    H228168   1.920   1.320   2.072
 9409TIP3   OH228169   6.374   5.737   2.648
 9409TIP3    H128170   6.348   5.739   2.740
 9409TIP3    H228171   6.446   5.800   2.642
 9410TIP3   OH228172   2.802   4.350   4.495
 9410TIP3    H128173   2.840   4.301   4.423
 9410TIP3    H228174   2.783   4.436   4.458
 9411TIP3   OH228175   4.678   1.266   5.491
 9411TIP3    H128176   4.694   1.227   5.577
 9411TIP3    H228177   4.587   1.244   5.471
 9412TIP3   OH228178   7.330   1.093   6.243
 9412TIP3    H128179   7.359   1.024   6.183
 9412TIP3    H228180   7.340   1.055   6.330
 9413TIP3   OH228181   0.509   2.486   3.057
 9413TIP3    H128182   0.492   2.578   3.036
 9413TIP3    H228183   0.508   2.483   3.152
 9414TIP3   OH228184   2.746   5.848   2.769
 9414TIP3    H128185   2.754   5.758   2.798
 9414TIP3    H228186   2.746   5.843   2.673
 9415TIP3   OH228187   7.930   6.664   1.411
 9415TIP3    H128188   7.961   6.720   1.482
 9415TIP3    H228189   7.836   6.677   1.408
 9416TIP3   OH228190   1.234   6.370   5.989
 9416TIP3    H128191   1.146   6.333   5.996
 9416TIP3    H228192   1.246   6.417   6.071
 9417TIP3   OH228193   1.014   5.886   2.889
 9417TIP3    H128194   1.001   5.843   2.805
 9417TIP3    H228195   0.954   5.961   2.887
 9418TIP3   OH228196   4.748   1.215   1.898
 9418TIP3    H128197   4.825   1.258   1.935
 9418TIP3    H228198   4.779   1.129   1.871
 9419TIP3   OH228199   1.285   3.599   1.996
 9419TIP3    H128200   1.204   3.650   2.002
 9419TIP3    H228201   1.284   3.563   1.908
 9420TIP3   OH228202   7.457   3.974   1.125
 9420TIP3    H128203   7.525   3.974   1.057
 9420TIP3    H228204   7.502   3.945   1.204
 9421TIP3   OH228205   6.141   7.365   2.351
 9421TIP3    H128206   6.064   7.393   2.303
 9421TIP3    H228207   6.142   7.421   2.429
 9422TIP3   OH228208   2.870   0.105   5.367
 9422TIP3    H128209   2.849   0.197   5.381
 9422TIP3    H228210   2.924   0.104   5.288
 9423TIP3   OH228211   3.769   3.412   3.788
 9423TIP3    H128212   3.691   3.423   3.734
 9423TIP3    H228213   3.833   3.369   3.731
 9424TIP3   OH228214   1.579   3.534   2.545
 9424TIP3    H128215   1.600   3.442   2.559
 9424TIP3    H228216   1.486   3.541   2.564
 9425TIP3   OH228217   1.084   0.187   1.466
 9425TIP3    H128218   1.072   0.268   1.516
 9425TIP3    H228219   1.179   0.176   1.462
 9426TIP3   OH228220   1.497   6.293   4.535
 9426TIP3    H128221   1.502   6.258   4.446
 9426TIP3    H228222   1.570   6.252   4.581
 9427TIP3   OH228223   0.993   3.385   2.002
 9427TIP3    H128224   0.986   3.480   1.993
 9427TIP3    H228225   0.917   3.351   1.956
 9428TIP3   OH228226   2.284   1.810   4.068
 9428TIP3    H128227   2.344   1.736   4.062
 9428TIP3    H228228   2.197   1.772   4.056
 9429TIP3   OH228229   1.904   3.288   5.816
 9429TIP3    H128230   1.942   3.205   5.844
 9429TIP3    H228231   1.886   3.276   5.722
 9430TIP3   OH228232   2.102   6.450   1.268
 9430TIP3    H128233   2.176   6.416   1.217
 9430TIP3    H228234   2.056   6.372   1.299
 9431TIP3   OH228235   0.945   0.372   1.686
 9431TIP3    H128236   0.913   0.400   1.772
 9431TIP3    H228237   0.914   0.282   1.676
 9432TIP3   OH228238   7.285   7.160   0.437
 9432TIP3    H128239   7.377   7.183   0.429
 9432TIP3    H228240   7.253   7.212   0.511
 9433TIP3   OH228241   0.238   7.199   5.265
 9433TIP3    H128242   0.148   7.188   5.234
 9433TIP3    H228243   0.234   7.177   5.358
 9434TIP3   OH228244   3.383   0.634   2.555
 9434TIP3    H128245   3.381   0.688   2.633
 9434TIP3    H228246   3.465   0.658   2.511
 9435TIP3   OH228247   6.527   7.233   2.283
 9435TIP3    H128248   6.582   7.218   2.207
 9435TIP3    H228249   6.439   7.243   2.247
 9436TIP3   OH228250   6.684   3.271   5.776
 9436TIP3    H128251   6.723   3.194   5.816
 9436TIP3    H228252   6.594   3.273   5.809
 9437TIP3   OH228253   1.072   2.502   5.937
 9437TIP3    H128254   1.047   2.533   5.851
 9437TIP3    H228255   0.996   2.523   5.993
 9438TIP3   OH228256   4.180   4.413   4.003
 9438TIP3    H128257   4.189   4.323   4.036
 9438TIP3    H228258   4.107   4.409   3.941
 9439TIP3   OH228259   2.186   3.819   3.079
 9439TIP3    H128260   2.138   3.822   2.995
 9439TIP3    H228261   2.178   3.728   3.107
 9440TIP3   OH228262   7.803   0.132   6.613
 9440TIP3    H128263   7.862   0.093   6.549
 9440TIP3    H228264   7.860   0.178   6.674
 9441TIP3   OH228265   4.146   7.318   2.621
 9441TIP3    H128266   4.163   7.412   2.625
 9441TIP3    H228267   4.202   7.286   2.550
 9442TIP3   OH228268   7.433   2.185   4.940
 9442TIP3    H128269   7.365   2.188   4.872
 9442TIP3    H228270   7.513   2.162   4.893
 9443TIP3   OH228271   5.312   0.844   4.990
 9443TIP3    H128272   5.298   0.811   5.079
 9443TIP3    H228273   5.228   0.831   4.946
 9444TIP3   OH228274   5.099   1.082   5.679
 9444TIP3    H128275   5.191   1.073   5.654
 9444TIP3    H228276   5.098   1.155   5.741
 9445TIP3   OH228277   5.038   5.246   5.716
 9445TIP3    H128278   5.131   5.245   5.692
 9445TIP3    H228279   4.993   5.274   5.636
 9446TIP3   OH228280   8.197   0.434   6.140
 9446TIP3    H128281   8.117   0.436   6.087
 9446TIP3    H228282   8.194   0.517   6.189
 9447TIP3   OH228283   0.638   3.179   4.482
 9447TIP3    H128284   0.629   3.222   4.397
 9447TIP3    H228285   0.717   3.127   4.476
 9448TIP3   OH228286   6.202   2.121   5.698
 9448TIP3    H128287   6.121   2.160   5.663
 9448TIP3    H228288   6.197   2.138   5.792
 9449TIP3   OH228289   2.062   7.738   6.124
 9449TIP3    H128290   1.995   7.702   6.066
 9449TIP3    H228291   2.144   7.731   6.075
 9450TIP3   OH228292   0.875   3.506   4.988
 9450TIP3    H128293   0.835   3.449   5.054
 9450TIP3    H228294   0.815   3.580   4.980
 9451TIP3   OH228295   2.238   4.145   1.559
 9451TIP3    H128296   2.175   4.073   1.557
 9451TIP3    H228297   2.288   4.130   1.640
 9452TIP3   OH228298   1.022   5.113   0.993
 9452TIP3    H128299   1.067   5.078   0.917
 9452TIP3    H228300   0.930   5.087   0.981
 9453TIP3   OH228301   1.838   2.929   1.616
 9453TIP3    H128302   1.752   2.934   1.659
 9453TIP3    H228303   1.895   2.985   1.669
 9454TIP3   OH228304   3.313   7.743   5.246
 9454TIP3    H128305   3.328   7.817   5.187
 9454TIP3    H228306   3.274   7.676   5.190
 9455TIP3   OH228307   3.098   2.119   0.235
 9455TIP3    H128308   3.010   2.141   0.205
 9455TIP3    H228309   3.105   2.159   0.321
 9456TIP3   OH228310   7.318   3.460   4.758
 9456TIP3    H128311   7.291   3.368   4.757
 9456TIP3    H228312   7.339   3.477   4.850
 9457TIP3   OH228313   2.069   4.468   0.963
 9457TIP3    H128314   2.146   4.425   0.926
 9457TIP3    H228315   2.063   4.432   1.052
 9458TIP3   OH228316   3.039   5.874   4.424
 9458TIP3    H128317   3.095   5.847   4.351
 9458TIP3    H228318   2.966   5.921   4.381
 9459TIP3   OH228319   6.165   1.364   5.258
 9459TIP3    H128320   6.202   1.451   5.276
 9459TIP3    H228321   6.071   1.380   5.245
 9460TIP3   OH228322   6.114   3.680   1.864
 9460TIP3    H128323   6.140   3.632   1.785
 9460TIP3    H228324   6.080   3.613   1.923
 9461TIP3   OH228325   0.437   4.542   1.676
 9461TIP3    H128326   0.525   4.553   1.712
 9461TIP3    H228327   0.429   4.449   1.658
 9462TIP3   OH228328   2.265   1.763   3.707
 9462TIP3    H128329   2.176   1.731   3.722
 9462TIP3    H228330   2.255   1.832   3.641
 9463TIP3   OH228331   5.951   3.370   4.854
 9463TIP3    H128332   6.046   3.367   4.846
 9463TIP3    H228333   5.925   3.278   4.863
 9464TIP3   OH228334   7.330   4.960   1.924
 9464TIP3    H128335   7.241   4.981   1.954
 9464TIP3    H228336   7.342   5.013   1.845
 9465TIP3   OH228337   3.438   7.121   1.869
 9465TIP3    H128338   3.345   7.101   1.870
 9465TIP3    H228339   3.454   7.160   1.783
 9466TIP3   OH228340   2.545   1.799   6.483
 9466TIP3    H128341   2.483   1.755   6.425
 9466TIP3    H228342   2.490   1.841   6.549
 9467TIP3   OH228343   7.511   6.173   0.504
 9467TIP3    H128344   7.436   6.206   0.454
 9467TIP3    H228345   7.487   6.188   0.595
 9468TIP3   OH228346   7.270   7.603   6.370
 9468TIP3    H128347   7.318   7.534   6.324
 9468TIP3    H228348   7.275   7.578   6.462
 9469TIP3   OH228349   0.900   0.761   4.180
 9469TIP3    H128350   0.915   0.793   4.091
 9469TIP3    H228351   0.899   0.839   4.234
 9470TIP3   OH228352   1.741   1.029   4.644
 9470TIP3    H128353   1.695   0.950   4.614
 9470TIP3    H228354   1.829   1.022   4.606
 9471TIP3   OH228355   0.384   3.730   5.662
 9471TIP3    H128356   0.370   3.671   5.735
 9471TIP3    H228357   0.478   3.727   5.646
 9472TIP3   OH228358   1.496   6.054   4.333
 9472TIP3    H128359   1.465   5.975   4.288
 9472TIP3    H228360   1.591   6.046   4.332
 9473TIP3   OH228361   1.832   7.322   5.768
 9473TIP3    H128362   1.870   7.240   5.736
 9473TIP3    H228363   1.738   7.308   5.766
 9474TIP3   OH228364   3.051   3.651   5.966
 9474TIP3    H128365   2.961   3.625   5.985
 9474TIP3    H228366   3.045   3.744   5.941
 9475TIP3   OH228367   6.760   3.965   1.884
 9475TIP3    H128368   6.764   3.886   1.832
 9475TIP3    H228369   6.686   3.951   1.943
 9476TIP3   OH228370   4.251   3.679   0.162
 9476TIP3    H128371   4.178   3.656   0.220
 9476TIP3    H228372   4.291   3.595   0.139
 9477TIP3   OH228373   0.104   0.766   4.508
 9477TIP3    H128374   0.196   0.751   4.530
 9477TIP3    H228375   0.087   0.706   4.436
 9478TIP3   OH228376   7.553   5.706   4.382
 9478TIP3    H128377   7.641   5.698   4.418
 9478TIP3    H228378   7.566   5.700   4.287
 9479TIP3   OH228379   7.732   1.907   1.308
 9479TIP3    H128380   7.813   1.885   1.353
 9479TIP3    H228381   7.667   1.844   1.341
 9480TIP3   OH228382   7.928   4.599   2.588
 9480TIP3    H128383   7.843   4.640   2.569
 9480TIP3    H228384   7.964   4.578   2.501
 9481TIP3   OH228385   0.695   4.465   2.300
 9481TIP3    H128386   0.715   4.372   2.312
 9481TIP3    H228387   0.625   4.465   2.234
 9482TIP3   OH228388   5.916   3.056   2.607
 9482TIP3    H128389   5.870   2.998   2.668
 9482TIP3    H228390   6.009   3.038   2.622
 9483TIP3   OH228391   5.478   6.267   5.828
 9483TIP3    H128392   5.553   6.242   5.882
 9483TIP3    H228393   5.509   6.257   5.738
 9484TIP3   OH228394   1.863   6.746   0.998
 9484TIP3    H128395   1.864   6.729   0.904
 9484TIP3    H228396   1.852   6.660   1.038
 9485TIP3   OH228397   7.164   7.712   2.178
 9485TIP3    H128398   7.235   7.712   2.243
 9485TIP3    H228399   7.106   7.783   2.206
 9486TIP3   OH228400   6.296   4.026   1.653
 9486TIP3    H128401   6.206   4.010   1.624
 9486TIP3    H228402   6.288   4.043   1.747
 9487TIP3   OH228403   2.088   1.278   2.402
 9487TIP3    H128404   2.083   1.191   2.439
 9487TIP3    H228405   2.014   1.325   2.441
 9488TIP3   OH228406   2.184   4.389   3.073
 9488TIP3    H128407   2.186   4.477   3.111
 9488TIP3    H228408   2.133   4.398   2.993
 9489TIP3   OH228409   4.600   7.503   4.963
 9489TIP3    H128410   4.568   7.587   4.996
 9489TIP3    H228411   4.614   7.517   4.869
 9490TIP3   OH228412   0.454   6.987   4.463
 9490TIP3    H128413   0.359   6.975   4.458
 9490TIP3    H228414   0.468   7.028   4.548
 9491TIP3   OH228415   2.956   5.159   3.517
 9491TIP3    H128416   2.905   5.118   3.586
 9491TIP3    H228417   2.911   5.242   3.499
 9492TIP3   OH228418   7.181   5.262   1.203
 9492TIP3    H128419   7.242   5.202   1.161
 9492TIP3    H228420   7.112   5.276   1.139
 9493TIP3   OH228421   4.886   5.997   6.156
 9493TIP3    H128422   4.938   6.000   6.236
 9493TIP3    H228423   4.922   6.067   6.101
 9494TIP3   OH228424   5.221   6.208   5.746
 9494TIP3    H128425   5.304   6.230   5.789
 9494TIP3    H228426   5.240   6.129   5.697
 9495TIP3   OH228427   7.500   6.793   3.353
 9495TIP3    H128428   7.525   6.884   3.367
 9495TIP3    H228429   7.448   6.795   3.272
 9496TIP3   OH228430   0.288   1.800   4.728
 9496TIP3    H128431   0.366   1.765   4.770
 9496TIP3    H228432   0.221   1.734   4.743
 9497TIP3   OH228433   3.540   6.816   2.895
 9497TIP3    H128434   3.546   6.889   2.956
 9497TIP3    H228435   3.611   6.757   2.920
 9498TIP3   OH228436   8.061   2.604   4.175
 9498TIP3    H128437   7.984   2.647   4.212
 9498TIP3    H228438   8.084   2.657   4.099
 9499TIP3   OH228439   0.830   4.254   2.958
 9499TIP3    H128440   0.920   4.230   2.935
 9499TIP3    H228441   0.789   4.172   2.985
 9500TIP3   OH228442   6.968   3.677   4.292
 9500TIP3    H128443   6.944   3.655   4.382
 9500TIP3    H228444   7.007   3.596   4.258
 9501TIP3   OH228445   3.954   7.145   3.348
 9501TIP3    H128446   3.988   7.228   3.315
 9501TIP3    H228447   4.010   7.123   3.422
 9502TIP3   OH228448   5.449   0.627   2.658
 9502TIP3    H128449   5.426   0.534   2.659
 9502TIP3    H228450   5.540   0.630   2.688
 9503TIP3   OH228451   0.740   1.733   0.390
 9503TIP3    H128452   0.700   1.651   0.359
 9503TIP3    H228453   0.691   1.802   0.346
 9504TIP3   OH228454   7.932   2.872   6.359
 9504TIP3    H128455   7.972   2.870   6.272
 9504TIP3    H228456   7.916   2.965   6.377
 9505TIP3   OH228457   2.544   3.430   2.147
 9505TIP3    H128458   2.559   3.336   2.140
 9505TIP3    H228459   2.584   3.467   2.068
 9506TIP3   OH228460   5.831   2.865   6.294
 9506TIP3    H128461   5.748   2.863   6.248
 9506TIP3    H228462   5.843   2.776   6.328
 9507TIP3   OH228463   2.909   4.312   0.156
 9507TIP3    H128464   3.000   4.329   0.132
 9507TIP3    H228465   2.903   4.217   0.165
 9508TIP3   OH228466   5.289   6.019   6.601
 9508TIP3    H128467   5.245   5.965   6.668
 9508TIP3    H228468   5.304   5.960   6.528
 9509TIP3   OH228469   7.008   0.375   4.561
 9509TIP3    H128470   7.093   0.384   4.604
 9509TIP3    H228471   6.946   0.362   4.633
 9510TIP3   OH228472   7.015   2.360   6.090
 9510TIP3    H128473   6.928   2.322   6.075
 9510TIP3    H228474   7.023   2.366   6.186
 9511TIP3   OH228475   0.421   7.432   1.498
 9511TIP3    H128476   0.424   7.523   1.468
 9511TIP3    H228477   0.484   7.387   1.442
 9512TIP3   OH228478   2.126   6.091   4.149
 9512TIP3    H128479   2.114   6.012   4.200
 9512TIP3    H228480   2.103   6.065   4.059
 9513TIP3   OH228481   6.627   3.625   0.020
 9513TIP3    H128482   6.720   3.603   0.026
 9513TIP3    H228483   6.625   3.720   0.032
 9514TIP3   OH228484   4.888   2.480   0.351
 9514TIP3    H128485   4.825   2.543   0.316
 9514TIP3    H228486   4.928   2.441   0.273
 9515TIP3   OH228487   2.195   0.379   0.262
 9515TIP3    H128488   2.102   0.366   0.245
 9515TIP3    H228489   2.234   0.394   0.176
 9516TIP3   OH228490   0.368   4.338   3.858
 9516TIP3    H128491   0.293   4.291   3.894
 9516TIP3    H228492   0.331   4.416   3.816
 9517TIP3   OH228493   5.576   0.209   6.741
 9517TIP3    H128494   5.558   0.172   6.828
 9517TIP3    H228495   5.608   0.134   6.690
 9518TIP3   OH228496   0.772   2.289   2.743
 9518TIP3    H128497   0.801   2.376   2.768
 9518TIP3    H228498   0.814   2.273   2.658
 9519TIP3   OH228499   2.831   6.713   5.639
 9519TIP3    H128500   2.788   6.656   5.576
 9519TIP3    H228501   2.762   6.740   5.699
 9520TIP3   OH228502   2.962   4.715   0.397
 9520TIP3    H128503   2.878   4.760   0.409
 9520TIP3    H228504   2.980   4.676   0.483
 9521TIP3   OH228505   7.634   3.529   2.956
 9521TIP3    H128506   7.557   3.571   2.995
 9521TIP3    H228507   7.706   3.589   2.975
 9522TIP3   OH228508   0.259   5.189   5.363
 9522TIP3    H128509   0.201   5.125   5.323
 9522TIP3    H228510   0.207   5.228   5.433
 9523TIP3   OH228511   3.329   3.504   0.638
 9523TIP3    H128512   3.380   3.443   0.584
 9523TIP3    H228513   3.384   3.582   0.644
 9524TIP3   OH228514   7.238   2.160   0.428
 9524TIP3    H128515   7.160   2.164   0.483
 9524TIP3    H228516   7.273   2.249   0.429
 9525TIP3   OH228517   7.218   4.394   4.172
 9525TIP3    H128518   7.202   4.328   4.239
 9525TIP3    H228519   7.134   4.437   4.159
 9526TIP3   OH228520   3.728   3.623   3.142
 9526TIP3    H128521   3.669   3.604   3.069
 9526TIP3    H228522   3.816   3.617   3.105
 9527TIP3   OH228523   3.453   3.989   6.559
 9527TIP3    H128524   3.469   3.896   6.543
 9527TIP3    H228525   3.363   3.993   6.591
 9528TIP3   OH228526   4.247   6.156   0.319
 9528TIP3    H128527   4.284   6.069   0.335
 9528TIP3    H228528   4.296   6.189   0.244
 9529TIP3   OH228529   2.178   2.393   5.601
 9529TIP3    H128530   2.180   2.428   5.512
 9529TIP3    H228531   2.242   2.445   5.649
 9530TIP3   OH228532   0.961   1.302   6.602
 9530TIP3    H128533   0.894   1.243   6.637
 9530TIP3    H228534   0.935   1.317   6.511
 9531TIP3   OH228535   0.722   6.555   4.818
 9531TIP3    H128536   0.717   6.570   4.913
 9531TIP3    H228537   0.690   6.465   4.807
 9532TIP3   OH228538   7.290   0.628   4.771
 9532TIP3    H128539   7.361   0.609   4.832
 9532TIP3    H228540   7.334   0.660   4.692
 9533TIP3   OH228541   4.698   4.768   1.882
 9533TIP3    H128542   4.766   4.815   1.833
 9533TIP3    H228543   4.725   4.777   1.974
 9534TIP3   OH228544   2.936   3.046   2.496
 9534TIP3    H128545   3.021   3.006   2.515
 9534TIP3    H228546   2.949   3.094   2.414
 9535TIP3   OH228547   8.201   6.345   0.022
 9535TIP3    H128548   8.126   6.287   0.012
 9535TIP3    H228549   8.242   6.317   0.104
 9536TIP3   OH228550   1.153   2.755   2.815
 9536TIP3    H128551   1.189   2.815   2.750
 9536TIP3    H228552   1.208   2.769   2.892
 9537TIP3   OH228553   1.377   0.557   1.581
 9537TIP3    H128554   1.320   0.555   1.658
 9537TIP3    H228555   1.392   0.650   1.565
 9538TIP3   OH228556   2.575   3.183   6.657
 9538TIP3    H128557   2.552   3.276   6.655
 9538TIP3    H228558   2.612   3.165   6.571
 9539TIP3   OH228559   5.573   2.836   1.399
 9539TIP3    H128560   5.618   2.752   1.404
 9539TIP3    H228561   5.632   2.892   1.350
 9540TIP3   OH228562   8.053   5.395   1.470
 9540TIP3    H128563   8.133   5.368   1.515
 9540TIP3    H228564   7.982   5.365   1.526
 9541TIP3   OH228565   6.306   2.144   4.463
 9541TIP3    H128566   6.278   2.068   4.514
 9541TIP3    H228567   6.391   2.120   4.427
 9542TIP3   OH228568   6.546   6.232   2.404
 9542TIP3    H128569   6.608   6.177   2.357
 9542TIP3    H228570   6.587   6.248   2.489
 9543TIP3   OH228571   1.607   0.515   4.788
 9543TIP3    H128572   1.527   0.498   4.739
 9543TIP3    H228573   1.596   0.604   4.822
 9544TIP3   OH228574   3.361   6.769   1.376
 9544TIP3    H128575   3.412   6.690   1.357
 9544TIP3    H228576   3.394   6.798   1.461
 9545TIP3   OH228577   5.186   0.616   0.204
 9545TIP3    H128578   5.120   0.684   0.191
 9545TIP3    H228579   5.254   0.637   0.141
 9546TIP3   OH228580   5.199   5.522   0.058
 9546TIP3    H128581   5.172   5.505  -0.033
 9546TIP3    H228582   5.291   5.496   0.061
 9547TIP3   OH228583   4.154   0.211   2.007
 9547TIP3    H128584   4.165   0.275   1.936
 9547TIP3    H228585   4.114   0.262   2.078
 9548TIP3   OH228586   0.208   6.316   3.869
 9548TIP3    H128587   0.148   6.352   3.935
 9548TIP3    H228588   0.158   6.318   3.788
 9549TIP3   OH228589   0.526   0.397   3.606
 9549TIP3    H128590   0.485   0.484   3.610
 9549TIP3    H228591   0.617   0.415   3.584
 9550TIP3   OH228592   0.876   3.093   5.305
 9550TIP3    H128593   0.869   2.998   5.296
 9550TIP3    H228594   0.855   3.110   5.397
 9551TIP3   OH228595   6.574   7.585   5.185
 9551TIP3    H128596   6.549   7.504   5.227
 9551TIP3    H228597   6.542   7.577   5.095
 9552TIP3   OH228598   6.823   3.427  -0.002
 9552TIP3    H128599   6.770   3.358  -0.042
 9552TIP3    H228600   6.888   3.381   0.051
 9553TIP3   OH228601   5.780   0.803   4.847
 9553TIP3    H128602   5.707   0.862   4.825
 9553TIP3    H228603   5.809   0.768   4.762
 9554TIP3   OH228604   4.420   3.343   4.560
 9554TIP3    H128605   4.402   3.317   4.469
 9554TIP3    H228606   4.343   3.394   4.585
 9555TIP3   OH228607   0.270   0.247   3.315
 9555TIP3    H128608   0.318   0.297   3.381
 9555TIP3    H228609   0.197   0.304   3.291
 9556TIP3   OH228610   2.143   5.717   0.148
 9556TIP3    H128611   2.152   5.799   0.098
 9556TIP3    H228612   2.232   5.696   0.175
 9557TIP3   OH228613   3.401   4.976   3.302
 9557TIP3    H128614   3.423   5.069   3.312
 9557TIP3    H228615   3.312   4.975   3.266
 9558TIP3   OH228616   3.121   3.495   0.333
 9558TIP3    H128617   3.138   3.588   0.318
 9558TIP3    H228618   3.107   3.489   0.428
 9559TIP3   OH228619   4.158   4.680   1.003
 9559TIP3    H128620   4.182   4.758   0.953
 9559TIP3    H228621   4.078   4.649   0.961
 9560TIP3   OH228622   0.107   7.778   1.647
 9560TIP3    H128623   0.173   7.814   1.707
 9560TIP3    H228624   0.078   7.852   1.595
 9561TIP3   OH228625   7.160   7.200   1.952
 9561TIP3    H128626   7.130   7.221   2.041
 9561TIP3    H228627   7.119   7.267   1.897
 9562TIP3   OH228628   1.862   3.799   0.185
 9562TIP3    H128629   1.801   3.728   0.208
 9562TIP3    H228630   1.810   3.879   0.195
 9563TIP3   OH228631   5.334   0.901   6.202
 9563TIP3    H128632   5.404   0.860   6.151
 9563TIP3    H228633   5.284   0.952   6.139
 9564TIP3   OH228634   7.686   6.890   3.783
 9564TIP3    H128635   7.673   6.980   3.813
 9564TIP3    H228636   7.735   6.848   3.854
 9565TIP3   OH228637   1.315   2.788   3.042
 9565TIP3    H128638   1.293   2.880   3.031
 9565TIP3    H228639   1.403   2.788   3.078
 9566TIP3   OH228640   6.714   5.219   2.483
 9566TIP3    H128641   6.701   5.218   2.388
 9566TIP3    H228642   6.702   5.128   2.510
 9567TIP3   OH228643   4.272   3.741   2.124
 9567TIP3    H128644   4.189   3.759   2.081
 9567TIP3    H228645   4.295   3.823   2.168
 9568TIP3   OH228646   3.169   0.813   4.524
 9568TIP3    H128647   3.074   0.806   4.529
 9568TIP3    H228648   3.188   0.813   4.430
 9569TIP3   OH228649   3.865   6.905   0.887
 9569TIP3    H128650   3.788   6.949   0.849
 9569TIP3    H228651   3.849   6.812   0.873
 9570TIP3   OH228652   0.928   0.092   4.685
 9570TIP3    H128653   0.875   0.131   4.615
 9570TIP3    H228654   1.013   0.077   4.644
 9571TIP3   OH228655   1.272   6.459   0.604
 9571TIP3    H128656   1.231   6.477   0.689
 9571TIP3    H228657   1.366   6.463   0.622
 9572TIP3   OH228658   2.746   3.467   3.503
 9572TIP3    H128659   2.719   3.448   3.593
 9572TIP3    H228660   2.694   3.544   3.478
 9573TIP3   OH228661   6.018   2.757   2.747
 9573TIP3    H128662   6.075   2.833   2.737
 9573TIP3    H228663   5.969   2.775   2.828
 9574TIP3   OH228664   0.251   0.197   0.525
 9574TIP3    H128665   0.323   0.163   0.472
 9574TIP3    H228666   0.291   0.265   0.580
 9575TIP3   OH228667   1.028   7.646   1.306
 9575TIP3    H128668   1.092   7.602   1.250
 9575TIP3    H228669   0.960   7.676   1.245
 9576TIP3   OH228670   2.457   7.409   2.460
 9576TIP3    H128671   2.516   7.381   2.530
 9576TIP3    H228672   2.373   7.423   2.504
 9577TIP3   OH228673   7.021   0.570   0.585
 9577TIP3    H128674   7.002   0.659   0.614
 9577TIP3    H228675   6.974   0.562   0.502
 9578TIP3   OH228676   7.758   1.093   1.459
 9578TIP3    H128677   7.666   1.073   1.443
 9578TIP3    H228678   7.768   1.185   1.436
 9579TIP3   OH228679   2.642   7.741   0.489
 9579TIP3    H128680   2.571   7.680   0.511
 9579TIP3    H228681   2.656   7.792   0.569
 9580TIP3   OH228682   4.762   4.561   3.395
 9580TIP3    H128683   4.710   4.642   3.394
 9580TIP3    H228684   4.697   4.491   3.401
 9581TIP3   OH228685   6.468   4.798   0.524
 9581TIP3    H128686   6.397   4.822   0.465
 9581TIP3    H228687   6.435   4.818   0.611
 9582TIP3   OH228688   1.816   5.312   2.609
 9582TIP3    H128689   1.844   5.326   2.700
 9582TIP3    H228690   1.821   5.398   2.568
 9583TIP3   OH228691   6.177   3.436   0.663
 9583TIP3    H128692   6.106   3.386   0.622
 9583TIP3    H228693   6.249   3.431   0.599
 9584TIP3   OH228694   3.855   4.245   6.305
 9584TIP3    H128695   3.876   4.199   6.387
 9584TIP3    H228696   3.938   4.251   6.259
 9585TIP3   OH228697   5.073   6.663   2.845
 9585TIP3    H128698   4.995   6.676   2.898
 9585TIP3    H228699   5.042   6.619   2.766
 9586TIP3   OH228700   2.506   1.239   1.583
 9586TIP3    H128701   2.504   1.333   1.563
 9586TIP3    H228702   2.505   1.235   1.679
 9587TIP3   OH228703   7.279   7.568   4.654
 9587TIP3    H128704   7.233   7.648   4.682
 9587TIP3    H228705   7.231   7.497   4.697
 9588TIP3   OH228706   0.398   6.629   5.473
 9588TIP3    H128707   0.321   6.587   5.437
 9588TIP3    H228708   0.471   6.593   5.423
 9589TIP3   OH228709   2.648   3.772   5.344
 9589TIP3    H128710   2.620   3.862   5.357
 9589TIP3    H228711   2.736   3.769   5.382
 9590TIP3   OH228712   0.541   2.410   6.072
 9590TIP3    H128713   0.584   2.420   5.987
 9590TIP3    H228714   0.612   2.391   6.133
 9591TIP3   OH228715   0.334   5.225   3.783
 9591TIP3    H128716   0.313   5.153   3.724
 9591TIP3    H228717   0.290   5.203   3.865
 9592TIP3   OH228718   6.238   5.280   6.258
 9592TIP3    H128719   6.164   5.297   6.317
 9592TIP3    H228720   6.315   5.283   6.315
 9593TIP3   OH228721   2.606   6.260   4.299
 9593TIP3    H128722   2.592   6.301   4.384
 9593TIP3    H228723   2.522   6.272   4.252
 9594TIP3   OH228724   3.857   1.501   5.669
 9594TIP3    H128725   3.764   1.482   5.655
 9594TIP3    H228726   3.858   1.553   5.750
 9595TIP3   OH228727   7.196   5.560   1.121
 9595TIP3    H128728   7.172   5.514   1.202
 9595TIP3    H228729   7.276   5.517   1.092
 9596TIP3   OH228730   5.986   6.618   1.351
 9596TIP3    H128731   5.900   6.629   1.312
 9596TIP3    H228732   5.974   6.635   1.444
 9597TIP3   OH228733   0.587   1.090   5.641
 9597TIP3    H128734   0.600   1.118   5.732
 9597TIP3    H228735   0.652   1.139   5.591
 9598TIP3   OH228736   0.744   7.258   3.865
 9598TIP3    H128737   0.727   7.351   3.881
 9598TIP3    H228738   0.837   7.248   3.885
 9599TIP3   OH228739   2.111   4.104   1.870
 9599TIP3    H128740   2.059   4.181   1.852
 9599TIP3    H228741   2.048   4.038   1.898
 9600TIP3   OH228742   6.948   1.219   4.187
 9600TIP3    H128743   6.915   1.292   4.240
 9600TIP3    H228744   6.900   1.143   4.217
 9601TIP3   OH228745   2.547   1.523   3.423
 9601TIP3    H128746   2.640   1.533   3.404
 9601TIP3    H228747   2.505   1.595   3.376
 9602TIP3   OH228748   0.814   1.570   1.073
 9602TIP3    H128749   0.807   1.545   0.981
 9602TIP3    H228750   0.732   1.540   1.113
 9603TIP3   OH228751   8.143   7.500   2.390
 9603TIP3    H128752   8.050   7.487   2.369
 9603TIP3    H228753   8.182   7.413   2.380
 9604TIP3   OH228754   1.646   0.512   6.370
 9604TIP3    H128755   1.562   0.542   6.407
 9604TIP3    H228756   1.624   0.485   6.280
 9605TIP3   OH228757   4.251   5.055   6.038
 9605TIP3    H128758   4.232   5.059   6.132
 9605TIP3    H228759   4.177   5.099   5.996
 9606TIP3   OH228760   0.208   3.296   1.298
 9606TIP3    H128761   0.259   3.278   1.219
 9606TIP3    H228762   0.248   3.240   1.365
 9607TIP3   OH228763   1.458   4.194   2.856
 9607TIP3    H128764   1.484   4.106   2.883
 9607TIP3    H228765   1.457   4.191   2.761
 9608TIP3   OH228766   0.096   0.552   4.320
 9608TIP3    H128767   0.100   0.462   4.352
 9608TIP3    H228768   0.004   0.566   4.302
 9609TIP3   OH228769   4.509   2.227   3.526
 9609TIP3    H128770   4.533   2.196   3.439
 9609TIP3    H228771   4.569   2.299   3.544
 9610TIP3   OH228772   6.144   1.728   4.890
 9610TIP3    H128773   6.136   1.817   4.855
 9610TIP3    H228774   6.135   1.739   4.985
 9611TIP3   OH228775   6.339   7.797   0.062
 9611TIP3    H128776   6.385   7.744   0.127
 9611TIP3    H228777   6.338   7.742  -0.017
 9612TIP3   OH228778   4.706   0.425   3.450
 9612TIP3    H128779   4.621   0.421   3.493
 9612TIP3    H228780   4.769   0.426   3.522
 9613TIP3   OH228781   0.021   1.345   0.543
 9613TIP3    H128782  -0.061   1.392   0.560
 9613TIP3    H228783   0.089   1.407   0.569
 9614TIP3   OH228784   4.498   4.365   5.956
 9614TIP3    H128785   4.477   4.280   5.917
 9614TIP3    H228786   4.417   4.415   5.948
 9615TIP3   OH228787   6.880   6.860   2.834
 9615TIP3    H128788   6.933   6.815   2.900
 9615TIP3    H228789   6.917   6.833   2.750
 9616TIP3   OH228790   0.942   7.419   6.317
 9616TIP3    H128791   0.915   7.368   6.393
 9616TIP3    H228792   0.991   7.493   6.353
 9617TIP3   OH228793   3.385   7.552   3.015
 9617TIP3    H128794   3.374   7.638   3.056
 9617TIP3    H228795   3.459   7.513   3.060
 9618TIP3   OH228796   7.433   4.232   2.822
 9618TIP3    H128797   7.348   4.228   2.866
 9618TIP3    H228798   7.473   4.146   2.839
 9619TIP3   OH228799   4.287   6.769   0.059
 9619TIP3    H128800   4.331   6.840   0.012
 9619TIP3    H228801   4.346   6.748   0.131
 9620TIP3   OH228802   6.279   3.546   3.503
 9620TIP3    H128803   6.352   3.489   3.526
 9620TIP3    H228804   6.319   3.625   3.468
 9621TIP3   OH228805   3.800   1.906   1.990
 9621TIP3    H128806   3.803   1.999   2.013
 9621TIP3    H228807   3.737   1.868   2.052
 9622TIP3   OH228808   4.864   5.334   1.875
 9622TIP3    H128809   4.912   5.274   1.817
 9622TIP3    H228810   4.775   5.299   1.877
 9623TIP3   OH228811   0.731   5.031   5.016
 9623TIP3    H128812   0.807   4.973   5.027
 9623TIP3    H228813   0.676   4.986   4.952
 9624TIP3   OH228814   2.899   3.615   4.409
 9624TIP3    H128815   2.833   3.681   4.432
 9624TIP3    H228816   2.926   3.578   4.492
 9625TIP3   OH228817   2.010   5.256   4.623
 9625TIP3    H128818   2.093   5.235   4.666
 9625TIP3    H228819   1.958   5.300   4.690
 9626TIP3   OH228820   6.479   3.623   0.853
 9626TIP3    H128821   6.475   3.529   0.835
 9626TIP3    H228822   6.491   3.629   0.948
 9627TIP3   OH228823   6.779   0.511   3.373
 9627TIP3    H128824   6.833   0.466   3.438
 9627TIP3    H228825   6.696   0.526   3.417
 9628TIP3   OH228826   1.785   4.336   6.493
 9628TIP3    H128827   1.696   4.354   6.522
 9628TIP3    H228828   1.817   4.269   6.554
 9629TIP3   OH228829   7.203   7.764   0.358
 9629TIP3    H128830   7.251   7.805   0.430
 9629TIP3    H228831   7.258   7.779   0.281
 9630TIP3   OH228832   1.503   7.319   2.968
 9630TIP3    H128833   1.552   7.244   2.935
 9630TIP3    H228834   1.525   7.324   3.061
 9631TIP3   OH228835   0.141   5.145   1.406
 9631TIP3    H128836   0.207   5.162   1.473
 9631TIP3    H228837   0.106   5.231   1.384
 9632TIP3   OH228838   5.094   7.136   2.764
 9632TIP3    H128839   5.120   7.228   2.761
 9632TIP3    H228840   5.077   7.113   2.672
 9633TIP3   OH228841   1.283   4.736   2.505
 9633TIP3    H128842   1.299   4.819   2.550
 9633TIP3    H228843   1.320   4.748   2.418
 9634TIP3   OH228844   4.033   3.728   6.344
 9634TIP3    H128845   4.097   3.799   6.337
 9634TIP3    H228846   4.086   3.648   6.342
 9635TIP3   OH228847   2.886   0.559   4.382
 9635TIP3    H128848   2.938   0.637   4.402
 9635TIP3    H228849   2.830   0.586   4.309
 9636TIP3   OH228850   0.933   3.782   3.797
 9636TIP3    H128851   1.007   3.756   3.743
 9636TIP3    H228852   0.949   3.875   3.816
 9637TIP3   OH228853   3.906   2.312   1.314
 9637TIP3    H128854   3.850   2.276   1.383
 9637TIP3    H228855   3.889   2.407   1.316
 9638TIP3   OH228856   5.104   0.171   0.868
 9638TIP3    H128857   5.111   0.076   0.873
 9638TIP3    H228858   5.094   0.200   0.958
 9639TIP3   OH228859   4.004   3.995   5.543
 9639TIP3    H128860   3.911   3.973   5.550
 9639TIP3    H228861   4.006   4.087   5.518
 9640TIP3   OH228862   6.286   4.505   0.704
 9640TIP3    H128863   6.278   4.575   0.768
 9640TIP3    H228864   6.239   4.538   0.626
 9641TIP3   OH228865   2.661   6.219   5.712
 9641TIP3    H128866   2.741   6.244   5.665
 9641TIP3    H228867   2.683   6.232   5.804
 9642TIP3   OH228868   6.368   7.247   0.384
 9642TIP3    H128869   6.396   7.336   0.406
 9642TIP3    H228870   6.371   7.245   0.288
 9643TIP3   OH228871   6.683   3.679   3.386
 9643TIP3    H128872   6.744   3.708   3.454
 9643TIP3    H228873   6.683   3.750   3.322
 9644TIP3   OH228874   0.708   5.742   2.538
 9644TIP3    H128875   0.620   5.765   2.568
 9644TIP3    H228876   0.719   5.791   2.457
 9645TIP3   OH228877   1.427   2.486   0.079
 9645TIP3    H128878   1.470   2.571   0.080
 9645TIP3    H228879   1.335   2.505   0.098
 9646TIP3   OH228880   2.560   7.212   5.234
 9646TIP3    H128881   2.582   7.129   5.191
 9646TIP3    H228882   2.617   7.276   5.194
 9647TIP3   OH228883   8.224   4.001   0.667
 9647TIP3    H128884   8.172   3.983   0.589
 9647TIP3    H228885   8.295   4.056   0.636
 9648TIP3   OH228886   4.254   1.094   5.140
 9648TIP3    H128887   4.304   1.172   5.166
 9648TIP3    H228888   4.174   1.098   5.192
 9649TIP3   OH228889   8.140   2.097   4.412
 9649TIP3    H128890   8.088   2.135   4.342
 9649TIP3    H228891   8.228   2.089   4.375
 9650TIP3   OH228892   0.921   1.860   2.630
 9650TIP3    H128893   0.906   1.771   2.662
 9650TIP3    H228894   0.971   1.849   2.549
 9651TIP3   OH228895   5.461   7.264   6.239
 9651TIP3    H128896   5.398   7.205   6.199
 9651TIP3    H228897   5.544   7.243   6.198
 9652TIP3   OH228898   0.931   2.282   4.061
 9652TIP3    H128899   1.004   2.304   4.005
 9652TIP3    H228900   0.952   2.195   4.095
 9653TIP3   OH228901   2.166   2.183   0.587
 9653TIP3    H128902   2.090   2.135   0.553
 9653TIP3    H228903   2.135   2.224   0.667
 9654TIP3   OH228904   7.979   3.766   3.784
 9654TIP3    H128905   7.961   3.789   3.875
 9654TIP3    H228906   8.018   3.845   3.746
 9655TIP3   OH228907   2.098   7.053   3.605
 9655TIP3    H128908   2.023   7.030   3.661
 9655TIP3    H228909   2.067   7.039   3.516
 9656TIP3   OH228910   1.481   2.436   4.089
 9656TIP3    H128911   1.418   2.391   4.145
 9656TIP3    H228912   1.428   2.500   4.040
 9657TIP3   OH228913   4.318   2.533   0.773
 9657TIP3    H128914   4.266   2.598   0.821
 9657TIP3    H228915   4.258   2.460   0.759
 9658TIP3   OH228916   7.198   1.659   4.554
 9658TIP3    H128917   7.233   1.748   4.552
 9658TIP3    H228918   7.273   1.604   4.533
 9659TIP3   OH228919   2.557   5.893   5.372
 9659TIP3    H128920   2.466   5.921   5.359
 9659TIP3    H228921   2.567   5.887   5.467
 9660TIP3   OH228922   1.752   1.882   1.808
 9660TIP3    H128923   1.808   1.817   1.851
 9660TIP3    H228924   1.809   1.957   1.794
 9661TIP3   OH228925   5.043   7.216   6.068
 9661TIP3    H128926   5.028   7.155   5.996
 9661TIP3    H228927   5.128   7.255   6.050
 9662TIP3   OH228928   2.116   0.531   4.149
 9662TIP3    H128929   2.054   0.457   4.142
 9662TIP3    H228930   2.172   0.508   4.223
 9663TIP3   OH228931   6.669   2.454   5.671
 9663TIP3    H128932   6.740   2.394   5.690
 9663TIP3    H228933   6.598   2.399   5.638
 9664TIP3   OH228934   2.021   1.712   1.029
 9664TIP3    H128935   2.050   1.753   0.948
 9664TIP3    H228936   1.946   1.658   1.003
 9665TIP3   OH228937   7.809   7.486   2.068
 9665TIP3    H128938   7.807   7.581   2.068
 9665TIP3    H228939   7.717   7.460   2.068
 9666TIP3   OH228940   6.348   1.879   4.503
 9666TIP3    H128941   6.305   1.807   4.457
 9666TIP3    H228942   6.392   1.838   4.577
 9667TIP3   OH228943   5.201   2.302   2.137
 9667TIP3    H128944   5.215   2.394   2.162
 9667TIP3    H228945   5.271   2.254   2.180
 9668TIP3   OH228946   6.410   7.586   5.647
 9668TIP3    H128947   6.455   7.505   5.674
 9668TIP3    H228948   6.471   7.629   5.587
 9669TIP3   OH228949   0.359   0.105   5.307
 9669TIP3    H128950   0.295   0.093   5.236
 9669TIP3    H228951   0.438   0.137   5.263
 9670TIP3   OH228952   7.144   3.762   3.691
 9670TIP3    H128953   7.213   3.813   3.732
 9670TIP3    H228954   7.148   3.786   3.598
 9671TIP3   OH228955   3.877   4.135   2.661
 9671TIP3    H128956   3.900   4.049   2.694
 9671TIP3    H228957   3.856   4.186   2.740
 9672TIP3   OH228958   1.084   2.208   3.624
 9672TIP3    H128959   0.999   2.194   3.666
 9672TIP3    H228960   1.068   2.189   3.531
 9673TIP3   OH228961   6.315   2.877   2.938
 9673TIP3    H128962   6.257   2.937   2.889
 9673TIP3    H228963   6.373   2.935   2.987
 9674TIP3   OH228964   3.098   7.317   0.957
 9674TIP3    H128965   3.162   7.339   0.889
 9674TIP3    H228966   3.015   7.307   0.910
 9675TIP3   OH228967   3.481   1.625   4.938
 9675TIP3    H128968   3.487   1.574   4.857
 9675TIP3    H228969   3.453   1.712   4.909
 9676TIP3   OH228970   0.855   1.490   4.337
 9676TIP3    H128971   0.946   1.517   4.350
 9676TIP3    H228972   0.854   1.452   4.248
 9677TIP3   OH228973   8.275   6.576   1.401
 9677TIP3    H128974   8.357   6.554   1.357
 9677TIP3    H228975   8.230   6.633   1.339
 9678TIP3   OH228976   5.618   3.031   5.059
 9678TIP3    H128977   5.549   2.966   5.073
 9678TIP3    H228978   5.601   3.099   5.123
 9679TIP3   OH228979   0.744   1.279   5.288
 9679TIP3    H128980   0.777   1.197   5.326
 9679TIP3    H228981   0.818   1.339   5.291
 9680TIP3   OH228982   0.390   6.603   3.441
 9680TIP3    H128983   0.380   6.693   3.471
 9680TIP3    H228984   0.375   6.549   3.519
 9681TIP3   OH228985   2.402   0.660   3.893
 9681TIP3    H128986   2.446   0.662   3.978
 9681TIP3    H228987   2.461   0.705   3.834
 9682TIP3   OH228988   6.149   2.488   2.745
 9682TIP3    H128989   6.188   2.461   2.662
 9682TIP3    H228990   6.105   2.570   2.726
 9683TIP3   OH228991   8.218   4.595   1.471
 9683TIP3    H128992   8.188   4.516   1.426
 9683TIP3    H228993   8.141   4.625   1.520
 9684TIP3   OH228994   7.191   2.407   4.979
 9684TIP3    H128995   7.252   2.441   5.043
 9684TIP3    H228996   7.170   2.481   4.923
 9685TIP3   OH228997   0.923   6.322   5.334
 9685TIP3    H128998   0.959   6.372   5.260
 9685TIP3    H228999   0.999   6.307   5.391
 9686TIP3   OH229000   5.342   2.422   3.459
 9686TIP3    H129001   5.384   2.348   3.414
 9686TIP3    H229002   5.378   2.420   3.547
 9687TIP3   OH229003   1.002   6.327   4.704
 9687TIP3    H129004   0.999   6.421   4.686
 9687TIP3    H229005   1.095   6.307   4.714
 9688TIP3   OH229006   6.867   7.291   1.644
 9688TIP3    H129007   6.885   7.211   1.595
 9688TIP3    H229008   6.776   7.282   1.671
 9689TIP3   OH229009   0.659   6.200   4.473
 9689TIP3    H129010   0.739   6.196   4.421
 9689TIP3    H229011   0.608   6.124   4.444
 9690TIP3   OH229012   1.345   5.232   6.167
 9690TIP3    H129013   1.441   5.238   6.172
 9690TIP3    H229014   1.326   5.239   6.073
 9691TIP3   OH229015   3.838   0.943   3.953
 9691TIP3    H129016   3.882   0.938   4.038
 9691TIP3    H229017   3.834   1.036   3.933
 9692TIP3   OH229018   5.357   5.936   5.758
 9692TIP3    H129019   5.444   5.902   5.779
 9692TIP3    H229020   5.308   5.861   5.726
 9693TIP3   OH229021   3.603   4.311   5.914
 9693TIP3    H129022   3.618   4.284   5.824
 9693TIP3    H229023   3.509   4.297   5.929
 9694TIP3   OH229024   5.125   4.188   3.243
 9694TIP3    H129025   5.161   4.271   3.210
 9694TIP3    H229026   5.033   4.208   3.261
 9695TIP3   OH229027   7.863   0.570   2.647
 9695TIP3    H129028   7.791   0.580   2.709
 9695TIP3    H229029   7.932   0.627   2.682
 9696TIP3   OH229030   1.631   6.392   5.938
 9696TIP3    H129031   1.661   6.332   6.006
 9696TIP3    H229032   1.693   6.465   5.942
 9697TIP3   OH229033   1.048   2.409   2.612
 9697TIP3    H129034   0.977   2.461   2.648
 9697TIP3    H229035   1.085   2.463   2.542
 9698TIP3   OH229036   3.742   3.460   6.211
 9698TIP3    H129037   3.780   3.470   6.298
 9698TIP3    H229038   3.759   3.369   6.188
 9699TIP3   OH229039   3.914   6.396   3.946
 9699TIP3    H129040   3.844   6.457   3.971
 9699TIP3    H229041   3.994   6.435   3.982
 9700TIP3   OH229042   0.258   1.824   0.988
 9700TIP3    H129043   0.259   1.920   0.983
 9700TIP3    H229044   0.348   1.801   1.011
 9701TIP3   OH229045   5.569   1.241   1.840
 9701TIP3    H129046   5.619   1.227   1.760
 9701TIP3    H229047   5.587   1.164   1.894
 9702TIP3   OH229048   5.175   7.785   6.308
 9702TIP3    H129049   5.080   7.775   6.318
 9702TIP3    H229050   5.207   7.697   6.290
 9703TIP3   OH229051   1.644   5.639   0.561
 9703TIP3    H129052   1.585   5.663   0.633
 9703TIP3    H229053   1.611   5.687   0.486
 9704TIP3   OH229054   2.899   3.581   5.038
 9704TIP3    H129055   2.967   3.564   4.972
 9704TIP3    H229056   2.828   3.522   5.016
 9705TIP3   OH229057   4.615   4.045   2.749
 9705TIP3    H129058   4.552   4.103   2.792
 9705TIP3    H229059   4.631   3.975   2.813
 9706TIP3   OH229060   2.640   6.459   3.771
 9706TIP3    H129061   2.704   6.530   3.765
 9706TIP3    H229062   2.561   6.495   3.728
 9707TIP3   OH229063   6.750   2.680   0.230
 9707TIP3    H129064   6.788   2.756   0.273
 9707TIP3    H229065   6.821   2.645   0.176
 9708TIP3   OH229066   1.953   6.280   1.026
 9708TIP3    H129067   2.014   6.216   0.989
 9708TIP3    H229068   1.927   6.242   1.110
 9709TIP3   OH229069   7.605   1.598   4.440
 9709TIP3    H129070   7.612   1.503   4.437
 9709TIP3    H229071   7.645   1.623   4.523
 9710TIP3   OH229072   3.527   1.440   3.802
 9710TIP3    H129073   3.523   1.427   3.707
 9710TIP3    H229074   3.616   1.414   3.825
 9711TIP3   OH229075   3.085   6.469   3.536
 9711TIP3    H129076   3.137   6.400   3.578
 9711TIP3    H229077   3.098   6.546   3.591
 9712TIP3   OH229078   1.780   0.612   0.025
 9712TIP3    H129079   1.837   0.666  -0.030
 9712TIP3    H229080   1.833   0.593   0.103
 9713TIP3   OH229081   7.322   5.274   6.764
 9713TIP3    H129082   7.268   5.293   6.840
 9713TIP3    H229083   7.261   5.268   6.691
 9714TIP3   OH229084   0.122   4.244   3.907
 9714TIP3    H129085   0.129   4.179   3.838
 9714TIP3    H229086   0.078   4.199   3.979
 9715TIP3   OH229087   5.816   4.512   0.163
 9715TIP3    H129088   5.850   4.440   0.110
 9715TIP3    H229089   5.889   4.573   0.171
 9716TIP3   OH229090   3.133   6.995   0.552
 9716TIP3    H129091   3.207   7.027   0.604
 9716TIP3    H229092   3.097   7.073   0.510
 9717TIP3   OH229093   6.662   2.900   0.561
 9717TIP3    H129094   6.614   2.860   0.633
 9717TIP3    H229095   6.710   2.827   0.521
 9718TIP3   OH229096   6.664   7.753   3.584
 9718TIP3    H129097   6.620   7.836   3.565
 9718TIP3    H229098   6.601   7.705   3.639
 9719TIP3   OH229099   7.584   4.852   1.635
 9719TIP3    H129100   7.594   4.807   1.719
 9719TIP3    H229101   7.556   4.940   1.657
 9720TIP3   OH229102   6.316   2.863   4.922
 9720TIP3    H129103   6.380   2.892   4.856
 9720TIP3    H229104   6.364   2.867   5.005
 9721TIP3   OH229105   3.683   6.142   0.559
 9721TIP3    H129106   3.607   6.084   0.568
 9721TIP3    H229107   3.654   6.212   0.501
 9722TIP3   OH229108   7.818   2.837   3.842
 9722TIP3    H129109   7.870   2.843   3.761
 9722TIP3    H229110   7.736   2.797   3.814
 9723TIP3   OH229111   6.922   2.064   6.208
 9723TIP3    H129112   6.885   2.002   6.269
 9723TIP3    H229113   6.854   2.131   6.197
 9724TIP3   OH229114   2.822   4.886   2.866
 9724TIP3    H129115   2.914   4.896   2.842
 9724TIP3    H229116   2.780   4.850   2.788
 9725TIP3   OH229117   4.488   0.655   1.072
 9725TIP3    H129118   4.503   0.729   1.131
 9725TIP3    H229119   4.396   0.663   1.047
 9726TIP3   OH229120   2.751   5.802   1.553
 9726TIP3    H129121   2.836   5.846   1.549
 9726TIP3    H229122   2.758   5.745   1.630
 9727TIP3   OH229123   0.466   1.048   2.881
 9727TIP3    H129124   0.478   0.961   2.841
 9727TIP3    H229125   0.553   1.072   2.913
 9728TIP3   OH229126   6.970   6.783   3.782
 9728TIP3    H129127   7.011   6.870   3.780
 9728TIP3    H229128   7.039   6.726   3.816
 9729TIP3   OH229129   4.036   4.839   4.422
 9729TIP3    H129130   4.006   4.924   4.452
 9729TIP3    H229131   4.128   4.835   4.449
 9730TIP3   OH229132   0.668   3.357   0.188
 9730TIP3    H129133   0.742   3.298   0.177
 9730TIP3    H229134   0.676   3.420   0.117
 9731TIP3   OH229135   0.225   3.404   5.291
 9731TIP3    H129136   0.140   3.393   5.333
 9731TIP3    H229137   0.288   3.379   5.358
 9732TIP3   OH229138   5.899   4.894   1.205
 9732TIP3    H129139   5.822   4.949   1.190
 9732TIP3    H229140   5.906   4.888   1.300
 9733TIP3   OH229141   2.268   4.864   0.792
 9733TIP3    H129142   2.319   4.793   0.755
 9733TIP3    H229143   2.177   4.838   0.779
 9734TIP3   OH229144   8.006   1.706   2.107
 9734TIP3    H129145   8.006   1.752   2.023
 9734TIP3    H229146   7.975   1.618   2.086
 9735TIP3   OH229147   7.182   2.195   1.491
 9735TIP3    H129148   7.218   2.107   1.479
 9735TIP3    H229149   7.151   2.197   1.581
 9736TIP3   OH229150   0.749   4.636   5.769
 9736TIP3    H129151   0.768   4.656   5.677
 9736TIP3    H229152   0.670   4.582   5.765
 9737TIP3   OH229153   2.341   7.455   4.733
 9737TIP3    H129154   2.366   7.522   4.796
 9737TIP3    H229155   2.256   7.424   4.762
 9738TIP3   OH229156   7.150   0.267   3.707
 9738TIP3    H129157   7.162   0.266   3.801
 9738TIP3    H229158   7.221   0.321   3.673
 9739TIP3   OH229159   5.295   4.278   0.267
 9739TIP3    H129160   5.328   4.314   0.349
 9739TIP3    H229161   5.237   4.347   0.233
 9740TIP3   OH229162   7.629   2.980   4.453
 9740TIP3    H129163   7.679   3.040   4.509
 9740TIP3    H229164   7.584   2.922   4.514
 9741TIP3   OH229165   3.502   0.096   3.192
 9741TIP3    H129166   3.566   0.143   3.139
 9741TIP3    H229167   3.503   0.142   3.276
 9742TIP3   OH229168   7.960   6.912   3.376
 9742TIP3    H129169   7.938   7.001   3.350
 9742TIP3    H229170   7.932   6.858   3.302
 9743TIP3   OH229171   5.691   7.783   5.164
 9743TIP3    H129172   5.744   7.755   5.090
 9743TIP3    H229173   5.673   7.703   5.213
 9744TIP3   OH229174   3.474   0.817   2.984
 9744TIP3    H129175   3.437   0.749   3.039
 9744TIP3    H229176   3.514   0.880   3.045
 9745TIP3   OH229177   5.191   7.401   2.700
 9745TIP3    H129178   5.276   7.362   2.721
 9745TIP3    H229179   5.199   7.492   2.727
 9746TIP3   OH229180   0.093   0.370   5.511
 9746TIP3    H129181   0.115   0.461   5.492
 9746TIP3    H229182   0.137   0.352   5.594
 9747TIP3   OH229183   3.719   4.434   6.691
 9747TIP3    H129184   3.690   4.459   6.778
 9747TIP3    H229185   3.815   4.438   6.695
 9748TIP3   OH229186   2.582   3.077   4.644
 9748TIP3    H129187   2.656   3.114   4.692
 9748TIP3    H229188   2.589   3.114   4.557
 9749TIP3   OH229189   6.095   0.665   3.902
 9749TIP3    H129190   6.108   0.571   3.915
 9749TIP3    H229191   6.034   0.671   3.829
 9750TIP3   OH229192   8.065   3.973   4.017
 9750TIP3    H129193   8.116   3.928   3.950
 9750TIP3    H229194   8.015   4.039   3.969
 9751TIP3   OH229195   3.059   0.367   4.524
 9751TIP3    H129196   3.129   0.428   4.547
 9751TIP3    H229197   2.984   0.423   4.506
 9752TIP3   OH229198   6.915   3.996   5.300
 9752TIP3    H129199   6.970   4.022   5.227
 9752TIP3    H229200   6.959   4.030   5.377
 9753TIP3   OH229201   7.678   1.395   6.139
 9753TIP3    H129202   7.606   1.338   6.112
 9753TIP3    H229203   7.705   1.361   6.224
 9754TIP3   OH229204   5.994   1.903   0.928
 9754TIP3    H129205   5.976   1.848   0.852
 9754TIP3    H229206   5.979   1.992   0.898
 9755TIP3   OH229207   5.530   7.284   0.653
 9755TIP3    H129208   5.606   7.226   0.651
 9755TIP3    H229209   5.515   7.301   0.746
 9756TIP3   OH229210   2.025   3.801   1.765
 9756TIP3    H129211   2.100   3.787   1.822
 9756TIP3    H229212   2.003   3.714   1.733
 9757TIP3   OH229213   5.410   5.176   5.981
 9757TIP3    H129214   5.388   5.114   5.911
 9757TIP3    H229215   5.343   5.245   5.974
 9758TIP3   OH229216   5.799   2.570   4.001
 9758TIP3    H129217   5.791   2.554   4.095
 9758TIP3    H229218   5.745   2.648   3.985
 9759TIP3   OH229219   2.445   5.163   5.397
 9759TIP3    H129220   2.372   5.115   5.358
 9759TIP3    H229221   2.519   5.148   5.338
 9760TIP3   OH229222   5.645   2.054   3.910
 9760TIP3    H129223   5.559   2.014   3.921
 9760TIP3    H229224   5.626   2.141   3.874
 9761TIP3   OH229225   4.805   5.889   5.820
 9761TIP3    H129226   4.870   5.946   5.861
 9761TIP3    H229227   4.729   5.945   5.804
 9762TIP3   OH229228   5.616   6.840   2.347
 9762TIP3    H129229   5.675   6.798   2.284
 9762TIP3    H229230   5.539   6.783   2.349
 9763TIP3   OH229231   3.564   6.708   0.149
 9763TIP3    H129232   3.554   6.614   0.158
 9763TIP3    H229233   3.518   6.730   0.068
 9764TIP3   OH229234   5.067   3.497   4.753
 9764TIP3    H129235   4.999   3.564   4.751
 9764TIP3    H229236   5.020   3.415   4.766
 9765TIP3   OH229237   7.435   7.393   5.576
 9765TIP3    H129238   7.469   7.430   5.495
 9765TIP3    H229239   7.372   7.459   5.608
 9766TIP3   OH229240   6.319   2.584   2.972
 9766TIP3    H129241   6.300   2.678   2.970
 9766TIP3    H229242   6.269   2.548   2.899
 9767TIP3   OH229243   6.000   4.968   3.661
 9767TIP3    H129244   5.990   4.997   3.752
 9767TIP3    H229245   5.977   4.875   3.663
 9768TIP3   OH229246   1.671   3.810   2.671
 9768TIP3    H129247   1.591   3.864   2.672
 9768TIP3    H229248   1.646   3.731   2.624
 9769TIP3   OH229249   4.916   1.369   1.380
 9769TIP3    H129250   4.926   1.348   1.473
 9769TIP3    H229251   4.822   1.376   1.367
 9770TIP3   OH229252   6.072   3.991   6.241
 9770TIP3    H129253   6.122   3.923   6.285
 9770TIP3    H229254   6.002   4.013   6.303
 9771TIP3   OH229255   2.168   4.701   6.500
 9771TIP3    H129256   2.119   4.759   6.441
 9771TIP3    H229257   2.100   4.651   6.546
 9772TIP3   OH229258   0.566   4.551   5.468
 9772TIP3    H129259   0.480   4.589   5.482
 9772TIP3    H229260   0.556   4.459   5.492
 9773TIP3   OH229261   4.803   2.993   0.973
 9773TIP3    H129262   4.766   3.076   1.003
 9773TIP3    H229263   4.807   3.001   0.877
 9774TIP3   OH229264   2.903   0.075   6.173
 9774TIP3    H129265   2.851   0.141   6.127
 9774TIP3    H229266   2.854  -0.007   6.161
 9775TIP3   OH229267   5.871   1.704   6.511
 9775TIP3    H129268   5.807   1.646   6.470
 9775TIP3    H229269   5.896   1.658   6.592
 9776TIP3   OH229270   7.169   7.696   2.562
 9776TIP3    H129271   7.221   7.677   2.484
 9776TIP3    H229272   7.094   7.746   2.529
 9777TIP3   OH229273   4.084   7.614   3.380
 9777TIP3    H129274   4.097   7.552   3.452
 9777TIP3    H229275   4.072   7.699   3.424
 9778TIP3   OH229276   5.296   7.686   5.340
 9778TIP3    H129277   5.385   7.676   5.373
 9778TIP3    H229278   5.241   7.688   5.419
 9779TIP3   OH229279   5.685   1.778   0.884
 9779TIP3    H129280   5.774   1.807   0.904
 9779TIP3    H229281   5.645   1.760   0.969
 9780TIP3   OH229282   2.773   4.305   2.231
 9780TIP3    H129283   2.738   4.215   2.228
 9780TIP3    H229284   2.699   4.358   2.259
 9781TIP3   OH229285   0.556   4.748   4.458
 9781TIP3    H129286   0.581   4.675   4.402
 9781TIP3    H229287   0.484   4.714   4.511
 9782TIP3   OH229288   1.736   6.595   5.455
 9782TIP3    H129289   1.798   6.619   5.386
 9782TIP3    H229290   1.650   6.600   5.413
 9783TIP3   OH229291   6.313   2.056   0.993
 9783TIP3    H129292   6.398   2.094   0.971
 9783TIP3    H229293   6.250   2.126   0.975
 9784TIP3   OH229294   1.015   3.969   1.407
 9784TIP3    H129295   0.952   3.963   1.335
 9784TIP3    H229296   1.030   4.062   1.419
 9785TIP3   OH229297   4.364   2.221   4.116
 9785TIP3    H129298   4.348   2.176   4.199
 9785TIP3    H229299   4.440   2.177   4.079
 9786TIP3   OH229300   1.790   7.310   6.136
 9786TIP3    H129301   1.724   7.248   6.165
 9786TIP3    H229302   1.871   7.259   6.133
 9787TIP3   OH229303   1.266   1.864   2.335
 9787TIP3    H129304   1.254   1.950   2.375
 9787TIP3    H229305   1.294   1.883   2.245
 9788TIP3   OH229306   2.256   1.366   2.175
 9788TIP3    H129307   2.215   1.326   2.252
 9788TIP3    H229308   2.299   1.294   2.130
 9789TIP3   OH229309   0.741   2.813   3.673
 9789TIP3    H129310   0.665   2.786   3.726
 9789TIP3    H229311   0.741   2.753   3.599
 9790TIP3   OH229312   1.431   0.266   5.902
 9790TIP3    H129313   1.360   0.223   5.950
 9790TIP3    H229314   1.391   0.294   5.820
 9791TIP3   OH229315   2.309   5.048   0.585
 9791TIP3    H129316   2.300   5.000   0.668
 9791TIP3    H229317   2.219   5.068   0.559
 9792TIP3   OH229318   3.006   2.424   5.369
 9792TIP3    H129319   3.036   2.439   5.459
 9792TIP3    H229320   3.073   2.466   5.314
 9793TIP3   OH229321   5.268   6.290   6.345
 9793TIP3    H129322   5.328   6.252   6.282
 9793TIP3    H229323   5.298   6.257   6.430
 9794TIP3   OH229324   4.457   5.161   3.773
 9794TIP3    H129325   4.483   5.075   3.741
 9794TIP3    H229326   4.455   5.216   3.695
 9795TIP3   OH229327   0.968   5.552   3.609
 9795TIP3    H129328   0.880   5.516   3.620
 9795TIP3    H229329   0.966   5.596   3.524
 9796TIP3   OH229330   5.816   0.371   1.772
 9796TIP3    H129331   5.828   0.276   1.777
 9796TIP3    H229332   5.744   0.389   1.833
 9797TIP3   OH229333   8.118   7.425   3.328
 9797TIP3    H129334   8.138   7.500   3.273
 9797TIP3    H229335   8.157   7.447   3.413
 9798TIP3   OH229336   7.203   5.213   1.996
 9798TIP3    H129337   7.170   5.284   1.940
 9798TIP3    H229338   7.149   5.138   1.972
 9799TIP3   OH229339   7.215   1.083   2.184
 9799TIP3    H129340   7.280   1.111   2.120
 9799TIP3    H229341   7.131   1.102   2.142
 9800TIP3   OH229342   0.383   3.081   3.227
 9800TIP3    H129343   0.341   3.119   3.305
 9800TIP3    H229344   0.382   2.986   3.243
 9801TIP3   OH229345   8.252   6.166   1.683
 9801TIP3    H129346   8.168   6.166   1.638
 9801TIP3    H229347   8.236   6.119   1.764
 9802TIP3   OH229348   8.197   0.568   0.234
 9802TIP3    H129349   8.115   0.520   0.220
 9802TIP3    H229350   8.182   0.620   0.312
 9803TIP3   OH229351   0.137   1.444   6.269
 9803TIP3    H129352   0.138   1.531   6.230
 9803TIP3    H229353   0.225   1.434   6.307
 9804TIP3   OH229354   0.628   5.278   5.118
 9804TIP3    H129355   0.699   5.339   5.138
 9804TIP3    H229356   0.671   5.194   5.106
 9805TIP3   OH229357   8.050   1.718   5.434
 9805TIP3    H129358   8.089   1.667   5.505
 9805TIP3    H229359   8.061   1.662   5.357
 9806TIP3   OH229360   7.417   6.526   1.400
 9806TIP3    H129361   7.329   6.490   1.412
 9806TIP3    H229362   7.444   6.553   1.487
 9807TIP3   OH229363   2.742   7.643   4.811
 9807TIP3    H129364   2.684   7.593   4.754
 9807TIP3    H229365   2.811   7.676   4.752
 9808TIP3   OH229366   0.500   7.695   2.487
 9808TIP3    H129367   0.541   7.660   2.566
 9808TIP3    H229368   0.442   7.764   2.518
 9809TIP3   OH229369   3.336   3.846   2.409
 9809TIP3    H129370   3.316   3.821   2.500
 9809TIP3    H229371   3.269   3.804   2.357
 9810TIP3   OH229372   1.447   0.862   3.173
 9810TIP3    H129373   1.427   0.955   3.169
 9810TIP3    H229374   1.533   0.858   3.215
 9811TIP3   OH229375   1.566   6.140   3.324
 9811TIP3    H129376   1.592   6.188   3.246
 9811TIP3    H229377   1.647   6.128   3.373
 9812TIP3   OH229378   4.627   5.254   4.509
 9812TIP3    H129379   4.663   5.181   4.559
 9812TIP3    H229380   4.603   5.319   4.575
 9813TIP3   OH229381   1.010   1.106   5.068
 9813TIP3    H129382   1.010   1.186   5.120
 9813TIP3    H229383   0.951   1.125   4.995
 9814TIP3   OH229384   1.370   0.847   1.936
 9814TIP3    H129385   1.280   0.876   1.954
 9814TIP3    H229386   1.425   0.921   1.962
 9815TIP3   OH229387   0.050   6.092   5.162
 9815TIP3    H129388   0.046   6.161   5.095
 9815TIP3    H229389   0.011   6.016   5.120
 9816TIP3   OH229390   2.233   1.139   6.391
 9816TIP3    H129391   2.324   1.121   6.411
 9816TIP3    H229392   2.234   1.225   6.350
 9817TIP3   OH229393   5.818   6.580   1.004
 9817TIP3    H129394   5.762   6.643   0.959
 9817TIP3    H229395   5.798   6.591   1.097
 9818TIP3   OH229396   4.109   3.484   4.710
 9818TIP3    H129397   4.022   3.447   4.723
 9818TIP3    H229398   4.123   3.541   4.786
 9819TIP3   OH229399   0.275   0.567   5.443
 9819TIP3    H129400   0.345   0.503   5.431
 9819TIP3    H229401   0.298   0.638   5.383
 9820TIP3   OH229402   6.263   7.296   2.109
 9820TIP3    H129403   6.207   7.347   2.051
 9820TIP3    H229404   6.229   7.313   2.197
 9821TIP3   OH229405   4.963   1.872   3.542
 9821TIP3    H129406   5.054   1.881   3.514
 9821TIP3    H229407   4.947   1.778   3.541
 9822TIP3   OH229408   8.076   6.097   4.599
 9822TIP3    H129409   8.022   6.094   4.677
 9822TIP3    H229410   8.057   6.015   4.554
 9823TIP3   OH229411   2.115   4.662   5.955
 9823TIP3    H129412   2.049   4.671   6.023
 9823TIP3    H229413   2.093   4.579   5.911
 9824TIP3   OH229414   4.889   3.352   4.408
 9824TIP3    H129415   4.835   3.397   4.343
 9824TIP3    H229416   4.963   3.410   4.422
 9825TIP3   OH229417   5.101   0.982   3.027
 9825TIP3    H129418   5.074   0.932   2.950
 9825TIP3    H229419   5.195   0.991   3.018
 9826TIP3   OH229420   2.559   6.095   5.167
 9826TIP3    H129421   2.594   6.010   5.191
 9826TIP3    H229422   2.582   6.152   5.240
 9827TIP3   OH229423   0.960   3.142   0.430
 9827TIP3    H129424   0.866   3.144   0.449
 9827TIP3    H229425   1.000   3.179   0.508
 9828TIP3   OH229426   2.081   4.395   4.762
 9828TIP3    H129427   2.149   4.417   4.826
 9828TIP3    H229428   2.005   4.373   4.815
 9829TIP3   OH229429   1.094   2.250   0.310
 9829TIP3    H129430   1.063   2.226   0.223
 9829TIP3    H229431   1.092   2.168   0.360
 9830TIP3   OH229432   0.790   3.377   0.581
 9830TIP3    H129433   0.758   3.425   0.657
 9830TIP3    H229434   0.873   3.338   0.611
 9831TIP3   OH229435   5.786   6.875   0.773
 9831TIP3    H129436   5.868   6.874   0.822
 9831TIP3    H229437   5.739   6.797   0.802
 9832TIP3   OH229438   1.181   5.085   3.851
 9832TIP3    H129439   1.218   5.093   3.939
 9832TIP3    H229440   1.096   5.129   3.857
 9833TIP3   OH229441   4.323   3.019   5.898
 9833TIP3    H129442   4.236   2.983   5.912
 9833TIP3    H229443   4.318   3.061   5.812
 9834TIP3   OH229444   1.310   6.362   4.759
 9834TIP3    H129445   1.384   6.339   4.703
 9834TIP3    H229446   1.260   6.426   4.707
 9835TIP3   OH229447   7.763   3.661   4.875
 9835TIP3    H129448   7.715   3.608   4.811
 9835TIP3    H229449   7.853   3.659   4.844
 9836TIP3   OH229450   8.279   1.394   0.866
 9836TIP3    H129451   8.338   1.468   0.857
 9836TIP3    H229452   8.197   1.424   0.827
 9837TIP3   OH229453   0.999   0.848   5.103
 9837TIP3    H129454   0.982   0.810   5.017
 9837TIP3    H229455   1.004   0.942   5.087
 9838TIP3   OH229456   2.935   6.880   3.373
 9838TIP3    H129457   3.012   6.856   3.323
 9838TIP3    H229458   2.949   6.840   3.459
 9839TIP3   OH229459   6.949   3.580   2.421
 9839TIP3    H129460   6.931   3.487   2.404
 9839TIP3    H229461   6.978   3.583   2.512
 9840TIP3   OH229462   3.858   7.652   0.166
 9840TIP3    H129463   3.907   7.734   0.178
 9840TIP3    H229464   3.832   7.627   0.255
 9841TIP3   OH229465   0.565   2.576   2.657
 9841TIP3    H129466   0.637   2.526   2.694
 9841TIP3    H229467   0.507   2.593   2.731
 9842TIP3   OH229468   1.868   3.130   0.696
 9842TIP3    H129469   1.889   3.038   0.712
 9842TIP3    H229470   1.774   3.131   0.680
 9843TIP3   OH229471   6.759   0.412   0.081
 9843TIP3    H129472   6.848   0.437   0.107
 9843TIP3    H229473   6.702   0.461   0.139
 9844TIP3   OH229474   4.584   3.799   6.425
 9844TIP3    H129475   4.513   3.861   6.409
 9844TIP3    H229476   4.550   3.742   6.495
 9845TIP3   OH229477   6.114   3.608   6.317
 9845TIP3    H129478   6.144   3.698   6.332
 9845TIP3    H229479   6.180   3.570   6.259
 9846TIP3   OH229480   4.529   4.865   0.880
 9846TIP3    H129481   4.493   4.828   0.800
 9846TIP3    H229482   4.493   4.954   0.884
 9847TIP3   OH229483   5.228   5.781   6.165
 9847TIP3    H129484   5.259   5.832   6.239
 9847TIP3    H229485   5.160   5.724   6.201
 9848TIP3   OH229486   1.227   6.243   5.549
 9848TIP3    H129487   1.247   6.187   5.474
 9848TIP3    H229488   1.268   6.198   5.623
 9849TIP3   OH229489   2.303   1.020   6.703
 9849TIP3    H129490   2.304   1.115   6.695
 9849TIP3    H229491   2.258   0.990   6.624
 9850TIP3   OH229492   1.556   3.254   0.219
 9850TIP3    H129493   1.617   3.182   0.207
 9850TIP3    H229494   1.492   3.243   0.149
 9851TIP3   OH229495   3.094   2.579   6.056
 9851TIP3    H129496   3.062   2.498   6.014
 9851TIP3    H229497   3.051   2.580   6.141
 9852TIP3   OH229498   2.682   0.498   4.615
 9852TIP3    H129499   2.662   0.590   4.628
 9852TIP3    H229500   2.750   0.497   4.548
 9853TIP3   OH229501   0.324   5.654   1.065
 9853TIP3    H129502   0.324   5.672   0.971
 9853TIP3    H229503   0.392   5.588   1.077
 9854TIP3   OH229504   4.700   4.581   6.468
 9854TIP3    H129505   4.700   4.656   6.527
 9854TIP3    H229506   4.647   4.609   6.393
 9855TIP3   OH229507   8.202   4.753   2.326
 9855TIP3    H129508   8.208   4.833   2.274
 9855TIP3    H229509   8.138   4.699   2.280
 9856TIP3   OH229510   7.552   1.232   0.144
 9856TIP3    H129511   7.641   1.268   0.141
 9856TIP3    H229512   7.495   1.308   0.142
 9857TIP3   OH229513   7.208   1.979   2.781
 9857TIP3    H129514   7.200   2.014   2.692
 9857TIP3    H229515   7.119   1.981   2.815
 9858TIP3   OH229516   4.761   3.785   1.071
 9858TIP3    H129517   4.714   3.861   1.103
 9858TIP3    H229518   4.809   3.817   0.994
 9859TIP3   OH229519   5.965   6.253   0.626
 9859TIP3    H129520   5.877   6.246   0.588
 9859TIP3    H229521   5.959   6.324   0.690
 9860TIP3   OH229522   2.533   4.105   2.941
 9860TIP3    H129523   2.592   4.119   3.016
 9860TIP3    H229524   2.549   4.014   2.915
 9861TIP3   OH229525   4.128   1.858   4.481
 9861TIP3    H129526   4.041   1.864   4.442
 9861TIP3    H229527   4.157   1.769   4.460
 9862TIP3   OH229528   6.880   4.210   4.758
 9862TIP3    H129529   6.903   4.162   4.837
 9862TIP3    H229530   6.929   4.167   4.688
 9863TIP3   OH229531   8.253   3.572   6.388
 9863TIP3    H129532   8.299   3.656   6.389
 9863TIP3    H229533   8.317   3.510   6.353
 9864TIP3   OH229534   2.342   2.590   6.387
 9864TIP3    H129535   2.305   2.673   6.415
 9864TIP3    H229536   2.375   2.607   6.299
 9865TIP3   OH229537   7.899   1.558   3.794
 9865TIP3    H129538   7.841   1.484   3.808
 9865TIP3    H229539   7.908   1.598   3.880
 9866TIP3   OH229540   4.483   0.921   6.638
 9866TIP3    H129541   4.535   0.886   6.565
 9866TIP3    H229542   4.405   0.958   6.597
 9867TIP3   OH229543   6.949   1.822   1.124
 9867TIP3    H129544   7.023   1.816   1.064
 9867TIP3    H229545   6.874   1.792   1.074
 9868TIP3   OH229546   1.823   4.530   3.268
 9868TIP3    H129547   1.892   4.557   3.207
 9868TIP3    H229548   1.820   4.600   3.333
 9869TIP3   OH229549   4.663   7.420   0.279
 9869TIP3    H129550   4.638   7.340   0.232
 9869TIP3    H229551   4.689   7.481   0.211
 9870TIP3   OH229552   5.549   0.196   0.909
 9870TIP3    H129553   5.627   0.222   0.959
 9870TIP3    H229554   5.484   0.175   0.976
 9871TIP3   OH229555   1.232   2.578   3.237
 9871TIP3    H129556   1.246   2.487   3.211
 9871TIP3    H229557   1.247   2.628   3.157
 9872TIP3   OH229558   4.732   5.041   3.105
 9872TIP3    H129559   4.781   5.025   3.024
 9872TIP3    H229560   4.786   5.001   3.173
 9873TIP3   OH229561   6.030   2.237   3.888
 9873TIP3    H129562   5.978   2.241   3.807
 9873TIP3    H229563   6.022   2.146   3.916
 9874TIP3   OH229564   5.501   2.445   5.146
 9874TIP3    H129565   5.489   2.417   5.237
 9874TIP3    H229566   5.536   2.368   5.101
 9875TIP3   OH229567   5.856   2.073   5.782
 9875TIP3    H129568   5.867   1.984   5.817
 9875TIP3    H229569   5.903   2.129   5.843
 9876TIP3   OH229570   3.806   3.282   4.397
 9876TIP3    H129571   3.857   3.224   4.454
 9876TIP3    H229572   3.862   3.294   4.320
 9877TIP3   OH229573   6.518   4.243   2.783
 9877TIP3    H129574   6.511   4.151   2.759
 9877TIP3    H229575   6.611   4.264   2.772
 9878TIP3   OH229576   6.470   0.605   3.146
 9878TIP3    H129577   6.508   0.693   3.146
 9878TIP3    H229578   6.381   0.617   3.113
 9879TIP3   OH229579   3.015   0.657   2.311
 9879TIP3    H129580   2.922   0.640   2.300
 9879TIP3    H229581   3.040   0.605   2.387
 9880TIP3   OH229582   7.884   3.477   6.598
 9880TIP3    H129583   7.824   3.524   6.655
 9880TIP3    H229584   7.836   3.466   6.516
 9881TIP3   OH229585   6.001   3.286   2.284
 9881TIP3    H129586   6.080   3.319   2.328
 9881TIP3    H229587   5.938   3.358   2.292
 9882TIP3   OH229588   6.257   5.749   0.526
 9882TIP3    H129589   6.262   5.762   0.432
 9882TIP3    H229590   6.180   5.694   0.539
 9883TIP3   OH229591   5.443   0.473   1.832
 9883TIP3    H129592   5.508   0.429   1.886
 9883TIP3    H229593   5.446   0.564   1.861
 9884TIP3   OH229594   1.455   7.668   5.067
 9884TIP3    H129595   1.403   7.641   4.991
 9884TIP3    H229596   1.415   7.750   5.096
 9885TIP3   OH229597   0.910   2.874   0.005
 9885TIP3    H129598   0.947   2.906   0.088
 9885TIP3    H229599   0.967   2.911  -0.062
 9886TIP3   OH229600   7.140   4.822   0.587
 9886TIP3    H129601   7.233   4.829   0.565
 9886TIP3    H229602   7.102   4.904   0.556
 9887TIP3   OH229603   3.203   7.236   1.950
 9887TIP3    H129604   3.233   7.289   1.876
 9887TIP3    H229605   3.175   7.299   2.015
 9888TIP3   OH229606   3.308   4.252   1.257
 9888TIP3    H129607   3.235   4.237   1.316
 9888TIP3    H229608   3.268   4.255   1.170
 9889TIP3   OH229609   0.449   2.742   6.555
 9889TIP3    H129610   0.500   2.739   6.474
 9889TIP3    H229611   0.372   2.795   6.533
 9890TIP3   OH229612   2.951   2.752   5.699
 9890TIP3    H129613   2.945   2.770   5.605
 9890TIP3    H229614   3.017   2.813   5.731
 9891TIP3   OH229615   0.484   2.115   3.058
 9891TIP3    H129616   0.425   2.051   3.018
 9891TIP3    H229617   0.469   2.196   3.011
 9892TIP3   OH229618   3.260   4.639   6.784
 9892TIP3    H129619   3.189   4.619   6.723
 9892TIP3    H229620   3.289   4.726   6.759
 9893TIP3   OH229621   4.059   6.174   4.118
 9893TIP3    H129622   4.073   6.264   4.149
 9893TIP3    H229623   4.143   6.149   4.079
 9894TIP3   OH229624   8.017   5.811   6.126
 9894TIP3    H129625   7.926   5.783   6.141
 9894TIP3    H229626   8.022   5.898   6.165
 9895TIP3   OH229627   5.751   1.666   5.047
 9895TIP3    H129628   5.725   1.740   4.992
 9895TIP3    H229629   5.805   1.611   4.990
 9896TIP3   OH229630   3.517   1.476   5.658
 9896TIP3    H129631   3.440   1.531   5.671
 9896TIP3    H229632   3.484   1.400   5.611
 9897TIP3   OH229633   2.634   6.387   3.083
 9897TIP3    H129634   2.603   6.300   3.110
 9897TIP3    H229635   2.667   6.374   2.994
 9898TIP3   OH229636   7.089   1.370   3.708
 9898TIP3    H129637   7.123   1.343   3.794
 9898TIP3    H229638   7.057   1.289   3.668
 9899TIP3   OH229639   5.816   5.889   2.008
 9899TIP3    H129640   5.903   5.909   1.973
 9899TIP3    H229641   5.823   5.909   2.101
 9900TIP3   OH229642   5.988   1.679   1.956
 9900TIP3    H129643   6.066   1.669   2.011
 9900TIP3    H229644   5.992   1.769   1.924
 9901TIP3   OH229645   7.782   5.622   6.747
 9901TIP3    H129646   7.698   5.631   6.703
 9901TIP3    H229647   7.777   5.539   6.794
 9902TIP3   OH229648   7.052   4.163   5.474
 9902TIP3    H129649   7.109   4.139   5.547
 9902TIP3    H229650   6.968   4.182   5.516
 9903TIP3   OH229651   6.835   7.665   0.073
 9903TIP3    H129652   6.799   7.750   0.097
 9903TIP3    H229653   6.876   7.679  -0.013
 9904TIP3   OH229654   3.156   1.647   4.255
 9904TIP3    H129655   3.084   1.587   4.271
 9904TIP3    H229656   3.147   1.671   4.163
 9905TIP3   OH229657   7.865   7.616   1.248
 9905TIP3    H129658   7.852   7.643   1.339
 9905TIP3    H229659   7.909   7.532   1.254
 9906TIP3   OH229660   0.074   0.678   3.654
 9906TIP3    H129661   0.016   0.751   3.673
 9906TIP3    H229662   0.080   0.629   3.736
 9907TIP3   OH229663   4.089   3.261   2.518
 9907TIP3    H129664   3.997   3.274   2.494
 9907TIP3    H229665   4.119   3.190   2.461
 9908TIP3   OH229666   7.134   4.377   0.802
 9908TIP3    H129667   7.127   4.281   0.804
 9908TIP3    H229668   7.057   4.406   0.753
 9909TIP3   OH229669   3.144   6.762   0.394
 9909TIP3    H129670   3.145   6.848   0.435
 9909TIP3    H229671   3.121   6.779   0.303
 9910TIP3   OH229672   1.158   1.012   1.030
 9910TIP3    H129673   1.211   1.065   1.089
 9910TIP3    H229674   1.204   0.928   1.025
 9911TIP3   OH229675   3.197   4.921   4.524
 9911TIP3    H129676   3.273   4.863   4.531
 9911TIP3    H229677   3.177   4.922   4.431
 9912TIP3   OH229678   5.483   6.286   2.307
 9912TIP3    H129679   5.488   6.197   2.272
 9912TIP3    H229680   5.427   6.279   2.384
 9913TIP3   OH229681   6.826   3.859   0.967
 9913TIP3    H129682   6.832   3.895   1.056
 9913TIP3    H229683   6.831   3.764   0.980
 9914TIP3   OH229684   5.087   4.571   4.053
 9914TIP3    H129685   5.069   4.609   3.966
 9914TIP3    H229686   5.093   4.647   4.111
 9915TIP3   OH229687   3.576   6.686   0.499
 9915TIP3    H129688   3.592   6.673   0.406
 9915TIP3    H229689   3.662   6.675   0.540
 9916TIP3   OH229690   2.272   0.639   5.390
 9916TIP3    H129691   2.206   0.684   5.443
 9916TIP3    H229692   2.227   0.563   5.355
 9917TIP3   OH229693   7.310   0.296   5.710
 9917TIP3    H129694   7.340   0.297   5.619
 9917TIP3    H229695   7.281   0.386   5.726
 9918TIP3   OH229696   6.991   4.166   5.986
 9918TIP3    H129697   7.026   4.117   6.061
 9918TIP3    H229698   6.901   4.187   6.011
 9919TIP3   OH229699   0.857   4.605   0.815
 9919TIP3    H129700   0.817   4.673   0.870
 9919TIP3    H229701   0.806   4.606   0.734
 9920TIP3   OH229702   2.518   1.089   6.391
 9920TIP3    H129703   2.560   1.174   6.380
 9920TIP3    H229704   2.554   1.054   6.472
 9921TIP3   OH229705   4.241   5.967   6.094
 9921TIP3    H129706   4.180   6.012   6.152
 9921TIP3    H229707   4.302   6.034   6.066
 9922TIP3   OH229708   6.340   4.416   6.139
 9922TIP3    H129709   6.260   4.468   6.146
 9922TIP3    H229710   6.398   4.454   6.205
 9923TIP3   OH229711   2.114   6.444   2.043
 9923TIP3    H129712   2.125   6.524   1.991
 9923TIP3    H229713   2.151   6.466   2.128
 9924TIP3   OH229714   7.575   1.531   0.742
 9924TIP3    H129715   7.626   1.481   0.679
 9924TIP3    H229716   7.540   1.605   0.691
 9925TIP3   OH229717   1.880   3.999   4.075
 9925TIP3    H129718   1.839   4.084   4.089
 9925TIP3    H229719   1.916   4.004   3.986
 9926TIP3   OH229720   7.875   6.160   1.311
 9926TIP3    H129721   7.893   6.250   1.285
 9926TIP3    H229722   7.889   6.109   1.232
 9927TIP3   OH229723   0.684   1.096   3.321
 9927TIP3    H129724   0.658   1.004   3.327
 9927TIP3    H229725   0.773   1.098   3.356
 9928TIP3   OH229726   4.110   2.841   1.484
 9928TIP3    H129727   4.078   2.924   1.519
 9928TIP3    H229728   4.200   2.835   1.514
 9929TIP3   OH229729   2.995   6.333   4.998
 9929TIP3    H129730   3.013   6.252   5.046
 9929TIP3    H229731   3.074   6.386   5.009
 9930TIP3   OH229732   2.441   4.435   4.750
 9930TIP3    H129733   2.520   4.482   4.776
 9930TIP3    H229734   2.393   4.422   4.832
 9931TIP3   OH229735   2.381   0.410   5.139
 9931TIP3    H129736   2.397   0.366   5.222
 9931TIP3    H229737   2.325   0.349   5.091
 9932TIP3   OH229738   7.131   3.891   6.117
 9932TIP3    H129739   7.221   3.861   6.103
 9932TIP3    H229740   7.142   3.977   6.159
 9933TIP3   OH229741   0.706   0.703   0.354
 9933TIP3    H129742   0.727   0.767   0.422
 9933TIP3    H229743   0.610   0.706   0.347
 9934TIP3   OH229744   6.227   5.817   1.324
 9934TIP3    H129745   6.198   5.848   1.238
 9934TIP3    H229746   6.276   5.736   1.305
 9935TIP3   OH229747   0.743   7.019   2.311
 9935TIP3    H129748   0.820   6.988   2.262
 9935TIP3    H229749   0.677   6.952   2.295
 9936TIP3   OH229750   4.725   1.667   2.278
 9936TIP3    H129751   4.786   1.651   2.350
 9936TIP3    H229752   4.692   1.755   2.294
 9937TIP3   OH229753   6.273   4.587   1.196
 9937TIP3    H129754   6.270   4.676   1.161
 9937TIP3    H229755   6.303   4.534   1.123
 9938TIP3   OH229756   6.478   0.852   1.413
 9938TIP3    H129757   6.495   0.907   1.489
 9938TIP3    H229758   6.515   0.901   1.339
 9939TIP3   OH229759   0.415   2.770   3.036
 9939TIP3    H129760   0.479   2.841   3.029
 9939TIP3    H229761   0.331   2.815   3.043
 9940TIP3   OH229762   7.648   2.964   0.754
 9940TIP3    H129763   7.699   3.031   0.801
 9940TIP3    H229764   7.709   2.928   0.690
 9941TIP3   OH229765   0.898   6.695   2.390
 9941TIP3    H129766   0.930   6.680   2.301
 9941TIP3    H229767   0.803   6.694   2.382
 9942TIP3   OH229768   3.278   1.214   2.428
 9942TIP3    H129769   3.332   1.258   2.363
 9942TIP3    H229770   3.319   1.235   2.512
 9943TIP3   OH229771   3.238   1.012   1.669
 9943TIP3    H129772   3.247   1.056   1.754
 9943TIP3    H229773   3.155   1.044   1.634
 9944TIP3   OH229774   7.448   5.969   4.792
 9944TIP3    H129775   7.362   5.929   4.784
 9944TIP3    H229776   7.464   5.975   4.886
 9945TIP3   OH229777   0.880   5.179   5.880
 9945TIP3    H129778   0.890   5.120   5.806
 9945TIP3    H229779   0.803   5.232   5.858
 9946TIP3   OH229780   1.468   3.459   3.514
 9946TIP3    H129781   1.403   3.394   3.487
 9946TIP3    H229782   1.509   3.488   3.433
 9947TIP3   OH229783   0.131   6.049   1.286
 9947TIP3    H129784   0.194   5.997   1.335
 9947TIP3    H229785   0.123   6.130   1.336
 9948TIP3   OH229786   1.224   3.325   4.552
 9948TIP3    H129787   1.317   3.313   4.574
 9948TIP3    H229788   1.225   3.389   4.481
 9949TIP3   OH229789   2.537   0.392   1.587
 9949TIP3    H129790   2.451   0.428   1.567
 9949TIP3    H229791   2.539   0.385   1.682
 9950TIP3   OH229792   3.164   5.695   1.099
 9950TIP3    H129793   3.156   5.790   1.091
 9950TIP3    H229794   3.086   5.660   1.056
 9951TIP3   OH229795   6.509   6.562   4.381
 9951TIP3    H129796   6.521   6.508   4.460
 9951TIP3    H229797   6.437   6.620   4.403
 9952TIP3   OH229798   5.122   4.063   1.144
 9952TIP3    H129799   5.032   4.094   1.130
 9952TIP3    H229800   5.164   4.132   1.194
 9953TIP3   OH229801   3.462   4.482   3.293
 9953TIP3    H129802   3.469   4.394   3.254
 9953TIP3    H229803   3.402   4.529   3.235
 9954TIP3   OH229804   0.671   6.421   2.274
 9954TIP3    H129805   0.578   6.406   2.255
 9954TIP3    H229806   0.671   6.463   2.360
 9955TIP3   OH229807   3.156   2.102   6.090
 9955TIP3    H129808   3.211   2.070   6.019
 9955TIP3    H229809   3.200   2.071   6.170
 9956TIP3   OH229810   2.052   0.814   1.940
 9956TIP3    H129811   2.024   0.837   1.851
 9956TIP3    H229812   2.139   0.853   1.949
 9957TIP3   OH229813   3.269   7.657   0.871
 9957TIP3    H129814   3.254   7.564   0.856
 9957TIP3    H229815   3.321   7.686   0.796
 9958TIP3   OH229816   2.513   0.955   3.936
 9958TIP3    H129817   2.603   0.982   3.957
 9958TIP3    H229818   2.521   0.907   3.854
 9959TIP3   OH229819   6.546   0.415   0.495
 9959TIP3    H129820   6.576   0.460   0.574
 9959TIP3    H229821   6.571   0.324   0.509
 9960TIP3   OH229822   3.358   0.855   5.484
 9960TIP3    H129823   3.294   0.855   5.555
 9960TIP3    H229824   3.307   0.835   5.405
 9961TIP3   OH229825   2.635   3.630   2.893
 9961TIP3    H129826   2.615   3.720   2.919
 9961TIP3    H229827   2.708   3.605   2.950
 9962TIP3   OH229828   4.485   5.376   0.504
 9962TIP3    H129829   4.428   5.426   0.446
 9962TIP3    H229830   4.475   5.416   0.590
 9963TIP3   OH229831   5.525   1.672   3.217
 9963TIP3    H129832   5.488   1.701   3.301
 9963TIP3    H229833   5.611   1.637   3.240
 9964TIP3   OH229834   5.598   1.695   4.578
 9964TIP3    H129835   5.614   1.620   4.635
 9964TIP3    H229836   5.673   1.753   4.591
 9965TIP3   OH229837  -0.001   0.708   3.268
 9965TIP3    H129838  -0.022   0.756   3.188
 9965TIP3    H229839   0.094   0.700   3.268
 9966TIP3   OH229840   4.282   4.666   1.389
 9966TIP3    H129841   4.332   4.745   1.408
 9966TIP3    H229842   4.191   4.693   1.397
 9967TIP3   OH229843   0.933   5.009   2.279
 9967TIP3    H129844   0.985   4.929   2.278
 9967TIP3    H229845   0.865   4.993   2.344
 9968TIP3   OH229846   3.146   6.948   1.946
 9968TIP3    H129847   3.054   6.936   1.923
 9968TIP3    H229848   3.151   7.039   1.976
 9969TIP3   OH229849   6.857   0.150   0.020
 9969TIP3    H129850   6.928   0.140   0.083
 9969TIP3    H229851   6.819   0.235   0.040
 9970TIP3   OH229852   6.339   0.581   0.606
 9970TIP3    H129853   6.400   0.632   0.658
 9970TIP3    H229854   6.392   0.510   0.569
 9971TIP3   OH229855   2.731   4.906   1.408
 9971TIP3    H129856   2.672   4.961   1.356
 9971TIP3    H229857   2.739   4.826   1.357
 9972TIP3   OH229858   4.371   7.400   0.118
 9972TIP3    H129859   4.368   7.305   0.129
 9972TIP3    H229860   4.441   7.415   0.054
 9973TIP3   OH229861   7.622   1.927   2.991
 9973TIP3    H129862   7.560   1.977   2.938
 9973TIP3    H229863   7.566   1.879   3.053
 9974TIP3   OH229864   7.073   3.988   3.929
 9974TIP3    H129865   7.022   3.919   3.972
 9974TIP3    H229866   7.018   4.018   3.857
 9975TIP3   OH229867   0.661   0.930   5.905
 9975TIP3    H129868   0.604   1.005   5.920
 9975TIP3    H229869   0.623   0.886   5.828
 9976TIP3   OH229870   5.540   2.257   3.306
 9976TIP3    H129871   5.494   2.288   3.228
 9976TIP3    H229872   5.621   2.308   3.309
 9977TIP3   OH229873   1.639   1.147   3.955
 9977TIP3    H129874   1.590   1.065   3.956
 9977TIP3    H229875   1.573   1.215   3.939
 9978TIP3   OH229876   4.638   0.967   0.234
 9978TIP3    H129877   4.646   0.941   0.142
 9978TIP3    H229878   4.588   0.895   0.274
 9979TIP3   OH229879   8.088   6.347   4.937
 9979TIP3    H129880   8.143   6.281   4.894
 9979TIP3    H229881   8.086   6.420   4.875
 9980TIP3   OH229882   7.549   3.895   3.436
 9980TIP3    H129883   7.580   3.826   3.377
 9980TIP3    H229884   7.605   3.970   3.415
 9981TIP3   OH229885   1.648   3.342   1.174
 9981TIP3    H129886   1.622   3.263   1.127
 9981TIP3    H229887   1.580   3.407   1.153
 9982TIP3   OH229888   0.279   5.466   3.706
 9982TIP3    H129889   0.221   5.447   3.633
 9982TIP3    H229890   0.311   5.381   3.734
 9983TIP3   OH229891   5.808   2.375   1.371
 9983TIP3    H129892   5.904   2.373   1.372
 9983TIP3    H229893   5.783   2.361   1.462
 9984TIP3   OH229894   6.812   2.851   5.810
 9984TIP3    H129895   6.835   2.927   5.864
 9984TIP3    H229896   6.749   2.803   5.864
 9985TIP3   OH229897   5.776   5.607   6.745
 9985TIP3    H129898   5.836   5.620   6.819
 9985TIP3    H229899   5.826   5.636   6.669
 9986TIP3   OH229900   2.096   4.003   3.588
 9986TIP3    H129901   2.049   3.920   3.580
 9986TIP3    H229902   2.160   4.001   3.517
 9987TIP3   OH229903   7.145   5.532   6.334
 9987TIP3    H129904   7.080   5.600   6.314
 9987TIP3    H229905   7.127   5.462   6.272
 9988TIP3   OH229906   2.343   2.217   6.489
 9988TIP3    H129907   2.318   2.125   6.499
 9988TIP3    H229908   2.290   2.263   6.554
 9989TIP3   OH229909   3.024   4.546   6.034
 9989TIP3    H129910   3.076   4.569   6.111
 9989TIP3    H229911   2.943   4.596   6.044
 9990TIP3   OH229912   7.637   6.170   4.117
 9990TIP3    H129913   7.642   6.134   4.029
 9990TIP3    H229914   7.546   6.199   4.126
 9991TIP3   OH229915   1.034   3.471   5.903
 9991TIP3    H129916   1.072   3.424   5.829
 9991TIP3    H229917   0.978   3.538   5.863
 9992TIP3   OH229918   5.866   1.794   4.747
 9992TIP3    H129919   5.910   1.715   4.779
 9992TIP3    H229920   5.852   1.848   4.824
 9993TIP3   OH229921   1.515   1.156   0.130
 9993TIP3    H129922   1.459   1.231   0.113
 9993TIP3    H229923   1.507   1.142   0.225
 9994TIP3   OH229924   1.785   4.521   1.014
 9994TIP3    H129925   1.809   4.430   1.031
 9994TIP3    H229926   1.867   4.569   1.020
 9995TIP3   OH229927   3.672   3.740   5.339
 9995TIP3    H129928   3.589   3.776   5.307
 9995TIP3    H229929   3.646   3.682   5.411
 9996TIP3   OH229930   0.302   6.442   1.985
 9996TIP3    H129931   0.340   6.506   2.045
 9996TIP3    H229932   0.324   6.475   1.898
 9997TIP3   OH229933   0.316   5.887  -0.022
 9997TIP3    H129934   0.281   5.847   0.057
 9997TIP3    H229935   0.344   5.974   0.006
 9998TIP3   OH229936   6.938   2.320   0.833
 9998TIP3    H129937   6.939   2.291   0.925
 9998TIP3    H229938   6.880   2.259   0.789
 9999TIP3   OH229939   0.648   0.537   3.979
 9999TIP3    H129940   0.557   0.543   3.950
 9999TIP3    H229941   0.648   0.575   4.067
10000TIP3   OH229942   1.221   2.011   3.885
10000TIP3    H129943   1.245   2.054   3.967
10000TIP3    H229944   1.203   2.083   3.825
10001TIP3   OH229945   5.829   3.363   5.123
10001TIP3    H129946   5.741   3.391   5.146
10001TIP3    H229947   5.824   3.342   5.030
10002TIP3   OH229948   2.775   0.419   0.320
10002TIP3    H129949   2.838   0.472   0.369
10002TIP3    H229950   2.721   0.482   0.273
10003TIP3   OH229951   3.446   3.428   6.465
10003TIP3    H129952   3.420   3.491   6.397
10003TIP3    H229953   3.456   3.345   6.417
10004TIP3   OH229954   7.327   5.713   5.627
10004TIP3    H129955   7.250   5.768   5.637
10004TIP3    H229956   7.299   5.643   5.568
10005TIP3   OH229957   0.298   6.337   2.803
10005TIP3    H129958   0.293   6.430   2.823
10005TIP3    H229959   0.235   6.295   2.862
10006TIP3   OH229960   5.725   3.157   3.276
10006TIP3    H129961   5.815   3.173   3.247
10006TIP3    H229962   5.685   3.244   3.278
10007TIP3   OH229963   5.251   0.832   2.651
10007TIP3    H129964   5.285   0.746   2.628
10007TIP3    H229965   5.311   0.894   2.611
10008TIP3   OH229966   6.857   6.769   4.724
10008TIP3    H129967   6.946   6.804   4.721
10008TIP3    H229968   6.824   6.780   4.635
10009TIP3   OH229969   0.575   6.706   1.845
10009TIP3    H129970   0.512   6.778   1.857
10009TIP3    H229971   0.585   6.698   1.750
10010TIP3   OH229972   7.440   1.477   0.253
10010TIP3    H129973   7.346   1.463   0.257
10010TIP3    H229974   7.450   1.567   0.219
10011TIP3   OH229975   0.189   0.901   3.079
10011TIP3    H129976   0.160   0.949   3.157
10011TIP3    H229977   0.227   0.820   3.114
10012TIP3   OH229978   0.647   0.807   3.380
10012TIP3    H129979   0.677   0.727   3.336
10012TIP3    H229980   0.567   0.831   3.334
10013TIP3   OH229981   6.697   1.364   3.678
10013TIP3    H129982   6.719   1.306   3.751
10013TIP3    H229983   6.780   1.378   3.633
10014TIP3   OH229984   6.929   1.579   3.031
10014TIP3    H129985   6.837   1.579   3.059
10014TIP3    H229986   6.930   1.637   2.954
10015TIP3   OH229987   7.504   0.637   3.504
10015TIP3    H129988   7.465   0.698   3.442
10015TIP3    H229989   7.598   0.654   3.499
10016TIP3   OH229990   0.716   6.353   4.131
10016TIP3    H129991   0.623   6.354   4.154
10016TIP3    H229992   0.745   6.444   4.143
10017TIP3   OH229993   8.078   6.471   4.253
10017TIP3    H129994   8.107   6.383   4.279
10017TIP3    H229995   8.047   6.511   4.334
10018TIP3   OH229996   6.680   4.188   2.483
10018TIP3    H129997   6.730   4.217   2.559
10018TIP3    H229998   6.609   4.252   2.475
10019TIP3   OH229999   4.853   5.324   1.488
10019TIP3    H130000   4.944   5.295   1.485
10019TIP3    H230001   4.802   5.243   1.496
10020TIP3   OH230002   7.796   6.989   5.824
10020TIP3    H130003   7.873   7.036   5.858
10020TIP3    H230004   7.731   6.995   5.895
10021TIP3   OH230005   2.772   3.933   2.920
10021TIP3    H130006   2.864   3.904   2.923
10021TIP3    H230007   2.733   3.896   2.999
10022TIP3   OH230008   1.413   1.803   5.569
10022TIP3    H130009   1.325   1.841   5.569
10022TIP3    H230010   1.467   1.868   5.612
10023TIP3   OH230011   3.825   6.819   1.881
10023TIP3    H130012   3.915   6.846   1.896
10023TIP3    H230013   3.824   6.789   1.790
10024TIP3   OH230014   0.433   1.407   6.189
10024TIP3    H130015   0.376   1.338   6.158
10024TIP3    H230016   0.493   1.363   6.249
10025TIP3   OH230017   3.797   3.791   6.445
10025TIP3    H130018   3.872   3.743   6.410
10025TIP3    H230019   3.833   3.876   6.471
10026TIP3   OH230020   0.013   7.640   3.761
10026TIP3    H130021   0.028   7.611   3.851
10026TIP3    H230022   0.098   7.630   3.718
10027TIP3   OH230023   5.374   1.444   5.442
10027TIP3    H130024   5.284   1.457   5.473
10027TIP3    H230025   5.417   1.397   5.514
10028TIP3   OH230026   6.120   5.205   3.599
10028TIP3    H130027   6.140   5.222   3.691
10028TIP3    H230028   6.099   5.111   3.596
10029TIP3   OH230029   7.372   5.019   0.057
10029TIP3    H130030   7.334   5.010   0.144
10029TIP3    H230031   7.320   4.959   0.002
10030TIP3   OH230032   5.999   7.760   3.735
10030TIP3    H130033   5.959   7.754   3.648
10030TIP3    H230034   5.944   7.703   3.790
10031TIP3   OH230035   7.933   1.314   0.834
10031TIP3    H130036   7.876   1.366   0.777
10031TIP3    H230037   7.889   1.314   0.919
10032TIP3   OH230038   7.941   0.409   4.405
10032TIP3    H130039   7.989   0.326   4.407
10032TIP3    H230040   7.962   0.451   4.489
10033TIP3   OH230041   3.242   6.140   4.390
10033TIP3    H130042   3.176   6.163   4.455
10033TIP3    H230043   3.266   6.050   4.409
10034TIP3   OH230044   7.998   3.858   2.740
10034TIP3    H130045   7.929   3.877   2.805
10034TIP3    H230046   8.039   3.943   2.725
10035TIP3   OH230047   5.154   5.266   1.880
10035TIP3    H130048   5.200   5.259   1.963
10035TIP3    H230049   5.222   5.290   1.817
10036TIP3   OH230050   6.932   5.898   2.164
10036TIP3    H130051   6.957   5.917   2.074
10036TIP3    H230052   7.015   5.899   2.213
10037TIP3   OH230053   6.672   5.903   1.553
10037TIP3    H130054   6.696   5.819   1.592
10037TIP3    H230055   6.625   5.949   1.622
10038TIP3   OH230056   5.740   2.649   0.498
10038TIP3    H130057   5.773   2.655   0.408
10038TIP3    H230058   5.658   2.601   0.490
10039TIP3   OH230059   2.245   4.369   6.193
10039TIP3    H130060   2.290   4.423   6.259
10039TIP3    H230061   2.152   4.382   6.211
10040TIP3   OH230062   6.118   4.855   4.291
10040TIP3    H130063   6.110   4.826   4.382
10040TIP3    H230064   6.197   4.812   4.259
10041TIP3   OH230065   1.351   3.645   5.446
10041TIP3    H130066   1.345   3.673   5.355
10041TIP3    H230067   1.261   3.627   5.471
10042TIP3   OH230068   4.396   1.702   1.596
10042TIP3    H130069   4.346   1.624   1.622
10042TIP3    H230070   4.334   1.754   1.544
10043TIP3   OH230071   1.992   0.148   6.251
10043TIP3    H130072   1.934   0.082   6.213
10043TIP3    H230073   2.000   0.214   6.183
10044TIP3   OH230074   7.206   5.496   4.045
10044TIP3    H130075   7.271   5.566   4.036
10044TIP3    H230076   7.186   5.471   3.954
10045TIP3   OH230077   8.192   4.859   4.017
10045TIP3    H130078   8.199   4.822   3.929
10045TIP3    H230079   8.122   4.808   4.059
10046TIP3   OH230080   6.822   5.554   6.604
10046TIP3    H130081   6.759   5.517   6.666
10046TIP3    H230082   6.896   5.493   6.606
10047TIP3   OH230083   0.507   6.443   4.511
10047TIP3    H130084   0.560   6.374   4.472
10047TIP3    H230085   0.567   6.518   4.519
10048TIP3   OH230086   6.692   1.681   3.201
10048TIP3    H130087   6.762   1.652   3.259
10048TIP3    H230088   6.619   1.622   3.221
10049TIP3   OH230089   6.169   4.325   3.654
10049TIP3    H130090   6.127   4.362   3.731
10049TIP3    H230091   6.122   4.244   3.636
10050TIP3   OH230092   3.502   0.177   1.672
10050TIP3    H130093   3.562   0.103   1.682
10050TIP3    H230094   3.559   0.254   1.668
10051TIP3   OH230095   7.360   5.224   4.315
10051TIP3    H130096   7.299   5.163   4.272
10051TIP3    H230097   7.307   5.300   4.336
10052TIP3   OH230098   4.194   1.877   0.729
10052TIP3    H130099   4.151   1.839   0.653
10052TIP3    H230100   4.214   1.967   0.703
10053TIP3   OH230101   5.559   3.533   2.214
10053TIP3    H130102   5.523   3.453   2.175
10053TIP3    H230103   5.521   3.535   2.302
10054TIP3   OH230104   3.495   6.749   1.656
10054TIP3    H130105   3.499   6.763   1.750
10054TIP3    H230106   3.453   6.664   1.645
10055TIP3   OH230107   8.033   2.356   4.605
10055TIP3    H130108   8.127   2.357   4.586
10055TIP3    H230109   7.994   2.414   4.540
10056TIP3   OH230110   3.245   2.497   3.381
10056TIP3    H130111   3.261   2.415   3.429
10056TIP3    H230112   3.319   2.505   3.321
10057TIP3   OH230113   1.042   4.105   0.957
10057TIP3    H130114   1.083   4.189   0.979
10057TIP3    H230115   1.077   4.084   0.870
10058TIP3   OH230116   4.238   6.574   3.882
10058TIP3    H130117   4.308   6.584   3.817
10058TIP3    H230118   4.249   6.485   3.915
10059TIP3   OH230119   3.745   6.275   3.212
10059TIP3    H130120   3.743   6.246   3.303
10059TIP3    H230121   3.819   6.228   3.173
10060TIP3   OH230122   2.348   4.064   0.357
10060TIP3    H130123   2.422   4.067   0.418
10060TIP3    H230124   2.356   3.978   0.315
10061TIP3   OH230125   5.331   4.426   6.386
10061TIP3    H130126   5.274   4.502   6.398
10061TIP3    H230127   5.282   4.354   6.427
10062TIP3   OH230128   1.279   6.158   0.639
10062TIP3    H130129   1.292   6.253   0.629
10062TIP3    H230130   1.357   6.128   0.685
10063TIP3   OH230131   4.347   3.805   1.374
10063TIP3    H130132   4.424   3.787   1.429
10063TIP3    H230133   4.328   3.898   1.390
10064TIP3   OH230134   5.367   4.109   3.553
10064TIP3    H130135   5.342   4.201   3.555
10064TIP3    H230136   5.438   4.104   3.489
10065TIP3   OH230137   1.914   4.286   0.239
10065TIP3    H130138   1.942   4.207   0.192
10065TIP3    H230139   1.979   4.297   0.308
10066TIP3   OH230140   6.770   0.650   4.219
10066TIP3    H130141   6.694   0.592   4.217
10066TIP3    H230142   6.798   0.657   4.128
10067TIP3   OH230143   5.948   0.217   0.777
10067TIP3    H130144   5.932   0.165   0.856
10067TIP3    H230145   5.880   0.190   0.716
10068TIP3   OH230146   5.043   4.612   3.765
10068TIP3    H130147   5.057   4.519   3.751
10068TIP3    H230148   4.992   4.640   3.688
10069TIP3   OH230149   3.619   5.641   0.291
10069TIP3    H130150   3.623   5.737   0.293
10069TIP3    H230151   3.543   5.619   0.345
10070TIP3   OH230152   7.152   3.358   1.588
10070TIP3    H130153   7.201   3.297   1.644
10070TIP3    H230154   7.220   3.405   1.540
10071TIP3   OH230155   2.108   7.386   1.659
10071TIP3    H130156   2.020   7.374   1.696
10071TIP3    H230157   2.096   7.452   1.590
10072TIP3   OH230158   6.241   0.606   2.974
10072TIP3    H130159   6.218   0.519   3.006
10072TIP3    H230160   6.157   0.643   2.945
10073TIP3   OH230161   7.853   0.494   1.050
10073TIP3    H130162   7.921   0.552   1.085
10073TIP3    H230163   7.780   0.501   1.112
10074TIP3   OH230164   2.781   2.413   5.585
10074TIP3    H130165   2.799   2.404   5.491
10074TIP3    H230166   2.867   2.406   5.626
10075TIP3   OH230167   1.090   0.281   6.276
10075TIP3    H130168   1.129   0.331   6.205
10075TIP3    H230169   1.127   0.319   6.356
10076TIP3   OH230170   5.799   6.230   3.121
10076TIP3    H130171   5.832   6.218   3.210
10076TIP3    H230172   5.705   6.240   3.132
10077TIP3   OH230173   2.899   6.953   1.854
10077TIP3    H130174   2.804   6.946   1.844
10077TIP3    H230175   2.925   7.018   1.789
10078TIP3   OH230176   3.739   5.743   4.301
10078TIP3    H130177   3.675   5.707   4.240
10078TIP3    H230178   3.706   5.722   4.387
10079TIP3   OH230179   7.125   2.983   1.425
10079TIP3    H130180   7.160   3.036   1.353
10079TIP3    H230181   7.189   2.992   1.495
10080TIP3   OH230182   1.062   7.529   4.413
10080TIP3    H130183   1.097   7.509   4.326
10080TIP3    H230184   1.062   7.445   4.459
10081TIP3   OH230185   5.859   2.759   5.315
10081TIP3    H130186   5.909   2.832   5.279
10081TIP3    H230187   5.802   2.731   5.243
10082TIP3   OH230188   4.812   6.571   1.462
10082TIP3    H130189   4.788   6.557   1.554
10082TIP3    H230190   4.776   6.496   1.416
10083TIP3   OH230191   2.143   6.899   5.991
10083TIP3    H130192   2.098   6.948   6.060
10083TIP3    H230193   2.103   6.930   5.910
10084TIP3   OH230194   3.785   4.735   4.349
10084TIP3    H130195   3.861   4.776   4.390
10084TIP3    H230196   3.771   4.654   4.398
10085TIP3   OH230197   0.595   1.438   0.382
10085TIP3    H130198   0.534   1.492   0.332
10085TIP3    H230199   0.588   1.351   0.342
10086TIP3   OH230200   1.672   1.181   2.293
10086TIP3    H130201   1.739   1.205   2.357
10086TIP3    H230202   1.694   1.091   2.267
10087TIP3   OH230203   5.460   6.597   5.645
10087TIP3    H130204   5.417   6.558   5.721
10087TIP3    H230205   5.541   6.547   5.636
10088TIP3   OH230206   4.741   4.869   6.092
10088TIP3    H130207   4.695   4.810   6.032
10088TIP3    H230208   4.738   4.954   6.049
10089TIP3   OH230209   4.641   2.439   1.756
10089TIP3    H130210   4.675   2.412   1.841
10089TIP3    H230211   4.564   2.384   1.742
10090TIP3   OH230212   3.794   5.980   6.189
10090TIP3    H130213   3.721   5.938   6.145
10090TIP3    H230214   3.790   6.071   6.162
10091TIP3   OH230215   0.530   0.337   4.403
10091TIP3    H130216   0.454   0.384   4.369
10091TIP3    H230217   0.591   0.334   4.330
10092TIP3   OH230218   0.168   0.642   6.034
10092TIP3    H130219   0.170   0.647   6.129
10092TIP3    H230220   0.081   0.674   6.010
10093TIP3   OH230221   8.179   1.397   6.541
10093TIP3    H130222   8.207   1.454   6.614
10093TIP3    H230223   8.158   1.458   6.470
10094TIP3   OH230224   2.479   6.408   1.645
10094TIP3    H130225   2.495   6.414   1.551
10094TIP3    H230226   2.504   6.319   1.668
10095TIP3   OH230227   0.740   2.810   0.942
10095TIP3    H130228   0.723   2.840   0.852
10095TIP3    H230229   0.701   2.878   0.997
10096TIP3   OH230230   3.128   4.634   4.319
10096TIP3    H130231   3.205   4.687   4.297
10096TIP3    H230232   3.162   4.545   4.328
10097TIP3   OH230233   3.889   0.313   0.847
10097TIP3    H130234   3.835   0.284   0.774
10097TIP3    H230235   3.973   0.268   0.835
10098TIP3   OH230236   1.343   0.449   0.948
10098TIP3    H130237   1.378   0.514   1.009
10098TIP3    H230238   1.324   0.498   0.868
10099TIP3   OH230239   1.990   3.571   5.832
10099TIP3    H130240   2.044   3.567   5.911
10099TIP3    H230241   1.972   3.479   5.810
10100TIP3   OH230242   4.194   1.863   5.221
10100TIP3    H130243   4.187   1.953   5.191
10100TIP3    H230244   4.281   1.858   5.261
10101TIP3   OH230245   5.088   6.996   6.587
10101TIP3    H130246   5.103   7.062   6.519
10101TIP3    H230247   5.058   6.919   6.540
10102TIP3   OH230248   2.351   6.563   3.748
10102TIP3    H130249   2.398   6.596   3.825
10102TIP3    H230250   2.320   6.641   3.703
10103TIP3   OH230251   2.981   4.238   5.583
10103TIP3    H130252   3.076   4.239   5.571
10103TIP3    H230253   2.959   4.326   5.612
10104TIP3   OH230254   0.376   7.333   4.234
10104TIP3    H130255   0.319   7.277   4.287
10104TIP3    H230256   0.435   7.272   4.189
10105TIP3   OH230257   3.506   6.816   3.755
10105TIP3    H130258   3.508   6.907   3.786
10105TIP3    H230259   3.593   6.802   3.717
10106TIP3   OH230260   7.314   7.089   1.528
10106TIP3    H130261   7.265   7.007   1.518
10106TIP3    H230262   7.406   7.061   1.533
10107TIP3   OH230263   3.364   2.619   2.944
10107TIP3    H130264   3.453   2.604   2.912
10107TIP3    H230265   3.355   2.559   3.018
10108TIP3   OH230266   2.457   2.738   5.037
10108TIP3    H130267   2.363   2.734   5.017
10108TIP3    H230268   2.468   2.680   5.112
10109TIP3   OH230269   6.462   3.416   4.100
10109TIP3    H130270   6.481   3.503   4.065
10109TIP3    H230271   6.454   3.360   4.022
10110TIP3   OH230272   6.532   3.257   5.522
10110TIP3    H130273   6.497   3.304   5.598
10110TIP3    H230274   6.502   3.307   5.447
10111TIP3   OH230275   8.055   1.199   4.754
10111TIP3    H130276   8.037   1.107   4.774
10111TIP3    H230277   8.126   1.196   4.689
10112TIP3   OH230278   1.913   2.386   3.498
10112TIP3    H130279   1.848   2.348   3.439
10112TIP3    H230280   1.992   2.335   3.483
10113TIP3   OH230281   7.228   6.001   6.784
10113TIP3    H130282   7.319   6.031   6.792
10113TIP3    H230283   7.232   5.931   6.718
10114TIP3   OH230284   3.832   1.992   0.300
10114TIP3    H130285   3.826   2.001   0.204
10114TIP3    H230286   3.888   2.065   0.327
10115TIP3   OH230287   6.470   6.764   5.540
10115TIP3    H130288   6.435   6.827   5.477
10115TIP3    H230289   6.527   6.707   5.488
10116TIP3   OH230290   6.265   4.330   6.451
10116TIP3    H130291   6.204   4.332   6.525
10116TIP3    H230292   6.349   4.355   6.489
10117TIP3   OH230293   3.187   7.646   3.489
10117TIP3    H130294   3.185   7.601   3.574
10117TIP3    H230295   3.228   7.583   3.429
10118TIP3   OH230296   3.868   0.378   6.740
10118TIP3    H130297   3.875   0.318   6.815
10118TIP3    H230298   3.797   0.342   6.687
10119TIP3   OH230299   6.115   5.917   6.529
10119TIP3    H130300   6.056   5.935   6.603
10119TIP3    H230301   6.089   5.981   6.462
10120TIP3   OH230302   5.240   7.063   1.147
10120TIP3    H130303   5.184   7.133   1.181
10120TIP3    H230304   5.304   7.047   1.217
10121TIP3   OH230305   2.783   5.465   1.552
10121TIP3    H130306   2.806   5.524   1.624
10121TIP3    H230307   2.763   5.381   1.595
10122TIP3   OH230308   3.605   3.722   3.875
10122TIP3    H130309   3.530   3.755   3.924
10122TIP3    H230310   3.638   3.648   3.926
10123TIP3   OH230311   4.812   1.689   4.607
10123TIP3    H130312   4.836   1.640   4.528
10123TIP3    H230313   4.719   1.710   4.596
10124TIP3   OH230314   7.641   2.703   1.257
10124TIP3    H130315   7.593   2.632   1.214
10124TIP3    H230316   7.724   2.663   1.284
10125TIP3   OH230317   1.058   7.474   0.742
10125TIP3    H130318   1.124   7.414   0.706
10125TIP3    H230319   0.999   7.491   0.668
10126TIP3   OH230320   7.487   4.072   6.337
10126TIP3    H130321   7.429   4.026   6.398
10126TIP3    H230322   7.458   4.164   6.343
10127TIP3   OH230323   7.382   4.560   3.123
10127TIP3    H130324   7.306   4.596   3.168
10127TIP3    H230325   7.411   4.488   3.178
10128TIP3   OH230326   1.221   3.548   3.842
10128TIP3    H130327   1.210   3.609   3.915
10128TIP3    H230328   1.312   3.519   3.847
10129TIP3   OH230329   1.592   3.697   0.202
10129TIP3    H130330   1.513   3.730   0.244
10129TIP3    H230331   1.572   3.702   0.108
10130TIP3   OH230332   3.973   6.909   6.004
10130TIP3    H130333   4.051   6.914   6.059
10130TIP3    H230334   3.962   6.816   5.986
10131TIP3   OH230335   3.161   6.796   6.563
10131TIP3    H130336   3.211   6.829   6.489
10131TIP3    H230337   3.092   6.743   6.525
10132TIP3   OH230338   0.265   7.217   1.163
10132TIP3    H130339   0.255   7.137   1.111
10132TIP3    H230340   0.357   7.242   1.151
10133TIP3   OH230341   6.540   5.711   4.199
10133TIP3    H130342   6.527   5.633   4.251
10133TIP3    H230343   6.491   5.695   4.118
10134TIP3   OH230344   5.940   1.846   1.180
10134TIP3    H130345   5.933   1.938   1.203
10134TIP3    H230346   5.945   1.845   1.084
10135TIP3   OH230347   6.611   5.337   3.192
10135TIP3    H130348   6.549   5.335   3.265
10135TIP3    H230349   6.676   5.401   3.217
10136TIP3   OH230350   3.042   2.389   2.979
10136TIP3    H130351   2.984   2.353   2.912
10136TIP3    H230352   3.020   2.482   2.981
10137TIP3   OH230353   2.241   3.021   5.343
10137TIP3    H130354   2.197   2.966   5.408
10137TIP3    H230355   2.169   3.065   5.297
10138TIP3   OH230356   1.024   2.250   5.265
10138TIP3    H130357   0.996   2.333   5.304
10138TIP3    H230358   1.008   2.261   5.172
10139TIP3   OH230359   2.447   0.779   0.429
10139TIP3    H130360   2.519   0.840   0.447
10139TIP3    H230361   2.482   0.693   0.452
10140TIP3   OH230362   2.791   0.626   3.811
10140TIP3    H130363   2.827   0.629   3.723
10140TIP3    H230364   2.861   0.661   3.867
10141TIP3   OH230365   3.753   7.115   5.447
10141TIP3    H130366   3.713   7.151   5.368
10141TIP3    H230367   3.728   7.177   5.516
10142TIP3   OH230368   5.723   6.162   1.102
10142TIP3    H130369   5.683   6.199   1.024
10142TIP3    H230370   5.669   6.195   1.174
10143TIP3   OH230371   2.428   6.468   5.554
10143TIP3    H130372   2.378   6.435   5.479
10143TIP3    H230373   2.423   6.564   5.546
10144TIP3   OH230374  -0.005   3.508   4.251
10144TIP3    H130375   0.024   3.525   4.341
10144TIP3    H230376   0.069   3.465   4.209
10145TIP3   OH230377   1.716   0.581   2.205
10145TIP3    H130378   1.757   0.538   2.130
10145TIP3    H230379   1.782   0.644   2.236
10146TIP3   OH230380   3.783   3.960   0.561
10146TIP3    H130381   3.781   4.055   0.575
10146TIP3    H230382   3.855   3.947   0.499
10147TIP3   OH230383   6.266   1.672   3.311
10147TIP3    H130384   6.243   1.663   3.404
10147TIP3    H230385   6.266   1.766   3.295
10148TIP3   OH230386   7.752   0.505   6.199
10148TIP3    H130387   7.675   0.545   6.239
10148TIP3    H230388   7.745   0.412   6.223
10149TIP3   OH230389   6.920   1.487   2.709
10149TIP3    H130390   6.935   1.475   2.616
10149TIP3    H230391   6.929   1.581   2.724
10150TIP3   OH230392   4.727   4.507   4.054
10150TIP3    H130393   4.724   4.590   4.006
10150TIP3    H230394   4.652   4.511   4.113
10151TIP3   OH230395   5.998   4.865   2.500
10151TIP3    H130396   5.986   4.802   2.572
10151TIP3    H230397   6.052   4.934   2.538
10152TIP3   OH230398   3.785   6.714   2.933
10152TIP3    H130399   3.803   6.650   3.002
10152TIP3    H230400   3.865   6.767   2.928
10153TIP3   OH230401   2.169   7.189   0.109
10153TIP3    H130402   2.128   7.276   0.108
10153TIP3    H230403   2.146   7.154   0.195
10154TIP3   OH230404   1.516   4.925   0.532
10154TIP3    H130405   1.558   4.997   0.485
10154TIP3    H230406   1.551   4.845   0.491
10155TIP3   OH230407   2.544   2.904   1.186
10155TIP3    H130408   2.495   2.869   1.111
10155TIP3    H230409   2.506   2.861   1.262
10156TIP3   OH230410   2.582   1.199   5.311
10156TIP3    H130411   2.582   1.259   5.385
10156TIP3    H230412   2.498   1.214   5.267
10157TIP3   OH230413   2.666   1.270   1.168
10157TIP3    H130414   2.735   1.320   1.123
10157TIP3    H230415   2.711   1.191   1.199
10158TIP3   OH230416   3.657   5.925   0.285
10158TIP3    H130417   3.747   5.911   0.314
10158TIP3    H230418   3.665   5.991   0.216
10159TIP3   OH230419   4.950   2.521   4.464
10159TIP3    H130420   4.870   2.492   4.507
10159TIP3    H230421   4.948   2.617   4.470
10160TIP3   OH230422   5.272   6.774   3.471
10160TIP3    H130423   5.287   6.817   3.387
10160TIP3    H230424   5.180   6.789   3.490
10161TIP3   OH230425   6.156   7.634   2.499
10161TIP3    H130426   6.169   7.715   2.449
10161TIP3    H230427   6.209   7.647   2.578
10162TIP3   OH230428   0.711   7.079   0.140
10162TIP3    H130429   0.710   7.010   0.206
10162TIP3    H230430   0.641   7.139   0.167
10163TIP3   OH230431   2.811   5.168   0.646
10163TIP3    H130432   2.724   5.158   0.684
10163TIP3    H230433   2.810   5.255   0.606
10164TIP3   OH230434   5.984   4.682   2.300
10164TIP3    H130435   5.979   4.735   2.380
10164TIP3    H230436   6.078   4.668   2.287
10165TIP3   OH230437   0.476   4.686   2.338
10165TIP3    H130438   0.389   4.716   2.312
10165TIP3    H230439   0.533   4.759   2.316
10166TIP3   OH230440   3.309   2.241   3.500
10166TIP3    H130441   3.392   2.244   3.548
10166TIP3    H230442   3.316   2.164   3.444
10167TIP3   OH230443   2.934   2.084   4.571
10167TIP3    H130444   2.876   2.133   4.512
10167TIP3    H230445   2.931   2.132   4.653
10168TIP3   OH230446   7.758   2.761   1.699
10168TIP3    H130447   7.665   2.769   1.674
10168TIP3    H230448   7.795   2.847   1.680
10169TIP3   OH230449   0.290   5.492   4.757
10169TIP3    H130450   0.296   5.577   4.714
10169TIP3    H230451   0.375   5.480   4.799
10170TIP3   OH230452   8.264   2.719   3.035
10170TIP3    H130453   8.307   2.638   3.062
10170TIP3    H230454   8.181   2.720   3.083
10171TIP3   OH230455   3.207   4.233   3.718
10171TIP3    H130456   3.168   4.308   3.674
10171TIP3    H230457   3.223   4.262   3.808
10172TIP3   OH230458   0.612   2.640   1.106
10172TIP3    H130459   0.657   2.687   1.035
10172TIP3    H230460   0.521   2.665   1.097
10173TIP3   OH230461   4.386   4.340   0.320
10173TIP3    H130462   4.416   4.270   0.378
10173TIP3    H230463   4.425   4.320   0.235
10174TIP3   OH230464   5.316   7.573   0.792
10174TIP3    H130465   5.306   7.668   0.785
10174TIP3    H230466   5.393   7.561   0.847
10175TIP3   OH230467   4.946   1.544   2.396
10175TIP3    H130468   4.988   1.485   2.334
10175TIP3    H230469   4.943   1.495   2.478
10176TIP3   OH230470   0.419   4.792   3.857
10176TIP3    H130471   0.376   4.753   3.933
10176TIP3    H230472   0.485   4.850   3.895
10177TIP3   OH230473   6.727   2.468   3.409
10177TIP3    H130474   6.774   2.396   3.452
10177TIP3    H230475   6.790   2.540   3.406
10178TIP3   OH230476   3.466   3.505   2.473
10178TIP3    H130477   3.417   3.539   2.398
10178TIP3    H230478   3.483   3.413   2.451
10179TIP3   OH230479   1.575   0.532   2.943
10179TIP3    H130480   1.583   0.621   2.909
10179TIP3    H230481   1.490   0.501   2.912
10180TIP3   OH230482   6.386   4.629   2.926
10180TIP3    H130483   6.381   4.594   3.015
10180TIP3    H230484   6.355   4.557   2.871
10181TIP3   OH230485   4.576   2.034   5.166
10181TIP3    H130486   4.651   2.087   5.139
10181TIP3    H230487   4.614   1.950   5.190
10182TIP3   OH230488   0.112   3.228   4.176
10182TIP3    H130489   0.059   3.274   4.110
10182TIP3    H230490   0.050   3.208   4.246
10183TIP3   OH230491   6.395   1.447   6.138
10183TIP3    H130492   6.489   1.444   6.155
10183TIP3    H230493   6.386   1.508   6.064
10184TIP3   OH230494   0.237   1.523   2.032
10184TIP3    H130495   0.209   1.543   1.943
10184TIP3    H230496   0.198   1.593   2.085
10185TIP3   OH230497   3.415   1.741   3.126
10185TIP3    H130498   3.423   1.821   3.074
10185TIP3    H230499   3.451   1.673   3.069
10186TIP3   OH230500   7.723   5.138   2.839
10186TIP3    H130501   7.657   5.149   2.907
10186TIP3    H230502   7.681   5.084   2.773
10187TIP3   OH230503   0.892   7.668   1.991
10187TIP3    H130504   0.929   7.754   1.973
10187TIP3    H230505   0.806   7.687   2.029
10188TIP3   OH230506   2.353   4.610   3.465
10188TIP3    H130507   2.372   4.667   3.539
10188TIP3    H230508   2.383   4.523   3.493
10189TIP3   OH230509   6.233   6.379   6.647
10189TIP3    H130510   6.183   6.433   6.585
10189TIP3    H230511   6.300   6.439   6.681
10190TIP3   OH230512   1.826   3.170   2.935
10190TIP3    H130513   1.917   3.200   2.931
10190TIP3    H230514   1.798   3.190   3.025
10191TIP3   OH230515   6.077   1.481   0.615
10191TIP3    H130516   6.084   1.413   0.682
10191TIP3    H230517   6.075   1.433   0.533
10192TIP3   OH230518   2.203   7.100   4.875
10192TIP3    H130519   2.162   7.166   4.819
10192TIP3    H230520   2.263   7.151   4.931
10193TIP3   OH230521   7.684   4.071   5.193
10193TIP3    H130522   7.779   4.069   5.203
10193TIP3    H230523   7.669   4.037   5.104
10194TIP3   OH230524   6.995   2.531   2.513
10194TIP3    H130525   6.970   2.621   2.488
10194TIP3    H230526   6.915   2.480   2.500
10195TIP3   OH230527   6.199   1.919   0.229
10195TIP3    H130528   6.216   2.013   0.228
10195TIP3    H230529   6.234   1.889   0.313
10196TIP3   OH230530   6.248   3.679   0.719
10196TIP3    H130531   6.203   3.595   0.718
10196TIP3    H230532   6.322   3.666   0.778
10197TIP3   OH230533   7.429   7.207   5.260
10197TIP3    H130534   7.478   7.134   5.298
10197TIP3    H230535   7.478   7.285   5.285
10198TIP3   OH230536   5.554   1.829   2.784
10198TIP3    H130537   5.603   1.754   2.751
10198TIP3    H230538   5.494   1.852   2.713
10199TIP3   OH230539   8.155   2.795   3.637
10199TIP3    H130540   8.115   2.725   3.688
10199TIP3    H230541   8.237   2.814   3.682
10200TIP3   OH230542   6.929   4.358   2.375
10200TIP3    H130543   6.972   4.330   2.456
10200TIP3    H230544   6.836   4.352   2.394
10201TIP3   OH230545   4.639   4.157   0.504
10201TIP3    H130546   4.708   4.172   0.568
10201TIP3    H230547   4.565   4.209   0.536
10202TIP3   OH230548   0.809   2.589   4.661
10202TIP3    H130549   0.883   2.531   4.645
10202TIP3    H230550   0.753   2.580   4.584
10203TIP3   OH230551   6.793   4.273   2.718
10203TIP3    H130552   6.856   4.205   2.742
10203TIP3    H230553   6.845   4.353   2.713
10204TIP3   OH230554   0.163   1.429   4.635
10204TIP3    H130555   0.166   1.493   4.564
10204TIP3    H230556   0.130   1.479   4.710
10205TIP3   OH230557   1.180   5.699   6.139
10205TIP3    H130558   1.195   5.613   6.178
10205TIP3    H230559   1.207   5.761   6.207
10206TIP3   OH230560   7.283   7.117   6.485
10206TIP3    H130561   7.273   7.026   6.512
10206TIP3    H230562   7.207   7.135   6.430
10207TIP3   OH230563   7.507   7.598   3.017
10207TIP3    H130564   7.446   7.535   3.055
10207TIP3    H230565   7.569   7.545   2.967
10208TIP3   OH230566   2.031   6.549   2.883
10208TIP3    H130567   1.945   6.571   2.847
10208TIP3    H230568   2.017   6.546   2.978
10209TIP3   OH230569   6.693   7.164   5.426
10209TIP3    H130570   6.734   7.098   5.370
10209TIP3    H230571   6.704   7.129   5.514
10210TIP3   OH230572   1.981   5.364   4.076
10210TIP3    H130573   2.069   5.381   4.044
10210TIP3    H230574   1.990   5.358   4.171
10211TIP3   OH230575   1.423   1.811   5.129
10211TIP3    H130576   1.483   1.884   5.147
10211TIP3    H230577   1.481   1.737   5.111
10212TIP3   OH230578   4.603   5.937   0.678
10212TIP3    H130579   4.605   5.926   0.583
10212TIP3    H230580   4.601   6.032   0.691
10213TIP3   OH230581   8.251   0.860   2.499
10213TIP3    H130582   8.261   0.776   2.454
10213TIP3    H230583   8.340   0.893   2.508
10214TIP3   OH230584   7.334   0.834   2.315
10214TIP3    H130585   7.303   0.876   2.395
10214TIP3    H230586   7.315   0.897   2.245
10215TIP3   OH230587   1.696   4.439   5.481
10215TIP3    H130588   1.641   4.363   5.502
10215TIP3    H230589   1.769   4.433   5.543
10216TIP3   OH230590   0.226   6.091   0.216
10216TIP3    H130591   0.183   6.005   0.214
10216TIP3    H230592   0.307   6.076   0.264
10217TIP3   OH230593   4.982   0.826   5.690
10217TIP3    H130594   5.029   0.908   5.707
10217TIP3    H230595   4.907   0.829   5.750
10218TIP3   OH230596   5.173   2.422   3.058
10218TIP3    H130597   5.149   2.434   2.966
10218TIP3    H230598   5.263   2.392   3.056
10219TIP3   OH230599   0.874   0.778   3.024
10219TIP3    H130600   0.822   0.750   2.948
10219TIP3    H230601   0.941   0.710   3.032
10220TIP3   OH230602   7.801   5.764   1.072
10220TIP3    H130603   7.852   5.845   1.079
10220TIP3    H230604   7.722   5.781   1.123
10221TIP3   OH230605   3.884   2.310   6.675
10221TIP3    H130606   3.975   2.292   6.698
10221TIP3    H230607   3.840   2.323   6.760
10222TIP3   OH230608   6.938   7.771   2.432
10222TIP3    H130609   6.870   7.838   2.431
10222TIP3    H230610   6.918   7.717   2.509
10223TIP3   OH230611   7.404   3.918   5.036
10223TIP3    H130612   7.497   3.930   5.019
10223TIP3    H230613   7.360   3.979   4.977
10224TIP3   OH230614   5.070   2.821   4.941
10224TIP3    H130615   5.145   2.881   4.937
10224TIP3    H230616   5.106   2.737   4.911
10225TIP3   OH230617   1.284   0.141   3.891
10225TIP3    H130618   1.263   0.050   3.873
10225TIP3    H230619   1.296   0.146   3.986
10226TIP3   OH230620   3.501   1.256   1.256
10226TIP3    H130621   3.495   1.170   1.298
10226TIP3    H230622   3.414   1.272   1.220
10227TIP3   OH230623   0.105   6.278   4.333
10227TIP3    H130624   0.087   6.222   4.408
10227TIP3    H230625   0.105   6.220   4.257
10228TIP3   OH230626   4.227   5.123   2.151
10228TIP3    H130627   4.266   5.063   2.214
10228TIP3    H230628   4.195   5.067   2.080
10229TIP3   OH230629   4.327   5.499   4.534
10229TIP3    H130630   4.422   5.511   4.537
10229TIP3    H230631   4.295   5.576   4.487
10230TIP3   OH230632   6.707   6.663   3.724
10230TIP3    H130633   6.697   6.699   3.636
10230TIP3    H230634   6.788   6.702   3.757
10231TIP3   OH230635   4.064   4.615   4.838
10231TIP3    H130636   4.028   4.696   4.874
10231TIP3    H230637   4.157   4.619   4.857
10232TIP3   OH230638   3.063   1.260   0.861
10232TIP3    H130639   3.032   1.286   0.948
10232TIP3    H230640   3.071   1.342   0.812
10233TIP3   OH230641   5.264   5.826   3.529
10233TIP3    H130642   5.225   5.834   3.442
10233TIP3    H230643   5.229   5.744   3.564
10234TIP3   OH230644   4.652   3.178   6.241
10234TIP3    H130645   4.701   3.097   6.250
10234TIP3    H230646   4.576   3.154   6.187
10235TIP3   OH230647   1.752   6.601   2.757
10235TIP3    H130648   1.741   6.513   2.720
10235TIP3    H230649   1.671   6.617   2.805
10236TIP3   OH230650   0.493   6.879   2.492
10236TIP3    H130651   0.543   6.942   2.544
10236TIP3    H230652   0.404   6.913   2.492
10237TIP3   OH230653   1.054   0.432   6.765
10237TIP3    H130654   1.053   0.454   6.672
10237TIP3    H230655   1.096   0.346   6.769
10238TIP3   OH230656   3.306   1.117   1.900
10238TIP3    H130657   3.302   1.211   1.918
10238TIP3    H230658   3.282   1.076   1.982
10239TIP3   OH230659   1.549   2.957   6.242
10239TIP3    H130660   1.614   2.893   6.213
10239TIP3    H230661   1.542   2.942   6.336
10240TIP3   OH230662   4.556   0.126   0.637
10240TIP3    H130663   4.571   0.221   0.632
10240TIP3    H230664   4.636   0.087   0.603
10241TIP3   OH230665   4.605   0.632   4.947
10241TIP3    H130666   4.649   0.612   5.030
10241TIP3    H230667   4.675   0.660   4.889
10242TIP3   OH230668   1.825   0.180   2.101
10242TIP3    H130669   1.807   0.229   2.181
10242TIP3    H230670   1.740   0.146   2.073
10243TIP3   OH230671   2.943   2.642   3.020
10243TIP3    H130672   2.909   2.704   2.955
10243TIP3    H230673   2.979   2.696   3.090
10244TIP3   OH230674   0.036   0.178   5.320
10244TIP3    H130675   0.105   0.230   5.361
10244TIP3    H230676   0.079   0.097   5.293
10245TIP3   OH230677   1.251   5.087   4.461
10245TIP3    H130678   1.188   5.113   4.394
10245TIP3    H230679   1.268   5.167   4.510
10246TIP3   OH230680   3.168   4.299   1.987
10246TIP3    H130681   3.121   4.382   1.996
10246TIP3    H230682   3.185   4.272   2.077
10247TIP3   OH230683   7.463   1.824   1.117
10247TIP3    H130684   7.485   1.734   1.096
10247TIP3    H230685   7.485   1.833   1.210
10248TIP3   OH230686   4.418   4.154   3.344
10248TIP3    H130687   4.335   4.111   3.326
10248TIP3    H230688   4.456   4.170   3.258
10249TIP3   OH230689   2.369   1.211   5.530
10249TIP3    H130690   2.284   1.178   5.560
10249TIP3    H230691   2.421   1.133   5.514
10250TIP3   OH230692   7.521   6.655   3.949
10250TIP3    H130693   7.560   6.675   4.035
10250TIP3    H230694   7.570   6.710   3.888
10251TIP3   OH230695   3.190   2.031   2.068
10251TIP3    H130696   3.217   2.011   2.157
10251TIP3    H230697   3.106   1.986   2.057
10252TIP3   OH230698   1.107   6.598   3.709
10252TIP3    H130699   1.109   6.661   3.636
10252TIP3    H230700   1.074   6.648   3.783
10253TIP3   OH230701   4.916   5.224   6.479
10253TIP3    H130702   4.928   5.149   6.538
10253TIP3    H230703   4.821   5.237   6.476
10254TIP3   OH230704   3.654   0.317   1.032
10254TIP3    H130705   3.604   0.275   0.962
10254TIP3    H230706   3.724   0.364   0.986
10255TIP3   OH230707   1.696   4.563   0.726
10255TIP3    H130708   1.617   4.509   0.718
10255TIP3    H230709   1.710   4.570   0.820
10256TIP3   OH230710   0.761   1.764   4.274
10256TIP3    H130711   0.795   1.785   4.187
10256TIP3    H230712   0.778   1.670   4.283
10257TIP3   OH230713   1.063   5.047   3.191
10257TIP3    H130714   1.086   5.053   3.284
10257TIP3    H230715   1.050   5.138   3.164
10258TIP3   OH230716   3.690   5.168   0.219
10258TIP3    H130717   3.618   5.111   0.193
10258TIP3    H230718   3.768   5.123   0.185
10259TIP3   OH230719   1.517   6.186   1.280
10259TIP3    H130720   1.488   6.097   1.261
10259TIP3    H230721   1.549   6.220   1.197
10260TIP3   OH230722   6.078   6.266   4.964
10260TIP3    H130723   6.133   6.337   4.995
10260TIP3    H230724   6.095   6.194   5.025
10261TIP3   OH230725   2.089   7.682   4.331
10261TIP3    H130726   2.070   7.650   4.243
10261TIP3    H230727   2.006   7.674   4.378
10262TIP3   OH230728   3.801   7.738   1.619
10262TIP3    H130729   3.875   7.780   1.663
10262TIP3    H230730   3.727   7.795   1.638
10263TIP3   OH230731   0.555   7.064   1.480
10263TIP3    H130732   0.543   7.143   1.427
10263TIP3    H230733   0.616   7.089   1.548
10264TIP3   OH230734   0.987   3.550   3.394
10264TIP3    H130735   1.013   3.596   3.314
10264TIP3    H230736   0.892   3.539   3.386
10265TIP3   OH230737   0.425   0.050   3.161
10265TIP3    H130738   0.388   0.124   3.209
10265TIP3    H230739   0.369   0.040   3.084
10266TIP3   OH230740   4.923   7.400   1.908
10266TIP3    H130741   5.003   7.401   1.856
10266TIP3    H230742   4.942   7.341   1.981
10267TIP3   OH230743   7.375   4.874   0.439
10267TIP3    H130744   7.305   4.877   0.374
10267TIP3    H230745   7.384   4.964   0.470
10268TIP3   OH230746   6.460   0.337   5.462
10268TIP3    H130747   6.555   0.345   5.455
10268TIP3    H230748   6.436   0.278   5.390
10269TIP3   OH230749   6.103   1.149   4.807
10269TIP3    H130750   6.123   1.057   4.789
10269TIP3    H230751   6.084   1.152   4.900
10270TIP3   OH230752   2.451   4.046   0.840
10270TIP3    H130753   2.367   4.064   0.883
10270TIP3    H230754   2.516   4.055   0.909
10271TIP3   OH230755   8.240   5.684   0.209
10271TIP3    H130756   8.222   5.607   0.262
10271TIP3    H230757   8.202   5.757   0.257
10272TIP3   OH230758   2.930   3.644   4.693
10272TIP3    H130759   3.006   3.641   4.751
10272TIP3    H230760   2.859   3.606   4.746
10273TIP3   OH230761   7.500   2.128   3.202
10273TIP3    H130762   7.581   2.084   3.175
10273TIP3    H230763   7.435   2.102   3.136
10274TIP3   OH230764   4.235   7.772   3.154
10274TIP3    H130765   4.289   7.734   3.085
10274TIP3    H230766   4.278   7.745   3.235
10275TIP3   OH230767   8.132   5.342   4.783
10275TIP3    H130768   8.097   5.407   4.722
10275TIP3    H230769   8.063   5.333   4.849
10276TIP3   OH230770   5.522   4.372   5.434
10276TIP3    H130771   5.599   4.322   5.405
10276TIP3    H230772   5.528   4.370   5.530
10277TIP3   OH230773   6.277   5.658   0.085
10277TIP3    H130774   6.216   5.679   0.014
10277TIP3    H230775   6.277   5.736   0.141
10278TIP3   OH230776   0.367   2.427   4.856
10278TIP3    H130777   0.331   2.506   4.815
10278TIP3    H230778   0.329   2.354   4.807
10279TIP3   OH230779   7.685   7.646   4.937
10279TIP3    H130780   7.718   7.617   4.852
10279TIP3    H230781   7.614   7.586   4.958
10280TIP3   OH230782   2.813   1.393   0.215
10280TIP3    H130783   2.906   1.409   0.198
10280TIP3    H230784   2.780   1.476   0.249
10281TIP3   OH230785   6.350   0.809   4.368
10281TIP3    H130786   6.259   0.811   4.338
10281TIP3    H230787   6.356   0.879   4.433
10282TIP3   OH230788   4.105   3.769   1.046
10282TIP3    H130789   4.067   3.695   1.094
10282TIP3    H230790   4.065   3.846   1.087
10283TIP3   OH230791   6.498   2.316   6.035
10283TIP3    H130792   6.473   2.276   5.952
10283TIP3    H230793   6.432   2.384   6.050
10284TIP3   OH230794   6.780   2.137   0.203
10284TIP3    H130795   6.753   2.204   0.140
10284TIP3    H230796   6.699   2.093   0.227
10285TIP3   OH230797   6.862   1.632   6.541
10285TIP3    H130798   6.920   1.639   6.617
10285TIP3    H230799   6.840   1.539   6.535
10286TIP3   OH230800   7.128   3.130   5.332
10286TIP3    H130801   7.047   3.160   5.373
10286TIP3    H230802   7.099   3.080   5.256
10287TIP3   OH230803   6.301   1.970   6.518
10287TIP3    H130804   6.232   1.914   6.554
10287TIP3    H230805   6.308   2.042   6.581
10288TIP3   OH230806   0.568   2.469   0.354
10288TIP3    H130807   0.512   2.424   0.292
10288TIP3    H230808   0.574   2.410   0.429
10289TIP3   OH230809   5.588   6.780   6.208
10289TIP3    H130810   5.525   6.808   6.142
10289TIP3    H230811   5.572   6.686   6.219
10290TIP3   OH230812   7.698   7.201   1.634
10290TIP3    H130813   7.653   7.283   1.613
10290TIP3    H230814   7.791   7.225   1.638
10291TIP3   OH230815   2.045   1.983   2.809
10291TIP3    H130816   1.976   1.981   2.743
10291TIP3    H230817   2.021   1.914   2.871
10292TIP3   OH230818   6.631   1.328   2.123
10292TIP3    H130819   6.599   1.378   2.047
10292TIP3    H230820   6.705   1.279   2.088
10293TIP3   OH230821   2.947   0.847   3.091
10293TIP3    H130822   2.951   0.861   2.997
10293TIP3    H230823   2.854   0.856   3.112
10294TIP3   OH230824   1.194   1.740   3.804
10294TIP3    H130825   1.278   1.720   3.762
10294TIP3    H230826   1.212   1.818   3.857
10295TIP3   OH230827   7.502   5.788   0.914
10295TIP3    H130828   7.523   5.766   1.005
10295TIP3    H230829   7.549   5.723   0.862
10296TIP3   OH230830   3.976   2.659   4.489
10296TIP3    H130831   3.975   2.640   4.583
10296TIP3    H230832   3.995   2.575   4.447
10297TIP3   OH230833   4.317   4.238   2.618
10297TIP3    H130834   4.227   4.238   2.584
10297TIP3    H230835   4.365   4.179   2.560
10298TIP3   OH230836   1.541   4.550   5.751
10298TIP3    H130837   1.558   4.511   5.665
10298TIP3    H230838   1.459   4.509   5.780
10299TIP3   OH230839   4.985   6.789   1.590
10299TIP3    H130840   5.028   6.872   1.574
10299TIP3    H230841   5.030   6.727   1.533
10300TIP3   OH230842   3.065   1.216   3.577
10300TIP3    H130843   3.091   1.221   3.669
10300TIP3    H230844   2.978   1.176   3.577
10301TIP3   OH230845   3.657   6.769   4.744
10301TIP3    H130846   3.653   6.822   4.823
10301TIP3    H230847   3.750   6.756   4.728
10302TIP3   OH230848   6.854   2.683   2.157
10302TIP3    H130849   6.912   2.747   2.115
10302TIP3    H230850   6.765   2.715   2.137
10303TIP3   OH230851   0.537   7.749   6.082
10303TIP3    H130852   0.479   7.754   6.007
10303TIP3    H230853   0.621   7.785   6.051
10304TIP3   OH230854   7.691   3.334   2.285
10304TIP3    H130855   7.618   3.362   2.341
10304TIP3    H230856   7.706   3.409   2.227
10305TIP3   OH230857   6.414   0.691   2.132
10305TIP3    H130858   6.420   0.787   2.134
10305TIP3    H230859   6.326   0.673   2.098
10306TIP3   OH230860   7.572   2.962   6.559
10306TIP3    H130861   7.527   3.026   6.615
10306TIP3    H230862   7.511   2.889   6.552
10307TIP3   OH230863   6.801   1.875   5.541
10307TIP3    H130864   6.762   1.791   5.565
10307TIP3    H230865   6.861   1.854   5.470
10308TIP3   OH230866   2.434   1.136   3.659
10308TIP3    H130867   2.519   1.174   3.638
10308TIP3    H230868   2.455   1.056   3.708
10309TIP3   OH230869   6.644   5.389   2.691
10309TIP3    H130870   6.671   5.347   2.609
10309TIP3    H230871   6.548   5.379   2.692
10310TIP3   OH230872   2.706   5.484   4.268
10310TIP3    H130873   2.707   5.429   4.346
10310TIP3    H230874   2.793   5.525   4.266
10311TIP3   OH230875   2.990   3.721   5.550
10311TIP3    H130876   3.018   3.809   5.578
10311TIP3    H230877   2.998   3.722   5.455
10312TIP3   OH230878   3.125   4.772   4.061
10312TIP3    H130879   3.090   4.721   4.134
10312TIP3    H230880   3.177   4.709   4.011
10313TIP3   OH230881   1.168   6.549   4.623
10313TIP3    H130882   1.212   6.563   4.539
10313TIP3    H230883   1.146   6.637   4.654
10314TIP3   OH230884   4.031   6.371   4.932
10314TIP3    H130885   3.964   6.304   4.942
10314TIP3    H230886   4.008   6.439   4.995
10315TIP3   OH230887   0.501   7.566   1.199
10315TIP3    H130888   0.417   7.610   1.188
10315TIP3    H230889   0.548   7.583   1.118
10316TIP3   OH230890   0.755   3.379   2.846
10316TIP3    H130891   0.721   3.323   2.776
10316TIP3    H230892   0.804   3.319   2.903
10317TIP3   OH230893   4.615   1.935   1.451
10317TIP3    H130894   4.658   2.019   1.435
10317TIP3    H230895   4.561   1.920   1.373
10318TIP3   OH230896   3.628   2.871   5.162
10318TIP3    H130897   3.666   2.830   5.085
10318TIP3    H230898   3.650   2.813   5.235
10319TIP3   OH230899   3.525   1.218   5.549
10319TIP3    H130900   3.514   1.134   5.594
10319TIP3    H230901   3.618   1.238   5.558
10320TIP3   OH230902   1.135   7.149   4.335
10320TIP3    H130903   1.136   7.057   4.363
10320TIP3    H230904   1.053   7.183   4.369
10321TIP3   OH230905   1.887   0.612   5.844
10321TIP3    H130906   1.887   0.697   5.888
10321TIP3    H230907   1.826   0.558   5.895
10322TIP3   OH230908   3.178   3.372   3.501
10322TIP3    H130909   3.175   3.277   3.488
10322TIP3    H230910   3.225   3.405   3.424
10323TIP3   OH230911   1.971   7.130   1.909
10323TIP3    H130912   1.936   7.164   1.826
10323TIP3    H230913   1.899   7.080   1.947
10324TIP3   OH230914   6.500   4.511   5.362
10324TIP3    H130915   6.534   4.422   5.363
10324TIP3    H230916   6.557   4.558   5.302
10325TIP3   OH230917   2.847   4.918   0.575
10325TIP3    H130918   2.799   4.855   0.629
10325TIP3    H230919   2.811   5.003   0.600
10326TIP3   OH230920   7.279   3.292   5.607
10326TIP3    H130921   7.258   3.385   5.603
10326TIP3    H230922   7.367   3.285   5.570
10327TIP3   OH230923   2.680   7.674   0.928
10327TIP3    H130924   2.753   7.735   0.918
10327TIP3    H230925   2.604   7.730   0.943
10328TIP3   OH230926   0.948   3.706   2.827
10328TIP3    H130927   0.903   3.646   2.767
10328TIP3    H230928   0.910   3.792   2.808
10329TIP3   OH230929   7.138   2.162   4.847
10329TIP3    H130930   7.094   2.187   4.766
10329TIP3    H230931   7.133   2.240   4.903
10330TIP3   OH230932   4.231   7.596   4.908
10330TIP3    H130933   4.229   7.520   4.850
10330TIP3    H230934   4.249   7.670   4.850
10331TIP3   OH230935   3.742   4.065   1.569
10331TIP3    H130936   3.719   3.997   1.505
10331TIP3    H230937   3.750   4.145   1.517
10332TIP3   OH230938   2.842   7.385   4.242
10332TIP3    H130939   2.765   7.361   4.190
10332TIP3    H230940   2.869   7.469   4.206
10333TIP3   OH230941   6.507   5.865   0.910
10333TIP3    H130942   6.416   5.846   0.887
10333TIP3    H230943   6.507   5.957   0.935
10334TIP3   OH230944   7.695   3.926   4.958
10334TIP3    H130945   7.787   3.943   4.976
10334TIP3    H230946   7.695   3.848   4.902
10335TIP3   OH230947   4.704   6.579   6.303
10335TIP3    H130948   4.691   6.582   6.208
10335TIP3    H230949   4.616   6.564   6.338
10336TIP3   OH230950   3.746   0.968   4.422
10336TIP3    H130951   3.784   1.055   4.434
10336TIP3    H230952   3.821   0.909   4.413
10337TIP3   OH230953   6.413   0.546   2.360
10337TIP3    H130954   6.382   0.620   2.413
10337TIP3    H230955   6.430   0.584   2.274
10338TIP3   OH230956   4.792   6.991   1.291
10338TIP3    H130957   4.750   6.989   1.205
10338TIP3    H230958   4.847   7.069   1.289
10339TIP3   OH230959   4.653   1.654   0.035
10339TIP3    H130960   4.594   1.610   0.097
10339TIP3    H230961   4.678   1.586  -0.027
10340TIP3   OH230962   7.963   2.305   2.529
10340TIP3    H130963   8.004   2.343   2.452
10340TIP3    H230964   7.955   2.212   2.509
10341TIP3   OH230965   6.189   4.819   2.968
10341TIP3    H130966   6.254   4.830   3.037
10341TIP3    H230967   6.196   4.899   2.916
10342TIP3   OH230968   3.363   1.036   0.743
10342TIP3    H130969   3.418   0.979   0.688
10342TIP3    H230970   3.331   1.103   0.683
10343TIP3   OH230971   1.849   3.396   6.062
10343TIP3    H130972   1.861   3.377   5.969
10343TIP3    H230973   1.893   3.323   6.107
10344TIP3   OH230974   3.624   1.684   3.288
10344TIP3    H130975   3.706   1.692   3.240
10344TIP3    H230976   3.557   1.712   3.225
10345TIP3   OH230977   2.028   3.232   4.394
10345TIP3    H130978   2.057   3.304   4.451
10345TIP3    H230979   2.058   3.153   4.439
10346TIP3   OH230980   4.573   5.342   2.409
10346TIP3    H130981   4.557   5.417   2.466
10346TIP3    H230982   4.558   5.265   2.464
10347TIP3   OH230983   2.551   3.169   2.606
10347TIP3    H130984   2.546   3.263   2.626
10347TIP3    H230985   2.494   3.158   2.530
10348TIP3   OH230986   0.840   5.460   0.087
10348TIP3    H130987   0.822   5.434   0.178
10348TIP3    H230988   0.936   5.470   0.084
10349TIP3   OH230989   2.821   3.168   3.400
10349TIP3    H130990   2.810   3.076   3.376
10349TIP3    H230991   2.810   3.169   3.495
10350TIP3   OH230992   2.125   6.274   3.127
10350TIP3    H130993   2.087   6.233   3.049
10350TIP3    H230994   2.176   6.347   3.092
10351TIP3   OH230995   3.582   1.569   2.971
10351TIP3    H130996   3.676   1.564   2.991
10351TIP3    H230997   3.544   1.492   3.014
10352TIP3   OH230998   5.572   6.250   5.560
10352TIP3    H130999   5.571   6.186   5.489
10352TIP3    H231000   5.513   6.319   5.530
10353TIP3   OH231001   0.183   0.988   0.174
10353TIP3    H131002   0.186   0.948   0.261
10353TIP3    H231003   0.131   0.927   0.122
10354TIP3   OH231004   0.996   3.636   4.727
10354TIP3    H131005   0.962   3.663   4.812
10354TIP3    H231006   0.967   3.704   4.666
10355TIP3   OH231007   2.398   5.622   0.199
10355TIP3    H131008   2.399   5.558   0.127
10355TIP3    H231009   2.461   5.588   0.262
10356TIP3   OH231010   0.482   4.562   1.317
10356TIP3    H131011   0.397   4.577   1.359
10356TIP3    H231012   0.470   4.481   1.268
10357TIP3   OH231013   0.832   0.370   6.220
10357TIP3    H131014   0.781   0.305   6.173
10357TIP3    H231015   0.920   0.332   6.225
10358TIP3   OH231016   4.388   1.504   3.416
10358TIP3    H131017   4.404   1.549   3.334
10358TIP3    H231018   4.377   1.574   3.481
10359TIP3   OH231019   6.726   0.242   5.438
10359TIP3    H131020   6.674   0.204   5.509
10359TIP3    H231021   6.753   0.167   5.385
10360TIP3   OH231022   5.736   0.427   3.746
10360TIP3    H131023   5.756   0.501   3.803
10360TIP3    H231024   5.643   0.409   3.761
10361TIP3   OH231025   1.716   5.124   3.870
10361TIP3    H131026   1.764   5.182   3.811
10361TIP3    H231027   1.629   5.164   3.877
10362TIP3   OH231028   8.139   4.200   2.401
10362TIP3    H131029   8.159   4.169   2.489
10362TIP3    H231030   8.046   4.178   2.389
10363TIP3   OH231031   6.085   2.784   5.041
10363TIP3    H131032   6.030   2.848   5.086
10363TIP3    H231033   6.153   2.837   4.999
10364TIP3   OH231034   7.702   4.946   4.568
10364TIP3    H131035   7.623   4.965   4.619
10364TIP3    H231036   7.677   4.964   4.477
10365TIP3   OH231037   7.669   4.041   6.555
10365TIP3    H131038   7.614   4.047   6.478
10365TIP3    H231039   7.654   4.123   6.602
10366TIP3   OH231040   0.108   6.695   5.356
10366TIP3    H131041   0.018   6.691   5.326
10366TIP3    H231042   0.101   6.718   5.449
10367TIP3   OH231043   7.183   0.619   3.481
10367TIP3    H131044   7.212   0.581   3.564
10367TIP3    H231045   7.169   0.544   3.424
10368TIP3   OH231046   7.455   5.271   0.880
10368TIP3    H131047   7.422   5.186   0.908
10368TIP3    H231048   7.396   5.298   0.810
10369TIP3   OH231049   6.114   0.465   0.507
10369TIP3    H131050   6.205   0.495   0.509
10369TIP3    H231051   6.083   0.478   0.597
10370TIP3   OH231052   0.685   4.965   3.231
10370TIP3    H131053   0.624   4.894   3.210
10370TIP3    H231054   0.712   4.947   3.321
10371TIP3   OH231055   7.091   7.402   5.626
10371TIP3    H131056   7.136   7.480   5.658
10371TIP3    H231057   6.998   7.427   5.626
10372TIP3   OH231058   3.269   3.501   5.977
10372TIP3    H131059   3.265   3.439   6.050
10372TIP3    H231060   3.195   3.559   5.990
10373TIP3   OH231061   3.754   6.435   1.461
10373TIP3    H131062   3.730   6.354   1.416
10373TIP3    H231063   3.753   6.412   1.554
10374TIP3   OH231064   0.105   4.874   1.448
10374TIP3    H131065   0.112   4.969   1.452
10374TIP3    H231066   0.058   4.856   1.366
10375TIP3   OH231067   8.189   4.710   5.034
10375TIP3    H131068   8.219   4.619   5.035
10375TIP3    H231069   8.118   4.712   4.970
10376TIP3   OH231070   6.498   1.837   4.733
10376TIP3    H131071   6.583   1.859   4.771
10376TIP3    H231072   6.468   1.761   4.783
10377TIP3   OH231073   4.987   1.032   3.525
10377TIP3    H131074   4.972   1.016   3.431
10377TIP3    H231075   5.079   1.055   3.531
10378TIP3   OH231076   4.558   0.731   2.595
10378TIP3    H131077   4.550   0.673   2.671
10378TIP3    H231078   4.482   0.711   2.541
10379TIP3   OH231079   5.611   6.556   1.457
10379TIP3    H131080   5.524   6.529   1.427
10379TIP3    H231081   5.612   6.534   1.550
10380TIP3   OH231082   8.026   0.674   0.664
10380TIP3    H131083   8.089   0.730   0.709
10380TIP3    H231084   8.030   0.591   0.712
10381TIP3   OH231085   4.627   2.106   5.519
10381TIP3    H131086   4.570   2.074   5.588
10381TIP3    H231087   4.593   2.066   5.439
10382TIP3   OH231088   4.471   5.773   4.655
10382TIP3    H131089   4.501   5.726   4.577
10382TIP3    H231090   4.420   5.846   4.620
10383TIP3   OH231091   6.041   4.212   4.158
10383TIP3    H131092   6.137   4.205   4.153
10383TIP3    H231093   6.012   4.200   4.067
10384TIP3   OH231094   5.598   4.556   2.038
10384TIP3    H131095   5.533   4.506   1.987
10384TIP3    H231096   5.586   4.525   2.128
10385TIP3   OH231097   5.156   6.020   2.279
10385TIP3    H131098   5.065   6.034   2.306
10385TIP3    H231099   5.162   5.926   2.261
10386TIP3   OH231100   3.265   2.710   0.564
10386TIP3    H131101   3.338   2.749   0.517
10386TIP3    H231102   3.276   2.616   0.553
10387TIP3   OH231103   3.694   6.753   1.265
10387TIP3    H131104   3.617   6.702   1.290
10387TIP3    H231105   3.761   6.687   1.247
10388TIP3   OH231106   2.073   2.918   2.129
10388TIP3    H131107   2.018   2.981   2.176
10388TIP3    H231108   2.149   2.905   2.185
10389TIP3   OH231109   2.544   5.940   2.303
10389TIP3    H131110   2.526   6.005   2.371
10389TIP3    H231111   2.466   5.943   2.246
10390TIP3   OH231112   6.781   0.369   3.133
10390TIP3    H131113   6.752   0.411   3.215
10390TIP3    H231114   6.834   0.294   3.162
10391TIP3   OH231115   7.047   3.599   0.320
10391TIP3    H131116   6.955   3.624   0.312
10391TIP3    H231117   7.047   3.523   0.378
10392TIP3   OH231118   7.219   1.713   3.014
10392TIP3    H131119   7.147   1.660   3.047
10392TIP3    H231120   7.202   1.723   2.921
10393TIP3   OH231121   4.826   6.738   3.790
10393TIP3    H131122   4.802   6.665   3.734
10393TIP3    H231123   4.749   6.752   3.846
10394TIP3   OH231124   0.389   2.086   0.268
10394TIP3    H131125   0.483   2.102   0.274
10394TIP3    H231126   0.380   2.019   0.200
10395TIP3   OH231127   5.747   7.443   3.651
10395TIP3    H131128   5.800   7.365   3.631
10395TIP3    H231129   5.673   7.437   3.590
10396TIP3   OH231130   4.908   2.013   2.431
10396TIP3    H131131   4.922   2.011   2.526
10396TIP3    H231132   4.943   1.929   2.400
10397TIP3   OH231133   1.242   3.298   1.223
10397TIP3    H131134   1.167   3.276   1.167
10397TIP3    H231135   1.228   3.389   1.247
10398TIP3   OH231136   2.087   5.012   2.391
10398TIP3    H131137   2.063   4.933   2.342
10398TIP3    H231138   2.092   5.080   2.324
10399TIP3   OH231139   6.647   3.888   0.052
10399TIP3    H131140   6.654   3.963   0.111
10399TIP3    H231141   6.725   3.893  -0.003
10400TIP3   OH231142   4.278   4.671   1.949
10400TIP3    H131143   4.191   4.641   1.921
10400TIP3    H231144   4.338   4.636   1.883
10401TIP3   OH231145   7.578   6.296   1.100
10401TIP3    H131146   7.659   6.271   1.057
10401TIP3    H231147   7.583   6.391   1.109
10402TIP3   OH231148   3.219   6.200   3.345
10402TIP3    H131149   3.223   6.142   3.420
10402TIP3    H231150   3.143   6.170   3.295
10403TIP3   OH231151   7.150   7.201   5.965
10403TIP3    H131152   7.085   7.260   6.004
10403TIP3    H231153   7.102   7.154   5.897
10404TIP3   OH231154   5.124   5.291   6.310
10404TIP3    H131155   5.060   5.263   6.376
10404TIP3    H231156   5.187   5.219   6.305
10405TIP3   OH231157   3.789   5.600   3.340
10405TIP3    H131158   3.710   5.601   3.395
10405TIP3    H231159   3.784   5.517   3.293
10406TIP3   OH231160   4.663   5.021   0.103
10406TIP3    H131161   4.638   4.951   0.043
10406TIP3    H231162   4.684   4.976   0.184
10407TIP3   OH231163   2.590   7.134   1.578
10407TIP3    H131164   2.573   7.228   1.574
10407TIP3    H231165   2.668   7.122   1.523
10408TIP3   OH231166   4.212   6.426   3.509
10408TIP3    H131167   4.250   6.364   3.571
10408TIP3    H231168   4.237   6.512   3.543
10409TIP3   OH231169   6.456   0.711   1.021
10409TIP3    H131170   6.361   0.703   1.027
10409TIP3    H231171   6.489   0.677   1.104
10410TIP3   OH231172   0.211   0.558   1.343
10410TIP3    H131173   0.279   0.491   1.337
10410TIP3    H231174   0.177   0.566   1.254
10411TIP3   OH231175   1.250   7.127   0.043
10411TIP3    H131176   1.157   7.114   0.061
10411TIP3    H231177   1.278   7.193   0.106
10412TIP3   OH231178   1.000   7.234   5.229
10412TIP3    H131179   0.937   7.299   5.260
10412TIP3    H231180   1.063   7.284   5.177
10413TIP3   OH231181   6.699   7.817   5.132
10413TIP3    H131182   6.786   7.827   5.171
10413TIP3    H231183   6.683   7.723   5.132
10414TIP3   OH231184   4.783   1.688   1.420
10414TIP3    H131185   4.745   1.756   1.476
10414TIP3    H231186   4.827   1.629   1.481
10415TIP3   OH231187   3.830   5.715   5.677
10415TIP3    H131188   3.904   5.731   5.618
10415TIP3    H231189   3.862   5.741   5.763
10416TIP3   OH231190   6.835   7.447   6.427
10416TIP3    H131191   6.806   7.538   6.420
10416TIP3    H231192   6.831   7.428   6.521
10417TIP3   OH231193   0.752   7.674   1.267
10417TIP3    H131194   0.663   7.638   1.270
10417TIP3    H231195   0.739   7.768   1.250
10418TIP3   OH231196   3.474   0.234   2.095
10418TIP3    H131197   3.402   0.251   2.156
10418TIP3    H231198   3.463   0.142   2.070
10419TIP3   OH231199   8.068   5.302   1.219
10419TIP3    H131200   8.148   5.251   1.223
10419TIP3    H231201   8.048   5.322   1.310
10420TIP3   OH231202   2.747   1.083   5.845
10420TIP3    H131203   2.661   1.106   5.810
10420TIP3    H231204   2.750   1.123   5.932
10421TIP3   OH231205   7.731   2.039   0.167
10421TIP3    H131206   7.710   1.947   0.183
10421TIP3    H231207   7.647   2.079   0.142
10422TIP3   OH231208   0.975   6.032   5.340
10422TIP3    H131209   0.931   6.116   5.322
10422TIP3    H231210   0.910   5.966   5.314
10423TIP3   OH231211   2.444   0.812   0.082
10423TIP3    H131212   2.432   0.865   0.162
10423TIP3    H231213   2.526   0.844   0.045
10424TIP3   OH231214   4.498   1.624   2.068
10424TIP3    H131215   4.495   1.684   1.993
10424TIP3    H231216   4.573   1.653   2.119
10425TIP3   OH231217   7.455   7.168   4.481
10425TIP3    H131218   7.506   7.249   4.485
10425TIP3    H231219   7.425   7.162   4.390
10426TIP3   OH231220   5.661   1.655   1.933
10426TIP3    H131221   5.750   1.652   1.969
10426TIP3    H231222   5.663   1.593   1.860
10427TIP3   OH231223   1.079   0.733   1.640
10427TIP3    H131224   1.052   0.670   1.572
10427TIP3    H231225   1.022   0.809   1.626
10428TIP3   OH231226   6.465   1.802   0.969
10428TIP3    H131227   6.404   1.873   0.992
10428TIP3    H231228   6.409   1.725   0.956
10429TIP3   OH231229   2.610   3.633   2.400
10429TIP3    H131230   2.666   3.693   2.351
10429TIP3    H231231   2.598   3.558   2.342
10430TIP3   OH231232   2.817   5.034   2.227
10430TIP3    H131233   2.770   5.093   2.169
10430TIP3    H231234   2.855   5.091   2.294
10431TIP3   OH231235   4.590   7.664   6.027
10431TIP3    H131236   4.534   7.587   6.016
10431TIP3    H231237   4.546   7.716   6.094
10432TIP3   OH231238   1.072   4.357   3.432
10432TIP3    H131239   1.019   4.351   3.353
10432TIP3    H231240   1.086   4.266   3.458
10433TIP3   OH231241   3.672   0.310   0.167
10433TIP3    H131242   3.758   0.270   0.158
10433TIP3    H231243   3.624   0.283   0.088
10434TIP3   OH231244   1.908   4.242   1.593
10434TIP3    H131245   1.939   4.304   1.659
10434TIP3    H231246   1.964   4.165   1.604
10435TIP3   OH231247   5.735   6.210   3.737
10435TIP3    H131248   5.736   6.115   3.753
10435TIP3    H231249   5.779   6.248   3.813
10436TIP3   OH231250   1.580   5.269   6.017
10436TIP3    H131251   1.544   5.195   5.970
10436TIP3    H231252   1.601   5.333   5.949
10437TIP3   OH231253   7.268   4.942   5.916
10437TIP3    H131254   7.203   4.892   5.964
10437TIP3    H231255   7.278   5.023   5.965
10438TIP3   OH231256   3.714   0.229   5.190
10438TIP3    H131257   3.704   0.321   5.213
10438TIP3    H231258   3.627   0.202   5.161
10439TIP3   OH231259   0.623   6.637   2.470
10439TIP3    H131260   0.622   6.613   2.562
10439TIP3    H231261   0.579   6.722   2.467
10440TIP3   OH231262   4.003   5.690   3.516
10440TIP3    H131263   3.939   5.691   3.445
10440TIP3    H231264   4.004   5.780   3.548
10441TIP3   OH231265   0.238   3.222   0.700
10441TIP3    H131266   0.143   3.234   0.703
10441TIP3    H231267   0.256   3.155   0.767
10442TIP3   OH231268   7.201   5.510   5.463
10442TIP3    H131269   7.142   5.535   5.391
10442TIP3    H231270   7.164   5.429   5.498
10443TIP3   OH231271   2.571   1.567   4.777
10443TIP3    H131272   2.660   1.573   4.742
10443TIP3    H231273   2.515   1.591   4.703
10444TIP3   OH231274   0.323   4.934   0.893
10444TIP3    H131275   0.338   4.840   0.902
10444TIP3    H231276   0.289   4.945   0.804
10445TIP3   OH231277   7.293   1.519   3.602
10445TIP3    H131278   7.238   1.451   3.642
10445TIP3    H231279   7.293   1.497   3.508
10446TIP3   OH231280   1.256   7.357   0.591
10446TIP3    H131281   1.336   7.407   0.606
10446TIP3    H231282   1.270   7.313   0.507
10447TIP3   OH231283   7.171   0.484   4.308
10447TIP3    H131284   7.090   0.435   4.319
10447TIP3    H231285   7.146   0.564   4.263
10448TIP3   OH231286   7.419   7.525   0.566
10448TIP3    H131287   7.423   7.431   0.545
10448TIP3    H231288   7.457   7.568   0.491
10449TIP3   OH231289   1.799   6.175   3.155
10449TIP3    H131290   1.729   6.225   3.112
10449TIP3    H231291   1.835   6.236   3.220
10450TIP3   OH231292   6.897   0.972   4.281
10450TIP3    H131293   6.937   0.888   4.259
10450TIP3    H231294   6.894   0.972   4.377
10451TIP3   OH231295   7.578   6.064   2.412
10451TIP3    H131296   7.554   6.035   2.324
10451TIP3    H231297   7.614   5.986   2.455
10452TIP3   OH231298   2.580   3.552   1.904
10452TIP3    H131299   2.658   3.527   1.855
10452TIP3    H231300   2.604   3.633   1.949
10453TIP3   OH231301   5.461   4.373   4.838
10453TIP3    H131302   5.439   4.280   4.828
10453TIP3    H231303   5.514   4.393   4.760
10454TIP3   OH231304   6.194   0.538   0.098
10454TIP3    H131305   6.218   0.589   0.176
10454TIP3    H231306   6.218   0.448   0.120
10455TIP3   OH231307   6.171   5.290   0.412
10455TIP3    H131308   6.230   5.215   0.409
10455TIP3    H231309   6.101   5.263   0.472
10456TIP3   OH231310   7.037   2.455   3.368
10456TIP3    H131311   7.050   2.378   3.311
10456TIP3    H231312   7.046   2.420   3.457
10457TIP3   OH231313   7.273   3.603   4.067
10457TIP3    H131314   7.308   3.651   4.142
10457TIP3    H231315   7.346   3.551   4.034
10458TIP3   OH231316   4.038   6.502   5.390
10458TIP3    H131317   3.995   6.520   5.306
10458TIP3    H231318   4.080   6.417   5.377
10459TIP3   OH231319   2.852   6.458   0.189
10459TIP3    H131320   2.896   6.535   0.152
10459TIP3    H231321   2.908   6.431   0.262
10460TIP3   OH231322   3.159   0.353   1.990
10460TIP3    H131323   3.202   0.436   2.007
10460TIP3    H231324   3.213   0.310   1.925
10461TIP3   OH231325   2.870   1.712   0.603
10461TIP3    H131326   2.838   1.679   0.518
10461TIP3    H231327   2.965   1.702   0.598
10462TIP3   OH231328   4.031   2.406   4.408
10462TIP3    H131329   4.074   2.346   4.469
10462TIP3    H231330   3.959   2.355   4.371
10463TIP3   OH231331   2.130   4.697   5.184
10463TIP3    H131332   2.099   4.737   5.266
10463TIP3    H231333   2.050   4.682   5.133
10464TIP3   OH231334   6.230   1.783   2.898
10464TIP3    H131335   6.221   1.688   2.898
10464TIP3    H231336   6.315   1.799   2.939
10465TIP3   OH231337   5.840   5.582   4.828
10465TIP3    H131338   5.896   5.621   4.760
10465TIP3    H231339   5.841   5.488   4.810
10466TIP3   OH231340   7.451   6.218   6.515
10466TIP3    H131341   7.361   6.194   6.536
10466TIP3    H231342   7.457   6.213   6.420
10467TIP3   OH231343   0.463   6.019   2.873
10467TIP3    H131344   0.384   5.980   2.911
10467TIP3    H231345   0.512   6.052   2.949
10468TIP3   OH231346   3.721   1.049   3.596
10468TIP3    H131347   3.670   1.056   3.677
10468TIP3    H231348   3.812   1.049   3.625
10469TIP3   OH231349   1.967   5.046   3.320
10469TIP3    H131350   1.964   5.079   3.410
10469TIP3    H231351   1.953   5.124   3.265
10470TIP3   OH231352   6.352   5.265   1.311
10470TIP3    H131353   6.373   5.350   1.350
10470TIP3    H231354   6.412   5.203   1.354
10471TIP3   OH231355   7.340   0.627   5.150
10471TIP3    H131356   7.327   0.721   5.144
10471TIP3    H231357   7.313   0.604   5.238
10472TIP3   OH231358   0.202   1.089   1.259
10472TIP3    H131359   0.148   1.051   1.329
10472TIP3    H231360   0.285   1.043   1.265
10473TIP3   OH231361   0.532   5.583   2.230
10473TIP3    H131362   0.519   5.527   2.153
10473TIP3    H231363   0.612   5.632   2.209
10474TIP3   OH231364   4.584   0.329   0.376
10474TIP3    H131365   4.674   0.311   0.346
10474TIP3    H231366   4.595   0.357   0.466
10475TIP3   OH231367   4.145   1.673   2.613
10475TIP3    H131368   4.127   1.668   2.707
10475TIP3    H231369   4.135   1.583   2.582
10476TIP3   OH231370   5.572   0.134   4.756
10476TIP3    H131371   5.639   0.070   4.735
10476TIP3    H231372   5.544   0.113   4.845
10477TIP3   OH231373   6.028   3.896   3.307
10477TIP3    H131374   6.071   3.930   3.228
10477TIP3    H231375   6.064   3.948   3.378
10478TIP3   OH231376   7.660   5.644   4.801
10478TIP3    H131377   7.628   5.558   4.772
10478TIP3    H231378   7.618   5.658   4.886
10479TIP3   OH231379   1.769   5.730   5.338
10479TIP3    H131380   1.852   5.778   5.334
10479TIP3    H231381   1.731   5.754   5.422
10480TIP3   OH231382   1.595   4.753   0.329
10480TIP3    H131383   1.550   4.751   0.245
10480TIP3    H231384   1.688   4.753   0.307
10481TIP3   OH231385   3.541   3.239   6.023
10481TIP3    H131386   3.513   3.152   5.996
10481TIP3    H231387   3.618   3.223   6.078
10482TIP3   OH231388   4.694   6.176   0.371
10482TIP3    H131389   4.624   6.198   0.310
10482TIP3    H231390   4.769   6.155   0.316
10483TIP3   OH231391   0.611   5.815   6.662
10483TIP3    H131392   0.700   5.822   6.697
10483TIP3    H231393   0.617   5.849   6.573
10484TIP3   OH231394   7.864   0.892   2.970
10484TIP3    H131395   7.860   0.797   2.971
10484TIP3    H231396   7.951   0.912   2.935
10485TIP3   OH231397   0.058   0.952   6.284
10485TIP3    H131398  -0.007   0.883   6.300
10485TIP3    H231399   0.013   1.033   6.306
10486TIP3   OH231400   1.581   3.078   0.670
10486TIP3    H131401   1.619   2.993   0.650
10486TIP3    H231402   1.486   3.063   0.666
10487TIP3   OH231403   7.711   6.210   6.186
10487TIP3    H131404   7.754   6.288   6.220
10487TIP3    H231405   7.621   6.216   6.219
10488TIP3   OH231406   4.495   7.459   5.792
10488TIP3    H131407   4.485   7.437   5.885
10488TIP3    H231408   4.409   7.493   5.766
10489TIP3   OH231409   1.898   6.297   6.449
10489TIP3    H131410   1.895   6.207   6.482
10489TIP3    H231411   1.968   6.296   6.383
10490TIP3   OH231412   7.765   0.673   3.449
10490TIP3    H131413   7.855   0.698   3.470
10490TIP3    H231414   7.767   0.652   3.355
10491TIP3   OH231415   7.699   5.975   0.845
10491TIP3    H131416   7.678   6.004   0.934
10491TIP3    H231417   7.626   5.918   0.821
10492TIP3   OH231418   3.760   1.276   1.805
10492TIP3    H131419   3.693   1.220   1.845
10492TIP3    H231420   3.760   1.251   1.713
10493TIP3   OH231421   2.788   4.977   3.667
10493TIP3    H131422   2.712   4.931   3.703
10493TIP3    H231423   2.863   4.942   3.716
10494TIP3   OH231424   2.873   6.050   4.876
10494TIP3    H131425   2.891   6.056   4.782
10494TIP3    H231426   2.802   6.113   4.890
10495TIP3   OH231427   7.382   4.860   6.569
10495TIP3    H131428   7.322   4.789   6.593
10495TIP3    H231429   7.469   4.822   6.578
10496TIP3   OH231430   3.100   3.892   2.870
10496TIP3    H131431   3.065   3.841   2.944
10496TIP3    H231432   3.083   3.838   2.793
10497TIP3   OH231433   5.140   5.602   0.883
10497TIP3    H131434   5.095   5.527   0.923
10497TIP3    H231435   5.213   5.620   0.942
10498TIP3   OH231436   0.765   1.814   6.289
10498TIP3    H131437   0.833   1.815   6.357
10498TIP3    H231438   0.696   1.870   6.324
10499TIP3   OH231439   7.905   7.753   2.076
10499TIP3    H131440   7.957   7.776   2.153
10499TIP3    H231441   7.816   7.782   2.098
10500TIP3   OH231442   6.469   1.064   2.170
10500TIP3    H131443   6.475   1.023   2.083
10500TIP3    H231444   6.560   1.069   2.200
10501TIP3   OH231445   6.467   5.348   0.201
10501TIP3    H131446   6.374   5.346   0.180
10501TIP3    H231447   6.497   5.259   0.183
10502TIP3   OH231448   2.756   2.214   6.711
10502TIP3    H131449   2.808   2.261   6.776
10502TIP3    H231450   2.819   2.158   6.665
10503TIP3   OH231451   7.678   3.173   4.250
10503TIP3    H131452   7.647   3.099   4.303
10503TIP3    H231453   7.738   3.220   4.307
10504TIP3   OH231454   3.730   2.930   0.365
10504TIP3    H131455   3.753   2.922   0.272
10504TIP3    H231456   3.808   2.900   0.412
10505TIP3   OH231457   8.026   1.186   2.947
10505TIP3    H131458   8.064   1.105   2.912
10505TIP3    H231459   8.100   1.246   2.956
10506TIP3   OH231460   5.715   0.350   6.122
10506TIP3    H131461   5.720   0.261   6.156
10506TIP3    H231462   5.636   0.351   6.068
10507TIP3   OH231463   7.413   2.930   0.948
10507TIP3    H131464   7.482   2.995   0.959
10507TIP3    H231465   7.392   2.902   1.037
10508TIP3   OH231466   7.415   5.566   6.384
10508TIP3    H131467   7.436   5.650   6.343
10508TIP3    H231468   7.320   5.561   6.383
10509TIP3   OH231469   0.881   3.049   3.718
10509TIP3    H131470   0.831   2.971   3.694
10509TIP3    H231471   0.818   3.121   3.708
10510TIP3   OH231472   3.996   5.560   6.241
10510TIP3    H131473   4.084   5.595   6.232
10510TIP3    H231474   3.998   5.510   6.322
10511TIP3   OH231475   4.128   5.935   4.553
10511TIP3    H131476   4.119   5.884   4.633
10511TIP3    H231477   4.069   5.893   4.490
10512TIP3   OH231478   3.671   6.679   5.616
10512TIP3    H131479   3.634   6.640   5.536
10512TIP3    H231480   3.754   6.633   5.628
10513TIP3   OH231481   5.067   2.343   5.438
10513TIP3    H131482   5.111   2.304   5.363
10513TIP3    H231483   5.023   2.270   5.481
10514TIP3   OH231484   1.516   3.269   1.806
10514TIP3    H131485   1.466   3.345   1.775
10514TIP3    H231486   1.581   3.307   1.865
10515TIP3   OH231487   7.585   3.862   1.333
10515TIP3    H131488   7.673   3.831   1.310
10515TIP3    H231489   7.560   3.809   1.408
10516TIP3   OH231490   4.632   7.606   2.835
10516TIP3    H131491   4.656   7.696   2.857
10516TIP3    H231492   4.680   7.587   2.755
10517TIP3   OH231493   1.730   0.929   2.229
10517TIP3    H131494   1.809   0.891   2.267
10517TIP3    H231495   1.734   0.904   2.136
10518TIP3   OH231496   0.579   3.952   2.580
10518TIP3    H131497   0.498   3.929   2.625
10518TIP3    H231498   0.573   4.047   2.567
10519TIP3   OH231499   7.513   2.391   1.438
10519TIP3    H131500   7.552   2.304   1.435
10519TIP3    H231501   7.582   2.447   1.475
10520TIP3   OH231502   3.868   2.999   1.083
10520TIP3    H131503   3.888   2.924   1.139
10520TIP3    H231504   3.844   3.069   1.143
10521TIP3   OH231505   3.386   3.555   0.140
10521TIP3    H131506   3.451   3.587   0.203
10521TIP3    H231507   3.321   3.510   0.194
10522TIP3   OH231508   2.191   0.367   4.783
10522TIP3    H131509   2.280   0.403   4.785
10522TIP3    H231510   2.163   0.366   4.874
10523TIP3   OH231511   8.042   5.752   5.853
10523TIP3    H131512   8.013   5.779   5.941
10523TIP3    H231513   8.109   5.816   5.830
10524TIP3   OH231514   6.776   0.520   5.908
10524TIP3    H131515   6.827   0.596   5.933
10524TIP3    H231516   6.813   0.492   5.824
10525TIP3   OH231517   1.138   0.021   0.926
10525TIP3    H131518   1.179  -0.020   1.002
10525TIP3    H231519   1.103   0.104   0.960
10526TIP3   OH231520   2.432   3.917   1.493
10526TIP3    H131521   2.432   3.948   1.584
10526TIP3    H231522   2.363   3.850   1.491
10527TIP3   OH231523   1.002   1.317   3.707
10527TIP3    H131524   1.096   1.301   3.701
10527TIP3    H231525   0.995   1.409   3.735
10528TIP3   OH231526   5.088   3.340   2.967
10528TIP3    H131527   5.023   3.270   2.961
10528TIP3    H231528   5.053   3.399   3.034
10529TIP3   OH231529   1.292   5.886   0.176
10529TIP3    H131530   1.309   5.971   0.216
10529TIP3    H231531   1.278   5.905   0.083
10530TIP3   OH231532   4.238   0.626   4.610
10530TIP3    H131533   4.317   0.577   4.634
10530TIP3    H231534   4.169   0.560   4.605
10531TIP3   OH231535   1.285   1.036   5.101
10531TIP3    H131536   1.192   1.018   5.084
10531TIP3    H231537   1.314   1.082   5.022
10532TIP3   OH231538   1.665   5.660   1.335
10532TIP3    H131539   1.738   5.641   1.395
10532TIP3    H231540   1.631   5.744   1.364
10533TIP3   OH231541   0.732   2.086   4.407
10533TIP3    H131542   0.658   2.140   4.378
10533TIP3    H231543   0.692   2.011   4.450
10534TIP3   OH231544   2.735   1.586   3.815
10534TIP3    H131545   2.809   1.567   3.758
10534TIP3    H231546   2.660   1.595   3.755
10535TIP3   OH231547   2.892   7.151   6.158
10535TIP3    H131548   2.815   7.100   6.135
10535TIP3    H231549   2.919   7.192   6.075
10536TIP3   OH231550   2.119   3.202   2.840
10536TIP3    H131551   2.137   3.238   2.753
10536TIP3    H231552   2.171   3.121   2.843
10537TIP3   OH231553   6.824   5.283   5.398
10537TIP3    H131554   6.733   5.276   5.426
10537TIP3    H231555   6.823   5.259   5.305
10538TIP3   OH231556   1.822   0.064   0.076
10538TIP3    H131557   1.831   0.155   0.047
10538TIP3    H231558   1.894   0.050   0.137
10539TIP3   OH231559   1.346   0.927   0.031
10539TIP3    H131560   1.393   0.978   0.097
10539TIP3    H231561   1.389   0.841   0.031
10540TIP3   OH231562   1.142   7.775   3.055
10540TIP3    H131563   1.230   7.746   3.081
10540TIP3    H231564   1.098   7.793   3.138
10541TIP3   OH231565   6.714   2.790   3.588
10541TIP3    H131566   6.764   2.767   3.510
10541TIP3    H231567   6.773   2.844   3.640
10542TIP3   OH231568   7.917   4.506   1.326
10542TIP3    H131569   7.978   4.439   1.358
10542TIP3    H231570   7.831   4.466   1.333
10543TIP3   OH231571   4.422   5.489   1.561
10543TIP3    H131572   4.461   5.576   1.567
10543TIP3    H231573   4.375   5.478   1.644
10544TIP3   OH231574   3.052   0.917   3.360
10544TIP3    H131575   3.057   0.878   3.273
10544TIP3    H231576   3.099   0.855   3.416
10545TIP3   OH231577   7.966   1.243   6.656
10545TIP3    H131578   8.052   1.253   6.615
10545TIP3    H231579   7.977   1.171   6.718
10546TIP3   OH231580   6.803   0.806   2.183
10546TIP3    H131581   6.824   0.743   2.252
10546TIP3    H231582   6.759   0.878   2.229
10547TIP3   OH231583   4.353   7.752   1.566
10547TIP3    H131584   4.286   7.819   1.554
10547TIP3    H231585   4.331   7.684   1.503
10548TIP3   OH231586   6.957   1.134   5.838
10548TIP3    H131587   6.999   1.085   5.908
10548TIP3    H231588   6.935   1.219   5.878
10549TIP3   OH231589   1.338   7.063   5.665
10549TIP3    H131590   1.313   7.072   5.572
10549TIP3    H231591   1.342   6.968   5.679
10550TIP3   OH231592   2.611   1.306   2.923
10550TIP3    H131593   2.627   1.340   3.011
10550TIP3    H231594   2.668   1.358   2.866
10551TIP3   OH231595   6.068   1.281   5.539
10551TIP3    H131596   5.973   1.281   5.528
10551TIP3    H231597   6.098   1.206   5.488
10552TIP3   OH231598   2.484   3.470   6.498
10552TIP3    H131599   2.515   3.468   6.589
10552TIP3    H231600   2.544   3.530   6.454
10553TIP3   OH231601   2.357   3.797   6.713
10553TIP3    H131602   2.446   3.815   6.742
10553TIP3    H231603   2.315   3.757   6.789
10554TIP3   OH231604   6.038   5.237   1.285
10554TIP3    H131605   6.074   5.311   1.334
10554TIP3    H231606   6.095   5.229   1.209
10555TIP3   OH231607   7.020   2.429   4.309
10555TIP3    H131608   7.029   2.378   4.228
10555TIP3    H231609   7.012   2.363   4.378
10556TIP3   OH231610   7.981   1.780   3.118
10556TIP3    H131611   7.898   1.762   3.073
10556TIP3    H231612   7.960   1.850   3.179
10557TIP3   OH231613   2.532   3.863   1.153
10557TIP3    H131614   2.535   3.938   1.213
10557TIP3    H231615   2.591   3.889   1.082
10558TIP3   OH231616   2.921   0.239   6.419
10558TIP3    H131617   2.948   0.204   6.334
10558TIP3    H231618   2.936   0.167   6.480
10559TIP3   OH231619   6.214   7.815   3.231
10559TIP3    H131620   6.202   7.723   3.208
10559TIP3    H231621   6.130   7.856   3.213
10560TIP3   OH231622   1.356   5.320   6.776
10560TIP3    H131623   1.307   5.388   6.731
10560TIP3    H231624   1.320   5.238   6.742
10561TIP3   OH231625   6.019   1.069   3.598
10561TIP3    H131626   5.973   1.023   3.528
10561TIP3    H231627   6.106   1.029   3.600
10562TIP3   OH231628   3.924   3.728   5.328
10562TIP3    H131629   3.949   3.782   5.254
10562TIP3    H231630   3.829   3.736   5.334
10563TIP3   OH231631   6.778   0.074   2.329
10563TIP3    H131632   6.781   0.167   2.303
10563TIP3    H231633   6.721   0.073   2.406
10564TIP3   OH231634   6.738   5.660   4.995
10564TIP3    H131635   6.712   5.752   5.003
10564TIP3    H231636   6.791   5.643   5.073
10565TIP3   OH231637   6.915   7.294   0.814
10565TIP3    H131638   6.932   7.254   0.900
10565TIP3    H231639   6.912   7.388   0.831
10566TIP3   OH231640   6.136   7.460   1.711
10566TIP3    H131641   6.045   7.469   1.685
10566TIP3    H231642   6.136   7.481   1.805
10567TIP3   OH231643   1.672   3.837   0.474
10567TIP3    H131644   1.767   3.823   0.464
10567TIP3    H231645   1.638   3.751   0.498
10568TIP3   OH231646   0.050   4.919   0.949
10568TIP3    H131647   0.038   4.848   0.885
10568TIP3    H231648   0.143   4.940   0.944
10569TIP3   OH231649   5.224   1.811   4.969
10569TIP3    H131650   5.146   1.838   4.921
10569TIP3    H231651   5.193   1.744   5.030
10570TIP3   OH231652   7.693   5.536   2.303
10570TIP3    H131653   7.774   5.539   2.253
10570TIP3    H231654   7.688   5.447   2.336
10571TIP3   OH231655   0.707   4.362   3.316
10571TIP3    H131656   0.707   4.446   3.270
10571TIP3    H231657   0.688   4.384   3.407
10572TIP3   OH231658   0.236   5.254   2.717
10572TIP3    H131659   0.219   5.320   2.650
10572TIP3    H231660   0.149   5.230   2.749
10573TIP3   OH231661   2.486   1.739   0.328
10573TIP3    H131662   2.433   1.799   0.381
10573TIP3    H231663   2.465   1.762   0.238
10574TIP3   OH231664   3.154   5.207   5.719
10574TIP3    H131665   3.152   5.288   5.668
10574TIP3    H231666   3.183   5.140   5.658
10575TIP3   OH231667   5.122   4.463   2.491
10575TIP3    H131668   5.197   4.446   2.434
10575TIP3    H231669   5.052   4.409   2.456
10576TIP3   OH231670   7.489   4.547   5.473
10576TIP3    H131671   7.425   4.507   5.414
10576TIP3    H231672   7.518   4.625   5.427
10577TIP3   OH231673   4.100   7.398   3.572
10577TIP3    H131674   4.144   7.319   3.602
10577TIP3    H231675   4.016   7.368   3.537
10578TIP3   OH231676   0.761   0.436   0.494
10578TIP3    H131677   0.774   0.458   0.402
10578TIP3    H231678   0.796   0.511   0.542
10579TIP3   OH231679   5.954   0.487   4.939
10579TIP3    H131680   5.880   0.547   4.934
10579TIP3    H231681   5.928   0.411   4.886
10580TIP3   OH231682   8.146   0.313   3.133
10580TIP3    H131683   8.186   0.228   3.152
10580TIP3    H231684   8.062   0.309   3.178
10581TIP3   OH231685   6.443   4.594   1.923
10581TIP3    H131686   6.537   4.613   1.928
10581TIP3    H231687   6.432   4.549   1.839
10582TIP3   OH231688   6.451   5.857   2.176
10582TIP3    H131689   6.537   5.899   2.185
10582TIP3    H231690   6.464   5.768   2.209
10583TIP3   OH231691   1.786   0.199   4.384
10583TIP3    H131692   1.877   0.226   4.369
10583TIP3    H231693   1.759   0.159   4.301
10584TIP3   OH231694   7.095   1.729   3.664
10584TIP3    H131695   7.127   1.769   3.745
10584TIP3    H231696   7.156   1.658   3.647
10585TIP3   OH231697   7.819   6.951   5.176
10585TIP3    H131698   7.832   6.872   5.229
10585TIP3    H231699   7.899   6.960   5.126
10586TIP3   OH231700   1.587   7.512   0.409
10586TIP3    H131701   1.524   7.494   0.339
10586TIP3    H231702   1.606   7.605   0.400
10587TIP3   OH231703   3.211   2.927   5.792
10587TIP3    H131704   3.217   2.975   5.874
10587TIP3    H231705   3.235   2.837   5.815
10588TIP3   OH231706   1.866   2.262   0.705
10588TIP3    H131707   1.884   2.205   0.630
10588TIP3    H231708   1.787   2.225   0.745
10589TIP3   OH231709   2.277   0.711   1.314
10589TIP3    H131710   2.198   0.657   1.318
10589TIP3    H231711   2.313   0.707   1.403
10590TIP3   OH231712   7.569   7.739   0.746
10590TIP3    H131713   7.609   7.800   0.809
10590TIP3    H231714   7.504   7.792   0.700
10591TIP3   OH231715   7.865   4.972   6.465
10591TIP3    H131716   7.863   4.918   6.386
10591TIP3    H231717   7.956   5.001   6.472
10592TIP3   OH231718   6.904   2.391   2.146
10592TIP3    H131719   6.833   2.327   2.154
10592TIP3    H231720   6.868   2.472   2.182
10593TIP3   OH231721   3.337   1.731   6.058
10593TIP3    H131722   3.394   1.661   6.026
10593TIP3    H231723   3.325   1.787   5.982
10594TIP3   OH231724   1.161   0.387   3.509
10594TIP3    H131725   1.121   0.465   3.468
10594TIP3    H231726   1.196   0.337   3.435
10595TIP3   OH231727   7.154   6.551   1.680
10595TIP3    H131728   7.179   6.633   1.638
10595TIP3    H231729   7.107   6.503   1.612
10596TIP3   OH231730   1.226   4.993   6.274
10596TIP3    H131731   1.230   5.071   6.219
10596TIP3    H231732   1.309   4.949   6.259
10597TIP3   OH231733   6.176   5.200   5.222
10597TIP3    H131734   6.239   5.130   5.204
10597TIP3    H231735   6.144   5.181   5.310
10598TIP3   OH231736   0.677   0.025   2.315
10598TIP3    H131737   0.618   0.093   2.284
10598TIP3    H231738   0.692  -0.031   2.239
10599TIP3   OH231739   5.663   5.986   4.908
10599TIP3    H131740   5.721   6.054   4.872
10599TIP3    H231741   5.648   6.013   4.998
10600TIP3   OH231742   6.028   4.628   4.882
10600TIP3    H131743   6.088   4.592   4.817
10600TIP3    H231744   5.946   4.581   4.868
10601TIP3   OH231745   4.902   3.148   3.641
10601TIP3    H131746   4.857   3.233   3.644
10601TIP3    H231747   4.848   3.090   3.693
10602TIP3   OH231748   2.111   1.113   5.915
10602TIP3    H131749   2.067   1.167   5.980
10602TIP3    H231750   2.185   1.166   5.885
10603TIP3   OH231751   5.123   1.985   0.964
10603TIP3    H131752   5.110   1.915   0.900
10603TIP3    H231753   5.210   2.021   0.943
10604TIP3   OH231754   2.591   2.450   6.451
10604TIP3    H131755   2.565   2.378   6.394
10604TIP3    H231756   2.513   2.506   6.455
10605TIP3   OH231757   6.584   6.954   6.372
10605TIP3    H131758   6.605   6.862   6.387
10605TIP3    H231759   6.635   7.001   6.438
10606TIP3   OH231760   1.724   0.938   0.855
10606TIP3    H131761   1.808   0.954   0.896
10606TIP3    H231762   1.726   0.989   0.774
10607TIP3   OH231763   1.117   4.290   6.601
10607TIP3    H131764   1.176   4.243   6.541
10607TIP3    H231765   1.173   4.318   6.673
10608TIP3   OH231766   0.547   4.192   1.256
10608TIP3    H131767   0.619   4.236   1.210
10608TIP3    H231768   0.469   4.241   1.232
10609TIP3   OH231769   7.799   5.412   6.456
10609TIP3    H131770   7.845   5.369   6.384
10609TIP3    H231771   7.747   5.480   6.414
10610TIP3   OH231772   5.864   6.880   3.175
10610TIP3    H131773   5.959   6.877   3.168
10610TIP3    H231774   5.838   6.954   3.120
10611TIP3   OH231775   3.783   2.452   4.571
10611TIP3    H131776   3.757   2.390   4.503
10611TIP3    H231777   3.707   2.510   4.580
10612TIP3   OH231778   1.903   6.192   0.387
10612TIP3    H131779   1.944   6.173   0.471
10612TIP3    H231780   1.809   6.198   0.407
10613TIP3   OH231781   4.470   4.645   2.255
10613TIP3    H131782   4.486   4.734   2.223
10613TIP3    H231783   4.375   4.634   2.247
10614TIP3   OH231784   7.404   0.057   0.420
10614TIP3    H131785   7.353  -0.020   0.399
10614TIP3    H231786   7.483   0.049   0.367
10615TIP3   OH231787   0.055   7.789   4.037
10615TIP3    H131788  -0.022   7.780   4.093
10615TIP3    H231789   0.066   7.883   4.027
10616TIP3   OH231790   6.070   3.856   6.633
10616TIP3    H131791   6.086   3.762   6.620
10616TIP3    H231792   6.046   3.864   6.725
10617TIP3   OH231793   4.216   1.622   4.407
10617TIP3    H131794   4.167   1.541   4.399
10617TIP3    H231795   4.277   1.621   4.333
10618TIP3   OH231796   7.962   5.862   3.716
10618TIP3    H131797   7.975   5.789   3.776
10618TIP3    H231798   8.046   5.874   3.672
10619TIP3   OH231799   7.675   0.117   4.147
10619TIP3    H131800   7.718   0.132   4.063
10619TIP3    H231801   7.616   0.043   4.130
10620TIP3   OH231802   2.112   6.506   0.979
10620TIP3    H131803   2.070   6.532   0.897
10620TIP3    H231804   2.057   6.434   1.012
10621TIP3   OH231805   2.022   3.069   3.456
10621TIP3    H131806   1.976   2.991   3.486
10621TIP3    H231807   1.954   3.123   3.415
10622TIP3   OH231808   1.205   5.568   3.297
10622TIP3    H131809   1.111   5.552   3.295
10622TIP3    H231810   1.222   5.621   3.220
10623TIP3   OH231811   5.481   2.214   2.832
10623TIP3    H131812   5.490   2.280   2.763
10623TIP3    H231813   5.570   2.203   2.866
10624TIP3   OH231814   2.053  -0.014   3.693
10624TIP3    H131815   1.993  -0.003   3.767
10624TIP3    H231816   2.106   0.066   3.694
10625TIP3   OH231817   1.225   4.174   6.233
10625TIP3    H131818   1.240   4.091   6.189
10625TIP3    H231819   1.251   4.158   6.324
10626TIP3   OH231820   7.201   2.590   5.230
10626TIP3    H131821   7.279   2.588   5.285
10626TIP3    H231822   7.219   2.659   5.166
10627TIP3   OH231823   7.732   6.288   4.408
10627TIP3    H131824   7.678   6.209   4.398
10627TIP3    H231825   7.688   6.353   4.352
10628TIP3   OH231826   6.760   0.432   3.840
10628TIP3    H131827   6.679   0.476   3.866
10628TIP3    H231828   6.748   0.341   3.865
10629TIP3   OH231829   5.082   0.864   0.929
10629TIP3    H131830   5.136   0.877   1.007
10629TIP3    H231831   5.135   0.898   0.857
10630TIP3   OH231832   1.247   1.470   6.459
10630TIP3    H131833   1.317   1.514   6.411
10630TIP3    H231834   1.179   1.536   6.470
10631TIP3   OH231835   2.160   5.990   2.872
10631TIP3    H131836   2.134   5.998   2.964
10631TIP3    H231837   2.099   6.048   2.826
10632TIP3   OH231838   6.198   4.084   3.884
10632TIP3    H131839   6.272   4.047   3.932
10632TIP3    H231840   6.193   4.174   3.913
10633TIP3   OH231841   1.503   3.452   3.140
10633TIP3    H131842   1.415   3.419   3.121
10633TIP3    H231843   1.531   3.494   3.059
10634TIP3   OH231844   7.634   7.375   4.667
10634TIP3    H131845   7.713   7.381   4.613
10634TIP3    H231846   7.562   7.397   4.607
10635TIP3   OH231847   7.977   7.709   4.639
10635TIP3    H131848   7.895   7.698   4.591
10635TIP3    H231849   7.975   7.644   4.708
10636TIP3   OH231850   0.003   3.717   4.596
10636TIP3    H131851   0.011   3.697   4.689
10636TIP3    H231852   0.052   3.648   4.552
10637TIP3   OH231853   6.801   3.679   5.949
10637TIP3    H131854   6.842   3.605   5.993
10637TIP3    H231855   6.865   3.706   5.883
10638TIP3   OH231856   8.233   6.099   5.967
10638TIP3    H131857   8.163   6.088   6.031
10638TIP3    H231858   8.213   6.182   5.924
10639TIP3   OH231859   1.432   6.547   6.471
10639TIP3    H131860   1.487   6.469   6.463
10639TIP3    H231861   1.452   6.599   6.393
10640TIP3   OH231862   4.933   0.635   2.622
10640TIP3    H131863   4.961   0.647   2.712
10640TIP3    H231864   4.875   0.710   2.605
10641TIP3   OH231865   2.206   4.666   1.834
10641TIP3    H131866   2.203   4.589   1.777
10641TIP3    H231867   2.291   4.706   1.818
10642TIP3   OH231868   7.363   6.247   4.037
10642TIP3    H131869   7.303   6.222   4.107
10642TIP3    H231870   7.318   6.223   3.957
10643TIP3   OH231871   7.356   6.958   6.256
10643TIP3    H131872   7.391   6.983   6.342
10643TIP3    H231873   7.261   6.963   6.267
10644TIP3   OH231874   2.083   6.590   5.721
10644TIP3    H131875   2.105   6.615   5.631
10644TIP3    H231876   2.093   6.494   5.722
10645TIP3   OH231877   5.941   2.038   1.454
10645TIP3    H131878   5.989   2.064   1.375
10645TIP3    H231879   6.000   2.059   1.526
10646TIP3   OH231880   3.208   4.373   0.101
10646TIP3    H131881   3.220   4.463   0.131
10646TIP3    H231882   3.279   4.358   0.039
10647TIP3   OH231883   2.569   3.066   5.728
10647TIP3    H131884   2.565   2.987   5.674
10647TIP3    H231885   2.535   3.136   5.672
10648TIP3   OH231886   3.214   4.231   1.653
10648TIP3    H131887   3.200   4.196   1.565
10648TIP3    H231888   3.223   4.153   1.708
10649TIP3   OH231889   7.221   0.908   1.855
10649TIP3    H131890   7.126   0.916   1.867
10649TIP3    H231891   7.236   0.814   1.847
10650TIP3   OH231892   8.147   3.231   2.647
10650TIP3    H131893   8.242   3.244   2.637
10650TIP3    H231894   8.135   3.214   2.740
10651TIP3   OH231895   1.794   1.013   3.604
10651TIP3    H131896   1.841   0.944   3.556
10651TIP3    H231897   1.794   1.087   3.544
10652TIP3   OH231898   5.097   5.265   2.496
10652TIP3    H131899   5.018   5.225   2.460
10652TIP3    H231900   5.168   5.207   2.470
10653TIP3   OH231901   1.530   0.320   1.600
10653TIP3    H131902   1.476   0.386   1.555
10653TIP3    H231903   1.560   0.365   1.680
10654TIP3   OH231904   7.430   3.324   1.016
10654TIP3    H131905   7.452   3.293   0.928
10654TIP3    H231906   7.506   3.300   1.069
10655TIP3   OH231907   1.891   3.881   4.408
10655TIP3    H131908   1.912   3.875   4.314
10655TIP3    H231909   1.799   3.854   4.413
10656TIP3   OH231910   3.548   4.641   0.732
10656TIP3    H131911   3.497   4.614   0.809
10656TIP3    H231912   3.502   4.719   0.701
10657TIP3   OH231913   6.818   2.978   4.316
10657TIP3    H131914   6.854   2.949   4.232
10657TIP3    H231915   6.738   2.928   4.327
10658TIP3   OH231916   6.620   6.701   6.344
10658TIP3    H131917   6.672   6.671   6.270
10658TIP3    H231918   6.625   6.630   6.408
10659TIP3   OH231919   1.141   3.187   0.016
10659TIP3    H131920   1.101   3.112  -0.029
10659TIP3    H231921   1.229   3.158   0.038
10660TIP3   OH231922   8.241   5.756   4.617
10660TIP3    H131923   8.264   5.769   4.709
10660TIP3    H231924   8.324   5.743   4.572
10661TIP3   OH231925   7.136   1.866   3.249
10661TIP3    H131926   7.095   1.944   3.212
10661TIP3    H231927   7.147   1.807   3.174
10662TIP3   OH231928   6.762   4.678   2.303
10662TIP3    H131929   6.852   4.655   2.280
10662TIP3    H231930   6.767   4.703   2.396
10663TIP3   OH231931   6.773   3.111   5.977
10663TIP3    H131932   6.678   3.123   5.987
10663TIP3    H231933   6.806   3.105   6.066
10664TIP3   OH231934   4.863   1.530   1.678
10664TIP3    H131935   4.856   1.435   1.669
10664TIP3    H231936   4.951   1.545   1.711
10665TIP3   OH231937   0.774   1.270   0.109
10665TIP3    H131938   0.849   1.263   0.050
10665TIP3    H231939   0.737   1.356   0.089
10666TIP3   OH231940   7.298   0.055   4.628
10666TIP3    H131941   7.282   0.139   4.672
10666TIP3    H231942   7.387   0.031   4.654
10667TIP3   OH231943   3.795   6.527   3.445
10667TIP3    H131944   3.778   6.602   3.502
10667TIP3    H231945   3.708   6.493   3.424
10668TIP3   OH231946   6.999   2.951   3.289
10668TIP3    H131947   7.043   2.967   3.373
10668TIP3    H231948   7.054   2.995   3.224
10669TIP3   OH231949   7.405   6.588   2.060
10669TIP3    H131950   7.361   6.526   2.002
10669TIP3    H231951   7.348   6.595   2.136
10670TIP3   OH231952   1.569   0.140   3.890
10670TIP3    H131953   1.477   0.134   3.866
10670TIP3    H231954   1.597   0.226   3.856
10671TIP3   OH231955   8.147   6.700   3.121
10671TIP3    H131956   8.124   6.788   3.152
10671TIP3    H231957   8.093   6.641   3.173
10672TIP3   OH231958   8.053   3.038   3.575
10672TIP3    H131959   8.093   2.957   3.607
10672TIP3    H231960   8.104   3.061   3.498
10673TIP3   OH231961   3.580   7.471   2.426
10673TIP3    H131962   3.522   7.405   2.464
10673TIP3    H231963   3.573   7.546   2.485
10674TIP3   OH231964   6.682   3.509   4.287
10674TIP3    H131965   6.751   3.521   4.222
10674TIP3    H231966   6.670   3.595   4.327
10675TIP3   OH231967   6.814   0.047   2.960
10675TIP3    H131968   6.862   0.014   3.036
10675TIP3    H231969   6.819   0.142   2.969
10676TIP3   OH231970   3.670   2.620   0.634
10676TIP3    H131971   3.740   2.676   0.603
10676TIP3    H231972   3.644   2.658   0.718
10677TIP3   OH231973   1.388   4.061   1.216
10677TIP3    H131974   1.459   4.000   1.198
10677TIP3    H231975   1.327   4.011   1.271
10678TIP3   OH231976   7.288   6.193   4.704
10678TIP3    H131977   7.248   6.204   4.617
10678TIP3    H231978   7.346   6.117   4.694
10679TIP3   OH231979   5.627   0.025   3.777
10679TIP3    H131980   5.713   0.003   3.813
10679TIP3    H231981   5.646   0.079   3.701
10680TIP3   OH231982   6.613   4.984   2.610
10680TIP3    H131983   6.566   4.992   2.693
10680TIP3    H231984   6.549   4.946   2.550
10681TIP3   OH231985   1.600   6.588   4.595
10681TIP3    H131986   1.564   6.510   4.554
10681TIP3    H231987   1.686   6.600   4.555
10682TIP3   OH231988   8.232   7.770   3.377
10682TIP3    H131989   8.275   7.687   3.395
10682TIP3    H231990   8.245   7.784   3.284
10683TIP3   OH231991   7.921   6.522   6.047
10683TIP3    H131992   7.902   6.616   6.055
10683TIP3    H231993   7.888   6.484   6.128
10684TIP3   OH231994   1.012   6.186   1.221
10684TIP3    H131995   1.021   6.138   1.304
10684TIP3    H231996   1.101   6.190   1.186
10685TIP3   OH231997   2.806   6.405   5.944
10685TIP3    H131998   2.804   6.416   6.039
10685TIP3    H231999   2.898   6.423   5.921
10686TIP3   OH232000   3.290   5.267   0.606
10686TIP3    H132001   3.232   5.197   0.636
10686TIP3    H232002   3.312   5.316   0.685
10687TIP3   OH232003   2.085   2.573   2.873
10687TIP3    H132004   2.071   2.580   2.967
10687TIP3    H232005   1.997   2.583   2.835
10688TIP3   OH232006   3.943   2.405   2.170
10688TIP3    H132007   3.893   2.485   2.155
10688TIP3    H232008   3.995   2.394   2.091
10689TIP3   OH232009   0.653   0.445   1.688
10689TIP3    H132010   0.673   0.539   1.685
10689TIP3    H232011   0.685   0.417   1.774
10690TIP3   OH232012   4.444   6.288   4.381
10690TIP3    H132013   4.466   6.313   4.471
10690TIP3    H232014   4.429   6.371   4.336
10691TIP3   OH232015   4.547   7.746   5.098
10691TIP3    H132016   4.559   7.728   5.191
10691TIP3    H232017   4.508   7.833   5.095
10692TIP3   OH232018   6.234   5.681   5.747
10692TIP3    H132019   6.193   5.768   5.754
10692TIP3    H232020   6.259   5.659   5.837
10693TIP3   OH232021   4.640   3.136   4.566
10693TIP3    H132022   4.681   3.216   4.600
10693TIP3    H232023   4.558   3.166   4.526
10694TIP3   OH232024   7.287   7.667   2.801
10694TIP3    H132025   7.233   7.696   2.727
10694TIP3    H232026   7.376   7.667   2.767
10695TIP3   OH232027   1.251   0.822   6.243
10695TIP3    H132028   1.228   0.911   6.214
10695TIP3    H232029   1.345   0.827   6.262
10696TIP3   OH232030   4.122   3.104   2.318
10696TIP3    H132031   4.204   3.120   2.271
10696TIP3    H232032   4.053   3.126   2.255
10697TIP3   OH232033   5.854   7.563   0.050
10697TIP3    H132034   5.919   7.519  -0.005
10697TIP3    H232035   5.897   7.572   0.135
10698TIP3   OH232036   6.441   0.600   6.720
10698TIP3    H132037   6.428   0.694   6.715
10698TIP3    H232038   6.451   0.581   6.814
10699TIP3   OH232039   0.765   5.072   0.614
10699TIP3    H132040   0.755   5.064   0.709
10699TIP3    H232041   0.860   5.066   0.600
10700TIP3   OH232042   4.420   1.355   5.749
10700TIP3    H132043   4.330   1.344   5.779
10700TIP3    H232044   4.451   1.435   5.791
10701TIP3   OH232045   0.573   3.846   3.955
10701TIP3    H132046   0.528   3.862   4.038
10701TIP3    H232047   0.522   3.776   3.913
10702TIP3   OH232048   0.142   0.931   4.995
10702TIP3    H132049   0.204   0.886   4.938
10702TIP3    H232050   0.156   1.024   4.975
10703TIP3   OH232051   6.749   5.849   0.355
10703TIP3    H132052   6.690   5.794   0.303
10703TIP3    H232053   6.836   5.824   0.326
10704TIP3   OH232054   7.404   1.323   1.206
10704TIP3    H132055   7.407   1.253   1.142
10704TIP3    H232056   7.440   1.399   1.161
10705TIP3   OH232057   5.904   0.393   2.993
10705TIP3    H132058   5.832   0.350   3.039
10705TIP3    H232059   5.883   0.486   2.997
10706TIP3   OH232060   3.460   1.958   2.163
10706TIP3    H132061   3.406   1.936   2.239
10706TIP3    H232062   3.550   1.948   2.193
10707TIP3   OH232063   2.423   5.970   2.940
10707TIP3    H132064   2.328   5.982   2.931
10707TIP3    H232065   2.456   5.976   2.850
10708TIP3   OH232066   2.432   5.981   2.652
10708TIP3    H132067   2.351   6.024   2.622
10708TIP3    H232068   2.502   6.033   2.612
10709TIP3   OH232069   1.427   2.968   5.376
10709TIP3    H132070   1.479   3.005   5.305
10709TIP3    H232071   1.492   2.931   5.437
10710TIP3   OH232072   3.230   6.883   6.088
10710TIP3    H132073   3.234   6.975   6.062
10710TIP3    H232074   3.166   6.844   6.028
10711TIP3   OH232075   7.894   7.185   4.011
10711TIP3    H132076   7.881   7.143   4.096
10711TIP3    H232077   7.989   7.192   4.002
10712TIP3   OH232078   3.461   0.510   0.061
10712TIP3    H132079   3.487   0.488  -0.029
10712TIP3    H232080   3.516   0.454   0.116
10713TIP3   OH232081   4.146   5.767   3.815
10713TIP3    H132082   4.130   5.718   3.895
10713TIP3    H232083   4.097   5.848   3.826
10714TIP3   OH232084   2.242   4.609   3.211
10714TIP3    H132085   2.184   4.682   3.235
10714TIP3    H232086   2.320   4.623   3.265
10715TIP3   OH232087   2.469   4.344   0.261
10715TIP3    H132088   2.402   4.282   0.290
10715TIP3    H232089   2.437   4.375   0.176
10716TIP3   OH232090   7.086   0.931   2.702
10716TIP3    H132091   7.079   0.996   2.772
10716TIP3    H232092   7.134   0.976   2.633
10717TIP3   OH232093   5.301   6.540   3.713
10717TIP3    H132094   5.359   6.616   3.708
10717TIP3    H232095   5.228   6.562   3.655
10718TIP3   OH232096   5.928   7.648   3.320
10718TIP3    H132097   5.952   7.562   3.287
10718TIP3    H232098   5.934   7.705   3.244
10719TIP3   OH232099   2.239   2.115   0.092
10719TIP3    H132100   2.213   2.143   0.004
10719TIP3    H232101   2.199   2.180   0.150
10720TIP3   OH232102   4.052   0.528   2.960
10720TIP3    H132103   4.118   0.573   3.013
10720TIP3    H232104   4.020   0.457   3.016
10721TIP3   OH232105   7.028   2.098   3.158
10721TIP3    H132106   6.956   2.103   3.221
10721TIP3    H232107   6.986   2.069   3.077
10722TIP3   OH232108   1.951   0.642   4.444
10722TIP3    H132109   1.871   0.590   4.436
10722TIP3    H232110   2.020   0.585   4.410
10723TIP3   OH232111   2.050   1.483   4.469
10723TIP3    H132112   1.977   1.469   4.408
10723TIP3    H232113   2.094   1.561   4.436
10724TIP3   OH232114   5.432   2.404   1.910
10724TIP3    H132115   5.361   2.341   1.924
10724TIP3    H232116   5.423   2.430   1.818
10725TIP3   OH232117   4.469   1.160   1.919
10725TIP3    H132118   4.419   1.234   1.884
10725TIP3    H232119   4.548   1.199   1.956
10726TIP3   OH232120   7.794   3.953   0.045
10726TIP3    H132121   7.710   3.907   0.044
10726TIP3    H232122   7.773   4.041   0.077
10727TIP3   OH232123   4.359   4.844   3.404
10727TIP3    H132124   4.331   4.895   3.479
10727TIP3    H232125   4.296   4.866   3.335
10728TIP3   OH232126   0.301   3.227   3.947
10728TIP3    H132127   0.273   3.285   3.876
10728TIP3    H232128   0.232   3.232   4.012
10729TIP3   OH232129   4.473   5.817   2.961
10729TIP3    H132130   4.379   5.809   2.949
10729TIP3    H232131   4.491   5.910   2.943
10730TIP3   OH232132   0.259   1.884   4.459
10730TIP3    H132133   0.165   1.902   4.464
10730TIP3    H232134   0.284   1.858   4.548
10731TIP3   OH232135   6.347   0.424   0.900
10731TIP3    H132136   6.352   0.515   0.870
10731TIP3    H232137   6.268   0.421   0.954
10732TIP3   OH232138   6.847   1.845   0.184
10732TIP3    H132139   6.880   1.780   0.245
10732TIP3    H232140   6.889   1.927   0.210
10733TIP3   OH232141   3.788   0.934   2.995
10733TIP3    H132142   3.811   1.005   3.055
10733TIP3    H232143   3.862   0.927   2.936
10734TIP3   OH232144   1.056   5.138   5.536
10734TIP3    H132145   1.142   5.101   5.522
10734TIP3    H232146   1.002   5.064   5.563
10735TIP3   OH232147   0.366   5.918   2.352
10735TIP3    H132148   0.353   6.007   2.319
10735TIP3    H232149   0.406   5.871   2.279
10736TIP3   OH232150   2.911   5.875   0.508
10736TIP3    H132151   2.821   5.885   0.477
10736TIP3    H232152   2.915   5.928   0.588
10737TIP3   OH232153   2.323   6.343   3.929
10737TIP3    H132154   2.317   6.427   3.885
10737TIP3    H232155   2.397   6.299   3.888
10738TIP3   OH232156   0.446   1.458   1.816
10738TIP3    H132157   0.428   1.367   1.791
10738TIP3    H232158   0.391   1.473   1.893
10739TIP3   OH232159   8.063   5.637   3.868
10739TIP3    H132160   8.152   5.604   3.866
10739TIP3    H232161   8.043   5.647   3.961
10740TIP3   OH232162   4.162   7.449   1.343
10740TIP3    H132163   4.223   7.514   1.308
10740TIP3    H232164   4.082   7.498   1.361
10741TIP3   OH232165   8.095   1.812   6.610
10741TIP3    H132166   8.124   1.819   6.700
10741TIP3    H232167   8.002   1.834   6.613
10742TIP3   OH232168   1.089   6.412   1.631
10742TIP3    H132169   1.037   6.407   1.550
10742TIP3    H232170   1.106   6.320   1.654
10743TIP3   OH232171   8.149   2.085   1.968
10743TIP3    H132172   8.071   2.139   1.954
10743TIP3    H232173   8.216   2.124   1.913
10744TIP3   OH232174   6.700   6.603   2.208
10744TIP3    H132175   6.677   6.696   2.197
10744TIP3    H232176   6.616   6.558   2.216
10745TIP3   OH232177   3.410   3.547   1.550
10745TIP3    H132178   3.483   3.597   1.512
10745TIP3    H232179   3.336   3.564   1.491
10746TIP3   OH232180   4.804   2.729   4.033
10746TIP3    H132181   4.871   2.788   4.066
10746TIP3    H232182   4.745   2.715   4.108
10747TIP3   OH232183   2.977   5.574   0.703
10747TIP3    H132184   3.030   5.511   0.752
10747TIP3    H232185   2.941   5.632   0.769
10748TIP3   OH232186   7.764   5.937   4.530
10748TIP3    H132187   7.740   5.961   4.620
10748TIP3    H232188   7.854   5.904   4.538
10749TIP3   OH232189   5.598   6.138   0.223
10749TIP3    H132190   5.594   6.042   0.226
10749TIP3    H232191   5.690   6.158   0.240
10750TIP3   OH232192   7.478   1.762   3.148
10750TIP3    H132193   7.384   1.772   3.131
10750TIP3    H232194   7.508   1.700   3.082
10751TIP3   OH232195   2.659   5.520   5.487
10751TIP3    H132196   2.704   5.590   5.440
10751TIP3    H232197   2.601   5.481   5.421
10752TIP3   OH232198   5.558   1.082   4.364
10752TIP3    H132199   5.573   1.166   4.320
10752TIP3    H232200   5.524   1.025   4.295
10753TIP3   OH232201   8.164   4.587   1.997
10753TIP3    H132202   8.108   4.604   2.073
10753TIP3    H232203   8.111   4.613   1.922
10754TIP3   OH232204   6.887   3.348   4.034
10754TIP3    H132205   6.931   3.264   4.019
10754TIP3    H232206   6.957   3.408   4.060
10755TIP3   OH232207   7.802   0.631   4.941
10755TIP3    H132208   7.874   0.584   4.982
10755TIP3    H232209   7.831   0.722   4.938
10756TIP3   OH232210   3.526   4.427   6.500
10756TIP3    H132211   3.573   4.427   6.417
10756TIP3    H232212   3.593   4.407   6.566
10757TIP3   OH232213   6.284   3.000   6.696
10757TIP3    H132214   6.285   3.074   6.757
10757TIP3    H232215   6.195   2.965   6.703
10758TIP3   OH232216   7.446   7.749   5.647
10758TIP3    H132217   7.521   7.807   5.637
10758TIP3    H232218   7.370   7.807   5.649
10759TIP3   OH232219   2.000   0.322   0.651
10759TIP3    H132220   2.087   0.318   0.611
10759TIP3    H232221   1.940   0.324   0.577
10760TIP3   OH232222   2.904   5.130   2.708
10760TIP3    H132223   2.910   5.221   2.680
10760TIP3    H232224   2.867   5.134   2.796
10761TIP3   OH232225   6.269   0.569   4.559
10761TIP3    H132226   6.329   0.640   4.538
10761TIP3    H232227   6.197   0.579   4.497
10762TIP3   OH232228   4.285   3.902   4.070
10762TIP3    H132229   4.363   3.957   4.078
10762TIP3    H232230   4.276   3.860   4.155
10763TIP3   OH232231   0.239   3.288   6.577
10763TIP3    H132232   0.229   3.375   6.538
10763TIP3    H232233   0.288   3.303   6.657
10764TIP3   OH232234   4.657   4.006   1.402
10764TIP3    H132235   4.630   4.001   1.310
10764TIP3    H232236   4.599   4.073   1.440
10765TIP3   OH232237   4.155   3.020   0.971
10765TIP3    H132238   4.088   2.982   1.028
10765TIP3    H232239   4.212   3.068   1.031
10766TIP3   OH232240   1.528   0.630   1.353
10766TIP3    H132241   1.441   0.625   1.392
10766TIP3    H232242   1.575   0.694   1.405
10767TIP3   OH232243   4.288   4.911   1.747
10767TIP3    H132244   4.303   4.904   1.653
10767TIP3    H232245   4.242   4.994   1.758
10768TIP3   OH232246   5.838   6.349   5.832
10768TIP3    H132247   5.774   6.417   5.854
10768TIP3    H232248   5.917   6.375   5.879
10769TIP3   OH232249   7.008   2.209   5.112
10769TIP3    H132250   7.079   2.269   5.089
10769TIP3    H232251   6.996   2.220   5.206
10770TIP3   OH232252   7.490   7.352   3.966
10770TIP3    H132253   7.478   7.368   3.873
10770TIP3    H232254   7.409   7.310   3.995
10771TIP3   OH232255   5.742   4.437   5.100
10771TIP3    H132256   5.805   4.452   5.171
10771TIP3    H232257   5.658   4.467   5.136
10772TIP3   OH232258   0.975   3.333   1.149
10772TIP3    H132259   0.936   3.285   1.076
10772TIP3    H232260   0.972   3.424   1.121
10773TIP3   OH232261   8.235   3.619   0.961
10773TIP3    H132262   8.177   3.672   0.908
10773TIP3    H232263   8.294   3.682   1.003
10774TIP3   OH232264   5.339   6.481   2.138
10774TIP3    H132265   5.380   6.414   2.192
10774TIP3    H232266   5.404   6.503   2.072
10775TIP3   OH232267   4.071   7.351   5.890
10775TIP3    H132268   4.082   7.382   5.980
10775TIP3    H232269   4.105   7.261   5.892
10776TIP3   OH232270   2.057   2.659   3.128
10776TIP3    H132271   2.137   2.663   3.180
10776TIP3    H232272   2.004   2.733   3.160
10777TIP3   OH232273   3.611   4.209   1.758
10777TIP3    H132274   3.654   4.205   1.844
10777TIP3    H232275   3.670   4.160   1.700
10778TIP3   OH232276   6.238   1.506   2.929
10778TIP3    H132277   6.315   1.472   2.974
10778TIP3    H232278   6.169   1.504   2.996
10779TIP3   OH232279   5.434   4.734   5.360
10779TIP3    H132280   5.478   4.738   5.445
10779TIP3    H232281   5.370   4.664   5.370
10780TIP3   OH232282   5.042   5.928   0.366
10780TIP3    H132283   5.035   5.951   0.458
10780TIP3    H232284   5.105   5.990   0.330
10781TIP3   OH232285   3.555   4.184   3.500
10781TIP3    H132286   3.645   4.169   3.473
10781TIP3    H232287   3.559   4.265   3.551
10782TIP3   OH232288   2.661   1.438   0.766
10782TIP3    H132289   2.627   1.522   0.735
10782TIP3    H232290   2.654   1.443   0.862
10783TIP3   OH232291   4.109   1.406   5.797
10783TIP3    H132292   4.038   1.346   5.819
10783TIP3    H232293   4.083   1.489   5.838
10784TIP3   OH232294   2.157   4.322   4.382
10784TIP3    H132295   2.108   4.349   4.460
10784TIP3    H232296   2.112   4.366   4.309
10785TIP3   OH232297   8.060   1.407   0.163
10785TIP3    H132298   8.012   1.465   0.222
10785TIP3    H232299   8.086   1.463   0.090
10786TIP3   OH232300   6.746   5.061   1.598
10786TIP3    H132301   6.815   5.127   1.611
10786TIP3    H232302   6.748   5.009   1.678
10787TIP3   OH232303   6.452   6.444   4.694
10787TIP3    H132304   6.457   6.356   4.730
10787TIP3    H232305   6.440   6.501   4.771
10788TIP3   OH232306   1.146   5.782   2.121
10788TIP3    H132307   1.180   5.739   2.043
10788TIP3    H232308   1.063   5.820   2.094
10789TIP3   OH232309   3.097   7.001   4.524
10789TIP3    H132310   3.168   6.937   4.526
10789TIP3    H232311   3.108   7.046   4.440
10790TIP3   OH232312   5.668   6.608   2.991
10790TIP3    H132313   5.637   6.679   2.935
10790TIP3    H232314   5.752   6.583   2.954
10791TIP3   OH232315   3.672   0.425   4.352
10791TIP3    H132316   3.671   0.351   4.412
10791TIP3    H232317   3.636   0.498   4.403
10792TIP3   OH232318   0.057   0.884   1.925
10792TIP3    H132319   0.152   0.886   1.919
10792TIP3    H232320   0.030   0.826   1.854
10793TIP3   OH232321   1.563   5.356   0.757
10793TIP3    H132322   1.654   5.357   0.788
10793TIP3    H232323   1.520   5.289   0.809
10794TIP3   OH232324   0.983   5.676   1.463
10794TIP3    H132325   0.929   5.740   1.508
10794TIP3    H232326   1.061   5.724   1.436
10795TIP3   OH232327   2.031   5.056   2.914
10795TIP3    H132328   1.972   4.981   2.906
10795TIP3    H232329   2.051   5.080   2.823
10796TIP3   OH232330   6.256   5.168   5.735
10796TIP3    H132331   6.327   5.219   5.696
10796TIP3    H232332   6.286   5.150   5.824
10797TIP3   OH232333   3.553   4.781   1.855
10797TIP3    H132334   3.486   4.764   1.921
10797TIP3    H232335   3.635   4.761   1.900
10798TIP3   OH232336   5.374   5.680   5.947
10798TIP3    H132337   5.328   5.603   5.916
10798TIP3    H232338   5.325   5.709   6.024
10799TIP3   OH232339   2.956   5.336   0.274
10799TIP3    H132340   2.960   5.317   0.180
10799TIP3    H232341   3.015   5.410   0.286
10800TIP3   OH232342   3.318   0.101   0.120
10800TIP3    H132343   3.363   0.022   0.149
10800TIP3    H232344   3.260   0.123   0.194
10801TIP3   OH232345   5.107   5.452   3.883
10801TIP3    H132346   5.194   5.421   3.856
10801TIP3    H232347   5.087   5.522   3.820
10802TIP3   OH232348   2.318   6.579   4.090
10802TIP3    H132349   2.266   6.642   4.140
10802TIP3    H232350   2.274   6.495   4.104
10803TIP3   OH232351   2.785   4.878   4.111
10803TIP3    H132352   2.696   4.869   4.079
10803TIP3    H232353   2.838   4.892   4.032
10804TIP3   OH232354   7.936   3.150   6.336
10804TIP3    H132355   7.956   3.197   6.417
10804TIP3    H232356   8.004   3.178   6.275
10805TIP3   OH232357   5.824   2.694   5.592
10805TIP3    H132358   5.833   2.738   5.507
10805TIP3    H232359   5.763   2.749   5.641
10806TIP3   OH232360   0.117   0.198   6.331
10806TIP3    H132361   0.097   0.287   6.360
10806TIP3    H232362   0.137   0.150   6.412
10807TIP3   OH232363   6.151   4.529   0.433
10807TIP3    H132364   6.069   4.480   0.434
10807TIP3    H232365   6.207   4.481   0.372
10808TIP3   OH232366   6.509   3.975   2.645
10808TIP3    H132367   6.439   3.918   2.675
10808TIP3    H232368   6.493   3.986   2.551
10809TIP3   OH232369   3.954   2.081   6.064
10809TIP3    H132370   3.958   2.145   6.135
10809TIP3    H232371   4.045   2.067   6.038
10810TIP3   OH232372   2.633   3.131   3.101
10810TIP3    H132373   2.578   3.056   3.077
10810TIP3    H232374   2.706   3.091   3.148
10811TIP3   OH232375   7.760   2.470   3.107
10811TIP3    H132376   7.678   2.433   3.142
10811TIP3    H232377   7.753   2.457   3.012
10812TIP3   OH232378   2.390   4.336   6.607
10812TIP3    H132379   2.313   4.372   6.562
10812TIP3    H232380   2.371   4.242   6.616
10813TIP3   OH232381   7.073   5.446   0.363
10813TIP3    H132382   7.041   5.466   0.275
10813TIP3    H232383   7.160   5.409   0.350
10814TIP3   OH232384   3.503   5.047   3.673
10814TIP3    H132385   3.413   5.015   3.665
10814TIP3    H232386   3.494   5.133   3.714
10815TIP3   OH232387   7.117   0.107   5.779
10815TIP3    H132388   7.051   0.149   5.723
10815TIP3    H232389   7.195   0.160   5.768
10816TIP3   OH232390   7.015   4.507   6.412
10816TIP3    H132391   7.042   4.481   6.323
10816TIP3    H232392   6.934   4.555   6.399
10817TIP3   OH232393   0.511   6.981   2.847
10817TIP3    H132394   0.528   7.075   2.837
10817TIP3    H232395   0.423   6.969   2.813
10818TIP3   OH232396   6.220   7.152   5.927
10818TIP3    H132397   6.197   7.072   5.973
10818TIP3    H232398   6.313   7.164   5.946
10819TIP3   OH232399   8.046   2.812   6.102
10819TIP3    H132400   7.969   2.856   6.066
10819TIP3    H232401   8.119   2.847   6.051
10820TIP3   OH232402   4.760   2.295   1.065
10820TIP3    H132403   4.802   2.234   1.126
10820TIP3    H232404   4.670   2.301   1.097
10821TIP3   OH232405   5.153   6.118   3.523
10821TIP3    H132406   5.198   6.160   3.596
10821TIP3    H232407   5.205   6.041   3.503
10822TIP3   OH232408   4.971   2.467   6.482
10822TIP3    H132409   5.006   2.464   6.393
10822TIP3    H232410   5.009   2.391   6.526
10823TIP3   OH232411   7.840   0.208   4.689
10823TIP3    H132412   7.813   0.154   4.614
10823TIP3    H232413   7.932   0.188   4.701
10824TIP3   OH232414   0.561   0.288   4.667
10824TIP3    H132415   0.567   0.299   4.572
10824TIP3    H232416   0.549   0.194   4.679
10825TIP3   OH232417   7.137   1.424   1.273
10825TIP3    H132418   7.223   1.388   1.295
10825TIP3    H232419   7.157   1.503   1.223
10826TIP3   OH232420   7.703   2.901   0.186
10826TIP3    H132421   7.753   2.829   0.147
10826TIP3    H232422   7.639   2.858   0.243
10827TIP3   OH232423   4.486   2.379   5.334
10827TIP3    H132424   4.405   2.363   5.382
10827TIP3    H232425   4.555   2.373   5.400
10828TIP3   OH232426   4.253   2.894   2.923
10828TIP3    H132427   4.295   2.887   2.837
10828TIP3    H232428   4.182   2.830   2.921
10829TIP3   OH232429   3.476   5.083   6.518
10829TIP3    H132430   3.461   5.163   6.468
10829TIP3    H232431   3.571   5.082   6.533
10830TIP3   OH232432   4.314   2.572   2.453
10830TIP3    H132433   4.296   2.537   2.365
10830TIP3    H232434   4.228   2.597   2.487
10831TIP3   OH232435   4.003   0.430   2.176
10831TIP3    H132436   3.922   0.474   2.151
10831TIP3    H232437   4.070   0.497   2.171
10832TIP3   OH232438   0.567   7.579   5.799
10832TIP3    H132439   0.590   7.504   5.853
10832TIP3    H232440   0.625   7.573   5.723
10833TIP3   OH232441   2.559   0.103   3.876
10833TIP3    H132442   2.542   0.025   3.929
10833TIP3    H232443   2.581   0.171   3.940
10834TIP3   OH232444   2.566   6.214   0.976
10834TIP3    H132445   2.516   6.183   1.051
10834TIP3    H232446   2.501   6.225   0.907
10835TIP3   OH232447   6.618   4.424   5.640
10835TIP3    H132448   6.567   4.472   5.575
10835TIP3    H232449   6.703   4.468   5.641
10836TIP3   OH232450   3.542   5.741   4.528
10836TIP3    H132451   3.457   5.781   4.545
10836TIP3    H232452   3.531   5.650   4.555
10837TIP3   OH232453   7.096   0.750   4.145
10837TIP3    H132454   7.027   0.699   4.103
10837TIP3    H232455   7.161   0.764   4.076
10838TIP3   OH232456   4.319   7.426   6.325
10838TIP3    H132457   4.282   7.498   6.377
10838TIP3    H232458   4.412   7.424   6.349
10839TIP3   OH232459   5.644   4.866   0.927
10839TIP3    H132460   5.663   4.937   0.990
10839TIP3    H232461   5.634   4.911   0.843
10840TIP3   OH232462   6.988   3.355   5.850
10840TIP3    H132463   7.038   3.325   5.926
10840TIP3    H232464   6.896   3.342   5.874
10841TIP3   OH232465   1.625   5.797   4.001
10841TIP3    H132466   1.650   5.874   4.051
10841TIP3    H232467   1.579   5.832   3.924
10842TIP3   OH232468   5.960   3.345   4.214
10842TIP3    H132469   5.925   3.261   4.185
10842TIP3    H232470   5.886   3.406   4.204
10843TIP3   OH232471   7.741   0.744   2.414
10843TIP3    H132472   7.827   0.707   2.429
10843TIP3    H232473   7.682   0.668   2.412
10844TIP3   OH232474   0.711   6.982   4.342
10844TIP3    H132475   0.757   7.051   4.390
10844TIP3    H232476   0.619   7.000   4.355
10845TIP3   OH232477   5.417   3.016   4.448
10845TIP3    H132478   5.352   3.013   4.378
10845TIP3    H232479   5.467   2.935   4.438
10846TIP3   OH232480   4.682   2.752   0.644
10846TIP3    H132481   4.721   2.834   0.673
10846TIP3    H232482   4.624   2.727   0.716
10847TIP3   OH232483   6.537   5.891   6.752
10847TIP3    H132484   6.472   5.871   6.684
10847TIP3    H232485   6.525   5.985   6.769
10848TIP3   OH232486   4.427   5.671   3.877
10848TIP3    H132487   4.348   5.686   3.928
10848TIP3    H232488   4.397   5.626   3.798
10849TIP3   OH232489   1.249   3.120   1.440
10849TIP3    H132490   1.317   3.059   1.412
10849TIP3    H232491   1.256   3.194   1.380
10850TIP3   OH232492   6.730   2.234   3.577
10850TIP3    H132493   6.741   2.155   3.630
10850TIP3    H232494   6.646   2.270   3.604
10851TIP3   OH232495   8.011   0.823   1.989
10851TIP3    H132496   8.016   0.885   2.061
10851TIP3    H232497   8.031   0.738   2.028
10852TIP3   OH232498   1.108   3.574   3.023
10852TIP3    H132499   1.055   3.622   3.086
10852TIP3    H232500   1.084   3.612   2.938
10853TIP3   OH232501   0.419   5.625   2.479
10853TIP3    H132502   0.464   5.632   2.395
10853TIP3    H232503   0.441   5.537   2.511
10854TIP3   OH232504   4.488   2.019   6.657
10854TIP3    H132505   4.459   1.967   6.582
10854TIP3    H232506   4.438   2.100   6.650
10855TIP3   OH232507   2.168   5.215   0.854
10855TIP3    H132508   2.113   5.293   0.857
10855TIP3    H232509   2.140   5.168   0.775
10856TIP3   OH232510   7.340   4.549   1.728
10856TIP3    H132511   7.306   4.621   1.782
10856TIP3    H232512   7.431   4.538   1.755
10857TIP3   OH232513   4.560   7.272   4.461
10857TIP3    H132514   4.587   7.227   4.381
10857TIP3    H232515   4.641   7.277   4.513
10858TIP3   OH232516   7.689   0.316   5.451
10858TIP3    H132517   7.768   0.276   5.415
10858TIP3    H232518   7.723   0.376   5.518
10859TIP3   OH232519   2.872   2.530   4.611
10859TIP3    H132520   2.802   2.575   4.659
10859TIP3    H232521   2.951   2.581   4.628
10860TIP3   OH232522   3.464   2.324   1.642
10860TIP3    H132523   3.375   2.351   1.619
10860TIP3    H232524   3.498   2.397   1.693
10861TIP3   OH232525   2.590   4.671   0.148
10861TIP3    H132526   2.544   4.588   0.167
10861TIP3    H232527   2.656   4.647   0.083
10862TIP3   OH232528   4.637   4.316   3.139
10862TIP3    H132529   4.593   4.248   3.088
10862TIP3    H232530   4.565   4.365   3.180
10863TIP3   OH232531   6.686   2.538   0.768
10863TIP3    H132532   6.756   2.593   0.804
10863TIP3    H232533   6.655   2.486   0.842
10864TIP3   OH232534   4.081   0.226   2.360
10864TIP3    H132535   4.062   0.291   2.292
10864TIP3    H232536   4.136   0.271   2.423
10865TIP3   OH232537   2.752   1.484   5.696
10865TIP3    H132538   2.671   1.514   5.737
10865TIP3    H232539   2.725   1.454   5.609
10866TIP3   OH232540   3.872   3.411   6.455
10866TIP3    H132541   3.948   3.460   6.488
10866TIP3    H232542   3.896   3.319   6.466
10867TIP3   OH232543   0.563   2.716   4.829
10867TIP3    H132544   0.543   2.628   4.861
10867TIP3    H232545   0.543   2.713   4.736
10868TIP3   OH232546   7.144   7.329   0.625
10868TIP3    H132547   7.139   7.365   0.536
10868TIP3    H232548   7.060   7.351   0.665
10869TIP3   OH232549   0.055   2.663   1.802
10869TIP3    H132550   0.067   2.582   1.852
10869TIP3    H232551   0.014   2.723   1.865
10870TIP3   OH232552   4.099   7.228   5.201
10870TIP3    H132553   4.192   7.222   5.176
10870TIP3    H232554   4.074   7.138   5.223
10871TIP3   OH232555   5.269   7.630   6.679
10871TIP3    H132556   5.320   7.601   6.754
10871TIP3    H232557   5.178   7.631   6.711
10872TIP3   OH232558   3.258   1.505   5.356
10872TIP3    H132559   3.240   1.461   5.439
10872TIP3    H232560   3.352   1.518   5.355
10873TIP3   OH232561   2.643   7.577   5.409
10873TIP3    H132562   2.593   7.528   5.475
10873TIP3    H232563   2.734   7.558   5.430
10874TIP3   OH232564   3.374   6.792   4.502
10874TIP3    H132565   3.446   6.855   4.505
10874TIP3    H232566   3.366   6.768   4.410
10875TIP3   OH232567   4.819   0.145   4.252
10875TIP3    H132568   4.801   0.151   4.158
10875TIP3    H232569   4.833   0.051   4.267
10876TIP3   OH232570   7.572   5.852   6.455
10876TIP3    H132571   7.520   5.865   6.534
10876TIP3    H232572   7.575   5.938   6.413
10877TIP3   OH232573   0.801   5.865   1.546
10877TIP3    H132574   0.768   5.867   1.636
10877TIP3    H232575   0.723   5.873   1.492
10878TIP3   OH232576   7.287   6.555   5.773
10878TIP3    H132577   7.207   6.516   5.737
10878TIP3    H232578   7.269   6.567   5.866
10879TIP3   OH232579   3.765   2.353   0.663
10879TIP3    H132580   3.781   2.365   0.757
10879TIP3    H232581   3.710   2.427   0.638
10880TIP3   OH232582   5.423   6.114   1.084
10880TIP3    H132583   5.485   6.158   1.142
10880TIP3    H232584   5.359   6.074   1.143
10881TIP3   OH232585   6.138   0.710   5.072
10881TIP3    H132586   6.053   0.677   5.043
10881TIP3    H232587   6.199   0.683   5.004
10882TIP3   OH232588   6.913   0.765   1.670
10882TIP3    H132589   6.969   0.726   1.737
10882TIP3    H232590   6.965   0.764   1.590
10883TIP3   OH232591   6.093   2.103   1.719
10883TIP3    H132592   6.018   2.135   1.769
10883TIP3    H232593   6.137   2.042   1.778
10884TIP3   OH232594   0.213   4.552   3.749
10884TIP3    H132595   0.228   4.646   3.759
10884TIP3    H232596   0.137   4.545   3.691
10885TIP3   OH232597   4.311   6.977   1.430
10885TIP3    H132598   4.286   7.059   1.386
10885TIP3    H232599   4.380   6.941   1.374
10886TIP3   OH232600   2.381   6.541   6.039
10886TIP3    H132601   2.434   6.509   5.967
10886TIP3    H232602   2.324   6.468   6.062
10887TIP3   OH232603   5.274   0.247   4.713
10887TIP3    H132604   5.287   0.280   4.624
10887TIP3    H232605   5.343   0.181   4.724
10888TIP3   OH232606  -0.012   2.968   5.104
10888TIP3    H132607  -0.026   2.935   5.015
10888TIP3    H232608   0.070   2.927   5.132
10889TIP3   OH232609   1.573   4.403   3.246
10889TIP3    H132610   1.580   4.370   3.335
10889TIP3    H232611   1.638   4.473   3.241
10890TIP3   OH232612   1.438   4.423   0.269
10890TIP3    H132613   1.531   4.408   0.280
10890TIP3    H232614   1.405   4.344   0.226
10891TIP3   OH232615   2.126   1.062   4.426
10891TIP3    H132616   2.211   1.028   4.396
10891TIP3    H232617   2.093   0.993   4.484
10892TIP3   OH232618   0.462   2.977   4.660
10892TIP3    H132619   0.491   3.038   4.593
10892TIP3    H232620   0.522   2.902   4.652
10893TIP3   OH232621   4.439   4.134   3.028
10893TIP3    H132622   4.432   4.043   3.057
10893TIP3    H232623   4.353   4.156   2.994
10894TIP3   OH232624   2.775   4.194   5.222
10894TIP3    H132625   2.705   4.258   5.210
10894TIP3    H232626   2.780   4.147   5.138
10895TIP3   OH232627   6.159   1.544   5.629
10895TIP3    H132628   6.144   1.449   5.630
10895TIP3    H232629   6.252   1.554   5.645
10896TIP3   OH232630   4.085   5.670   1.076
10896TIP3    H132631   4.031   5.748   1.065
10896TIP3    H232632   4.026   5.597   1.055
10897TIP3   OH232633   0.450   3.353   1.866
10897TIP3    H132634   0.380   3.342   1.930
10897TIP3    H232635   0.508   3.278   1.881
10898TIP3   OH232636   0.112   4.759   0.275
10898TIP3    H132637   0.151   4.790   0.193
10898TIP3    H232638   0.039   4.704   0.249
10899TIP3   OH232639   6.337   4.319   2.964
10899TIP3    H132640   6.248   4.335   2.934
10899TIP3    H232641   6.389   4.308   2.885
10900TIP3   OH232642   8.123   7.320   0.628
10900TIP3    H132643   8.198   7.280   0.671
10900TIP3    H232644   8.120   7.278   0.542
10901TIP3   OH232645   1.638   2.656   2.763
10901TIP3    H132646   1.606   2.726   2.820
10901TIP3    H232647   1.674   2.702   2.687
10902TIP3   OH232648   0.108   0.273   6.074
10902TIP3    H132649   0.110   0.234   6.161
10902TIP3    H232650   0.070   0.359   6.087
10903TIP3   OH232651   5.671   6.655   3.991
10903TIP3    H132652   5.710   6.684   3.909
10903TIP3    H232653   5.742   6.610   4.037
10904TIP3   OH232654   0.418   1.179   1.688
10904TIP3    H132655   0.492   1.140   1.734
10904TIP3    H232656   0.454   1.207   1.604
10905TIP3   OH232657   5.716   0.469   2.705
10905TIP3    H132658   5.728   0.484   2.611
10905TIP3    H232659   5.746   0.550   2.746
10906TIP3   OH232660   0.213   6.274   5.849
10906TIP3    H132661   0.195   6.336   5.778
10906TIP3    H232662   0.132   6.270   5.899
10907TIP3   OH232663   3.604   5.575   4.941
10907TIP3    H132664   3.516   5.593   4.907
10907TIP3    H232665   3.646   5.524   4.872
10908TIP3   OH232666   4.536   0.094   5.550
10908TIP3    H132667   4.565   0.011   5.587
10908TIP3    H232668   4.449   0.108   5.587
10909TIP3   OH232669   7.908   3.095   0.239
10909TIP3    H132670   7.825   3.048   0.228
10909TIP3    H232671   7.965   3.032   0.284
10910TIP3   OH232672   6.096   4.159   2.287
10910TIP3    H132673   6.032   4.230   2.286
10910TIP3    H232674   6.152   4.177   2.211
10911TIP3   OH232675   0.069   5.255   3.245
10911TIP3    H132676   0.113   5.297   3.171
10911TIP3    H232677  -0.009   5.215   3.207
10912TIP3   OH232678   4.945   5.032   4.044
10912TIP3    H132679   4.963   4.966   4.111
10912TIP3    H232680   5.027   5.081   4.035
10913TIP3   OH232681   3.986   2.277   2.693
10913TIP3    H132682   3.937   2.204   2.656
10913TIP3    H232683   4.027   2.320   2.617
10914TIP3   OH232684   1.376   0.132   4.148
10914TIP3    H132685   1.454   0.139   4.202
10914TIP3    H232686   1.303   0.145   4.209
10915TIP3   OH232687   2.606   5.391   6.075
10915TIP3    H132688   2.637   5.390   5.985
10915TIP3    H232689   2.511   5.378   6.068
10916TIP3   OH232690   7.354   2.956   4.081
10916TIP3    H132691   7.412   2.904   4.137
10916TIP3    H232692   7.397   3.041   4.074
10917TIP3   OH232693   2.836   4.123   1.159
10917TIP3    H132694   2.793   4.167   1.086
10917TIP3    H232695   2.765   4.079   1.206
10918TIP3   OH232696   3.773   1.248   0.574
10918TIP3    H132697   3.785   1.230   0.668
10918TIP3    H232698   3.750   1.163   0.537
10919TIP3   OH232699   6.635   3.762   4.395
10919TIP3    H132700   6.558   3.777   4.449
10919TIP3    H232701   6.646   3.842   4.344
10920TIP3   OH232702   3.015   3.148   4.390
10920TIP3    H132703   2.940   3.093   4.369
10920TIP3    H232704   2.995   3.232   4.348
10921TIP3   OH232705   5.899   0.892   3.068
10921TIP3    H132706   5.949   0.896   3.149
10921TIP3    H232707   5.809   0.912   3.094
10922TIP3   OH232708   7.936   7.640   6.244
10922TIP3    H132709   7.867   7.576   6.264
10922TIP3    H232710   7.890   7.724   6.240
10923TIP3   OH232711   8.156   0.999   1.304
10923TIP3    H132712   8.202   1.020   1.223
10923TIP3    H232713   8.225   0.987   1.369
10924TIP3   OH232714   0.681   0.913   1.194
10924TIP3    H132715   0.648   0.986   1.142
10924TIP3    H232716   0.766   0.943   1.226
10925TIP3   OH232717   3.806   1.235   5.478
10925TIP3    H132718   3.842   1.322   5.493
10925TIP3    H232719   3.785   1.232   5.385
10926TIP3   OH232720   4.124   6.304   5.979
10926TIP3    H132721   4.096   6.375   6.038
10926TIP3    H232722   4.053   6.297   5.915
10927TIP3   OH232723   4.461   6.199   6.148
10927TIP3    H132724   4.541   6.224   6.194
10927TIP3    H232725   4.391   6.212   6.212
10928TIP3   OH232726   2.307   2.595   0.686
10928TIP3    H132727   2.347   2.543   0.756
10928TIP3    H232728   2.256   2.661   0.732
10929TIP3   OH232729   4.267   5.231   0.403
10929TIP3    H132730   4.184   5.231   0.451
10929TIP3    H232731   4.333   5.250   0.469
10930TIP3   OH232732   4.379   2.894   0.156
10930TIP3    H132733   4.385   2.927   0.246
10930TIP3    H232734   4.364   2.800   0.166
10931TIP3   OH232735   4.594   2.670   5.036
10931TIP3    H132736   4.603   2.707   5.123
10931TIP3    H232737   4.639   2.585   5.041
10932TIP3   OH232738   5.643   4.441   2.297
10932TIP3    H132739   5.549   4.425   2.308
10932TIP3    H232740   5.684   4.359   2.324
10933TIP3   OH232741   5.114   6.854   5.973
10933TIP3    H132742   5.129   6.773   6.023
10933TIP3    H232743   5.196   6.869   5.927
10934TIP3   OH232744   4.812   1.135   5.680
10934TIP3    H132745   4.843   1.048   5.705
10934TIP3    H232746   4.882   1.170   5.625
10935TIP3   OH232747   8.153   1.643   1.006
10935TIP3    H132748   8.058   1.655   1.013
10935TIP3    H232749   8.171   1.654   0.912
10936TIP3   OH232750   6.740   2.372   3.133
10936TIP3    H132751   6.716   2.417   3.214
10936TIP3    H232752   6.660   2.375   3.080
10937TIP3   OH232753   7.120   4.568   2.466
10937TIP3    H132754   7.075   4.494   2.424
10937TIP3    H232755   7.091   4.645   2.416
10938TIP3   OH232756   6.858   4.425   0.587
10938TIP3    H132757   6.828   4.455   0.673
10938TIP3    H232758   6.888   4.505   0.543
10939TIP3   OH232759   7.271   6.771   3.168
10939TIP3    H132760   7.231   6.780   3.082
10939TIP3    H232761   7.209   6.813   3.228
10940TIP3   OH232762   5.825   5.201   4.227
10940TIP3    H132763   5.918   5.197   4.201
10940TIP3    H232764   5.810   5.293   4.249
10941TIP3   OH232765   5.548   3.506   6.580
10941TIP3    H132766   5.639   3.518   6.551
10941TIP3    H232767   5.503   3.471   6.503
10942TIP3   OH232768   1.673   0.775   4.486
10942TIP3    H132769   1.711   0.776   4.399
10942TIP3    H232770   1.688   0.686   4.518
10943TIP3   OH232771   1.949   4.624   3.003
10943TIP3    H132772   1.894   4.702   2.994
10943TIP3    H232773   2.036   4.652   2.975
10944TIP3   OH232774   5.241   6.942   5.187
10944TIP3    H132775   5.324   6.958   5.142
10944TIP3    H232776   5.198   7.027   5.188
10945TIP3   OH232777   3.737   5.029   4.596
10945TIP3    H132778   3.766   4.950   4.641
10945TIP3    H232779   3.672   4.999   4.533
10946TIP3   OH232780   5.857   1.217   4.279
10946TIP3    H132781   5.865   1.288   4.216
10946TIP3    H232782   5.890   1.253   4.361
10947TIP3   OH232783   5.419   4.245   2.548
10947TIP3    H132784   5.362   4.239   2.625
10947TIP3    H232785   5.371   4.301   2.488
10948TIP3   OH232786   7.498   4.419   1.222
10948TIP3    H132787   7.419   4.387   1.179
10948TIP3    H232788   7.527   4.492   1.167
10949TIP3   OH232789   7.016   7.538   5.237
10949TIP3    H132790   7.069   7.459   5.225
10949TIP3    H232791   6.991   7.564   5.149
10950TIP3   OH232792   0.670   1.519   5.595
10950TIP3    H132793   0.622   1.469   5.529
10950TIP3    H232794   0.729   1.576   5.544
10951TIP3   OH232795   0.601   4.999   3.966
10951TIP3    H132796   0.681   4.965   4.005
10951TIP3    H232797   0.600   5.092   3.991
10952TIP3   OH232798   1.005   3.386   5.386
10952TIP3    H132799   0.949   3.394   5.309
10952TIP3    H232800   1.065   3.315   5.364
10953TIP3   OH232801   6.662   6.364   1.991
10953TIP3    H132802   6.718   6.344   1.916
10953TIP3    H232803   6.718   6.416   2.049
10954TIP3   OH232804   1.640   1.391   6.074
10954TIP3    H132805   1.553   1.355   6.090
10954TIP3    H232806   1.651   1.385   5.979
10955TIP3   OH232807   1.866   5.107   4.140
10955TIP3    H132808   1.803   5.142   4.077
10955TIP3    H232809   1.947   5.096   4.089
10956TIP3   OH232810   4.036   5.342   0.206
10956TIP3    H132811   4.126   5.325   0.234
10956TIP3    H232812   4.013   5.265   0.154
10957TIP3   OH232813   4.510   6.794   5.347
10957TIP3    H132814   4.476   6.720   5.397
10957TIP3    H232815   4.434   6.847   5.327
10958TIP3   OH232816   2.250   5.688   3.068
10958TIP3    H132817   2.241   5.681   3.163
10958TIP3    H232818   2.290   5.605   3.041
10959TIP3   OH232819   1.927   2.700   3.419
10959TIP3    H132820   1.950   2.612   3.451
10959TIP3    H232821   1.953   2.758   3.490
10960TIP3   OH232822   2.416   3.435   3.462
10960TIP3    H132823   2.464   3.462   3.384
10960TIP3    H232824   2.329   3.412   3.429
10961TIP3   OH232825   2.781   4.683   2.138
10961TIP3    H132826   2.870   4.689   2.172
10961TIP3    H232827   2.727   4.663   2.215
10962TIP3   OH232828   7.053   3.420   1.180
10962TIP3    H132829   6.958   3.428   1.190
10962TIP3    H232830   7.088   3.498   1.221
10963TIP3   OH232831   5.740   5.002   5.200
10963TIP3    H132832   5.798   4.953   5.141
10963TIP3    H232833   5.696   5.064   5.143
10964TIP3   OH232834   4.297   0.368   2.540
10964TIP3    H132835   4.221   0.406   2.584
10964TIP3    H232836   4.295   0.275   2.563
10965TIP3   OH232837   1.126   3.720   3.627
10965TIP3    H132838   1.171   3.662   3.689
10965TIP3    H232839   1.192   3.738   3.559
10966TIP3   OH232840   2.331   0.594   1.942
10966TIP3    H132841   2.388   0.565   2.013
10966TIP3    H232842   2.245   0.558   1.964
10967TIP3   OH232843   2.611   4.515   1.985
10967TIP3    H132844   2.681   4.570   2.022
10967TIP3    H232845   2.645   4.426   1.991
10968TIP3   OH232846   2.820   2.798   2.836
10968TIP3    H132847   2.859   2.820   2.752
10968TIP3    H232848   2.782   2.880   2.867
10969TIP3   OH232849   1.194   2.287   0.955
10969TIP3    H132850   1.114   2.283   0.903
10969TIP3    H232851   1.226   2.197   0.957
10970TIP3   OH232852   2.850   5.350   5.881
10970TIP3    H132853   2.854   5.426   5.822
10970TIP3    H232854   2.774   5.300   5.851
10971TIP3   OH232855   7.273   3.323   4.463
10971TIP3    H132856   7.202   3.262   4.443
10971TIP3    H232857   7.229   3.401   4.497
10972TIP3   OH232858   5.143   5.565   3.123
10972TIP3    H132859   5.049   5.547   3.122
10972TIP3    H232860   5.181   5.495   3.176
10973TIP3   OH232861   7.785   1.653   6.080
10973TIP3    H132862   7.829   1.652   5.995
10973TIP3    H232863   7.755   1.563   6.092
10974TIP3   OH232864   4.459   1.368   2.398
10974TIP3    H132865   4.389   1.360   2.333
10974TIP3    H232866   4.511   1.443   2.368
10975TIP3   OH232867   8.189   1.050   3.488
10975TIP3    H132868   8.117   1.112   3.499
10975TIP3    H232869   8.145   0.966   3.473
10976TIP3   OH232870   3.927   7.562   3.033
10976TIP3    H132871   3.935   7.496   2.964
10976TIP3    H232872   3.975   7.638   2.999
10977TIP3   OH232873   4.838   5.803   6.480
10977TIP3    H132874   4.883   5.719   6.483
10977TIP3    H232875   4.889   5.856   6.419
10978TIP3   OH232876   5.101   3.835   6.134
10978TIP3    H132877   5.079   3.742   6.141
10978TIP3    H232878   5.027   3.880   6.175
10979TIP3   OH232879   5.474   5.845   1.283
10979TIP3    H132880   5.484   5.833   1.189
10979TIP3    H232881   5.545   5.795   1.322
10980TIP3   OH232882   0.858   7.464   5.314
10980TIP3    H132883   0.931   7.501   5.364
10980TIP3    H232884   0.824   7.538   5.263
10981TIP3   OH232885   6.428   6.488   3.605
10981TIP3    H132886   6.511   6.449   3.633
10981TIP3    H232887   6.364   6.417   3.613
10982TIP3   OH232888   3.443   2.647   1.985
10982TIP3    H132889   3.358   2.653   1.941
10982TIP3    H232890   3.470   2.739   1.996
10983TIP3   OH232891   7.018   0.224   4.334
10983TIP3    H132892   7.023   0.265   4.420
10983TIP3    H232893   6.926   0.232   4.309
10984TIP3   OH232894   7.113   1.039   1.046
10984TIP3    H132895   7.035   1.005   1.088
10984TIP3    H232896   7.112   1.001   0.958
10985TIP3   OH232897   3.320   4.600   3.639
10985TIP3    H132898   3.276   4.685   3.638
10985TIP3    H232899   3.388   4.607   3.572
10986TIP3   OH232900   7.830   7.332   1.274
10986TIP3    H132901   7.790   7.336   1.187
10986TIP3    H232902   7.811   7.243   1.305
10987TIP3   OH232903   4.006   0.857   3.698
10987TIP3    H132904   4.017   0.923   3.767
10987TIP3    H232905   3.972   0.780   3.743
10988TIP3   OH232906   6.003   4.267   5.579
10988TIP3    H132907   6.000   4.315   5.662
10988TIP3    H232908   5.985   4.176   5.603
10989TIP3   OH232909   2.612   2.059   1.910
10989TIP3    H132910   2.645   2.110   1.836
10989TIP3    H232911   2.517   2.058   1.899
10990TIP3   OH232912   3.875   1.540   0.809
10990TIP3    H132913   3.862   1.635   0.800
10990TIP3    H232914   3.883   1.508   0.720
10991TIP3   OH232915   0.263   3.594   6.055
10991TIP3    H132916   0.214   3.665   6.013
10991TIP3    H232917   0.267   3.525   5.988
10992TIP3   OH232918   0.084   6.130   3.708
10992TIP3    H132919   0.129   6.155   3.627
10992TIP3    H232920   0.154   6.110   3.769
10993TIP3   OH232921   4.933   5.326   4.050
10993TIP3    H132922   4.916   5.244   4.004
10993TIP3    H232923   4.991   5.375   3.992
10994TIP3   OH232924   1.864   7.326   0.023
10994TIP3    H132925   1.780   7.372   0.012
10994TIP3    H232926   1.914   7.382   0.082
10995TIP3   OH232927   8.175   2.080   1.284
10995TIP3    H132928   8.148   1.991   1.308
10995TIP3    H232929   8.264   2.070   1.252
10996TIP3   OH232930   4.823   2.674   6.326
10996TIP3    H132931   4.768   2.630   6.261
10996TIP3    H232932   4.761   2.701   6.395
10997TIP3   OH232933   0.183   3.145   2.743
10997TIP3    H132934   0.241   3.105   2.808
10997TIP3    H232935   0.132   3.071   2.709
10998TIP3   OH232936   5.946   7.095   4.474
10998TIP3    H132937   5.977   7.029   4.411
10998TIP3    H232938   5.851   7.095   4.462
10999TIP3   OH232939   1.420   2.149   1.915
10999TIP3    H132940   1.413   2.117   1.825
10999TIP3    H232941   1.514   2.146   1.934
11000TIP3   OH232942   6.490   6.269   0.142
11000TIP3    H132943   6.512   6.281   0.234
11000TIP3    H232944   6.413   6.324   0.128
11001TIP3   OH232945   2.825   0.586   3.311
11001TIP3    H132946   2.879   0.507   3.306
11001TIP3    H232947   2.806   0.609   3.220
11002TIP3   OH232948   6.634   4.517   2.675
11002TIP3    H132949   6.660   4.485   2.762
11002TIP3    H232950   6.685   4.598   2.664
11003TIP3   OH232951   4.718   0.176   6.175
11003TIP3    H132952   4.726   0.145   6.085
11003TIP3    H232953   4.639   0.133   6.208
11004TIP3   OH232954   0.869   0.693   1.184
11004TIP3    H132955   0.884   0.781   1.149
11004TIP3    H232956   0.865   0.637   1.107
11005TIP3   OH232957   0.148   5.681   3.350
11005TIP3    H132958   0.131   5.619   3.279
11005TIP3    H232959   0.243   5.695   3.346
11006TIP3   OH232960   3.520   1.510   5.943
11006TIP3    H132961   3.550   1.505   5.853
11006TIP3    H232962   3.509   1.419   5.970
11007TIP3   OH232963   3.821   6.192   3.775
11007TIP3    H132964   3.850   6.270   3.822
11007TIP3    H232965   3.739   6.218   3.734
11008TIP3   OH232966   2.191   1.801   0.817
11008TIP3    H132967   2.245   1.859   0.763
11008TIP3    H232968   2.250   1.770   0.886
11009TIP3   OH232969   5.550   5.171   1.463
11009TIP3    H132970   5.519   5.120   1.537
11009TIP3    H232971   5.643   5.188   1.482
11010TIP3   OH232972   7.470   5.992   4.500
11010TIP3    H132973   7.560   5.959   4.505
11010TIP3    H232974   7.433   5.974   4.586
11011TIP3   OH232975   3.510   2.756   0.423
11011TIP3    H132976   3.540   2.676   0.381
11011TIP3    H232977   3.580   2.820   0.407
11012TIP3   OH232978   4.034   2.582   0.655
11012TIP3    H132979   4.072   2.617   0.735
11012TIP3    H232980   4.027   2.488   0.670
11013TIP3   OH232981   7.119   6.825   4.692
11013TIP3    H132982   7.191   6.765   4.713
11013TIP3    H232983   7.161   6.904   4.660
11014TIP3   OH232984   3.585   2.640   0.046
11014TIP3    H132985   3.505   2.679   0.083
11014TIP3    H232986   3.639   2.620   0.123
11015TIP3   OH232987   2.975   2.022   3.314
11015TIP3    H132988   2.942   2.105   3.279
11015TIP3    H232989   3.066   2.018   3.285
11016TIP3   OH232990   4.274   5.432   3.008
11016TIP3    H132991   4.336   5.439   2.935
11016TIP3    H232992   4.298   5.504   3.066
11017TIP3   OH232993   0.648   0.658   4.231
11017TIP3    H132994   0.619   0.674   4.321
11017TIP3    H232995   0.731   0.704   4.224
11018TIP3   OH232996   6.604   2.348   0.079
11018TIP3    H132997   6.564   2.428   0.112
11018TIP3    H232998   6.693   2.373   0.056
11019TIP3   OH232999   0.822   7.119   4.869
11019TIP3    H133000   0.905   7.166   4.873
11019TIP3    H233001   0.778   7.142   4.951
11020TIP3   OH233002   1.530   2.486   1.817
11020TIP3    H133003   1.546   2.525   1.902
11020TIP3    H233004   1.587   2.534   1.757
11021TIP3   OH233005   6.111   6.774   3.985
11021TIP3    H133006   6.063   6.758   3.904
11021TIP3    H233007   6.168   6.698   3.995
11022TIP3   OH233008   4.323   5.707   5.372
11022TIP3    H133009   4.313   5.694   5.466
11022TIP3    H233010   4.412   5.675   5.353
11023TIP3   OH233011   5.381   3.056   1.827
11023TIP3    H133012   5.464   3.060   1.780
11023TIP3    H233013   5.335   3.135   1.801
11024TIP3   OH233014   6.083   4.952   0.891
11024TIP3    H133015   6.062   5.044   0.900
11024TIP3    H233016   6.024   4.920   0.822
11025TIP3   OH233017   5.905   6.540   4.089
11025TIP3    H133018   5.931   6.548   4.180
11025TIP3    H233019   5.987   6.529   4.041
11026TIP3   OH233020   3.979   1.006   4.182
11026TIP3    H133021   3.947   0.978   4.268
11026TIP3    H233022   4.072   0.982   4.181
11027TIP3   OH233023   7.943   5.062   4.270
11027TIP3    H133024   8.016   5.066   4.332
11027TIP3    H233025   7.880   5.127   4.303
11028TIP3   OH233026   3.432   1.298   2.642
11028TIP3    H133027   3.469   1.376   2.602
11028TIP3    H233028   3.400   1.327   2.727
11029TIP3   OH233029   7.051   0.014   3.707
11029TIP3    H133030   7.080   0.100   3.677
11029TIP3    H233031   6.993   0.032   3.781
11030TIP3   OH233032   7.588   4.551   5.734
11030TIP3    H133033   7.559   4.535   5.644
11030TIP3    H233034   7.548   4.635   5.758
11031TIP3   OH233035   0.250   4.105   5.163
11031TIP3    H133036   0.182   4.161   5.201
11031TIP3    H233037   0.202   4.039   5.113
11032TIP3   OH233038   7.598   4.312   0.936
11032TIP3    H133039   7.647   4.383   0.978
11032TIP3    H233040   7.665   4.255   0.899
11033TIP3   OH233041   1.541   5.454   1.204
11033TIP3    H133042   1.605   5.394   1.167
11033TIP3    H233043   1.587   5.537   1.214
11034TIP3   OH233044   7.678   1.397   3.808
11034TIP3    H133045   7.695   1.318   3.758
11034TIP3    H233046   7.634   1.456   3.747
11035TIP3   OH233047   4.949   1.607   3.565
11035TIP3    H133048   4.888   1.626   3.637
11035TIP3    H233049   5.011   1.544   3.602
11036TIP3   OH233050   2.071   7.834   1.602
11036TIP3    H133051   2.032   7.795   1.523
11036TIP3    H233052   2.141   7.773   1.626
11037TIP3   OH233053   1.572   4.254   1.554
11037TIP3    H133054   1.659   4.214   1.548
11037TIP3    H233055   1.590   4.346   1.574
11038TIP3   OH233056   7.240   7.790   5.182
11038TIP3    H133057   7.278   7.720   5.130
11038TIP3    H233058   7.211   7.748   5.263
11039TIP3   OH233059   2.264   2.265   5.891
11039TIP3    H133060   2.350   2.250   5.851
11039TIP3    H233061   2.239   2.180   5.926
11040TIP3   OH233062   3.134   6.099   0.676
11040TIP3    H133063   3.082   6.041   0.731
11040TIP3    H233064   3.213   6.117   0.728
11041TIP3   OH233065   4.260   3.953   4.787
11041TIP3    H133066   4.339   3.903   4.767
11041TIP3    H233067   4.265   4.030   4.732
11042TIP3   OH233068   4.890   4.666   4.845
11042TIP3    H133069   4.902   4.679   4.751
11042TIP3    H233070   4.961   4.608   4.871
11043TIP3   OH233071   6.972   1.967   3.793
11043TIP3    H133072   6.960   1.906   3.720
11043TIP3    H233073   7.066   1.965   3.811
11044TIP3   OH233074   3.346   7.344   0.814
11044TIP3    H133075   3.414   7.312   0.874
11044TIP3    H233076   3.365   7.301   0.731
11045TIP3   OH233077   2.402   3.048   4.148
11045TIP3    H133078   2.429   3.063   4.057
11045TIP3    H233079   2.385   3.136   4.183
11046TIP3   OH233080   3.921   4.772   6.610
11046TIP3    H133081   3.954   4.799   6.696
11046TIP3    H233082   3.829   4.797   6.611
11047TIP3   OH233083   6.831   0.880   0.798
11047TIP3    H133084   6.761   0.942   0.816
11047TIP3    H233085   6.790   0.794   0.801
11048TIP3   OH233086   3.107   6.081   6.325
11048TIP3    H133087   3.171   6.038   6.267
11048TIP3    H233088   3.112   6.031   6.407
11049TIP3   OH233089   8.041   1.478   5.292
11049TIP3    H133090   8.064   1.420   5.365
11049TIP3    H233091   8.005   1.420   5.225
11050TIP3   OH233092   1.611   6.321   5.019
11050TIP3    H133093   1.653   6.256   4.962
11050TIP3    H233094   1.589   6.394   4.961
11051TIP3   OH233095   6.307   4.334   5.207
11051TIP3    H133096   6.219   4.370   5.194
11051TIP3    H233097   6.337   4.373   5.289
11052TIP3   OH233098   7.084   4.746   0.054
11052TIP3    H133099   7.057   4.659   0.025
11052TIP3    H233100   7.149   4.773  -0.010
11053TIP3   OH233101   7.968   4.498   5.651
11053TIP3    H133102   7.952   4.513   5.558
11053TIP3    H233103   8.057   4.529   5.666
11054TIP3   OH233104   7.493   1.512   1.018
11054TIP3    H133105   7.518   1.516   0.926
11054TIP3    H233106   7.561   1.457   1.059
11055TIP3   OH233107   2.309   3.565   5.203
11055TIP3    H133108   2.356   3.513   5.138
11055TIP3    H233109   2.225   3.584   5.162
11056TIP3   OH233110   7.456   0.390   4.180
11056TIP3    H133111   7.363   0.407   4.194
11056TIP3    H233112   7.485   0.350   4.262
11057TIP3   OH233113   4.679   5.445   0.950
11057TIP3    H133114   4.632   5.518   0.909
11057TIP3    H233115   4.622   5.416   1.021
11058TIP3   OH233116   6.496   6.967   5.113
11058TIP3    H133117   6.552   6.975   5.191
11058TIP3    H233118   6.555   6.985   5.040
11059TIP3   OH233119   3.915   2.500   2.820
11059TIP3    H133120   3.961   2.432   2.771
11059TIP3    H233121   3.823   2.473   2.818
11060TIP3   OH233122   0.581   1.979   3.469
11060TIP3    H133123   0.554   1.941   3.385
11060TIP3    H233124   0.600   2.071   3.449
11061TIP3   OH233125   3.378   3.263   1.237
11061TIP3    H133126   3.286   3.284   1.224
11061TIP3    H233127   3.388   3.175   1.201
11062TIP3   OH233128   7.217   7.594   5.749
11062TIP3    H133129   7.294   7.651   5.752
11062TIP3    H233130   7.191   7.585   5.841
11063TIP3   OH233131   3.711   5.218   1.275
11063TIP3    H133132   3.746   5.177   1.196
11063TIP3    H233133   3.625   5.177   1.287
11064TIP3   OH233134   2.139   4.421   4.129
11064TIP3    H133135   2.116   4.418   4.036
11064TIP3    H233136   2.208   4.487   4.135
11065TIP3   OH233137   5.562   3.706   4.672
11065TIP3    H133138   5.614   3.635   4.633
11065TIP3    H233139   5.516   3.664   4.745
11066TIP3   OH233140   7.228   5.741   1.369
11066TIP3    H133141   7.142   5.768   1.402
11066TIP3    H233142   7.264   5.819   1.328
11067TIP3   OH233143   4.720   5.070   4.702
11067TIP3    H133144   4.812   5.072   4.730
11067TIP3    H233145   4.670   5.083   4.783
11068TIP3   OH233146   2.312   1.858   2.109
11068TIP3    H133147   2.277   1.795   2.172
11068TIP3    H233148   2.298   1.816   2.024
11069TIP3   OH233149   3.168   4.760   1.060
11069TIP3    H133150   3.194   4.676   1.098
11069TIP3    H233151   3.178   4.823   1.131
11070TIP3   OH233152   2.641   0.324   3.303
11070TIP3    H133153   2.561   0.370   3.328
11070TIP3    H233154   2.685   0.303   3.386
11071TIP3   OH233155   2.349   1.325   3.934
11071TIP3    H133156   2.328   1.363   3.849
11071TIP3    H233157   2.306   1.240   3.934
11072TIP3   OH233158   1.726   1.650   6.795
11072TIP3    H133159   1.658   1.662   6.729
11072TIP3    H233160   1.757   1.561   6.782
11073TIP3   OH233161   3.597   2.477   3.760
11073TIP3    H133162   3.683   2.436   3.768
11073TIP3    H233163   3.545   2.415   3.709
11074TIP3   OH233164   6.095   4.301   0.919
11074TIP3    H133165   6.052   4.331   0.999
11074TIP3    H233166   6.188   4.308   0.938
11075TIP3   OH233167   5.114   6.023   4.958
11075TIP3    H133168   5.033   6.010   5.007
11075TIP3    H233169   5.088   6.080   4.884
11076TIP3   OH233170   1.711   2.817   0.524
11076TIP3    H133171   1.628   2.778   0.494
11076TIP3    H233172   1.722   2.785   0.613
11077TIP3   OH233173   2.709   0.283   0.928
11077TIP3    H133174   2.784   0.231   0.957
11077TIP3    H233175   2.708   0.358   0.987
11078TIP3   OH233176   2.795   5.397   3.335
11078TIP3    H133177   2.724   5.335   3.318
11078TIP3    H233178   2.758   5.462   3.393
11079TIP3   OH233179   5.607   5.583   2.309
11079TIP3    H133180   5.664   5.506   2.314
11079TIP3    H233181   5.539   5.567   2.375
11080TIP3   OH233182   3.603   5.825   3.439
11080TIP3    H133183   3.651   5.897   3.399
11080TIP3    H233184   3.598   5.847   3.532
11081TIP3   OH233185   5.630   5.607   5.173
11081TIP3    H133186   5.617   5.583   5.265
11081TIP3    H233187   5.549   5.579   5.129
11082TIP3   OH233188   4.087   0.060   2.862
11082TIP3    H133189   4.024   0.093   2.799
11082TIP3    H233190   4.034   0.032   2.937
11083TIP3   OH233191   5.435   4.769   5.804
11083TIP3    H133192   5.440   4.863   5.789
11083TIP3    H233193   5.371   4.760   5.875
11084TIP3   OH233194   2.038   6.664   3.525
11084TIP3    H133195   1.955   6.647   3.571
11084TIP3    H233196   2.100   6.684   3.595
11085TIP3   OH233197   1.737   6.364   4.052
11085TIP3    H133198   1.653   6.318   4.054
11085TIP3    H233199   1.714   6.457   4.059
11086TIP3   OH233200   4.608   7.004   5.749
11086TIP3    H133201   4.550   7.048   5.687
11086TIP3    H233202   4.594   7.049   5.832
11087TIP3   OH233203   5.626   7.129   2.130
11087TIP3    H133204   5.622   7.200   2.194
11087TIP3    H233205   5.619   7.049   2.183
11088TIP3   OH233206   4.224   6.684   6.329
11088TIP3    H133207   4.239   6.615   6.394
11088TIP3    H233208   4.232   6.640   6.245
11089TIP3   OH233209   6.431   2.587   5.042
11089TIP3    H133210   6.438   2.494   5.063
11089TIP3    H233211   6.506   2.604   4.985
11090TIP3   OH233212   4.485   0.568   5.789
11090TIP3    H133213   4.563   0.600   5.743
11090TIP3    H233214   4.517   0.496   5.843
11091TIP3   OH233215   8.085   6.509   1.599
11091TIP3    H133216   8.070   6.495   1.506
11091TIP3    H233217   8.018   6.457   1.643
11092TIP3   OH233218   6.129   1.138   0.982
11092TIP3    H133219   6.046   1.095   1.004
11092TIP3    H233220   6.181   1.133   1.062
11093TIP3   OH233221   3.493   2.722   4.210
11093TIP3    H133222   3.511   2.663   4.137
11093TIP3    H233223   3.579   2.754   4.237
11094TIP3   OH233224   3.525   7.024   6.290
11094TIP3    H133225   3.574   7.106   6.285
11094TIP3    H233226   3.586   6.958   6.258
11095TIP3   OH233227   3.157   7.546   3.746
11095TIP3    H133228   3.072   7.540   3.791
11095TIP3    H233229   3.216   7.583   3.811
11096TIP3   OH233230   3.069   1.402   1.793
11096TIP3    H133231   3.115   1.321   1.815
11096TIP3    H233232   3.083   1.460   1.868
11097TIP3   OH233233   3.408   7.190   4.699
11097TIP3    H133234   3.316   7.195   4.726
11097TIP3    H233235   3.453   7.156   4.776
11098TIP3   OH233236   2.214   1.240   1.570
11098TIP3    H133237   2.237   1.259   1.479
11098TIP3    H233238   2.233   1.147   1.580
11099TIP3   OH233239   0.568   7.026   6.670
11099TIP3    H133240   0.514   7.106   6.671
11099TIP3    H233241   0.510   6.959   6.633
11100TIP3   OH233242   6.694   6.392   3.703
11100TIP3    H133243   6.675   6.485   3.709
11100TIP3    H233244   6.752   6.374   3.777
11101TIP3   OH233245   1.738   2.411   6.540
11101TIP3    H133246   1.667   2.466   6.506
11101TIP3    H233247   1.765   2.358   6.466
11102TIP3   OH233248   7.860   2.583   1.897
11102TIP3    H133249   7.769   2.572   1.924
11102TIP3    H233250   7.855   2.638   1.819
11103TIP3   OH233251   2.467   0.466   2.151
11103TIP3    H133252   2.451   0.453   2.245
11103TIP3    H233253   2.510   0.385   2.124
11104TIP3   OH233254   2.491   1.962   5.080
11104TIP3    H133255   2.443   2.041   5.055
11104TIP3    H233256   2.561   1.955   5.015
11105TIP3   OH233257   1.620   1.989   5.219
11105TIP3    H133258   1.687   1.966   5.283
11105TIP3    H233259   1.553   2.036   5.269
11106TIP3   OH233260   8.245   5.118   2.544
11106TIP3    H133261   8.221   5.192   2.599
11106TIP3    H233262   8.240   5.153   2.454
11107TIP3   OH233263   2.746   1.845   2.514
11107TIP3    H133264   2.691   1.873   2.587
11107TIP3    H233265   2.758   1.924   2.461
11108TIP3   OH233266   3.395   7.707   0.649
11108TIP3    H133267   3.485   7.694   0.679
11108TIP3    H233268   3.402   7.773   0.580
11109TIP3   OH233269   2.658   2.894   2.471
11109TIP3    H133270   2.655   2.961   2.403
11109TIP3    H233271   2.743   2.907   2.513
11110TIP3   OH233272   4.344   6.213   3.722
11110TIP3    H133273   4.291   6.134   3.717
11110TIP3    H233274   4.431   6.186   3.693
11111TIP3   OH233275   4.008   6.120   0.186
11111TIP3    H133276   4.098   6.148   0.201
11111TIP3    H233277   3.991   6.056   0.255
11112TIP3   OH233278   5.910   1.739   3.633
11112TIP3    H133279   5.843   1.805   3.614
11112TIP3    H233280   5.913   1.734   3.729
11113TIP3   OH233281   0.094   0.845   0.380
11113TIP3    H133282   0.028   0.907   0.348
11113TIP3    H233283   0.052   0.759   0.373
11114TIP3   OH233284   8.257   3.637   5.604
11114TIP3    H133285   8.181   3.689   5.631
11114TIP3    H233286   8.278   3.585   5.682
11115TIP3   OH233287   4.498   7.638   0.337
11115TIP3    H133288   4.417   7.655   0.289
11115TIP3    H233289   4.490   7.548   0.368
11116TIP3   OH233290   1.471   3.985   3.559
11116TIP3    H133291   1.541   3.946   3.506
11116TIP3    H233292   1.480   4.079   3.545
11117TIP3   OH233293   3.457   7.047   3.533
11117TIP3    H133294   3.536   7.098   3.550
11117TIP3    H233295   3.466   7.018   3.442
11118TIP3   OH233296   1.015   4.083   4.250
11118TIP3    H133297   1.037   4.149   4.184
11118TIP3    H233298   0.974   4.012   4.201
11119TIP3   OH233299   7.712   2.511   1.550
11119TIP3    H133300   7.792   2.541   1.507
11119TIP3    H233301   7.707   2.562   1.631
11120TIP3   OH233302   5.375   1.198   2.764
11120TIP3    H133303   5.367   1.254   2.841
11120TIP3    H233304   5.377   1.109   2.800
11121TIP3   OH233305   4.210   5.762   2.883
11121TIP3    H133306   4.191   5.715   2.802
11121TIP3    H233307   4.177   5.705   2.952
11122TIP3   OH233308   6.318   4.221   4.102
11122TIP3    H133309   6.323   4.177   4.187
11122TIP3    H233310   6.392   4.184   4.053
11123TIP3   OH233311   5.691   7.136   3.650
11123TIP3    H133312   5.731   7.087   3.722
11123TIP3    H233313   5.608   7.167   3.686
11124TIP3   OH233314   8.174   0.179   6.748
11124TIP3    H133315   8.258   0.163   6.706
11124TIP3    H233316   8.111   0.183   6.675
11125TIP3   OH233317   3.864   1.902   3.105
11125TIP3    H133318   3.923   1.972   3.133
11125TIP3    H233319   3.777   1.937   3.123
11126TIP3   OH233320   2.708   6.576   6.425
11126TIP3    H133321   2.743   6.663   6.443
11126TIP3    H233322   2.749   6.519   6.490
11127TIP3   OH233323   1.046   6.645   4.213
11127TIP3    H133324   1.111   6.575   4.220
11127TIP3    H233325   0.988   6.631   4.288
11128TIP3   OH233326   1.101   1.329   2.957
11128TIP3    H133327   1.150   1.291   2.885
11128TIP3    H233328   1.009   1.314   2.934
11129TIP3   OH233329   5.099   0.249   2.336
11129TIP3    H133330   5.074   0.164   2.374
11129TIP3    H233331   5.037   0.263   2.265
11130TIP3   OH233332   1.716   0.251   4.801
11130TIP3    H133333   1.683   0.340   4.789
11130TIP3    H233334   1.805   0.255   4.766
11131TIP3   OH233335   2.292   4.938   3.539
11131TIP3    H133336   2.222   4.998   3.561
11131TIP3    H233337   2.367   4.968   3.589
11132TIP3   OH233338   0.935   5.551   1.191
11132TIP3    H133339   0.842   5.574   1.192
11132TIP3    H233340   0.960   5.552   1.284
11133TIP3   OH233341   6.115   2.872   6.470
11133TIP3    H133342   6.034   2.828   6.444
11133TIP3    H233343   6.125   2.851   6.564
11134TIP3   OH233344   5.371   2.410   4.864
11134TIP3    H133345   5.383   2.345   4.795
11134TIP3    H233346   5.451   2.405   4.916
11135TIP3   OH233347   1.202   2.798   1.262
11135TIP3    H133348   1.125   2.807   1.317
11135TIP3    H233349   1.276   2.799   1.322
11136TIP3   OH233350   8.004   5.587   4.661
11136TIP3    H133351   7.983   5.650   4.730
11136TIP3    H233352   8.088   5.616   4.626
11137TIP3   OH233353   0.835   0.099   6.624
11137TIP3    H133354   0.800   0.180   6.586
11137TIP3    H233355   0.900   0.069   6.561
11138TIP3   OH233356   1.010   1.555   6.140
11138TIP3    H133357   1.057   1.620   6.192
11138TIP3    H233358   1.068   1.536   6.066
11139TIP3   OH233359   6.622   5.686   5.995
11139TIP3    H133360   6.709   5.654   6.016
11139TIP3    H233361   6.580   5.701   6.080
11140TIP3   OH233362   2.263   1.112   0.869
11140TIP3    H133363   2.301   1.032   0.831
11140TIP3    H233364   2.339   1.164   0.895
11141TIP3   OH233365   3.597   5.838   6.050
11141TIP3    H133366   3.587   5.821   5.957
11141TIP3    H233367   3.596   5.752   6.092
11142TIP3   OH233368   7.057   4.023   2.249
11142TIP3    H133369   7.089   4.016   2.339
11142TIP3    H233370   7.029   3.934   2.226
11143TIP3   OH233371   0.520   4.599   0.159
11143TIP3    H133372   0.588   4.531   0.162
11143TIP3    H233373   0.551   4.666   0.219
11144TIP3   OH233374   5.951   4.337   0.455
11144TIP3    H133375   6.026   4.296   0.497
11144TIP3    H233376   5.904   4.265   0.414
11145TIP3   OH233377   0.140   7.601   4.272
11145TIP3    H133378   0.203   7.620   4.341
11145TIP3    H233379   0.074   7.670   4.279
11146TIP3   OH233380   7.655   6.031   1.111
11146TIP3    H133381   7.615   6.117   1.123
11146TIP3    H233382   7.639   5.985   1.194
11147TIP3   OH233383   5.588   7.212   5.602
11147TIP3    H133384   5.573   7.288   5.546
11147TIP3    H233385   5.513   7.154   5.585
11148TIP3   OH233386   1.327   1.749   4.802
11148TIP3    H133387   1.414   1.743   4.841
11148TIP3    H233388   1.268   1.752   4.876
11149TIP3   OH233389   7.488   4.097   5.823
11149TIP3    H133390   7.535   4.107   5.906
11149TIP3    H233391   7.404   4.141   5.837
11150TIP3   OH233392   7.662   4.188   6.024
11150TIP3    H133393   7.696   4.163   6.109
11150TIP3    H233394   7.739   4.193   5.967
11151TIP3   OH233395   4.399   2.304   6.683
11151TIP3    H133396   4.331   2.371   6.693
11151TIP3    H233397   4.437   2.321   6.597
11152TIP3   OH233398   0.812   4.020   6.241
11152TIP3    H133399   0.833   4.077   6.314
11152TIP3    H233400   0.758   4.074   6.183
11153TIP3   OH233401   7.423   5.996   2.920
11153TIP3    H133402   7.505   6.046   2.923
11153TIP3    H233403   7.355   6.062   2.907
11154TIP3   OH233404   0.770   7.795   4.643
11154TIP3    H133405   0.833   7.766   4.709
11154TIP3    H233406   0.806   7.877   4.609
11155TIP3   OH233407   7.574   6.600   5.879
11155TIP3    H133408   7.484   6.578   5.854
11155TIP3    H233409   7.565   6.670   5.943
11156TIP3   OH233410   2.820   5.426   0.509
11156TIP3    H133411   2.872   5.495   0.550
11156TIP3    H233412   2.870   5.400   0.432
11157TIP3   OH233413   5.710   5.557   1.660
11157TIP3    H133414   5.643   5.489   1.660
11157TIP3    H233415   5.714   5.587   1.750
11158TIP3   OH233416   4.831   3.110   4.283
11158TIP3    H133417   4.899   3.167   4.319
11158TIP3    H233418   4.756   3.121   4.341
11159TIP3   OH233419   8.039   5.877   4.465
11159TIP3    H133420   8.011   5.832   4.385
11159TIP3    H233421   8.112   5.825   4.498
11160TIP3   OH233422   5.018   4.987   2.931
11160TIP3    H133423   5.031   4.926   3.003
11160TIP3    H233424   5.065   5.067   2.958
11161TIP3   OH233425   7.503   1.695   5.563
11161TIP3    H133426   7.497   1.672   5.470
11161TIP3    H233427   7.590   1.734   5.572
11162TIP3   OH233428   5.114   7.307   5.461
11162TIP3    H133429   5.130   7.258   5.381
11162TIP3    H233430   5.069   7.245   5.519
11163TIP3   OH233431   3.834   4.549   2.887
11163TIP3    H133432   3.743   4.541   2.914
11163TIP3    H233433   3.880   4.480   2.935
11164TIP3   OH233434   1.081   4.173   4.988
11164TIP3    H133435   1.071   4.268   4.988
11164TIP3    H233436   1.063   4.147   5.078
11165TIP3   OH233437   6.547   4.347   3.131
11165TIP3    H133438   6.469   4.350   3.076
11165TIP3    H233439   6.610   4.404   3.087
11166TIP3   OH233440   3.395   4.952   2.450
11166TIP3    H133441   3.377   4.964   2.357
11166TIP3    H233442   3.362   4.864   2.470
11167TIP3   OH233443   7.123   4.942   1.440
11167TIP3    H133444   7.127   5.027   1.484
11167TIP3    H233445   7.132   4.963   1.347
11168TIP3   OH233446   8.217   5.551   3.226
11168TIP3    H133447   8.240   5.610   3.155
11168TIP3    H233448   8.157   5.602   3.281
11169TIP3   OH233449   1.247  -0.002   2.145
11169TIP3    H133450   1.224   0.041   2.063
11169TIP3    H233451   1.329   0.040   2.171
11170TIP3   OH233452   6.988   0.483   2.856
11170TIP3    H133453   6.984   0.529   2.940
11170TIP3    H233454   6.897   0.469   2.832
11171TIP3   OH233455   3.528   7.566   4.206
11171TIP3    H133456   3.579   7.551   4.126
11171TIP3    H233457   3.490   7.480   4.226
11172TIP3   OH233458   6.978   2.548   1.378
11172TIP3    H133459   7.004   2.593   1.458
11172TIP3    H233460   7.053   2.494   1.354
11173TIP3   OH233461   3.397   5.400   0.836
11173TIP3    H133462   3.467   5.357   0.887
11173TIP3    H233463   3.342   5.441   0.902
11174TIP3   OH233464   5.866   6.244   5.472
11174TIP3    H133465   5.838   6.158   5.441
11174TIP3    H233466   5.835   6.248   5.563
11175TIP3   OH233467   0.128   5.316   4.533
11175TIP3    H133468   0.080   5.394   4.504
11175TIP3    H233469   0.187   5.347   4.601
11176TIP3   OH233470   0.710   2.867   2.214
11176TIP3    H133471   0.793   2.880   2.167
11176TIP3    H233472   0.646   2.916   2.163
11177TIP3   OH233473   6.829   0.598   4.518
11177TIP3    H133474   6.856   0.640   4.436
11177TIP3    H233475   6.876   0.515   4.519
11178TIP3   OH233476   3.715   6.548   4.044
11178TIP3    H133477   3.651   6.552   4.115
11178TIP3    H233478   3.778   6.618   4.063
11179TIP3   OH233479   5.377   3.444   2.988
11179TIP3    H133480   5.398   3.455   3.080
11179TIP3    H233481   5.299   3.390   2.986
11180TIP3   OH233482   6.923   2.631   6.725
11180TIP3    H133483   6.971   2.548   6.719
11180TIP3    H233484   6.978   2.687   6.778
11181TIP3   OH233485   4.866   1.884   3.235
11181TIP3    H133486   4.894   1.910   3.323
11181TIP3    H233487   4.776   1.852   3.247
11182TIP3   OH233488   4.366   7.239   5.126
11182TIP3    H133489   4.415   7.257   5.046
11182TIP3    H233490   4.433   7.233   5.194
11183TIP3   OH233491   0.065   4.022   2.113
11183TIP3    H133492   0.089   4.100   2.064
11183TIP3    H233493   0.086   3.949   2.055
11184TIP3   OH233494   3.423   3.993   0.867
11184TIP3    H133495   3.407   4.044   0.946
11184TIP3    H233496   3.402   4.052   0.795
11185TIP3   OH233497   1.874   7.197   5.090
11185TIP3    H133498   1.962   7.222   5.117
11185TIP3    H233499   1.833   7.161   5.168
11186TIP3   OH233500   6.627   6.965   0.304
11186TIP3    H133501   6.634   6.874   0.333
11186TIP3    H233502   6.539   6.971   0.267
11187TIP3   OH233503   3.677   2.818   3.764
11187TIP3    H133504   3.659   2.871   3.842
11187TIP3    H233505   3.607   2.752   3.763
11188TIP3   OH233506   7.573   0.071   6.383
11188TIP3    H133507   7.616   0.032   6.459
11188TIP3    H233508   7.528   0.148   6.418
11189TIP3   OH233509   4.737   5.630   2.613
11189TIP3    H133510   4.782   5.566   2.667
11189TIP3    H233511   4.804   5.696   2.594
11190TIP3   OH233512   1.379   6.882   0.050
11190TIP3    H133513   1.419   6.870   0.136
11190TIP3    H233514   1.344   6.972   0.052
11191TIP3   OH233515   2.791   5.998   5.850
11191TIP3    H133516   2.855   5.976   5.918
11191TIP3    H233517   2.841   5.996   5.769
11192TIP3   OH233518   3.203   4.269   5.318
11192TIP3    H133519   3.134   4.332   5.338
11192TIP3    H233520   3.257   4.267   5.397
11193TIP3   OH233521   3.197   4.924   5.076
11193TIP3    H133522   3.281   4.962   5.102
11193TIP3    H233523   3.197   4.931   4.981
11194TIP3   OH233524   3.423   6.443   4.670
11194TIP3    H133525   3.382   6.357   4.679
11194TIP3    H233526   3.426   6.477   4.759
11195TIP3   OH233527   4.335   1.850   2.716
11195TIP3    H133528   4.266   1.792   2.684
11195TIP3    H233529   4.304   1.877   2.803
11196TIP3   OH233530   4.665   1.918   2.326
11196TIP3    H133531   4.736   1.970   2.364
11196TIP3    H233532   4.588   1.975   2.334
11197TIP3   OH233533   6.628   1.540   6.331
11197TIP3    H133534   6.565   1.588   6.277
11197TIP3    H233535   6.713   1.565   6.296
11198TIP3   OH233536   4.873   2.373   5.231
11198TIP3    H133537   4.951   2.417   5.266
11198TIP3    H233538   4.812   2.372   5.305
11199TIP3   OH233539   6.285   4.314   5.505
11199TIP3    H133540   6.295   4.408   5.519
11199TIP3    H233541   6.198   4.293   5.539
11200TIP3   OH233542   7.243   6.055   1.523
11200TIP3    H133543   7.173   6.002   1.487
11200TIP3    H233544   7.308   6.061   1.452
11201TIP3   OH233545   6.195   7.642   5.832
11201TIP3    H133546   6.272   7.648   5.776
11201TIP3    H233547   6.224   7.677   5.916
11202TIP3   OH233548   7.061   0.502   1.392
11202TIP3    H133549   7.097   0.442   1.458
11202TIP3    H233550   6.980   0.535   1.431
11203TIP3   OH233551   5.394   1.703   3.451
11203TIP3    H133552   5.380   1.655   3.532
11203TIP3    H233553   5.340   1.782   3.460
11204TIP3   OH233554   1.609   7.111   0.498
11204TIP3    H133555   1.648   7.039   0.548
11204TIP3    H233556   1.606   7.184   0.559
11205TIP3   OH233557   3.326   3.469   3.281
11205TIP3    H133558   3.339   3.564   3.278
11205TIP3    H233559   3.286   3.448   3.197
11206TIP3   OH233560   3.281   5.467   4.029
11206TIP3    H133561   3.368   5.492   3.996
11206TIP3    H233562   3.271   5.515   4.111
11207TIP3   OH233563   5.625   5.251   1.747
11207TIP3    H133564   5.719   5.243   1.731
11207TIP3    H233565   5.596   5.160   1.756
11208TIP3   OH233566   0.383   3.632   1.081
11208TIP3    H133567   0.428   3.697   1.135
11208TIP3    H233568   0.438   3.554   1.086
11209TIP3   OH233569   2.391   4.220   4.267
11209TIP3    H133570   2.313   4.237   4.320
11209TIP3    H233571   2.382   4.129   4.240
11210TIP3   OH233572   6.823   6.436   6.352
11210TIP3    H133573   6.844   6.343   6.362
11210TIP3    H233574   6.907   6.481   6.362
11211TIP3   OH233575   2.128   5.014   4.327
11211TIP3    H133576   2.106   4.944   4.265
11211TIP3    H233577   2.044   5.049   4.355
11212TIP3   OH233578   2.218   7.293   3.654
11212TIP3    H133579   2.170   7.212   3.638
11212TIP3    H233580   2.308   7.265   3.670
11213TIP3   OH233581   1.541   4.894   2.415
11213TIP3    H133582   1.540   4.861   2.326
11213TIP3    H233583   1.569   4.985   2.407
11214TIP3   OH233584   1.954   0.294   4.670
11214TIP3    H133585   2.040   0.312   4.708
11214TIP3    H233586   1.968   0.302   4.576
11215TIP3   OH233587   1.256   2.510   2.081
11215TIP3    H133588   1.332   2.530   2.136
11215TIP3    H233589   1.244   2.415   2.092
11216TIP3   OH233590   5.899   0.696   3.684
11216TIP3    H133591   5.805   0.677   3.683
11216TIP3    H233592   5.928   0.679   3.594
11217TIP3   OH233593   4.370   7.041   1.880
11217TIP3    H133594   4.357   7.009   1.969
11217TIP3    H233595   4.323   6.978   1.825
11218TIP3   OH233596   8.167   6.000   0.036
11218TIP3    H133597   8.162   5.987   0.131
11218TIP3    H233598   8.122   5.924  -0.001
11219TIP3   OH233599   1.818   2.821   3.920
11219TIP3    H133600   1.842   2.898   3.972
11219TIP3    H233601   1.851   2.747   3.969
11220TIP3   OH233602   4.436   2.035   2.409
11220TIP3    H133603   4.363   2.092   2.432
11220TIP3    H233604   4.409   1.948   2.440
11221TIP3   OH233605   3.487   6.743   2.473
11221TIP3    H133606   3.573   6.770   2.506
11221TIP3    H233607   3.465   6.809   2.408
11222TIP3   OH233608   2.104   1.335   3.163
11222TIP3    H133609   2.145   1.353   3.078
11222TIP3    H233610   2.073   1.245   3.156
11223TIP3   OH233611   8.080   3.346   0.953
11223TIP3    H133612   8.086   3.438   0.981
11223TIP3    H233613   7.986   3.326   0.958
11224TIP3   OH233614   7.473   7.521   1.027
11224TIP3    H133615   7.396   7.572   1.050
11224TIP3    H233616   7.481   7.456   1.097
11225TIP3   OH233617   2.135   0.482   1.352
11225TIP3    H133618   2.191   0.419   1.397
11225TIP3    H233619   2.135   0.453   1.261
11226TIP3   OH233620   0.396   4.836   1.615
11226TIP3    H133621   0.457   4.867   1.548
11226TIP3    H233622   0.394   4.741   1.603
11227TIP3   OH233623   7.871   5.306   6.697
11227TIP3    H133624   7.851   5.371   6.764
11227TIP3    H233625   7.834   5.342   6.617
11228TIP3   OH233626   3.786   2.636   2.096
11228TIP3    H133627   3.729   2.678   2.032
11228TIP3    H233628   3.851   2.703   2.117
11229TIP3   OH233629   6.072   1.552   3.137
11229TIP3    H133630   5.986   1.591   3.154
11229TIP3    H233631   6.120   1.564   3.219
11230TIP3   OH233632   4.847   0.208   2.581
11230TIP3    H133633   4.915   0.202   2.648
11230TIP3    H233634   4.767   0.179   2.626
11231TIP3   OH233635   1.390   3.805   0.657
11231TIP3    H133636   1.426   3.751   0.587
11231TIP3    H233637   1.468   3.844   0.699
11232TIP3   OH233638   5.818   4.549   4.042
11232TIP3    H133639   5.847   4.499   4.118
11232TIP3    H233640   5.725   4.529   4.034
11233TIP3   OH233641   1.333   6.273   1.467
11233TIP3    H133642   1.386   6.232   1.399
11233TIP3    H233643   1.370   6.361   1.476
11234TIP3   OH233644   7.672   7.411   6.400
11234TIP3    H133645   7.591   7.451   6.369
11234TIP3    H233646   7.673   7.427   6.494
11235TIP3   OH233647   1.347   2.040   6.176
11235TIP3    H133648   1.439   2.065   6.172
11235TIP3    H233649   1.323   2.018   6.086
11236TIP3   OH233650   6.883   3.765   2.745
11236TIP3    H133651   6.843   3.820   2.813
11236TIP3    H233652   6.905   3.825   2.675
11237TIP3   OH233653   1.159   3.787   4.001
11237TIP3    H133654   1.132   3.866   3.954
11237TIP3    H233655   1.248   3.770   3.969
11238TIP3   OH233656   7.515   1.888   4.439
11238TIP3    H133657   7.512   1.900   4.534
11238TIP3    H233658   7.539   1.796   4.428
11239TIP3   OH233659   7.996   6.987   0.201
11239TIP3    H133660   8.011   7.075   0.167
11239TIP3    H233661   8.049   6.930   0.144
11240TIP3   OH233662   0.836   4.733   4.268
11240TIP3    H133663   0.794   4.649   4.286
11240TIP3    H233664   0.922   4.709   4.232
11241TIP3   OH233665   5.725   5.951   0.470
11241TIP3    H133666   5.714   5.929   0.563
11241TIP3    H233667   5.697   6.042   0.464
11242TIP3   OH233668   0.953   5.541   0.377
11242TIP3    H133669   0.919   5.584   0.455
11242TIP3    H233670   1.012   5.606   0.338
11243TIP3   OH233671   4.379   7.267   2.478
11243TIP3    H133672   4.420   7.272   2.564
11243TIP3    H233673   4.432   7.204   2.429
11244TIP3   OH233674   1.985   6.229   1.401
11244TIP3    H133675   1.911   6.177   1.432
11244TIP3    H233676   2.053   6.218   1.468
11245TIP3   OH233677   2.268   6.148   6.597
11245TIP3    H133678   2.349   6.099   6.581
11245TIP3    H233679   2.266   6.161   6.692
11246TIP3   OH233680   5.686   7.087   4.629
11246TIP3    H133681   5.622   7.019   4.607
11246TIP3    H233682   5.646   7.168   4.596
11247TIP3   OH233683   7.418   5.798   6.067
11247TIP3    H133684   7.469   5.876   6.046
11247TIP3    H233685   7.332   5.832   6.093
11248TIP3   OH233686   0.961   2.857   2.082
11248TIP3    H133687   1.045   2.818   2.106
11248TIP3    H233688   0.979   2.907   2.003
11249TIP3   OH233689   8.151   1.661   0.745
11249TIP3    H133690   8.070   1.677   0.696
11249TIP3    H233691   8.216   1.718   0.703
11250TIP3   OH233692   1.378   5.071   1.923
11250TIP3    H133693   1.473   5.069   1.909
11250TIP3    H233694   1.366   5.042   2.014
11251TIP3   OH233695   4.575   1.056   3.738
11251TIP3    H133696   4.659   1.010   3.741
11251TIP3    H233697   4.596   1.146   3.764
11252TIP3   OH233698   6.675   5.594   2.971
11252TIP3    H133699   6.637   5.679   2.950
11252TIP3    H233700   6.611   5.554   3.031
11253TIP3   OH233701   7.170   1.730   3.944
11253TIP3    H133702   7.182   1.656   4.003
11253TIP3    H233703   7.251   1.733   3.892
11254TIP3   OH233704   4.377   1.849   4.015
11254TIP3    H133705   4.406   1.873   3.927
11254TIP3    H233706   4.398   1.925   4.069
11255TIP3   OH233707   1.390   0.991   2.687
11255TIP3    H133708   1.301   0.993   2.719
11255TIP3    H233709   1.431   1.069   2.723
11256TIP3   OH233710   2.621   6.295   0.054
11256TIP3    H133711   2.649   6.205   0.068
11256TIP3    H233712   2.691   6.349   0.092
11257TIP3   OH233713   7.719  -0.012   4.927
11257TIP3    H133714   7.660   0.037   4.985
11257TIP3    H233715   7.800  -0.019   4.976
11258TIP3   OH233716   1.802   0.925   6.628
11258TIP3    H133717   1.877   0.910   6.571
11258TIP3    H233718   1.775   0.838   6.656
11259TIP3   OH233719   0.174   4.264   1.017
11259TIP3    H133720   0.186   4.293   0.927
11259TIP3    H233721   0.079   4.268   1.031
11260TIP3   OH233722   2.564   3.890   4.167
11260TIP3    H133723   2.604   3.967   4.208
11260TIP3    H233724   2.598   3.890   4.078
11261TIP3   OH233725   0.211   2.458   1.176
11261TIP3    H133726   0.139   2.408   1.136
11261TIP3    H233727   0.282   2.395   1.186
11262TIP3   OH233728   5.313   7.794   3.219
11262TIP3    H133729   5.398   7.805   3.261
11262TIP3    H233730   5.329   7.815   3.127
11263TIP3   OH233731   5.672   0.117   5.553
11263TIP3    H133732   5.745   0.142   5.609
11263TIP3    H233733   5.595   0.124   5.609
11264TIP3   OH233734   6.335   7.601   0.907
11264TIP3    H133735   6.370   7.583   0.820
11264TIP3    H233736   6.376   7.536   0.964
11265TIP3   OH233737   3.279   6.095   4.846
11265TIP3    H133738   3.211   6.132   4.789
11265TIP3    H233739   3.244   6.011   4.875
11266TIP3   OH233740   2.690   0.188   0.164
11266TIP3    H133741   2.699   0.225   0.251
11266TIP3    H233742   2.758   0.231   0.112
11267TIP3   OH233743   2.050   1.819   5.372
11267TIP3    H133744   2.048   1.876   5.296
11267TIP3    H233745   2.140   1.825   5.405
11268TIP3   OH233746   5.443   4.315   0.043
11268TIP3    H133747   5.382   4.297   0.115
11268TIP3    H233748   5.474   4.404   0.060
11269TIP3   OH233749   2.840   6.044   6.243
11269TIP3    H133750   2.932   6.064   6.258
11269TIP3    H233751   2.792   6.122   6.272
11270TIP3   OH233752   7.789   3.438   6.136
11270TIP3    H133753   7.859   3.373   6.146
11270TIP3    H233754   7.745   3.440   6.221
11271TIP3   OH233755   3.206   3.540   1.170
11271TIP3    H133756   3.218   3.503   1.082
11271TIP3    H233757   3.138   3.486   1.209
11272TIP3   OH233758   5.522   2.527   5.482
11272TIP3    H133759   5.449   2.551   5.425
11272TIP3    H233760   5.599   2.530   5.425
11273TIP3   OH233761   1.463   5.247   3.886
11273TIP3    H133762   1.399   5.264   3.956
11273TIP3    H233763   1.466   5.328   3.836
11274TIP3   OH233764   3.786   4.034   3.062
11274TIP3    H133765   3.774   4.060   3.153
11274TIP3    H233766   3.844   3.958   3.066
11275TIP3   OH233767   0.897   5.450   6.271
11275TIP3    H133768   0.902   5.486   6.182
11275TIP3    H233769   0.987   5.425   6.292
11276TIP3   OH233770   3.570   5.331   5.759
11276TIP3    H133771   3.645   5.340   5.818
11276TIP3    H233772   3.512   5.269   5.803
11277TIP3   OH233773   8.089   3.532   1.974
11277TIP3    H133774   8.137   3.503   2.051
11277TIP3    H233775   8.084   3.454   1.918
11278TIP3   OH233776   7.400   1.534   3.317
11278TIP3    H133777   7.359   1.471   3.257
11278TIP3    H233778   7.449   1.593   3.260
11279TIP3   OH233779   4.055   3.870   0.623
11279TIP3    H133780   4.063   3.877   0.718
11279TIP3    H233781   4.027   3.958   0.595
11280TIP3   OH233782   3.569   1.016   4.200
11280TIP3    H133783   3.524   0.932   4.196
11280TIP3    H233784   3.645   1.001   4.256
11281TIP3   OH233785   5.155   6.363   0.305
11281TIP3    H133786   5.135   6.346   0.397
11281TIP3    H233787   5.116   6.289   0.258
11282TIP3   OH233788   6.839   0.150   2.675
11282TIP3    H133789   6.798   0.105   2.749
11282TIP3    H233790   6.932   0.151   2.697
11283TIP3   OH233791   0.560   6.355   4.975
11283TIP3    H133792   0.499   6.414   4.931
11283TIP3    H233793   0.589   6.294   4.908
11284TIP3   OH233794   1.003   5.781   6.628
11284TIP3    H133795   1.031   5.866   6.663
11284TIP3    H233796   0.956   5.802   6.548
11285TIP3   OH233797   0.867   1.582   2.711
11285TIP3    H133798   0.811   1.556   2.784
11285TIP3    H233799   0.950   1.606   2.753
11286TIP3   OH233800   4.496   6.353   1.942
11286TIP3    H133801   4.585   6.386   1.954
11286TIP3    H233802   4.508   6.264   1.908
11287TIP3   OH233803   4.871   3.026   6.614
11287TIP3    H133804   4.947   2.996   6.663
11287TIP3    H233805   4.797   3.011   6.673
11288TIP3   OH233806   0.203   0.577   5.708
11288TIP3    H133807   0.281   0.557   5.760
11288TIP3    H233808   0.237   0.598   5.621
11289TIP3   OH233809   1.161   1.115   4.593
11289TIP3    H133810   1.148   1.209   4.583
11289TIP3    H233811   1.202   1.088   4.511
11290TIP3   OH233812   4.946   1.395   2.605
11290TIP3    H133813   5.022   1.343   2.628
11290TIP3    H233814   4.913   1.427   2.688
11291TIP3   OH233815   0.433   5.808   2.102
11291TIP3    H133816   0.416   5.887   2.050
11291TIP3    H233817   0.499   5.761   2.052
11292TIP3   OH233818   8.316   1.158   5.779
11292TIP3    H133819   8.265   1.198   5.708
11292TIP3    H233820   8.253   1.148   5.851
11293TIP3   OH233821   1.670   5.813   5.603
11293TIP3    H133822   1.594   5.866   5.624
11293TIP3    H233823   1.743   5.859   5.644
11294TIP3   OH233824   5.518   6.817   2.865
11294TIP3    H133825   5.450   6.782   2.807
11294TIP3    H233826   5.580   6.860   2.806
11295TIP3   OH233827   1.178   1.264   2.035
11295TIP3    H133828   1.166   1.214   2.116
11295TIP3    H233829   1.131   1.346   2.050
11296TIP3   OH233830   2.695   3.785   1.655
11296TIP3    H133831   2.776   3.740   1.678
11296TIP3    H233832   2.680   3.847   1.726
11297TIP3   OH233833   6.113   3.651   4.414
11297TIP3    H133834   6.129   3.742   4.391
11297TIP3    H233835   6.038   3.654   4.474
11298TIP3   OH233836   0.820   3.856   2.016
11298TIP3    H133837   0.791   3.882   1.929
11298TIP3    H233838   0.746   3.809   2.053
11299TIP3   OH233839   0.503   2.175   4.309
11299TIP3    H133840   0.476   2.083   4.320
11299TIP3    H233841   0.484   2.194   4.217
11300TIP3   OH233842   7.456   1.488   1.918
11300TIP3    H133843   7.404   1.415   1.950
11300TIP3    H233844   7.393   1.545   1.873
11301TIP3   OH233845   3.526   3.121   0.358
11301TIP3    H133846   3.609   3.073   0.359
11301TIP3    H233847   3.523   3.162   0.272
11302TIP3   OH233848   2.212   7.484   5.418
11302TIP3    H133849   2.168   7.496   5.502
11302TIP3    H233850   2.231   7.390   5.415
11303TIP3   OH233851   7.072   1.119   3.568
11303TIP3    H133852   7.064   1.033   3.608
11303TIP3    H233853   7.120   1.104   3.486
11304TIP3   OH233854   6.959   4.325   3.016
11304TIP3    H133855   7.009   4.306   3.095
11304TIP3    H233856   6.998   4.405   2.981
11305TIP3   OH233857   7.242   2.520   2.665
11305TIP3    H133858   7.154   2.511   2.629
11305TIP3    H233859   7.236   2.594   2.725
11306TIP3   OH233860   3.025   5.531   3.464
11306TIP3    H133861   2.940   5.502   3.495
11306TIP3    H233862   3.035   5.489   3.378
11307TIP3   OH233863   5.421   2.854   6.236
11307TIP3    H133864   5.337   2.857   6.284
11307TIP3    H233865   5.397   2.868   6.145
11308TIP3   OH233866   1.599   5.071   2.128
11308TIP3    H133867   1.662   5.005   2.158
11308TIP3    H233868   1.645   5.118   2.059
11309TIP3   OH233869   7.857   2.150   4.949
11309TIP3    H133870   7.842   2.243   4.938
11309TIP3    H233871   7.952   2.140   4.943
11310TIP3   OH233872   4.838   0.757   3.395
11310TIP3    H133873   4.893   0.714   3.461
11310TIP3    H233874   4.879   0.843   3.383
11311TIP3   OH233875   5.383   1.551   6.035
11311TIP3    H133876   5.421   1.490   6.098
11311TIP3    H233877   5.448   1.556   5.964
11312TIP3   OH233878   5.045   1.571   0.568
11312TIP3    H133879   4.949   1.563   0.568
11312TIP3    H233880   5.072   1.539   0.654
11313TIP3   OH233881   6.903   3.731   3.581
11313TIP3    H133882   6.981   3.713   3.633
11313TIP3    H233883   6.859   3.802   3.627
11314TIP3   OH233884   2.277   6.014   5.449
11314TIP3    H133885   2.287   6.056   5.363
11314TIP3    H233886   2.286   6.086   5.511
11315TIP3   OH233887   5.728   5.129   3.828
11315TIP3    H133888   5.645   5.128   3.874
11315TIP3    H233889   5.735   5.217   3.790
11316TIP3   OH233890   7.662   4.100   4.046
11316TIP3    H133891   7.749   4.105   4.006
11316TIP3    H233892   7.615   4.035   3.994
11317TIP3   OH233893   3.270   5.130   0.352
11317TIP3    H133894   3.281   5.179   0.433
11317TIP3    H233895   3.226   5.049   0.378
11318TIP3   OH233896   4.018   0.006   1.900
11318TIP3    H133897   3.930   0.031   1.929
11318TIP3    H233898   4.075   0.072   1.939
11319TIP3   OH233899   7.126   3.648   1.409
11319TIP3    H133900   7.066   3.649   1.483
11319TIP3    H233901   7.086   3.706   1.344
11320TIP3   OH233902   0.831   2.591   6.086
11320TIP3    H133903   0.823   2.532   6.161
11320TIP3    H233904   0.756   2.569   6.030
11321TIP3   OH233905   4.538   6.461   0.085
11321TIP3    H133906   4.449   6.485   0.059
11321TIP3    H233907   4.594   6.505   0.022
11322TIP3   OH233908   2.865   7.510   4.500
11322TIP3    H133909   2.797   7.578   4.498
11322TIP3    H233910   2.879   7.489   4.407
11323TIP3   OH233911   5.360   3.388   3.928
11323TIP3    H133912   5.409   3.399   3.847
11323TIP3    H233913   5.309   3.308   3.914
11324TIP3   OH233914   6.447   5.033   6.530
11324TIP3    H133915   6.424   4.954   6.481
11324TIP3    H233916   6.490   5.001   6.609
11325TIP3   OH233917   4.359   5.169   3.331
11325TIP3    H133918   4.265   5.184   3.337
11325TIP3    H233919   4.378   5.170   3.237
11326TIP3   OH233920   7.466   3.553   3.827
11326TIP3    H133921   7.484   3.460   3.810
11326TIP3    H233922   7.490   3.598   3.746
11327TIP3   OH233923   5.369   4.212   4.453
11327TIP3    H133924   5.324   4.258   4.382
11327TIP3    H233925   5.460   4.206   4.423
11328TIP3   OH233926   1.559   2.119   3.137
11328TIP3    H133927   1.493   2.181   3.105
11328TIP3    H233928   1.607   2.092   3.059
11329TIP3   OH233929   7.519   4.402   5.968
11329TIP3    H133930   7.540   4.423   5.877
11329TIP3    H233931   7.574   4.327   5.989
11330TIP3   OH233932   3.381   1.281   6.026
11330TIP3    H133933   3.358   1.285   6.118
11330TIP3    H233934   3.297   1.277   5.980
11331TIP3   OH233935   5.679   0.101   1.881
11331TIP3    H133936   5.646   0.142   1.961
11331TIP3    H233937   5.612   0.120   1.815
11332TIP3   OH233938   8.121   6.098   3.819
11332TIP3    H133939   8.069   6.023   3.794
11332TIP3    H233940   8.209   6.078   3.788
11333TIP3   OH233941   5.556   1.894   5.864
11333TIP3    H133942   5.631   1.835   5.861
11333TIP3    H233943   5.591   1.978   5.834
11334TIP3   OH233944   4.989   5.919   2.967
11334TIP3    H133945   5.079   5.888   2.980
11334TIP3    H233946   4.938   5.840   2.952
11335TIP3   OH233947   3.092   6.832   2.738
11335TIP3    H133948   3.150   6.758   2.720
11335TIP3    H233949   3.063   6.818   2.828
11336TIP3   OH233950   8.094   6.983   4.190
11336TIP3    H133951   8.132   6.905   4.149
11336TIP3    H233952   8.168   7.043   4.202
11337TIP3   OH233953   5.713   6.636   0.206
11337TIP3    H133954   5.671   6.598   0.284
11337TIP3    H233955   5.644   6.636   0.139
11338TIP3   OH233956   7.027   6.540   4.519
11338TIP3    H133957   7.006   6.633   4.507
11338TIP3    H233958   6.981   6.515   4.600
11339TIP3   OH233959   6.354   6.197   4.768
11339TIP3    H133960   6.266   6.160   4.773
11339TIP3    H233961   6.405   6.134   4.717
11340TIP3   OH233962   1.584   6.965   2.074
11340TIP3    H133963   1.613   7.047   2.112
11340TIP3    H233964   1.636   6.955   1.994
11341TIP3   OH233965   1.668   0.842   3.325
11341TIP3    H133966   1.616   0.857   3.403
11341TIP3    H233967   1.753   0.812   3.358
11342TIP3   OH233968   3.187   1.681   0.558
11342TIP3    H133969   3.199   1.754   0.497
11342TIP3    H233970   3.194   1.722   0.645
11343TIP3   OH233971   6.763   3.992   5.697
11343TIP3    H133972   6.821   4.067   5.689
11343TIP3    H233973   6.745   3.984   5.790
11344TIP3   OH233974   8.208   3.586   2.562
11344TIP3    H133975   8.168   3.525   2.500
11344TIP3    H233976   8.189   3.673   2.526
11345TIP3   OH233977   7.263   3.091   6.276
11345TIP3    H133978   7.224   3.056   6.356
11345TIP3    H233979   7.309   3.170   6.305
11346TIP3   OH233980   5.367   1.752   5.522
11346TIP3    H133981   5.434   1.818   5.504
11346TIP3    H233982   5.411   1.688   5.578
11347TIP3   OH233983   7.648   3.532   1.776
11347TIP3    H133984   7.584   3.463   1.793
11347TIP3    H233985   7.659   3.577   1.860
11348TIP3   OH233986   0.953   7.795   1.516
11348TIP3    H133987   1.008   7.872   1.506
11348TIP3    H233988   0.968   7.744   1.437
11349TIP3   OH233989   3.609   5.542   1.073
11349TIP3    H133990   3.584   5.632   1.053
11349TIP3    H233991   3.528   5.500   1.101
11350TIP3   OH233992   3.378   0.086   0.576
11350TIP3    H133993   3.364  -0.008   0.562
11350TIP3    H233994   3.294   0.120   0.604
11351TIP3   OH233995   5.246   1.234   4.375
11351TIP3    H133996   5.204   1.235   4.461
11351TIP3    H233997   5.337   1.257   4.392
11352TIP3   OH233998   3.302   4.437   5.097
11352TIP3    H133999   3.378   4.486   5.128
11352TIP3    H234000   3.280   4.378   5.170
11353TIP3   OH234001   3.289   5.456   1.116
11353TIP3    H134002   3.321   5.452   1.206
11353TIP3    H234003   3.243   5.539   1.110
11354TIP3   OH234004   3.285   2.223   1.905
11354TIP3    H134005   3.259   2.188   1.819
11354TIP3    H234006   3.251   2.160   1.968
11355TIP3   OH234007   0.363   3.671   2.371
11355TIP3    H134008   0.305   3.664   2.447
11355TIP3    H234009   0.431   3.605   2.385
11356TIP3   OH234010   0.905   2.792   2.692
11356TIP3    H134011   0.900   2.887   2.679
11356TIP3    H234012   0.981   2.780   2.749
11357TIP3   OH234013   7.809   6.490   4.088
11357TIP3    H134014   7.776   6.469   4.175
11357TIP3    H234015   7.885   6.433   4.076
11358TIP3   OH234016   0.940   3.877   2.540
11358TIP3    H134017   0.960   3.959   2.495
11358TIP3    H234018   0.871   3.837   2.487
11359TIP3   OH234019   7.429   1.203   3.327
11359TIP3    H134020   7.442   1.109   3.313
11359TIP3    H234021   7.381   1.232   3.249
11360TIP3   OH234022   6.218   7.193   4.537
11360TIP3    H134023   6.133   7.158   4.510
11360TIP3    H234024   6.202   7.230   4.623
11361TIP3   OH234025   2.650   6.763   0.812
11361TIP3    H134026   2.617   6.711   0.885
11361TIP3    H234027   2.578   6.763   0.748
11362TIP3   OH234028   2.021   0.861   5.932
11362TIP3    H134029   2.065   0.946   5.933
11362TIP3    H234030   2.021   0.835   5.839
11363TIP3   OH234031   7.077   6.007   2.692
11363TIP3    H134032   7.125   5.978   2.614
11363TIP3    H234033   7.035   5.928   2.724
11364TIP3   OH234034   6.139   2.480   4.159
11364TIP3    H134035   6.190   2.554   4.193
11364TIP3    H234036   6.052   2.492   4.196
11365TIP3   OH234037   6.758   0.848   3.001
11365TIP3    H134038   6.829   0.786   3.018
11365TIP3    H234039   6.741   0.839   2.907
11366TIP3   OH234040   1.724   6.468   0.464
11366TIP3    H134041   1.757   6.457   0.374
11366TIP3    H234042   1.692   6.557   0.467
11367TIP3   OH234043   5.658   7.719   0.630
11367TIP3    H134044   5.684   7.803   0.593
11367TIP3    H234045   5.659   7.734   0.725
11368TIP3   OH234046   1.399   4.912   0.000
11368TIP3    H134047   1.316   4.961   0.004
11368TIP3    H234048   1.383   4.835   0.054
11369TIP3   OH234049   7.921   2.759   5.283
11369TIP3    H134050   7.883   2.682   5.327
11369TIP3    H234051   7.998   2.781   5.336
11370TIP3   OH234052   8.163   1.793   1.284
11370TIP3    H134053   8.093   1.778   1.348
11370TIP3    H234054   8.146   1.728   1.215
11371TIP3   OH234055   1.631   1.027   1.429
11371TIP3    H134056   1.620   1.112   1.387
11371TIP3    H234057   1.671   0.971   1.361
11372TIP3   OH234058   6.363   6.156   1.278
11372TIP3    H134059   6.268   6.151   1.289
11372TIP3    H234060   6.391   6.225   1.339
11373TIP3   OH234061   7.672   2.610   4.450
11373TIP3    H134062   7.756   2.601   4.404
11373TIP3    H234063   7.696   2.616   4.543
11374TIP3   OH234064   5.762   7.139   2.472
11374TIP3    H134065   5.756   7.189   2.553
11374TIP3    H234066   5.726   7.197   2.405
11375TIP3   OH234067   3.658   4.420   6.274
11375TIP3    H134068   3.735   4.363   6.266
11375TIP3    H234069   3.662   4.478   6.198
11376TIP3   OH234070   0.991   6.887   1.637
11376TIP3    H134071   0.933   6.842   1.575
11376TIP3    H234072   0.988   6.833   1.716
11377TIP3   OH234073   3.402   1.643   3.913
11377TIP3    H134074   3.457   1.574   3.875
11377TIP3    H234075   3.313   1.619   3.888
11378TIP3   OH234076   7.126   2.718   1.554
11378TIP3    H134077   7.211   2.683   1.530
11378TIP3    H234078   7.113   2.793   1.495
11379TIP3   OH234079   2.434   0.596   1.050
11379TIP3    H134080   2.466   0.681   1.079
11379TIP3    H234081   2.339   0.603   1.058
11380TIP3   OH234082   4.242   3.819   1.764
11380TIP3    H134083   4.188   3.885   1.721
11380TIP3    H234084   4.332   3.850   1.754
11381TIP3   OH234085   5.706   2.723   2.709
11381TIP3    H134086   5.626   2.742   2.659
11381TIP3    H234087   5.719   2.800   2.763
11382TIP3   OH234088   6.556   6.320   3.979
11382TIP3    H134089   6.549   6.415   3.970
11382TIP3    H234090   6.467   6.288   3.963
11383TIP3   OH234091   5.527   4.570   3.967
11383TIP3    H134092   5.558   4.625   3.895
11383TIP3    H234093   5.530   4.627   4.044
11384TIP3   OH234094   0.730   2.976   4.100
11384TIP3    H134095   0.779   3.050   4.136
11384TIP3    H234096   0.674   3.014   4.033
11385TIP3   OH234097   7.726   5.917   4.789
11385TIP3    H134098   7.703   5.825   4.780
11385TIP3    H234099   7.643   5.962   4.803
11386TIP3   OH234100   6.550   1.081   1.222
11386TIP3    H134101   6.454   1.077   1.220
11386TIP3    H234102   6.571   1.171   1.197
11387TIP3   OH234103   1.168   2.749   5.581
11387TIP3    H134104   1.118   2.676   5.617
11387TIP3    H234105   1.104   2.799   5.529
11388TIP3   OH234106   4.165   0.676   3.943
11388TIP3    H134107   4.247   0.634   3.918
11388TIP3    H234108   4.188   0.768   3.956
11389TIP3   OH234109   4.546   1.092   2.949
11389TIP3    H134110   4.633   1.132   2.948
11389TIP3    H234111   4.498   1.136   2.879
11390TIP3   OH234112   7.344   5.699   5.274
11390TIP3    H134113   7.256   5.709   5.309
11390TIP3    H234114   7.358   5.777   5.220
11391TIP3   OH234115   5.397   0.219   5.093
11391TIP3    H134116   5.366   0.160   5.024
11391TIP3    H234117   5.425   0.161   5.164
11392TIP3   OH234118   8.217   4.331   1.713
11392TIP3    H134119   8.194   4.327   1.620
11392TIP3    H234120   8.188   4.247   1.749
11393TIP3   OH234121   0.372   7.556   4.083
11393TIP3    H134122   0.333   7.632   4.127
11393TIP3    H234123   0.362   7.485   4.146
11394TIP3   OH234124   3.835   5.347   3.724
11394TIP3    H134125   3.915   5.389   3.756
11394TIP3    H234126   3.865   5.280   3.664
11395TIP3   OH234127   4.426   1.112   3.468
11395TIP3    H134128   4.400   1.097   3.377
11395TIP3    H234129   4.397   1.033   3.514
11396TIP3   OH234130   3.136   0.133   2.894
11396TIP3    H134131   3.145   0.176   2.979
11396TIP3    H234132   3.169   0.197   2.831
11397TIP3   OH234133   2.683   6.228   6.559
11397TIP3    H134134   2.776   6.245   6.547
11397TIP3    H234135   2.663   6.266   6.645
11398TIP3   OH234136   8.078   2.047   4.670
11398TIP3    H134137   8.052   2.131   4.708
11398TIP3    H234138   8.095   2.066   4.578
11399TIP3   OH234139   4.942   3.350   1.776
11399TIP3    H134140   4.861   3.300   1.784
11399TIP3    H234141   4.917   3.439   1.798
11400TIP3   OH234142   2.149   4.838   3.315
11400TIP3    H134143   2.172   4.862   3.405
11400TIP3    H234144   2.075   4.894   3.293
11401TIP3   OH234145   1.623   5.512   1.865
11401TIP3    H134146   1.681   5.580   1.900
11401TIP3    H234147   1.651   5.500   1.774
11402TIP3   OH234148   0.485   3.427   2.412
11402TIP3    H134149   0.566   3.398   2.452
11402TIP3    H234150   0.422   3.357   2.430
11403TIP3   OH234151   4.656   5.982   6.584
11403TIP3    H134152   4.708   5.904   6.563
11403TIP3    H234153   4.606   6.000   6.505
11404TIP3   OH234154   4.280   5.941   3.651
11404TIP3    H134155   4.231   5.868   3.689
11404TIP3    H234156   4.322   5.904   3.574
11405TIP3   OH234157   1.284   0.356   3.249
11405TIP3    H134158   1.354   0.418   3.230
11405TIP3    H234159   1.321   0.271   3.227
11406TIP3   OH234160   7.173   4.683   1.917
11406TIP3    H134161   7.106   4.616   1.928
11406TIP3    H234162   7.124   4.763   1.901
11407TIP3   OH234163   1.321   6.866   6.489
11407TIP3    H134164   1.362   6.950   6.469
11407TIP3    H234165   1.387   6.801   6.466
11408TIP3   OH234166   1.578   6.695   6.262
11408TIP3    H134167   1.671   6.718   6.265
11408TIP3    H234168   1.537   6.762   6.208
11409TIP3   OH234169   5.423   7.477   1.429
11409TIP3    H134170   5.335   7.483   1.464
11409TIP3    H234171   5.461   7.400   1.471
11410TIP3   OH234172   5.625   6.530   5.871
11410TIP3    H134173   5.556   6.587   5.837
11410TIP3    H234174   5.590   6.498   5.955
11411TIP3   OH234175   4.290   0.267   6.106
11411TIP3    H134176   4.224   0.206   6.074
11411TIP3    H234177   4.240   0.333   6.155
11412TIP3   OH234178   3.179   4.324   0.519
11412TIP3    H134179   3.257   4.377   0.538
11412TIP3    H234180   3.204   4.271   0.444
11413TIP3   OH234181   5.323   2.271   2.556
11413TIP3    H134182   5.393   2.207   2.548
11413TIP3    H234183   5.247   2.229   2.517
11414TIP3   OH234184   1.659   5.722   4.697
11414TIP3    H134185   1.690   5.709   4.607
11414TIP3    H234186   1.570   5.753   4.687
11415TIP3   OH234187   5.756   7.189   0.548
11415TIP3    H134188   5.803   7.219   0.471
11415TIP3    H234189   5.764   7.094   0.546
11416TIP3   OH234190   4.669   4.261   1.777
11416TIP3    H134191   4.686   4.305   1.861
11416TIP3    H234192   4.749   4.275   1.726
11417TIP3   OH234193   1.865   5.973   1.313
11417TIP3    H134194   1.820   5.973   1.397
11417TIP3    H234195   1.951   5.935   1.332
11418TIP3   OH234196   6.341   0.813   3.387
11418TIP3    H134197   6.356   0.835   3.295
11418TIP3    H234198   6.348   0.717   3.390
11419TIP3   OH234199   3.659   7.604   0.991
11419TIP3    H134200   3.632   7.604   0.899
11419TIP3    H234201   3.752   7.626   0.989
11420TIP3   OH234202   3.479   0.157   0.843
11420TIP3    H134203   3.439   0.140   0.757
11420TIP3    H234204   3.425   0.108   0.904
11421TIP3   OH234205   5.538   0.765   5.297
11421TIP3    H134206   5.552   0.829   5.228
11421TIP3    H234207   5.473   0.704   5.261
11422TIP3   OH234208   0.804   2.216   3.751
11422TIP3    H134209   0.710   2.227   3.761
11422TIP3    H234210   0.821   2.128   3.785
11423TIP3   OH234211   0.077   1.847   6.223
11423TIP3    H134212   0.031   1.844   6.307
11423TIP3    H234213   0.099   1.940   6.212
11424TIP3   OH234214   1.674   0.392   5.120
11424TIP3    H134215   1.583   0.408   5.094
11424TIP3    H234216   1.716   0.357   5.041
11425TIP3   OH234217   3.451   5.373   6.681
11425TIP3    H134218   3.533   5.397   6.638
11425TIP3    H234219   3.398   5.333   6.612
11426TIP3   OH234220   1.174   6.951   6.741
11426TIP3    H134221   1.240   6.988   6.799
11426TIP3    H234222   1.225   6.903   6.675
11427TIP3   OH234223   3.273   5.718   4.206
11427TIP3    H134224   3.243   5.752   4.122
11427TIP3    H234225   3.362   5.753   4.216
11428TIP3   OH234226   7.293   2.529   3.592
11428TIP3    H134227   7.375   2.534   3.542
11428TIP3    H234228   7.253   2.446   3.565
11429TIP3   OH234229   6.069   5.767   5.391
11429TIP3    H134230   6.001   5.788   5.326
11429TIP3    H234231   6.023   5.714   5.456
11430TIP3   OH234232   5.955   6.882   2.268
11430TIP3    H134233   5.929   6.821   2.199
11430TIP3    H234234   5.930   6.968   2.234
11431TIP3   OH234235   0.267   3.789   4.873
11431TIP3    H134236   0.292   3.790   4.965
11431TIP3    H234237   0.305   3.709   4.838
11432TIP3   OH234238   5.197   3.782   3.818
11432TIP3    H134239   5.193   3.749   3.728
11432TIP3    H234240   5.281   3.828   3.823
11433TIP3   OH234241   3.696   6.343   1.719
11433TIP3    H134242   3.695   6.248   1.731
11433TIP3    H234243   3.679   6.378   1.807
11434TIP3   OH234244   3.510   3.321   0.543
11434TIP3    H134245   3.520   3.250   0.480
11434TIP3    H234246   3.576   3.303   0.610
11435TIP3   OH234247   3.380   4.276   6.695
11435TIP3    H134248   3.405   4.338   6.763
11435TIP3    H234249   3.435   4.298   6.620
11436TIP3   OH234250   6.586   2.894   2.021
11436TIP3    H134251   6.524   2.845   2.076
11436TIP3    H234252   6.614   2.831   1.954
11437TIP3   OH234253   1.955   5.018   0.225
11437TIP3    H134254   1.926   5.109   0.223
11437TIP3    H234255   2.026   5.014   0.160
11438TIP3   OH234256   5.522   7.374   6.539
11438TIP3    H134257   5.472   7.431   6.597
11438TIP3    H234258   5.552   7.433   6.469
11439TIP3   OH234259   6.978   5.324   0.990
11439TIP3    H134260   6.909   5.328   1.057
11439TIP3    H234261   6.978   5.411   0.951
11440TIP3   OH234262   5.912   7.238   3.029
11440TIP3    H134263   5.824   7.214   3.001
11440TIP3    H234264   5.963   7.157   3.021
11441TIP3   OH234265   3.721   1.406   1.240
11441TIP3    H134266   3.756   1.420   1.329
11441TIP3    H234267   3.649   1.344   1.252
11442TIP3   OH234268   4.205   4.589   2.227
11442TIP3    H134269   4.142   4.642   2.276
11442TIP3    H234270   4.204   4.625   2.139
11443TIP3   OH234271   0.483   1.657   6.445
11443TIP3    H134272   0.558   1.685   6.393
11443TIP3    H234273   0.426   1.733   6.448
11444TIP3   OH234274   3.623   4.502   0.113
11444TIP3    H134275   3.707   4.468   0.083
11444TIP3    H234276   3.558   4.439   0.082
11445TIP3   OH234277   6.430   0.224   5.188
11445TIP3    H134278   6.351   0.241   5.137
11445TIP3    H234279   6.496   0.282   5.150
11446TIP3   OH234280   0.988   5.138   4.337
11446TIP3    H134281   0.934   5.071   4.379
11446TIP3    H234282   0.943   5.157   4.255
11447TIP3   OH234283   3.926   0.449   1.627
11447TIP3    H134284   3.853   0.497   1.666
11447TIP3    H234285   4.004   0.487   1.670
11448TIP3   OH234286   1.436   2.615   1.481
11448TIP3    H134287   1.493   2.560   1.428
11448TIP3    H234288   1.370   2.554   1.516
11449TIP3   OH234289   6.060   0.470   1.669
11449TIP3    H134290   6.127   0.410   1.701
11449TIP3    H234291   5.977   0.431   1.696
11450TIP3   OH234292   2.145   1.909   6.193
11450TIP3    H134293   2.096   1.961   6.129
11450TIP3    H234294   2.236   1.926   6.172
11451TIP3   OH234295   1.473   4.920   1.023
11451TIP3    H134296   1.380   4.941   1.029
11451TIP3    H234297   1.517   5.005   1.028
11452TIP3   OH234298   4.783   4.193   4.630
11452TIP3    H134299   4.777   4.200   4.534
11452TIP3    H234300   4.739   4.111   4.651
11453TIP3   OH234301   5.853   3.834   6.121
11453TIP3    H134302   5.837   3.814   6.213
11453TIP3    H234303   5.833   3.927   6.113
11454TIP3   OH234304   6.624   6.400   1.335
11454TIP3    H134305   6.589   6.437   1.416
11454TIP3    H234306   6.658   6.314   1.361
11455TIP3   OH234307   2.556   4.493   3.094
11455TIP3    H134308   2.500   4.567   3.070
11455TIP3    H234309   2.610   4.526   3.166
11456TIP3   OH234310   2.967   6.628   6.055
11456TIP3    H134311   3.008   6.689   5.994
11456TIP3    H234312   2.894   6.677   6.092
11457TIP3   OH234313   8.203   2.810   6.408
11457TIP3    H134314   8.220   2.722   6.442
11457TIP3    H234315   8.109   2.821   6.416
11458TIP3   OH234316   1.109   7.505   4.137
11458TIP3    H134317   1.153   7.420   4.130
11458TIP3    H234318   1.168   7.567   4.095
11459TIP3   OH234319   4.742   2.051   3.496
11459TIP3    H134320   4.672   2.001   3.454
11459TIP3    H234321   4.820   1.995   3.487
11460TIP3   OH234322   2.467   7.587   3.018
11460TIP3    H134323   2.513   7.517   3.064
11460TIP3    H234324   2.402   7.542   2.965
11461TIP3   OH234325   3.933   6.373   1.142
11461TIP3    H134326   3.941   6.456   1.189
11461TIP3    H234327   3.946   6.306   1.209
11462TIP3   OH234328   4.318   3.162   4.787
11462TIP3    H134329   4.403   3.189   4.822
11462TIP3    H234330   4.324   3.180   4.693
11463TIP3   OH234331   4.595   3.585   0.955
11463TIP3    H134332   4.526   3.589   1.020
11463TIP3    H234333   4.654   3.657   0.978
11464TIP3   OH234334   2.165   3.358   2.267
11464TIP3    H134335   2.216   3.407   2.202
11464TIP3    H234336   2.090   3.415   2.286
11465TIP3   OH234337   4.191   0.267   4.918
11465TIP3    H134338   4.246   0.302   4.988
11465TIP3    H234339   4.247   0.206   4.872
11466TIP3   OH234340   5.545   0.251   0.017
11466TIP3    H134341   5.579   0.336   0.045
11466TIP3    H234342   5.613   0.188   0.042
11467TIP3   OH234343   7.663   3.539   4.483
11467TIP3    H134344   7.603   3.569   4.414
11467TIP3    H234345   7.722   3.478   4.439
11468TIP3   OH234346   5.958   1.754   2.401
11468TIP3    H134347   5.872   1.786   2.375
11468TIP3    H234348   5.960   1.764   2.496
11469TIP3   OH234349   4.430   4.786   0.604
11469TIP3    H134350   4.421   4.860   0.544
11469TIP3    H234351   4.439   4.710   0.547
11470TIP3   OH234352   6.355   5.014   4.921
11470TIP3    H134353   6.343   4.970   5.005
11470TIP3    H234354   6.279   5.073   4.914
11471TIP3   OH234355   6.979   7.493   2.231
11471TIP3    H134356   7.034   7.417   2.252
11471TIP3    H234357   7.033   7.569   2.253
11472TIP3   OH234358   6.813   3.338   0.380
11472TIP3    H134359   6.897   3.337   0.427
11472TIP3    H234360   6.802   3.430   0.355
11473TIP3   OH234361   1.300   4.591   0.973
11473TIP3    H134362   1.251   4.510   0.981
11473TIP3    H234363   1.234   4.660   0.971
11474TIP3   OH234364   4.912   7.095   3.637
11474TIP3    H134365   4.850   7.139   3.579
11474TIP3    H234366   4.993   7.144   3.628
11475TIP3   OH234367   7.029   7.369   2.565
11475TIP3    H134368   7.044   7.363   2.660
11475TIP3    H234369   6.959   7.434   2.556
11476TIP3   OH234370   3.689   5.497   6.601
11476TIP3    H134371   3.728   5.532   6.681
11476TIP3    H234372   3.650   5.572   6.557
11477TIP3   OH234373   6.587   0.717   0.732
11477TIP3    H134374   6.590   0.642   0.792
11477TIP3    H234375   6.533   0.781   0.777
11478TIP3   OH234376   5.190   4.836   1.507
11478TIP3    H134377   5.139   4.756   1.496
11478TIP3    H234378   5.281   4.808   1.493
11479TIP3   OH234379   1.452   2.362   1.133
11479TIP3    H134380   1.364   2.400   1.138
11479TIP3    H234381   1.467   2.348   1.040
11480TIP3   OH234382   2.734   4.832   4.391
11480TIP3    H134383   2.746   4.862   4.301
11480TIP3    H234384   2.725   4.737   4.384
11481TIP3   OH234385   2.678   1.889   4.195
11481TIP3    H134386   2.706   1.912   4.284
11481TIP3    H234387   2.677   1.794   4.194
11482TIP3   OH234388   4.456   2.827   2.363
11482TIP3    H134389   4.401   2.873   2.427
11482TIP3    H234390   4.415   2.741   2.354
11483TIP3   OH234391   2.049   5.696   5.128
11483TIP3    H134392   1.963   5.665   5.098
11483TIP3    H234393   2.029   5.746   5.208
11484TIP3   OH234394   6.735   5.428   1.447
11484TIP3    H134395   6.796   5.376   1.499
11484TIP3    H234396   6.691   5.485   1.510
11485TIP3   OH234397   4.837   1.183   2.302
11485TIP3    H134398   4.801   1.136   2.377
11485TIP3    H234399   4.772   1.251   2.283
11486TIP3   OH234400   1.282   4.037   5.079
11486TIP3    H134401   1.201   4.055   5.031
11486TIP3    H234402   1.316   4.123   5.102
11487TIP3   OH234403   3.541   4.403   3.650
11487TIP3    H134404   3.449   4.427   3.658
11487TIP3    H234405   3.575   4.457   3.579
11488TIP3   OH234406   5.456   6.888   5.978
11488TIP3    H134407   5.501   6.967   5.946
11488TIP3    H234408   5.417   6.850   5.899
11489TIP3   OH234409   5.263   6.157   3.969
11489TIP3    H134410   5.209   6.112   4.034
11489TIP3    H234411   5.317   6.217   4.021
11490TIP3   OH234412   7.961   2.711   4.755
11490TIP3    H134413   7.920   2.693   4.840
11490TIP3    H234414   7.887   2.724   4.696
11491TIP3   OH234415   7.265   1.074   5.379
11491TIP3    H134416   7.337   1.025   5.418
11491TIP3    H234417   7.207   1.095   5.452
11492TIP3   OH234418   7.889   1.600   1.080
11492TIP3    H134419   7.821   1.534   1.072
11492TIP3    H234420   7.844   1.684   1.067
11493TIP3   OH234421   7.701   7.470   3.740
11493TIP3    H134422   7.698   7.564   3.758
11493TIP3    H234423   7.609   7.444   3.737
11494TIP3   OH234424   7.240   0.175   5.306
11494TIP3    H134425   7.155   0.154   5.267
11494TIP3    H234426   7.271   0.091   5.341
11495TIP3   OH234427   0.738   7.011   3.119
11495TIP3    H134428   0.697   7.084   3.166
11495TIP3    H234429   0.800   7.053   3.060
11496TIP3   OH234430   8.218   2.407   2.729
11496TIP3    H134431   8.140   2.385   2.781
11496TIP3    H234432   8.204   2.497   2.701
11497TIP3   OH234433   6.975   5.315   6.164
11497TIP3    H134434   6.967   5.270   6.080
11497TIP3    H234435   7.026   5.254   6.218
11498TIP3   OH234436   4.755   6.734   0.579
11498TIP3    H134437   4.757   6.830   0.572
11498TIP3    H234438   4.662   6.712   0.578
11499TIP3   OH234439   6.162   0.188   1.853
11499TIP3    H134440   6.116   0.168   1.935
11499TIP3    H234441   6.253   0.199   1.879
11500TIP3   OH234442   7.064   3.218   4.701
11500TIP3    H134443   7.049   3.252   4.613
11500TIP3    H234444   7.045   3.124   4.695
11501TIP3   OH234445   0.580   2.949   5.986
11501TIP3    H134446   0.508   2.920   5.931
11501TIP3    H234447   0.563   2.909   6.071
11502TIP3   OH234448   3.100   7.255   0.466
11502TIP3    H134449   3.051   7.336   0.452
11502TIP3    H234450   3.176   7.282   0.518
11503TIP3   OH234451   0.572   4.780   1.421
11503TIP3    H134452   0.668   4.787   1.413
11503TIP3    H234453   0.551   4.696   1.381
11504TIP3   OH234454   4.576   0.243   4.834
11504TIP3    H134455   4.664   0.222   4.800
11504TIP3    H234456   4.591   0.262   4.926
11505TIP3   OH234457   2.151   1.833   3.301
11505TIP3    H134458   2.112   1.746   3.300
11505TIP3    H234459   2.246   1.817   3.300
11506TIP3   OH234460   5.120   6.511   0.048
11506TIP3    H134461   5.138   6.443   0.112
11506TIP3    H234462   5.095   6.587   0.100
11507TIP3   OH234463   2.433   3.018   1.909
11507TIP3    H134464   2.522   2.985   1.923
11507TIP3    H234465   2.376   2.944   1.930
11508TIP3   OH234466   5.364   2.803   1.626
11508TIP3    H134467   5.421   2.814   1.550
11508TIP3    H234468   5.351   2.891   1.661
11509TIP3   OH234469   1.735   2.545   3.642
11509TIP3    H134470   1.812   2.494   3.666
11509TIP3    H234471   1.661   2.487   3.658
11510TIP3   OH234472   5.232   5.084   2.723
11510TIP3    H134473   5.153   5.041   2.755
11510TIP3    H234474   5.253   5.148   2.790
11511TIP3   OH234475   4.460   3.541   0.310
11511TIP3    H134476   4.406   3.473   0.351
11511TIP3    H234477   4.425   3.623   0.344
11512TIP3   OH234478   6.655   3.189   4.214
11512TIP3    H134479   6.678   3.098   4.229
11512TIP3    H234480   6.727   3.224   4.162
11513TIP3   OH234481   2.973   6.859   3.920
11513TIP3    H134482   2.961   6.940   3.970
11513TIP3    H234483   2.956   6.789   3.983
11514TIP3   OH234484   5.249   4.552   4.653
11514TIP3    H134485   5.295   4.542   4.570
11514TIP3    H234486   5.318   4.573   4.716
11515TIP3   OH234487   4.337   1.664   3.620
11515TIP3    H134488   4.242   1.656   3.632
11515TIP3    H234489   4.374   1.634   3.703
11516TIP3   OH234490   7.529   2.495   3.434
11516TIP3    H134491   7.535   2.408   3.472
11516TIP3    H234492   7.464   2.487   3.364
11517TIP3   OH234493   7.361   1.009   6.490
11517TIP3    H134494   7.418   1.067   6.541
11517TIP3    H234495   7.343   0.936   6.549
11518TIP3   OH234496   2.815   1.243   1.794
11518TIP3    H134497   2.781   1.247   1.883
11518TIP3    H234498   2.906   1.271   1.801
11519TIP3   OH234499   2.610   2.188   4.883
11519TIP3    H134500   2.597   2.283   4.887
11519TIP3    H234501   2.694   2.174   4.926
11520TIP3   OH234502   0.785   0.731   3.800
11520TIP3    H134503   0.746   0.676   3.868
11520TIP3    H234504   0.756   0.820   3.822
11521TIP3   OH234505   0.252   1.389   1.402
11521TIP3    H134506   0.251   1.387   1.306
11521TIP3    H234507   0.319   1.326   1.427
11522TIP3   OH234508   5.663   1.081   5.631
11522TIP3    H134509   5.733   1.122   5.581
11522TIP3    H234510   5.666   1.125   5.716
11523TIP3   OH234511   2.044   0.828   5.037
11523TIP3    H134512   1.999   0.770   5.098
11523TIP3    H234513   1.980   0.897   5.019
11524TIP3   OH234514   7.116   6.660   6.668
11524TIP3    H134515   7.030   6.693   6.645
11524TIP3    H234516   7.152   6.725   6.729
11525TIP3   OH234517   0.717   6.852   5.019
11525TIP3    H134518   0.661   6.776   5.034
11525TIP3    H234519   0.701   6.876   4.927
11526TIP3   OH234520   4.728   4.427   1.253
11526TIP3    H134521   4.667   4.401   1.184
11526TIP3    H234522   4.683   4.404   1.335
11527TIP3   OH234523   2.626   5.305   2.806
11527TIP3    H134524   2.651   5.244   2.875
11527TIP3    H234525   2.603   5.250   2.731
11528TIP3   OH234526   2.074   5.305   5.595
11528TIP3    H134527   2.167   5.298   5.614
11528TIP3    H234528   2.042   5.372   5.655
11529TIP3   OH234529   7.007   3.206   4.419
11529TIP3    H134530   6.936   3.257   4.459
11529TIP3    H234531   6.962   3.144   4.362
11530TIP3   OH234532   4.176   5.672   2.638
11530TIP3    H134533   4.197   5.633   2.553
11530TIP3    H234534   4.106   5.735   2.619
11531TIP3   OH234535   6.743   3.468   5.543
11531TIP3    H134536   6.808   3.523   5.585
11531TIP3    H234537   6.719   3.404   5.610
11532TIP3   OH234538   4.608   0.678   0.577
11532TIP3    H134539   4.562   0.722   0.506
11532TIP3    H234540   4.624   0.747   0.642
11533TIP3   OH234541   1.268   6.653   3.391
11533TIP3    H134542   1.359   6.652   3.421
11533TIP3    H234543   1.230   6.573   3.426
11534TIP3   OH234544   5.799   1.637   5.820
11534TIP3    H134545   5.840   1.554   5.846
11534TIP3    H234546   5.806   1.637   5.724
11535TIP3   OH234547   7.282   4.563   0.080
11535TIP3    H134548   7.257   4.533   0.167
11535TIP3    H234549   7.293   4.657   0.089
11536TIP3   OH234550   3.360   4.604   3.065
11536TIP3    H134551   3.334   4.675   3.007
11536TIP3    H234552   3.445   4.575   3.032
11537TIP3   OH234553   8.039   2.848   3.962
11537TIP3    H134554   8.064   2.938   3.984
11537TIP3    H234555   7.954   2.857   3.919
11538TIP3   OH234556   5.009   4.825   5.570
11538TIP3    H134557   5.069   4.764   5.612
11538TIP3    H234558   4.942   4.769   5.530
11539TIP3   OH234559   5.090   6.888   3.170
11539TIP3    H134560   5.084   6.795   3.193
11539TIP3    H234561   5.175   6.897   3.127
11540TIP3   OH234562   0.724   2.600   5.057
11540TIP3    H134563   0.710   2.524   5.001
11540TIP3    H234564   0.753   2.669   4.997
11541TIP3   OH234565   2.431   5.448   5.344
11541TIP3    H134566   2.426   5.356   5.368
11541TIP3    H234567   2.387   5.454   5.260
11542TIP3   OH234568   3.235   5.189   2.745
11542TIP3    H134569   3.323   5.156   2.725
11542TIP3    H234570   3.177   5.141   2.687
11543TIP3   OH234571   3.111   2.066   5.116
11543TIP3    H134572   3.044   2.026   5.061
11543TIP3    H234573   3.071   2.075   5.202
11544TIP3   OH234574   6.596   1.964   3.435
11544TIP3    H134575   6.662   1.902   3.467
11544TIP3    H234576   6.520   1.949   3.491
11545TIP3   OH234577   1.884   3.436   2.307
11545TIP3    H134578   1.833   3.514   2.331
11545TIP3    H234579   1.835   3.397   2.234
11546TIP3   OH234580   6.696   4.637   2.014
11546TIP3    H134581   6.674   4.554   2.056
11546TIP3    H234582   6.699   4.700   2.086
11547TIP3   OH234583   1.316   0.408   2.920
11547TIP3    H134584   1.307   0.336   2.983
11547TIP3    H234585   1.304   0.367   2.834
11548TIP3   OH234586   4.239   7.277   1.793
11548TIP3    H134587   4.314   7.335   1.780
11548TIP3    H234588   4.271   7.211   1.855
11549TIP3   OH234589   0.504   1.793   5.164
11549TIP3    H134590   0.428   1.738   5.144
11549TIP3    H234591   0.528   1.769   5.254
11550TIP3   OH234592   8.315   1.947   6.531
11550TIP3    H134593   8.283   2.037   6.539
11550TIP3    H234594   8.247   1.893   6.570
11551TIP3   OH234595   0.158   5.866   1.926
11551TIP3    H134596   0.188   5.808   1.856
11551TIP3    H234597   0.225   5.934   1.931
11552TIP3   OH234598   2.033   5.121   2.658
11552TIP3    H134599   1.987   5.182   2.601
11552TIP3    H234600   2.088   5.070   2.599
11553TIP3   OH234601   6.538   2.718   1.651
11553TIP3    H134602   6.533   2.803   1.608
11553TIP3    H234603   6.456   2.710   1.700
11554TIP3   OH234604   2.869   4.192   1.937
11554TIP3    H134605   2.893   4.183   2.029
11554TIP3    H234606   2.884   4.284   1.917
11555TIP3   OH234607   4.668   3.436   2.903
11555TIP3    H134608   4.652   3.480   2.820
11555TIP3    H234609   4.642   3.345   2.887
11556TIP3   OH234610   4.234   4.239   4.364
11556TIP3    H134611   4.214   4.332   4.363
11556TIP3    H234612   4.189   4.203   4.287
11557TIP3   OH234613   5.367   5.364   3.747
11557TIP3    H134614   5.453   5.392   3.717
11557TIP3    H234615   5.382   5.331   3.835
11558TIP3   OH234616   1.007   7.341   4.877
11558TIP3    H134617   1.083   7.361   4.933
11558TIP3    H234618   0.942   7.406   4.901
11559TIP3   OH234619   1.734   6.037   6.241
11559TIP3    H134620   1.803   6.007   6.301
11559TIP3    H234621   1.658   5.984   6.266
11560TIP3   OH234622   0.531   1.117   6.489
11560TIP3    H134623   0.540   1.211   6.476
11560TIP3    H234624   0.437   1.104   6.503
11561TIP3   OH234625   0.856   2.545   2.806
11561TIP3    H134626   0.875   2.635   2.780
11561TIP3    H234627   0.863   2.546   2.901
11562TIP3   OH234628   0.822   3.086   0.694
11562TIP3    H134629   0.797   3.139   0.770
11562TIP3    H234630   0.901   3.040   0.722
11563TIP3   OH234631   2.783   4.738   3.107
11563TIP3    H134632   2.840   4.688   3.050
11563TIP3    H234633   2.788   4.828   3.074
11564TIP3   OH234634   2.698   1.869   1.198
11564TIP3    H134635   2.720   1.919   1.277
11564TIP3    H234636   2.718   1.929   1.126
11565TIP3   OH234637   6.217   6.492   5.049
11565TIP3    H134638   6.210   6.490   5.145
11565TIP3    H234639   6.311   6.504   5.032
11566TIP3   OH234640   6.258   1.374   2.703
11566TIP3    H134641   6.260   1.439   2.773
11566TIP3    H234642   6.185   1.401   2.647
11567TIP3   OH234643   2.497   3.443   3.730
11567TIP3    H134644   2.426   3.474   3.786
11567TIP3    H234645   2.466   3.461   3.641
11568TIP3   OH234646   2.127   5.460   5.999
11568TIP3    H134647   2.039   5.422   5.988
11568TIP3    H234648   2.119   5.517   6.075
11569TIP3   OH234649   6.924   1.642   5.051
11569TIP3    H134650   6.948   1.733   5.032
11569TIP3    H234651   7.006   1.600   5.076
11570TIP3   OH234652   8.267   3.130   0.646
11570TIP3    H134653   8.326   3.060   0.675
11570TIP3    H234654   8.185   3.085   0.626
11571TIP3   OH234655   8.206   5.810   3.628
11571TIP3    H134656   8.284   5.834   3.577
11571TIP3    H234657   8.237   5.802   3.718
11572TIP3   OH234658   2.111   3.278   1.914
11572TIP3    H134659   2.130   3.359   1.961
11572TIP3    H234660   2.036   3.241   1.960
11573TIP3   OH234661   2.560   1.043   4.809
11573TIP3    H134662   2.491   0.981   4.786
11573TIP3    H234663   2.523   1.129   4.787
11574TIP3   OH234664   1.862   4.199   0.792
11574TIP3    H134665   1.822   4.209   0.705
11574TIP3    H234666   1.788   4.204   0.852
11575TIP3   OH234667   6.694   2.223   1.606
11575TIP3    H134668   6.750   2.296   1.632
11575TIP3    H234669   6.656   2.192   1.688
11576TIP3   OH234670   8.213   2.607   1.090
11576TIP3    H134671   8.224   2.513   1.076
11576TIP3    H234672   8.180   2.614   1.179
11577TIP3   OH234673   3.171   3.071   3.491
11577TIP3    H134674   3.241   3.036   3.547
11577TIP3    H234675   3.091   3.042   3.534
11578TIP3   OH234676   4.917   1.974   5.736
11578TIP3    H134677   4.881   1.918   5.667
11578TIP3    H234678   4.983   2.027   5.692
11579TIP3   OH234679   0.301   3.129   2.311
11579TIP3    H134680   0.392   3.101   2.325
11579TIP3    H234681   0.265   3.064   2.251
11580TIP3   OH234682   6.953   4.184   0.364
11580TIP3    H134683   6.933   4.252   0.429
11580TIP3    H234684   6.929   4.102   0.408
11581TIP3   OH234685   3.779   0.610   2.190
11581TIP3    H134686   3.712   0.610   2.259
11581TIP3    H234687   3.849   0.664   2.225
11582TIP3   OH234688   6.394   6.607   2.228
11582TIP3    H134689   6.364   6.523   2.265
11582TIP3    H234690   6.340   6.673   2.273
11583TIP3   OH234691   0.406   3.429  -0.005
11583TIP3    H134692   0.321   3.445   0.037
11583TIP3    H234693   0.442   3.516  -0.021
11584TIP3   OH234694   6.998   0.793   3.345
11584TIP3    H134695   7.052   0.871   3.361
11584TIP3    H234696   7.039   0.724   3.396
11585TIP3   OH234697   0.394   4.979   1.851
11585TIP3    H134698   0.410   4.923   1.776
11585TIP3    H234699   0.407   5.068   1.819
11586TIP3   OH234700   4.740   1.965   6.759
11586TIP3    H134701   4.660   2.003   6.723
11586TIP3    H234702   4.764   1.896   6.697
11587TIP3   OH234703   6.587   4.073   5.983
11587TIP3    H134704   6.629   4.157   5.967
11587TIP3    H234705   6.517   4.068   5.917
11588TIP3   OH234706   1.303   3.414   0.643
11588TIP3    H134707   1.254   3.490   0.613
11588TIP3    H234708   1.393   3.445   0.652
11589TIP3   OH234709   7.367   6.515   5.504
11589TIP3    H134710   7.377   6.506   5.599
11589TIP3    H234711   7.386   6.428   5.470
11590TIP3   OH234712   5.863   5.623   4.348
11590TIP3    H134713   5.915   5.600   4.425
11590TIP3    H234714   5.833   5.712   4.365
11591TIP3   OH234715   6.328   2.761   5.327
11591TIP3    H134716   6.300   2.704   5.256
11591TIP3    H234717   6.424   2.762   5.321
11592TIP3   OH234718   1.126   6.101   1.911
11592TIP3    H134719   1.037   6.090   1.878
11592TIP3    H234720   1.181   6.106   1.833
11593TIP3   OH234721   7.593   2.518   2.392
11593TIP3    H134722   7.500   2.508   2.371
11593TIP3    H234723   7.615   2.607   2.366
11594TIP3   OH234724   3.653   3.070   4.235
11594TIP3    H134725   3.711   3.138   4.270
11594TIP3    H234726   3.689   2.988   4.268
11595TIP3   OH234727   3.094   3.912   3.613
11595TIP3    H134728   3.126   4.001   3.602
11595TIP3    H234729   3.170   3.864   3.647
11596TIP3   OH234730   6.045   0.730   5.611
11596TIP3    H134731   5.953   0.704   5.604
11596TIP3    H234732   6.077   0.730   5.521
11597TIP3   OH234733   1.852   3.860   3.172
11597TIP3    H134734   1.920   3.908   3.125
11597TIP3    H234735   1.851   3.774   3.130
11598TIP3   OH234736   0.124   3.820   6.402
11598TIP3    H134737   0.143   3.862   6.318
11598TIP3    H234738   0.121   3.891   6.465
11599TIP3   OH234739   5.194   0.100   3.464
11599TIP3    H134740   5.289   0.092   3.469
11599TIP3    H234741   5.176   0.188   3.498
11600TIP3   OH234742   7.168   2.389   5.637
11600TIP3    H134743   7.164   2.478   5.601
11600TIP3    H234744   7.198   2.400   5.727
11601TIP3   OH234745   7.383   6.806   1.902
11601TIP3    H134746   7.467   6.851   1.898
11601TIP3    H234747   7.400   6.727   1.953
11602TIP3   OH234748   3.797   2.398   3.403
11602TIP3    H134749   3.871   2.459   3.405
11602TIP3    H234750   3.727   2.443   3.450
11603TIP3   OH234751   2.363   7.802   5.189
11603TIP3    H134752   2.291   7.740   5.180
11603TIP3    H234753   2.442   7.749   5.176
11604TIP3   OH234754   1.091   7.707   5.023
11604TIP3    H134755   1.173   7.671   4.990
11604TIP3    H234756   1.109   7.800   5.037
11605TIP3   OH234757   5.836   4.336   2.029
11605TIP3    H134758   5.776   4.402   1.994
11605TIP3    H234759   5.858   4.368   2.117
11606TIP3   OH234760   4.900   7.229   3.176
11606TIP3    H134761   4.886   7.157   3.115
11606TIP3    H234762   4.944   7.297   3.125
11607TIP3   OH234763   5.686   4.207   6.159
11607TIP3    H134764   5.630   4.234   6.232
11607TIP3    H234765   5.640   4.134   6.119
11608TIP3   OH234766   2.028   1.402   6.542
11608TIP3    H134767   2.002   1.493   6.556
11608TIP3    H234768   1.969   1.370   6.473
11609TIP3   OH234769   5.631   1.480   4.757
11609TIP3    H134770   5.664   1.397   4.792
11609TIP3    H234771   5.538   1.462   4.741
11610TIP3   OH234772   7.663   7.423   4.179
11610TIP3    H134773   7.599   7.414   4.109
11610TIP3    H234774   7.633   7.499   4.230
11611TIP3   OH234775   4.431   0.094   2.064
11611TIP3    H134776   4.443   0.188   2.076
11611TIP3    H234777   4.374   0.086   1.988
11612TIP3   OH234778   5.213   0.838   0.465
11612TIP3    H134779   5.161   0.912   0.433
11612TIP3    H234780   5.299   0.851   0.427
11613TIP3   OH234781   6.209   7.478   5.510
11613TIP3    H134782   6.285   7.509   5.560
11613TIP3    H234783   6.193   7.390   5.544
11614TIP3   OH234784   5.333   4.695   2.207
11614TIP3    H134785   5.338   4.601   2.225
11614TIP3    H234786   5.257   4.725   2.257
11615TIP3   OH234787   4.312   5.872   0.363
11615TIP3    H134788   4.296   5.875   0.269
11615TIP3    H234789   4.406   5.856   0.371
11616TIP3   OH234790   5.564   0.581   5.921
11616TIP3    H134791   5.571   0.508   5.860
11616TIP3    H234792   5.650   0.623   5.919
11617TIP3   OH234793   1.008   4.134   4.728
11617TIP3    H134794   0.930   4.157   4.777
11617TIP3    H234795   1.081   4.164   4.783
11618TIP3   OH234796   1.058   7.638   2.814
11618TIP3    H134797   0.999   7.700   2.772
11618TIP3    H234798   1.099   7.688   2.885
11619TIP3   OH234799   7.703   3.796   6.656
11619TIP3    H134800   7.728   3.815   6.746
11619TIP3    H234801   7.691   3.882   6.615
11620TIP3   OH234802   2.045   0.230   1.935
11620TIP3    H134803   1.971   0.204   1.990
11620TIP3    H234804   2.021   0.199   1.847
11621TIP3   OH234805   0.486   5.635   0.506
11621TIP3    H134806   0.485   5.701   0.437
11621TIP3    H234807   0.452   5.556   0.464
11622TIP3   OH234808   5.173   5.067   5.529
11622TIP3    H134809   5.209   5.064   5.440
11622TIP3    H234810   5.106   4.999   5.530
11623TIP3   OH234811   7.774   6.818   3.203
11623TIP3    H134812   7.777   6.858   3.116
11623TIP3    H234813   7.718   6.876   3.255
11624TIP3   OH234814   6.105   6.140   5.899
11624TIP3    H134815   6.187   6.154   5.852
11624TIP3    H234816   6.109   6.200   5.973
11625TIP3   OH234817   2.958   7.074   4.077
11625TIP3    H134818   2.960   7.103   4.168
11625TIP3    H234819   3.045   7.094   4.043
11626TIP3   OH234820   2.203   1.885   4.319
11626TIP3    H134821   2.143   1.835   4.373
11626TIP3    H234822   2.250   1.820   4.267
11627TIP3   OH234823   4.583   1.359   3.134
11627TIP3    H134824   4.567   1.391   3.222
11627TIP3    H234825   4.627   1.432   3.089
11628TIP3   OH234826   5.317   5.888   5.130
11628TIP3    H134827   5.228   5.910   5.104
11628TIP3    H234828   5.365   5.878   5.048
11629TIP3   OH234829   4.563   2.002   2.004
11629TIP3    H134830   4.577   2.013   1.910
11629TIP3    H234831   4.618   2.068   2.045
11630TIP3   OH234832   3.145   5.423   5.566
11630TIP3    H134833   3.200   5.476   5.625
11630TIP3    H234834   3.171   5.452   5.478
11631TIP3   OH234835   1.270   3.109   3.814
11631TIP3    H134836   1.342   3.155   3.857
11631TIP3    H234837   1.292   3.016   3.822
11632TIP3   OH234838   7.561   3.763   4.243
11632TIP3    H134839   7.582   3.695   4.179
11632TIP3    H234840   7.480   3.802   4.211
11633TIP3   OH234841   0.890   7.723   0.082
11633TIP3    H134842   0.942   7.712   0.162
11633TIP3    H234843   0.802   7.695   0.107
11634TIP3   OH234844   6.129   3.919   2.648
11634TIP3    H134845   6.096   3.894   2.562
11634TIP3    H234846   6.193   3.851   2.670
11635TIP3   OH234847   2.031   4.202   3.197
11635TIP3    H134848   1.977   4.167   3.126
11635TIP3    H234849   2.075   4.278   3.158
11636TIP3   OH234850   1.706   2.056   4.495
11636TIP3    H134851   1.772   2.050   4.563
11636TIP3    H234852   1.756   2.061   4.413
11637TIP3   OH234853   5.768   2.676   6.548
11637TIP3    H134854   5.827   2.635   6.486
11637TIP3    H234855   5.681   2.646   6.522
11638TIP3   OH234856   3.780   3.635   0.121
11638TIP3    H134857   3.801   3.567   0.184
11638TIP3    H234858   3.715   3.595   0.062
11639TIP3   OH234859   7.408   0.092   3.690
11639TIP3    H134860   7.405   0.161   3.757
11639TIP3    H234861   7.463   0.024   3.728
11640TIP3   OH234862   6.155   3.942   0.834
11640TIP3    H134863   6.179   3.857   0.796
11640TIP3    H234864   6.238   3.981   0.861
11641TIP3   OH234865   0.896   5.934   6.413
11641TIP3    H134866   0.914   6.027   6.407
11641TIP3    H234867   0.801   5.927   6.419
11642TIP3   OH234868   3.520   7.426   6.718
11642TIP3    H134869   3.610   7.459   6.711
11642TIP3    H234870   3.496   7.405   6.628
11643TIP3   OH234871   0.215   1.583   0.822
11643TIP3    H134872   0.217   1.673   0.853
11643TIP3    H234873   0.284   1.539   0.873
11644TIP3   OH234874   4.973   0.014   3.785
11644TIP3    H134875   4.923   0.055   3.856
11644TIP3    H234876   4.906  -0.013   3.722
11645TIP3   OH234877   7.097   4.854   4.778
11645TIP3    H134878   7.142   4.861   4.862
11645TIP3    H234879   7.167   4.855   4.713
11646TIP3   OH234880   2.588   2.845   3.088
11646TIP3    H134881   2.503   2.861   3.128
11646TIP3    H234882   2.568   2.793   3.010
11647TIP3   OH234883   7.964   3.459   0.622
11647TIP3    H134884   7.906   3.389   0.592
11647TIP3    H234885   7.962   3.452   0.718
11648TIP3   OH234886   2.138   7.785   2.898
11648TIP3    H134887   2.209   7.849   2.894
11648TIP3    H234888   2.127   7.768   2.992
11649TIP3   OH234889   8.002   2.093   1.035
11649TIP3    H134890   8.003   2.140   0.952
11649TIP3    H234891   8.082   2.041   1.035
11650TIP3   OH234892   0.671   4.523   4.892
11650TIP3    H134893   0.710   4.610   4.901
11650TIP3    H234894   0.581   4.540   4.865
11651TIP3   OH234895   4.579   1.322   3.533
11651TIP3    H134896   4.519   1.382   3.490
11651TIP3    H234897   4.541   1.235   3.520
11652TIP3   OH234898   4.340   3.117   3.048
11652TIP3    H134899   4.329   3.038   2.994
11652TIP3    H234900   4.434   3.123   3.063
11653TIP3   OH234901   2.253   3.188   1.060
11653TIP3    H134902   2.307   3.161   0.986
11653TIP3    H234903   2.246   3.283   1.052
11654TIP3   OH234904   3.441   7.013   5.369
11654TIP3    H134905   3.389   6.956   5.312
11654TIP3    H234906   3.444   6.967   5.453
11655TIP3   OH234907   2.120   6.006   3.614
11655TIP3    H134908   2.074   5.938   3.565
11655TIP3    H234909   2.174   6.051   3.549
11656TIP3   OH234910   6.591   5.830   3.417
11656TIP3    H134911   6.500   5.827   3.444
11656TIP3    H234912   6.640   5.837   3.499
11657TIP3   OH234913   4.160   4.298   5.736
11657TIP3    H134914   4.203   4.222   5.695
11657TIP3    H234915   4.081   4.311   5.683
11658TIP3   OH234916   2.457   1.954   2.592
11658TIP3    H134917   2.371   1.993   2.578
11658TIP3    H234918   2.501   2.013   2.653
11659TIP3   OH234919   2.737   1.795   1.962
11659TIP3    H134920   2.695   1.878   1.940
11659TIP3    H234921   2.695   1.768   2.044
11660TIP3   OH234922   2.055   4.394   5.529
11660TIP3    H134923   2.111   4.468   5.550
11660TIP3    H234924   1.970   4.415   5.569
11661TIP3   OH234925   3.582   4.093   0.116
11661TIP3    H134926   3.608   4.075   0.025
11661TIP3    H234927   3.618   4.020   0.166
11662TIP3   OH234928   3.102   2.836   1.459
11662TIP3    H134929   3.077   2.919   1.418
11662TIP3    H234930   3.056   2.836   1.542
11663TIP3   OH234931   0.316   0.124   2.531
11663TIP3    H134932   0.280   0.154   2.447
11663TIP3    H234933   0.352   0.037   2.511
11664TIP3   OH234934   1.800   2.947   6.083
11664TIP3    H134935   1.821   3.035   6.115
11664TIP3    H234936   1.753   2.962   6.001
11665TIP3   OH234937   0.793   7.119   1.671
11665TIP3    H134938   0.756   7.153   1.752
11665TIP3    H234939   0.882   7.093   1.695
11666TIP3   OH234940   7.627   4.945   2.344
11666TIP3    H134941   7.585   4.865   2.314
11666TIP3    H234942   7.561   4.988   2.398
11667TIP3   OH234943   6.837   6.625   0.230
11667TIP3    H134944   6.770   6.651   0.166
11667TIP3    H234945   6.889   6.705   0.243
11668TIP3   OH234946   3.732   1.544   5.094
11668TIP3    H134947   3.694   1.620   5.050
11668TIP3    H234948   3.688   1.469   5.055
11669TIP3   OH234949   1.947   4.059   1.174
11669TIP3    H134950   1.965   4.012   1.093
11669TIP3    H234951   1.915   3.993   1.235
11670TIP3   OH234952   1.469   1.555   2.206
11670TIP3    H134953   1.520   1.516   2.136
11670TIP3    H234954   1.467   1.649   2.185
11671TIP3   OH234955   3.229   5.463   2.085
11671TIP3    H134956   3.294   5.460   2.156
11671TIP3    H234957   3.251   5.541   2.035
11672TIP3   OH234958   1.386   2.292   3.050
11672TIP3    H134959   1.341   2.290   2.966
11672TIP3    H234960   1.454   2.359   3.039
11673TIP3   OH234961   0.113   3.629   5.148
11673TIP3    H134962   0.153   3.566   5.207
11673TIP3    H234963   0.019   3.620   5.164
11674TIP3   OH234964   2.206   0.282   6.726
11674TIP3    H134965   2.294   0.306   6.697
11674TIP3    H234966   2.167   0.238   6.650
11675TIP3   OH234967   0.764   0.676   2.196
11675TIP3    H134968   0.767   0.666   2.291
11675TIP3    H234969   0.721   0.761   2.182
11676TIP3   OH234970   5.023   4.231   1.449
11676TIP3    H134971   5.021   4.287   1.371
11676TIP3    H234972   4.979   4.151   1.421
11677TIP3   OH234973   1.283   4.948   4.146
11677TIP3    H134974   1.292   4.883   4.215
11677TIP3    H234975   1.371   4.984   4.135
11678TIP3   OH234976   6.122   6.209   1.820
11678TIP3    H134977   6.094   6.118   1.815
11678TIP3    H234978   6.146   6.223   1.912
11679TIP3   OH234979   2.866   6.202   3.686
11679TIP3    H134980   2.782   6.227   3.725
11679TIP3    H234981   2.867   6.107   3.690
11680TIP3   OH234982   2.855   2.528   6.603
11680TIP3    H134983   2.813   2.573   6.677
11680TIP3    H234984   2.799   2.452   6.587
11681TIP3   OH234985   4.791   5.015   2.102
11681TIP3    H134986   4.761   5.005   2.012
11681TIP3    H234987   4.713   5.042   2.151
11682TIP3   OH234988   4.361   4.112   0.480
11682TIP3    H134989   4.414   4.074   0.550
11682TIP3    H234990   4.287   4.152   0.526
11683TIP3   OH234991   1.172   2.708   0.388
11683TIP3    H134992   1.114   2.773   0.428
11683TIP3    H234993   1.140   2.624   0.421
11684TIP3   OH234994   7.280   2.252   1.008
11684TIP3    H134995   7.245   2.231   0.921
11684TIP3    H234996   7.301   2.167   1.046
11685TIP3   OH234997   8.219   0.771   0.907
11685TIP3    H134998   8.204   0.865   0.913
11685TIP3    H234999   8.284   0.761   0.838
11686TIP3   OH235000   8.162   2.172   0.194
11686TIP3    H135001   8.224   2.100   0.206
11686TIP3    H235002   8.082   2.142   0.236
11687TIP3   OH235003   1.757   6.012   1.070
11687TIP3    H135004   1.708   5.930   1.070
11687TIP3    H235005   1.800   6.015   1.156
11688TIP3   OH235006   0.408   3.667   0.391
11688TIP3    H135007   0.358   3.739   0.352
11688TIP3    H235008   0.491   3.669   0.344
11689TIP3   OH235009   0.097   3.922   2.392
11689TIP3    H135010   0.162   3.986   2.423
11689TIP3    H235011   0.080   3.947   2.302
11690TIP3   OH235012   1.854   4.266   3.414
11690TIP3    H135013   1.863   4.356   3.383
11690TIP3    H235014   1.916   4.216   3.361
11691TIP3   OH235015   5.426   6.660   4.294
11691TIP3    H135016   5.334   6.639   4.282
11691TIP3    H235017   5.464   6.579   4.330
11692TIP3   OH235018   3.133   0.588   5.733
11692TIP3    H135019   3.154   0.669   5.687
11692TIP3    H235020   3.163   0.604   5.823
11693TIP3   OH235021   7.477   1.867   4.731
11693TIP3    H135022   7.531   1.810   4.786
11693TIP3    H235023   7.398   1.883   4.782
11694TIP3   OH235024   6.158   1.087   6.265
11694TIP3    H135025   6.239   1.050   6.301
11694TIP3    H235026   6.089   1.038   6.308
11695TIP3   OH235027   5.883   7.244   0.802
11695TIP3    H135028   5.831   7.260   0.724
11695TIP3    H235029   5.910   7.331   0.831
11696TIP3   OH235030   6.976   0.269   5.592
11696TIP3    H135031   6.938   0.195   5.545
11696TIP3    H235032   6.908   0.336   5.590
11697TIP3   OH235033   0.343   2.700   1.807
11697TIP3    H135034   0.351   2.675   1.899
11697TIP3    H235035   0.250   2.717   1.795
11698TIP3   OH235036   0.189   5.720   5.186
11698TIP3    H135037   0.235   5.751   5.109
11698TIP3    H235038   0.245   5.746   5.259
11699TIP3   OH235039   2.229   3.682   6.346
11699TIP3    H135040   2.266   3.684   6.258
11699TIP3    H235041   2.287   3.622   6.395
11700TIP3   OH235042   4.675   3.855   2.935
11700TIP3    H135043   4.621   3.901   3.000
11700TIP3    H235044   4.697   3.771   2.976
11701TIP3   OH235045   4.303   7.170   0.608
11701TIP3    H135046   4.222   7.122   0.624
11701TIP3    H235047   4.372   7.108   0.630
11702TIP3   OH235048   0.928   1.649   3.105
11702TIP3    H135049   0.902   1.719   3.045
11702TIP3    H235050   1.021   1.635   3.087
11703TIP3   OH235051   0.563   1.960   6.390
11703TIP3    H135052   0.583   1.985   6.480
11703TIP3    H235053   0.471   1.983   6.378
11704TIP3   OH235054   3.664   2.269   4.411
11704TIP3    H135055   3.681   2.175   4.421
11704TIP3    H235056   3.570   2.278   4.426
11705TIP3   OH235057   0.011   1.999   4.206
11705TIP3    H135058   0.103   2.014   4.185
11705TIP3    H235059  -0.036   2.015   4.124
11706TIP3   OH235060   2.164   2.639   3.982
11706TIP3    H135061   2.075   2.612   4.007
11706TIP3    H235062   2.219   2.565   4.007
11707TIP3   OH235063   4.047   5.799   5.516
11707TIP3    H135064   4.105   5.842   5.453
11707TIP3    H235065   4.106   5.760   5.580
11708TIP3   OH235066   3.843   5.496   2.111
11708TIP3    H135067   3.782   5.433   2.072
11708TIP3    H235068   3.801   5.523   2.192
11709TIP3   OH235069   3.167   3.900   5.888
11709TIP3    H135070   3.135   3.943   5.809
11709TIP3    H235071   3.262   3.903   5.880
11710TIP3   OH235072   1.647   1.081   5.580
11710TIP3    H135073   1.597   1.123   5.511
11710TIP3    H235074   1.583   1.028   5.628
11711TIP3   OH235075   5.068  -0.001   5.950
11711TIP3    H135076   5.114   0.020   5.868
11711TIP3    H235077   5.030   0.082   5.979
11712TIP3   OH235078   6.280   7.001   6.398
11712TIP3    H135079   6.288   7.020   6.492
11712TIP3    H235080   6.365   6.963   6.375
11713TIP3   OH235081   1.600   2.561   3.398
11713TIP3    H135082   1.662   2.545   3.469
11713TIP3    H235083   1.515   2.568   3.442
11714TIP3   OH235084   4.058   3.509   3.826
11714TIP3    H135085   3.976   3.468   3.853
11714TIP3    H235086   4.090   3.452   3.756
11715TIP3   OH235087   1.946   6.002   1.760
11715TIP3    H135088   1.997   6.056   1.820
11715TIP3    H235089   1.979   5.913   1.772
11716TIP3   OH235090   2.846   3.991   3.731
11716TIP3    H135091   2.826   4.057   3.665
11716TIP3    H235092   2.914   3.937   3.691
11717TIP3   OH235093   5.337   1.059   0.087
11717TIP3    H135094   5.346   1.133   0.027
11717TIP3    H235095   5.265   1.084   0.145
11718TIP3   OH235096   4.958   6.664   5.063
11718TIP3    H135097   4.989   6.703   4.981
11718TIP3    H235098   4.874   6.707   5.079
11719TIP3   OH235099   8.055   2.767   2.338
11719TIP3    H135100   8.128   2.707   2.325
11719TIP3    H235101   7.988   2.715   2.383
11720TIP3   OH235102   1.405   6.062   2.773
11720TIP3    H135103   1.379   6.003   2.702
11720TIP3    H235104   1.352   6.033   2.848
11721TIP3   OH235105   7.720   6.336   0.447
11721TIP3    H135106   7.760   6.265   0.396
11721TIP3    H235107   7.633   6.303   0.469
11722TIP3   OH235108   0.890   2.584  -0.028
11722TIP3    H135109   0.884   2.679  -0.027
11722TIP3    H235110   0.888   2.559   0.065
11723TIP3   OH235111   5.932   2.848   5.979
11723TIP3    H135112   5.858   2.793   6.006
11723TIP3    H235113   5.899   2.937   5.985
11724TIP3   OH235114   4.990   0.151   0.213
11724TIP3    H135115   5.020   0.239   0.238
11724TIP3    H235116   5.056   0.092   0.249
11725TIP3   OH235117   0.797   7.420   3.620
11725TIP3    H135118   0.706   7.426   3.591
11725TIP3    H235119   0.795   7.355   3.691
11726TIP3   OH235120   2.096   1.377   0.709
11726TIP3    H135121   2.146   1.303   0.673
11726TIP3    H235122   2.163   1.441   0.735
11727TIP3   OH235123   1.223   7.118   0.718
11727TIP3    H135124   1.252   7.199   0.676
11727TIP3    H235125   1.284   7.104   0.790
11728TIP3   OH235126   3.096   5.402   0.886
11728TIP3    H135127   3.081   5.307   0.884
11728TIP3    H235128   3.086   5.426   0.978
11729TIP3   OH235129   7.920   5.482   3.398
11729TIP3    H135130   7.990   5.546   3.406
11729TIP3    H235131   7.889   5.491   3.308
11730TIP3   OH235132   2.031   3.510   1.717
11730TIP3    H135133   2.070   3.494   1.804
11730TIP3    H235134   1.959   3.447   1.712
11731TIP3   OH235135   3.636   0.488   3.704
11731TIP3    H135136   3.720   0.523   3.735
11731TIP3    H235137   3.594   0.563   3.661
11732TIP3   OH235138   4.229   2.567   5.519
11732TIP3    H135139   4.244   2.560   5.425
11732TIP3    H235140   4.158   2.505   5.537
11733TIP3   OH235141   3.522   1.561   4.647
11733TIP3    H135142   3.443   1.613   4.630
11733TIP3    H235143   3.514   1.486   4.589
11734TIP3   OH235144   4.746   3.047   5.435
11734TIP3    H135145   4.771   3.112   5.370
11734TIP3    H235146   4.815   3.053   5.502
11735TIP3   OH235147   6.814   0.270   0.866
11735TIP3    H135148   6.895   0.221   0.881
11735TIP3    H235149   6.752   0.234   0.929
11736TIP3   OH235150   0.390   2.540   2.445
11736TIP3    H135151   0.461   2.542   2.381
11736TIP3    H235152   0.432   2.516   2.528
11737TIP3   OH235153   1.531   1.060   4.417
11737TIP3    H135154   1.494   0.980   4.454
11737TIP3    H235155   1.516   1.126   4.485
11738TIP3   OH235156   3.762   6.531   4.886
11738TIP3    H135157   3.780   6.445   4.924
11738TIP3    H235158   3.818   6.591   4.934
11739TIP3   OH235159   7.061   5.409   6.562
11739TIP3    H135160   7.110   5.444   6.487
11739TIP3    H235161   7.028   5.325   6.532
11740TIP3   OH235162   1.576   7.416   2.216
11740TIP3    H135163   1.529   7.388   2.295
11740TIP3    H235164   1.532   7.371   2.145
11741TIP3   OH235165   7.785   3.142   3.491
11741TIP3    H135166   7.761   3.079   3.422
11741TIP3    H235167   7.868   3.109   3.525
11742TIP3   OH235168   6.331   2.529   6.089
11742TIP3    H135169   6.273   2.567   6.024
11742TIP3    H235170   6.339   2.596   6.157
11743TIP3   OH235171   1.418   0.606   5.962
11743TIP3    H135172   1.435   0.543   6.032
11743TIP3    H235173   1.472   0.682   5.984
11744TIP3   OH235174   6.750   4.527  -0.015
11744TIP3    H135175   6.702   4.446  -0.033
11744TIP3    H235176   6.791   4.512   0.070
11745TIP3   OH235177   3.103   6.630   1.347
11745TIP3    H135178   3.176   6.688   1.369
11745TIP3    H235179   3.093   6.574   1.425
11746TIP3   OH235180   0.820   7.663   3.181
11746TIP3    H135181   0.795   7.754   3.162
11746TIP3    H235182   0.737   7.618   3.193
11747TIP3   OH235183   5.362   0.277   6.396
11747TIP3    H135184   5.366   0.339   6.469
11747TIP3    H235185   5.450   0.239   6.393
11748TIP3   OH235186   7.557   4.758   4.065
11748TIP3    H135187   7.462   4.771   4.070
11748TIP3    H235188   7.586   4.821   3.999
11749TIP3   OH235189   3.737   6.168   6.738
11749TIP3    H135190   3.758   6.155   6.646
11749TIP3    H235191   3.742   6.263   6.750
11750TIP3   OH235192   6.360   3.131   4.306
11750TIP3    H135193   6.447   3.092   4.316
11750TIP3    H235194   6.313   3.102   4.384
11751TIP3   OH235195   0.847   2.340   1.632
11751TIP3    H135196   0.827   2.361   1.541
11751TIP3    H235197   0.877   2.249   1.630
11752TIP3   OH235198   5.870   4.926   4.226
11752TIP3    H135199   5.962   4.906   4.241
11752TIP3    H235200   5.863   5.020   4.243
11753TIP3   OH235201   3.071   4.281   5.966
11753TIP3    H135202   3.060   4.356   6.025
11753TIP3    H235203   2.982   4.264   5.933
11754TIP3   OH235204   2.571   7.765   2.832
11754TIP3    H135205   2.543   7.680   2.867
11754TIP3    H235206   2.657   7.780   2.870
11755TIP3   OH235207   1.966   7.399   3.749
11755TIP3    H135208   2.053   7.362   3.739
11755TIP3    H235209   1.934   7.365   3.832
11756TIP3   OH235210   0.264   5.244   1.927
11756TIP3    H135211   0.285   5.203   2.011
11756TIP3    H235212   0.170   5.229   1.916
11757TIP3   OH235213   2.742   4.695   2.546
11757TIP3    H135214   2.735   4.605   2.578
11757TIP3    H235215   2.672   4.702   2.481
11758TIP3   OH235216   4.831   1.286   3.659
11758TIP3    H135217   4.741   1.305   3.631
11758TIP3    H235218   4.876   1.259   3.578
11759TIP3   OH235219   2.771   5.194   1.123
11759TIP3    H135220   2.767   5.239   1.039
11759TIP3    H235221   2.680   5.181   1.148
11760TIP3   OH235222   7.338   4.788   4.383
11760TIP3    H135223   7.373   4.812   4.297
11760TIP3    H235224   7.397   4.721   4.415
11761TIP3   OH235225   4.711   7.017   5.424
11761TIP3    H135226   4.678   7.079   5.489
11761TIP3    H235227   4.650   6.943   5.427
11762TIP3   OH235228   2.479   2.080   5.552
11762TIP3    H135229   2.561   2.051   5.592
11762TIP3    H235230   2.504   2.108   5.464
11763TIP3   OH235231   4.437   4.730   5.701
11763TIP3    H135232   4.360   4.786   5.697
11763TIP3    H235233   4.407   4.645   5.669
11764TIP3   OH235234   5.672   4.483   3.623
11764TIP3    H135235   5.669   4.557   3.684
11764TIP3    H235236   5.683   4.524   3.537
11765TIP3   OH235237   7.852   1.510   1.600
11765TIP3    H135238   7.869   1.552   1.515
11765TIP3    H235239   7.912   1.436   1.603
11766TIP3   OH235240   1.903   5.795   4.838
11766TIP3    H135241   1.817   5.773   4.803
11766TIP3    H235242   1.962   5.729   4.801
11767TIP3   OH235243   7.461   7.066   4.201
11767TIP3    H135244   7.551   7.088   4.178
11767TIP3    H235245   7.408   7.110   4.135
11768TIP3   OH235246   3.296   6.849   5.163
11768TIP3    H135247   3.305   6.765   5.209
11768TIP3    H235248   3.230   6.834   5.096
11769TIP3   OH235249   2.583   6.811   3.138
11769TIP3    H135250   2.613   6.875   3.202
11769TIP3    H235251   2.653   6.747   3.132
11770TIP3   OH235252   3.370   7.302   0.516
11770TIP3    H135253   3.385   7.212   0.489
11770TIP3    H235254   3.426   7.354   0.459
11771TIP3   OH235255   3.052   0.504   5.480
11771TIP3    H135256   3.042   0.594   5.450
11771TIP3    H235257   3.080   0.512   5.571
11772TIP3   OH235258   2.568   5.038   5.624
11772TIP3    H135259   2.588   5.094   5.699
11772TIP3    H235260   2.538   5.100   5.556
11773TIP3   OH235261   5.192   3.742   5.851
11773TIP3    H135262   5.113   3.767   5.901
11773TIP3    H235263   5.158   3.699   5.773
11774TIP3   OH235264   3.823   7.244   4.159
11774TIP3    H135265   3.842   7.338   4.162
11774TIP3    H235266   3.731   7.238   4.133
11775TIP3   OH235267   1.744   3.193   4.443
11775TIP3    H135268   1.708   3.275   4.477
11775TIP3    H235269   1.803   3.220   4.373
11776TIP3   OH235270   2.177   6.389   0.618
11776TIP3    H135271   2.173   6.469   0.566
11776TIP3    H235272   2.089   6.381   0.656
11777TIP3   OH235273   0.444   0.964   1.319
11777TIP3    H135274   0.519   0.926   1.274
11777TIP3    H235275   0.425   0.904   1.391
11778TIP3   OH235276   4.953   0.788   0.202
11778TIP3    H135277   4.955   0.745   0.116
11778TIP3    H235278   4.923   0.720   0.263
11779TIP3   OH235279   2.135   2.809   5.081
11779TIP3    H135280   2.186   2.845   5.154
11779TIP3    H235281   2.145   2.872   5.010
11780TIP3   OH235282   2.403   3.269   2.402
11780TIP3    H135283   2.340   3.319   2.350
11780TIP3    H235284   2.473   3.248   2.341
11781TIP3   OH235285   8.144   7.429   6.088
11781TIP3    H135286   8.069   7.438   6.147
11781TIP3    H235287   8.108   7.449   6.001
11782TIP3   OH235288   3.356   3.341   1.993
11782TIP3    H135289   3.364   3.382   1.907
11782TIP3    H235290   3.419   3.388   2.047
11783TIP3   OH235291   5.183   6.537   1.692
11783TIP3    H135292   5.139   6.537   1.778
11783TIP3    H235293   5.150   6.459   1.649
11784TIP3   OH235294   2.256   7.820   2.424
11784TIP3    H135295   2.315   7.802   2.497
11784TIP3    H235296   2.204   7.740   2.415
11785TIP3   OH235297   3.033   1.666   4.978
11785TIP3    H135298   3.104   1.604   4.998
11785TIP3    H235299   2.966   1.646   5.043
11786TIP3   OH235300   1.081   4.795   6.473
11786TIP3    H135301   1.138   4.849   6.418
11786TIP3    H235302   1.138   4.727   6.508
11787TIP3   OH235303   6.339   4.772   1.609
11787TIP3    H135304   6.285   4.850   1.597
11787TIP3    H235305   6.420   4.792   1.562
11788TIP3   OH235306   5.685   1.369   1.099
11788TIP3    H135307   5.744   1.441   1.078
11788TIP3    H235308   5.678   1.319   1.018
11789TIP3   OH235309   7.618   3.149   4.909
11789TIP3    H135310   7.592   3.217   4.971
11789TIP3    H235311   7.546   3.146   4.845
11790TIP3   OH235312   6.382   0.246   5.726
11790TIP3    H135313   6.398   0.265   5.634
11790TIP3    H235314   6.296   0.284   5.744
11791TIP3   OH235315   2.222   5.475   1.858
11791TIP3    H135316   2.298   5.434   1.900
11791TIP3    H235317   2.153   5.409   1.863
11792TIP3   OH235318   6.975   7.037   0.711
11792TIP3    H135319   6.888   6.998   0.721
11792TIP3    H235320   6.963   7.129   0.732
11793TIP3   OH235321   2.041   6.058   6.496
11793TIP3    H135322   2.114   6.113   6.527
11793TIP3    H235323   2.019   6.002   6.570
11794TIP3   OH235324   2.990   0.494   6.505
11794TIP3    H135325   3.060   0.469   6.564
11794TIP3    H235326   2.965   0.412   6.461
11795TIP3   OH235327   7.902   4.841   0.284
11795TIP3    H135328   7.819   4.886   0.265
11795TIP3    H235329   7.894   4.814   0.376
11796TIP3   OH235330   2.077   5.821   4.251
11796TIP3    H135331   2.118   5.742   4.287
11796TIP3    H235332   2.026   5.790   4.177
11797TIP3   OH235333   6.105   4.755   4.557
11797TIP3    H135334   6.150   4.674   4.580
11797TIP3    H235335   6.155   4.824   4.600
11798TIP3   OH235336   0.163   0.067   0.224
11798TIP3    H135337   0.211   0.087   0.305
11798TIP3    H235338   0.128  -0.021   0.238
11799TIP3   OH235339   6.737   3.533   5.144
11799TIP3    H135340   6.666   3.564   5.200
11799TIP3    H235341   6.693   3.494   5.069
11800TIP3   OH235342   6.106   2.779   6.745
11800TIP3    H135343   6.029   2.722   6.732
11800TIP3    H235344   6.178   2.718   6.758
11801TIP3   OH235345   2.763   2.270   4.500
11801TIP3    H135346   2.688   2.295   4.446
11801TIP3    H235347   2.822   2.345   4.496
11802TIP3   OH235348   8.048   1.459   2.421
11802TIP3    H135349   8.051   1.365   2.438
11802TIP3    H235350   8.132   1.492   2.453
11803TIP3   OH235351   0.085   1.952   4.859
11803TIP3    H135352   0.159   1.902   4.825
11803TIP3    H235353   0.067   2.017   4.791
11804TIP3   OH235354   4.147   2.560   0.132
11804TIP3    H135355   4.079   2.596   0.190
11804TIP3    H235356   4.226   2.609   0.154
11805TIP3   OH235357   1.493   3.569   1.132
11805TIP3    H135358   1.411   3.548   1.176
11805TIP3    H235359   1.512   3.659   1.158
11806TIP3   OH235360   3.985   4.668   1.419
11806TIP3    H135361   3.981   4.604   1.490
11806TIP3    H235362   3.947   4.623   1.343
11807TIP3   OH235363   6.290   2.004   4.210
11807TIP3    H135364   6.272   2.073   4.275
11807TIP3    H235365   6.294   1.923   4.262
11808TIP3   OH235366   3.216   0.070   4.228
11808TIP3    H135367   3.250   0.077   4.139
11808TIP3    H235368   3.266   0.133   4.279
11809TIP3   OH235369   0.918   3.063   2.610
11809TIP3    H135370   0.945   3.154   2.600
11809TIP3    H235371   0.933   3.024   2.523
11810TIP3   OH235372   3.741   5.475   5.170
11810TIP3    H135373   3.675   5.519   5.118
11810TIP3    H235374   3.797   5.545   5.203
11811TIP3   OH235375   5.310   2.081   5.008
11811TIP3    H135376   5.300   2.095   4.914
11811TIP3    H235377   5.308   1.986   5.019
11812TIP3   OH235378   6.302   3.026   0.080
11812TIP3    H135379   6.212   3.021   0.047
11812TIP3    H235380   6.299   2.981   0.164
11813TIP3   OH235381   4.498   5.276   3.544
11813TIP3    H135382   4.546   5.342   3.494
11813TIP3    H235383   4.455   5.222   3.478
11814TIP3   OH235384   1.549   3.832   1.181
11814TIP3    H135385   1.635   3.807   1.147
11814TIP3    H235386   1.552   3.810   1.273
11815TIP3   OH235387   0.063   5.392   2.935
11815TIP3    H135388  -0.030   5.410   2.945
11815TIP3    H235389   0.073   5.301   2.962
11816TIP3   OH235390   3.207   1.681   0.166
11816TIP3    H135391   3.290   1.711   0.128
11816TIP3    H235392   3.194   1.737   0.242
11817TIP3   OH235393   3.310   7.140   2.998
11817TIP3    H135394   3.340   7.134   2.907
11817TIP3    H235395   3.291   7.049   3.022
11818TIP3   OH235396   1.573   1.008   5.228
11818TIP3    H135397   1.539   0.997   5.139
11818TIP3    H235398   1.562   1.101   5.246
11819TIP3   OH235399   5.208   7.508   2.958
11819TIP3    H135400   5.236   7.417   2.963
11819TIP3    H235401   5.286   7.556   2.931
11820TIP3   OH235402   6.915   4.268   3.295
11820TIP3    H135403   6.941   4.359   3.280
11820TIP3    H235404   6.824   4.273   3.324
11821TIP3   OH235405   5.788   5.397   3.931
11821TIP3    H135406   5.803   5.316   3.979
11821TIP3    H235407   5.729   5.447   3.987
11822TIP3   OH235408   7.745   0.167   4.422
11822TIP3    H135409   7.773   0.254   4.397
11822TIP3    H235410   7.716   0.126   4.340
11823TIP3   OH235411   4.161   1.865   0.365
11823TIP3    H135412   4.168   1.850   0.270
11823TIP3    H235413   4.091   1.806   0.393
11824TIP3   OH235414   1.362   2.977   2.113
11824TIP3    H135415   1.329   3.054   2.066
11824TIP3    H235416   1.432   2.943   2.057
11825TIP3   OH235417   0.084   3.268   2.973
11825TIP3    H135418  -0.008   3.285   2.958
11825TIP3    H235419   0.110   3.210   2.901
11826TIP3   OH235420   5.043   7.555   0.698
11826TIP3    H135421   5.065   7.465   0.724
11826TIP3    H235422   5.091   7.611   0.759
11827TIP3   OH235423   0.151   1.796   3.396
11827TIP3    H135424   0.213   1.841   3.339
11827TIP3    H235425   0.196   1.715   3.421
11828TIP3   OH235426   1.351   6.991   5.214
11828TIP3    H135427   1.345   6.897   5.227
11828TIP3    H235428   1.413   7.021   5.281
11829TIP3   OH235429   7.333   3.222   2.104
11829TIP3    H135430   7.380   3.169   2.168
11829TIP3    H235431   7.363   3.311   2.118
11830TIP3   OH235432   3.410   6.315   2.211
11830TIP3    H135433   3.422   6.384   2.277
11830TIP3    H235434   3.334   6.343   2.161
11831TIP3   OH235435   8.200   0.462   4.827
11831TIP3    H135436   8.241   0.513   4.896
11831TIP3    H235437   8.270   0.407   4.792
11832TIP3   OH235438   0.038   4.802   1.194
11832TIP3    H135439   0.132   4.811   1.209
11832TIP3    H235440   0.025   4.836   1.105
11833TIP3   OH235441   8.212   2.768   0.633
11833TIP3    H135442   8.196   2.750   0.726
11833TIP3    H235443   8.307   2.760   0.623
11834TIP3   OH235444   6.083   4.411   6.269
11834TIP3    H135445   6.154   4.380   6.326
11834TIP3    H235446   6.004   4.372   6.307
11835TIP3   OH235447   2.553   2.517   3.973
11835TIP3    H135448   2.472   2.488   4.015
11835TIP3    H235449   2.591   2.579   4.036
11836TIP3   OH235450   0.131   6.884   2.139
11836TIP3    H135451   0.162   6.807   2.092
11836TIP3    H235452   0.109   6.947   2.071
11837TIP3   OH235453   5.567   7.395   0.409
11837TIP3    H135454   5.529   7.343   0.338
11837TIP3    H235455   5.530   7.357   0.489
11838TIP3   OH235456   7.127   6.323   2.475
11838TIP3    H135457   7.077   6.375   2.537
11838TIP3    H235458   7.204   6.294   2.524
11839TIP3   OH235459   3.154   4.690   2.855
11839TIP3    H135460   3.166   4.691   2.760
11839TIP3    H235461   3.104   4.611   2.872
11840TIP3   OH235462   7.546   5.798   3.796
11840TIP3    H135463   7.591   5.855   3.859
11840TIP3    H235464   7.552   5.845   3.713
11841TIP3   OH235465   4.230   3.814   6.618
11841TIP3    H135466   4.227   3.840   6.526
11841TIP3    H235467   4.301   3.750   6.623
11842TIP3   OH235468   6.223   3.966   2.927
11842TIP3    H135469   6.153   3.901   2.934
11842TIP3    H235470   6.232   3.981   2.832
11843TIP3   OH235471   2.878   0.423   2.008
11843TIP3    H135472   2.862   0.387   2.095
11843TIP3    H235473   2.969   0.398   1.988
11844TIP3   OH235474   1.105   4.268   5.965
11844TIP3    H135475   1.015   4.236   5.966
11844TIP3    H235476   1.134   4.260   6.056
11845TIP3   OH235477   2.300   2.107   1.994
11845TIP3    H135478   2.330   2.047   2.062
11845TIP3    H235479   2.246   2.171   2.040
11846TIP3   OH235480   3.229   2.308   5.021
11846TIP3    H135481   3.243   2.325   5.114
11846TIP3    H235482   3.164   2.239   5.018
11847TIP3   OH235483   3.782   3.529   5.595
11847TIP3    H135484   3.777   3.480   5.512
11847TIP3    H235485   3.754   3.466   5.661
11848TIP3   OH235486   6.649   1.834   1.581
11848TIP3    H135487   6.626   1.747   1.614
11848TIP3    H235488   6.567   1.883   1.584
11849TIP3   OH235489   4.420   1.490   6.686
11849TIP3    H135490   4.339   1.517   6.729
11849TIP3    H235491   4.489   1.529   6.740
11850TIP3   OH235492   7.610  -0.001   5.472
11850TIP3    H135493   7.686  -0.038   5.429
11850TIP3    H235494   7.628   0.093   5.476
11851TIP3   OH235495   0.767   1.302   5.787
11851TIP3    H135496   0.730   1.380   5.748
11851TIP3    H235497   0.856   1.296   5.751
11852TIP3   OH235498   3.418   2.144   4.880
11852TIP3    H135499   3.385   2.200   4.810
11852TIP3    H235500   3.359   2.159   4.954
11853TIP3   OH235501   7.884   6.943   0.711
11853TIP3    H135502   7.870   6.946   0.616
11853TIP3    H235503   7.947   6.871   0.723
11854TIP3   OH235504   2.381   3.319   4.187
11854TIP3    H135505   2.361   3.362   4.270
11854TIP3    H235506   2.477   3.322   4.182
11855TIP3   OH235507   0.065   2.875   2.441
11855TIP3    H135508  -0.028   2.877   2.421
11855TIP3    H235509   0.108   2.885   2.356
11856TIP3   OH235510   0.897   4.821   1.514
11856TIP3    H135511   0.887   4.878   1.591
11856TIP3    H235512   0.951   4.749   1.545
11857TIP3   OH235513   1.179   0.952   5.834
11857TIP3    H135514   1.105   0.936   5.893
11857TIP3    H235515   1.146   1.017   5.772
11858TIP3   OH235516   1.064   7.413   2.387
11858TIP3    H135517   0.992   7.475   2.401
11858TIP3    H235518   1.101   7.438   2.302
11859TIP3   OH235519   6.151   0.187   5.382
11859TIP3    H135520   6.123   0.109   5.334
11859TIP3    H235521   6.194   0.152   5.460
11860TIP3   OH235522   5.724   0.039   1.270
11860TIP3    H135523   5.639   0.008   1.302
11860TIP3    H235524   5.776   0.053   1.350
11861TIP3   OH235525   2.680   2.491   5.214
11861TIP3    H135526   2.713   2.576   5.184
11861TIP3    H235527   2.705   2.430   5.145
11862TIP3   OH235528   3.897   3.582   4.964
11862TIP3    H135529   3.881   3.640   4.889
11862TIP3    H235530   3.841   3.507   4.948
11863TIP3   OH235531   6.875   6.794   6.566
11863TIP3    H135532   6.835   6.881   6.569
11863TIP3    H235533   6.806   6.735   6.597
11864TIP3   OH235534   2.954   3.425   6.631
11864TIP3    H135535   2.919   3.511   6.653
11864TIP3    H235536   3.002   3.398   6.710
11865TIP3   OH235537   3.627   0.448   2.007
11865TIP3    H135538   3.561   0.386   2.038
11865TIP3    H235539   3.671   0.478   2.087
11866TIP3   OH235540   0.416   2.235   1.179
11866TIP3    H135541   0.383   2.200   1.097
11866TIP3    H235542   0.511   2.225   1.173
11867TIP3   OH235543   4.497   5.153   1.598
11867TIP3    H135544   4.475   5.232   1.550
11867TIP3    H235545   4.489   5.178   1.690
11868TIP3   OH235546   0.669   7.494   3.940
11868TIP3    H135547   0.619   7.488   4.021
11868TIP3    H235548   0.659   7.585   3.912
11869TIP3   OH235549   5.724   2.942   6.640
11869TIP3    H135550   5.722   3.002   6.566
11869TIP3    H235551   5.764   2.862   6.605
11870TIP3   OH235552   4.302   4.336   2.209
11870TIP3    H135553   4.279   4.427   2.228
11870TIP3    H235554   4.218   4.291   2.201
11871TIP3   OH235555   1.183   5.098   1.429
11871TIP3    H135556   1.229   5.077   1.510
11871TIP3    H235557   1.182   5.193   1.426
11872TIP3   OH235558   1.627   4.739   3.051
11872TIP3    H135559   1.692   4.799   3.090
11872TIP3    H235560   1.640   4.748   2.957
11873TIP3   OH235561   5.210   2.163   3.724
11873TIP3    H135562   5.248   2.105   3.659
11873TIP3    H235563   5.117   2.140   3.725
11874TIP3   OH235564   2.410   4.773   2.105
11874TIP3    H135565   2.463   4.732   2.036
11874TIP3    H235566   2.458   4.754   2.186
11875TIP3   OH235567   2.136   7.458   1.975
11875TIP3    H135568   2.074   7.435   1.906
11875TIP3    H235569   2.206   7.506   1.930
11876TIP3   OH235570   7.055   3.663   5.097
11876TIP3    H135571   7.073   3.669   5.003
11876TIP3    H235572   7.100   3.739   5.135
11877TIP3   OH235573   3.857   4.837   0.374
11877TIP3    H135574   3.852   4.757   0.322
11877TIP3    H235575   3.767   4.852   0.404
11878TIP3   OH235576   6.728   5.872   5.259
11878TIP3    H135577   6.746   5.779   5.249
11878TIP3    H235578   6.667   5.894   5.188
11879TIP3   OH235579   1.917   2.646   6.557
11879TIP3    H135580   1.879   2.558   6.551
11879TIP3    H235581   1.949   2.663   6.468
11880TIP3   OH235582   1.011   2.103   0.783
11880TIP3    H135583   0.959   2.167   0.734
11880TIP3    H235584   1.099   2.111   0.747
11881TIP3   OH235585   0.150   4.359   1.443
11881TIP3    H135586   0.171   4.452   1.442
11881TIP3    H235587   0.055   4.356   1.433
11882TIP3   OH235588   4.516   1.821   6.059
11882TIP3    H135589   4.525   1.782   6.146
11882TIP3    H235590   4.605   1.822   6.024
11883TIP3   OH235591   2.277   7.451   2.872
11883TIP3    H135592   2.215   7.415   2.936
11883TIP3    H235593   2.317   7.374   2.832
11884TIP3   OH235594   1.766   2.832   3.019
11884TIP3    H135595   1.770   2.737   3.031
11884TIP3    H235596   1.856   2.857   2.997
11885TIP3   OH235597   2.450   0.138   4.731
11885TIP3    H135598   2.523   0.126   4.791
11885TIP3    H235599   2.444   0.055   4.684
11886TIP3   OH235600   5.805   3.309   1.922
11886TIP3    H135601   5.718   3.310   1.883
11886TIP3    H235602   5.862   3.276   1.853
11887TIP3   OH235603   4.087   1.759   4.077
11887TIP3    H135604   4.178   1.773   4.054
11887TIP3    H235605   4.045   1.843   4.058
11888TIP3   OH235606   2.189   2.979   1.699
11888TIP3    H135607   2.149   2.894   1.717
11888TIP3    H235608   2.118   3.032   1.664
11889TIP3   OH235609   5.629   5.050   3.196
11889TIP3    H135610   5.669   5.129   3.159
11889TIP3    H235611   5.676   5.035   3.278
11890TIP3   OH235612   6.024   7.627   6.112
11890TIP3    H135613   6.052   7.605   6.201
11890TIP3    H235614   6.016   7.542   6.067
11891TIP3   OH235615   0.191   3.605   2.560
11891TIP3    H135616   0.101   3.572   2.554
11891TIP3    H235617   0.208   3.612   2.654
11892TIP3   OH235618   3.293   5.861   4.610
11892TIP3    H135619   3.256   5.773   4.600
11892TIP3    H235620   3.222   5.913   4.648
11893TIP3   OH235621   2.348   3.861   4.684
11893TIP3    H135622   2.269   3.876   4.736
11893TIP3    H235623   2.420   3.892   4.740
11894TIP3   OH235624   5.850   0.067   2.974
11894TIP3    H135625   5.775   0.052   2.917
11894TIP3    H235626   5.817   0.125   3.042
11895TIP3   OH235627   6.994   7.515   3.590
11895TIP3    H135628   6.911   7.478   3.559
11895TIP3    H235629   7.033   7.446   3.643
11896TIP3   OH235630   7.054   7.303   4.519
11896TIP3    H135631   6.967   7.328   4.550
11896TIP3    H235632   7.115   7.349   4.578
11897TIP3   OH235633   4.992   5.082   4.777
11897TIP3    H135634   5.052   5.023   4.732
11897TIP3    H235635   5.016   5.074   4.870
11898TIP3   OH235636   1.977   6.210   2.791
11898TIP3    H135637   1.997   6.267   2.717
11898TIP3    H235638   1.882   6.200   2.788
11899TIP3   OH235639   5.582   3.715   2.004
11899TIP3    H135640   5.593   3.663   2.083
11899TIP3    H235641   5.669   3.749   1.985
11900TIP3   OH235642   3.980   2.873   4.341
11900TIP3    H135643   4.045   2.866   4.271
11900TIP3    H235644   4.002   2.801   4.401
11901TIP3   OH235645   7.346   1.550   2.525
11901TIP3    H135646   7.353   1.525   2.433
11901TIP3    H235647   7.382   1.639   2.529
11902TIP3   OH235648   7.311   3.168   5.030
11902TIP3    H135649   7.321   3.202   4.941
11902TIP3    H235650   7.242   3.102   5.022
11903TIP3   OH235651   6.882   1.979   6.626
11903TIP3    H135652   6.949   1.919   6.660
11903TIP3    H235653   6.849   1.936   6.547
11904TIP3   OH235654   2.583   6.191   6.032
11904TIP3    H135655   2.661   6.241   6.008
11904TIP3    H235656   2.602   6.102   6.004
11905TIP3   OH235657   1.293   6.731   5.284
11905TIP3    H135658   1.295   6.637   5.305
11905TIP3    H235659   1.237   6.769   5.352
11906TIP3   OH235660   2.375   1.547   1.957
11906TIP3    H135661   2.306   1.529   2.021
11906TIP3    H235662   2.338   1.615   1.901
11907TIP3   OH235663   1.110   0.094   3.009
11907TIP3    H135664   1.022   0.116   3.040
11907TIP3    H235665   1.162   0.085   3.089
11908TIP3   OH235666   5.895   2.685   1.449
11908TIP3    H135667   5.882   2.774   1.482
11908TIP3    H235668   5.960   2.646   1.507
11909TIP3   OH235669   3.099   4.873   0.820
11909TIP3    H135670   3.070   4.843   0.907
11909TIP3    H235671   3.089   4.796   0.764
11910TIP3   OH235672   6.623   1.862   4.473
11910TIP3    H135673   6.537   1.887   4.506
11910TIP3    H235674   6.606   1.791   4.412
11911TIP3   OH235675   6.011   6.856   4.216
11911TIP3    H135676   6.054   6.780   4.257
11911TIP3    H235677   6.043   6.855   4.126
11912TIP3   OH235678   0.644   5.874   4.007
11912TIP3    H135679   0.644   5.853   3.913
11912TIP3    H235680   0.668   5.967   4.010
11913TIP3   OH235681   7.451   3.382   1.900
11913TIP3    H135682   7.402   3.426   1.969
11913TIP3    H235683   7.388   3.324   1.858
11914TIP3   OH235684   5.603   7.645   0.356
11914TIP3    H135685   5.603   7.679   0.445
11914TIP3    H235686   5.574   7.554   0.366
11915TIP3   OH235687   2.988   2.780   3.400
11915TIP3    H135688   2.981   2.690   3.431
11915TIP3    H235689   2.970   2.833   3.478
11916TIP3   OH235690   5.642   6.257   4.051
11916TIP3    H135691   5.636   6.333   4.109
11916TIP3    H235692   5.732   6.225   4.063
11917TIP3   OH235693   7.148   2.916   5.688
11917TIP3    H135694   7.210   2.968   5.637
11917TIP3    H235695   7.072   2.906   5.631
11918TIP3   OH235696   4.948   1.774   1.851
11918TIP3    H135697   4.872   1.749   1.799
11918TIP3    H235698   4.914   1.797   1.937
11919TIP3   OH235699   3.905   3.653   4.159
11919TIP3    H135700   3.830   3.598   4.138
11919TIP3    H235701   3.981   3.605   4.125
11920TIP3   OH235702   7.604   2.854   4.187
11920TIP3    H135703   7.621   2.864   4.281
11920TIP3    H235704   7.690   2.857   4.147
11921TIP3   OH235705   1.418   3.781   3.917
11921TIP3    H135706   1.425   3.875   3.897
11921TIP3    H235707   1.454   3.737   3.840
11922TIP3   OH235708   0.883   5.783   5.756
11922TIP3    H135709   0.860   5.744   5.672
11922TIP3    H235710   0.949   5.850   5.734
11923TIP3   OH235711   7.467   5.082   5.010
11923TIP3    H135712   7.538   5.027   5.042
11923TIP3    H235713   7.510   5.153   4.963
11924TIP3   OH235714   5.871   6.424   2.020
11924TIP3    H135715   5.955   6.452   2.057
11924TIP3    H235716   5.860   6.334   2.051
11925TIP3   OH235717   0.613   0.881   2.472
11925TIP3    H135718   0.675   0.815   2.501
11925TIP3    H235719   0.527   0.842   2.486
11926TIP3   OH235720   1.515   1.326   5.522
11926TIP3    H135721   1.498   1.333   5.616
11926TIP3    H235722   1.525   1.417   5.493
11927TIP3   OH235723   5.304   2.195   6.510
11927TIP3    H135724   5.233   2.137   6.484
11927TIP3    H235725   5.310   2.185   6.605
11928TIP3   OH235726   3.055   6.011   1.312
11928TIP3    H135727   2.964   6.026   1.338
11928TIP3    H235728   3.102   6.087   1.346
11929TIP3   OH235729   6.236   7.134   3.769
11929TIP3    H135730   6.310   7.105   3.716
11929TIP3    H235731   6.263   7.119   3.859
11930TIP3   OH235732   0.582   5.086   6.703
11930TIP3    H135733   0.536   5.149   6.757
11930TIP3    H235734   0.574   5.120   6.614
11931TIP3   OH235735   2.748   5.139   2.967
11931TIP3    H135736   2.693   5.167   3.040
11931TIP3    H235737   2.731   5.045   2.958
11932TIP3   OH235738   6.248   6.640   5.660
11932TIP3    H135739   6.321   6.669   5.605
11932TIP3    H235740   6.236   6.710   5.724
11933TIP3   OH235741   0.552   5.372   4.863
11933TIP3    H135742   0.571   5.321   4.942
11933TIP3    H235743   0.571   5.312   4.791
11934TIP3   OH235744   0.999   1.424   3.299
11934TIP3    H135745   0.938   1.442   3.227
11934TIP3    H235746   0.946   1.377   3.364
11935TIP3   OH235747   3.614   1.407   0.975
11935TIP3    H135748   3.689   1.454   0.939
11935TIP3    H235749   3.637   1.391   1.066
11936TIP3   OH235750   0.149   4.974   3.203
11936TIP3    H135751   0.055   4.958   3.205
11936TIP3    H235752   0.160   5.062   3.240
11937TIP3   OH235753   0.132   1.091   2.237
11937TIP3    H135754   0.158   1.183   2.238
11937TIP3    H235755   0.158   1.060   2.150
11938TIP3   OH235756   6.791   1.008   6.203
11938TIP3    H135757   6.844   1.079   6.168
11938TIP3    H235758   6.713   1.052   6.239
11939TIP3   OH235759   0.599   7.635   0.957
11939TIP3    H135760   0.562   7.722   0.948
11939TIP3    H235761   0.686   7.649   0.994
11940TIP3   OH235762   6.250   4.583   5.571
11940TIP3    H135763   6.316   4.613   5.634
11940TIP3    H235764   6.167   4.601   5.614
11941TIP3   OH235765   3.199   6.851   3.026
11941TIP3    H135766   3.182   6.835   3.118
11941TIP3    H235767   3.217   6.765   2.989
11942TIP3   OH235768   3.874   6.635   0.837
11942TIP3    H135769   3.850   6.551   0.797
11942TIP3    H235770   3.942   6.612   0.900
11943TIP3   OH235771   7.792   1.687   6.576
11943TIP3    H135772   7.792   1.665   6.483
11943TIP3    H235773   7.812   1.605   6.620
11944TIP3   OH235774   6.791   3.392   1.148
11944TIP3    H135775   6.734   3.341   1.090
11944TIP3    H235776   6.795   3.341   1.229
11945TIP3   OH235777   0.238   3.005   0.862
11945TIP3    H135778   0.166   2.954   0.900
11945TIP3    H235779   0.295   2.940   0.822
11946TIP3   OH235780   2.696   3.788   2.064
11946TIP3    H135781   2.736   3.779   2.150
11946TIP3    H235782   2.769   3.776   2.002
11947TIP3   OH235783   1.165   3.382   5.686
11947TIP3    H135784   1.178   3.291   5.712
11947TIP3    H235785   1.192   3.384   5.594
11948TIP3   OH235786   0.938   6.137   3.155
11948TIP3    H135787   0.896   6.219   3.180
11948TIP3    H235788   0.932   6.135   3.059
11949TIP3   OH235789   3.929   1.334   1.073
11949TIP3    H135790   3.976   1.417   1.079
11949TIP3    H235791   3.856   1.344   1.135
11950TIP3   OH235792   6.082   3.615   3.210
11950TIP3    H135793   6.058   3.552   3.278
11950TIP3    H235794   6.055   3.700   3.246
11951TIP3   OH235795   6.438   0.687   5.137
11951TIP3    H135796   6.504   0.639   5.188
11951TIP3    H235797   6.358   0.635   5.146
11952TIP3   OH235798   2.361   6.887   2.645
11952TIP3    H135799   2.398   6.855   2.728
11952TIP3    H235800   2.270   6.907   2.665
11953TIP3   OH235801   1.325   2.048   2.852
11953TIP3    H135802   1.245   1.997   2.852
11953TIP3    H235803   1.352   2.051   2.944
11954TIP3   OH235804   1.218   1.503   3.489
11954TIP3    H135805   1.149   1.453   3.446
11954TIP3    H235806   1.191   1.595   3.479
11955TIP3   OH235807   6.370   1.280   6.438
11955TIP3    H135808   6.290   1.304   6.392
11955TIP3    H235809   6.375   1.185   6.431
11956TIP3   OH235810   0.745   3.438   5.966
11956TIP3    H135811   0.656   3.408   5.984
11956TIP3    H235812   0.801   3.380   6.018
11957TIP3   OH235813   5.958   0.090   1.682
11957TIP3    H135814   5.952   0.002   1.721
11957TIP3    H235815   6.031   0.131   1.728
11958TIP3   OH235816   3.290   1.695   4.578
11958TIP3    H135817   3.272   1.776   4.625
11958TIP3    H235818   3.203   1.659   4.558
11959TIP3   OH235819   4.537   3.388   6.655
11959TIP3    H135820   4.514   3.309   6.606
11959TIP3    H235821   4.551   3.357   6.745
11960TIP3   OH235822   3.557   7.328   4.956
11960TIP3    H135823   3.476   7.291   4.991
11960TIP3    H235824   3.531   7.411   4.916
11961TIP3   OH235825   0.922   0.618   1.443
11961TIP3    H135826   0.851   0.557   1.463
11961TIP3    H235827   0.901   0.652   1.356
11962TIP3   OH235828   6.707   2.943   4.823
11962TIP3    H135829   6.618   2.964   4.793
11962TIP3    H235830   6.696   2.863   4.874
11963TIP3   OH235831   3.778   4.937   6.296
11963TIP3    H135832   3.684   4.948   6.282
11963TIP3    H235833   3.804   5.016   6.344
11964TIP3   OH235834   2.308   6.774   5.092
11964TIP3    H135835   2.328   6.685   5.121
11964TIP3    H235836   2.348   6.780   5.005
11965TIP3   OH235837   7.809   5.420   4.251
11965TIP3    H135838   7.841   5.335   4.280
11965TIP3    H235839   7.802   5.472   4.331
11966TIP3   OH235840   6.424   7.556   2.629
11966TIP3    H135841   6.488   7.486   2.638
11966TIP3    H235842   6.432   7.585   2.539
11967TIP3   OH235843   2.202   5.299   6.376
11967TIP3    H135844   2.114   5.334   6.363
11967TIP3    H235845   2.231   5.337   6.459
11968TIP3   OH235846   2.989   3.685   3.904
11968TIP3    H135847   3.061   3.625   3.920
11968TIP3    H235848   2.993   3.703   3.810
11969TIP3   OH235849   3.111   4.782   3.615
11969TIP3    H135850   3.062   4.799   3.696
11969TIP3    H235851   3.045   4.751   3.553
11970TIP3   OH235852   2.288   5.377   2.741
11970TIP3    H135853   2.215   5.418   2.786
11970TIP3    H235854   2.366   5.420   2.778
11971TIP3   OH235855   6.858   5.031   6.523
11971TIP3    H135856   6.824   5.036   6.613
11971TIP3    H235857   6.952   5.017   6.533
11972TIP3   OH235858   4.094   0.824   5.075
11972TIP3    H135859   4.037   0.900   5.076
11972TIP3    H235860   4.182   0.860   5.068
11973TIP3   OH235861   0.960   5.283   3.818
11973TIP3    H135862   0.892   5.278   3.751
11973TIP3    H235863   0.972   5.377   3.833
11974TIP3   OH235864   3.206   4.961   6.070
11974TIP3    H135865   3.206   4.867   6.087
11974TIP3    H235866   3.179   5.001   6.153
11975TIP3   OH235867   3.521   4.936   6.147
11975TIP3    H135868   3.498   4.883   6.071
11975TIP3    H235869   3.445   4.928   6.206
11976TIP3   OH235870   0.502   5.893   2.640
11976TIP3    H135871   0.477   5.948   2.714
11976TIP3    H235872   0.530   5.954   2.573
11977TIP3   OH235873   3.763   4.260   2.867
11977TIP3    H135874   3.673   4.242   2.893
11977TIP3    H235875   3.817   4.228   2.940
11978TIP3   OH235876  -0.008   2.715   0.091
11978TIP3    H135877   0.056   2.776   0.054
11978TIP3    H235878   0.043   2.660   0.150
11979TIP3   OH235879   1.266   2.267   3.302
11979TIP3    H135880   1.318   2.248   3.224
11979TIP3    H235881   1.329   2.264   3.374
11980TIP3   OH235882   1.274   4.334   4.022
11980TIP3    H135883   1.307   4.408   3.971
11980TIP3    H235884   1.243   4.272   3.956
11981TIP3   OH235885   2.895   3.941   1.805
11981TIP3    H135886   2.899   4.029   1.842
11981TIP3    H235887   2.986   3.917   1.790
11982TIP3   OH235888   7.844   0.429   0.773
11982TIP3    H135889   7.911   0.374   0.813
11982TIP3    H235890   7.811   0.483   0.845
11983TIP3   OH235891   2.477   3.327   4.959
11983TIP3    H135892   2.491   3.387   4.885
11983TIP3    H235893   2.565   3.309   4.992
11984TIP3   OH235894   1.680   6.248   2.303
11984TIP3    H135895   1.675   6.191   2.226
11984TIP3    H235896   1.718   6.329   2.270
11985TIP3   OH235897   2.562   3.961   2.411
11985TIP3    H135898   2.488   4.017   2.437
11985TIP3    H235899   2.592   3.921   2.492
11986TIP3   OH235900   7.938   7.690   6.522
11986TIP3    H135901   7.974   7.776   6.547
11986TIP3    H235902   7.969   7.676   6.433
11987TIP3   OH235903   0.492   1.638   4.465
11987TIP3    H135904   0.556   1.567   4.468
11987TIP3    H235905   0.409   1.595   4.445
11988TIP3   OH235906   2.760   0.384   3.567
11988TIP3    H135907   2.805   0.467   3.579
11988TIP3    H235908   2.829   0.318   3.571
11989TIP3   OH235909   0.214   4.012   1.164
11989TIP3    H135910   0.209   4.084   1.101
11989TIP3    H235911   0.149   4.034   1.230
11990TIP3   OH235912   2.060   7.769   5.391
11990TIP3    H135913   2.035   7.816   5.312
11990TIP3    H235914   1.977   7.758   5.439
11991TIP3   OH235915   2.288   7.192   4.015
11991TIP3    H135916   2.212   7.140   3.990
11991TIP3    H235917   2.353   7.173   3.947
11992TIP3   OH235918   4.585   0.137   3.671
11992TIP3    H135919   4.567   0.043   3.663
11992TIP3    H235920   4.614   0.148   3.762
11993TIP3   OH235921   8.056   2.950   1.720
11993TIP3    H135922   8.032   2.993   1.639
11993TIP3    H235923   8.002   2.992   1.787
11994TIP3   OH235924   0.733   2.341   1.952
11994TIP3    H135925   0.707   2.254   1.922
11994TIP3    H235926   0.671   2.363   2.021
11995TIP3   OH235927   1.790   6.653   1.905
11995TIP3    H135928   1.819   6.724   1.847
11995TIP3    H235929   1.798   6.690   1.993
11996TIP3   OH235930   7.072   1.039   6.067
11996TIP3    H135931   7.110   0.953   6.085
11996TIP3    H235932   7.139   1.102   6.092
11997TIP3   OH235933   1.045   2.488   0.785
11997TIP3    H135934   0.971   2.470   0.726
11997TIP3    H235935   1.004   2.513   0.868
11998TIP3   OH235936   1.332   6.496   5.407
11998TIP3    H135937   1.414   6.467   5.447
11998TIP3    H235938   1.264   6.451   5.458
11999TIP3   OH235939   2.979   5.294   6.411
11999TIP3    H135940   2.964   5.304   6.317
11999TIP3    H235941   3.015   5.378   6.439
12000TIP3   OH235942   6.210   1.508   4.729
12000TIP3    H135943   6.150   1.583   4.734
12000TIP3    H235944   6.285   1.534   4.782
12001TIP3   OH235945   0.287   5.217   4.307
12001TIP3    H135946   0.223   5.253   4.369
12001TIP3    H235947   0.304   5.129   4.339
12002TIP3   OH235948   2.829   5.106   6.086
12002TIP3    H135949   2.878   5.174   6.133
12002TIP3    H235950   2.760   5.079   6.146
12003TIP3   OH235951   7.401   7.473   6.095
12003TIP3    H135952   7.487   7.514   6.104
12003TIP3    H235953   7.415   7.402   6.032
12004TIP3   OH235954   3.518   7.064   4.492
12004TIP3    H135955   3.469   7.097   4.417
12004TIP3    H235956   3.476   7.106   4.568
12005TIP3   OH235957   1.871   2.692   5.380
12005TIP3    H135958   1.862   2.776   5.427
12005TIP3    H235959   1.957   2.660   5.406
12006TIP3   OH235960   1.128   5.249   2.732
12006TIP3    H135961   1.046   5.273   2.775
12006TIP3    H235962   1.122   5.287   2.645
12007TIP3   OH235963   0.872   0.067   5.158
12007TIP3    H135964   0.898   0.124   5.086
12007TIP3    H235965   0.954   0.044   5.202
12008TIP3   OH235966   6.583   4.532   4.815
12008TIP3    H135967   6.522   4.576   4.874
12008TIP3    H235968   6.548   4.549   4.727
12009TIP3   OH235969   5.674   2.013   5.163
12009TIP3    H135970   5.744   1.994   5.101
12009TIP3    H235971   5.595   1.977   5.123
12010TIP3   OH235972   1.985   3.590   0.904
12010TIP3    H135973   1.958   3.551   0.821
12010TIP3    H235974   1.966   3.523   0.969
12011TIP3   OH235975   6.145   4.772   3.361
12011TIP3    H135976   6.188   4.695   3.324
12011TIP3    H235977   6.096   4.738   3.436
12012TIP3   OH235978   3.222   6.679   4.695
12012TIP3    H135979   3.300   6.623   4.692
12012TIP3    H235980   3.244   6.753   4.638
12013TIP3   OH235981   6.271   7.061   4.981
12013TIP3    H135982   6.261   7.152   5.008
12013TIP3    H235983   6.335   7.025   5.043
12014TIP3   OH235984   1.710   1.708   3.755
12014TIP3    H135985   1.744   1.794   3.731
12014TIP3    H235986   1.762   1.647   3.702
12015TIP3   OH235987   4.891   6.288   5.359
12015TIP3    H135988   4.853   6.329   5.437
12015TIP3    H235989   4.867   6.347   5.288
12016TIP3   OH235990   7.547   3.295   3.833
12016TIP3    H135991   7.476   3.265   3.891
12016TIP3    H235992   7.617   3.231   3.848
12017TIP3   OH235993   4.388   7.664   2.944
12017TIP3    H135994   4.388   7.591   3.005
12017TIP3    H235995   4.464   7.649   2.888
12018TIP3   OH235996   1.580   6.575   4.897
12018TIP3    H135997   1.647   6.561   4.831
12018TIP3    H235998   1.520   6.638   4.858
12019TIP3   OH235999   4.262   2.419   0.459
12019TIP3    H136000   4.216   2.483   0.405
12019TIP3    H236001   4.333   2.468   0.500
12020TIP3   OH236002   4.921   3.956   1.448
12020TIP3    H136003   4.918   3.873   1.402
12020TIP3    H236004   4.829   3.984   1.454
12021TIP3   OH236005   6.244   5.151   1.090
12021TIP3    H136006   6.304   5.095   1.041
12021TIP3    H236007   6.297   5.187   1.161
12022TIP3   OH236008   7.485   0.571   6.296
12022TIP3    H136009   7.451   0.501   6.241
12022TIP3    H236010   7.461   0.546   6.385
12023TIP3   OH236011   0.499   0.807   6.366
12023TIP3    H136012   0.549   0.888   6.371
12023TIP3    H236013   0.562   0.741   6.337
12024TIP3   OH236014   7.240   7.012   5.042
12024TIP3    H136015   7.310   7.020   5.106
12024TIP3    H236016   7.233   6.918   5.025
12025TIP3   OH236017   0.716   6.601   6.585
12025TIP3    H136018   0.687   6.666   6.522
12025TIP3    H236019   0.807   6.583   6.561
12026TIP3   OH236020   2.805   6.065   2.964
12026TIP3    H136021   2.790   5.999   2.896
12026TIP3    H236022   2.735   6.129   2.952
12027TIP3   OH236023   5.055   5.800   3.858
12027TIP3    H136024   5.056   5.731   3.792
12027TIP3    H236025   5.128   5.778   3.916
12028TIP3   OH236026   7.734   0.236   1.026
12028TIP3    H136027   7.775   0.322   1.016
12028TIP3    H236028   7.642   0.255   1.043
12029TIP3   OH236029   4.764   5.127   3.441
12029TIP3    H136030   4.782   5.047   3.492
12029TIP3    H236031   4.696   5.172   3.491
12030TIP3   OH236032   3.251   6.566   2.954
12030TIP3    H136033   3.274   6.474   2.949
12030TIP3    H236034   3.264   6.600   2.866
12031TIP3   OH236035   4.951   4.023   0.491
12031TIP3    H136036   4.968   4.025   0.397
12031TIP3    H236037   4.886   4.092   0.506
12032TIP3   OH236038   3.268   5.142   3.092
12032TIP3    H136039   3.180   5.143   3.053
12032TIP3    H236040   3.291   5.234   3.103
12033TIP3   OH236041   0.522   6.402   6.598
12033TIP3    H136042   0.539   6.357   6.516
12033TIP3    H236043   0.595   6.465   6.606
12034TIP3   OH236044   6.158   2.431   2.156
12034TIP3    H136045   6.075   2.465   2.190
12034TIP3    H236046   6.177   2.354   2.209
12035TIP3   OH236047   2.500   1.539   5.817
12035TIP3    H136048   2.414   1.564   5.783
12035TIP3    H236049   2.491   1.550   5.912
12036TIP3   OH236050   7.371   0.884   3.085
12036TIP3    H136051   7.351   0.969   3.046
12036TIP3    H236052   7.396   0.829   3.010
12037TIP3   OH236053   5.891   3.925   0.931
12037TIP3    H136054   5.981   3.911   0.901
12037TIP3    H236055   5.895   3.910   1.026
12038TIP3   OH236056   1.180   6.440   0.276
12038TIP3    H136057   1.183   6.481   0.189
12038TIP3    H236058   1.165   6.513   0.336
12039TIP3   OH236059   0.513   3.911   6.702
12039TIP3    H136060   0.588   3.962   6.734
12039TIP3    H236061   0.502   3.938   6.611
12040TIP3   OH236062   1.288   1.677   6.742
12040TIP3    H136063   1.322   1.608   6.685
12040TIP3    H236064   1.195   1.656   6.752
12041TIP3   OH236065   1.569   7.017   3.780
12041TIP3    H136066   1.545   6.925   3.791
12041TIP3    H236067   1.489   7.065   3.800
12042TIP3   OH236068   8.125   1.528   1.822
12042TIP3    H136069   8.060   1.545   1.890
12042TIP3    H236070   8.080   1.471   1.759
12043TIP3   OH236071   6.821   0.492   6.347
12043TIP3    H136072   6.823   0.453   6.435
12043TIP3    H236073   6.736   0.465   6.311
12044TIP3   OH236074   7.642   2.492   0.286
12044TIP3    H136075   7.679   2.512   0.200
12044TIP3    H236076   7.589   2.414   0.272
12045TIP3   OH236077   3.198   0.297   1.143
12045TIP3    H136078   3.142   0.309   1.220
12045TIP3    H236079   3.258   0.372   1.145
12046TIP3   OH236080   7.899   0.166   5.402
12046TIP3    H136081   7.935   0.160   5.314
12046TIP3    H236082   7.972   0.198   5.456
12047TIP3   OH236083   7.904   0.025   1.965
12047TIP3    H136084   7.922   0.032   1.871
12047TIP3    H236085   7.813   0.052   1.974
12048TIP3   OH236086   2.346   7.162   6.162
12048TIP3    H136087   2.335   7.074   6.126
12048TIP3    H236088   2.438   7.166   6.188
12049TIP3   OH236089   6.860   6.064   5.915
12049TIP3    H136090   6.909   5.987   5.886
12049TIP3    H236091   6.768   6.040   5.905
12050TIP3   OH236092   3.798   6.804   5.190
12050TIP3    H136093   3.776   6.892   5.162
12050TIP3    H236094   3.716   6.768   5.223
12051TIP3   OH236095   4.938   4.815   0.953
12051TIP3    H136096   4.914   4.752   1.020
12051TIP3    H236097   4.992   4.766   0.892
12052TIP3   OH236098   1.413   0.579   6.492
12052TIP3    H136099   1.384   0.557   6.580
12052TIP3    H236100   1.406   0.675   6.488
12053TIP3   OH236101   5.581   4.576   6.340
12053TIP3    H136102   5.521   4.501   6.339
12053TIP3    H236103   5.524   4.652   6.350
12054TIP3   OH236104   6.536   2.020   0.262
12054TIP3    H136105   6.474   2.077   0.216
12054TIP3    H236106   6.483   1.947   0.293
12055TIP3   OH236107   5.178   7.742   5.097
12055TIP3    H136108   5.246   7.719   5.033
12055TIP3    H236109   5.226   7.753   5.179
12056TIP3   OH236110   7.484   5.383   1.982
12056TIP3    H136111   7.552   5.450   1.988
12056TIP3    H236112   7.422   5.406   2.051
12057TIP3   OH236113   2.915   0.259   4.904
12057TIP3    H136114   2.965   0.230   4.980
12057TIP3    H236115   2.921   0.354   4.906
12058TIP3   OH236116   5.676   5.313   2.757
12058TIP3    H136117   5.704   5.402   2.738
12058TIP3    H236118   5.735   5.258   2.705
12059TIP3   OH236119   1.199   5.151   6.612
12059TIP3    H136120   1.173   5.059   6.609
12059TIP3    H236121   1.283   5.153   6.567
12060TIP3   OH236122   7.921   7.377   1.682
12060TIP3    H136123   7.968   7.391   1.600
12060TIP3    H236124   7.981   7.406   1.750
12061TIP3   OH236125   5.835   3.120   4.144
12061TIP3    H136126   5.909   3.060   4.134
12061TIP3    H236127   5.763   3.064   4.171
12062TIP3   OH236128   4.020   7.399   3.248
12062TIP3    H136129   4.000   7.432   3.161
12062TIP3    H236130   4.081   7.463   3.284
12063TIP3   OH236131   5.750   3.004   1.275
12063TIP3    H136132   5.685   3.051   1.224
12063TIP3    H236133   5.768   3.060   1.350
12064TIP3   OH236134   7.612   4.384   2.381
12064TIP3    H136135   7.704   4.400   2.360
12064TIP3    H236136   7.614   4.329   2.460
12065TIP3   OH236137   6.896   2.721   3.393
12065TIP3    H136138   6.895   2.811   3.360
12065TIP3    H236139   6.989   2.697   3.394
12066TIP3   OH236140   1.614   0.841   5.989
12066TIP3    H136141   1.647   0.890   5.914
12066TIP3    H236142   1.666   0.872   6.063
12067TIP3   OH236143   5.457   6.553   1.687
12067TIP3    H136144   5.476   6.566   1.780
12067TIP3    H236145   5.362   6.550   1.683
12068TIP3   OH236146   0.623   6.104   2.484
12068TIP3    H136147   0.608   6.178   2.543
12068TIP3    H236148   0.664   6.142   2.407
12069TIP3   OH236149   6.009   3.252   5.689
12069TIP3    H136150   6.051   3.280   5.608
12069TIP3    H236151   6.016   3.156   5.687
12070TIP3   OH236152   6.329   7.843   1.024
12070TIP3    H136153   6.377   7.820   1.103
12070TIP3    H236154   6.327   7.763   0.973
12071TIP3   OH236155   2.022   3.956   2.462
12071TIP3    H136156   1.954   3.961   2.530
12071TIP3    H236157   2.100   3.994   2.503
12072TIP3   OH236158   6.994   3.194   5.601
12072TIP3    H136159   7.083   3.160   5.600
12072TIP3    H236160   6.987   3.241   5.684
12073TIP3   OH236161   3.778   3.842   0.848
12073TIP3    H136162   3.828   3.769   0.812
12073TIP3    H236163   3.701   3.849   0.792
12074TIP3   OH236164   4.761   1.572   0.593
12074TIP3    H136165   4.727   1.658   0.615
12074TIP3    H236166   4.683   1.517   0.584
12075TIP3   OH236167   3.293   4.100   5.093
12075TIP3    H136168   3.248   4.018   5.072
12075TIP3    H236169   3.244   4.136   5.168
12076TIP3   OH236170   6.784   5.687   4.460
12076TIP3    H136171   6.740   5.770   4.440
12076TIP3    H236172   6.719   5.639   4.512
12077TIP3   OH236173   3.222   0.894   0.945
12077TIP3    H136174   3.249   0.962   1.006
12077TIP3    H236175   3.253   0.923   0.860
12078TIP3   OH236176   4.186   2.121   0.594
12078TIP3    H136177   4.280   2.121   0.572
12078TIP3    H236178   4.143   2.144   0.512
12079TIP3   OH236179   1.318   4.626   1.842
12079TIP3    H136180   1.269   4.699   1.878
12079TIP3    H236181   1.255   4.580   1.787
12080TIP3   OH236182   3.429   4.755   4.507
12080TIP3    H136183   3.438   4.682   4.567
12080TIP3    H236184   3.418   4.714   4.421
12081TIP3   OH236185   6.906   7.549   1.561
12081TIP3    H136186   6.905   7.562   1.467
12081TIP3    H236187   6.901   7.454   1.573
12082TIP3   OH236188   3.035   5.335   3.833
12082TIP3    H136189   3.102   5.271   3.858
12082TIP3    H236190   3.075   5.420   3.851
12083TIP3   OH236191   4.717   5.467   5.566
12083TIP3    H136192   4.744   5.389   5.519
12083TIP3    H236193   4.683   5.525   5.498
12084TIP3   OH236194   0.204   6.972   6.023
12084TIP3    H136195   0.161   7.058   6.028
12084TIP3    H236196   0.230   6.952   6.113
12085TIP3   OH236197   4.062   7.591   3.749
12085TIP3    H136198   4.083   7.526   3.682
12085TIP3    H236199   4.142   7.600   3.801
12086TIP3   OH236200   3.059   1.408   3.380
12086TIP3    H136201   3.134   1.390   3.323
12086TIP3    H236202   3.063   1.341   3.448
12087TIP3   OH236203   3.473   2.298   5.448
12087TIP3    H136204   3.564   2.271   5.435
12087TIP3    H236205   3.422   2.223   5.416
12088TIP3   OH236206   1.527   4.208   5.042
12088TIP3    H136207   1.618   4.234   5.027
12088TIP3    H236208   1.484   4.287   5.076
12089TIP3   OH236209   3.283   1.546   2.531
12089TIP3    H136210   3.302   1.523   2.440
12089TIP3    H236211   3.369   1.561   2.570
12090TIP3   OH236212   5.010   2.720   3.692
12090TIP3    H136213   4.916   2.713   3.709
12090TIP3    H236214   5.039   2.629   3.679
12091TIP3   OH236215   7.132   7.785   3.044
12091TIP3    H136216   7.168   7.823   3.124
12091TIP3    H236217   7.207   7.748   2.999
12092TIP3   OH236218   2.332   0.277   5.671
12092TIP3    H136219   2.401   0.341   5.653
12092TIP3    H236220   2.370   0.217   5.734
12093TIP3   OH236221   5.364   1.884   2.579
12093TIP3    H136222   5.314   1.935   2.514
12093TIP3    H236223   5.300   1.824   2.616
12094TIP3   OH236224   3.144   7.460   2.716
12094TIP3    H136225   3.165   7.543   2.759
12094TIP3    H236226   3.188   7.464   2.632
12095TIP3   OH236227   2.307   6.208   6.096
12095TIP3    H136228   2.278   6.131   6.047
12095TIP3    H236229   2.403   6.207   6.087
12096TIP3   OH236230   6.703   0.681   5.483
12096TIP3    H136231   6.636   0.749   5.487
12096TIP3    H236232   6.655   0.601   5.465
12097TIP3   OH236233   2.027   5.036   3.606
12097TIP3    H136234   2.010   5.113   3.660
12097TIP3    H236235   2.036   4.964   3.669
12098TIP3   OH236236   4.590   0.417   0.649
12098TIP3    H136237   4.592   0.510   0.628
12098TIP3    H236238   4.671   0.402   0.699
12099TIP3   OH236239   7.888   4.393   2.763
12099TIP3    H136240   7.918   4.467   2.709
12099TIP3    H236241   7.826   4.346   2.708
12100TIP3   OH236242   1.386   3.677   2.921
12100TIP3    H136243   1.323   3.747   2.904
12100TIP3    H236244   1.356   3.638   3.003
12101TIP3   OH236245   1.934   2.470   5.670
12101TIP3    H136246   1.878   2.432   5.604
12101TIP3    H236247   2.023   2.442   5.646
12102TIP3   OH236248   4.419   3.908   5.653
12102TIP3    H136249   4.399   3.837   5.713
12102TIP3    H236250   4.515   3.911   5.651
12103TIP3   OH236251   1.389   1.035   6.078
12103TIP3    H136252   1.330   0.973   6.036
12103TIP3    H236253   1.477   1.006   6.054
12104TIP3   OH236254   1.819   4.789   0.195
12104TIP3    H136255   1.871   4.730   0.250
12104TIP3    H236256   1.855   4.877   0.213
12105TIP3   OH236257   6.458   1.790   5.111
12105TIP3    H136258   6.472   1.744   5.194
12105TIP3    H236259   6.485   1.880   5.129
12106TIP3   OH236260   6.014   2.844   4.038
12106TIP3    H136261   5.978   2.876   3.955
12106TIP3    H236262   6.070   2.914   4.069
12107TIP3   OH236263   3.497   2.972   4.800
12107TIP3    H136264   3.587   2.965   4.769
12107TIP3    H236265   3.499   3.043   4.864
12108TIP3   OH236266   0.667   5.632   1.176
12108TIP3    H136267   0.598   5.570   1.199
12108TIP3    H236268   0.640   5.714   1.217
12109TIP3   OH236269   4.563   5.464   1.199
12109TIP3    H136270   4.481   5.458   1.247
12109TIP3    H236271   4.625   5.502   1.261
12110TIP3   OH236272   3.173   3.975   1.530
12110TIP3    H136273   3.160   3.880   1.521
12110TIP3    H236274   3.099   4.014   1.484
12111TIP3   OH236275   3.156   6.078   2.618
12111TIP3    H136276   3.218   6.009   2.596
12111TIP3    H236277   3.158   6.082   2.714
12112TIP3   OH236278   6.473   2.794   0.746
12112TIP3    H136279   6.459   2.768   0.837
12112TIP3    H236280   6.459   2.888   0.745
12113TIP3   OH236281   3.966   1.519   4.841
12113TIP3    H136282   3.911   1.591   4.872
12113TIP3    H236283   4.000   1.479   4.921
12114TIP3   OH236284   0.368   7.246   3.469
12114TIP3    H136285   0.367   7.151   3.457
12114TIP3    H236286   0.370   7.281   3.380
12115TIP3   OH236287   7.292   5.209   6.017
12115TIP3    H136288   7.339   5.254   6.088
12115TIP3    H236289   7.258   5.279   5.963
12116TIP3   OH236290   0.115   1.596   1.799
12116TIP3    H136291   0.021   1.575   1.803
12116TIP3    H236292   0.117   1.690   1.778
12117TIP3   OH236293   3.147   5.028   6.768
12117TIP3    H136294   3.111   5.050   6.682
12117TIP3    H236295   3.072   4.993   6.816
12118TIP3   OH236296   7.156   5.531   0.802
12118TIP3    H136297   7.179   5.600   0.864
12118TIP3    H236298   7.089   5.570   0.746
12119TIP3   OH236299   1.160   1.066   3.519
12119TIP3    H136300   1.198   1.148   3.550
12119TIP3    H236301   1.072   1.091   3.490
12120TIP3   OH236302   3.917   0.714   6.267
12120TIP3    H136303   3.952   0.726   6.355
12120TIP3    H236304   3.925   0.620   6.250
12121TIP3   OH236305   0.088   6.583   4.385
12121TIP3    H136306   0.180   6.607   4.375
12121TIP3    H236307   0.080   6.499   4.339
12122TIP3   OH236308   7.319   6.342   0.371
12122TIP3    H136309   7.316   6.419   0.314
12122TIP3    H236310   7.240   6.292   0.348
12123TIP3   OH236311   6.037   4.414   1.145
12123TIP3    H136312   6.118   4.458   1.171
12123TIP3    H236313   5.968   4.473   1.175
12124TIP3   OH236314   2.789   1.716   6.565
12124TIP3    H136315   2.697   1.727   6.540
12124TIP3    H236316   2.800   1.775   6.640
12125TIP3   OH236317   1.900   5.926   3.163
12125TIP3    H136318   1.877   6.019   3.160
12125TIP3    H236319   1.994   5.924   3.143
12126TIP3   OH236320   7.682   5.973   3.342
12126TIP3    H136321   7.730   5.986   3.261
12126TIP3    H236322   7.662   6.061   3.373
12127TIP3   OH236323   3.304   5.701   6.459
12127TIP3    H136324   3.311   5.795   6.473
12127TIP3    H236325   3.269   5.693   6.370
12128TIP3   OH236326   3.707   7.202   1.981
12128TIP3    H136327   3.624   7.202   1.934
12128TIP3    H236328   3.699   7.273   2.045
12129TIP3   OH236329   5.817   5.604   3.713
12129TIP3    H136330   5.907   5.571   3.719
12129TIP3    H236331   5.783   5.599   3.802
12130TIP3   OH236332   3.616   3.270   0.141
12130TIP3    H136333   3.680   3.307   0.202
12130TIP3    H236334   3.577   3.347   0.098
12131TIP3   OH236335   3.119   4.283   0.852
12131TIP3    H136336   3.152   4.298   0.763
12131TIP3    H236337   3.030   4.320   0.851
12132TIP3   OH236338   0.079   5.391   1.291
12132TIP3    H136339   0.044   5.477   1.267
12132TIP3    H236340   0.086   5.344   1.208
12133TIP3   OH236341   3.906   0.826   4.617
12133TIP3    H136342   3.912   0.782   4.702
12133TIP3    H236343   3.924   0.757   4.553
12134TIP3   OH236344   6.160   1.506   3.846
12134TIP3    H136345   6.087   1.444   3.843
12134TIP3    H236346   6.230   1.461   3.799
12135TIP3   OH236347   8.075   3.433   1.540
12135TIP3    H136348   8.167   3.459   1.538
12135TIP3    H236349   8.027   3.515   1.546
12136TIP3   OH236350   0.966   6.871   5.683
12136TIP3    H136351   0.975   6.847   5.775
12136TIP3    H236352   0.872   6.865   5.666
12137TIP3   OH236353   4.058   5.375   2.766
12137TIP3    H136354   3.992   5.306   2.771
12137TIP3    H236355   4.142   5.328   2.764
12138TIP3   OH236356   7.965   7.670   3.364
12138TIP3    H136357   7.972   7.695   3.272
12138TIP3    H236358   7.931   7.581   3.363
12139TIP3   OH236359   3.902   3.424   2.367
12139TIP3    H136360   3.833   3.386   2.313
12139TIP3    H236361   3.861   3.499   2.410
12140TIP3   OH236362   2.869   2.474   1.692
12140TIP3    H136363   2.843   2.384   1.675
12140TIP3    H236364   2.872   2.481   1.788
12141TIP3   OH236365   6.440   4.702   3.479
12141TIP3    H136366   6.414   4.620   3.523
12141TIP3    H236367   6.496   4.674   3.407
12142TIP3   OH236368   2.493   0.140   6.038
12142TIP3    H136369   2.452   0.080   5.975
12142TIP3    H236370   2.582   0.153   6.006
12143TIP3   OH236371   7.769   4.974   3.892
12143TIP3    H136372   7.807   5.061   3.891
12143TIP3    H236373   7.688   4.983   3.943
12144TIP3   OH236374   3.489   2.227   2.130
12144TIP3    H136375   3.487   2.256   2.038
12144TIP3    H236376   3.454   2.138   2.127
12145TIP3   OH236377   5.721   0.524   1.271
12145TIP3    H136378   5.815   0.511   1.262
12145TIP3    H236379   5.712   0.601   1.326
12146TIP3   OH236380   0.085   3.147   4.812
12146TIP3    H136381   0.156   3.100   4.855
12146TIP3    H236382   0.088   3.117   4.721
12147TIP3   OH236383   7.885   4.250   5.728
12147TIP3    H136384   7.921   4.335   5.703
12147TIP3    H236385   7.824   4.228   5.658
12148TIP3   OH236386   7.697   3.451   6.393
12148TIP3    H136387   7.670   3.377   6.447
12148TIP3    H236388   7.627   3.516   6.405
12149TIP3   OH236389   6.495   1.554   0.264
12149TIP3    H136390   6.523   1.467   0.289
12149TIP3    H236391   6.489   1.552   0.168
12150TIP3   OH236392   7.742   0.596   5.614
12150TIP3    H136393   7.827   0.616   5.575
12150TIP3    H236394   7.738   0.653   5.692
12151TIP3   OH236395   3.418   4.746   1.361
12151TIP3    H136396   3.503   4.713   1.331
12151TIP3    H236397   3.440   4.814   1.425
12152TIP3   OH236398   8.113   2.603   3.829
12152TIP3    H136399   8.078   2.678   3.877
12152TIP3    H236400   8.207   2.605   3.845
12153TIP3   OH236401   1.359   1.494   0.983
12153TIP3    H136402   1.305   1.419   1.011
12153TIP3    H236403   1.447   1.471   1.012
12154TIP3   OH236404   6.821   2.133   2.702
12154TIP3    H136405   6.767   2.203   2.665
12154TIP3    H236406   6.884   2.179   2.758
12155TIP3   OH236407   5.013   2.265   3.435
12155TIP3    H136408   5.096   2.264   3.387
12155TIP3    H236409   4.946   2.250   3.368
12156TIP3   OH236410   3.339   7.158   6.652
12156TIP3    H136411   3.281   7.223   6.692
12156TIP3    H236412   3.426   7.180   6.686
12157TIP3   OH236413   0.403   0.669   5.052
12157TIP3    H136414   0.421   0.580   5.022
12157TIP3    H236415   0.335   0.702   4.994
12158TIP3   OH236416   8.015   2.454   1.548
12158TIP3    H136417   8.033   2.537   1.591
12158TIP3    H236418   8.063   2.457   1.466
12159TIP3   OH236419   7.046   6.588   6.385
12159TIP3    H136420   7.068   6.578   6.477
12159TIP3    H236421   7.101   6.524   6.339
12160TIP3   OH236422   0.217   3.332   4.556
12160TIP3    H136423   0.210   3.238   4.541
12160TIP3    H236424   0.130   3.359   4.584
12161TIP3   OH236425   7.710   7.140   6.317
12161TIP3    H136426   7.665   7.213   6.360
12161TIP3    H236427   7.675   7.062   6.361
12162TIP3   OH236428   2.550   3.030   6.008
12162TIP3    H136429   2.532   3.049   5.916
12162TIP3    H236430   2.626   2.972   6.005
12163TIP3   OH236431   2.168   0.191   3.160
12163TIP3    H136432   2.211   0.125   3.214
12163TIP3    H236433   2.238   0.251   3.135
12164TIP3   OH236434   5.493   5.164   2.878
12164TIP3    H136435   5.425   5.226   2.903
12164TIP3    H236436   5.561   5.217   2.838
12165TIP3   OH236437   6.965   6.393   3.898
12165TIP3    H136438   7.008   6.380   3.982
12165TIP3    H236439   6.929   6.482   3.902
12166TIP3   OH236440   0.128   5.708   2.410
12166TIP3    H136441   0.044   5.737   2.373
12166TIP3    H236442   0.170   5.660   2.340
12167TIP3   OH236443   4.058   6.771   3.382
12167TIP3    H136444   4.048   6.701   3.317
12167TIP3    H236445   3.968   6.798   3.401
12168TIP3   OH236446   1.114   4.996   5.219
12168TIP3    H136447   1.023   4.976   5.242
12168TIP3    H236448   1.120   5.091   5.226
12169TIP3   OH236449   6.056   0.698   2.768
12169TIP3    H136450   5.979   0.743   2.732
12169TIP3    H236451   6.079   0.633   2.701
12170TIP3   OH236452   1.203   0.407   6.047
12170TIP3    H136453   1.273   0.442   5.992
12170TIP3    H236454   1.137   0.476   6.051
12171TIP3   OH236455   4.837   5.630   3.237
12171TIP3    H136456   4.767   5.666   3.292
12171TIP3    H236457   4.798   5.627   3.149
12172TIP3   OH236458   3.408   3.332   5.654
12172TIP3    H136459   3.489   3.291   5.622
12172TIP3    H236460   3.437   3.397   5.718
12173TIP3   OH236461   2.112   1.527   4.109
12173TIP3    H136462   2.100   1.433   4.116
12173TIP3    H236463   2.074   1.550   4.024
12174TIP3   OH236464   6.450   1.590   4.454
12174TIP3    H136465   6.425   1.531   4.525
12174TIP3    H236466   6.390   1.568   4.383
12175TIP3   OH236467   5.905   7.123   2.136
12175TIP3    H136468   5.930   7.211   2.165
12175TIP3    H236469   5.811   7.130   2.118
12176TIP3   OH236470   4.904   6.867   0.030
12176TIP3    H136471   4.873   6.946   0.075
12176TIP3    H236472   4.958   6.901  -0.041
12177TIP3   OH236473   0.186   3.683   4.371
12177TIP3    H136474   0.104   3.682   4.322
12177TIP3    H236475   0.253   3.665   4.305
12178TIP3   OH236476   6.312   2.656   0.569
12178TIP3    H136477   6.378   2.587   0.573
12178TIP3    H236478   6.338   2.718   0.637
12179TIP3   OH236479   4.809   2.149   4.377
12179TIP3    H136480   4.879   2.099   4.419
12179TIP3    H236481   4.728   2.103   4.402
12180TIP3   OH236482   0.095   4.514   1.842
12180TIP3    H136483   0.057   4.492   1.757
12180TIP3    H236484   0.021   4.547   1.893
12181TIP3   OH236485   7.960   0.469   6.018
12181TIP3    H136486   7.925   0.446   5.932
12181TIP3    H236487   7.882   0.491   6.070
12182TIP3   OH236488   6.918   4.170   1.843
12182TIP3    H136489   6.855   4.221   1.792
12182TIP3    H236490   6.873   4.087   1.862
12183TIP3   OH236491   4.061   4.693   1.799
12183TIP3    H136492   4.010   4.616   1.774
12183TIP3    H236493   4.031   4.762   1.740
12184TIP3   OH236494   5.793   4.275   3.195
12184TIP3    H136495   5.792   4.298   3.288
12184TIP3    H236496   5.863   4.211   3.186
12185TIP3   OH236497   0.557   7.281   1.298
12185TIP3    H136498   0.649   7.257   1.305
12185TIP3    H236499   0.556   7.359   1.242
12186TIP3   OH236500   6.029   6.872   6.325
12186TIP3    H136501   6.085   6.929   6.376
12186TIP3    H236502   5.940   6.892   6.354
12187TIP3   OH236503   4.480   7.158   3.946
12187TIP3    H136504   4.574   7.157   3.927
12187TIP3    H236505   4.454   7.250   3.937
12188TIP3   OH236506   7.972   5.558   1.859
12188TIP3    H136507   8.061   5.587   1.876
12188TIP3    H236508   7.956   5.581   1.768
12189TIP3   OH236509   6.641   1.734   3.931
12189TIP3    H136510   6.700   1.676   3.884
12189TIP3    H236511   6.693   1.813   3.947
12190TIP3   OH236512   4.542   4.352   6.486
12190TIP3    H136513   4.622   4.402   6.468
12190TIP3    H236514   4.472   4.416   6.478
12191TIP3   OH236515   0.555   2.101   2.313
12191TIP3    H136516   0.535   2.135   2.400
12191TIP3    H236517   0.637   2.052   2.325
12192TIP3   OH236518   7.241   7.056   4.604
12192TIP3    H136519   7.173   7.117   4.577
12192TIP3    H236520   7.323   7.099   4.578
12193TIP3   OH236521   5.333   4.180   5.417
12193TIP3    H136522   5.344   4.157   5.510
12193TIP3    H236523   5.407   4.239   5.399
12194TIP3   OH236524   1.540   0.487   3.470
12194TIP3    H136525   1.484   0.544   3.522
12194TIP3    H236526   1.505   0.493   3.381
12195TIP3   OH236527   4.258   2.150   2.652
12195TIP3    H136528   4.280   2.139   2.744
12195TIP3    H236529   4.207   2.071   2.630
12196TIP3   OH236530   2.474   3.799   2.225
12196TIP3    H136531   2.494   3.855   2.300
12196TIP3    H236532   2.556   3.794   2.176
12197TIP3   OH236533   8.101   5.432   5.603
12197TIP3    H136534   8.156   5.422   5.525
12197TIP3    H236535   8.023   5.478   5.571
12198TIP3   OH236536   5.277   4.536   5.421
12198TIP3    H136537   5.195   4.501   5.387
12198TIP3    H236538   5.342   4.468   5.400
12199TIP3   OH236539   5.612   4.019   6.551
12199TIP3    H136540   5.647   4.037   6.638
12199TIP3    H236541   5.651   3.935   6.526
12200TIP3   OH236542   3.766   0.690   4.927
12200TIP3    H136543   3.860   0.674   4.920
12200TIP3    H236544   3.725   0.614   4.887
12201TIP3   OH236545   5.217   3.723   1.251
12201TIP3    H136546   5.250   3.662   1.185
12201TIP3    H236547   5.281   3.794   1.253
12202TIP3   OH236548   5.880   6.808   3.428
12202TIP3    H136549   5.955   6.850   3.470
12202TIP3    H236550   5.877   6.846   3.340
12203TIP3   OH236551   6.889   4.489   5.692
12203TIP3    H136552   6.913   4.543   5.768
12203TIP3    H236553   6.924   4.538   5.617
12204TIP3   OH236554   6.389   5.131   0.719
12204TIP3    H136555   6.363   5.214   0.758
12204TIP3    H236556   6.484   5.130   0.725
12205TIP3   OH236557   6.429   1.375   3.714
12205TIP3    H136558   6.449   1.432   3.788
12205TIP3    H236559   6.514   1.342   3.685
12206TIP3   OH236560   6.314   2.634   4.745
12206TIP3    H136561   6.309   2.683   4.828
12206TIP3    H236562   6.330   2.544   4.772
12207TIP3   OH236563   6.876   6.739   0.871
12207TIP3    H136564   6.897   6.800   0.942
12207TIP3    H236565   6.804   6.781   0.824
12208TIP3   OH236566   2.009   6.642   4.734
12208TIP3    H136567   2.015   6.560   4.685
12208TIP3    H236568   1.983   6.706   4.668
12209TIP3   OH236569   1.452   3.126   3.272
12209TIP3    H136570   1.405   3.167   3.345
12209TIP3    H236571   1.394   3.137   3.197
12210TIP3   OH236572   4.800   3.721   6.591
12210TIP3    H136573   4.748   3.746   6.514
12210TIP3    H236574   4.742   3.735   6.665
12211TIP3   OH236575   8.220   3.382   4.599
12211TIP3    H136576   8.146   3.441   4.588
12211TIP3    H236577   8.197   3.328   4.675
12212TIP3   OH236578   8.174   0.752   6.413
12212TIP3    H136579   8.148   0.778   6.501
12212TIP3    H236580   8.196   0.659   6.421
12213TIP3   OH236581   5.051   2.707   5.190
12213TIP3    H136582   5.075   2.621   5.155
12213TIP3    H236583   5.066   2.767   5.117
12214TIP3   OH236584   2.236   2.505   3.656
12214TIP3    H136585   2.225   2.426   3.710
12214TIP3    H236586   2.149   2.523   3.621
12215TIP3   OH236587   7.801   6.332   2.383
12215TIP3    H136588   7.807   6.275   2.460
12215TIP3    H236589   7.707   6.347   2.371
12216TIP3   OH236590   2.139   0.848   0.195
12216TIP3    H136591   2.182   0.921   0.240
12216TIP3    H236592   2.048   0.875   0.187
12217TIP3   OH236593   5.848   5.303   4.726
12217TIP3    H136594   5.773   5.262   4.682
12217TIP3    H236595   5.919   5.297   4.662
12218TIP3   OH236596   5.078   4.655   1.315
12218TIP3    H136597   5.140   4.713   1.270
12218TIP3    H236598   5.029   4.613   1.244
12219TIP3   OH236599   0.638   3.675   0.220
12219TIP3    H136600   0.729   3.647   0.207
12219TIP3    H236601   0.601   3.678   0.132
12220TIP3   OH236602   6.253   5.384   0.672
12220TIP3    H136603   6.284   5.356   0.586
12220TIP3    H236604   6.177   5.438   0.654
12221TIP3   OH236605   3.919   1.732   1.839
12221TIP3    H136606   3.881   1.810   1.879
12221TIP3    H236607   3.999   1.716   1.889
12222TIP3   OH236608   0.591   2.381   2.173
12222TIP3    H136609   0.614   2.298   2.216
12222TIP3    H236610   0.606   2.447   2.240
12223TIP3   OH236611   4.538   2.121   0.991
12223TIP3    H136612   4.600   2.126   0.919
12223TIP3    H236613   4.492   2.205   0.989
12224TIP3   OH236614   0.147   1.457   4.176
12224TIP3    H136615   0.231   1.415   4.196
12224TIP3    H236616   0.140   1.451   4.080
12225TIP3   OH236617   3.509   1.269   5.117
12225TIP3    H136618   3.443   1.201   5.129
12225TIP3    H236619   3.513   1.283   5.023
12226TIP3   OH236620   1.127   1.873   5.612
12226TIP3    H136621   1.064   1.938   5.581
12226TIP3    H236622   1.103   1.858   5.703
12227TIP3   OH236623   0.845   5.438   4.701
12227TIP3    H136624   0.824   5.493   4.776
12227TIP3    H236625   0.807   5.353   4.723
12228TIP3   OH236626   1.727   1.433   4.651
12228TIP3    H136627   1.732   1.518   4.608
12228TIP3    H236628   1.818   1.407   4.666
12229TIP3   OH236629   6.182   4.966   3.995
12229TIP3    H136630   6.109   5.024   3.976
12229TIP3    H236631   6.156   4.918   4.073
12230TIP3   OH236632   4.170   1.370   5.518
12230TIP3    H136633   4.134   1.371   5.606
12230TIP3    H236634   4.142   1.453   5.479
12231TIP3   OH236635   7.616   6.006   5.989
12231TIP3    H136636   7.661   6.053   6.059
12231TIP3    H236637   7.663   6.031   5.909
12232TIP3   OH236638   8.133   7.511   4.506
12232TIP3    H136639   8.095   7.507   4.419
12232TIP3    H236640   8.098   7.592   4.544
12233TIP3   OH236641   4.825   1.539   0.913
12233TIP3    H136642   4.801   1.574   0.999
12233TIP3    H236643   4.793   1.603   0.851
12234TIP3   OH236644   5.137   7.003   5.642
12234TIP3    H136645   5.082   7.040   5.711
12234TIP3    H236646   5.077   6.986   5.570
12235TIP3   OH236647   6.786   2.128   3.301
12235TIP3    H136648   6.766   2.214   3.263
12235TIP3    H236649   6.708   2.106   3.352
12236TIP3   OH236650   6.967   3.930   4.295
12236TIP3    H136651   6.970   3.837   4.273
12236TIP3    H236652   6.894   3.964   4.242
12237TIP3   OH236653   0.789   0.478   5.436
12237TIP3    H136654   0.737   0.484   5.516
12237TIP3    H236655   0.828   0.565   5.426
12238TIP3   OH236656   0.102   6.378   6.403
12238TIP3    H136657   0.015   6.417   6.404
12238TIP3    H236658   0.110   6.339   6.315
12239TIP3   OH236659   1.150   3.702   6.161
12239TIP3    H136660   1.244   3.721   6.151
12239TIP3    H236661   1.107   3.785   6.139
12240TIP3   OH236662   4.798   6.955   4.311
12240TIP3    H136663   4.892   6.947   4.326
12240TIP3    H236664   4.757   6.903   4.380
12241TIP3   OH236665   1.918   5.415   6.396
12241TIP3    H136666   1.858   5.367   6.338
12241TIP3    H236667   1.947   5.490   6.345
12242TIP3   OH236668   7.827   2.482   5.361
12242TIP3    H136669   7.878   2.457   5.438
12242TIP3    H236670   7.837   2.408   5.301
12243TIP3   OH236671   4.741   7.189   4.760
12243TIP3    H136672   4.808   7.147   4.815
12243TIP3    H236673   4.788   7.217   4.682
12244TIP3   OH236674   0.092   5.002   6.615
12244TIP3    H136675   0.083   5.039   6.703
12244TIP3    H236676   0.143   4.922   6.628
12245TIP3   OH236677   6.764   3.646   0.658
12245TIP3    H136678   6.786   3.560   0.693
12245TIP3    H236679   6.715   3.689   0.728
12246TIP3   OH236680   3.979   7.440   2.344
12246TIP3    H136681   4.040   7.386   2.395
12246TIP3    H236682   3.957   7.513   2.403
12247TIP3   OH236683   0.833   0.771   5.318
12247TIP3    H136684   0.917   0.735   5.289
12247TIP3    H236685   0.777   0.769   5.240
12248TIP3   OH236686   5.826   5.530   2.676
12248TIP3    H136687   5.848   5.555   2.586
12248TIP3    H236688   5.862   5.601   2.730
12249TIP3   OH236689   1.229   0.169   0.705
12249TIP3    H136690   1.157   0.221   0.669
12249TIP3    H236691   1.187   0.108   0.765
12250TIP3   OH236692   4.282   7.382   2.950
12250TIP3    H136693   4.328   7.386   2.866
12250TIP3    H236694   4.351   7.375   3.015
12251TIP3   OH236695   7.916   6.238   3.522
12251TIP3    H136696   7.850   6.199   3.580
12251TIP3    H236697   7.900   6.332   3.528
12252TIP3   OH236698   0.885   2.163   6.222
12252TIP3    H136699   0.899   2.116   6.140
12252TIP3    H236700   0.964   2.146   6.273
12253TIP3   OH236701   0.183   2.881   3.106
12253TIP3    H136702   0.102   2.839   3.078
12253TIP3    H236703   0.154   2.963   3.148
12254TIP3   OH236704   7.353   2.128   5.911
12254TIP3    H136705   7.395   2.120   5.825
12254TIP3    H236706   7.299   2.207   5.904
12255TIP3   OH236707   2.896   6.650   2.565
12255TIP3    H136708   2.907   6.745   2.574
12255TIP3    H236709   2.978   6.613   2.598
12256TIP3   OH236710   5.648   6.925   2.606
12256TIP3    H136711   5.638   6.878   2.523
12256TIP3    H236712   5.662   7.016   2.580
12257TIP3   OH236713   0.657   3.101   1.781
12257TIP3    H136714   0.636   3.139   1.696
12257TIP3    H236715   0.608   3.020   1.784
12258TIP3   OH236716   4.637   5.873   6.043
12258TIP3    H136717   4.668   5.865   5.952
12258TIP3    H236718   4.707   5.919   6.089
12259TIP3   OH236719   3.854   4.231   0.660
12259TIP3    H136720   3.780   4.216   0.718
12259TIP3    H236721   3.855   4.326   0.646
12260TIP3   OH236722   4.992   0.762   4.390
12260TIP3    H136723   5.031   0.691   4.340
12260TIP3    H236724   5.033   0.841   4.356
12261TIP3   OH236725   7.896   0.969   2.503
12261TIP3    H136726   7.819   0.929   2.463
12261TIP3    H236727   7.867   0.992   2.591
12262TIP3   OH236728   8.109   7.827   2.269
12262TIP3    H136729   8.193   7.794   2.237
12262TIP3    H236730   8.091   7.775   2.348
12263TIP3   OH236731   4.433   1.209   4.540
12263TIP3    H136732   4.483   1.133   4.569
12263TIP3    H236733   4.380   1.233   4.616
12264TIP3   OH236734   7.476   3.016   2.608
12264TIP3    H136735   7.516   2.933   2.634
12264TIP3    H236736   7.550   3.070   2.579
12265TIP3   OH236737   3.442   4.779   5.934
12265TIP3    H136738   3.358   4.773   5.890
12265TIP3    H236739   3.505   4.794   5.864
12266TIP3   OH236740   2.481   2.270   1.078
12266TIP3    H136741   2.467   2.289   1.171
12266TIP3    H236742   2.452   2.179   1.069
12267TIP3   OH236743   0.459   0.511   6.504
12267TIP3    H136744   0.483   0.427   6.544
12267TIP3    H236745   0.524   0.525   6.436
12268TIP3   OH236746   0.757   6.638   4.172
12268TIP3    H136747   0.763   6.733   4.159
12268TIP3    H236748   0.777   6.625   4.265
12269TIP3   OH236749   3.923   1.522   6.180
12269TIP3    H136750   3.905   1.561   6.265
12269TIP3    H236751   4.014   1.492   6.186
12270TIP3   OH236752   2.880   6.695   0.476
12270TIP3    H136753   2.963   6.695   0.429
12270TIP3    H236754   2.816   6.725   0.412
12271TIP3   OH236755   1.312   3.425   5.197
12271TIP3    H136756   1.261   3.344   5.203
12271TIP3    H236757   1.288   3.462   5.112
12272TIP3   OH236758   4.424   1.861   5.382
12272TIP3    H136759   4.493   1.877   5.317
12272TIP3    H236760   4.471   1.857   5.465
12273TIP3   OH236761   4.146   4.389   3.508
12273TIP3    H136762   4.104   4.413   3.590
12273TIP3    H236763   4.138   4.294   3.504
12274TIP3   OH236764   5.826   6.041   5.876
12274TIP3    H136765   5.850   6.012   5.788
12274TIP3    H236766   5.872   6.124   5.888
12275TIP3   OH236767   6.368   3.552   4.411
12275TIP3    H136768   6.397   3.630   4.364
12275TIP3    H236769   6.274   3.545   4.390
12276TIP3   OH236770   5.413   6.208   6.137
12276TIP3    H136771   5.492   6.243   6.096
12276TIP3    H236772   5.366   6.164   6.066
12277TIP3   OH236773   4.196   7.123   6.015
12277TIP3    H136774   4.194   7.044   5.961
12277TIP3    H236775   4.174   7.092   6.103
12278TIP3   OH236776   6.047   2.967   3.227
12278TIP3    H136777   5.991   2.953   3.303
12278TIP3    H236778   6.065   3.061   3.228
12279TIP3   OH236779   1.226   7.376   5.069
12279TIP3    H136780   1.284   7.316   5.024
12279TIP3    H236781   1.283   7.444   5.105
12280TIP3   OH236782   1.171   7.168   2.463
12280TIP3    H136783   1.135   7.252   2.433
12280TIP3    H236784   1.150   7.165   2.556
12281TIP3   OH236785   0.291   2.045   4.153
12281TIP3    H136786   0.267   2.001   4.072
12281TIP3    H236787   0.357   1.989   4.192
12282TIP3   OH236788   5.569   0.991   5.147
12282TIP3    H136789   5.566   1.074   5.195
12282TIP3    H236790   5.513   1.005   5.071
12283TIP3   OH236791   7.670   5.890   1.638
12283TIP3    H136792   7.696   5.916   1.726
12283TIP3    H236793   7.574   5.892   1.641
12284TIP3   OH236794   0.338   3.119   1.119
12284TIP3    H136795   0.300   3.095   1.034
12284TIP3    H236796   0.289   3.066   1.183
12285TIP3   OH236797   3.455   2.487   5.952
12285TIP3    H136798   3.543   2.524   5.949
12285TIP3    H236799   3.468   2.398   5.985
12286TIP3   OH236800   0.544   5.621   3.601
12286TIP3    H136801   0.455   5.599   3.631
12286TIP3    H236802   0.533   5.645   3.509
12287TIP3   OH236803   6.778   0.734   1.406
12287TIP3    H136804   6.851   0.720   1.347
12287TIP3    H236805   6.766   0.829   1.407
12288TIP3   OH236806   3.673   1.603   4.132
12288TIP3    H136807   3.700   1.596   4.223
12288TIP3    H236808   3.599   1.544   4.124
12289TIP3   OH236809   7.143   2.775   5.429
12289TIP3    H136810   7.064   2.817   5.462
12289TIP3    H236811   7.112   2.707   5.369
12290TIP3   OH236812   4.599   1.834   3.396
12290TIP3    H136813   4.507   1.825   3.421
12290TIP3    H236814   4.639   1.751   3.423
12291TIP3   OH236815   1.768   0.149   6.506
12291TIP3    H136816   1.860   0.135   6.528
12291TIP3    H236817   1.752   0.088   6.433
12292TIP3   OH236818   3.811   0.297   4.751
12292TIP3    H136819   3.888   0.338   4.712
12292TIP3    H236820   3.828   0.203   4.746
12293TIP3   OH236821   1.866   3.246   2.598
12293TIP3    H136822   1.790   3.227   2.544
12293TIP3    H236823   1.932   3.278   2.537
12294TIP3   OH236824   0.327   3.819   2.106
12294TIP3    H136825   0.296   3.787   2.191
12294TIP3    H236826   0.395   3.883   2.127
12295TIP3   OH236827   5.013   7.064   0.714
12295TIP3    H136828   4.939   7.085   0.771
12295TIP3    H236829   5.087   7.053   0.773
12296TIP3   OH236830   3.170   6.728   5.597
12296TIP3    H136831   3.183   6.673   5.520
12296TIP3    H236832   3.158   6.816   5.562
12297TIP3   OH236833   1.573   1.030   1.985
12297TIP3    H136834   1.655   0.986   1.963
12297TIP3    H236835   1.595   1.085   2.059
12298TIP3   OH236836   1.841   4.941   2.142
12298TIP3    H136837   1.883   4.910   2.062
12298TIP3    H236838   1.877   5.029   2.155
12299TIP3   OH236839   1.441   3.551   6.581
12299TIP3    H136840   1.423   3.632   6.629
12299TIP3    H236841   1.393   3.483   6.629
12300TIP3   OH236842   1.142   4.429   4.928
12300TIP3    H136843   1.160   4.523   4.924
12300TIP3    H236844   1.219   4.388   4.889
12301TIP3   OH236845   3.169   0.167   6.662
12301TIP3    H136846   3.228   0.225   6.710
12301TIP3    H236847   3.088   0.168   6.713
12302TIP3   OH236848   5.482   5.477   3.184
12302TIP3    H136849   5.478   5.551   3.124
12302TIP3    H236850   5.390   5.458   3.205
12303TIP3   OH236851   5.225   7.135   0.254
12303TIP3    H136852   5.204   7.143   0.347
12303TIP3    H236853   5.148   7.171   0.209
12304TIP3   OH236854   2.626   2.168   0.722
12304TIP3    H136855   2.693   2.143   0.786
12304TIP3    H236856   2.551   2.197   0.775
12305TIP3   OH236857   1.148   4.853   3.515
12305TIP3    H136858   1.177   4.811   3.434
12305TIP3    H236859   1.158   4.947   3.497
12306TIP3   OH236860   7.157   1.563   0.825
12306TIP3    H136861   7.208   1.495   0.870
12306TIP3    H236862   7.071   1.523   0.812
12307TIP3   OH236863   6.963   5.793   4.230
12307TIP3    H136864   7.009   5.838   4.159
12307TIP3    H236865   6.924   5.716   4.188
12308TIP3   OH236866   4.531   0.876   1.235
12308TIP3    H136867   4.576   0.960   1.243
12308TIP3    H236868   4.438   0.899   1.231
12309TIP3   OH236869   2.500   2.817   4.582
12309TIP3    H136870   2.513   2.828   4.488
12309TIP3    H236871   2.544   2.893   4.621
12310TIP3   OH236872   3.238   4.367   4.237
12310TIP3    H136873   3.221   4.279   4.272
12310TIP3    H236874   3.327   4.387   4.266
12311TIP3   OH236875   4.942   1.274   1.630
12311TIP3    H136876   4.902   1.206   1.684
12311TIP3    H236877   5.034   1.248   1.622
12312TIP3   OH236878   1.193   4.014   0.069
12312TIP3    H136879   1.216   3.928   0.034
12312TIP3    H236880   1.107   4.033   0.031
12313TIP3   OH236881   2.347   2.553   5.737
12313TIP3    H136882   2.438   2.524   5.740
12313TIP3    H236883   2.319   2.557   5.828
12314TIP3   OH236884   7.219   2.704   2.874
12314TIP3    H136885   7.127   2.683   2.858
12314TIP3    H236886   7.255   2.626   2.915
12315TIP3   OH236887   0.355   6.228   5.143
12315TIP3    H136888   0.275   6.216   5.092
12315TIP3    H236889   0.412   6.279   5.085
12316TIP3   OH236890   2.960   0.553   2.815
12316TIP3    H136891   3.048   0.520   2.798
12316TIP3    H236892   2.947   0.542   2.909
12317TIP3   OH236893   5.666   3.908   5.599
12317TIP3    H136894   5.665   3.877   5.690
12317TIP3    H236895   5.728   3.981   5.599
12318TIP3   OH236896   6.071   6.560   4.285
12318TIP3    H136897   6.156   6.548   4.243
12318TIP3    H236898   6.093   6.593   4.373
12319TIP3   OH236899   1.810   3.355   1.679
12319TIP3    H136900   1.744   3.374   1.746
12319TIP3    H236901   1.761   3.316   1.607
12320TIP3   OH236902   2.335   5.411   6.605
12320TIP3    H136903   2.422   5.410   6.564
12320TIP3    H236904   2.312   5.319   6.614
12321TIP3   OH236905   5.664   4.206   2.429
12321TIP3    H136906   5.571   4.212   2.454
12321TIP3    H236907   5.710   4.248   2.502
12322TIP3   OH236908   0.719   0.413   2.374
12322TIP3    H136909   0.717   0.459   2.290
12322TIP3    H236910   0.630   0.420   2.408
12323TIP3   OH236911   2.349   1.316   2.465
12323TIP3    H136912   2.258   1.319   2.437
12323TIP3    H236913   2.363   1.399   2.511
12324TIP3   OH236914   3.858   3.531   1.309
12324TIP3    H136915   3.876   3.465   1.376
12324TIP3    H236916   3.862   3.615   1.355
12325TIP3   OH236917   0.401   4.999   4.450
12325TIP3    H136918   0.450   4.921   4.475
12325TIP3    H236919   0.360   5.029   4.532
12326TIP3   OH236920   6.722   6.907   0.705
12326TIP3    H136921   6.654   6.974   0.705
12326TIP3    H236922   6.700   6.850   0.632
12327TIP3   OH236923   2.643   0.759   4.720
12327TIP3    H136924   2.614   0.812   4.645
12327TIP3    H236925   2.618   0.811   4.797
12328TIP3   OH236926   3.913   4.260   1.707
12328TIP3    H136927   3.873   4.206   1.775
12328TIP3    H236928   3.905   4.208   1.627
12329TIP3   OH236929   4.635   5.127   6.316
12329TIP3    H136930   4.649   5.221   6.327
12329TIP3    H236931   4.613   5.116   6.224
12330TIP3   OH236932   1.044   4.998   4.941
12330TIP3    H136933   1.107   5.053   4.895
12330TIP3    H236934   1.079   4.992   5.031
12331TIP3   OH236935   7.686   2.039   3.918
12331TIP3    H136936   7.743   2.020   3.844
12331TIP3    H236937   7.639   2.118   3.892
12332TIP3   OH236938   1.771   4.227   0.523
12332TIP3    H136939   1.817   4.143   0.525
12332TIP3    H236940   1.685   4.205   0.486
12333TIP3   OH236941   1.972   1.838   3.971
12333TIP3    H136942   1.990   1.858   4.063
12333TIP3    H236943   1.897   1.893   3.949
12334TIP3   OH236944   7.746   0.537   3.201
12334TIP3    H136945   7.826   0.562   3.155
12334TIP3    H236946   7.768   0.454   3.244
12335TIP3   OH236947   3.895   4.788   2.717
12335TIP3    H136948   3.893   4.701   2.757
12335TIP3    H236949   3.852   4.845   2.781
12336TIP3   OH236950   0.181   5.436   5.878
12336TIP3    H136951   0.195   5.377   5.804
12336TIP3    H236952   0.092   5.468   5.867
12337TIP3   OH236953   6.508   3.898   5.565
12337TIP3    H136954   6.600   3.879   5.582
12337TIP3    H236955   6.508   3.985   5.526
12338TIP3   OH236956   8.120   7.509   5.211
12338TIP3    H136957   8.080   7.568   5.147
12338TIP3    H236958   8.205   7.549   5.230
12339TIP3   OH236959   4.384   6.049   4.529
12339TIP3    H136960   4.288   6.041   4.525
12339TIP3    H236961   4.400   6.115   4.596
12340TIP3   OH236962   2.462   7.539   6.347
12340TIP3    H136963   2.493   7.487   6.421
12340TIP3    H236964   2.437   7.623   6.385
12341TIP3   OH236965   3.836   1.802   2.563
12341TIP3    H136966   3.744   1.779   2.550
12341TIP3    H236967   3.885   1.741   2.508
12342TIP3   OH236968   3.820   0.227   1.468
12342TIP3    H136969   3.744   0.259   1.419
12342TIP3    H236970   3.838   0.297   1.531
12343TIP3   OH236971   2.259   1.859   3.042
12343TIP3    H136972   2.294   1.945   3.018
12343TIP3    H236973   2.196   1.878   3.112
12344TIP3   OH236974   5.864   6.970   4.821
12344TIP3    H136975   5.814   6.970   4.740
12344TIP3    H236976   5.800   6.989   4.890
12345TIP3   OH236977   2.216   6.220   4.547
12345TIP3    H136978   2.237   6.212   4.454
12345TIP3    H236979   2.248   6.138   4.585
12346TIP3   OH236980   5.364   6.721   2.325
12346TIP3    H136981   5.335   6.651   2.266
12346TIP3    H236982   5.343   6.688   2.413
12347TIP3   OH236983   6.656   6.290   0.671
12347TIP3    H136984   6.594   6.221   0.649
12347TIP3    H236985   6.683   6.326   0.587
12348TIP3   OH236986   7.477   4.979   4.718
12348TIP3    H136987   7.511   4.903   4.765
12348TIP3    H236988   7.384   4.962   4.707
12349TIP3   OH236989   7.952   7.171   3.275
12349TIP3    H136990   7.873   7.192   3.326
12349TIP3    H236991   7.996   7.255   3.263
12350TIP3   OH236992   4.103   2.700   6.083
12350TIP3    H136993   4.169   2.661   6.141
12350TIP3    H236994   4.104   2.645   6.005
12351TIP3   OH236995   5.359   1.018   3.226
12351TIP3    H136996   5.342   0.926   3.207
12351TIP3    H236997   5.429   1.042   3.165
12352TIP3   OH236998   2.668   5.327   4.488
12352TIP3    H136999   2.624   5.245   4.508
12352TIP3    H237000   2.723   5.345   4.565
12353TIP3   OH237001   2.615   1.440   5.457
12353TIP3    H137002   2.528   1.463   5.490
12353TIP3    H237003   2.620   1.483   5.371
12354TIP3   OH237004   1.140   1.298   0.536
12354TIP3    H137005   1.050   1.321   0.516
12354TIP3    H237006   1.137   1.264   0.626
12355TIP3   OH237007   7.714   5.948   1.893
12355TIP3    H137008   7.744   5.894   1.967
12355TIP3    H237009   7.725   6.038   1.924
12356TIP3   OH237010   6.341   2.194   4.942
12356TIP3    H137011   6.397   2.187   4.865
12356TIP3    H237012   6.395   2.240   5.007
12357TIP3   OH237013   0.476   4.032   2.236
12357TIP3    H137014   0.412   4.096   2.269
12357TIP3    H237015   0.530   4.010   2.312
12358TIP3   OH237016   2.990   5.658   4.620
12358TIP3    H137017   3.061   5.667   4.557
12358TIP3    H237018   2.944   5.742   4.617
12359TIP3   OH237019   3.821   2.782   6.430
12359TIP3    H137020   3.802   2.721   6.501
12359TIP3    H237021   3.766   2.858   6.448
12360TIP3   OH237022   0.239   5.663   3.881
12360TIP3    H137023   0.274   5.620   3.959
12360TIP3    H237024   0.238   5.595   3.814
12361TIP3   OH237025   8.220   7.675   6.202
12361TIP3    H137026   8.241   7.586   6.171
12361TIP3    H237027   8.125   7.676   6.209
12362TIP3   OH237028   7.404   1.548   2.256
12362TIP3    H137029   7.447   1.476   2.209
12362TIP3    H237030   7.349   1.590   2.190
12363TIP3   OH237031   3.512   6.840   1.084
12363TIP3    H137032   3.462   6.908   1.130
12363TIP3    H237033   3.595   6.836   1.130
12364TIP3   OH237034   2.150   1.385   6.282
12364TIP3    H137035   2.150   1.405   6.376
12364TIP3    H237036   2.070   1.425   6.249
12365TIP3   OH237037   1.389   3.290   6.658
12365TIP3    H137038   1.448   3.252   6.724
12365TIP3    H237039   1.343   3.216   6.620
12366TIP3   OH237040   5.630   5.618   4.558
12366TIP3    H137041   5.637   5.689   4.494
12366TIP3    H237042   5.671   5.654   4.638
12367TIP3   OH237043   7.429   5.566   1.335
12367TIP3    H137044   7.341   5.599   1.354
12367TIP3    H237045   7.417   5.504   1.263
12368TIP3   OH237046   7.708   7.777   0.179
12368TIP3    H137047   7.722   7.708   0.114
12368TIP3    H237048   7.796   7.811   0.197
12369TIP3   OH237049   2.990   0.314   5.762
12369TIP3    H137050   3.075   0.304   5.720
12369TIP3    H237051   2.966   0.405   5.745
12370TIP3   OH237052   4.153   1.911   3.709
12370TIP3    H137053   4.154   1.963   3.629
12370TIP3    H237054   4.242   1.919   3.745
12371TIP3   OH237055   1.052   1.051   6.241
12371TIP3    H137056   1.004   1.077   6.162
12371TIP3    H237057   1.103   1.128   6.265
12372TIP3   OH237058   4.179   2.380   1.960
12372TIP3    H137059   4.218   2.296   1.938
12372TIP3    H237060   4.197   2.435   1.884
12373TIP3   OH237061   3.335   7.685   2.273
12373TIP3    H137062   3.282   7.764   2.261
12373TIP3    H237063   3.420   7.718   2.304
12374TIP3   OH237064   4.565   7.194   1.421
12374TIP3    H137065   4.505   7.211   1.348
12374TIP3    H237066   4.542   7.107   1.452
12375TIP3   OH237067   4.914   0.075   5.690
12375TIP3    H137068   4.976   0.071   5.616
12375TIP3    H237069   4.931   0.159   5.731
12376TIP3   OH237070   5.985   2.765   0.081
12376TIP3    H137071   5.942   2.709   0.145
12376TIP3    H237072   6.062   2.715   0.053
12377TIP3   OH237073   1.510   5.832   0.353
12377TIP3    H137074   1.533   5.925   0.350
12377TIP3    H237075   1.419   5.828   0.324
12378TIP3   OH237076   1.538   4.902   5.289
12378TIP3    H137077   1.596   4.827   5.275
12378TIP3    H237078   1.535   4.913   5.384
12379TIP3   OH237079   0.946   0.942   5.966
12379TIP3    H137080   0.926   0.888   6.043
12379TIP3    H237081   0.867   0.939   5.913
12380TIP3   OH237082   4.190   6.124   2.314
12380TIP3    H137083   4.182   6.028   2.310
12380TIP3    H237084   4.266   6.144   2.259
12381TIP3   OH237085   4.214   3.798   5.478
12381TIP3    H137086   4.130   3.827   5.512
12381TIP3    H237087   4.278   3.827   5.544
12382TIP3   OH237088   5.410   0.495   1.005
12382TIP3    H137089   5.394   0.430   1.074
12382TIP3    H237090   5.323   0.522   0.977
12383TIP3   OH237091   3.508   7.557   2.107
12383TIP3    H137092   3.457   7.636   2.121
12383TIP3    H237093   3.533   7.528   2.195
12384TIP3   OH237094   2.015   2.058   3.238
12384TIP3    H137095   1.924   2.050   3.211
12384TIP3    H237096   2.044   1.967   3.249
12385TIP3   OH237097   0.150   1.044   3.394
12385TIP3    H137098   0.178   0.954   3.409
12385TIP3    H237099   0.066   1.051   3.439
12386TIP3   OH237100   4.607   5.129   0.474
12386TIP3    H137101   4.556   5.207   0.454
12386TIP3    H237102   4.574   5.062   0.414
12387TIP3   OH237103   5.498   5.163   1.005
12387TIP3    H137104   5.465   5.251   1.024
12387TIP3    H237105   5.537   5.171   0.918
12388TIP3   OH237106   1.450   4.854   6.233
12388TIP3    H137107   1.406   4.778   6.196
12388TIP3    H237108   1.507   4.885   6.163
12389TIP3   OH237109   1.961   6.827   5.322
12389TIP3    H137110   1.908   6.903   5.348
12389TIP3    H237111   1.992   6.849   5.234
12390TIP3   OH237112   2.640   5.174   3.858
12390TIP3    H137113   2.676   5.188   3.945
12390TIP3    H237114   2.710   5.199   3.798
12391TIP3   OH237115   0.550   7.694   4.487
12391TIP3    H137116   0.575   7.742   4.408
12391TIP3    H237117   0.613   7.723   4.553
12392TIP3   OH237118   2.652   3.680   6.283
12392TIP3    H137119   2.620   3.713   6.199
12392TIP3    H237120   2.731   3.630   6.261
12393TIP3   OH237121   4.344   7.142   6.693
12393TIP3    H137122   4.359   7.064   6.747
12393TIP3    H237123   4.425   7.192   6.698
12394TIP3   OH237124   5.389   5.467   2.449
12394TIP3    H137125   5.313   5.452   2.393
12394TIP3    H237126   5.430   5.381   2.458
12395TIP3   OH237127   8.188   1.533   3.848
12395TIP3    H137128   8.199   1.627   3.834
12395TIP3    H237129   8.096   1.516   3.826
12396TIP3   OH237130   0.951   0.928   4.648
12396TIP3    H137131   1.020   0.994   4.641
12396TIP3    H237132   0.871   0.974   4.622
12397TIP3   OH237133   3.567   7.570   2.769
12397TIP3    H137134   3.588   7.663   2.761
12397TIP3    H237135   3.582   7.550   2.861
12398TIP3   OH237136   5.624   7.504   0.811
12398TIP3    H137137   5.599   7.533   0.724
12398TIP3    H237138   5.714   7.535   0.822
12399TIP3   OH237139   3.254   6.524   1.128
12399TIP3    H137140   3.187   6.509   1.062
12399TIP3    H237141   3.206   6.558   1.204
12400TIP3   OH237142   7.259   4.001   0.072
12400TIP3    H137143   7.232   3.910   0.084
12400TIP3    H237144   7.352   3.996   0.051
12401TIP3   OH237145   1.991   2.449   4.794
12401TIP3    H137146   2.062   2.412   4.845
12401TIP3    H237147   2.034   2.505   4.729
12402TIP3   OH237148   5.019   6.258   6.162
12402TIP3    H137149   5.094   6.236   6.217
12402TIP3    H237150   5.002   6.351   6.180
12403TIP3   OH237151   6.751   6.174   1.444
12403TIP3    H137152   6.788   6.087   1.428
12403TIP3    H237153   6.686   6.160   1.512
12404TIP3   OH237154   1.989   4.808   1.950
12404TIP3    H137155   1.940   4.801   1.868
12404TIP3    H237156   2.070   4.761   1.933
12405TIP3   OH237157   2.092   3.820   2.811
12405TIP3    H137158   2.175   3.854   2.778
12405TIP3    H237159   2.025   3.876   2.771
12406TIP3   OH237160   8.096   2.593   6.633
12406TIP3    H137161   8.088   2.672   6.686
12406TIP3    H237162   8.101   2.522   6.697
12407TIP3   OH237163   6.924   6.658   1.141
12407TIP3    H137164   6.878   6.742   1.150
12407TIP3    H237165   6.855   6.593   1.151
12408TIP3   OH237166   5.459   1.320   4.204
12408TIP3    H137167   5.485   1.408   4.229
12408TIP3    H237168   5.373   1.308   4.245
12409TIP3   OH237169   2.189   0.787   3.294
12409TIP3    H137170   2.227   0.713   3.246
12409TIP3    H237171   2.179   0.755   3.384
12410TIP3   OH237172   6.500   7.567   2.315
12410TIP3    H137173   6.501   7.662   2.306
12410TIP3    H237174   6.467   7.535   2.231
12411TIP3   OH237175   8.057   3.994   3.588
12411TIP3    H137176   8.129   3.949   3.544
12411TIP3    H237177   8.027   4.059   3.526
12412TIP3   OH237178   4.191   3.029   0.689
12412TIP3    H137179   4.283   3.036   0.713
12412TIP3    H237180   4.151   2.981   0.761
12413TIP3   OH237181   6.199   6.867   2.741
12413TIP3    H137182   6.156   6.908   2.665
12413TIP3    H237183   6.171   6.776   2.738
12414TIP3   OH237184   5.707   4.216   0.034
12414TIP3    H137185   5.625   4.260   0.054
12414TIP3    H237186   5.757   4.281  -0.016
12415TIP3   OH237187   4.063   5.129   5.840
12415TIP3    H137188   3.970   5.150   5.842
12415TIP3    H237189   4.076   5.081   5.758
12416TIP3   OH237190   3.895   7.716   3.940
12416TIP3    H137191   3.969   7.742   3.995
12416TIP3    H237192   3.931   7.710   3.852
12417TIP3   OH237193   3.388   0.644   0.583
12417TIP3    H137194   3.361   0.731   0.556
12417TIP3    H237195   3.372   0.642   0.677
12418TIP3   OH237196   5.604   4.717   2.637
12418TIP3    H137197   5.660   4.716   2.559
12418TIP3    H237198   5.609   4.807   2.668
12419TIP3   OH237199   7.309   7.831   1.495
12419TIP3    H137200   7.259   7.757   1.531
12419TIP3    H237201   7.319   7.809   1.402
12420TIP3   OH237202   5.155   7.324   1.573
12420TIP3    H137203   5.129   7.416   1.574
12420TIP3    H237204   5.232   7.320   1.629
12421TIP3   OH237205   0.020   1.540   2.527
12421TIP3    H137206   0.088   1.509   2.588
12421TIP3    H237207   0.005   1.631   2.552
12422TIP3   OH237208   3.953   3.239   0.079
12422TIP3    H137209   4.023   3.279   0.027
12422TIP3    H237210   3.997   3.205   0.156
12423TIP3   OH237211   3.346   3.318   2.974
12423TIP3    H137212   3.251   3.306   2.970
12423TIP3    H237213   3.380   3.258   2.908
12424TIP3   OH237214   8.165   5.205   0.891
12424TIP3    H137215   8.117   5.128   0.861
12424TIP3    H237216   8.097   5.269   0.912
12425TIP3   OH237217   2.719   7.649   3.627
12425TIP3    H137218   2.791   7.643   3.690
12425TIP3    H237219   2.640   7.654   3.681
12426TIP3   OH237220   1.635   0.083   1.865
12426TIP3    H137221   1.559   0.142   1.875
12426TIP3    H237222   1.604   0.015   1.805
12427TIP3   OH237223   5.909   4.063   6.462
12427TIP3    H137224   5.869   3.981   6.490
12427TIP3    H237225   5.939   4.105   6.542
12428TIP3   OH237226   0.673   0.514   6.706
12428TIP3    H137227   0.715   0.469   6.633
12428TIP3    H237228   0.660   0.603   6.675
12429TIP3   OH237229   4.277   6.423   2.530
12429TIP3    H137230   4.270   6.331   2.503
12429TIP3    H237231   4.212   6.433   2.599
12430TIP3   OH237232   6.915   6.346   0.409
12430TIP3    H137233   6.945   6.360   0.499
12430TIP3    H237234   6.841   6.406   0.399
12431TIP3   OH237235   8.056   7.803   1.376
12431TIP3    H137236   8.030   7.846   1.294
12431TIP3    H237237   8.091   7.718   1.349
12432TIP3   OH237238   5.409   3.867   3.137
12432TIP3    H137239   5.397   3.960   3.120
12432TIP3    H237240   5.378   3.855   3.227
12433TIP3   OH237241   5.176   6.404   2.849
12433TIP3    H137242   5.177   6.489   2.895
12433TIP3    H237243   5.267   6.374   2.853
12434TIP3   OH237244   2.540   1.999   2.948
12434TIP3    H137245   2.458   2.047   2.948
12434TIP3    H237246   2.582   2.020   3.031
12435TIP3   OH237247   5.175   4.640   5.667
12435TIP3    H137248   5.247   4.634   5.730
12435TIP3    H237249   5.219   4.644   5.582
12436TIP3   OH237250   6.449   5.613   0.635
12436TIP3    H137251   6.435   5.537   0.577
12436TIP3    H237252   6.389   5.679   0.602
12437TIP3   OH237253   0.445   6.437   3.936
12437TIP3    H137254   0.362   6.435   3.888
12437TIP3    H237255   0.426   6.391   4.018
12438TIP3   OH237256   2.598   4.426   0.786
12438TIP3    H137257   2.615   4.518   0.808
12438TIP3    H237258   2.617   4.420   0.692
12439TIP3   OH237259   4.495   2.659   2.020
12439TIP3    H137260   4.577   2.637   2.065
12439TIP3    H237261   4.428   2.652   2.087
12440TIP3   OH237262   0.359   1.301   5.031
12440TIP3    H137263   0.396   1.232   5.086
12440TIP3    H237264   0.308   1.355   5.091
12441TIP3   OH237265   0.725   5.691   2.906
12441TIP3    H137266   0.739   5.598   2.922
12441TIP3    H237267   0.810   5.723   2.873
12442TIP3   OH237268   2.433   5.718   2.602
12442TIP3    H137269   2.448   5.806   2.637
12442TIP3    H237270   2.454   5.659   2.674
12443TIP3   OH237271   5.288   3.667   4.355
12443TIP3    H137272   5.291   3.648   4.261
12443TIP3    H237273   5.378   3.654   4.385
12444TIP3   OH237274   7.721   2.266   4.328
12444TIP3    H137275   7.720   2.171   4.317
12444TIP3    H237276   7.692   2.280   4.418
12445TIP3   OH237277   7.155   4.360   4.841
12445TIP3    H137278   7.068   4.372   4.803
12445TIP3    H237279   7.145   4.390   4.932
12446TIP3   OH237280   7.430   4.209   5.206
12446TIP3    H137281   7.464   4.258   5.132
12446TIP3    H237282   7.500   4.149   5.230
12447TIP3   OH237283   5.458   5.032   1.973
12447TIP3    H137284   5.369   5.056   1.997
12447TIP3    H237285   5.511   5.109   1.996
12448TIP3   OH237286   0.732   4.805   6.441
12448TIP3    H137287   0.747   4.821   6.534
12448TIP3    H237288   0.789   4.867   6.396
12449TIP3   OH237289   2.639   7.813   6.164
12449TIP3    H137290   2.692   7.774   6.234
12449TIP3    H237291   2.618   7.739   6.107
12450TIP3   OH237292   8.295   3.326   3.936
12450TIP3    H137293   8.216   3.371   3.907
12450TIP3    H237294   8.362   3.352   3.873
12451TIP3   OH237295   3.127   5.548   0.265
12451TIP3    H137296   3.140   5.519   0.174
12451TIP3    H237297   3.137   5.643   0.261
12452TIP3   OH237298   3.250   4.121   3.007
12452TIP3    H137299   3.252   4.040   2.956
12452TIP3    H237300   3.223   4.094   3.094
12453TIP3   OH237301   0.838   7.419   1.421
12453TIP3    H137302   0.772   7.451   1.482
12453TIP3    H237303   0.876   7.498   1.383
12454TIP3   OH237304   6.117   4.108   3.121
12454TIP3    H137305   6.069   4.183   3.085
12454TIP3    H237306   6.172   4.078   3.048
12455TIP3   OH237307   3.169   5.711   6.215
12455TIP3    H137308   3.073   5.707   6.211
12455TIP3    H237309   3.192   5.793   6.171
12456TIP3   OH237310   4.014   4.277   2.163
12456TIP3    H137311   3.950   4.313   2.224
12456TIP3    H237312   4.012   4.337   2.089
12457TIP3   OH237313   5.710   6.972   1.262
12457TIP3    H137314   5.702   6.935   1.350
12457TIP3    H237315   5.648   7.045   1.261
12458TIP3   OH237316   4.063   3.690   3.600
12458TIP3    H137317   3.986   3.739   3.570
12458TIP3    H237318   4.030   3.639   3.675
12459TIP3   OH237319   6.289   7.046  -0.016
12459TIP3    H137320   6.223   7.111   0.005
12459TIP3    H237321   6.325   7.019   0.068
12460TIP3   OH237322   0.398   1.645   5.450
12460TIP3    H137323   0.388   1.625   5.543
12460TIP3    H237324   0.465   1.585   5.419
12461TIP3   OH237325   4.755   2.910   5.944
12461TIP3    H137326   4.717   2.914   6.032
12461TIP3    H237327   4.733   2.994   5.905
12462TIP3   OH237328   3.906   3.057   5.656
12462TIP3    H137329   3.850   3.128   5.623
12462TIP3    H237330   3.845   2.996   5.696
12463TIP3   OH237331   8.294   2.439   4.153
12463TIP3    H137332   8.259   2.528   4.142
12463TIP3    H237333   8.218   2.385   4.172
12464TIP3   OH237334   7.852   2.172   3.086
12464TIP3    H137335   7.811   2.144   3.167
12464TIP3    H237336   7.803   2.127   3.017
12465TIP3   OH237337   0.002   3.701   1.413
12465TIP3    H137338   0.032   3.721   1.324
12465TIP3    H237339   0.043   3.769   1.467
12466TIP3   OH237340   5.310   4.248   1.429
12466TIP3    H137341   5.241   4.239   1.494
12466TIP3    H237342   5.299   4.336   1.394
12467TIP3   OH237343   2.040   1.448   0.115
12467TIP3    H137344   2.022   1.358   0.091
12467TIP3    H237345   1.984   1.500   0.058
12468TIP3   OH237346   1.910   7.321   3.994
12468TIP3    H137347   1.963   7.252   4.035
12468TIP3    H237348   1.819   7.294   4.011
12469TIP3   OH237349   0.015   6.290   0.268
12469TIP3    H137350   0.098   6.254   0.239
12469TIP3    H237351  -0.010   6.236   0.342
12470TIP3   OH237352   8.082   4.343   3.721
12470TIP3    H137353   8.034   4.426   3.716
12470TIP3    H237354   8.169   4.363   3.688
12471TIP3   OH237355   4.514   1.933   1.196
12471TIP3    H137356   4.507   2.010   1.141
12471TIP3    H237357   4.589   1.885   1.162
12472TIP3   OH237358   6.580   0.851   4.943
12472TIP3    H137359   6.659   0.804   4.970
12472TIP3    H237360   6.508   0.798   4.976
12473TIP3   OH237361   2.713   5.219   1.633
12473TIP3    H137362   2.730   5.146   1.692
12473TIP3    H237363   2.752   5.193   1.550
12474TIP3   OH237364   4.042   6.761   3.781
12474TIP3    H137365   4.007   6.760   3.870
12474TIP3    H237366   4.124   6.712   3.786
12475TIP3   OH237367   0.551   5.692   5.946
12475TIP3    H137368   0.506   5.639   5.880
12475TIP3    H237369   0.568   5.775   5.902
12476TIP3   OH237370   7.073   3.045   4.981
12476TIP3    H137371   7.058   2.985   4.908
12476TIP3    H237372   7.008   3.114   4.969
12477TIP3   OH237373   7.106   2.061   4.396
12477TIP3    H137374   7.111   1.992   4.329
12477TIP3    H237375   7.196   2.093   4.403
12478TIP3   OH237376   7.677   6.747   4.920
12478TIP3    H137377   7.638   6.722   4.836
12478TIP3    H237378   7.740   6.677   4.938
12479TIP3   OH237379   1.096   0.833   3.967
12479TIP3    H137380   1.110   0.882   4.048
12479TIP3    H237381   1.145   0.752   3.980
12480TIP3   OH237382   6.266   0.918   5.193
12480TIP3    H137383   6.234   0.844   5.141
12480TIP3    H237384   6.362   0.911   5.187
12481TIP3   OH237385   4.279   2.618   6.332
12481TIP3    H137386   4.308   2.708   6.343
12481TIP3    H237387   4.197   2.613   6.381
12482TIP3   OH237388   0.768   3.782   4.651
12482TIP3    H137389   0.747   3.804   4.742
12482TIP3    H237390   0.725   3.698   4.636
12483TIP3   OH237391   7.989   1.213   1.241
12483TIP3    H137392   8.065   1.248   1.194
12483TIP3    H237393   8.024   1.139   1.291
12484TIP3   OH237394   0.324   2.799   3.330
12484TIP3    H137395   0.303   2.721   3.382
12484TIP3    H237396   0.277   2.787   3.248
12485TIP3   OH237397   6.796   2.656   0.542
12485TIP3    H137398   6.755   2.612   0.616
12485TIP3    H237399   6.809   2.587   0.477
12486TIP3   OH237400   7.882   7.429   2.360
12486TIP3    H137401   7.819   7.374   2.407
12486TIP3    H237402   7.852   7.429   2.270
12487TIP3   OH237403   6.521   4.518   2.260
12487TIP3    H137404   6.521   4.463   2.339
12487TIP3    H237405   6.611   4.550   2.254
12488TIP3   OH237406   8.108   0.963   2.836
12488TIP3    H137407   8.091   0.887   2.781
12488TIP3    H237408   8.171   1.015   2.785
12489TIP3   OH237409   7.423   1.771   3.452
12489TIP3    H137410   7.415   1.681   3.419
12489TIP3    H237411   7.371   1.823   3.391
12490TIP3   OH237412   4.622   3.146   2.552
12490TIP3    H137413   4.664   3.231   2.564
12490TIP3    H237414   4.628   3.129   2.458
12491TIP3   OH237415   2.028   6.271   0.165
12491TIP3    H137416   1.993   6.238   0.248
12491TIP3    H237417   2.121   6.288   0.183
12492TIP3   OH237418   2.357   6.301   4.197
12492TIP3    H137419   2.295   6.229   4.207
12492TIP3    H237420   2.362   6.315   4.103
12493TIP3   OH237421   0.390   7.659   3.406
12493TIP3    H137422   0.302   7.640   3.373
12493TIP3    H237423   0.375   7.714   3.483
12494TIP3   OH237424   2.566   1.460   6.423
12494TIP3    H137425   2.549   1.482   6.331
12494TIP3    H237426   2.657   1.432   6.424
12495TIP3   OH237427   6.265   5.588   4.461
12495TIP3    H137428   6.359   5.578   4.449
12495TIP3    H237429   6.252   5.575   4.555
12496TIP3   OH237430   2.226   0.139   5.223
12496TIP3    H137431   2.245   0.127   5.130
12496TIP3    H237432   2.131   0.154   5.226
12497TIP3   OH237433   7.069   3.327   2.128
12497TIP3    H137434   7.146   3.270   2.118
12497TIP3    H237435   7.106   3.416   2.132
12498TIP3   OH237436   6.510   5.481   4.427
12498TIP3    H137437   6.573   5.485   4.355
12498TIP3    H237438   6.480   5.390   4.427
12499TIP3   OH237439   0.072   7.349   0.978
12499TIP3    H137440  -0.008   7.341   1.030
12499TIP3    H237441   0.138   7.299   1.027
12500TIP3   OH237442   6.938   5.967   4.641
12500TIP3    H137443   6.858   6.017   4.626
12500TIP3    H237444   6.930   5.936   4.731
12501TIP3   OH237445   7.125   1.493   2.006
12501TIP3    H137446   7.171   1.572   2.034
12501TIP3    H237447   7.168   1.468   1.925
12502TIP3   OH237448   5.263   0.905   1.128
12502TIP3    H137449   5.229   0.941   1.210
12502TIP3    H237450   5.332   0.845   1.156
12503TIP3   OH237451   4.696   1.209   2.597
12503TIP3    H137452   4.678   1.262   2.675
12503TIP3    H237453   4.789   1.223   2.580
12504TIP3   OH237454   2.559   3.365   0.873
12504TIP3    H137455   2.538   3.279   0.908
12504TIP3    H237456   2.610   3.407   0.942
12505TIP3   OH237457   6.658   2.995   1.624
12505TIP3    H137458   6.710   3.063   1.667
12505TIP3    H237459   6.722   2.946   1.572
12506TIP3   OH237460   0.690   0.558   5.663
12506TIP3    H137461   0.660   0.516   5.744
12506TIP3    H237462   0.663   0.650   5.673
12507TIP3   OH237463   7.332   1.262   4.209
12507TIP3    H137464   7.411   1.236   4.162
12507TIP3    H237465   7.301   1.181   4.250
12508TIP3   OH237466   2.101   7.356   4.805
12508TIP3    H137467   2.038   7.417   4.845
12508TIP3    H237468   2.057   7.326   4.725
12509TIP3   OH237469   1.125   3.708   2.377
12509TIP3    H137470   1.074   3.771   2.429
12509TIP3    H237471   1.059   3.656   2.331
12510TIP3   OH237472   0.177   5.656   6.479
12510TIP3    H137473   0.270   5.645   6.460
12510TIP3    H237474   0.133   5.615   6.405
12511TIP3   OH237475   5.639   6.717   3.522
12511TIP3    H137476   5.613   6.677   3.439
12511TIP3    H237477   5.724   6.757   3.503
12512TIP3   OH237478   1.078   6.618   0.449
12512TIP3    H137479   1.025   6.682   0.498
12512TIP3    H237480   1.136   6.580   0.516
12513TIP3   OH237481   4.709   1.469   0.293
12513TIP3    H137482   4.657   1.550   0.287
12513TIP3    H237483   4.643   1.399   0.299
12514TIP3   OH237484   1.528   0.503   2.537
12514TIP3    H137485   1.552   0.423   2.491
12514TIP3    H237486   1.611   0.547   2.554
12515TIP3   OH237487   1.437   1.656   3.714
12515TIP3    H137488   1.416   1.568   3.745
12515TIP3    H237489   1.531   1.666   3.730
12516TIP3   OH237490   5.376   6.619   1.069
12516TIP3    H137491   5.282   6.631   1.056
12516TIP3    H237492   5.408   6.706   1.094
12517TIP3   OH237493   0.929   3.941   5.727
12517TIP3    H137494   0.906   3.850   5.711
12517TIP3    H237495   0.926   3.983   5.641
12518TIP3   OH237496   0.478   2.215   1.431
12518TIP3    H137497   0.533   2.139   1.411
12518TIP3    H237498   0.430   2.232   1.349
12519TIP3   OH237499   4.985   4.239   5.897
12519TIP3    H137500   5.035   4.230   5.815
12519TIP3    H237501   5.030   4.182   5.959
12520TIP3   OH237502   4.130   3.521   6.513
12520TIP3    H137503   4.155   3.535   6.605
12520TIP3    H237504   4.202   3.469   6.476
12521TIP3   OH237505   2.091   4.600   4.543
12521TIP3    H137506   2.112   4.534   4.609
12521TIP3    H237507   2.143   4.677   4.567
12522TIP3   OH237508   2.802   2.831   0.775
12522TIP3    H137509   2.848   2.891   0.833
12522TIP3    H237510   2.866   2.810   0.707
12523TIP3   OH237511   5.903   5.905   5.634
12523TIP3    H137512   5.901   5.818   5.595
12523TIP3    H237513   5.993   5.935   5.620
12524TIP3   OH237514   1.349   3.884   5.613
12524TIP3    H137515   1.288   3.840   5.674
12524TIP3    H237516   1.394   3.812   5.569
12525TIP3   OH237517   5.255   5.774   3.003
12525TIP3    H137518   5.205   5.698   3.032
12525TIP3    H237519   5.335   5.739   2.965
12526TIP3   OH237520   6.962   0.367   6.091
12526TIP3    H137521   6.911   0.395   6.015
12526TIP3    H237522   6.927   0.418   6.164
12527TIP3   OH237523   6.022   3.250   1.751
12527TIP3    H137524   6.103   3.300   1.759
12527TIP3    H237525   5.987   3.275   1.666
12528TIP3   OH237526   0.485   1.234   1.411
12528TIP3    H137527   0.475   1.140   1.392
12528TIP3    H237528   0.521   1.271   1.331
12529TIP3   OH237529   4.482   6.250   2.907
12529TIP3    H137530   4.525   6.168   2.885
12529TIP3    H237531   4.399   6.248   2.860
12530TIP3   OH237532   2.817   5.534   6.338
12530TIP3    H137533   2.869   5.467   6.295
12530TIP3    H237534   2.838   5.615   6.291
12531TIP3   OH237535   4.347   5.150   3.051
12531TIP3    H137536   4.274   5.100   3.015
12531TIP3    H237537   4.345   5.233   3.004
12532TIP3   OH237538   2.212   1.880   5.914
12532TIP3    H137539   2.133   1.924   5.883
12532TIP3    H237540   2.278   1.950   5.918
12533TIP3   OH237541   2.549   4.791   5.123
12533TIP3    H137542   2.489   4.850   5.169
12533TIP3    H237543   2.579   4.842   5.047
12534TIP3   OH237544   5.012   4.986   5.818
12534TIP3    H137545   5.025   5.074   5.780
12534TIP3    H237546   5.002   4.929   5.742
12535TIP3   OH237547   2.028   6.843   4.511
12535TIP3    H137548   2.116   6.879   4.527
12535TIP3    H237549   1.980   6.915   4.471
12536TIP3   OH237550   2.957   7.752   4.670
12536TIP3    H137551   2.990   7.680   4.616
12536TIP3    H237552   3.036   7.801   4.694
12537TIP3   OH237553   2.900   0.979   0.462
12537TIP3    H137554   2.935   0.890   0.456
12537TIP3    H237555   2.964   1.026   0.515
12538TIP3   OH237556   7.666   6.535   3.334
12538TIP3    H137557   7.655   6.583   3.416
12538TIP3    H237558   7.598   6.571   3.276
12539TIP3   OH237559   4.662   4.814   3.391
12539TIP3    H137560   4.585   4.844   3.343
12539TIP3    H237561   4.737   4.843   3.338
12540TIP3   OH237562   7.642   3.639   0.601
12540TIP3    H137563   7.647   3.543   0.595
12540TIP3    H237564   7.733   3.668   0.591
12541TIP3   OH237565   1.419   4.508   2.098
12541TIP3    H137566   1.459   4.427   2.065
12541TIP3    H237567   1.390   4.554   2.020
12542TIP3   OH237568   5.780   5.098   0.075
12542TIP3    H137569   5.749   5.041   0.146
12542TIP3    H237570   5.756   5.186   0.103
12543TIP3   OH237571   1.716   6.937   4.043
12543TIP3    H137572   1.634   6.951   4.090
12543TIP3    H237573   1.693   6.946   3.951
12544TIP3   OH237574   6.306   2.857   0.281
12544TIP3    H137575   6.271   2.879   0.367
12544TIP3    H237576   6.329   2.765   0.287
12545TIP3   OH237577   4.997   1.237   2.984
12545TIP3    H137578   4.912   1.239   3.027
12545TIP3    H237579   5.020   1.144   2.981
12546TIP3   OH237580   3.560   2.623   4.606
12546TIP3    H137581   3.551   2.648   4.698
12546TIP3    H237582   3.530   2.700   4.558
12547TIP3   OH237583   2.453   6.633   6.292
12547TIP3    H137584   2.466   6.600   6.203
12547TIP3    H237585   2.535   6.612   6.337
12548TIP3   OH237586   4.315   4.363   1.118
12548TIP3    H137587   4.331   4.331   1.029
12548TIP3    H237588   4.339   4.456   1.115
12549TIP3   OH237589   2.326   2.563   1.531
12549TIP3    H137590   2.321   2.555   1.626
12549TIP3    H237591   2.376   2.486   1.503
12550TIP3   OH237592   8.253   7.025   3.824
12550TIP3    H137593   8.276   7.052   3.735
12550TIP3    H237594   8.194   6.951   3.811
12551TIP3   OH237595   5.046   0.543   4.929
12551TIP3    H137596   5.035   0.630   4.969
12551TIP3    H237597   4.968   0.531   4.876
12552TIP3   OH237598   0.174   1.901   3.942
12552TIP3    H137599   0.080   1.903   3.921
12552TIP3    H237600   0.182   1.831   4.007
12553TIP3   OH237601   4.804   7.008   6.752
12553TIP3    H137602   4.898   7.009   6.736
12553TIP3    H237603   4.778   6.917   6.736
12554TIP3   OH237604   8.106   0.451   2.893
12554TIP3    H137605   8.166   0.439   2.967
12554TIP3    H237606   8.059   0.368   2.887
12555TIP3   OH237607   4.300   3.675   6.151
12555TIP3    H137608   4.368   3.609   6.134
12555TIP3    H237609   4.218   3.627   6.141
12556TIP3   OH237610   4.983   6.686   0.748
12556TIP3    H137611   4.945   6.653   0.829
12556TIP3    H237612   4.911   6.730   0.703
12557TIP3   OH237613   2.791   1.487   3.261
12557TIP3    H137614   2.828   1.523   3.180
12557TIP3    H237615   2.863   1.436   3.299
12558TIP3   OH237616   1.217   4.031   2.074
12558TIP3    H137617   1.238   3.939   2.090
12558TIP3    H237618   1.261   4.052   1.992
12559TIP3   OH237619   2.911   2.285   2.245
12559TIP3    H137620   2.872   2.250   2.165
12559TIP3    H237621   2.879   2.227   2.314
12560TIP3   OH237622   2.477   6.687   0.037
12560TIP3    H137623   2.393   6.705  -0.006
12560TIP3    H237624   2.482   6.751   0.107
12561TIP3   OH237625   5.626   7.642   2.545
12561TIP3    H137626   5.719   7.664   2.552
12561TIP3    H237627   5.604   7.662   2.454
12562TIP3   OH237628   4.820   1.585   5.685
12562TIP3    H137629   4.844   1.571   5.593
12562TIP3    H237630   4.900   1.619   5.725
12563TIP3   OH237631   2.462   5.783   4.529
12563TIP3    H137632   2.487   5.731   4.453
12563TIP3    H237633   2.541   5.784   4.583
12564TIP3   OH237634   4.791   5.812   1.532
12564TIP3    H137635   4.823   5.754   1.463
12564TIP3    H237636   4.788   5.757   1.611
12565TIP3   OH237637   6.829   2.146   4.320
12565TIP3    H137638   6.815   2.171   4.228
12565TIP3    H237639   6.924   2.139   4.328
12566TIP3   OH237640   4.348   6.034   5.719
12566TIP3    H137641   4.274   6.095   5.729
12566TIP3    H237642   4.323   5.957   5.770
12567TIP3   OH237643   0.928   5.415   2.886
12567TIP3    H137644   0.894   5.424   2.797
12567TIP3    H237645   0.851   5.407   2.942
12568TIP3   OH237646   4.877   6.026   2.190
12568TIP3    H137647   4.874   6.120   2.211
12568TIP3    H237648   4.820   5.985   2.256
12569TIP3   OH237649   6.927   7.669   4.403
12569TIP3    H137650   6.907   7.656   4.496
12569TIP3    H237651   6.952   7.761   4.397
12570TIP3   OH237652   0.347   6.531   0.028
12570TIP3    H137653   0.260   6.536   0.069
12570TIP3    H237654   0.330   6.535  -0.066
12571TIP3   OH237655   7.281   1.346   3.134
12571TIP3    H137656   7.287   1.391   3.050
12571TIP3    H237657   7.187   1.333   3.147
12572TIP3   OH237658   4.416   4.564   3.000
12572TIP3    H137659   4.434   4.640   3.054
12572TIP3    H237660   4.401   4.493   3.063
12573TIP3   OH237661   0.199   4.442   3.169
12573TIP3    H137662   0.272   4.465   3.111
12573TIP3    H237663   0.222   4.481   3.254
12574TIP3   OH237664   3.121   5.499   6.513
12574TIP3    H137665   3.177   5.573   6.491
12574TIP3    H237666   3.057   5.535   6.574
12575TIP3   OH237667   1.954   0.527   6.227
12575TIP3    H137668   1.903   0.461   6.181
12575TIP3    H237669   1.890   0.595   6.249
12576TIP3   OH237670   7.201   2.910   1.862
12576TIP3    H137671   7.266   2.870   1.920
12576TIP3    H237672   7.204   2.856   1.783
12577TIP3   OH237673   4.507   0.427   3.244
12577TIP3    H137674   4.450   0.446   3.319
12577TIP3    H237675   4.592   0.464   3.269
12578TIP3   OH237676   5.947   0.572   6.207
12578TIP3    H137677   6.018   0.635   6.219
12578TIP3    H237678   5.944   0.556   6.113
12579TIP3   OH237679   4.439   3.193   4.010
12579TIP3    H137680   4.370   3.226   3.952
12579TIP3    H237681   4.392   3.148   4.080
12580TIP3   OH237682   1.191   0.680   5.850
12580TIP3    H137683   1.176   0.771   5.878
12580TIP3    H237684   1.282   0.662   5.873
12581TIP3   OH237685   3.680   2.341   2.791
12581TIP3    H137686   3.607   2.310   2.845
12581TIP3    H237687   3.709   2.264   2.743
12582TIP3   OH237688   5.964   5.450   6.148
12582TIP3    H137689   6.022   5.374   6.143
12582TIP3    H237690   5.922   5.442   6.234
12583TIP3   OH237691   1.557   7.661   5.729
12583TIP3    H137692   1.639   7.639   5.686
12583TIP3    H237693   1.497   7.591   5.702
12584TIP3   OH237694   6.077   7.143   6.697
12584TIP3    H137695   6.007   7.147   6.762
12584TIP3    H237696   6.092   7.234   6.672
12585TIP3   OH237697   1.485   1.559   5.680
12585TIP3    H137698   1.474   1.604   5.597
12585TIP3    H237699   1.434   1.610   5.743
12586TIP3   OH237700   3.219   1.555   5.731
12586TIP3    H137701   3.268   1.633   5.759
12586TIP3    H237702   3.142   1.554   5.789
12587TIP3   OH237703   6.419   6.211   1.859
12587TIP3    H137704   6.491   6.244   1.913
12587TIP3    H237705   6.340   6.244   1.903
12588TIP3   OH237706   3.381   2.046   0.201
12588TIP3    H137707   3.291   2.065   0.227
12588TIP3    H237708   3.409   2.123   0.152
12589TIP3   OH237709   6.160   7.535   1.993
12589TIP3    H137710   6.218   7.609   2.009
12589TIP3    H237711   6.082   7.554   2.046
12590TIP3   OH237712   0.623   4.501   6.575
12590TIP3    H137713   0.638   4.477   6.667
12590TIP3    H237714   0.707   4.485   6.532
12591TIP3   OH237715   4.228   6.715   5.044
12591TIP3    H137716   4.305   6.771   5.028
12591TIP3    H237717   4.257   6.656   5.114
12592TIP3   OH237718   0.672   4.657   3.230
12592TIP3    H137719   0.751   4.677   3.280
12592TIP3    H237720   0.687   4.698   3.145
12593TIP3   OH237721   6.045   5.548   2.312
12593TIP3    H137722   6.024   5.457   2.334
12593TIP3    H237723   6.079   5.585   2.394
12594TIP3   OH237724   1.686   2.621   1.630
12594TIP3    H137725   1.773   2.599   1.596
12594TIP3    H237726   1.629   2.615   1.553
12595TIP3   OH237727   7.613   3.109   0.034
12595TIP3    H137728   7.560   3.069  -0.035
12595TIP3    H237729   7.654   3.036   0.079
12596TIP3   OH237730   2.170   0.303   3.518
12596TIP3    H137731   2.162   0.232   3.454
12596TIP3    H237732   2.226   0.267   3.586
12597TIP3   OH237733   5.309   5.742   0.248
12597TIP3    H137734   5.320   5.835   0.268
12597TIP3    H237735   5.222   5.736   0.208
12598TIP3   OH237736   5.517   7.410   3.491
12598TIP3    H137737   5.457   7.336   3.501
12598TIP3    H237738   5.518   7.427   3.397
12599TIP3   OH237739   0.184   4.940   5.492
12599TIP3    H137740   0.165   5.018   5.543
12599TIP3    H237741   0.138   4.954   5.409
12600TIP3   OH237742   1.217   5.787   5.359
12600TIP3    H137743   1.267   5.758   5.283
12600TIP3    H237744   1.125   5.771   5.335
12601TIP3   OH237745   8.101   2.385   5.155
12601TIP3    H137746   8.094   2.477   5.181
12601TIP3    H237747   8.147   2.343   5.227
12602TIP3   OH237748   6.514   0.912   1.958
12602TIP3    H137749   6.443   0.921   1.895
12602TIP3    H237750   6.574   0.849   1.919
12603TIP3   OH237751   1.259   5.655   3.055
12603TIP3    H137752   1.215   5.632   2.973
12603TIP3    H237753   1.298   5.741   3.038
12604TIP3   OH237754   5.014   4.050   0.220
12604TIP3    H137755   5.015   4.116   0.151
12604TIP3    H237756   5.041   3.969   0.177
12605TIP3   OH237757   0.633   6.079   2.014
12605TIP3    H137758   0.650   6.158   1.962
12605TIP3    H237759   0.539   6.063   2.003
12606TIP3   OH237760   6.291   5.456   1.666
12606TIP3    H137761   6.335   5.371   1.676
12606TIP3    H237762   6.201   5.434   1.644
12607TIP3   OH237763   0.390   6.731   1.195
12607TIP3    H137764   0.402   6.711   1.103
12607TIP3    H237765   0.472   6.774   1.221
12608TIP3   OH237766   6.255   6.137   0.279
12608TIP3    H137767   6.179   6.194   0.287
12608TIP3    H237768   6.330   6.192   0.299
12609TIP3   OH237769   2.733   6.856   2.836
12609TIP3    H137770   2.719   6.937   2.886
12609TIP3    H237771   2.793   6.805   2.891
12610TIP3   OH237772   1.019   2.980   0.234
12610TIP3    H137773   0.964   3.028   0.295
12610TIP3    H237774   1.106   2.980   0.275
12611TIP3   OH237775   5.476   6.219   1.906
12611TIP3    H137776   5.526   6.141   1.882
12611TIP3    H237777   5.402   6.186   1.957
12612TIP3   OH237778   4.685   5.753   0.871
12612TIP3    H137779   4.745   5.810   0.919
12612TIP3    H237780   4.647   5.810   0.804
12613TIP3   OH237781   5.351   6.567   5.889
12613TIP3    H137782   5.327   6.649   5.931
12613TIP3    H237783   5.275   6.510   5.902
12614TIP3   OH237784   8.274   7.718   2.568
12614TIP3    H137785   8.255   7.677   2.652
12614TIP3    H237786   8.254   7.651   2.503
12615TIP3   OH237787   2.437   2.392   1.761
12615TIP3    H137788   2.361   2.336   1.745
12615TIP3    H237789   2.512   2.341   1.728
12616TIP3   OH237790   5.356   4.467   3.220
12616TIP3    H137791   5.443   4.502   3.200
12616TIP3    H237792   5.349   4.472   3.315
12617TIP3   OH237793   1.137   1.882   4.332
12617TIP3    H137794   1.148   1.803   4.385
12617TIP3    H237795   1.188   1.949   4.376
12618TIP3   OH237796   3.769   5.833   1.911
12618TIP3    H137797   3.753   5.870   1.997
12618TIP3    H237798   3.739   5.900   1.849
12619TIP3   OH237799   4.126   3.997   2.187
12619TIP3    H137800   4.218   4.020   2.202
12619TIP3    H237801   4.085   4.078   2.160
12620TIP3   OH237802   0.423   0.432   2.132
12620TIP3    H137803   0.498   0.481   2.097
12620TIP3    H237804   0.347   0.483   2.107
12621TIP3   OH237805   0.423   3.465   4.447
12621TIP3    H137806   0.341   3.423   4.474
12621TIP3    H237807   0.410   3.486   4.354
12622TIP3   OH237808   5.450   0.377   0.263
12622TIP3    H137809   5.432   0.311   0.195
12622TIP3    H237810   5.437   0.461   0.218
12623TIP3   OH237811   6.014   3.732   0.500
12623TIP3    H137812   6.103   3.741   0.535
12623TIP3    H237813   6.013   3.647   0.456
12624TIP3   OH237814   5.810   6.055   3.457
12624TIP3    H137815   5.759   6.123   3.501
12624TIP3    H237816   5.773   5.973   3.489
12625TIP3   OH237817   4.541   4.947   3.620
12625TIP3    H137818   4.576   4.889   3.552
12625TIP3    H237819   4.457   4.908   3.643
12626TIP3   OH237820   1.689   1.037   0.368
12626TIP3    H137821   1.740   1.105   0.325
12626TIP3    H237822   1.721   1.036   0.458
12627TIP3   OH237823   0.758   4.273   4.893
12627TIP3    H137824   0.721   4.362   4.890
12627TIP3    H237825   0.777   4.258   4.986
12628TIP3   OH237826   7.016   5.771   0.251
12628TIP3    H137827   7.088   5.811   0.202
12628TIP3    H237828   7.059   5.705   0.306
12629TIP3   OH237829   7.267   5.159   4.766
12629TIP3    H137830   7.361   5.144   4.781
12629TIP3    H237831   7.245   5.102   4.693
12630TIP3   OH237832   0.944   1.003   1.218
12630TIP3    H137833   1.015   0.986   1.281
12630TIP3    H237834   0.989   1.031   1.139
12631TIP3   OH237835   2.202   3.735   1.499
12631TIP3    H137836   2.137   3.686   1.448
12631TIP3    H237837   2.172   3.728   1.590
12632TIP3   OH237838   4.472   7.480   0.872
12632TIP3    H137839   4.522   7.551   0.911
12632TIP3    H237840   4.508   7.470   0.784
12633TIP3   OH237841   7.202   2.952   6.747
12633TIP3    H137842   7.268   2.898   6.791
12633TIP3    H237843   7.119   2.910   6.769
12634TIP3   OH237844   1.003   1.596   6.546
12634TIP3    H137845   0.960   1.624   6.627
12634TIP3    H237846   0.968   1.509   6.529
12635TIP3   OH237847   7.829   4.230   4.959
12635TIP3    H137848   7.835   4.192   4.871
12635TIP3    H237849   7.855   4.321   4.947
12636TIP3   OH237850   0.682   7.024   1.997
12636TIP3    H137851   0.706   6.961   1.928
12636TIP3    H237852   0.761   7.030   2.051
12637TIP3   OH237853   6.072   6.327   2.786
12637TIP3    H137854   6.082   6.261   2.855
12637TIP3    H237855   6.018   6.283   2.719
12638TIP3   OH237856   4.474   7.806   1.884
12638TIP3    H137857   4.567   7.791   1.899
12638TIP3    H237858   4.466   7.808   1.788
12639TIP3   OH237859   0.394   6.035   3.382
12639TIP3    H137860   0.366   6.109   3.437
12639TIP3    H237861   0.456   6.073   3.321
12640TIP3   OH237862   5.450   0.046   5.339
12640TIP3    H137863   5.514   0.066   5.408
12640TIP3    H237864   5.432  -0.047   5.349
12641TIP3   OH237865   0.450   1.469   0.898
12641TIP3    H137866   0.485   1.449   0.811
12641TIP3    H237867   0.515   1.434   0.958
12642TIP3   OH237868   7.077   5.770   4.493
12642TIP3    H137869   7.028   5.744   4.414
12642TIP3    H237870   7.024   5.839   4.532
12643TIP3   OH237871   2.209   1.566   0.299
12643TIP3    H137872   2.151   1.524   0.236
12643TIP3    H237873   2.217   1.657   0.269
12644TIP3   OH237874   2.855   0.055   5.695
12644TIP3    H137875   2.864   0.044   5.600
12644TIP3    H237876   2.917   0.124   5.716
12645TIP3   OH237877   7.872   1.319   5.080
12645TIP3    H137878   7.859   1.226   5.098
12645TIP3    H237879   7.840   1.331   4.991
12646TIP3   OH237880   4.242   4.209   6.499
12646TIP3    H137881   4.185   4.202   6.423
12646TIP3    H237882   4.330   4.190   6.465
12647TIP3   OH237883   4.909   6.029   5.176
12647TIP3    H137884   4.866   6.084   5.241
12647TIP3    H237885   4.870   5.943   5.188
12648TIP3   OH237886   4.710   4.795   5.432
12648TIP3    H137887   4.620   4.820   5.412
12648TIP3    H237888   4.730   4.844   5.512
12649TIP3   OH237889   7.089   3.616   1.929
12649TIP3    H137890   7.166   3.650   1.886
12649TIP3    H237891   7.079   3.670   2.008
12650TIP3   OH237892   2.761   1.175   0.797
12650TIP3    H137893   2.855   1.166   0.783
12650TIP3    H237894   2.739   1.260   0.757
12651TIP3   OH237895   4.189   5.755   4.779
12651TIP3    H137896   4.113   5.699   4.772
12651TIP3    H237897   4.255   5.702   4.824
12652TIP3   OH237898   0.046   6.449   4.074
12652TIP3    H137899  -0.043   6.479   4.093
12652TIP3    H237900   0.103   6.521   4.103
12653TIP3   OH237901   5.833   6.743   3.760
12653TIP3    H137902   5.766   6.751   3.691
12653TIP3    H237903   5.915   6.765   3.716
12654TIP3   OH237904   3.923   4.520   1.638
12654TIP3    H137905   3.830   4.537   1.652
12654TIP3    H237906   3.929   4.425   1.629
12655TIP3   OH237907   8.180   5.376   4.268
12655TIP3    H137908   8.201   5.300   4.323
12655TIP3    H237909   8.182   5.341   4.179
12656TIP3   OH237910   7.484   2.364   2.118
12656TIP3    H137911   7.402   2.379   2.165
12656TIP3    H237912   7.457   2.328   2.033
12657TIP3   OH237913   6.473   0.680   1.638
12657TIP3    H137914   6.488   0.703   1.546
12657TIP3    H237915   6.417   0.603   1.634
12658TIP3   OH237916   7.352   6.513   3.513
12658TIP3    H137917   7.374   6.606   3.508
12658TIP3    H237918   7.379   6.486   3.601
12659TIP3   OH237919   7.615   2.038   1.756
12659TIP3    H137920   7.668   2.102   1.709
12659TIP3    H237921   7.578   1.983   1.687
12660TIP3   OH237922   4.097   1.120   5.366
12660TIP3    H137923   4.014   1.113   5.412
12660TIP3    H237924   4.142   1.194   5.408
12661TIP3   OH237925   6.162   4.990   1.535
12661TIP3    H137926   6.075   4.954   1.517
12661TIP3    H237927   6.164   5.072   1.485
12662TIP3   OH237928   5.886   1.130   0.778
12662TIP3    H137929   5.918   1.212   0.741
12662TIP3    H237930   5.791   1.139   0.780
12663TIP3   OH237931   3.521   4.717   3.436
12663TIP3    H137932   3.482   4.799   3.407
12663TIP3    H237933   3.510   4.657   3.362
12664TIP3   OH237934   7.864   2.337   4.037
12664TIP3    H137935   7.812   2.417   4.049
12664TIP3    H237936   7.808   2.279   3.986
12665TIP3   OH237937   5.370   1.399   4.966
12665TIP3    H137938   5.359   1.305   4.974
12665TIP3    H237939   5.399   1.412   4.875
12666TIP3   OH237940   1.990   2.850   0.259
12666TIP3    H137941   2.060   2.828   0.197
12666TIP3    H237942   1.914   2.802   0.226
12667TIP3   OH237943   5.727   6.312   2.475
12667TIP3    H137944   5.781   6.234   2.478
12667TIP3    H237945   5.649   6.286   2.425
12668TIP3   OH237946   5.984   6.143   6.330
12668TIP3    H137947   5.940   6.227   6.347
12668TIP3    H237948   6.058   6.166   6.273
12669TIP3   OH237949   7.666   6.768   1.364
12669TIP3    H137950   7.625   6.839   1.413
12669TIP3    H237951   7.593   6.713   1.336
12670TIP3   OH237952   4.741   6.938   1.972
12670TIP3    H137953   4.689   6.994   1.914
12670TIP3    H237954   4.809   6.901   1.916
12671TIP3   OH237955   6.137   7.790   5.097
12671TIP3    H137956   6.130   7.701   5.130
12671TIP3    H237957   6.223   7.819   5.125
12672TIP3   OH237958   7.605   6.682   5.524
12672TIP3    H137959   7.552   6.761   5.538
12672TIP3    H237960   7.541   6.611   5.517
12673TIP3   OH237961   0.447   7.244   5.103
12673TIP3    H137962   0.401   7.253   5.020
12673TIP3    H237963   0.379   7.215   5.164
12674TIP3   OH237964   3.432   4.423   1.798
12674TIP3    H137965   3.490   4.350   1.815
12674TIP3    H237966   3.357   4.409   1.856
12675TIP3   OH237967   6.175   6.708   0.274
12675TIP3    H137968   6.183   6.735   0.366
12675TIP3    H237969   6.083   6.681   0.265
12676TIP3   OH237970   7.249   2.651   5.659
12676TIP3    H137971   7.203   2.712   5.602
12676TIP3    H237972   7.308   2.706   5.711
12677TIP3   OH237973   3.394   7.660   3.872
12677TIP3    H137974   3.480   7.620   3.883
12677TIP3    H237975   3.373   7.696   3.958
12678TIP3   OH237976   6.080   7.676   4.345
12678TIP3    H137977   6.012   7.734   4.380
12678TIP3    H237978   6.031   7.605   4.304
12679TIP3   OH237979   1.837   6.076   5.410
12679TIP3    H137980   1.791   6.083   5.493
12679TIP3    H237981   1.844   6.166   5.377
12680TIP3   OH237982   0.497   2.311   0.588
12680TIP3    H137983   0.423   2.356   0.629
12680TIP3    H237984   0.468   2.221   0.576
12681TIP3   OH237985   3.010   1.241   2.708
12681TIP3    H137986   2.969   1.206   2.787
12681TIP3    H237987   3.072   1.173   2.682
12682TIP3   OH237988   6.884   5.223   3.679
12682TIP3    H137989   6.796   5.203   3.709
12682TIP3    H237990   6.871   5.277   3.601
12683TIP3   OH237991   3.047   2.203   0.531
12683TIP3    H137992   2.980   2.265   0.501
12683TIP3    H237993   3.007   2.161   0.607
12684TIP3   OH237994   4.088   3.723   1.387
12684TIP3    H137995   4.036   3.717   1.467
12684TIP3    H237996   4.177   3.743   1.418
12685TIP3   OH237997   2.751   4.329   5.952
12685TIP3    H137998   2.669   4.368   5.981
12685TIP3    H237999   2.755   4.348   5.859
12686TIP3   OH238000   3.737   0.707   0.406
12686TIP3    H138001   3.689   0.632   0.443
12686TIP3    H238002   3.722   0.701   0.312
12687TIP3   OH238003   0.478   0.135   0.404
12687TIP3    H138004   0.557   0.130   0.457
12687TIP3    H238005   0.509   0.156   0.316
12688TIP3   OH238006   5.221   5.839   3.275
12688TIP3    H138007   5.140   5.889   3.265
12688TIP3    H238008   5.219   5.776   3.202
12689TIP3   OH238009   3.829   1.635   3.086
12689TIP3    H138010   3.905   1.588   3.053
12689TIP3    H238011   3.862   1.722   3.108
12690TIP3   OH238012   0.184   1.910   0.720
12690TIP3    H138013   0.156   1.989   0.766
12690TIP3    H238014   0.219   1.853   0.789
12691TIP3   OH238015   4.532   7.477   3.977
12691TIP3    H138016   4.621   7.466   4.010
12691TIP3    H238017   4.544   7.498   3.884
12692TIP3   OH238018   6.710   3.250   4.790
12692TIP3    H138019   6.736   3.160   4.807
12692TIP3    H238020   6.623   3.257   4.828
12693TIP3   OH238021   4.721   1.508   5.208
12693TIP3    H138022   4.730   1.422   5.166
12693TIP3    H238023   4.633   1.506   5.246
12694TIP3   OH238024   2.551   0.480   5.825
12694TIP3    H138025   2.584   0.405   5.776
12694TIP3    H238026   2.574   0.556   5.771
12695TIP3   OH238027   3.535   6.405   3.897
12695TIP3    H138028   3.621   6.441   3.921
12695TIP3    H238029   3.544   6.382   3.805
12696TIP3   OH238030   5.634   2.323   2.170
12696TIP3    H138031   5.546   2.329   2.205
12696TIP3    H238032   5.628   2.357   2.081
12697TIP3   OH238033   6.539   6.962   1.646
12697TIP3    H138034   6.456   7.000   1.615
12697TIP3    H238035   6.592   6.955   1.567
12698TIP3   OH238036   3.547   2.104   6.621
12698TIP3    H138037   3.591   2.101   6.706
12698TIP3    H238038   3.598   2.168   6.571
12699TIP3   OH238039   3.493   2.432   2.549
12699TIP3    H138040   3.553   2.467   2.615
12699TIP3    H238041   3.425   2.387   2.599
12700TIP3   OH238042   2.567   0.017   5.275
12700TIP3    H138043   2.660   0.005   5.254
12700TIP3    H238044   2.564   0.099   5.323
12701TIP3   OH238045   2.704   2.741   5.841
12701TIP3    H138046   2.690   2.647   5.852
12701TIP3    H238047   2.785   2.747   5.791
12702TIP3   OH238048   7.356   3.509   2.132
12702TIP3    H138049   7.411   3.581   2.100
12702TIP3    H238050   7.373   3.506   2.226
12703TIP3   OH238051   1.759   6.127   2.029
12703TIP3    H138052   1.761   6.217   1.997
12703TIP3    H238053   1.706   6.080   1.964
12704TIP3   OH238054   2.203   6.183   1.572
12704TIP3    H138055   2.289   6.187   1.530
12704TIP3    H238056   2.196   6.094   1.606
12705TIP3   OH238057   1.076   4.798   2.147
12705TIP3    H138058   1.098   4.819   2.056
12705TIP3    H238059   0.998   4.743   2.141
12706TIP3   OH238060   1.662   1.425   2.073
12706TIP3    H138061   1.630   1.335   2.075
12706TIP3    H238062   1.750   1.419   2.110
12707TIP3   OH238063   5.134   2.454   1.818
12707TIP3    H138064   5.172   2.491   1.738
12707TIP3    H238065   5.159   2.362   1.815
12708TIP3   OH238066   4.062   7.329   4.425
12708TIP3    H138067   4.129   7.260   4.426
12708TIP3    H238068   3.984   7.287   4.459
12709TIP3   OH238069   5.711   2.127   1.258
12709TIP3    H138070   5.712   2.208   1.310
12709TIP3    H238071   5.794   2.128   1.211
12710TIP3   OH238072   1.189   7.617   3.568
12710TIP3    H138073   1.204   7.529   3.533
12710TIP3    H238074   1.218   7.675   3.498
12711TIP3   OH238075   2.343   3.690   2.507
12711TIP3    H138076   2.425   3.678   2.459
12711TIP3    H238077   2.275   3.681   2.440
12712TIP3   OH238078   0.326   5.689   1.748
12712TIP3    H138079   0.275   5.654   1.675
12712TIP3    H238080   0.384   5.754   1.708
12713TIP3   OH238081   2.825   1.393   6.411
12713TIP3    H138082   2.895   1.443   6.453
12713TIP3    H238083   2.869   1.348   6.338
12714TIP3   OH238084   0.754   4.774   2.992
12714TIP3    H138085   0.751   4.851   2.936
12714TIP3    H238086   0.724   4.702   2.936
12715TIP3   OH238087   7.992   3.939   4.912
12715TIP3    H138088   8.017   3.857   4.869
12715TIP3    H238089   7.943   3.987   4.844
12716TIP3   OH238090   4.217   2.912   0.431
12716TIP3    H138091   4.183   2.959   0.507
12716TIP3    H238092   4.310   2.933   0.430
12717TIP3   OH238093   4.913   2.351   1.600
12717TIP3    H138094   4.847   2.384   1.661
12717TIP3    H238095   4.961   2.429   1.571
12718TIP3   OH238096   6.489   6.151   1.582
12718TIP3    H138097   6.459   6.209   1.652
12718TIP3    H238098   6.418   6.088   1.571
12719TIP3   OH238099   5.873   2.548   5.818
12719TIP3    H138100   5.872   2.611   5.746
12719TIP3    H238101   5.781   2.535   5.840
12720TIP3   OH238102   2.273   1.397   0.971
12720TIP3    H138103   2.353   1.354   0.998
12720TIP3    H238104   2.228   1.332   0.916
12721TIP3   OH238105   5.861   1.307   3.246
12721TIP3    H138106   5.790   1.310   3.183
12721TIP3    H238107   5.913   1.385   3.228
12722TIP3   OH238108   0.490   5.361   0.730
12722TIP3    H138109   0.439   5.296   0.778
12722TIP3    H238110   0.467   5.444   0.771
12723TIP3   OH238111   4.058   2.704   2.932
12723TIP3    H138112   4.041   2.624   2.883
12723TIP3    H238113   3.985   2.710   2.994
12724TIP3   OH238114   2.217   4.124   5.127
12724TIP3    H138115   2.146   4.149   5.187
12724TIP3    H238116   2.246   4.039   5.158
12725TIP3   OH238117   2.745   2.086   5.243
12725TIP3    H138118   2.748   2.027   5.318
12725TIP3    H238119   2.707   2.033   5.173
12726TIP3   OH238120   6.478   5.793   4.809
12726TIP3    H138121   6.520   5.798   4.896
12726TIP3    H238122   6.386   5.777   4.828
12727TIP3   OH238123   2.206   4.483   3.787
12727TIP3    H138124   2.255   4.404   3.810
12727TIP3    H238125   2.274   4.547   3.765
12728TIP3   OH238126  -0.029   6.049   2.203
12728TIP3    H138127   0.053   6.098   2.216
12728TIP3    H238128   0.000   5.960   2.181
12729TIP3   OH238129   7.197   5.031   4.185
12729TIP3    H138130   7.128   5.029   4.252
12729TIP3    H238131   7.155   5.068   4.108
12730TIP3   OH238132   5.358   4.440   3.495
12730TIP3    H138133   5.264   4.456   3.485
12730TIP3    H238134   5.384   4.498   3.567
12731TIP3   OH238135   6.012   2.210   2.748
12731TIP3    H138136   6.027   2.126   2.790
12731TIP3    H238137   6.026   2.193   2.655
12732TIP3   OH238138   1.499   2.913   0.308
12732TIP3    H138139   1.474   2.830   0.350
12732TIP3    H238140   1.460   2.980   0.364
12733TIP3   OH238141   6.078   3.167   3.710
12733TIP3    H138142   5.982   3.160   3.709
12733TIP3    H238143   6.101   3.184   3.619
12734TIP3   OH238144   1.737   1.720   3.068
12734TIP3    H138145   1.673   1.654   3.041
12734TIP3    H238146   1.733   1.720   3.163
12735TIP3   OH238147   6.927   1.950   0.781
12735TIP3    H138148   6.910   1.968   0.689
12735TIP3    H238149   6.842   1.924   0.816
12736TIP3   OH238150   4.948   3.579   2.226
12736TIP3    H138151   4.991   3.664   2.229
12736TIP3    H238152   4.904   3.577   2.142
12737TIP3   OH238153   3.110   6.480   0.679
12737TIP3    H138154   3.181   6.521   0.628
12737TIP3    H238155   3.154   6.436   0.751
12738TIP3   OH238156   6.749   4.331   6.389
12738TIP3    H138157   6.693   4.280   6.330
12738TIP3    H238158   6.798   4.265   6.438
12739TIP3   OH238159   6.508   3.063   3.063
12739TIP3    H138160   6.559   3.043   2.985
12739TIP3    H238161   6.489   3.156   3.057
12740TIP3   OH238162   7.718   4.681   0.668
12740TIP3    H138163   7.714   4.682   0.764
12740TIP3    H238164   7.755   4.595   0.647
12741TIP3   OH238165   1.033   5.093   0.539
12741TIP3    H138166   1.094   5.029   0.578
12741TIP3    H238167   1.070   5.114   0.454
12742TIP3   OH238168   4.668   7.835   6.691
12742TIP3    H138169   4.650   7.785   6.770
12742TIP3    H238170   4.687   7.768   6.625
12743TIP3   OH238171   3.905   4.550   1.159
12743TIP3    H138172   3.941   4.474   1.114
12743TIP3    H238173   3.835   4.581   1.101
12744TIP3   OH238174   2.455   3.146   5.457
12744TIP3    H138175   2.400   3.104   5.391
12744TIP3    H238176   2.401   3.218   5.491
12745TIP3   OH238177   1.368   0.870   6.790
12745TIP3    H138178   1.344   0.850   6.700
12745TIP3    H238179   1.387   0.964   6.789
12746TIP3   OH238180   8.057   4.405   5.163
12746TIP3    H138181   8.019   4.468   5.101
12746TIP3    H238182   8.151   4.410   5.147
12747TIP3   OH238183   5.463   7.573   6.036
12747TIP3    H138184   5.450   7.601   5.945
12747TIP3    H238185   5.553   7.541   6.038
12748TIP3   OH238186   4.728   4.732   3.882
12748TIP3    H138187   4.660   4.696   3.825
12748TIP3    H238188   4.805   4.678   3.863
12749TIP3   OH238189   7.876   0.235   2.311
12749TIP3    H138190   7.944   0.203   2.252
12749TIP3    H238191   7.842   0.156   2.354
12750TIP3   OH238192   4.241   5.846   0.082
12750TIP3    H138193   4.300   5.873   0.012
12750TIP3    H238194   4.166   5.808   0.036
12751TIP3   OH238195   0.163   5.492   6.733
12751TIP3    H138196   0.228   5.536   6.788
12751TIP3    H238197   0.127   5.562   6.679
12752TIP3   OH238198   0.868   3.872   4.117
12752TIP3    H138199   0.820   3.895   4.038
12752TIP3    H238200   0.944   3.823   4.086
12753TIP3   OH238201   7.018   1.702   0.361
12753TIP3    H138202   7.075   1.626   0.368
12753TIP3    H238203   7.078   1.776   0.353
12754TIP3   OH238204   1.582   2.273   5.953
12754TIP3    H138205   1.604   2.270   6.046
12754TIP3    H238206   1.627   2.198   5.914
12755TIP3   OH238207   7.540   1.720   1.383
12755TIP3    H138208   7.460   1.757   1.420
12755TIP3    H238209   7.589   1.688   1.458
12756TIP3   OH238210   3.583   0.458   6.064
12756TIP3    H138211   3.561   0.369   6.035
12756TIP3    H238212   3.607   0.449   6.156
12757TIP3   OH238213   6.986   6.995   3.291
12757TIP3    H138214   6.948   7.078   3.319
12757TIP3    H238215   7.040   6.967   3.365
12758TIP3   OH238216   5.166   5.926   1.028
12758TIP3    H138217   5.217   5.845   1.027
12758TIP3    H238218   5.178   5.963   0.940
12759TIP3   OH238219   6.103   0.373   3.603
12759TIP3    H138220   6.171   0.306   3.591
12759TIP3    H238221   6.143   0.436   3.662
12760TIP3   OH238222   5.911   1.838   5.956
12760TIP3    H138223   5.878   1.772   5.895
12760TIP3    H238224   6.007   1.834   5.947
12761TIP3   OH238225   2.252   7.402   5.826
12761TIP3    H138226   2.236   7.404   5.920
12761TIP3    H238227   2.267   7.309   5.807
12762TIP3   OH238228   6.133   0.949   1.410
12762TIP3    H138229   6.171   1.015   1.468
12762TIP3    H238230   6.038   0.957   1.424
12763TIP3   OH238231   4.575   2.616   4.492
12763TIP3    H138232   4.660   2.579   4.514
12763TIP3    H238233   4.532   2.630   4.576
12764TIP3   OH238234   3.019   3.919   4.673
12764TIP3    H138235   2.993   3.827   4.678
12764TIP3    H238236   2.937   3.966   4.653
12765TIP3   OH238237   4.226   6.822   0.983
12765TIP3    H138238   4.165   6.873   1.038
12765TIP3    H238239   4.188   6.734   0.981
12766TIP3   OH238240   2.608   4.956   2.365
12766TIP3    H138241   2.587   5.042   2.403
12766TIP3    H238242   2.670   4.975   2.295
12767TIP3   OH238243   1.623   1.563   5.424
12767TIP3    H138244   1.699   1.528   5.471
12767TIP3    H238245   1.657   1.588   5.338
12768TIP3   OH238246   0.998   4.696   4.601
12768TIP3    H138247   0.960   4.613   4.628
12768TIP3    H238248   1.018   4.685   4.508
12769TIP3   OH238249   5.577   0.750   0.428
12769TIP3    H138250   5.530   0.668   0.413
12769TIP3    H238251   5.558   0.802   0.350
12770TIP3   OH238252   3.618   7.672   4.473
12770TIP3    H138253   3.618   7.577   4.461
12770TIP3    H238254   3.566   7.705   4.400
12771TIP3   OH238255   1.947   4.705   3.944
12771TIP3    H138256   1.883   4.733   3.879
12771TIP3    H238257   1.932   4.611   3.953
12772TIP3   OH238258   7.352   2.180   4.486
12772TIP3    H138259   7.383   2.127   4.413
12772TIP3    H238260   7.429   2.231   4.514
12773TIP3   OH238261   6.912   3.459   6.100
12773TIP3    H138262   6.845   3.419   6.156
12773TIP3    H238263   6.968   3.509   6.160
12774TIP3   OH238264   6.622   6.713   0.527
12774TIP3    H138265   6.686   6.657   0.483
12774TIP3    H238266   6.562   6.651   0.568
12775TIP3   OH238267   7.106   0.958   4.987
12775TIP3    H138268   7.100   0.953   4.892
12775TIP3    H238269   7.099   1.052   5.006
12776TIP3   OH238270   1.674   1.360   1.613
12776TIP3    H138271   1.588   1.374   1.575
12776TIP3    H238272   1.681   1.265   1.625
12777TIP3   OH238273   2.777   5.663   1.789
12777TIP3    H138274   2.815   5.720   1.856
12777TIP3    H238275   2.689   5.644   1.820
12778TIP3   OH238276   6.196   6.283   2.079
12778TIP3    H138277   6.172   6.372   2.102
12778TIP3    H238278   6.246   6.251   2.155
12779TIP3   OH238279   2.358   6.739   5.822
12779TIP3    H138280   2.269   6.715   5.848
12779TIP3    H238281   2.403   6.655   5.809
12780TIP3   OH238282   7.627   2.355   2.618
12780TIP3    H138283   7.670   2.281   2.575
12780TIP3    H238284   7.593   2.408   2.546
12781TIP3   OH238285   3.009   4.743   5.184
12781TIP3    H138286   3.062   4.820   5.161
12781TIP3    H238287   3.008   4.743   5.280
12782TIP3   OH238288   0.752   5.494   5.838
12782TIP3    H138289   0.688   5.565   5.841
12782TIP3    H238290   0.761   5.472   5.745
12783TIP3   OH238291   7.952   1.280   6.040
12783TIP3    H138292   7.873   1.243   6.000
12783TIP3    H238293   7.973   1.355   5.985
12784TIP3   OH238294   5.902   1.507   6.265
12784TIP3    H138295   5.823   1.554   6.290
12784TIP3    H238296   5.883   1.472   6.178
12785TIP3   OH238297   4.853   6.299   0.853
12785TIP3    H138298   4.919   6.232   0.837
12785TIP3    H238299   4.776   6.251   0.883
12786TIP3   OH238300   6.036   7.080   1.107
12786TIP3    H138301   6.026   7.003   1.164
12786TIP3    H238302   6.070   7.045   1.025
12787TIP3   OH238303   4.077   6.023   3.844
12787TIP3    H138304   4.160   6.027   3.892
12787TIP3    H238305   4.034   6.106   3.865
12788TIP3   OH238306   6.189   6.803   1.109
12788TIP3    H138307   6.134   6.852   1.169
12788TIP3    H238308   6.269   6.785   1.158
12789TIP3   OH238309   3.051   1.427   0.581
12789TIP3    H138310   3.086   1.515   0.563
12789TIP3    H238311   3.011   1.400   0.499
12790TIP3   OH238312   5.282   0.417   4.076
12790TIP3    H138313   5.377   0.410   4.089
12790TIP3    H238314   5.273   0.445   3.984
12791TIP3   OH238315   1.237   1.241   6.316
12791TIP3    H138316   1.292   1.183   6.368
12791TIP3    H238317   1.212   1.311   6.377
12792TIP3   OH238318   6.897   0.401   5.285
12792TIP3    H138319   6.889   0.496   5.296
12792TIP3    H238320   6.825   0.364   5.335
12793TIP3   OH238321   1.486   7.405   3.585
12793TIP3    H138322   1.497   7.437   3.674
12793TIP3    H238323   1.536   7.466   3.531
12794TIP3   OH238324   3.961   3.902   2.795
12794TIP3    H138325   4.053   3.879   2.781
12794TIP3    H238326   3.949   3.899   2.890
12795TIP3   OH238327   6.254   7.011   3.164
12795TIP3    H138328   6.216   7.066   3.233
12795TIP3    H238329   6.235   6.922   3.192
12796TIP3   OH238330   3.756   5.747   0.631
12796TIP3    H138331   3.665   5.721   0.621
12796TIP3    H238332   3.806   5.673   0.598
12797TIP3   OH238333   6.069   0.758   2.380
12797TIP3    H138334   6.130   0.730   2.448
12797TIP3    H238335   6.106   0.840   2.347
12798TIP3   OH238336   2.397   4.017   1.754
12798TIP3    H138337   2.452   4.073   1.809
12798TIP3    H238338   2.323   3.994   1.810
12799TIP3   OH238339   7.504   1.554   2.991
12799TIP3    H138340   7.439   1.486   2.977
12799TIP3    H238341   7.558   1.553   2.912
12800TIP3   OH238342   6.577   7.109   5.848
12800TIP3    H138343   6.541   7.025   5.820
12800TIP3    H238344   6.608   7.093   5.937
12801TIP3   OH238345   2.085   7.049   2.417
12801TIP3    H138346   2.053   7.126   2.371
12801TIP3    H238347   2.144   7.007   2.355
12802TIP3   OH238348   6.018   6.993   1.711
12802TIP3    H138349   5.937   6.971   1.757
12802TIP3    H238350   6.076   7.025   1.780
12803TIP3   OH238351   6.692   2.554   3.752
12803TIP3    H138352   6.618   2.600   3.712
12803TIP3    H238353   6.763   2.618   3.752
12804TIP3   OH238354   5.107   3.553   1.436
12804TIP3    H138355   5.027   3.569   1.486
12804TIP3    H238356   5.118   3.631   1.382
12805TIP3   OH238357   5.126   2.541   3.313
12805TIP3    H138358   5.189   2.502   3.375
12805TIP3    H238359   5.139   2.492   3.232
12806TIP3   OH238360   5.765   2.672   4.599
12806TIP3    H138361   5.836   2.610   4.616
12806TIP3    H238362   5.686   2.624   4.624
12807TIP3   OH238363   6.288   6.741   4.385
12807TIP3    H138364   6.326   6.810   4.330
12807TIP3    H238365   6.223   6.786   4.439
12808TIP3   OH238366   6.590   1.344   1.229
12808TIP3    H138367   6.608   1.410   1.161
12808TIP3    H238368   6.665   1.350   1.288
12809TIP3   OH238369   5.101   6.475   5.866
12809TIP3    H138370   5.015   6.469   5.908
12809TIP3    H238371   5.115   6.388   5.829
12810TIP3   OH238372   2.114   3.841   5.728
12810TIP3    H138373   2.192   3.814   5.680
12810TIP3    H238374   2.066   3.760   5.743
12811TIP3   OH238375   5.566   5.857   1.031
12811TIP3    H138376   5.522   5.931   0.988
12811TIP3    H238377   5.659   5.873   1.018
12812TIP3   OH238378   5.245   1.005   5.986
12812TIP3    H138379   5.150   1.000   6.000
12812TIP3    H238380   5.264   0.934   5.926
12813TIP3   OH238381   3.652   4.920   5.277
12813TIP3    H138382   3.603   5.000   5.295
12813TIP3    H238383   3.607   4.880   5.202
12814TIP3   OH238384   8.155   5.199   3.032
12814TIP3    H138385   8.116   5.285   3.015
12814TIP3    H238386   8.081   5.141   3.048
12815TIP3   OH238387   4.422   3.674   2.555
12815TIP3    H138388   4.331   3.652   2.534
12815TIP3    H238389   4.473   3.641   2.480
12816TIP3   OH238390   2.932   0.554   0.511
12816TIP3    H138391   2.905   0.623   0.571
12816TIP3    H238392   2.987   0.496   0.563
12817TIP3   OH238393   5.483   0.215   6.022
12817TIP3    H138394   5.415   0.274   5.990
12817TIP3    H238395   5.436   0.137   6.050
12818TIP3   OH238396   7.730   7.548   0.032
12818TIP3    H138397   7.723   7.456   0.057
12818TIP3    H238398   7.675   7.556  -0.045
12819TIP3   OH238399   6.985   1.961   2.233
12819TIP3    H138400   6.974   2.054   2.213
12819TIP3    H238401   6.936   1.948   2.314
12820TIP3   OH238402   1.001   6.270   0.468
12820TIP3    H138403   1.057   6.334   0.424
12820TIP3    H238404   1.052   6.189   0.468
12821TIP3   OH238405   2.663   7.442   5.969
12821TIP3    H138406   2.603   7.514   5.989
12821TIP3    H238407   2.655   7.382   6.044
12822TIP3   OH238408   6.898   3.950   0.475
12822TIP3    H138409   6.810   3.913   0.481
12822TIP3    H238410   6.949   3.899   0.538
12823TIP3   OH238411   6.057   5.566   0.586
12823TIP3    H138412   5.993   5.524   0.529
12823TIP3    H238413   6.023   5.555   0.674
12824TIP3   OH238414   5.951   0.890   3.353
12824TIP3    H138415   5.859   0.884   3.328
12824TIP3    H238416   5.971   0.804   3.390
12825TIP3   OH238417   3.303   0.815   2.754
12825TIP3    H138418   3.238   0.886   2.753
12825TIP3    H238419   3.351   0.827   2.836
12826TIP3   OH238420   0.911   0.394   3.002
12826TIP3    H138421   0.823   0.363   3.023
12826TIP3    H238422   0.918   0.384   2.907
12827TIP3   OH238423   6.082   4.240   4.742
12827TIP3    H138424   6.100   4.153   4.777
12827TIP3    H238425   6.015   4.276   4.801
12828TIP3   OH238426   3.073   0.081   0.279
12828TIP3    H138427   3.002   0.105   0.339
12828TIP3    H238428   3.113   0.004   0.319
12829TIP3   OH238429   1.665   5.388   1.505
12829TIP3    H138430   1.706   5.469   1.535
12829TIP3    H238431   1.620   5.412   1.425
12830TIP3   OH238432   0.212   7.513   0.783
12830TIP3    H138433   0.152   7.508   0.857
12830TIP3    H238434   0.296   7.485   0.818
12831TIP3   OH238435   2.927   1.013  -0.005
12831TIP3    H138436   2.855   1.071  -0.028
12831TIP3    H238437   2.991   1.070   0.037
12832TIP3   OH238438   6.996   6.237   1.315
12832TIP3    H138439   6.903   6.256   1.327
12832TIP3    H238440   7.011   6.160   1.370
12833TIP3   OH238441   5.739   2.582   5.067
12833TIP3    H138442   5.714   2.642   4.996
12833TIP3    H238443   5.676   2.510   5.060
12834TIP3   OH238444   7.742   5.662   6.334
12834TIP3    H138445   7.680   5.719   6.380
12834TIP3    H238446   7.712   5.664   6.243
12835TIP3   OH238447   0.862   2.022   2.267
12835TIP3    H138448   0.912   1.955   2.219
12835TIP3    H238449   0.891   2.105   2.229
12836TIP3   OH238450   3.580   2.089   0.381
12836TIP3    H138451   3.667   2.055   0.359
12836TIP3    H238452   3.524   2.057   0.310
12837TIP3   OH238453   4.687   1.584   3.484
12837TIP3    H138454   4.776   1.591   3.519
12837TIP3    H238455   4.641   1.526   3.544
12838TIP3   OH238456   0.151   7.234   3.990
12838TIP3    H138457   0.222   7.297   4.001
12838TIP3    H238458   0.129   7.239   3.897
12839TIP3   OH238459   0.479   7.156   2.641
12839TIP3    H138460   0.567   7.186   2.664
12839TIP3    H238461   0.433   7.234   2.612
12840TIP3   OH238462   0.922   0.133   3.877
12840TIP3    H138463   1.006   0.178   3.886
12840TIP3    H238464   0.858   0.204   3.865
12841TIP3   OH238465   4.790   0.883   2.633
12841TIP3    H138466   4.755   0.916   2.716
12841TIP3    H238467   4.716   0.839   2.592
12842TIP3   OH238468   0.852   4.246   1.961
12842TIP3    H138469   0.832   4.169   1.908
12842TIP3    H238470   0.889   4.211   2.042
12843TIP3   OH238471   8.143   0.101   0.571
12843TIP3    H138472   8.188   0.109   0.488
12843TIP3    H238473   8.052   0.125   0.552
12844TIP3   OH238474   3.968   1.348   4.299
12844TIP3    H138475   3.994   1.259   4.324
12844TIP3    H238476   3.985   1.401   4.376
12845TIP3   OH238477   6.598   0.816   2.525
12845TIP3    H138478   6.671   0.836   2.584
12845TIP3    H238479   6.591   0.721   2.528
12846TIP3   OH238480   7.167   7.352   3.338
12846TIP3    H138481   7.167   7.359   3.434
12846TIP3    H238482   7.076   7.333   3.316
12847TIP3   OH238483   6.481   3.623   0.455
12847TIP3    H138484   6.485   3.605   0.361
12847TIP3    H238485   6.481   3.536   0.496
12848TIP3   OH238486   8.126   6.735   5.282
12848TIP3    H138487   8.044   6.749   5.329
12848TIP3    H238488   8.122   6.645   5.252
12849TIP3   OH238489   7.088   5.474   3.785
12849TIP3    H138490   7.046   5.428   3.712
12849TIP3    H238491   7.051   5.562   3.782
12850TIP3   OH238492   5.133   5.830   4.754
12850TIP3    H138493   5.227   5.813   4.745
12850TIP3    H238494   5.129   5.912   4.804
12851TIP3   OH238495   6.845   6.025   3.825
12851TIP3    H138496   6.819   5.957   3.887
12851TIP3    H238497   6.934   6.049   3.851
12852TIP3   OH238498   5.824   7.140   3.961
12852TIP3    H138499   5.796   7.050   3.946
12852TIP3    H238500   5.745   7.193   3.946
12853TIP3   OH238501   6.670   1.690   0.028
12853TIP3    H138502   6.637   1.744  -0.044
12853TIP3    H238503   6.708   1.753   0.089
12854TIP3   OH238504   5.109   7.659   4.024
12854TIP3    H138505   5.115   7.623   3.936
12854TIP3    H238506   5.016   7.678   4.036
12855TIP3   OH238507   5.444   7.744   1.023
12855TIP3    H138508   5.387   7.682   1.069
12855TIP3    H238509   5.511   7.768   1.087
12856TIP3   OH238510   1.592   5.780   1.048
12856TIP3    H138511   1.620   5.744   0.964
12856TIP3    H238512   1.509   5.736   1.067
12857TIP3   OH238513   5.425   4.387   2.956
12857TIP3    H138514   5.482   4.464   2.951
12857TIP3    H238515   5.378   4.398   3.039
12858TIP3   OH238516   4.335   3.323   3.728
12858TIP3    H138517   4.296   3.243   3.694
12858TIP3    H238518   4.323   3.387   3.659
12859TIP3   OH238519   2.635   0.082   6.691
12859TIP3    H138520   2.700   0.151   6.678
12859TIP3    H238521   2.566   0.101   6.627
12860TIP3   OH238522   2.863   7.465   2.656
12860TIP3    H138523   2.955   7.440   2.658
12860TIP3    H238524   2.832   7.451   2.745
12861TIP3   OH238525   1.822   4.100   2.038
12861TIP3    H138526   1.884   4.171   2.054
12861TIP3    H238527   1.856   4.025   2.086
12862TIP3   OH238528   7.735   0.099   0.673
12862TIP3    H138529   7.660   0.041   0.686
12862TIP3    H238530   7.698   0.187   0.673
12863TIP3   OH238531   6.037   1.479   2.542
12863TIP3    H138532   6.025   1.502   2.450
12863TIP3    H238533   5.951   1.444   2.569
12864TIP3   OH238534   3.131   6.135   5.180
12864TIP3    H138535   3.140   6.176   5.266
12864TIP3    H238536   3.051   6.083   5.187
12865TIP3   OH238537   2.004   4.509   0.620
12865TIP3    H138538   2.040   4.421   0.635
12865TIP3    H238539   1.909   4.497   0.621
12866TIP3   OH238540   4.650   6.573   3.577
12866TIP3    H138541   4.580   6.621   3.620
12866TIP3    H238542   4.612   6.544   3.494
12867TIP3   OH238543   5.588   0.141   6.358
12867TIP3    H138544   5.637   0.107   6.283
12867TIP3    H238545   5.601   0.077   6.427
12868TIP3   OH238546   8.152   5.532   5.044
12868TIP3    H138547   8.084   5.478   5.004
12868TIP3    H238548   8.225   5.472   5.058
12869TIP3   OH238549   6.002   4.658   5.358
12869TIP3    H138550   5.940   4.722   5.393
12869TIP3    H238551   6.064   4.643   5.429
12870TIP3   OH238552   1.623   7.699   1.195
12870TIP3    H138553   1.606   7.754   1.271
12870TIP3    H238554   1.697   7.645   1.220
12871TIP3   OH238555   8.203   1.604   1.502
12871TIP3    H138556   8.134   1.573   1.443
12871TIP3    H238557   8.256   1.526   1.520
12872TIP3   OH238558   7.526   5.188   4.524
12872TIP3    H138559   7.468   5.141   4.583
12872TIP3    H238560   7.482   5.184   4.439
12873TIP3   OH238561   4.379   1.587   6.233
12873TIP3    H138562   4.315   1.657   6.240
12873TIP3    H238563   4.436   1.598   6.309
12874TIP3   OH238564   5.644   4.613   2.885
12874TIP3    H138565   5.732   4.645   2.902
12874TIP3    H238566   5.626   4.640   2.795
12875TIP3   OH238567   3.763   3.307   2.878
12875TIP3    H138568   3.736   3.399   2.891
12875TIP3    H238569   3.709   3.277   2.805
12876TIP3   OH238570   0.442   3.185   0.255
12876TIP3    H138571   0.502   3.223   0.191
12876TIP3    H238572   0.355   3.198   0.217
12877TIP3   OH238573   7.692   7.400   5.970
12877TIP3    H138574   7.661   7.324   6.018
12877TIP3    H238575   7.622   7.465   5.980
12878TIP3   OH238576   6.679   4.326   5.923
12878TIP3    H138577   6.687   4.382   5.846
12878TIP3    H238578   6.684   4.386   5.997
12879TIP3   OH238579   4.895   6.527   4.000
12879TIP3    H138580   4.970   6.492   4.047
12879TIP3    H238581   4.932   6.582   3.931
12880TIP3   OH238582   1.317   3.439   6.026
12880TIP3    H138583   1.410   3.427   6.045
12880TIP3    H238584   1.301   3.382   5.951
12881TIP3   OH238585   6.596   1.168   4.060
12881TIP3    H138586   6.506   1.145   4.085
12881TIP3    H238587   6.599   1.152   3.966
12882TIP3   OH238588   1.711   1.940   0.027
12882TIP3    H138589   1.777   1.894   0.079
12882TIP3    H238590   1.749   2.026   0.010
12883TIP3   OH238591   0.653   3.543   4.602
12883TIP3    H138592   0.652   3.538   4.506
12883TIP3    H238593   0.576   3.492   4.629
12884TIP3   OH238594   5.642   5.023   0.313
12884TIP3    H138595   5.561   5.074   0.320
12884TIP3    H238596   5.614   4.932   0.311
12885TIP3   OH238597   6.393   3.145   6.349
12885TIP3    H138598   6.455   3.082   6.312
12885TIP3    H238599   6.326   3.156   6.281
12886TIP3   OH238600   6.322   6.252   3.849
12886TIP3    H138601   6.310   6.161   3.823
12886TIP3    H238602   6.262   6.302   3.793
12887TIP3   OH238603   7.014   6.901   2.289
12887TIP3    H138604   6.995   6.825   2.236
12887TIP3    H238605   6.933   6.952   2.289
12888TIP3   OH238606   2.423   1.325   4.280
12888TIP3    H138607   2.491   1.338   4.215
12888TIP3    H238608   2.469   1.326   4.364
12889TIP3   OH238609   2.161   2.249   3.126
12889TIP3    H138610   2.101   2.314   3.090
12889TIP3    H238611   2.104   2.181   3.161
12890TIP3   OH238612   6.380   5.366   4.046
12890TIP3    H138613   6.468   5.397   4.022
12890TIP3    H238614   6.390   5.335   4.136
12891TIP3   OH238615   0.270   7.311   5.920
12891TIP3    H138616   0.194   7.284   5.868
12891TIP3    H238617   0.233   7.365   5.991
12892TIP3   OH238618   0.133   4.516   0.410
12892TIP3    H138619   0.124   4.604   0.373
12892TIP3    H238620   0.187   4.528   0.488
12893TIP3   OH238621   4.323   6.384   5.732
12893TIP3    H138622   4.288   6.472   5.743
12893TIP3    H238623   4.246   6.331   5.710
12894TIP3   OH238624   3.094   4.408   2.621
12894TIP3    H138625   3.180   4.449   2.612
12894TIP3    H238626   3.106   4.318   2.592
12895TIP3   OH238627   5.917   5.606   5.590
12895TIP3    H138628   5.993   5.608   5.649
12895TIP3    H238629   5.940   5.540   5.525
12896TIP3   OH238630   4.555   2.159   4.681
12896TIP3    H138631   4.525   2.175   4.591
12896TIP3    H238632   4.638   2.112   4.670
12897TIP3   OH238633   4.058   0.166   6.404
12897TIP3    H138634   4.079   0.073   6.416
12897TIP3    H238635   4.078   0.207   6.488
12898TIP3   OH238636   7.567   7.760   1.788
12898TIP3    H138637   7.498   7.742   1.852
12898TIP3    H238638   7.612   7.676   1.777
12899TIP3   OH238639   5.518   3.660   6.295
12899TIP3    H138640   5.463   3.717   6.241
12899TIP3    H238641   5.537   3.585   6.239
12900TIP3   OH238642   6.688   2.021   3.754
12900TIP3    H138643   6.770   2.032   3.801
12900TIP3    H238644   6.622   2.063   3.809
12901TIP3   OH238645   1.784   7.478   5.385
12901TIP3    H138646   1.697   7.469   5.423
12901TIP3    H238647   1.778   7.435   5.300
12902TIP3   OH238648   5.218   1.031   6.597
12902TIP3    H138649   5.147   1.058   6.655
12902TIP3    H238650   5.294   1.021   6.654
12903TIP3   OH238651   1.484   7.359   1.955
12903TIP3    H138652   1.553   7.342   1.890
12903TIP3    H238653   1.430   7.280   1.953
12904TIP3   OH238654   4.250   1.898   3.159
12904TIP3    H138655   4.198   1.863   3.231
12904TIP3    H238656   4.330   1.845   3.159
12905TIP3   OH238657   1.990   2.410   2.500
12905TIP3    H138658   2.067   2.384   2.449
12905TIP3    H238659   2.005   2.372   2.587
12906TIP3   OH238660   7.945   7.759   0.570
12906TIP3    H138661   7.898   7.807   0.639
12906TIP3    H238662   7.956   7.671   0.606
12907TIP3   OH238663   0.479   5.440   1.238
12907TIP3    H138664   0.444   5.470   1.322
12907TIP3    H238665   0.430   5.360   1.218
12908TIP3   OH238666   7.224   5.852   3.486
12908TIP3    H138667   7.293   5.881   3.426
12908TIP3    H238668   7.149   5.907   3.465
12909TIP3   OH238669   4.771   3.209   0.213
12909TIP3    H138670   4.739   3.299   0.214
12909TIP3    H238671   4.794   3.192   0.122
12910TIP3   OH238672   2.462   3.058   1.445
12910TIP3    H138673   2.481   3.116   1.371
12910TIP3    H238674   2.531   2.991   1.441
12911TIP3   OH238675   7.570   0.755   4.285
12911TIP3    H138676   7.639   0.698   4.319
12911TIP3    H238677   7.506   0.760   4.356
12912TIP3   OH238678   7.907   1.397   4.674
12912TIP3    H138679   7.959   1.445   4.610
12912TIP3    H238680   7.960   1.320   4.695
12913TIP3   OH238681   5.085   5.699   5.192
12913TIP3    H138682   5.164   5.752   5.197
12913TIP3    H238683   5.117   5.609   5.181
12914TIP3   OH238684   6.244   3.238   0.962
12914TIP3    H138685   6.278   3.228   1.051
12914TIP3    H238686   6.161   3.191   0.962
12915TIP3   OH238687   7.964   6.083   6.169
12915TIP3    H138688   8.019   6.157   6.194
12915TIP3    H238689   7.876   6.120   6.163
12916TIP3   OH238690   2.581   7.493   3.429
12916TIP3    H138691   2.619   7.547   3.498
12916TIP3    H238692   2.489   7.485   3.452
12917TIP3   OH238693   0.676   4.364   0.191
12917TIP3    H138694   0.662   4.276   0.226
12917TIP3    H238695   0.770   4.368   0.174
12918TIP3   OH238696   8.209   6.400   5.505
12918TIP3    H138697   8.162   6.342   5.444
12918TIP3    H238698   8.181   6.488   5.481
12919TIP3   OH238699   8.273   3.318   3.441
12919TIP3    H138700   8.202   3.319   3.505
12919TIP3    H238701   8.350   3.346   3.490
12920TIP3   OH238702   5.972   6.523   0.169
12920TIP3    H138703   5.885   6.552   0.198
12920TIP3    H238704   5.970   6.536   0.074
12921TIP3   OH238705   0.918   0.221   5.973
12921TIP3    H138706   0.967   0.213   5.892
12921TIP3    H238707   0.885   0.312   5.973
12922TIP3   OH238708   5.610   2.103   6.585
12922TIP3    H138709   5.540   2.111   6.650
12922TIP3    H238710   5.640   2.193   6.572
12923TIP3   OH238711   6.675   1.081   1.587
12923TIP3    H138712   6.690   0.994   1.623
12923TIP3    H238713   6.747   1.094   1.525
12924TIP3   OH238714   5.302   0.846   3.961
12924TIP3    H138715   5.255   0.764   3.977
12924TIP3    H238716   5.244   0.897   3.906
12925TIP3   OH238717   1.778   5.632   2.251
12925TIP3    H138718   1.797   5.643   2.344
12925TIP3    H238719   1.763   5.721   2.219
12926TIP3   OH238720   7.632   4.661   0.932
12926TIP3    H138721   7.673   4.578   0.957
12926TIP3    H238722   7.566   4.677   0.999
12927TIP3   OH238723   1.589   2.222   4.272
12927TIP3    H138724   1.594   2.205   4.366
12927TIP3    H238725   1.504   2.264   4.260
12928TIP3   OH238726   3.514   2.840   6.330
12928TIP3    H138727   3.445   2.879   6.383
12928TIP3    H238728   3.596   2.864   6.374
12929TIP3   OH238729   0.579   6.573   2.733
12929TIP3    H138730   0.499   6.564   2.681
12929TIP3    H238731   0.554   6.542   2.820
12930TIP3   OH238732   5.455   1.393   6.238
12930TIP3    H138733   5.416   1.339   6.306
12930TIP3    H238734   5.536   1.426   6.277
12931TIP3   OH238735   6.842   2.794   2.641
12931TIP3    H138736   6.863   2.800   2.548
12931TIP3    H238737   6.834   2.885   2.670
12932TIP3   OH238738   3.918   2.225   0.463
12932TIP3    H138739   3.893   2.260   0.548
12932TIP3    H238740   3.894   2.295   0.401
12933TIP3   OH238741   8.029   0.249   0.888
12933TIP3    H138742   8.119   0.236   0.856
12933TIP3    H238743   7.988   0.163   0.880
12934TIP3   OH238744   0.314   4.758   4.597
12934TIP3    H138745   0.306   4.842   4.642
12934TIP3    H238746   0.240   4.757   4.536
12935TIP3   OH238747   4.937   7.621   2.199
12935TIP3    H138748   4.858   7.653   2.156
12935TIP3    H238749   4.917   7.531   2.225
12936TIP3   OH238750   5.214   4.809   0.877
12936TIP3    H138751   5.199   4.903   0.882
12936TIP3    H238752   5.189   4.785   0.788
12937TIP3   OH238753   5.141   1.484   5.565
12937TIP3    H138754   5.131   1.564   5.616
12937TIP3    H238755   5.133   1.414   5.630
12938TIP3   OH238756   7.331   5.203   5.243
12938TIP3    H138757   7.379   5.170   5.168
12938TIP3    H238758   7.281   5.278   5.209
12939TIP3   OH238759   4.127   2.659   0.405
12939TIP3    H138760   4.095   2.636   0.492
12939TIP3    H238761   4.133   2.754   0.405
12940TIP3   OH238762   5.978   3.264   3.239
12940TIP3    H138763   6.022   3.289   3.321
12940TIP3    H238764   6.025   3.313   3.171
12941TIP3   OH238765   2.637   4.766   5.834
12941TIP3    H138766   2.554   4.722   5.855
12941TIP3    H238767   2.663   4.730   5.750
12942TIP3   OH238768   8.160   7.609   0.311
12942TIP3    H138769   8.188   7.655   0.390
12942TIP3    H238770   8.196   7.659   0.239
12943TIP3   OH238771   5.909   5.294   1.731
12943TIP3    H138772   5.913   5.384   1.761
12943TIP3    H238773   5.961   5.245   1.795
12944TIP3   OH238774   7.956   1.905   3.927
12944TIP3    H138775   7.894   1.948   3.986
12944TIP3    H238776   7.965   1.816   3.962
12945TIP3   OH238777   0.361   3.981   1.431
12945TIP3    H138778   0.370   4.074   1.450
12945TIP3    H238779   0.301   3.977   1.357
12946TIP3   OH238780   3.697   7.572   1.303
12946TIP3    H138781   3.636   7.504   1.332
12946TIP3    H238782   3.684   7.577   1.209
12947TIP3   OH238783   5.226   7.051   0.854
12947TIP3    H138784   5.263   6.964   0.872
12947TIP3    H238785   5.247   7.102   0.932
12948TIP3   OH238786   1.871   4.908   0.592
12948TIP3    H138787   1.831   4.909   0.679
12948TIP3    H238788   1.847   4.824   0.555
12949TIP3   OH238789   0.957   6.912   2.632
12949TIP3    H138790   0.932   6.992   2.585
12949TIP3    H238791   0.874   6.867   2.648
12950TIP3   OH238792   4.420   5.409   0.796
12950TIP3    H138793   4.463   5.330   0.831
12950TIP3    H238794   4.373   5.446   0.871
12951TIP3   OH238795   1.885   1.052   5.100
12951TIP3    H138796   1.819   1.043   5.169
12951TIP3    H238797   1.967   1.063   5.147
12952TIP3   OH238798   7.733   4.326   2.041
12952TIP3    H138799   7.715   4.417   2.063
12952TIP3    H238800   7.821   4.327   2.004
12953TIP3   OH238801   2.438   6.834   0.529
12953TIP3    H138802   2.474   6.865   0.446
12953TIP3    H238803   2.369   6.896   0.549
12954TIP3   OH238804   1.182   5.393   5.616
12954TIP3    H138805   1.134   5.310   5.607
12954TIP3    H238806   1.262   5.380   5.565
12955TIP3   OH238807   7.945   2.980   0.955
12955TIP3    H138808   7.923   3.073   0.961
12955TIP3    H238809   7.918   2.955   0.867
12956TIP3   OH238810   0.355   6.045   1.996
12956TIP3    H138811   0.319   6.117   2.047
12956TIP3    H238812   0.354   6.076   1.906
12957TIP3   OH238813   5.096   3.206   5.374
12957TIP3    H138814   5.083   3.112   5.359
12957TIP3    H238815   5.188   3.221   5.352
12958TIP3   OH238816   0.341   6.541   6.059
12958TIP3    H138817   0.392   6.563   6.137
12958TIP3    H238818   0.406   6.534   5.989
12959TIP3   OH238819   6.526   2.027   0.574
12959TIP3    H138820   6.536   1.965   0.502
12959TIP3    H238821   6.480   1.978   0.642
12960TIP3   OH238822   0.464   0.311   5.479
12960TIP3    H138823   0.386   0.271   5.439
12960TIP3    H238824   0.529   0.313   5.409
12961TIP3   OH238825   2.632   4.072   6.541
12961TIP3    H138826   2.684   4.048   6.618
12961TIP3    H238827   2.541   4.062   6.570
12962TIP3   OH238828   5.617   3.034   2.195
12962TIP3    H138829   5.617   3.110   2.136
12962TIP3    H238830   5.700   3.040   2.242
12963TIP3   OH238831   5.553   7.624   5.509
12963TIP3    H138832   5.488   7.611   5.578
12963TIP3    H238833   5.633   7.648   5.555
12964TIP3   OH238834   0.284   7.253   0.447
12964TIP3    H138835   0.212   7.221   0.501
12964TIP3    H238836   0.241   7.287   0.368
12965TIP3   OH238837   4.790   5.751   2.276
12965TIP3    H138838   4.768   5.739   2.183
12965TIP3    H238839   4.796   5.662   2.311
12966TIP3   OH238840   0.225   4.277   4.953
12966TIP3    H138841   0.264   4.201   4.996
12966TIP3    H238842   0.249   4.267   4.861
12967TIP3   OH238843   7.562   2.118   1.332
12967TIP3    H138844   7.598   2.178   1.267
12967TIP3    H238845   7.631   2.052   1.344
12968TIP3   OH238846   1.323   1.651   5.333
12968TIP3    H138847   1.401   1.670   5.385
12968TIP3    H238848   1.333   1.705   5.255
12969TIP3   OH238849   3.419   6.578   6.421
12969TIP3    H138850   3.372   6.579   6.338
12969TIP3    H238851   3.397   6.662   6.461
12970TIP3   OH238852   4.008   6.166   1.355
12970TIP3    H138853   4.042   6.206   1.434
12970TIP3    H238854   4.085   6.150   1.300
12971TIP3   OH238855   2.725   7.772   4.200
12971TIP3    H138856   2.714   7.852   4.252
12971TIP3    H238857   2.657   7.713   4.233
12972TIP3   OH238858   2.018   4.308   6.338
12972TIP3    H138859   2.016   4.219   6.373
12972TIP3    H238860   1.925   4.330   6.325
12973TIP3   OH238861   3.897   5.395   1.397
12973TIP3    H138862   3.839   5.454   1.445
12973TIP3    H238863   3.838   5.342   1.343
12974TIP3   OH238864   4.886   1.916   2.080
12974TIP3    H138865   4.823   1.972   2.126
12974TIP3    H238866   4.940   1.977   2.030
12975TIP3   OH238867   4.948   4.454   6.502
12975TIP3    H138868   4.861   4.493   6.497
12975TIP3    H238869   4.994   4.507   6.567
12976TIP3   OH238870   1.993   0.308   5.761
12976TIP3    H138871   2.033   0.233   5.716
12976TIP3    H238872   1.988   0.376   5.693
12977TIP3   OH238873   7.917   5.320   4.968
12977TIP3    H138874   7.842   5.380   4.969
12977TIP3    H238875   7.881   5.236   4.997
12978TIP3   OH238876   4.673   1.733   1.722
12978TIP3    H138877   4.596   1.715   1.669
12978TIP3    H238878   4.729   1.657   1.710
12979TIP3   OH238879   1.352   2.163   3.545
12979TIP3    H138880   1.377   2.072   3.560
12979TIP3    H238881   1.274   2.176   3.599
12980TIP3   OH238882   7.613   7.620   6.149
12980TIP3    H138883   7.645   7.675   6.221
12980TIP3    H238884   7.588   7.683   6.081
12981TIP3   OH238885   2.474   3.945   3.436
12981TIP3    H138886   2.390   3.935   3.392
12981TIP3    H238887   2.473   4.035   3.469
12982TIP3   OH238888   4.217   3.824   3.828
12982TIP3    H138889   4.122   3.828   3.819
12982TIP3    H238890   4.232   3.831   3.922
12983TIP3   OH238891   0.549   4.089   0.545
12983TIP3    H138892   0.593   4.092   0.460
12983TIP3    H238893   0.568   4.001   0.577
12984TIP3   OH238894   0.958   5.676   5.221
12984TIP3    H138895   0.875   5.722   5.231
12984TIP3    H238896   0.987   5.698   5.133
12985TIP3   OH238897   4.158   1.803   6.241
12985TIP3    H138898   4.101   1.826   6.315
12985TIP3    H238899   4.195   1.886   6.212
12986TIP3   OH238900   4.253   0.624   0.923
12986TIP3    H138901   4.163   0.621   0.957
12986TIP3    H238902   4.272   0.535   0.896
12987TIP3   OH238903   6.662   5.098   3.459
12987TIP3    H138904   6.684   5.028   3.520
12987TIP3    H238905   6.585   5.141   3.497
12988TIP3   OH238906   2.987   3.791   3.374
12988TIP3    H138907   3.048   3.804   3.446
12988TIP3    H238908   2.904   3.826   3.407
12989TIP3   OH238909   7.440   0.323   1.017
12989TIP3    H138910   7.468   0.409   0.984
12989TIP3    H238911   7.393   0.283   0.945
12990TIP3   OH238912   0.811   0.340   6.494
12990TIP3    H138913   0.800   0.368   6.403
12990TIP3    H238914   0.885   0.391   6.526
12991TIP3   OH238915   3.411   0.205   4.404
12991TIP3    H138916   3.482   0.201   4.468
12991TIP3    H238917   3.449   0.168   4.324
12992TIP3   OH238918   0.947   7.106   0.513
12992TIP3    H138919   1.015   7.173   0.523
12992TIP3    H238920   0.890   7.141   0.445
12993TIP3   OH238921   2.982   2.505   4.968
12993TIP3    H138922   2.986   2.417   5.005
12993TIP3    H238923   2.894   2.536   4.989
12994TIP3   OH238924   1.070   0.656   2.758
12994TIP3    H138925   1.102   0.587   2.699
12994TIP3    H238926   1.093   0.626   2.846
12995TIP3   OH238927   7.330   2.153   5.193
12995TIP3    H138928   7.399   2.206   5.232
12995TIP3    H238929   7.345   2.160   5.098
12996TIP3   OH238930   5.741   0.341   2.471
12996TIP3    H138931   5.810   0.366   2.410
12996TIP3    H238932   5.781   0.275   2.527
12997TIP3   OH238933   0.420   7.110   4.701
12997TIP3    H138934   0.338   7.158   4.716
12997TIP3    H238935   0.451   7.087   4.788
12998TIP3   OH238936   1.843   0.776   3.993
12998TIP3    H138937   1.938   0.781   4.004
12998TIP3    H238938   1.818   0.864   3.965
12999TIP3   OH238939   5.323   4.919   3.544
12999TIP3    H138940   5.416   4.901   3.555
12999TIP3    H238941   5.281   4.876   3.619
13000TIP3   OH238942   0.610   6.729   1.584
13000TIP3    H138943   0.550   6.689   1.522
13000TIP3    H238944   0.578   6.819   1.593
13001TIP3   OH238945   5.212   3.161   5.063
13001TIP3    H138946   5.138   3.162   5.002
13001TIP3    H238947   5.220   3.252   5.093
13002TIP3   OH238948   6.789   3.081   2.058
13002TIP3    H138949   6.878   3.047   2.068
13002TIP3    H238950   6.746   3.017   2.001
13003TIP3   OH238951   8.109   4.202   4.346
13003TIP3    H138952   8.109   4.110   4.373
13003TIP3    H238953   8.174   4.206   4.276
13004TIP3   OH238954   5.067   6.932   4.352
13004TIP3    H138955   5.065   6.870   4.425
13004TIP3    H238956   5.107   6.884   4.280
13005TIP3   OH238957   2.030   6.310   3.870
13005TIP3    H138958   2.121   6.341   3.876
13005TIP3    H238959   2.036   6.216   3.884
13006TIP3   OH238960   1.588   5.436   5.806
13006TIP3    H138961   1.556   5.444   5.716
13006TIP3    H238962   1.597   5.526   5.837
13007TIP3   OH238963   0.441   2.373   5.766
13007TIP3    H138964   0.412   2.394   5.677
13007TIP3    H238965   0.515   2.313   5.754
13008TIP3   OH238966   4.580   3.912   0.362
13008TIP3    H138967   4.522   3.938   0.291
13008TIP3    H238968   4.586   3.989   0.419
13009TIP3   OH238969   3.235   0.816   4.256
13009TIP3    H138970   3.188   0.777   4.183
13009TIP3    H238971   3.328   0.802   4.235
13010TIP3   OH238972   4.848   6.384   3.550
13010TIP3    H138973   4.790   6.455   3.579
13010TIP3    H238974   4.826   6.371   3.458
13011TIP3   OH238975   1.706   7.775   5.095
13011TIP3    H138976   1.658   7.729   5.026
13011TIP3    H238977   1.648   7.847   5.121
13012TIP3   OH238978   0.527   2.213   2.569
13012TIP3    H138979   0.607   2.161   2.566
13012TIP3    H238980   0.522   2.244   2.660
13013TIP3   OH238981   4.895   5.052   1.167
13013TIP3    H138982   4.888   4.992   1.093
13013TIP3    H238983   4.828   5.118   1.150
13014TIP3   OH238984   2.059   4.178   6.050
13014TIP3    H138985   2.133   4.214   6.099
13014TIP3    H238986   2.094   4.162   5.962
13015TIP3   OH238987   5.893   0.856   1.733
13015TIP3    H138988   5.837   0.792   1.690
13015TIP3    H238989   5.979   0.843   1.693
13016TIP3   OH238990   6.899   1.674   3.385
13016TIP3    H138991   6.892   1.697   3.477
13016TIP3    H238992   6.966   1.733   3.351
13017TIP3   OH238993   6.316   4.386   5.856
13017TIP3    H138994   6.339   4.377   5.948
13017TIP3    H238995   6.369   4.319   5.812
13018TIP3   OH238996   3.079   6.392   5.909
13018TIP3    H138997   3.078   6.470   5.965
13018TIP3    H238998   3.107   6.322   5.967
13019TIP3   OH238999   2.399   7.710   0.091
13019TIP3    H139000   2.463   7.691   0.022
13019TIP3    H239001   2.444   7.769   0.151
13020TIP3   OH239002   1.507   6.418   3.437
13020TIP3    H139003   1.426   6.380   3.402
13020TIP3    H239004   1.507   6.394   3.529
13021TIP3   OH239005   3.465   6.352   6.563
13021TIP3    H139006   3.527   6.378   6.631
13021TIP3    H239007   3.431   6.435   6.529
13022TIP3   OH239008   3.013   3.058   0.738
13022TIP3    H139009   3.049   2.988   0.684
13022TIP3    H239010   3.078   3.128   0.732
13023TIP3   OH239011   1.534   2.680   3.869
13023TIP3    H139012   1.562   2.589   3.857
13023TIP3    H239013   1.616   2.729   3.876
13024TIP3   OH239014   6.387   5.527   0.910
13024TIP3    H139015   6.396   5.503   0.818
13024TIP3    H239016   6.474   5.512   0.947
13025TIP3   OH239017   3.135   5.846  -0.015
13025TIP3    H139018   3.221   5.812   0.011
13025TIP3    H239019   3.084   5.846   0.066
13026TIP3   OH239020   7.728   0.695   0.784
13026TIP3    H139021   7.680   0.750   0.723
13026TIP3    H239022   7.796   0.752   0.819
13027TIP3   OH239023   2.872   7.707   0.348
13027TIP3    H139024   2.925   7.762   0.407
13027TIP3    H239025   2.782   7.740   0.360
13028TIP3   OH239026   2.145   1.263   4.237
13028TIP3    H139027   2.235   1.284   4.262
13028TIP3    H239028   2.123   1.187   4.290
13029TIP3   OH239029   2.268   1.634   2.281
13029TIP3    H139030   2.293   1.543   2.265
13029TIP3    H239031   2.188   1.647   2.229
13030TIP3   OH239032   5.499   4.602   5.131
13030TIP3    H139033   5.496   4.650   5.214
13030TIP3    H239034   5.454   4.658   5.069
13031TIP3   OH239035   2.304   0.117   4.955
13031TIP3    H139036   2.350   0.135   4.873
13031TIP3    H239037   2.211   0.118   4.930
13032TIP3   OH239038   7.785   2.008   3.665
13032TIP3    H139039   7.857   1.945   3.665
13032TIP3    H239040   7.826   2.090   3.638
13033TIP3   OH239041   3.867   4.407   5.945
13033TIP3    H139042   3.793   4.355   5.977
13033TIP3    H239043   3.942   4.348   5.955
13034TIP3   OH239044   5.498   3.509   1.641
13034TIP3    H139045   5.447   3.536   1.718
13034TIP3    H239046   5.439   3.454   1.590
13035TIP3   OH239047   1.196   1.065   5.406
13035TIP3    H139048   1.229   1.058   5.317
13035TIP3    H239049   1.216   0.981   5.447
13036TIP3   OH239050   6.672   7.268   6.302
13036TIP3    H139051   6.727   7.335   6.341
13036TIP3    H239052   6.585   7.309   6.295
13037TIP3   OH239053   0.738   7.778   2.404
13037TIP3    H139054   0.648   7.753   2.422
13037TIP3    H239055   0.758   7.738   2.319
13038TIP3   OH239056   2.841   7.569   1.169
13038TIP3    H139057   2.751   7.568   1.136
13038TIP3    H239058   2.892   7.605   1.097
13039TIP3   OH239059   4.844  -0.027   4.794
13039TIP3    H139060   4.855   0.061   4.828
13039TIP3    H239061   4.855  -0.018   4.699
13040TIP3   OH239062   5.726   6.330   0.507
13040TIP3    H139063   5.637   6.293   0.511
13040TIP3    H239064   5.715   6.414   0.462
13041TIP3   OH239065   3.548   1.817   4.058
13041TIP3    H139066   3.491   1.765   4.001
13041TIP3    H239067   3.594   1.753   4.111
13042TIP3   OH239068   6.349   5.773   5.403
13042TIP3    H139069   6.253   5.772   5.409
13042TIP3    H239070   6.376   5.685   5.431
13043TIP3   OH239071   5.836   0.228   2.745
13043TIP3    H139072   5.878   0.227   2.832
13043TIP3    H239073   5.797   0.315   2.738
13044TIP3   OH239074   3.409   3.837   0.278
13044TIP3    H139075   3.448   3.807   0.360
13044TIP3    H239076   3.474   3.817   0.211
13045TIP3   OH239077   3.266   0.641   0.839
13045TIP3    H139078   3.212   0.717   0.859
13045TIP3    H239079   3.334   0.641   0.906
13046TIP3   OH239080   1.349   4.902   5.083
13046TIP3    H139081   1.423   4.891   5.142
13046TIP3    H239082   1.280   4.940   5.139
13047TIP3   OH239083   5.226   3.447   6.080
13047TIP3    H139084   5.190   3.500   6.009
13047TIP3    H239085   5.303   3.405   6.041
13048TIP3   OH239086   0.282   5.959   0.577
13048TIP3    H139087   0.339   5.927   0.507
13048TIP3    H239088   0.219   5.888   0.591
13049TIP3   OH239089   6.582   3.648   5.348
13049TIP3    H139090   6.650   3.634   5.414
13049TIP3    H239091   6.534   3.725   5.379
13050TIP3   OH239092   7.920   4.228   1.097
13050TIP3    H139093   7.914   4.170   1.173
13050TIP3    H239094   7.931   4.169   1.022
13051TIP3   OH239095   0.782   7.166   6.055
13051TIP3    H139096   0.702   7.199   6.096
13051TIP3    H239097   0.802   7.086   6.103
13052TIP3   OH239098   0.739   0.158   1.865
13052TIP3    H139099   0.756   0.128   1.776
13052TIP3    H239100   0.645   0.171   1.868
13053TIP3   OH239101   6.673   2.149   1.895
13053TIP3    H139102   6.684   2.138   1.990
13053TIP3    H239103   6.731   2.222   1.873
13054TIP3   OH239104   4.737   2.254   6.376
13054TIP3    H139105   4.730   2.303   6.295
13054TIP3    H239106   4.745   2.163   6.348
13055TIP3   OH239107   3.006   3.027   6.204
13055TIP3    H139108   3.093   3.025   6.165
13055TIP3    H239109   2.957   2.959   6.158
13056TIP3   OH239110   1.964   5.243   3.100
13056TIP3    H139111   1.949   5.337   3.085
13056TIP3    H239112   1.975   5.206   3.013
13057TIP3   OH239113   5.635   5.302   5.123
13057TIP3    H139114   5.630   5.398   5.122
13057TIP3    H239115   5.546   5.274   5.145
13058TIP3   OH239116   0.608   2.864   2.585
13058TIP3    H139117   0.698   2.832   2.575
13058TIP3    H239118   0.557   2.785   2.605
13059TIP3   OH239119   6.045   7.834   4.671
13059TIP3    H139120   5.983   7.775   4.629
13059TIP3    H239121   6.112   7.776   4.707
13060TIP3   OH239122   0.008   2.693   3.386
13060TIP3    H139123  -0.027   2.663   3.471
13060TIP3    H239124   0.082   2.635   3.370
13061TIP3   OH239125   1.211   6.828   0.632
13061TIP3    H139126   1.121   6.818   0.600
13061TIP3    H239127   1.220   6.921   0.650
13062TIP3   OH239128   0.380   0.514   4.271
13062TIP3    H139129   0.287   0.526   4.290
13062TIP3    H239130   0.390   0.540   4.180
13063TIP3   OH239131   4.879   0.070   3.519
13063TIP3    H139132   4.972   0.082   3.500
13063TIP3    H239133   4.834   0.131   3.460
13064TIP3   OH239134   2.263   1.368   5.993
13064TIP3    H139135   2.349   1.401   6.020
13064TIP3    H239136   2.212   1.367   6.074
13065TIP3   OH239137   3.765   3.966   2.087
13065TIP3    H139138   3.769   3.975   1.992
13065TIP3    H239139   3.688   3.912   2.102
13066TIP3   OH239140   6.435   4.189   5.714
13066TIP3    H139141   6.515   4.234   5.689
13066TIP3    H239142   6.382   4.188   5.634
13067TIP3   OH239143   6.568   2.964   0.316
13067TIP3    H139144   6.563   2.937   0.408
13067TIP3    H239145   6.496   2.918   0.274
13068TIP3   OH239146   0.820   2.781   4.886
13068TIP3    H139147   0.839   2.713   4.821
13068TIP3    H239148   0.727   2.799   4.875
13069TIP3   OH239149   4.307   2.633   3.754
13069TIP3    H139150   4.222   2.594   3.773
13069TIP3    H239151   4.370   2.564   3.776
13070TIP3   OH239152   6.117   7.233   4.054
13070TIP3    H139153   6.145   7.141   4.062
13070TIP3    H239154   6.158   7.276   4.129
13071TIP3   OH239155   1.068   4.758   4.012
13071TIP3    H139156   1.134   4.728   4.074
13071TIP3    H239157   1.119   4.800   3.942
13072TIP3   OH239158   7.585   0.961   5.239
13072TIP3    H139159   7.496   0.944   5.208
13072TIP3    H239160   7.628   0.876   5.235
13073TIP3   OH239161   1.618   3.847   3.387
13073TIP3    H139162   1.693   3.889   3.344
13073TIP3    H239163   1.647   3.758   3.404
13074TIP3   OH239164   0.420   7.295   6.690
13074TIP3    H139165   0.325   7.286   6.679
13074TIP3    H239166   0.450   7.338   6.610
13075TIP3   OH239167   1.623   7.728   2.851
13075TIP3    H139168   1.552   7.664   2.854
13075TIP3    H239169   1.578   7.813   2.848
13076TIP3   OH239170   0.288   7.021   5.489
13076TIP3    H139171   0.282   6.971   5.407
13076TIP3    H239172   0.335   6.963   5.549
13077TIP3   OH239173   7.988   4.533   3.237
13077TIP3    H139174   7.927   4.479   3.186
13077TIP3    H239175   7.933   4.577   3.301
13078TIP3   OH239176   6.989   1.668   2.318
13078TIP3    H139177   6.930   1.660   2.244
13078TIP3    H239178   7.036   1.751   2.303
13079TIP3   OH239179   7.639   3.749   0.284
13079TIP3    H139180   7.617   3.767   0.193
13079TIP3    H239181   7.574   3.797   0.335
13080TIP3   OH239182   7.469   5.707   2.178
13080TIP3    H139183   7.525   5.641   2.219
13080TIP3    H239184   7.523   5.786   2.176
13081TIP3   OH239185   6.546   2.688   2.267
13081TIP3    H139186   6.596   2.763   2.300
13081TIP3    H239187   6.461   2.695   2.309
13082TIP3   OH239188   0.400   4.603   1.005
13082TIP3    H139189   0.436   4.515   0.990
13082TIP3    H239190   0.306   4.593   0.990
13083TIP3   OH239191   2.211   2.663   1.276
13083TIP3    H139192   2.194   2.595   1.211
13083TIP3    H239193   2.257   2.618   1.347
13084TIP3   OH239194   6.402   2.413   4.489
13084TIP3    H139195   6.370   2.464   4.415
13084TIP3    H239196   6.389   2.322   4.463
13085TIP3   OH239197   4.652   6.235   0.623
13085TIP3    H139198   4.673   6.219   0.531
13085TIP3    H239199   4.708   6.308   0.649
13086TIP3   OH239200   6.601   6.385   6.190
13086TIP3    H139201   6.683   6.387   6.239
13086TIP3    H239202   6.596   6.295   6.155
13087TIP3   OH239203   4.807   6.538   0.964
13087TIP3    H139204   4.813   6.450   0.927
13087TIP3    H239205   4.721   6.541   1.005
13088TIP3   OH239206   0.673   1.771   2.281
13088TIP3    H139207   0.718   1.855   2.290
13088TIP3    H239208   0.652   1.746   2.371
13089TIP3   OH239209   3.922   2.524   5.907
13089TIP3    H139210   3.941   2.437   5.871
13089TIP3    H239211   3.988   2.581   5.868
13090TIP3   OH239212   7.131   1.165   0.656
13090TIP3    H139213   7.221   1.167   0.688
13090TIP3    H239214   7.121   1.247   0.609
13091TIP3   OH239215   5.409   2.417   0.743
13091TIP3    H139216   5.394   2.397   0.651
13091TIP3    H239217   5.414   2.513   0.745
13092TIP3   OH239218   3.090   0.360   3.078
13092TIP3    H139219   3.109   0.336   3.169
13092TIP3    H239220   2.995   0.361   3.073
13093TIP3   OH239221   7.334   2.044   1.185
13093TIP3    H139222   7.395   2.093   1.241
13093TIP3    H239223   7.389   1.985   1.135
13094TIP3   OH239224   6.647   5.785   0.695
13094TIP3    H139225   6.614   5.822   0.777
13094TIP3    H239226   6.585   5.715   0.673
13095TIP3   OH239227   4.798   7.425   5.161
13095TIP3    H139228   4.747   7.454   5.086
13095TIP3    H239229   4.857   7.498   5.180
13096TIP3   OH239230   3.659   3.550   2.860
13096TIP3    H139231   3.695   3.635   2.834
13096TIP3    H239232   3.569   3.551   2.829
13097TIP3   OH239233   4.241   1.053   4.854
13097TIP3    H139234   4.222   1.037   4.947
13097TIP3    H239235   4.162   1.095   4.820
13098TIP3   OH239236   3.663   5.340   1.995
13098TIP3    H139237   3.678   5.278   1.924
13098TIP3    H239238   3.597   5.401   1.961
13099TIP3   OH239239   5.731   5.068   2.331
13099TIP3    H139240   5.821   5.037   2.315
13099TIP3    H239241   5.676   4.996   2.300
13100TIP3   OH239242   0.816   7.510   1.751
13100TIP3    H139243   0.772   7.432   1.784
13100TIP3    H239244   0.866   7.543   1.826
13101TIP3   OH239245   4.527   2.578   5.611
13101TIP3    H139246   4.447   2.537   5.578
13101TIP3    H239247   4.498   2.640   5.677
13102TIP3   OH239248   1.583   4.071   4.538
13102TIP3    H139249   1.602   4.045   4.628
13102TIP3    H239250   1.632   4.153   4.526
13103TIP3   OH239251   6.350   0.098   3.072
13103TIP3    H139252   6.383   0.039   3.140
13103TIP3    H239253   6.395   0.181   3.087
13104TIP3   OH239254   4.364   7.160   4.642
13104TIP3    H139255   4.384   7.110   4.720
13104TIP3    H239256   4.449   7.189   4.609
13105TIP3   OH239257   3.871   3.695   1.557
13105TIP3    H139258   3.777   3.686   1.538
13105TIP3    H239259   3.895   3.610   1.595
13106TIP3   OH239260   4.085   2.289   2.980
13106TIP3    H139261   4.150   2.359   2.986
13106TIP3    H239262   4.043   2.301   2.895
13107TIP3   OH239263   2.093   6.736   3.257
13107TIP3    H139264   2.077   6.693   3.341
13107TIP3    H239265   2.070   6.670   3.192
13108TIP3   OH239266   5.305   2.155   0.791
13108TIP3    H139267   5.363   2.088   0.757
13108TIP3    H239268   5.343   2.238   0.762
13109TIP3   OH239269   4.567   1.731   4.442
13109TIP3    H139270   4.534   1.686   4.364
13109TIP3    H239271   4.494   1.727   4.504
13110TIP3   OH239272   4.257   2.596   5.252
13110TIP3    H139273   4.220   2.668   5.201
13110TIP3    H239274   4.302   2.542   5.188
13111TIP3   OH239275   2.569   1.482   1.334
13111TIP3    H139276   2.647   1.525   1.298
13111TIP3    H239277   2.573   1.393   1.299
13112TIP3   OH239278   2.129   0.592   3.525
13112TIP3    H139279   2.148   0.501   3.546
13112TIP3    H239280   2.082   0.625   3.602
13113TIP3   OH239281   2.423   6.374   1.966
13113TIP3    H139282   2.411   6.414   1.880
13113TIP3    H239283   2.474   6.439   2.015
13114TIP3   OH239284   6.792   4.739   2.842
13114TIP3    H139285   6.733   4.811   2.865
13114TIP3    H239286   6.858   4.738   2.912
13115TIP3   OH239287   3.811   5.778   0.892
13115TIP3    H139288   3.841   5.868   0.905
13115TIP3    H239289   3.788   5.774   0.799
13116TIP3   OH239290   4.767   2.580   2.045
13116TIP3    H139291   4.823   2.505   2.064
13116TIP3    H239292   4.709   2.588   2.121
13117TIP3   OH239293   5.601   3.836   3.936
13117TIP3    H139294   5.538   3.846   4.008
13117TIP3    H239295   5.564   3.887   3.864
13118TIP3   OH239296   0.551   3.352   0.447
13118TIP3    H139297   0.627   3.345   0.505
13118TIP3    H239298   0.589   3.364   0.360
13119TIP3   OH239299   6.511   7.024   2.715
13119TIP3    H139300   6.506   6.961   2.643
13119TIP3    H239301   6.597   7.064   2.706
13120TIP3   OH239302   4.251   7.309   4.186
13120TIP3    H139303   4.213   7.247   4.123
13120TIP3    H239304   4.246   7.264   4.270
13121TIP3   OH239305   2.059   0.089   4.884
13121TIP3    H139306   2.069  -0.006   4.874
13121TIP3    H239307   2.024   0.118   4.800
13122TIP3   OH239308   8.221   0.916   5.631
13122TIP3    H139309   8.198   0.974   5.558
13122TIP3    H239310   8.249   0.975   5.700
13123TIP3   OH239311   5.114   2.948   0.653
13123TIP3    H139312   5.103   3.042   0.668
13123TIP3    H239313   5.187   2.923   0.710
13124TIP3   OH239314   0.688   7.303   2.765
13124TIP3    H139315   0.727   7.270   2.846
13124TIP3    H239316   0.739   7.261   2.696
13125TIP3   OH239317   8.084   1.903   0.576
13125TIP3    H139318   8.132   1.974   0.618
13125TIP3    H239319   7.998   1.941   0.556
13126TIP3   OH239320   5.562   4.254   6.415
13126TIP3    H139321   5.496   4.300   6.468
13126TIP3    H239322   5.566   4.167   6.452
13127TIP3   OH239323   5.320   0.428   5.940
13127TIP3    H139324   5.407   0.466   5.928
13127TIP3    H239325   5.285   0.472   6.017
13128TIP3   OH239326   4.661   3.319   1.745
13128TIP3    H139327   4.634   3.240   1.698
13128TIP3    H239328   4.625   3.391   1.694
13129TIP3   OH239329   3.277   1.285   0.270
13129TIP3    H139330   3.239   1.201   0.243
13129TIP3    H239331   3.324   1.265   0.351
13130TIP3   OH239332   3.774   6.106   6.463
13130TIP3    H139333   3.752   6.187   6.418
13130TIP3    H239334   3.746   6.037   6.402
13131TIP3   OH239335   6.647   6.994   4.880
13131TIP3    H139336   6.707   6.919   4.875
13131TIP3    H239337   6.692   7.065   4.834
13132TIP3   OH239338   0.090   5.045   5.963
13132TIP3    H139339   0.035   4.969   5.948
13132TIP3    H239340   0.121   5.070   5.876
13133TIP3   OH239341   4.079   3.710   3.277
13133TIP3    H139342   4.013   3.646   3.303
13133TIP3    H239343   4.160   3.659   3.271
13134TIP3   OH239344   6.979   4.537   3.256
13134TIP3    H139345   6.982   4.598   3.183
13134TIP3    H239346   6.965   4.592   3.333
13135TIP3   OH239347   2.088   7.186   0.381
13135TIP3    H139348   2.000   7.163   0.351
13135TIP3    H239349   2.073   7.259   0.442
13136TIP3   OH239350   7.926   5.887   0.490
13136TIP3    H139351   7.896   5.796   0.484
13136TIP3    H239352   7.852   5.934   0.528
13137TIP3   OH239353   6.586   5.561   6.364
13137TIP3    H139354   6.559   5.558   6.456
13137TIP3    H239355   6.553   5.479   6.327
13138TIP3   OH239356   5.590   6.992  -0.011
13138TIP3    H139357   5.611   6.988   0.082
13138TIP3    H239358   5.498   7.018  -0.013
13139TIP3   OH239359   6.128   5.642   4.211
13139TIP3    H139360   6.038   5.645   4.244
13139TIP3    H239361   6.181   5.629   4.290
13140TIP3   OH239362   1.261   4.437   1.602
13140TIP3    H139363   1.208   4.502   1.557
13140TIP3    H239364   1.297   4.382   1.532
13141TIP3   OH239365   0.876   3.982   4.511
13141TIP3    H139366   0.828   3.905   4.541
13141TIP3    H239367   0.898   4.029   4.592
13142TIP3   OH239368   0.281   5.950   6.045
13142TIP3    H139369   0.262   5.902   5.965
13142TIP3    H239370   0.228   5.907   6.112
13143TIP3   OH239371   0.675   2.056   1.731
13143TIP3    H139372   0.668   2.035   1.824
13143TIP3    H239373   0.768   2.074   1.718
13144TIP3   OH239374   7.810   1.087   5.342
13144TIP3    H139375   7.836   1.059   5.254
13144TIP3    H239376   7.715   1.075   5.345
13145TIP3   OH239377   6.344   5.211   4.586
13145TIP3    H139378   6.431   5.228   4.622
13145TIP3    H239379   6.357   5.211   4.491
13146TIP3   OH239380   4.173   0.329   1.764
13146TIP3    H139381   4.268   0.321   1.748
13146TIP3    H239382   4.133   0.283   1.690
13147TIP3   OH239383   8.248   7.712   3.052
13147TIP3    H139384   8.311   7.642   3.038
13147TIP3    H239385   8.279   7.783   2.996
13148TIP3   OH239386   3.639   3.658   2.054
13148TIP3    H139387   3.627   3.575   2.100
13148TIP3    H239388   3.584   3.720   2.102
13149TIP3   OH239389   4.975   1.926   4.387
13149TIP3    H139390   4.993   1.835   4.365
13149TIP3    H239391   5.028   1.976   4.324
13150TIP3   OH239392   6.642   5.686   1.910
13150TIP3    H139393   6.610   5.775   1.925
13150TIP3    H239394   6.599   5.633   1.977
13151TIP3   OH239395   2.636   4.098   6.180
13151TIP3    H139396   2.562   4.150   6.148
13151TIP3    H239397   2.679   4.066   6.101
13152TIP3   OH239398   2.838   0.350   5.431
13152TIP3    H139399   2.792   0.393   5.360
13152TIP3    H239400   2.916   0.404   5.446
13153TIP3   OH239401   3.926   6.099   0.686
13153TIP3    H139402   3.984   6.039   0.639
13153TIP3    H239403   3.850   6.109   0.629
13154TIP3   OH239404   5.096   0.560   1.260
13154TIP3    H139405   5.056   0.646   1.245
13154TIP3    H239406   5.147   0.571   1.340
13155TIP3   OH239407   6.255   0.501   5.954
13155TIP3    H139408   6.269   0.524   5.862
13155TIP3    H239409   6.219   0.580   5.994
13156TIP3   OH239410   3.664   4.836   5.749
13156TIP3    H139411   3.726   4.901   5.717
13156TIP3    H239412   3.606   4.819   5.675
13157TIP3   OH239413   6.008   4.307   2.983
13157TIP3    H139414   5.955   4.285   2.906
13157TIP3    H239415   6.021   4.401   2.977
13158TIP3   OH239416   6.314   5.508   3.784
13158TIP3    H139417   6.221   5.493   3.769
13158TIP3    H239418   6.319   5.547   3.871
13159TIP3   OH239419   1.151   3.353   0.291
13159TIP3    H139420   1.124   3.286   0.227
13159TIP3    H239421   1.071   3.374   0.339
13160TIP3   OH239422   4.977   5.496   6.564
13160TIP3    H139423   5.069   5.497   6.539
13160TIP3    H239424   4.945   5.410   6.537
13161TIP3   OH239425   0.347   2.557   6.215
13161TIP3    H139426   0.258   2.523   6.227
13161TIP3    H239427   0.395   2.484   6.177
13162TIP3   OH239428   2.698   0.994   2.401
13162TIP3    H139429   2.767   1.060   2.399
13162TIP3    H239430   2.695   0.965   2.492
13163TIP3   OH239431   0.488   0.391   1.306
13163TIP3    H139432   0.537   0.473   1.303
13163TIP3    H239433   0.460   0.378   1.215
13164TIP3   OH239434   1.885   3.518   3.236
13164TIP3    H139435   1.850   3.433   3.212
13164TIP3    H239436   1.946   3.540   3.165
13165TIP3   OH239437   0.079   4.817   3.659
13165TIP3    H139438   0.009   4.871   3.623
13165TIP3    H239439   0.154   4.876   3.667
13166TIP3   OH239440   2.808   1.409   2.755
13166TIP3    H139441   2.773   1.470   2.691
13166TIP3    H239442   2.878   1.363   2.709
13167TIP3   OH239443   6.395   1.295   4.906
13167TIP3    H139444   6.321   1.272   4.850
13167TIP3    H239445   6.428   1.377   4.870
13168TIP3   OH239446   2.318   2.923   2.542
13168TIP3    H139447   2.403   2.929   2.586
13168TIP3    H239448   2.330   2.971   2.460
13169TIP3   OH239449   7.228   4.148   2.972
13169TIP3    H139450   7.171   4.071   2.964
13169TIP3    H239451   7.245   4.156   3.065
13170TIP3   OH239452   7.043   0.535   0.975
13170TIP3    H139453   7.058   0.480   0.898
13170TIP3    H239454   7.105   0.608   0.965
13171TIP3   OH239455   3.050   5.341   3.001
13171TIP3    H139456   3.105   5.357   2.924
13171TIP3    H239457   2.961   5.343   2.967
13172TIP3   OH239458   4.169   5.105   1.021
13172TIP3    H139459   4.139   5.015   1.013
13172TIP3    H239460   4.171   5.138   0.931
13173TIP3   OH239461   1.199   6.170   0.232
13173TIP3    H139462   1.119   6.142   0.277
13173TIP3    H239463   1.200   6.265   0.241
13174TIP3   OH239464   2.961   2.051   6.483
13174TIP3    H139465   2.994   2.028   6.570
13174TIP3    H239466   3.039   2.060   6.429
13175TIP3   OH239467   5.798   1.124   5.101
13175TIP3    H139468   5.738   1.050   5.102
13175TIP3    H239469   5.884   1.084   5.087
13176TIP3   OH239470   2.065   2.307   2.740
13176TIP3    H139471   2.105   2.386   2.776
13176TIP3    H239472   2.014   2.271   2.812
13177TIP3   OH239473   7.751   6.844   1.719
13177TIP3    H139474   7.789   6.878   1.639
13177TIP3    H239475   7.699   6.768   1.691
13178TIP3   OH239476   5.311   1.441   1.014
13178TIP3    H139477   5.284   1.364   1.065
13178TIP3    H239478   5.240   1.504   1.026
13179TIP3   OH239479   0.208   5.358   0.901
13179TIP3    H139480   0.159   5.439   0.912
13179TIP3    H239481   0.219   5.324   0.990
13180TIP3   OH239482   5.357   5.235   5.163
13180TIP3    H139483   5.304   5.272   5.092
13180TIP3    H239484   5.322   5.275   5.242
13181TIP3   OH239485   5.904   7.270   4.733
13181TIP3    H139486   5.878   7.201   4.673
13181TIP3    H239487   6.000   7.270   4.729
13182TIP3   OH239488   2.273   3.963   2.138
13182TIP3    H139489   2.357   3.922   2.155
13182TIP3    H239490   2.271   4.039   2.196
13183TIP3   OH239491   6.153   2.839   0.863
13183TIP3    H139492   6.066   2.834   0.901
13183TIP3    H239493   6.198   2.760   0.893
13184TIP3   OH239494   5.841   7.505   0.517
13184TIP3    H139495   5.781   7.575   0.546
13184TIP3    H239496   5.783   7.433   0.492
13185TIP3   OH239497   5.077   1.745   4.705
13185TIP3    H139498   5.103   1.661   4.743
13185TIP3    H239499   4.985   1.733   4.681
13186TIP3   OH239500   3.745   1.038   0.029
13186TIP3    H139501   3.657   1.076   0.033
13186TIP3    H239502   3.798   1.097   0.084
13187TIP3   OH239503   3.332   1.518   2.246
13187TIP3    H139504   3.421   1.537   2.275
13187TIP3    H239505   3.315   1.582   2.177
13188TIP3   OH239506   1.681   7.810   2.415
13188TIP3    H139507   1.775   7.823   2.403
13188TIP3    H239508   1.674   7.739   2.479
13189TIP3   OH239509   1.776   7.525   6.695
13189TIP3    H139510   1.767   7.489   6.607
13189TIP3    H239511   1.843   7.470   6.737
13190TIP3   OH239512   5.801   0.804   0.708
13190TIP3    H139513   5.781   0.734   0.771
13190TIP3    H239514   5.721   0.857   0.705
13191TIP3   OH239515   0.669   7.241   2.193
13191TIP3    H139516   0.719   7.168   2.228
13191TIP3    H239517   0.591   7.245   2.248
13192TIP3   OH239518   6.444   7.552   6.452
13192TIP3    H139519   6.490   7.634   6.434
13192TIP3    H239520   6.450   7.503   6.370
13193TIP3   OH239521   6.909   5.707   0.731
13193TIP3    H139522   6.906   5.689   0.825
13193TIP3    H239523   6.821   5.740   0.710
13194TIP3   OH239524   3.758   1.734   0.105
13194TIP3    H139525   3.767   1.820   0.062
13194TIP3    H239526   3.673   1.738   0.149
13195TIP3   OH239527   3.154   0.051   5.560
13195TIP3    H139528   3.169   0.142   5.586
13195TIP3    H239529   3.240   0.021   5.529
13196TIP3   OH239530   3.538   1.859   2.508
13196TIP3    H139531   3.450   1.820   2.514
13196TIP3    H239532   3.523   1.953   2.515
13197TIP3   OH239533   6.047   3.799   5.864
13197TIP3    H139534   6.116   3.862   5.842
13197TIP3    H239535   6.005   3.836   5.942
13198TIP3   OH239536   2.870   1.304   4.877
13198TIP3    H139537   2.791   1.272   4.920
13198TIP3    H239538   2.942   1.262   4.923
13199TIP3   OH239539   4.595   7.457   6.604
13199TIP3    H139540   4.608   7.366   6.633
13199TIP3    H239541   4.667   7.473   6.543
13200TIP3   OH239542   0.395   4.870   3.608
13200TIP3    H139543   0.490   4.880   3.603
13200TIP3    H239544   0.379   4.838   3.697
13201TIP3   OH239545   5.981   0.314   6.303
13201TIP3    H139546   5.975   0.401   6.263
13201TIP3    H239547   6.001   0.256   6.229
13202TIP3   OH239548   6.673   2.524   1.504
13202TIP3    H139549   6.651   2.609   1.542
13202TIP3    H239550   6.766   2.530   1.485
13203TIP3   OH239551   1.542   2.770   4.713
13203TIP3    H139552   1.550   2.675   4.707
13203TIP3    H239553   1.451   2.788   4.692
13204TIP3   OH239554   7.952   4.129   5.163
13204TIP3    H139555   7.986   4.202   5.215
13204TIP3    H239556   7.892   4.169   5.100
13205TIP3   OH239557   6.960   6.816   6.084
13205TIP3    H139558   6.990   6.861   6.163
13205TIP3    H239559   6.885   6.764   6.114
13206TIP3   OH239560   5.403   6.256   6.592
13206TIP3    H139561   5.365   6.170   6.577
13206TIP3    H239562   5.349   6.294   6.661
13207TIP3   OH239563   7.367   0.695   0.651
13207TIP3    H139564   7.446   0.643   0.639
13207TIP3    H239565   7.316   0.681   0.571
13208TIP3   OH239566   2.324   0.357   6.036
13208TIP3    H139567   2.378   0.293   5.990
13208TIP3    H239568   2.364   0.366   6.122
13209TIP3   OH239569   4.101   0.684   1.630
13209TIP3    H139570   4.099   0.771   1.589
13209TIP3    H239571   4.183   0.645   1.599
13210TIP3   OH239572   5.573   7.493   1.905
13210TIP3    H139573   5.518   7.505   1.982
13210TIP3    H239574   5.585   7.581   1.869
13211TIP3   OH239575   1.259   5.857   6.336
13211TIP3    H139576   1.287   5.928   6.393
13211TIP3    H239577   1.244   5.783   6.396
13212TIP3   OH239578   3.200   7.107   3.974
13212TIP3    H139579   3.205   7.063   3.889
13212TIP3    H239580   3.223   7.039   4.037
13213TIP3   OH239581   5.372   1.241   5.981
13213TIP3    H139582   5.310   1.168   5.973
13213TIP3    H239583   5.365   1.268   6.073
13214TIP3   OH239584   1.278   0.530   4.255
13214TIP3    H139585   1.294   0.489   4.170
13214TIP3    H239586   1.278   0.624   4.237
13215TIP3   OH239587   2.082   1.837   1.430
13215TIP3    H139588   1.997   1.876   1.410
13215TIP3    H239589   2.061   1.755   1.475
13216TIP3   OH239590   1.840   7.016   2.233
13216TIP3    H139591   1.821   7.089   2.175
13216TIP3    H239592   1.884   6.952   2.177
13217TIP3   OH239593   2.857   4.554   4.284
13217TIP3    H139594   2.840   4.466   4.252
13217TIP3    H239595   2.952   4.560   4.292
13218TIP3   OH239596   7.851   1.034   4.070
13218TIP3    H139597   7.786   0.996   4.010
13218TIP3    H239598   7.877   1.116   4.028
13219TIP3   OH239599   4.133   6.910   3.176
13219TIP3    H139600   4.112   6.888   3.267
13219TIP3    H239601   4.175   6.996   3.182
13220TIP3   OH239602   6.831   2.228   4.903
13220TIP3    H139603   6.895   2.231   4.973
13220TIP3    H239604   6.781   2.148   4.919
13221TIP3   OH239605   1.270   7.110   4.941
13221TIP3    H139606   1.227   7.045   4.885
13221TIP3    H239607   1.248   7.083   5.030
13222TIP3   OH239608   3.548   1.207   3.388
13222TIP3    H139609   3.541   1.281   3.448
13222TIP3    H239610   3.631   1.166   3.410
13223TIP3   OH239611   3.632   0.649   6.711
13223TIP3    H139612   3.697   0.715   6.736
13223TIP3    H239613   3.607   0.673   6.622
13224TIP3   OH239614   1.110   6.063   2.185
13224TIP3    H139615   1.133   6.033   2.098
13224TIP3    H239616   1.168   6.138   2.201
13225TIP3   OH239617   2.461   3.599   5.467
13225TIP3    H139618   2.544   3.646   5.461
13225TIP3    H239619   2.422   3.609   5.381
13226TIP3   OH239620   2.923   0.993   4.772
13226TIP3    H139621   2.884   1.017   4.857
13226TIP3    H239622   3.013   0.969   4.793
13227TIP3   OH239623   0.744   6.289   5.794
13227TIP3    H139624   0.649   6.285   5.806
13227TIP3    H239625   0.758   6.263   5.703
13228TIP3   OH239626   4.310   1.585   2.926
13228TIP3    H139627   4.288   1.496   2.953
13228TIP3    H239628   4.374   1.573   2.855
13229TIP3   OH239629   2.606   6.619   4.722
13229TIP3    H139630   2.673   6.571   4.772
13229TIP3    H239631   2.526   6.570   4.738
13230TIP3   OH239632   6.882   3.602   0.992
13230TIP3    H139633   6.830   3.535   1.036
13230TIP3    H239634   6.931   3.555   0.925
13231TIP3   OH239635   6.655   5.429   4.187
13231TIP3    H139636   6.691   5.409   4.100
13231TIP3    H239637   6.620   5.346   4.218
13232TIP3   OH239638   7.502   6.842   0.071
13232TIP3    H139639   7.567   6.781   0.106
13232TIP3    H239640   7.454   6.873   0.148
13233TIP3   OH239641   7.778   1.924   6.044
13233TIP3    H139642   7.799   1.832   6.062
13233TIP3    H239643   7.787   1.932   5.949
13234TIP3   OH239644   4.674   4.984   2.375
13234TIP3    H139645   4.707   4.935   2.450
13234TIP3    H239646   4.742   5.049   2.357
13235TIP3   OH239647   1.868   3.691   2.938
13235TIP3    H139648   1.878   3.627   2.868
13235TIP3    H239649   1.936   3.756   2.921
13236TIP3   OH239650   2.145   2.273   2.156
13236TIP3    H139651   2.131   2.213   2.228
13236TIP3    H239652   2.065   2.325   2.151
13237TIP3   OH239653   7.739   3.286   1.372
13237TIP3    H139654   7.823   3.323   1.344
13237TIP3    H239655   7.707   3.240   1.295
13238TIP3   OH239656   0.420   4.101   4.440
13238TIP3    H139657   0.398   4.023   4.490
13238TIP3    H239658   0.336   4.133   4.408
13239TIP3   OH239659   8.180   4.331   0.445
13239TIP3    H139660   8.249   4.387   0.409
13239TIP3    H239661   8.225   4.278   0.511
13240TIP3   OH239662   4.534   1.066   6.221
13240TIP3    H139663   4.485   0.987   6.199
13240TIP3    H239664   4.586   1.041   6.297
13241TIP3   OH239665   5.483   4.480   6.655
13241TIP3    H139666   5.464   4.519   6.570
13241TIP3    H239667   5.526   4.549   6.704
13242TIP3   OH239668   1.322   1.371   5.043
13242TIP3    H139669   1.296   1.327   5.124
13242TIP3    H239670   1.411   1.340   5.026
13243TIP3   OH239671   7.672   6.404   3.860
13243TIP3    H139672   7.577   6.406   3.869
13243TIP3    H239673   7.705   6.423   3.948
13244TIP3   OH239674   5.599   0.670   0.914
13244TIP3    H139675   5.524   0.617   0.942
13244TIP3    H239676   5.592   0.673   0.818
13245TIP3   OH239677   4.418   4.774   0.131
13245TIP3    H139678   4.337   4.777   0.081
13245TIP3    H239679   4.486   4.755   0.065
13246TIP3   OH239680   2.449   4.892   6.526
13246TIP3    H139681   2.431   4.824   6.592
13246TIP3    H239682   2.402   4.863   6.448
13247TIP3   OH239683   3.871   5.852   1.420
13247TIP3    H139684   3.819   5.874   1.342
13247TIP3    H239685   3.951   5.812   1.386
13248TIP3   OH239686   4.342   3.501   2.229
13248TIP3    H139687   4.435   3.506   2.250
13248TIP3    H239688   4.320   3.586   2.192
13249TIP3   OH239689   3.460   2.833   1.364
13249TIP3    H139690   3.535   2.848   1.422
13249TIP3    H239691   3.432   2.743   1.384
13250TIP3   OH239692   2.562   0.530   0.799
13250TIP3    H139693   2.492   0.569   0.851
13250TIP3    H239694   2.544   0.436   0.801
13251TIP3   OH239695   2.124   5.867   1.350
13251TIP3    H139696   2.159   5.779   1.358
13251TIP3    H239697   2.177   5.920   1.410
13252TIP3   OH239698   1.289   1.354   5.312
13252TIP3    H139699   1.357   1.307   5.360
13252TIP3    H239700   1.298   1.445   5.341
13253TIP3   OH239701   4.136   1.832   5.963
13253TIP3    H139702   4.192   1.768   5.919
13253TIP3    H239703   4.150   1.816   6.057
13254TIP3   OH239704   2.903   4.993   4.694
13254TIP3    H139705   2.829   4.937   4.672
13254TIP3    H239706   2.897   5.006   4.788
13255TIP3   OH239707   6.474   4.382   1.737
13255TIP3    H139708   6.411   4.423   1.678
13255TIP3    H239709   6.439   4.295   1.754
13256TIP3   OH239710   0.136   7.566   5.998
13256TIP3    H139711   0.060   7.574   5.941
13256TIP3    H239712   0.211   7.582   5.940
13257TIP3   OH239713   8.151   7.093   6.292
13257TIP3    H139714   8.113   7.057   6.212
13257TIP3    H239715   8.124   7.185   6.293
13258TIP3   OH239716   1.905   6.389   0.671
13258TIP3    H139717   1.861   6.432   0.745
13258TIP3    H239718   1.853   6.415   0.594
13259TIP3   OH239719   2.897   0.761   4.607
13259TIP3    H139720   2.903   0.845   4.653
13259TIP3    H239721   2.820   0.719   4.645
13260TIP3   OH239722   7.430   5.371   1.697
13260TIP3    H139723   7.399   5.372   1.788
13260TIP3    H239724   7.354   5.398   1.646
13261TIP3   OH239725   0.452   2.029   0.686
13261TIP3    H139726   0.391   1.962   0.658
13261TIP3    H239727   0.402   2.085   0.745
13262TIP3   OH239728   5.539   1.861   2.091
13262TIP3    H139729   5.609   1.816   2.045
13262TIP3    H239730   5.462   1.804   2.079
13263TIP3   OH239731   6.053   0.027   6.119
13263TIP3    H139732   6.115   0.086   6.077
13263TIP3    H239733   6.103  -0.052   6.138
13264TIP3   OH239734   1.363   7.162   0.396
13264TIP3    H139735   1.454   7.151   0.425
13264TIP3    H239736   1.366   7.238   0.338
13265TIP3   OH239737   1.372   7.101   1.376
13265TIP3    H139738   1.393   7.191   1.402
13265TIP3    H239739   1.302   7.075   1.436
13266TIP3   OH239740   8.063   7.441   5.493
13266TIP3    H139741   7.982   7.398   5.519
13266TIP3    H239742   8.048   7.468   5.402
13267TIP3   OH239743   6.113   3.695   5.405
13267TIP3    H139744   6.201   3.733   5.398
13267TIP3    H239745   6.110   3.631   5.333
13268TIP3   OH239746   0.417   1.613   5.993
13268TIP3    H139747   0.505   1.644   5.973
13268TIP3    H239748   0.425   1.567   6.076
13269TIP3   OH239749   3.322   2.897   1.809
13269TIP3    H139750   3.309   2.953   1.886
13269TIP3    H239751   3.245   2.841   1.807
13270TIP3   OH239752   5.417   7.752   6.467
13270TIP3    H139753   5.351   7.786   6.407
13270TIP3    H239754   5.367   7.705   6.533
13271TIP3   OH239755   6.068   6.789   5.242
13271TIP3    H139756   6.122   6.710   5.241
13271TIP3    H239757   6.074   6.823   5.152
13272TIP3   OH239758   0.952   7.667   2.543
13272TIP3    H139759   0.919   7.595   2.597
13272TIP3    H239760   0.874   7.706   2.504
13273TIP3   OH239761   2.833   6.461   6.622
13273TIP3    H139762   2.789   6.448   6.706
13273TIP3    H239763   2.922   6.488   6.645
13274TIP3   OH239764   2.778   4.986   1.865
13274TIP3    H139765   2.775   4.913   1.926
13274TIP3    H239766   2.844   4.961   1.801
13275TIP3   OH239767   3.791   4.124   4.766
13275TIP3    H139768   3.792   4.075   4.848
13275TIP3    H239769   3.777   4.215   4.793
13276TIP3   OH239770   4.694   1.788   5.247
13276TIP3    H139771   4.771   1.796   5.304
13276TIP3    H239772   4.708   1.706   5.200
13277TIP3   OH239773   4.714   6.797   4.795
13277TIP3    H139774   4.625   6.769   4.816
13277TIP3    H239775   4.742   6.846   4.873
13278TIP3   OH239776   1.816   4.272   4.026
13278TIP3    H139777   1.805   4.335   4.097
13278TIP3    H239778   1.871   4.317   3.961
13279TIP3   OH239779   5.462   6.397   3.242
13279TIP3    H139780   5.532   6.462   3.249
13279TIP3    H239781   5.477   6.337   3.314
13280TIP3   OH239782   5.247   5.360   3.276
13280TIP3    H139783   5.304   5.288   3.303
13280TIP3    H239784   5.173   5.356   3.337
13281TIP3   OH239785   6.167   3.640   5.665
13281TIP3    H139786   6.130   3.664   5.579
13281TIP3    H239787   6.108   3.680   5.728
13282TIP3   OH239788   3.757   2.599   0.265
13282TIP3    H139789   3.793   2.655   0.196
13282TIP3    H239790   3.810   2.519   0.260
13283TIP3   OH239791   2.588   5.524   0.704
13283TIP3    H139792   2.552   5.435   0.710
13283TIP3    H239793   2.616   5.545   0.793
13284TIP3   OH239794   6.519   6.461   3.136
13284TIP3    H139795   6.499   6.529   3.072
13284TIP3    H239796   6.433   6.434   3.170
13285TIP3   OH239797   4.754   5.737   2.964
13285TIP3    H139798   4.714   5.818   2.931
13285TIP3    H239799   4.681   5.689   3.003
13286TIP3   OH239800   1.705   2.855   3.540
13286TIP3    H139801   1.787   2.821   3.577
13286TIP3    H239802   1.701   2.818   3.452
13287TIP3   OH239803   1.749   2.880   5.129
13287TIP3    H139804   1.806   2.936   5.077
13287TIP3    H239805   1.697   2.942   5.181
13288TIP3   OH239806   5.080   1.974   2.919
13288TIP3    H139807   5.092   2.042   2.985
13288TIP3    H239808   5.169   1.950   2.892
13289TIP3   OH239809   4.463   4.874   2.022
13289TIP3    H139810   4.516   4.880   1.942
13289TIP3    H239811   4.390   4.816   1.998
13290TIP3   OH239812   6.945   7.100   3.921
13290TIP3    H139813   6.854   7.078   3.906
13290TIP3    H239814   6.967   7.160   3.849
13291TIP3   OH239815   2.299   7.672   4.932
13291TIP3    H139816   2.233   7.708   4.874
13291TIP3    H239817   2.249   7.624   4.998
13292TIP3   OH239818   6.758   1.123   0.135
13292TIP3    H139819   6.811   1.179   0.191
13292TIP3    H239820   6.757   1.038   0.179
13293TIP3   OH239821   6.659   4.388   0.364
13293TIP3    H139822   6.733   4.391   0.304
13293TIP3    H239823   6.698   4.372   0.450
13294TIP3   OH239824   4.820   6.795   2.490
13294TIP3    H139825   4.799   6.748   2.570
13294TIP3    H239826   4.735   6.816   2.452
13295TIP3   OH239827   3.913   6.408   5.832
13295TIP3    H139828   3.882   6.429   5.744
13295TIP3    H239829   3.847   6.349   5.868
13296TIP3   OH239830   6.733   6.465   3.347
13296TIP3    H139831   6.706   6.384   3.389
13296TIP3    H239832   6.680   6.469   3.267
13297TIP3   OH239833   7.636   3.267   1.622
13297TIP3    H139834   7.675   3.290   1.538
13297TIP3    H239835   7.618   3.351   1.664
13298TIP3   OH239836   7.633   2.175   0.497
13298TIP3    H139837   7.705   2.236   0.481
13298TIP3    H239838   7.574   2.223   0.554
13299TIP3   OH239839   4.062   6.561   2.725
13299TIP3    H139840   4.123   6.558   2.799
13299TIP3    H239841   4.041   6.654   2.715
13300TIP3   OH239842   0.879   4.762   3.665
13300TIP3    H139843   0.925   4.691   3.709
13300TIP3    H239844   0.946   4.827   3.646
13301TIP3   OH239845   3.038   4.490   5.343
13301TIP3    H139846   3.067   4.563   5.398
13301TIP3    H239847   3.044   4.524   5.253
13302TIP3   OH239848   7.467   0.177   4.368
13302TIP3    H139849   7.425   0.109   4.315
13302TIP3    H239850   7.496   0.131   4.447
13303TIP3   OH239851   5.105   2.708   2.420
13303TIP3    H139852   5.031   2.762   2.392
13303TIP3    H239853   5.140   2.754   2.496
13304TIP3   OH239854   1.815   5.856   6.446
13304TIP3    H139855   1.786   5.774   6.486
13304TIP3    H239856   1.905   5.868   6.478
13305TIP3   OH239857   2.040   5.019   1.326
13305TIP3    H139858   2.087   5.095   1.290
13305TIP3    H239859   1.961   5.056   1.365
13306TIP3   OH239860   5.846   1.500   0.323
13306TIP3    H139861   5.774   1.531   0.378
13306TIP3    H239862   5.879   1.423   0.368
13307TIP3   OH239863   2.578   2.877   3.526
13307TIP3    H139864   2.660   2.925   3.521
13307TIP3    H239865   2.511   2.943   3.507
13308TIP3   OH239866   0.737   6.336   0.545
13308TIP3    H139867   0.680   6.271   0.506
13308TIP3    H239868   0.820   6.291   0.558
13309TIP3   OH239869   2.268   7.632   2.646
13309TIP3    H139870   2.293   7.569   2.713
13309TIP3    H239871   2.189   7.674   2.681
13310TIP3   OH239872   6.316   4.788   0.192
13310TIP3    H139873   6.260   4.773   0.268
13310TIP3    H239874   6.369   4.708   0.184
13311TIP3   OH239875   4.369   5.015   6.422
13311TIP3    H139876   4.448   5.069   6.413
13311TIP3    H239877   4.378   4.974   6.508
13312TIP3   OH239878   0.817   6.415   3.771
13312TIP3    H139879   0.765   6.492   3.746
13312TIP3    H239880   0.906   6.449   3.781
13313TIP3   OH239881   2.514   5.865   6.058
13313TIP3    H139882   2.547   5.824   5.978
13313TIP3    H239883   2.525   5.798   6.125
13314TIP3   OH239884   3.120   3.266   4.933
13314TIP3    H139885   3.124   3.230   5.022
13314TIP3    H239886   3.199   3.233   4.890
13315TIP3   OH239887   1.783   5.351   2.876
13315TIP3    H139888   1.775   5.277   2.936
13315TIP3    H239889   1.813   5.423   2.931
13316TIP3   OH239890   5.125   2.967   0.290
13316TIP3    H139891   5.049   2.978   0.347
13316TIP3    H239892   5.191   2.924   0.345
13317TIP3   OH239893   2.535   0.688   3.107
13317TIP3    H139894   2.547   0.761   3.047
13317TIP3    H239895   2.523   0.729   3.192
13318TIP3   OH239896   0.089   1.542   5.784
13318TIP3    H139897   0.118   1.570   5.871
13318TIP3    H239898   0.156   1.480   5.756
13319TIP3   OH239899   4.871   5.192   4.402
13319TIP3    H139900   4.777   5.201   4.421
13319TIP3    H239901   4.905   5.281   4.404
13320TIP3   OH239902   3.396   1.767   5.773
13320TIP3    H139903   3.384   1.824   5.697
13320TIP3    H239904   3.489   1.742   5.770
13321TIP3   OH239905   0.389   0.081   4.377
13321TIP3    H139906   0.445   0.104   4.303
13321TIP3    H239907   0.437   0.111   4.454
13322TIP3   OH239908   3.105   4.482   1.670
13322TIP3    H139909   3.170   4.533   1.621
13322TIP3    H239910   3.133   4.391   1.659
13323TIP3   OH239911   5.090   0.371   6.447
13323TIP3    H139912   5.112   0.437   6.513
13323TIP3    H239913   5.124   0.289   6.482
13324TIP3   OH239914   1.984   2.371   1.318
13324TIP3    H139915   1.954   2.458   1.345
13324TIP3    H239916   2.016   2.331   1.398
13325TIP3   OH239917   0.479   2.884   1.669
13325TIP3    H139918   0.421   2.888   1.593
13325TIP3    H239919   0.431   2.832   1.734
13326TIP3   OH239920   0.358   3.547   4.180
13326TIP3    H139921   0.325   3.599   4.108
13326TIP3    H239922   0.453   3.560   4.178
13327TIP3   OH239923   5.179   7.792   5.624
13327TIP3    H139924   5.137   7.718   5.580
13327TIP3    H239925   5.161   7.867   5.567
13328TIP3   OH239926   1.079   1.666   5.456
13328TIP3    H139927   1.151   1.648   5.396
13328TIP3    H239928   1.112   1.734   5.515
13329TIP3   OH239929   4.987   1.944   5.233
13329TIP3    H139930   5.025   1.884   5.168
13329TIP3    H239931   4.913   1.984   5.187
13330TIP3   OH239932   1.045   5.155   2.066
13330TIP3    H139933   1.137   5.129   2.065
13330TIP3    H239934   1.007   5.107   2.140
13331TIP3   OH239935   5.616   3.833   2.635
13331TIP3    H139936   5.579   3.849   2.722
13331TIP3    H239937   5.561   3.763   2.599
13332TIP3   OH239938   5.343   1.666   3.799
13332TIP3    H139939   5.387   1.644   3.881
13332TIP3    H239940   5.351   1.587   3.745
13333TIP3   OH239941   1.769   5.939   4.372
13333TIP3    H139942   1.726   5.855   4.387
13333TIP3    H239943   1.850   5.933   4.423
13334TIP3   OH239944   7.544   2.040   2.188
13334TIP3    H139945   7.612   2.107   2.184
13334TIP3    H239946   7.462   2.089   2.195
13335TIP3   OH239947   2.404   2.560   5.280
13335TIP3    H139948   2.498   2.555   5.297
13335TIP3    H239949   2.389   2.497   5.210
13336TIP3   OH239950   0.955   6.846   0.258
13336TIP3    H139951   0.970   6.767   0.309
13336TIP3    H239952   0.861   6.862   0.266
13337TIP3   OH239953   6.262   3.388   1.801
13337TIP3    H139954   6.334   3.399   1.862
13337TIP3    H239955   6.299   3.409   1.715
13338TIP3   OH239956   8.057   7.269   0.130
13338TIP3    H139957   8.027   7.329   0.061
13338TIP3    H239958   8.141   7.235   0.099
13339TIP3   OH239959   0.429   0.680   0.317
13339TIP3    H139960   0.386   0.598   0.341
13339TIP3    H239961   0.429   0.681   0.222
13340TIP3   OH239962   7.589   3.184   2.838
13340TIP3    H139963   7.518   3.134   2.878
13340TIP3    H239964   7.578   3.171   2.744
13341TIP3   OH239965   7.363   3.901   3.154
13341TIP3    H139966   7.331   3.895   3.064
13341TIP3    H239967   7.377   3.810   3.180
13342TIP3   OH239968   5.740   5.373   2.369
13342TIP3    H139969   5.828   5.335   2.371
13342TIP3    H239970   5.682   5.300   2.392
13343TIP3   OH239971   2.778   6.627   3.093
13343TIP3    H139972   2.848   6.589   3.146
13343TIP3    H239973   2.711   6.559   3.090
13344TIP3   OH239974   1.567   7.250   6.546
13344TIP3    H139975   1.495   7.265   6.485
13344TIP3    H239976   1.641   7.297   6.508
13345TIP3   OH239977   0.173   1.594   4.443
13345TIP3    H139978   0.132   1.680   4.440
13345TIP3    H239979   0.149   1.553   4.359
13346TIP3   OH239980   6.148   0.763   1.627
13346TIP3    H139981   6.115   0.677   1.654
13346TIP3    H239982   6.241   0.748   1.609
13347TIP3   OH239983   4.102   5.179   2.438
13347TIP3    H139984   4.178   5.195   2.382
13347TIP3    H239985   4.049   5.259   2.430
13348TIP3   OH239986   6.173   2.747   5.571
13348TIP3    H139987   6.252   2.757   5.625
13348TIP3    H239988   6.203   2.763   5.481
13349TIP3   OH239989   0.339   3.180   4.315
13349TIP3    H139990   0.269   3.216   4.261
13349TIP3    H239991   0.420   3.211   4.273
13350TIP3   OH239992   7.491   2.201   3.488
13350TIP3    H139993   7.495   2.115   3.531
13350TIP3    H239994   7.516   2.182   3.397
13351TIP3   OH239995   2.281   0.860   3.566
13351TIP3    H139996   2.231   0.787   3.601
13351TIP3    H239997   2.226   0.937   3.582
13352TIP3   OH239998   3.914   6.598   1.296
13352TIP3    H139999   3.996   6.635   1.328
13352TIP3    H240000   3.883   6.542   1.367
13353TIP3   OH240001   1.604   1.309   5.085
13353TIP3    H140002   1.661   1.276   5.154
13353TIP3    H240003   1.644   1.277   5.004
13354TIP3   OH240004   7.228   4.944   4.565
13354TIP3    H140005   7.270   4.886   4.502
13354TIP3    H240006   7.153   4.981   4.518
13355TIP3   OH240007   7.363   7.672   4.065
13355TIP3    H140008   7.361   7.652   3.972
13355TIP3    H240009   7.314   7.601   4.106
13356TIP3   OH240010   1.085   0.960   3.071
13356TIP3    H140011   1.105   0.968   2.978
13356TIP3    H240012   1.007   0.906   3.074
13357TIP3   OH240013   7.317   7.408   2.814
13357TIP3    H140014   7.237   7.357   2.822
13357TIP3    H240015   7.288   7.498   2.800
13358TIP3   OH240016   3.455   6.256   0.392
13358TIP3    H140017   3.476   6.168   0.423
13358TIP3    H240018   3.465   6.312   0.469
13359TIP3   OH240019   4.554   0.309   5.930
13359TIP3    H140020   4.587   0.226   5.896
13359TIP3    H240021   4.479   0.285   5.984
13360TIP3   OH240022   6.934   5.978   1.181
13360TIP3    H140023   6.893   6.057   1.144
13360TIP3    H240024   6.896   5.906   1.131
13361TIP3   OH240025   6.509   2.739   4.582
13361TIP3    H140026   6.582   2.697   4.627
13361TIP3    H240027   6.431   2.711   4.631
13362TIP3   OH240028   8.019   0.008   1.694
13362TIP3    H140029   8.107   0.030   1.726
13362TIP3    H240030   7.992   0.086   1.644
13363TIP3   OH240031   4.591   3.678   4.377
13363TIP3    H140032   4.576   3.659   4.469
13363TIP3    H240033   4.662   3.618   4.352
13364TIP3   OH240034   8.249   1.791   4.396
13364TIP3    H140035   8.243   1.871   4.344
13364TIP3    H240036   8.159   1.775   4.425
13365TIP3   OH240037   6.212   3.927   1.899
13365TIP3    H140038   6.219   3.867   1.973
13365TIP3    H240039   6.155   3.882   1.837
13366TIP3   OH240040   5.146   5.783   1.282
13366TIP3    H140041   5.218   5.734   1.322
13366TIP3    H240042   5.189   5.847   1.226
13367TIP3   OH240043   7.923   4.131   3.841
13367TIP3    H140044   7.847   4.180   3.811
13367TIP3    H240045   7.969   4.107   3.761
13368TIP3   OH240046   5.224   2.000   5.487
13368TIP3    H140047   5.257   1.916   5.454
13368TIP3    H240048   5.131   1.999   5.466
13369TIP3   OH240049   5.036   7.618   2.679
13369TIP3    H140050   4.940   7.613   2.681
13369TIP3    H240051   5.065   7.527   2.679
13370TIP3   OH240052   5.842   3.072   0.734
13370TIP3    H140053   5.771   3.019   0.699
13370TIP3    H240054   5.894   3.012   0.786
13371TIP3   OH240055   7.904   7.159   5.384
13371TIP3    H140056   7.908   7.171   5.479
13371TIP3    H240057   7.830   7.100   5.370
13372TIP3   OH240058   1.992   1.661   5.578
13372TIP3    H140059   2.016   1.731   5.517
13372TIP3    H240060   2.076   1.628   5.611
13373TIP3   OH240061   5.639   0.923   2.257
13373TIP3    H140062   5.587   0.850   2.290
13373TIP3    H240063   5.707   0.883   2.203
13374TIP3   OH240064   0.648   4.249   1.502
13374TIP3    H140065   0.566   4.270   1.547
13374TIP3    H240066   0.620   4.201   1.424
13375TIP3   OH240067   1.250   4.939   0.566
13375TIP3    H140068   1.339   4.918   0.592
13375TIP3    H240069   1.256   4.963   0.473
13376TIP3   OH240070   4.546   4.165   5.607
13376TIP3    H140071   4.579   4.244   5.564
13376TIP3    H240072   4.479   4.131   5.547
13377TIP3   OH240073   1.160   0.659   2.200
13377TIP3    H140074   1.255   0.664   2.189
13377TIP3    H240075   1.142   0.565   2.210
13378TIP3   OH240076   1.264   3.093   3.054
13378TIP3    H140077   1.240   3.181   3.082
13378TIP3    H240078   1.296   3.105   2.964
13379TIP3   OH240079   2.470   2.709   2.421
13379TIP3    H140080   2.431   2.785   2.463
13379TIP3    H240081   2.562   2.732   2.409
13380TIP3   OH240082   1.960   2.942   1.879
13380TIP3    H140083   1.968   2.989   1.962
13380TIP3    H240084   1.944   2.851   1.904
13381TIP3   OH240085   6.829   1.304   5.178
13381TIP3    H140086   6.924   1.291   5.178
13381TIP3    H240087   6.796   1.236   5.120
13382TIP3   OH240088   7.628   7.042   3.332
13382TIP3    H140089   7.673   7.057   3.415
13382TIP3    H240090   7.595   7.128   3.306
13383TIP3   OH240091   2.804   6.877   4.311
13383TIP3    H140092   2.898   6.864   4.305
13383TIP3    H240093   2.783   6.859   4.403
13384TIP3   OH240094   0.632   3.100   2.741
13384TIP3    H140095   0.620   3.063   2.829
13384TIP3    H240096   0.625   3.025   2.682
13385TIP3   OH240097   5.369   5.748   2.446
13385TIP3    H140098   5.362   5.653   2.437
13385TIP3    H240099   5.406   5.778   2.363
13386TIP3   OH240100   6.773   6.202   4.719
13386TIP3    H140101   6.801   6.166   4.803
13386TIP3    H240102   6.784   6.297   4.729
13387TIP3   OH240103   2.847   1.075   3.445
13387TIP3    H140104   2.915   1.020   3.406
13387TIP3    H240105   2.784   1.089   3.374
13388TIP3   OH240106   0.467   1.933   1.610
13388TIP3    H140107   0.467   1.868   1.679
13388TIP3    H240108   0.541   1.990   1.631
13389TIP3   OH240109   0.108   2.103   4.603
13389TIP3    H140110   0.150   2.119   4.519
13389TIP3    H240111   0.019   2.137   4.594
13390TIP3   OH240112   4.722   6.404   6.627
13390TIP3    H140113   4.706   6.365   6.712
13390TIP3    H240114   4.816   6.391   6.611
13391TIP3   OH240115   3.015   2.821   4.245
13391TIP3    H140116   3.065   2.844   4.324
13391TIP3    H240117   2.959   2.748   4.272
13392TIP3   OH240118   6.085   2.729   3.430
13392TIP3    H140119   6.147   2.800   3.443
13392TIP3    H240120   6.121   2.680   3.356
13393TIP3   OH240121   3.012   2.634   6.390
13393TIP3    H140122   2.978   2.570   6.452
13393TIP3    H240123   3.045   2.705   6.445
13394TIP3   OH240124   6.801   6.261   6.637
13394TIP3    H140125   6.832   6.220   6.717
13394TIP3    H240126   6.830   6.203   6.567
13395TIP3   OH240127   6.741   1.600   5.294
13395TIP3    H140128   6.809   1.668   5.291
13395TIP3    H240129   6.779   1.527   5.245
13396TIP3   OH240130   0.016   2.482   5.373
13396TIP3    H140131  -0.034   2.523   5.443
13396TIP3    H240132   0.084   2.432   5.418
13397TIP3   OH240133   5.334   2.290   0.482
13397TIP3    H140134   5.251   2.336   0.493
13397TIP3    H240135   5.358   2.306   0.390
13398TIP3   OH240136   7.266   0.714   6.352
13398TIP3    H140137   7.326   0.785   6.328
13398TIP3    H240138   7.266   0.656   6.276
13399TIP3   OH240139   2.147   6.764   4.239
13399TIP3    H140140   2.070   6.796   4.285
13399TIP3    H240141   2.198   6.842   4.220
13400TIP3   OH240142   1.804   4.936   3.122
13400TIP3    H140143   1.881   4.962   3.172
13400TIP3    H240144   1.767   5.018   3.090
13401TIP3   OH240145   5.636   4.654   4.445
13401TIP3    H140146   5.625   4.560   4.459
13401TIP3    H240147   5.702   4.680   4.510
13402TIP3   OH240148   2.431   5.224   2.098
13402TIP3    H140149   2.417   5.265   2.183
13402TIP3    H240150   2.527   5.217   2.090
13403TIP3   OH240151   2.879   3.538   6.298
13403TIP3    H140152   2.936   3.521   6.373
13403TIP3    H240153   2.868   3.452   6.257
13404TIP3   OH240154   0.587   3.673   5.849
13404TIP3    H140155   0.545   3.606   5.902
13404TIP3    H240156   0.621   3.737   5.912
13405TIP3   OH240157   5.016   1.109   6.407
13405TIP3    H140158   5.055   1.051   6.473
13405TIP3    H240159   5.024   1.196   6.445
13406TIP3   OH240160   3.966   6.522   0.081
13406TIP3    H140161   3.982   6.614   0.061
13406TIP3    H240162   3.950   6.481  -0.004
13407TIP3   OH240163   5.878   5.719   5.179
13407TIP3    H140164   5.929   5.651   5.135
13407TIP3    H240165   5.791   5.681   5.190
13408TIP3   OH240166   3.484   5.622   0.676
13408TIP3    H140167   3.433   5.599   0.598
13408TIP3    H240168   3.476   5.545   0.733
13409TIP3   OH240169   1.488   5.229   4.713
13409TIP3    H140170   1.434   5.154   4.738
13409TIP3    H240171   1.450   5.259   4.630
13410TIP3   OH240172   3.457   4.017   1.175
13410TIP3    H140173   3.406   3.942   1.146
13410TIP3    H240174   3.392   4.087   1.185
13411TIP3   OH240175   4.428   0.143   4.430
13411TIP3    H140176   4.383   0.068   4.469
13411TIP3    H240177   4.394   0.147   4.340
13412TIP3   OH240178   3.814   2.216   5.362
13412TIP3    H140179   3.770   2.135   5.338
13412TIP3    H240180   3.784   2.280   5.297
13413TIP3   OH240181   3.393   4.335   2.840
13413TIP3    H140182   3.320   4.338   2.901
13413TIP3    H240183   3.443   4.258   2.865
13414TIP3   OH240184   1.989   6.954   3.362
13414TIP3    H140185   1.910   6.909   3.391
13414TIP3    H240186   2.046   6.883   3.332
13415TIP3   OH240187   4.648   0.445   1.502
13415TIP3    H140188   4.676   0.482   1.585
13415TIP3    H240189   4.669   0.511   1.437
13416TIP3   OH240190   1.526   6.520   0.996
13416TIP3    H140191   1.451   6.527   1.054
13416TIP3    H240192   1.596   6.569   1.040
13417TIP3   OH240193   3.634   5.146   3.975
13417TIP3    H140194   3.623   5.053   3.954
13417TIP3    H240195   3.560   5.189   3.933
13418TIP3   OH240196   0.847   0.248   0.828
13418TIP3    H140197   0.941   0.264   0.814
13418TIP3    H240198   0.845   0.187   0.902
13419TIP3   OH240199   2.405   6.956   1.390
13419TIP3    H140200   2.347   7.026   1.419
13419TIP3    H240201   2.480   6.962   1.450
13420TIP3   OH240202   7.028   0.382   6.732
13420TIP3    H140203   6.988   0.323   6.796
13420TIP3    H240204   6.965   0.454   6.724
13421TIP3   OH240205   0.743   0.583   3.256
13421TIP3    H140206   0.716   0.495   3.282
13421TIP3    H240207   0.839   0.582   3.263
13422TIP3   OH240208   6.992   5.725   6.247
13422TIP3    H140209   7.059   5.786   6.216
13422TIP3    H240210   6.943   5.775   6.313
13423TIP3   OH240211   8.021   1.850   1.860
13423TIP3    H140212   8.050   1.934   1.895
13423TIP3    H240213   8.092   1.821   1.804
13424TIP3   OH240214   1.381   0.129   3.148
13424TIP3    H140215   1.367   0.063   3.216
13424TIP3    H240216   1.434   0.085   3.082
13425TIP3   OH240217   2.967   2.231   1.805
13425TIP3    H140218   3.040   2.207   1.749
13425TIP3    H240219   2.889   2.202   1.757
13426TIP3   OH240220   2.341   7.483   4.442
13426TIP3    H140221   2.321   7.516   4.529
13426TIP3    H240222   2.269   7.514   4.388
13427TIP3   OH240223   0.308   1.969   5.940
13427TIP3    H140224   0.403   1.959   5.943
13427TIP3    H240225   0.294   2.064   5.948
13428TIP3   OH240226   1.798   2.021   3.838
13428TIP3    H140227   1.724   2.010   3.898
13428TIP3    H240228   1.778   2.102   3.791
13429TIP3   OH240229   1.460   7.145   0.857
13429TIP3    H140230   1.487   7.054   0.851
13429TIP3    H240231   1.416   7.152   0.942
13430TIP3   OH240232   3.026   6.802   0.727
13430TIP3    H140233   2.971   6.750   0.668
13430TIP3    H240234   3.066   6.868   0.670
13431TIP3   OH240235   1.353   3.701   1.586
13431TIP3    H140236   1.406   3.739   1.515
13431TIP3    H240237   1.291   3.771   1.609
13432TIP3   OH240238   3.365   0.738   1.838
13432TIP3    H140239   3.328   0.812   1.792
13432TIP3    H240240   3.305   0.722   1.911
13433TIP3   OH240241   7.988   4.669   1.806
13433TIP3    H140242   8.002   4.745   1.750
13433TIP3    H240243   7.895   4.671   1.827
13434TIP3   OH240244   2.824   3.583   0.258
13434TIP3    H140245   2.848   3.669   0.292
13434TIP3    H240246   2.900   3.528   0.279
13435TIP3   OH240247   6.951   2.951   4.719
13435TIP3    H140248   6.861   2.944   4.749
13435TIP3    H240249   6.959   2.884   4.651
13436TIP3   OH240250   4.342   2.568   2.738
13436TIP3    H140251   4.354   2.572   2.643
13436TIP3    H240252   4.417   2.617   2.773
13437TIP3   OH240253   7.594   1.877   5.123
13437TIP3    H140254   7.671   1.872   5.066
13437TIP3    H240255   7.609   1.956   5.176
13438TIP3   OH240256   1.652   2.102   0.315
13438TIP3    H140257   1.705   2.146   0.249
13438TIP3    H240258   1.572   2.077   0.269
13439TIP3   OH240259   0.597   2.549   3.881
13439TIP3    H140260   0.594   2.644   3.893
13439TIP3    H240261   0.530   2.530   3.816
13440TIP3   OH240262   1.791   5.498   3.905
13440TIP3    H140263   1.831   5.445   3.974
13440TIP3    H240264   1.797   5.588   3.937
13441TIP3   OH240265   4.750   0.040   2.140
13441TIP3    H140266   4.724   0.040   2.232
13441TIP3    H240267   4.684  -0.012   2.096
13442TIP3   OH240268   2.624   2.617   3.471
13442TIP3    H140269   2.590   2.610   3.560
13442TIP3    H240270   2.619   2.711   3.450
13443TIP3   OH240271   5.242   3.873   0.958
13443TIP3    H140272   5.211   3.912   1.040
13443TIP3    H240273   5.325   3.831   0.980
13444TIP3   OH240274   1.718   7.443   2.794
13444TIP3    H140275   1.740   7.511   2.857
13444TIP3    H240276   1.708   7.363   2.846
13445TIP3   OH240277   5.278   1.024   1.410
13445TIP3    H140278   5.366   0.986   1.411
13445TIP3    H240279   5.293   1.118   1.425
13446TIP3   OH240280   0.174   4.507   2.252
13446TIP3    H140281   0.172   4.602   2.238
13446TIP3    H240282   0.249   4.476   2.200
13447TIP3   OH240283   5.561   0.987   1.352
13447TIP3    H140284   5.635   1.040   1.321
13447TIP3    H240285   5.590   0.897   1.339
13448TIP3   OH240286   6.865   2.537   5.057
13448TIP3    H140287   6.899   2.556   5.145
13448TIP3    H240288   6.845   2.443   5.060
13449TIP3   OH240289   4.362   6.040   2.085
13449TIP3    H140290   4.406   6.121   2.112
13449TIP3    H240291   4.433   5.983   2.055
13450TIP3   OH240292   0.799   5.676   2.158
13450TIP3    H140293   0.884   5.634   2.151
13450TIP3    H240294   0.817   5.769   2.140
13451TIP3   OH240295   5.702   0.409   0.383
13451TIP3    H140296   5.649   0.455   0.448
13451TIP3    H240297   5.639   0.370   0.323
13452TIP3   OH240298   4.173   5.799   1.541
13452TIP3    H140299   4.108   5.786   1.610
13452TIP3    H240300   4.173   5.717   1.492
13453TIP3   OH240301   5.868   6.500   6.590
13453TIP3    H140302   5.784   6.536   6.618
13453TIP3    H240303   5.889   6.548   6.510
13454TIP3   OH240304   3.400   1.105   3.112
13454TIP3    H140305   3.471   1.053   3.151
13454TIP3    H240306   3.327   1.093   3.173
13455TIP3   OH240307   3.506   1.753   1.475
13455TIP3    H140308   3.557   1.745   1.556
13455TIP3    H240309   3.552   1.697   1.412
13456TIP3   OH240310   5.553   6.240   1.285
13456TIP3    H140311   5.484   6.303   1.267
13456TIP3    H240312   5.561   6.239   1.380
13457TIP3   OH240313   7.795   7.511   5.238
13457TIP3    H140314   7.826   7.561   5.163
13457TIP3    H240315   7.822   7.421   5.220
13458TIP3   OH240316   2.279   1.792   1.842
13458TIP3    H140317   2.186   1.811   1.832
13458TIP3    H240318   2.317   1.814   1.757
13459TIP3   OH240319   3.474   2.878   4.462
13459TIP3    H140320   3.385   2.908   4.483
13459TIP3    H240321   3.475   2.872   4.367
13460TIP3   OH240322   7.197   6.581   4.127
13460TIP3    H140323   7.265   6.624   4.179
13460TIP3    H240324   7.217   6.488   4.134
13461TIP3   OH240325   6.160   6.690   0.591
13461TIP3    H140326   6.070   6.658   0.586
13461TIP3    H240327   6.165   6.733   0.677
13462TIP3   OH240328   5.347   3.853   2.076
13462TIP3    H140329   5.402   3.803   2.017
13462TIP3    H240330   5.406   3.918   2.114
13463TIP3   OH240331   5.738   2.247   2.600
13463TIP3    H140332   5.813   2.225   2.655
13463TIP3    H240333   5.701   2.325   2.641
13464TIP3   OH240334   5.560   5.203   4.200
13464TIP3    H140335   5.654   5.194   4.183
13464TIP3    H240336   5.552   5.189   4.295
13465TIP3   OH240337   4.184   0.124   3.549
13465TIP3    H140338   4.247   0.178   3.597
13465TIP3    H240339   4.204   0.034   3.577
13466TIP3   OH240340   6.530   5.235   1.970
13466TIP3    H140341   6.481   5.197   1.897
13466TIP3    H240342   6.620   5.206   1.956
13467TIP3   OH240343   6.587   2.564   4.164
13467TIP3    H140344   6.626   2.519   4.089
13467TIP3    H240345   6.657   2.618   4.199
13468TIP3   OH240346   6.566   5.408   3.834
13468TIP3    H140347   6.484   5.457   3.826
13468TIP3    H240348   6.542   5.318   3.816
13469TIP3   OH240349   4.710   3.491   0.171
13469TIP3    H140350   4.625   3.515   0.207
13469TIP3    H240351   4.773   3.516   0.238
13470TIP3   OH240352   6.777   0.574   0.942
13470TIP3    H140353   6.872   0.571   0.929
13470TIP3    H240354   6.744   0.499   0.893
13471TIP3   OH240355   3.268   0.067   0.991
13471TIP3    H140356   3.184   0.024   1.000
13471TIP3    H240357   3.258   0.149   1.040
13472TIP3   OH240358   4.201   3.941   3.184
13472TIP3    H140359   4.199   3.928   3.279
13472TIP3    H240360   4.225   3.856   3.148
13473TIP3   OH240361   1.907   4.655   6.123
13473TIP3    H140362   1.820   4.664   6.084
13473TIP3    H240363   1.891   4.658   6.218
13474TIP3   OH240364   0.696   6.137   3.955
13474TIP3    H140365   0.714   6.227   3.982
13474TIP3    H240366   0.614   6.143   3.905
13475TIP3   OH240367   4.495   5.458   5.194
13475TIP3    H140368   4.463   5.475   5.105
13475TIP3    H240369   4.463   5.370   5.215
13476TIP3   OH240370   7.573   5.966   2.153
13476TIP3    H140371   7.498   6.006   2.108
13476TIP3    H240372   7.647   6.022   2.130
13477TIP3   OH240373   5.460   4.027   1.352
13477TIP3    H140374   5.534   4.063   1.401
13477TIP3    H240375   5.391   4.093   1.361
13478TIP3   OH240376   6.363   4.111   6.692
13478TIP3    H140377   6.360   4.020   6.722
13478TIP3    H240378   6.407   4.107   6.607
13479TIP3   OH240379   2.041   3.645   5.112
13479TIP3    H140380   1.966   3.649   5.170
13479TIP3    H240381   2.005   3.622   5.027
13480TIP3   OH240382   0.495   5.915   0.381
13480TIP3    H140383   0.574   5.868   0.354
13480TIP3    H240384   0.521   6.007   0.379
13481TIP3   OH240385   3.846   4.311   0.301
13481TIP3    H140386   3.900   4.390   0.295
13481TIP3    H240387   3.817   4.295   0.212
13482TIP3   OH240388   2.897   7.031   5.842
13482TIP3    H140389   2.955   6.978   5.787
13482TIP3    H240390   2.809   7.007   5.814
13483TIP3   OH240391   7.948   5.317   0.274
13483TIP3    H140392   8.035   5.329   0.311
13483TIP3    H240393   7.957   5.339   0.181
13484TIP3   OH240394   2.225   1.902   1.196
13484TIP3    H140395   2.277   1.822   1.196
13484TIP3    H240396   2.168   1.894   1.273
13485TIP3   OH240397   3.278   4.306   5.588
13485TIP3    H140398   3.245   4.372   5.648
13485TIP3    H240399   3.364   4.282   5.623
13486TIP3   OH240400   2.429   2.364   4.676
13486TIP3    H140401   2.467   2.277   4.665
13486TIP3    H240402   2.454   2.411   4.597
13487TIP3   OH240403   8.054   7.349   1.436
13487TIP3    H140404   8.094   7.263   1.452
13487TIP3    H240405   7.990   7.333   1.367
13488TIP3   OH240406   7.728   3.016   1.595
13488TIP3    H140407   7.806   3.032   1.543
13488TIP3    H240408   7.694   3.103   1.617
13489TIP3   OH240409   5.643   3.191   5.531
13489TIP3    H140410   5.612   3.103   5.550
13489TIP3    H240411   5.659   3.230   5.617
13490TIP3   OH240412   7.000   5.212   2.579
13490TIP3    H140413   6.916   5.233   2.538
13490TIP3    H240414   6.976   5.167   2.660
13491TIP3   OH240415   4.130   1.180   6.016
13491TIP3    H140416   4.170   1.117   5.955
13491TIP3    H240417   4.052   1.211   5.970
13492TIP3   OH240418   6.449   3.512   2.248
13492TIP3    H140419   6.359   3.498   2.277
13492TIP3    H240420   6.441   3.539   2.157
13493TIP3   OH240421   1.301   3.421   6.342
13493TIP3    H140422   1.382   3.447   6.298
13493TIP3    H240423   1.296   3.478   6.418
13494TIP3   OH240424   1.141   5.393   4.714
13494TIP3    H140425   1.047   5.385   4.695
13494TIP3    H240426   1.145   5.430   4.802
13495TIP3   OH240427   5.449   1.897   6.161
13495TIP3    H140428   5.433   1.960   6.090
13495TIP3    H240429   5.512   1.835   6.124
13496TIP3   OH240430   7.874   6.174   5.352
13496TIP3    H140431   7.856   6.094   5.401
13496TIP3    H240432   7.968   6.172   5.335
13497TIP3   OH240433   7.890   2.487   1.019
13497TIP3    H140434   7.794   2.479   1.022
13497TIP3    H240435   7.913   2.523   1.104
13498TIP3   OH240436   7.615   4.673   4.480
13498TIP3    H140437   7.659   4.755   4.500
13498TIP3    H240438   7.659   4.641   4.401
13499TIP3   OH240439   2.259   5.919   1.570
13499TIP3    H140440   2.355   5.914   1.563
13499TIP3    H240441   2.232   5.833   1.600
13500TIP3   OH240442   5.149   2.547   5.612
13500TIP3    H140443   5.180   2.493   5.684
13500TIP3    H240444   5.100   2.487   5.555
13501TIP3   OH240445   4.215   4.193   4.640
13501TIP3    H140446   4.254   4.272   4.678
13501TIP3    H240447   4.234   4.199   4.546
13502TIP3   OH240448   3.928   5.680   4.702
13502TIP3    H140449   3.886   5.721   4.777
13502TIP3    H240450   3.914   5.586   4.715
13503TIP3   OH240451   4.889   5.829   2.527
13503TIP3    H140452   4.840   5.815   2.446
13503TIP3    H240453   4.884   5.924   2.542
13504TIP3   OH240454   2.200   0.356   5.431
13504TIP3    H140455   2.251   0.340   5.510
13504TIP3    H240456   2.216   0.279   5.376
13505TIP3   OH240457   0.327   5.208   1.175
13505TIP3    H140458   0.233   5.187   1.177
13505TIP3    H240459   0.366   5.147   1.237
13506TIP3   OH240460   1.791   4.168   6.713
13506TIP3    H140461   1.861   4.161   6.778
13506TIP3    H240462   1.735   4.093   6.731
13507TIP3   OH240463   6.555   5.063   5.543
13507TIP3    H140464   6.574   5.014   5.463
13507TIP3    H240465   6.534   4.996   5.608
13508TIP3   OH240466   7.310   3.969   4.104
13508TIP3    H140467   7.234   3.962   4.048
13508TIP3    H240468   7.384   3.976   4.044
13509TIP3   OH240469   1.100   0.555   3.937
13509TIP3    H140470   1.053   0.562   3.854
13509TIP3    H240471   1.037   0.515   3.997
13510TIP3   OH240472   2.794   4.591   6.326
13510TIP3    H140473   2.825   4.514   6.279
13510TIP3    H240474   2.771   4.558   6.413
13511TIP3   OH240475   3.208   0.479   5.049
13511TIP3    H140476   3.285   0.483   5.105
13511TIP3    H240477   3.242   0.457   4.962
13512TIP3   OH240478   2.879   4.258   4.257
13512TIP3    H140479   2.931   4.184   4.289
13512TIP3    H240480   2.791   4.222   4.244
13513TIP3   OH240481   0.163   6.975   4.481
13513TIP3    H140482   0.107   6.898   4.465
13513TIP3    H240483   0.154   7.028   4.402
13514TIP3   OH240484   2.315   0.133   1.717
13514TIP3    H140485   2.392   0.078   1.701
13514TIP3    H240486   2.292   0.115   1.808
13515TIP3   OH240487   5.098   5.663   4.523
13515TIP3    H140488   5.189   5.637   4.505
13515TIP3    H240489   5.098   5.687   4.615
13516TIP3   OH240490   3.307   2.978   0.052
13516TIP3    H140491   3.334   3.056   0.003
13516TIP3    H240492   3.212   2.980   0.051
13517TIP3   OH240493   7.942   4.524   3.571
13517TIP3    H140494   7.862   4.535   3.622
13517TIP3    H240495   7.937   4.593   3.504
13518TIP3   OH240496   6.459   6.630   0.944
13518TIP3    H140497   6.369   6.598   0.948
13518TIP3    H240498   6.454   6.709   0.889
13519TIP3   OH240499   3.752   2.215   6.457
13519TIP3    H140500   3.791   2.253   6.535
13519TIP3    H240501   3.806   2.247   6.385
13520TIP3   OH240502   3.384   4.898   6.694
13520TIP3    H140503   3.428   4.960   6.636
13520TIP3    H240504   3.300   4.939   6.714
13521TIP3   OH240505   7.283   0.005   6.353
13521TIP3    H140506   7.316   0.084   6.395
13521TIP3    H240507   7.358  -0.054   6.350
13522TIP3   OH240508   7.876   5.609   0.125
13522TIP3    H140509   7.832   5.663   0.191
13522TIP3    H240510   7.805   5.556   0.088
13523TIP3   OH240511   6.395   6.121   3.184
13523TIP3    H140512   6.411   6.114   3.090
13523TIP3    H240513   6.343   6.043   3.206
13524TIP3   OH240514   6.033   6.588   3.502
13524TIP3    H140515   6.087   6.642   3.560
13524TIP3    H240516   5.960   6.645   3.478
13525TIP3   OH240517   3.101   0.499   3.823
13525TIP3    H140518   3.072   0.571   3.879
13525TIP3    H240519   3.124   0.429   3.884
13526TIP3   OH240520   4.801   0.460   2.463
13526TIP3    H140521   4.833   0.372   2.483
13526TIP3    H240522   4.846   0.516   2.527
13527TIP3   OH240523   3.347   1.322   3.972
13527TIP3    H140524   3.398   1.289   4.046
13527TIP3    H240525   3.410   1.367   3.917
13528TIP3   OH240526   7.074   6.741   5.695
13528TIP3    H140527   7.010   6.675   5.668
13528TIP3    H240528   7.143   6.691   5.738
13529TIP3   OH240529   2.820   2.905   5.993
13529TIP3    H140530   2.762   2.850   5.940
13529TIP3    H240531   2.833   2.856   6.073
13530TIP3   OH240532   7.868   5.862   5.114
13530TIP3    H140533   7.846   5.955   5.102
13530TIP3    H240534   7.917   5.859   5.196
13531TIP3   OH240535   4.814   6.264   5.025
13531TIP3    H140536   4.849   6.179   5.053
13531TIP3    H240537   4.723   6.264   5.056
13532TIP3   OH240538   7.892   0.483   1.652
13532TIP3    H140539   7.953   0.546   1.691
13532TIP3    H240540   7.836   0.535   1.596
13533TIP3   OH240541   6.841   4.937   3.215
13533TIP3    H140542   6.749   4.961   3.215
13533TIP3    H240543   6.887   5.019   3.199
13534TIP3   OH240544   5.422   4.771   4.786
13534TIP3    H140545   5.374   4.740   4.863
13534TIP3    H240546   5.510   4.792   4.819
13535TIP3   OH240547   0.776   7.476   5.021
13535TIP3    H140548   0.773   7.414   5.093
13535TIP3    H240549   0.685   7.505   5.011
13536TIP3   OH240550   0.743   1.490   1.532
13536TIP3    H140551   0.776   1.448   1.612
13536TIP3    H240552   0.779   1.437   1.461
13537TIP3   OH240553   5.144   6.140   5.394
13537TIP3    H140554   5.185   6.150   5.308
13537TIP3    H240555   5.059   6.181   5.386
13538TIP3   OH240556   4.369   5.583   4.917
13538TIP3    H140557   4.366   5.641   4.993
13538TIP3    H240558   4.454   5.601   4.877
13539TIP3   OH240559   0.671   3.218   3.619
13539TIP3    H140560   0.698   3.184   3.533
13539TIP3    H240561   0.594   3.272   3.600
13540TIP3   OH240562   1.444   7.382   4.211
13540TIP3    H140563   1.500   7.409   4.138
13540TIP3    H240564   1.504   7.337   4.271
13541TIP3   OH240565   0.536   2.491   3.341
13541TIP3    H140566   0.445   2.500   3.369
13541TIP3    H240567   0.584   2.553   3.397
13542TIP3   OH240568   6.653   3.745   6.726
13542TIP3    H140569   6.651   3.652   6.748
13542TIP3    H240570   6.574   3.781   6.766
13543TIP3   OH240571   3.332   2.013   5.893
13543TIP3    H140572   3.388   1.976   5.825
13543TIP3    H240573   3.261   1.949   5.902
13544TIP3   OH240574   2.766   7.479   0.719
13544TIP3    H140575   2.823   7.500   0.646
13544TIP3    H240576   2.783   7.547   0.784
13545TIP3   OH240577   7.870   0.532   3.833
13545TIP3    H140578   7.840   0.623   3.837
13545TIP3    H240579   7.809   0.484   3.888
13546TIP3   OH240580   7.623   0.487   2.422
13546TIP3    H140581   7.549   0.478   2.481
13546TIP3    H240582   7.684   0.418   2.449
13547TIP3   OH240583   5.736   3.124   0.021
13547TIP3    H140584   5.754   3.034  -0.007
13547TIP3    H240585   5.815   3.151   0.067
13548TIP3   OH240586   3.684   7.472   0.016
13548TIP3    H140587   3.765   7.483   0.067
13548TIP3    H240588   3.639   7.556   0.024
13549TIP3   OH240589   3.635   2.823   2.325
13549TIP3    H140590   3.642   2.860   2.237
13549TIP3    H240591   3.590   2.890   2.375
13550TIP3   OH240592   4.204   2.458   4.120
13550TIP3    H140593   4.258   2.380   4.112
13550TIP3    H240594   4.149   2.442   4.196
13551TIP3   OH240595   2.296   5.344   2.377
13551TIP3    H140596   2.274   5.319   2.467
13551TIP3    H240597   2.329   5.433   2.384
13552TIP3   OH240598   5.161   4.165   0.574
13552TIP3    H140599   5.110   4.110   0.514
13552TIP3    H240600   5.133   4.137   0.661
13553TIP3   OH240601   6.924   2.152   5.396
13553TIP3    H140602   6.842   2.199   5.384
13553TIP3    H240603   6.992   2.220   5.387
13554TIP3   OH240604   5.978   5.190   5.764
13554TIP3    H140605   6.069   5.176   5.738
13554TIP3    H240606   5.928   5.131   5.707
13555TIP3   OH240607   0.345   5.867   1.256
13555TIP3    H140608   0.295   5.935   1.211
13555TIP3    H240609   0.353   5.796   1.191
13556TIP3   OH240610   2.379   5.389   1.008
13556TIP3    H140611   2.370   5.322   0.940
13556TIP3    H240612   2.307   5.450   0.991
13557TIP3   OH240613   1.040   1.228   4.299
13557TIP3    H140614   1.124   1.232   4.345
13557TIP3    H240615   1.038   1.307   4.245
13558TIP3   OH240616   1.856   7.043   0.780
13558TIP3    H140617   1.791   6.991   0.733
13558TIP3    H240618   1.840   7.024   0.873
13559TIP3   OH240619   6.214   6.479   6.284
13559TIP3    H140620   6.279   6.487   6.214
13559TIP3    H240621   6.236   6.549   6.346
13560TIP3   OH240622   3.830   2.745   3.115
13560TIP3    H140623   3.878   2.828   3.121
13560TIP3    H240624   3.750   2.759   3.165
13561TIP3   OH240625   0.677   6.600   5.598
13561TIP3    H140626   0.631   6.516   5.601
13561TIP3    H240627   0.766   6.579   5.626
13562TIP3   OH240628   4.045   6.441   4.647
13562TIP3    H140629   4.041   6.416   4.739
13562TIP3    H240630   4.112   6.510   4.644
13563TIP3   OH240631   7.311   7.590   3.533
13563TIP3    H140632   7.259   7.662   3.569
13563TIP3    H240633   7.293   7.591   3.439
13564TIP3   OH240634   5.300   5.292   2.147
13564TIP3    H140635   5.280   5.385   2.159
13564TIP3    H240636   5.389   5.291   2.111
13565TIP3   OH240637   5.003   2.406   1.216
13565TIP3    H140638   5.000   2.458   1.296
13565TIP3    H240639   4.915   2.414   1.179
13566TIP3   OH240640   1.031   1.563   4.599
13566TIP3    H140641   1.102   1.607   4.552
13566TIP3    H240642   1.075   1.513   4.668
13567TIP3   OH240643   0.337   3.038   6.254
13567TIP3    H140644   0.253   2.998   6.231
13567TIP3    H240645   0.388   2.966   6.292
13568TIP3   OH240646   0.862   3.211   0.090
13568TIP3    H140647   0.955   3.231   0.096
13568TIP3    H240648   0.851   3.132   0.142
13569TIP3   OH240649   1.885   5.005   6.190
13569TIP3    H140650   1.903   4.980   6.099
13569TIP3    H240651   1.941   4.947   6.242
13570TIP3   OH240652   4.271   2.792   6.637
13570TIP3    H140653   4.188   2.836   6.655
13570TIP3    H240654   4.337   2.851   6.672
13571TIP3   OH240655   3.463   2.246   2.937
13571TIP3    H140656   3.412   2.273   3.013
13571TIP3    H240657   3.409   2.271   2.862
13572TIP3   OH240658   1.140   7.196   5.858
13572TIP3    H140659   1.063   7.185   5.802
13572TIP3    H240660   1.214   7.199   5.797
13573TIP3   OH240661   0.266   5.308   6.092
13573TIP3    H140662   0.175   5.287   6.110
13573TIP3    H240663   0.264   5.355   6.008
13574TIP3   OH240664   4.875   4.739   4.411
13574TIP3    H140665   4.916   4.755   4.496
13574TIP3    H240666   4.795   4.791   4.414
13575TIP3   OH240667   4.362   7.024   0.912
13575TIP3    H140668   4.423   7.011   0.839
13575TIP3    H240669   4.349   6.936   0.948
13576TIP3   OH240670   3.420   5.538   1.701
13576TIP3    H140671   3.460   5.459   1.737
13576TIP3    H240672   3.494   5.594   1.678
13577TIP3   OH240673   3.602   2.056   3.188
13577TIP3    H140674   3.650   2.138   3.180
13577TIP3    H240675   3.605   2.016   3.101
13578TIP3   OH240676   0.573   2.944   0.670
13578TIP3    H140677   0.517   3.018   0.644
13578TIP3    H240678   0.662   2.980   0.666
13579TIP3   OH240679   1.012   2.537   5.683
13579TIP3    H140680   0.920   2.550   5.661
13579TIP3    H240681   1.033   2.450   5.648
13580TIP3   OH240682   4.424   6.146   4.785
13580TIP3    H140683   4.342   6.173   4.827
13580TIP3    H240684   4.455   6.073   4.838
13581TIP3   OH240685   3.422   7.060   4.230
13581TIP3    H140686   3.383   6.972   4.235
13581TIP3    H240687   3.493   7.051   4.167
13582TIP3   OH240688   3.109   4.812   1.816
13582TIP3    H140689   3.159   4.745   1.770
13582TIP3    H240690   3.037   4.832   1.756
13583TIP3   OH240691   1.394   7.113   2.311
13583TIP3    H140692   1.459   7.154   2.367
13583TIP3    H240693   1.317   7.102   2.368
13584TIP3   OH240694   2.200   3.650   3.774
13584TIP3    H140695   2.215   3.640   3.680
13584TIP3    H240696   2.197   3.560   3.808
13585TIP3   OH240697   7.363   6.898   0.620
13585TIP3    H140698   7.313   6.930   0.545
13585TIP3    H240699   7.405   6.818   0.589
13586TIP3   OH240700   5.320   1.711   4.561
13586TIP3    H140701   5.413   1.708   4.583
13586TIP3    H240702   5.282   1.773   4.625
13587TIP3   OH240703   4.116   3.693   5.854
13587TIP3    H140704   4.109   3.723   5.763
13587TIP3    H240705   4.029   3.709   5.891
13588TIP3   OH240706   6.407   3.766   3.423
13588TIP3    H140707   6.495   3.736   3.448
13588TIP3    H240708   6.414   3.861   3.424
13589TIP3   OH240709   3.593   3.786   5.924
13589TIP3    H140710   3.593   3.778   6.019
13589TIP3    H240711   3.550   3.870   5.907
13590TIP3   OH240712   2.895   2.827   6.695
13590TIP3    H140713   2.880   2.920   6.712
13590TIP3    H240714   2.807   2.790   6.683
13591TIP3   OH240715   1.426   0.986   3.948
13591TIP3    H140716   1.441   0.911   3.890
13591TIP3    H240717   1.451   0.955   4.035
13592TIP3   OH240718   2.512   6.034   4.152
13592TIP3    H140719   2.501   5.945   4.119
13592TIP3    H240720   2.531   6.086   4.075
13593TIP3   OH240721   6.328   5.398   3.007
13593TIP3    H140722   6.400   5.337   3.023
13593TIP3    H240723   6.356   5.479   3.050
13594TIP3   OH240724   0.896   2.682   2.395
13594TIP3    H140725   0.987   2.663   2.372
13594TIP3    H240726   0.902   2.742   2.469
13595TIP3   OH240727   3.999   1.029   0.541
13595TIP3    H140728   4.005   0.949   0.592
13595TIP3    H240729   4.041   1.096   0.596
13596TIP3   OH240730   6.778   3.392   0.715
13596TIP3    H140731   6.705   3.337   0.685
13596TIP3    H240732   6.812   3.346   0.791
13597TIP3   OH240733   5.070   1.020   0.233
13597TIP3    H140734   5.024   0.936   0.230
13597TIP3    H240735   5.051   1.061   0.149
13598TIP3   OH240736   5.029   0.303   1.338
13598TIP3    H140737   5.036   0.391   1.300
13598TIP3    H240738   5.118   0.283   1.367
13599TIP3   OH240739   1.677   6.381   6.580
13599TIP3    H140740   1.685   6.339   6.666
13599TIP3    H240741   1.759   6.360   6.536
13600TIP3   OH240742   2.495   4.175   4.623
13600TIP3    H140743   2.510   4.264   4.656
13600TIP3    H240744   2.406   4.154   4.652
13601TIP3   OH240745   8.236   5.561   1.967
13601TIP3    H140746   8.330   5.547   1.954
13601TIP3    H240747   8.213   5.501   2.038
13602TIP3   OH240748   8.158   4.297   2.931
13602TIP3    H140749   8.142   4.388   2.907
13602TIP3    H240750   8.231   4.269   2.877
13603TIP3   OH240751   8.212   1.335   1.120
13603TIP3    H140752   8.302   1.367   1.115
13603TIP3    H240753   8.180   1.339   1.030
13604TIP3   OH240754   0.237   2.345   5.483
13604TIP3    H140755   0.310   2.405   5.498
13604TIP3    H240756   0.278   2.270   5.440
13605TIP3   OH240757   5.144   5.336   0.687
13605TIP3    H140758   5.143   5.422   0.645
13605TIP3    H240759   5.051   5.317   0.702
13606TIP3   OH240760   2.184   1.356   5.738
13606TIP3    H140761   2.214   1.346   5.829
13606TIP3    H240762   2.234   1.430   5.704
13607TIP3   OH240763   1.278   4.479   5.511
13607TIP3    H140764   1.312   4.391   5.528
13607TIP3    H240765   1.307   4.499   5.423
13608TIP3   OH240766   0.896   1.691   2.147
13608TIP3    H140767   0.966   1.698   2.212
13608TIP3    H240768   0.820   1.732   2.189
13609TIP3   OH240769   0.418   2.771   4.107
13609TIP3    H140770   0.453   2.844   4.057
13609TIP3    H240771   0.421   2.801   4.198
13610TIP3   OH240772   7.756   0.618   1.459
13610TIP3    H140773   7.785   0.708   1.468
13610TIP3    H240774   7.662   0.623   1.444
13611TIP3   OH240775   1.910   7.194   5.478
13611TIP3    H140776   1.968   7.270   5.474
13611TIP3    H240777   1.823   7.232   5.489
13612TIP3   OH240778   4.193   6.829   0.470
13612TIP3    H140779   4.199   6.787   0.556
13612TIP3    H240780   4.137   6.770   0.418
13613TIP3   OH240781   7.437   2.193   1.876
13613TIP3    H140782   7.353   2.165   1.839
13613TIP3    H240783   7.501   2.133   1.838
13614TIP3   OH240784   6.010   7.414   3.233
13614TIP3    H140785   5.966   7.341   3.189
13614TIP3    H240786   6.054   7.374   3.309
13615TIP3   OH240787   3.454   5.601   3.174
13615TIP3    H140788   3.531   5.629   3.125
13615TIP3    H240789   3.482   5.601   3.266
13616TIP3   OH240790   4.424   2.346   4.815
13616TIP3    H140791   4.436   2.331   4.908
13616TIP3    H240792   4.476   2.277   4.773
13617TIP3   OH240793   6.035   1.788   5.686
13617TIP3    H140794   6.114   1.841   5.699
13617TIP3    H240795   6.067   1.705   5.652
13618TIP3   OH240796   2.292   5.033   1.045
13618TIP3    H140797   2.269   5.105   0.987
13618TIP3    H240798   2.281   4.954   0.992
13619TIP3   OH240799   6.608   2.271   6.710
13619TIP3    H140800   6.703   2.269   6.715
13619TIP3    H240801   6.579   2.248   6.799
13620TIP3   OH240802   6.128   3.577   6.588
13620TIP3    H140803   6.108   3.569   6.495
13620TIP3    H240804   6.210   3.529   6.599
13621TIP3   OH240805   7.541   4.062   4.669
13621TIP3    H140806   7.522   4.065   4.575
13621TIP3    H240807   7.473   4.006   4.706
13622TIP3   OH240808   7.450   1.753   0.088
13622TIP3    H140809   7.418   1.693   0.020
13622TIP3    H240810   7.397   1.832   0.077
13623TIP3   OH240811   0.029   2.361   0.999
13623TIP3    H140812   0.097   2.305   0.960
13623TIP3    H240813  -0.050   2.307   0.998
13624TIP3   OH240814   4.545   4.640   4.254
13624TIP3    H140815   4.549   4.736   4.246
13624TIP3    H240816   4.456   4.617   4.230
13625TIP3   OH240817   4.587   6.533   5.012
13625TIP3    H140818   4.633   6.502   4.934
13625TIP3    H240819   4.528   6.462   5.036
13626TIP3   OH240820   3.613   6.233   1.363
13626TIP3    H140821   3.535   6.238   1.307
13626TIP3    H240822   3.660   6.156   1.331
13627TIP3   OH240823   5.259   6.179   3.109
13627TIP3    H140824   5.236   6.272   3.109
13627TIP3    H240825   5.179   6.134   3.133
13628TIP3   OH240826   5.009   1.047   6.122
13628TIP3    H140827   4.917   1.071   6.110
13628TIP3    H240828   5.029   1.074   6.212
13629TIP3   OH240829   5.187   5.556   2.275
13629TIP3    H140830   5.178   5.652   2.279
13629TIP3    H240831   5.115   5.523   2.328
13630TIP3   OH240832   3.264   3.267   6.617
13630TIP3    H140833   3.345   3.278   6.567
13630TIP3    H240834   3.195   3.261   6.550
13631TIP3   OH240835   4.376   1.253   4.281
13631TIP3    H140836   4.427   1.331   4.259
13631TIP3    H240837   4.402   1.231   4.370
13632TIP3   OH240838   5.385   2.097   4.239
13632TIP3    H140839   5.479   2.113   4.235
13632TIP3    H240840   5.355   2.107   4.148
13633TIP3   OH240841   0.534   0.809   1.788
13633TIP3    H140842   0.614   0.784   1.742
13633TIP3    H240843   0.509   0.731   1.838
13634TIP3   OH240844   5.024   2.200   0.114
13634TIP3    H140845   5.059   2.111   0.124
13634TIP3    H240846   5.098   2.251   0.081
13635TIP3   OH240847   2.091   3.502   3.039
13635TIP3    H140848   2.117   3.411   3.056
13635TIP3    H240849   2.040   3.499   2.959
13636TIP3   OH240850   3.164   4.026   1.903
13636TIP3    H140851   3.112   4.012   1.982
13636TIP3    H240852   3.164   4.121   1.890
13637TIP3   OH240853   6.989   1.741   2.602
13637TIP3    H140854   6.931   1.814   2.579
13637TIP3    H240855   7.014   1.703   2.518
13638TIP3   OH240856   2.787   2.103   2.103
13638TIP3    H140857   2.714   2.086   2.044
13638TIP3    H240858   2.857   2.047   2.071
13639TIP3   OH240859   7.943   6.048   4.852
13639TIP3    H140860   7.918   6.096   4.931
13639TIP3    H240861   7.868   5.993   4.832
13640TIP3   OH240862   4.075   0.407   4.622
13640TIP3    H140863   4.037   0.412   4.534
13640TIP3    H240864   4.109   0.318   4.628
13641TIP3   OH240865   1.494   5.544   3.989
13641TIP3    H140866   1.551   5.619   4.005
13641TIP3    H240867   1.444   5.567   3.911
13642TIP3   OH240868   1.133   2.016   0.485
13642TIP3    H140869   1.183   1.934   0.485
13642TIP3    H240870   1.175   2.070   0.552
13643TIP3   OH240871   3.947   3.505   2.662
13643TIP3    H140872   3.968   3.411   2.661
13643TIP3    H240873   3.854   3.508   2.636
13644TIP3   OH240874   1.251   7.739   0.779
13644TIP3    H140875   1.307   7.688   0.721
13644TIP3    H240876   1.286   7.828   0.773
13645TIP3   OH240877   6.050   6.156   5.271
13645TIP3    H140878   6.069   6.077   5.322
13645TIP3    H240879   6.028   6.222   5.336
13646TIP3   OH240880   4.498   6.003   6.368
13646TIP3    H140881   4.404   6.020   6.377
13646TIP3    H240882   4.510   5.979   6.276
13647TIP3   OH240883   3.688   3.426   4.952
13647TIP3    H140884   3.661   3.403   4.864
13647TIP3    H240885   3.615   3.477   4.988
13648TIP3   OH240886   7.572   2.557   5.904
13648TIP3    H140887   7.494   2.534   5.953
13648TIP3    H240888   7.546   2.633   5.852
13649TIP3   OH240889   1.656   3.316   6.530
13649TIP3    H140890   1.653   3.347   6.621
13649TIP3    H240891   1.565   3.299   6.508
13650TIP3   OH240892   1.554   6.592   3.040
13650TIP3    H140893   1.490   6.590   2.968
13650TIP3    H240894   1.518   6.654   3.103
13651TIP3   OH240895   3.883   3.316   4.758
13651TIP3    H140896   3.903   3.238   4.707
13651TIP3    H240897   3.867   3.284   4.846
13652TIP3   OH240898   8.033   4.545   6.606
13652TIP3    H140899   8.070   4.629   6.578
13652TIP3    H240900   8.081   4.521   6.685
13653TIP3   OH240901   8.066   7.138   0.426
13653TIP3    H140902   8.129   7.075   0.460
13653TIP3    H240903   8.014   7.089   0.362
13654TIP3   OH240904   7.607   6.599   1.690
13654TIP3    H140905   7.573   6.510   1.684
13654TIP3    H240906   7.665   6.598   1.766
13655TIP3   OH240907   7.207   3.237   0.353
13655TIP3    H140908   7.135   3.221   0.414
13655TIP3    H240909   7.257   3.309   0.393
13656TIP3   OH240910   2.463   1.581   3.975
13656TIP3    H140911   2.406   1.506   3.992
13656TIP3    H240912   2.502   1.562   3.889
13657TIP3   OH240913   1.566   3.230   5.501
13657TIP3    H140914   1.536   3.186   5.581
13657TIP3    H240915   1.657   3.254   5.519
13658TIP3   OH240916   1.440   7.667   1.753
13658TIP3    H140917   1.358   7.715   1.758
13658TIP3    H240918   1.498   7.724   1.702
13659TIP3   OH240919   5.645   5.913   2.790
13659TIP3    H140920   5.558   5.933   2.825
13659TIP3    H240921   5.698   5.990   2.815
13660TIP3   OH240922   7.566   3.032   1.864
13660TIP3    H140923   7.577   3.038   1.769
13660TIP3    H240924   7.567   3.123   1.894
13661TIP3   OH240925   1.035   1.710   2.378
13661TIP3    H140926   1.074   1.623   2.385
13661TIP3    H240927   1.107   1.768   2.353
13662TIP3   OH240928   3.471   7.593   5.430
13662TIP3    H140929   3.459   7.637   5.346
13662TIP3    H240930   3.499   7.504   5.406
13663TIP3   OH240931   4.831   4.938   3.643
13663TIP3    H140932   4.855   5.030   3.644
13663TIP3    H240933   4.761   4.931   3.708
13664TIP3   OH240934   3.236   1.746   1.450
13664TIP3    H140935   3.324   1.746   1.487
13664TIP3    H240936   3.194   1.669   1.488
13665TIP3   OH240937   0.890   2.086   5.930
13665TIP3    H140938   0.840   2.045   5.859
13665TIP3    H240939   0.935   2.013   5.972
13666TIP3   OH240940   1.827   3.690   2.010
13666TIP3    H140941   1.742   3.677   2.053
13666TIP3    H240942   1.861   3.770   2.049
13667TIP3   OH240943   5.442   0.148   5.703
13667TIP3    H140944   5.354   0.186   5.710
13667TIP3    H240945   5.429   0.056   5.726
13668TIP3   OH240946   7.976   2.426   5.616
13668TIP3    H140947   7.898   2.416   5.671
13668TIP3    H240948   8.023   2.500   5.655
13669TIP3   OH240949   0.145   5.646   5.560
13669TIP3    H140950   0.184   5.570   5.604
13669TIP3    H240951   0.209   5.669   5.492
13670TIP3   OH240952   8.260   0.089   2.505
13670TIP3    H140953   8.355   0.087   2.498
13670TIP3    H240954   8.232   0.005   2.469
13671TIP3   OH240955   0.506   3.978   4.967
13671TIP3    H140956   0.442   3.931   5.021
13671TIP3    H240957   0.487   4.070   4.982
13672TIP3   OH240958   1.355   3.604   0.852
13672TIP3    H140959   1.439   3.569   0.883
13672TIP3    H240960   1.379   3.670   0.786
13673TIP3   OH240961   1.488   5.976   4.808
13673TIP3    H140962   1.565   6.021   4.774
13673TIP3    H240963   1.520   5.928   4.885
13674TIP3   OH240964   7.551   2.643   1.948
13674TIP3    H140965   7.525   2.668   1.859
13674TIP3    H240966   7.534   2.549   1.952
13675TIP3   OH240967   1.403   6.549   1.504
13675TIP3    H140968   1.481   6.567   1.556
13675TIP3    H240969   1.330   6.575   1.561
13676TIP3   OH240970   5.305   0.271   0.472
13676TIP3    H140971   5.356   0.314   0.404
13676TIP3    H240972   5.275   0.343   0.529
13677TIP3   OH240973   7.219   2.267   3.590
13677TIP3    H140974   7.297   2.237   3.543
13677TIP3    H240975   7.168   2.188   3.604
13678TIP3   OH240976   4.268   0.318   0.324
13678TIP3    H140977   4.343   0.322   0.384
13678TIP3    H240978   4.204   0.265   0.371
13679TIP3   OH240979   6.383   7.414   6.678
13679TIP3    H140980   6.297   7.391   6.643
13679TIP3    H240981   6.425   7.466   6.610
13680TIP3   OH240982   3.164   7.251   0.028
13680TIP3    H140983   3.150   7.317   0.095
13680TIP3    H240984   3.224   7.188   0.068
13681TIP3   OH240985   2.041   3.083   5.918
13681TIP3    H140986   2.087   3.003   5.891
13681TIP3    H240987   2.009   3.063   6.006
13682TIP3   OH240988   8.101   0.578   5.481
13682TIP3    H140989   8.093   0.482   5.478
13682TIP3    H240990   8.159   0.594   5.555
13683TIP3   OH240991   6.032   6.486   5.963
13683TIP3    H140992   6.000   6.569   5.997
13683TIP3    H240993   6.085   6.450   6.034
13684TIP3   OH240994   3.223   7.502   2.456
13684TIP3    H140995   3.278   7.550   2.394
13684TIP3    H240996   3.136   7.504   2.418
13685TIP3   OH240997   2.454   3.484   1.614
13685TIP3    H140998   2.502   3.405   1.590
13685TIP3    H240999   2.497   3.515   1.694
13686TIP3   OH241000   2.712   3.317   2.905
13686TIP3    H141001   2.651   3.269   2.961
13686TIP3    H241002   2.656   3.377   2.855
13687TIP3   OH241003   4.306   3.318   6.321
13687TIP3    H141004   4.396   3.327   6.288
13687TIP3    H241005   4.252   3.318   6.242
13688TIP3   OH241006   4.120   1.104   2.981
13688TIP3    H141007   4.057   1.101   3.053
13688TIP3    H241008   4.101   1.026   2.929
13689TIP3   OH241009   0.168   2.751   4.195
13689TIP3    H141010   0.127   2.700   4.125
13689TIP3    H241011   0.238   2.799   4.152
13690TIP3   OH241012   7.853   3.337   4.402
13690TIP3    H141013   7.899   3.272   4.455
13690TIP3    H241014   7.921   3.373   4.345
13691TIP3   OH241015   4.581   2.117   3.981
13691TIP3    H141016   4.644   2.076   4.041
13691TIP3    H241017   4.635   2.163   3.917
13692TIP3   OH241018   6.470   2.965   4.708
13692TIP3    H141019   6.485   2.896   4.643
13692TIP3    H241020   6.451   3.043   4.657
13693TIP3   OH241021   4.469   3.736   4.752
13693TIP3    H141022   4.544   3.681   4.725
13693TIP3    H241023   4.466   3.726   4.847
13694TIP3   OH241024   4.242   7.138   4.399
13694TIP3    H141025   4.215   7.051   4.372
13694TIP3    H241026   4.270   7.128   4.490
13695TIP3   OH241027   1.372   0.031   1.241
13695TIP3    H141028   1.359   0.063   1.330
13695TIP3    H241029   1.301  -0.031   1.227
13696TIP3   OH241030   7.945   1.018   5.119
13696TIP3    H141031   8.036   1.047   5.125
13696TIP3    H241032   7.945   0.929   5.153
13697TIP3   OH241033   7.194   5.857   6.526
13697TIP3    H141034   7.131   5.785   6.514
13697TIP3    H241035   7.218   5.883   6.437
13698TIP3   OH241036   1.142   4.105   5.564
13698TIP3    H141037   1.233   4.099   5.591
13698TIP3    H241038   1.132   4.037   5.497
13699TIP3   OH241039   4.300   0.554   0.091
13699TIP3    H141040   4.309   0.463   0.118
13699TIP3    H241041   4.229   0.554   0.027
13700TIP3   OH241042   4.344   3.679   4.250
13700TIP3    H141043   4.438   3.677   4.268
13700TIP3    H241044   4.302   3.662   4.334
13701TIP3   OH241045   0.104   4.582   6.442
13701TIP3    H141046   0.139   4.572   6.530
13701TIP3    H241047   0.033   4.645   6.451
13702TIP3   OH241048   7.879   3.974   2.981
13702TIP3    H141049   7.801   3.983   3.035
13702TIP3    H241050   7.945   4.029   3.025
13703TIP3   OH241051   3.882   2.382   1.790
13703TIP3    H141052   3.944   2.310   1.803
13703TIP3    H241053   3.936   2.455   1.758
13704TIP3   OH241054   0.817   1.392   0.536
13704TIP3    H141055   0.742   1.433   0.491
13704TIP3    H241056   0.847   1.325   0.476
13705TIP3   OH241057   3.687   2.230   1.462
13705TIP3    H141058   3.619   2.283   1.504
13705TIP3    H241059   3.697   2.154   1.519
13706TIP3   OH241060   0.160   3.424   2.290
13706TIP3    H141061   0.190   3.372   2.364
13706TIP3    H241062   0.198   3.511   2.306
13707TIP3   OH241063   4.454   6.984   4.858
13707TIP3    H141064   4.459   6.928   4.936
13707TIP3    H241065   4.475   7.072   4.891
13708TIP3   OH241066   7.916   5.328   2.432
13708TIP3    H141067   7.997   5.278   2.421
13708TIP3    H241068   7.846   5.262   2.426
13709TIP3   OH241069   6.662   2.474   6.229
13709TIP3    H141070   6.740   2.519   6.194
13709TIP3    H241071   6.608   2.457   6.152
13710TIP3   OH241072   5.689   4.687   2.390
13710TIP3    H141073   5.644   4.744   2.327
13710TIP3    H241074   5.664   4.599   2.364
13711TIP3   OH241075   3.084   7.610   1.438
13711TIP3    H141076   3.096   7.622   1.343
13711TIP3    H241077   3.032   7.529   1.445
13712TIP3   OH241078   6.196   0.341   4.694
13712TIP3    H141079   6.223   0.432   4.680
13712TIP3    H241080   6.232   0.318   4.780
13713TIP3   OH241081   4.255   7.541   2.243
13713TIP3    H141082   4.248   7.612   2.307
13713TIP3    H241083   4.230   7.581   2.160
13714TIP3   OH241084   6.283   4.646   5.862
13714TIP3    H141085   6.204   4.654   5.915
13714TIP3    H241086   6.320   4.561   5.885
13715TIP3   OH241087   5.715   0.761   1.419
13715TIP3    H141088   5.801   0.800   1.400
13715TIP3    H241089   5.717   0.743   1.513
13716TIP3   OH241090   3.233   7.359   5.311
13716TIP3    H141091   3.243   7.423   5.241
13716TIP3    H241092   3.150   7.315   5.291
13717TIP3   OH241093   2.049   4.088   0.105
13717TIP3    H141094   2.095   4.020   0.153
13717TIP3    H241095   1.988   4.042   0.048
13718TIP3   OH241096   4.786   1.240   0.932
13718TIP3    H141097   4.817   1.228   1.022
13718TIP3    H241098   4.816   1.328   0.909
13719TIP3   OH241099   2.141   0.532   1.673
13719TIP3    H141100   2.049   0.518   1.695
13719TIP3    H241101   2.161   0.462   1.611
13720TIP3   OH241102   1.370   0.192   4.840
13720TIP3    H141103   1.396   0.282   4.861
13720TIP3    H241104   1.382   0.144   4.921
13721TIP3   OH241105   1.282   2.875   4.631
13721TIP3    H141106   1.298   2.951   4.575
13721TIP3    H241107   1.187   2.870   4.639
13722TIP3   OH241108   2.362   7.000   0.914
13722TIP3    H141109   2.370   6.933   0.982
13722TIP3    H241110   2.448   7.042   0.911
13723TIP3   OH241111   5.256   6.164   2.087
13723TIP3    H141112   5.225   6.245   2.127
13723TIP3    H241113   5.243   6.097   2.155
13724TIP3   OH241114   4.345   1.719   0.509
13724TIP3    H141115   4.290   1.653   0.552
13724TIP3    H241116   4.282   1.782   0.472
13725TIP3   OH241117   5.834   4.785   4.600
13725TIP3    H141118   5.851   4.727   4.673
13725TIP3    H241119   5.919   4.795   4.556
13726TIP3   OH241120   0.730   0.960   6.415
13726TIP3    H141121   0.674   1.035   6.435
13726TIP3    H241122   0.775   0.985   6.334
13727TIP3   OH241123   6.091   3.404   2.998
13727TIP3    H141124   6.122   3.494   3.004
13727TIP3    H241125   6.071   3.392   2.906
13728TIP3   OH241126   5.171   0.872   3.724
13728TIP3    H141127   5.199   0.921   3.647
13728TIP3    H241128   5.091   0.916   3.753
13729TIP3   OH241129   5.729   7.540   6.058
13729TIP3    H141130   5.795   7.478   6.086
13729TIP3    H241131   5.778   7.621   6.041
13730TIP3   OH241132   2.946   7.762   0.683
13730TIP3    H141133   2.928   7.853   0.661
13730TIP3    H241134   3.026   7.741   0.635
13731TIP3   OH241135   5.530   4.669   3.150
13731TIP3    H141136   5.588   4.676   3.074
13731TIP3    H241137   5.461   4.733   3.133
13732TIP3   OH241138   3.424   6.727   3.470
13732TIP3    H141139   3.393   6.686   3.551
13732TIP3    H241140   3.491   6.789   3.498
13733TIP3   OH241141   2.096   5.860   2.370
13733TIP3    H141142   2.059   5.938   2.412
13733TIP3    H241143   2.100   5.795   2.440
13734TIP3   OH241144   4.090   4.537   6.176
13734TIP3    H141145   4.015   4.575   6.130
13734TIP3    H241146   4.117   4.603   6.239
13735TIP3   OH241147   2.618   5.236   2.422
13735TIP3    H141148   2.712   5.221   2.431
13735TIP3    H241149   2.611   5.316   2.369
13736TIP3   OH241150   1.359   7.004   2.915
13736TIP3    H141151   1.444   7.006   2.958
13736TIP3    H241152   1.297   7.029   2.983
13737TIP3   OH241153   1.382   4.166   3.224
13737TIP3    H141154   1.422   4.253   3.221
13737TIP3    H241155   1.451   4.110   3.259
13738TIP3   OH241156   5.734   6.012   5.445
13738TIP3    H141157   5.647   5.973   5.453
13738TIP3    H241158   5.784   5.974   5.517
13739TIP3   OH241159   0.811   5.333   5.622
13739TIP3    H141160   0.887   5.279   5.599
13739TIP3    H241161   0.737   5.291   5.578
13740TIP3   OH241162   6.443   0.609   2.781
13740TIP3    H141163   6.362   0.614   2.831
13740TIP3    H241164   6.479   0.698   2.784
13741TIP3   OH241165   3.627   0.771   1.936
13741TIP3    H141166   3.657   0.689   1.976
13741TIP3    H241167   3.542   0.749   1.897
13742TIP3   OH241168   1.303   3.091   6.475
13742TIP3    H141169   1.302   3.158   6.407
13742TIP3    H241170   1.211   3.079   6.499
13743TIP3   OH241171   2.595   3.232   1.715
13743TIP3    H141172   2.638   3.210   1.798
13743TIP3    H241173   2.667   3.253   1.655
13744TIP3   OH241174   2.621   0.958   0.515
13744TIP3    H141175   2.651   0.934   0.602
13744TIP3    H241176   2.695   1.004   0.475
13745TIP3   OH241177   2.738   6.827   0.271
13745TIP3    H141178   2.743   6.920   0.294
13745TIP3    H241179   2.652   6.816   0.232
13746TIP3   OH241180   8.253   3.461   1.209
13746TIP3    H141181   8.251   3.532   1.144
13746TIP3    H241182   8.347   3.443   1.220
13747TIP3   OH241183   0.714   6.294   4.742
13747TIP3    H141184   0.806   6.314   4.730
13747TIP3    H241185   0.677   6.295   4.653
13748TIP3   OH241186   4.197   4.678   0.469
13748TIP3    H141187   4.288   4.682   0.440
13748TIP3    H241188   4.174   4.769   0.490
13749TIP3   OH241189   6.396   3.333   0.486
13749TIP3    H141190   6.380   3.357   0.395
13749TIP3    H241191   6.476   3.280   0.484
13750TIP3   OH241192   8.118   6.776   0.733
13750TIP3    H141193   8.138   6.838   0.803
13750TIP3    H241194   8.159   6.812   0.655
13751TIP3   OH241195   4.292   6.795   5.958
13751TIP3    H141196   4.285   6.864   5.892
13751TIP3    H241197   4.369   6.819   6.009
13752TIP3   OH241198   1.823   5.664   6.181
13752TIP3    H141199   1.792   5.730   6.243
13752TIP3    H241200   1.911   5.695   6.156
13753TIP3   OH241201   2.092   3.130   3.715
13753TIP3    H141202   2.149   3.053   3.721
13753TIP3    H241203   2.062   3.131   3.624
13754TIP3   OH241204   1.856   4.991   5.859
13754TIP3    H141205   1.941   4.969   5.819
13754TIP3    H241206   1.848   5.085   5.847
13755TIP3   OH241207   3.057   4.192   4.867
13755TIP3    H141208   2.972   4.162   4.834
13755TIP3    H241209   3.060   4.285   4.846
13756TIP3   OH241210   3.515   3.514   5.828
13756TIP3    H141211   3.552   3.601   5.840
13756TIP3    H241212   3.443   3.509   5.892
13757TIP3   OH241213   0.292   2.879   3.577
13757TIP3    H141214   0.283   2.974   3.574
13757TIP3    H241215   0.272   2.851   3.488
13758TIP3   OH241216   4.641   2.689   3.432
13758TIP3    H141217   4.569   2.635   3.462
13758TIP3    H241218   4.712   2.627   3.413
13759TIP3   OH241219   3.832   3.461   1.038
13759TIP3    H141220   3.894   3.398   1.000
13759TIP3    H241221   3.859   3.467   1.130
13760TIP3   OH241222   4.234   2.750   4.778
13760TIP3    H141223   4.222   2.796   4.861
13760TIP3    H241224   4.327   2.759   4.759
13761TIP3   OH241225   6.724   5.819   3.649
13761TIP3    H141226   6.674   5.801   3.729
13761TIP3    H241227   6.779   5.894   3.671
13762TIP3   OH241228   0.962   5.100   6.379
13762TIP3    H141229   0.909   5.135   6.308
13762TIP3    H241230   1.035   5.056   6.336
13763TIP3   OH241231   5.542   4.095   2.775
13763TIP3    H141232   5.453   4.110   2.745
13763TIP3    H241233   5.580   4.036   2.710
13764TIP3   OH241234   5.696   2.728   1.663
13764TIP3    H141235   5.629   2.795   1.671
13764TIP3    H241236   5.776   2.775   1.641
13765TIP3   OH241237   5.541   1.819   6.417
13765TIP3    H141238   5.460   1.850   6.458
13765TIP3    H241239   5.533   1.847   6.326
13766TIP3   OH241240   6.707   5.475   0.666
13766TIP3    H141241   6.612   5.470   0.664
13766TIP3    H241242   6.728   5.565   0.643
13767TIP3   OH241243   5.011   5.749   0.096
13767TIP3    H141244   5.070   5.677   0.071
13767TIP3    H241245   4.945   5.707   0.150
13768TIP3   OH241246   7.682   1.638   2.351
13768TIP3    H141247   7.689   1.637   2.255
13768TIP3    H241248   7.590   1.618   2.368
13769TIP3   OH241249   7.475   6.724   0.419
13769TIP3    H141250   7.445   6.640   0.386
13769TIP3    H241251   7.570   6.715   0.425
13770TIP3   OH241252   3.871   2.771   0.093
13770TIP3    H141253   3.959   2.806   0.105
13770TIP3    H241254   3.841   2.809   0.010
13771TIP3   OH241255   7.645   1.140   0.602
13771TIP3    H141256   7.638   1.207   0.533
13771TIP3    H241257   7.561   1.144   0.648
13772TIP3   OH241258   3.686   6.064   0.920
13772TIP3    H141259   3.698   6.151   0.960
13772TIP3    H241260   3.725   6.073   0.833
13773TIP3   OH241261   0.957   3.523   0.410
13773TIP3    H141262   0.883   3.484   0.457
13773TIP3    H241263   1.004   3.573   0.477
13774TIP3   OH241264   1.179   0.083   2.424
13774TIP3    H141265   1.095   0.129   2.433
13774TIP3    H241266   1.187   0.066   2.330
13775TIP3   OH241267   6.190   2.674   2.021
13775TIP3    H141268   6.157   2.590   2.054
13775TIP3    H241269   6.130   2.739   2.057
13776TIP3   OH241270   5.842   7.769   1.970
13776TIP3    H141271   5.864   7.720   2.049
13776TIP3    H241272   5.791   7.844   2.002
13777TIP3   OH241273   7.691   0.832   4.667
13777TIP3    H141274   7.611   0.847   4.716
13777TIP3    H241275   7.687   0.741   4.640
13778TIP3   OH241276   1.017   7.309   4.605
13778TIP3    H141277   1.033   7.215   4.607
13778TIP3    H241278   1.027   7.337   4.697
13779TIP3   OH241279   5.259   0.546   2.175
13779TIP3    H141280   5.338   0.589   2.207
13779TIP3    H241281   5.188   0.588   2.224
13780TIP3   OH241282   1.468   4.921   3.442
13780TIP3    H141283   1.452   5.011   3.413
13780TIP3    H241284   1.521   4.930   3.521
13781TIP3   OH241285   2.367   4.330   5.775
13781TIP3    H141286   2.304   4.284   5.719
13781TIP3    H241287   2.451   4.317   5.732
13782TIP3   OH241288   2.912   1.495   2.995
13782TIP3    H141289   2.903   1.474   2.902
13782TIP3    H241290   2.998   1.459   3.019
13783TIP3   OH241291   4.336   2.776   1.697
13783TIP3    H141292   4.418   2.738   1.728
13783TIP3    H241293   4.353   2.870   1.693
13784TIP3   OH241294   4.738   4.415   3.715
13784TIP3    H141295   4.770   4.328   3.736
13784TIP3    H241296   4.704   4.408   3.625
13785TIP3   OH241297   4.762   1.312   6.739
13785TIP3    H141298   4.703   1.243   6.771
13785TIP3    H241299   4.724   1.340   6.656
13786TIP3   OH241300   3.474   1.788   0.098
13786TIP3    H141301   3.511   1.831   0.021
13786TIP3    H241302   3.419   1.855   0.138
13787TIP3   OH241303   5.585   6.307   5.122
13787TIP3    H141304   5.603   6.219   5.155
13787TIP3    H241305   5.671   6.341   5.098
13788TIP3   OH241306   3.071   1.220   1.245
13788TIP3    H141307   2.996   1.175   1.205
13788TIP3    H241308   3.068   1.193   1.337
13789TIP3   OH241309   4.502   0.809   2.919
13789TIP3    H141310   4.419   0.792   2.876
13789TIP3    H241311   4.520   0.902   2.902
13790TIP3   OH241312   2.064   2.098   2.338
13790TIP3    H141313   1.979   2.104   2.382
13790TIP3    H241314   2.122   2.059   2.404
13791TIP3   OH241315   7.941   5.229   3.858
13791TIP3    H141316   7.984   5.273   3.785
13791TIP3    H241317   7.849   5.255   3.850
13792TIP3   OH241318   7.855   7.363   3.063
13792TIP3    H141319   7.839   7.441   3.116
13792TIP3    H241320   7.774   7.313   3.067
13793TIP3   OH241321   4.861   4.174   1.206
13793TIP3    H141322   4.825   4.255   1.243
13793TIP3    H241323   4.785   4.128   1.170
13794TIP3   OH241324   6.034   3.463   6.056
13794TIP3    H141325   6.039   3.414   5.974
13794TIP3    H241326   6.117   3.510   6.061
13795TIP3   OH241327   1.632   1.497   0.145
13795TIP3    H141328   1.575   1.574   0.141
13795TIP3    H241329   1.571   1.423   0.142
13796TIP3   OH241330   1.445   7.643   5.345
13796TIP3    H141331   1.484   7.729   5.330
13796TIP3    H241332   1.435   7.606   5.258
13797TIP3   OH241333   0.176   2.638   5.623
13797TIP3    H141334   0.238   2.605   5.689
13797TIP3    H241335   0.221   2.626   5.540
13798TIP3   OH241336   3.281   6.872   6.791
13798TIP3    H141337   3.316   6.959   6.776
13798TIP3    H241338   3.239   6.848   6.708
13799TIP3   OH241339   5.047   4.133   3.564
13799TIP3    H141340   4.984   4.107   3.497
13799TIP3    H241341   5.125   4.081   3.545
13800TIP3   OH241342   7.419   6.405   4.826
13800TIP3    H141343   7.369   6.330   4.792
13800TIP3    H241344   7.485   6.422   4.760
13801TIP3   OH241345   1.330   1.845   0.524
13801TIP3    H141346   1.399   1.779   0.516
13801TIP3    H241347   1.253   1.796   0.555
13802TIP3   OH241348   4.141   5.174   1.414
13802TIP3    H141349   4.096   5.259   1.418
13802TIP3    H241350   4.072   5.111   1.394
13803TIP3   OH241351   0.470   7.684   2.981
13803TIP3    H141352   0.439   7.773   2.967
13803TIP3    H241353   0.391   7.630   2.973
13804TIP3   OH241354   3.569   1.067   3.831
13804TIP3    H141355   3.559   1.009   3.906
13804TIP3    H241356   3.594   1.151   3.869
13805TIP3   OH241357   2.350   6.578   2.853
13805TIP3    H141358   2.338   6.668   2.881
13805TIP3    H241359   2.444   6.569   2.839
13806TIP3   OH241360   8.188   5.888   0.947
13806TIP3    H141361   8.244   5.814   0.970
13806TIP3    H241362   8.243   5.965   0.962
13807TIP3   OH241363   7.817   5.096   1.466
13807TIP3    H141364   7.781   5.132   1.385
13807TIP3    H241365   7.788   5.004   1.466
13808TIP3   OH241366   6.519   1.806   6.556
13808TIP3    H141367   6.534   1.730   6.612
13808TIP3    H241368   6.424   1.809   6.543
13809TIP3   OH241369   4.678   6.646   2.694
13809TIP3    H141370   4.604   6.585   2.695
13809TIP3    H241371   4.659   6.707   2.765
13810TIP3   OH241372   4.894   3.208   1.535
13810TIP3    H141373   4.853   3.153   1.601
13810TIP3    H241374   4.940   3.276   1.585
13811TIP3   OH241375   2.380   4.574   5.146
13811TIP3    H141376   2.435   4.641   5.105
13811TIP3    H241377   2.301   4.621   5.174
13812TIP3   OH241378   2.900   4.300   6.514
13812TIP3    H141379   2.895   4.385   6.558
13812TIP3    H241380   2.992   4.276   6.520
13813TIP3   OH241381   2.880   1.832   3.517
13813TIP3    H141382   2.785   1.842   3.520
13813TIP3    H241383   2.909   1.902   3.459
13814TIP3   OH241384   4.925   2.934   0.050
13814TIP3    H141385   5.002   2.883   0.027
13814TIP3    H241386   4.934   2.950   0.144
13815TIP3   OH241387   8.286   5.157   1.926
13815TIP3    H141388   8.207   5.211   1.937
13815TIP3    H241389   8.259   5.089   1.864
13816TIP3   OH241390   6.536   2.670   6.362
13816TIP3    H141391   6.557   2.636   6.449
13816TIP3    H241392   6.582   2.612   6.302
13817TIP3   OH241393   0.875   6.579   4.417
13817TIP3    H141394   0.885   6.484   4.427
13817TIP3    H241395   0.868   6.612   4.506
13818TIP3   OH241396   5.193   4.849   3.831
13818TIP3    H141397   5.166   4.925   3.884
13818TIP3    H241398   5.112   4.802   3.814
13819TIP3   OH241399   6.127   1.644   1.151
13819TIP3    H141400   6.080   1.728   1.151
13819TIP3    H241401   6.203   1.660   1.207
13820TIP3   OH241402   5.716   1.931   3.608
13820TIP3    H141403   5.640   1.971   3.566
13820TIP3    H241404   5.723   1.976   3.692
13821TIP3   OH241405   6.571   4.953   3.233
13821TIP3    H141406   6.599   5.008   3.306
13821TIP3    H241407   6.490   4.994   3.203
13822TIP3   OH241408   8.048   1.176   2.440
13822TIP3    H141409   8.136   1.139   2.440
13822TIP3    H241410   7.992   1.104   2.470
13823TIP3   OH241411   6.646   3.611   6.259
13823TIP3    H141412   6.679   3.691   6.218
13823TIP3    H241413   6.553   3.626   6.271
13824TIP3   OH241414   7.671   0.954   2.699
13824TIP3    H141415   7.585   0.995   2.686
13824TIP3    H241416   7.704   0.993   2.780
13825TIP3   OH241417   6.814   5.209   1.928
13825TIP3    H141418   6.880   5.279   1.925
13825TIP3    H241419   6.862   5.131   1.956
13826TIP3   OH241420   2.298   4.954   2.547
13826TIP3    H141421   2.253   4.992   2.471
13826TIP3    H241422   2.336   5.030   2.591
13827TIP3   OH241423   6.725   7.281   4.080
13827TIP3    H141424   6.693   7.316   4.163
13827TIP3    H241425   6.786   7.347   4.048
13828TIP3   OH241426   3.866   1.460   2.199
13828TIP3    H141427   3.841   1.468   2.107
13828TIP3    H241428   3.817   1.384   2.230
13829TIP3   OH241429   3.779   4.782   4.761
13829TIP3    H141430   3.804   4.797   4.852
13829TIP3    H241431   3.688   4.751   4.767
13830TIP3   OH241432   0.262   7.696   4.581
13830TIP3    H141433   0.349   7.680   4.545
13830TIP3    H241434   0.268   7.783   4.620
13831TIP3   OH241435   0.522   4.433   4.039
13831TIP3    H141436   0.482   4.373   3.977
13831TIP3    H241437   0.611   4.399   4.051
13832TIP3   OH241438   6.443   5.475   2.512
13832TIP3    H141439   6.431   5.558   2.559
13832TIP3    H241440   6.485   5.499   2.429
13833TIP3   OH241441   6.776   5.615   3.254
13833TIP3    H141442   6.743   5.687   3.201
13833TIP3    H241443   6.717   5.612   3.329
13834TIP3   OH241444   2.523   0.728   6.742
13834TIP3    H141445   2.516   0.823   6.743
13834TIP3    H241446   2.617   0.711   6.741
13835TIP3   OH241447   0.471   0.413   5.047
13835TIP3    H141448   0.379   0.413   5.021
13835TIP3    H241449   0.485   0.327   5.085
13836TIP3   OH241450   1.967   5.466   1.403
13836TIP3    H141451   1.939   5.528   1.471
13836TIP3    H241452   2.011   5.396   1.452
13837TIP3   OH241453   2.841   1.516   6.100
13837TIP3    H141454   2.866   1.590   6.154
13837TIP3    H241455   2.747   1.504   6.117
13838TIP3   OH241456   4.725   6.206   4.200
13838TIP3    H141457   4.778   6.165   4.132
13838TIP3    H241458   4.679   6.277   4.155
13839TIP3   OH241459   0.967   1.402   4.068
13839TIP3    H141460   0.978   1.320   4.019
13839TIP3    H241461   0.985   1.470   4.004
13840TIP3   OH241462   1.946   4.988   4.678
13840TIP3    H141463   1.851   4.983   4.678
13840TIP3    H241464   1.966   5.072   4.637
13841TIP3   OH241465   1.143   3.212   5.229
13841TIP3    H141466   1.095   3.205   5.146
13841TIP3    H241467   1.207   3.141   5.225
13842TIP3   OH241468   1.352   1.943   1.369
13842TIP3    H141469   1.309   1.899   1.295
13842TIP3    H241470   1.420   1.997   1.329
13843TIP3   OH241471   1.989   2.267   4.100
13843TIP3    H141472   1.929   2.240   4.170
13843TIP3    H241473   2.075   2.268   4.142
13844TIP3   OH241474   5.834   6.749   5.851
13844TIP3    H141475   5.801   6.660   5.849
13844TIP3    H241476   5.849   6.767   5.943
13845TIP3   OH241477   2.605   5.439   6.487
13845TIP3    H141478   2.685   5.454   6.436
13845TIP3    H241479   2.611   5.348   6.515
13846TIP3   OH241480   6.031   5.629   3.938
13846TIP3    H141481   6.055   5.553   3.991
13846TIP3    H241482   5.940   5.648   3.963
13847TIP3   OH241483   6.684   6.477   0.371
13847TIP3    H141484   6.724   6.520   0.295
13847TIP3    H241485   6.590   6.481   0.353
13848TIP3   OH241486   4.150   1.509   0.814
13848TIP3    H141487   4.157   1.508   0.719
13848TIP3    H241488   4.057   1.522   0.831
13849TIP3   OH241489   6.870   5.050   2.726
13849TIP3    H141490   6.839   5.095   2.805
13849TIP3    H241491   6.790   5.017   2.684
13850TIP3   OH241492   5.776   4.119   4.586
13850TIP3    H141493   5.793   4.074   4.668
13850TIP3    H241494   5.860   4.121   4.541
13851TIP3   OH241495   5.045   7.675   3.772
13851TIP3    H141496   5.077   7.742   3.712
13851TIP3    H241497   4.952   7.667   3.752
13852TIP3   OH241498   4.365   0.810   3.337
13852TIP3    H141499   4.336   0.753   3.409
13852TIP3    H241500   4.443   0.767   3.303
13853TIP3   OH241501   7.825   3.483   3.224
13853TIP3    H141502   7.846   3.412   3.162
13853TIP3    H241503   7.909   3.507   3.262
13854TIP3   OH241504   5.294   7.035   6.212
13854TIP3    H141505   5.320   7.017   6.122
13854TIP3    H241506   5.199   7.039   6.209
13855TIP3   OH241507   3.295   0.526   4.567
13855TIP3    H141508   3.271   0.618   4.557
13855TIP3    H241509   3.367   0.513   4.505
13856TIP3   OH241510   7.624   2.282   4.594
13856TIP3    H141511   7.635   2.352   4.658
13856TIP3    H241512   7.651   2.203   4.640
13857TIP3   OH241513   4.851   6.670   5.855
13857TIP3    H141514   4.938   6.678   5.818
13857TIP3    H241515   4.793   6.710   5.790
13858TIP3   OH241516   6.412   0.157   4.578
13858TIP3    H141517   6.325   0.180   4.612
13858TIP3    H241518   6.431   0.072   4.619
13859TIP3   OH241519   1.021   2.294   1.178
13859TIP3    H141520   0.966   2.225   1.141
13859TIP3    H241521   1.061   2.336   1.101
13860TIP3   OH241522   6.772   5.220   2.214
13860TIP3    H141523   6.865   5.217   2.235
13860TIP3    H241524   6.765   5.289   2.148
13861TIP3   OH241525   4.283   1.327   3.075
13861TIP3    H141526   4.256   1.236   3.087
13861TIP3    H241527   4.373   1.330   3.107
13862TIP3   OH241528   4.517   5.153   2.108
13862TIP3    H141529   4.465   5.166   2.187
13862TIP3    H241530   4.517   5.058   2.095
13863TIP3   OH241531   0.465   3.952   0.096
13863TIP3    H141532   0.507   3.993   0.021
13863TIP3    H241533   0.372   3.955   0.076
13864TIP3   OH241534   6.154   0.873   4.763
13864TIP3    H141535   6.208   0.803   4.800
13864TIP3    H241536   6.068   0.831   4.749
13865TIP3   OH241537   6.149   6.733   3.678
13865TIP3    H141538   6.142   6.826   3.658
13865TIP3    H241539   6.234   6.723   3.720
13866TIP3   OH241540   5.346   0.605   5.159
13866TIP3    H141541   5.358   0.557   5.077
13866TIP3    H241542   5.272   0.561   5.201
13867TIP3   OH241543   2.987   0.046   0.858
13867TIP3    H141544   2.898   0.027   0.828
13867TIP3    H241545   3.043   0.014   0.788
13868TIP3   OH241546   7.591   6.419   6.632
13868TIP3    H141547   7.564   6.403   6.722
13868TIP3    H241548   7.578   6.335   6.588
13869TIP3   OH241549   6.823   2.869   6.309
13869TIP3    H141550   6.884   2.850   6.238
13869TIP3    H241551   6.817   2.788   6.359
13870TIP3   OH241552   2.054   2.270   1.579
13870TIP3    H141553   2.131   2.220   1.606
13870TIP3    H241554   2.046   2.339   1.644
13871TIP3   OH241555   2.267   1.292   6.665
13871TIP3    H141556   2.316   1.374   6.670
13871TIP3    H241557   2.205   1.305   6.593
13872TIP3   OH241558   6.289   5.056   0.484
13872TIP3    H141559   6.232   4.983   0.508
13872TIP3    H241560   6.334   5.079   0.565
13873TIP3   OH241561   5.351   5.384   1.027
13873TIP3    H141562   5.376   5.416   0.941
13873TIP3    H241563   5.390   5.447   1.089
13874TIP3   OH241564   2.544   5.877   1.265
13874TIP3    H141565   2.497   5.953   1.231
13874TIP3    H241566   2.622   5.913   1.307
13875TIP3   OH241567   6.178   0.339   2.970
13875TIP3    H141568   6.192   0.262   3.025
13875TIP3    H241569   6.083   0.346   2.962
13876TIP3   OH241570  -0.030   0.088   2.199
13876TIP3    H141571   0.033   0.092   2.127
13876TIP3    H241572   0.000   0.014   2.252
13877TIP3   OH241573   7.923   0.767   6.134
13877TIP3    H141574   7.883   0.702   6.192
13877TIP3    H241575   7.972   0.825   6.193
13878TIP3   OH241576   3.630   6.874   5.864
13878TIP3    H141577   3.607   6.964   5.885
13878TIP3    H241578   3.670   6.879   5.777
13879TIP3   OH241579   4.069   0.800   5.595
13879TIP3    H141580   4.121   0.739   5.542
13879TIP3    H241581   3.999   0.829   5.536
13880TIP3   OH241582   4.338   0.936   5.397
13880TIP3    H141583   4.343   0.977   5.483
13880TIP3    H241584   4.281   0.995   5.347
13881TIP3   OH241585   4.353   0.890   3.652
13881TIP3    H141586   4.425   0.947   3.676
13881TIP3    H241587   4.293   0.894   3.727
13882TIP3   OH241588   0.431   5.341   2.944
13882TIP3    H141589   0.369   5.336   2.872
13882TIP3    H241590   0.440   5.251   2.976
13883TIP3   OH241591   5.203   6.052   1.849
13883TIP3    H141592   5.219   6.097   1.932
13883TIP3    H241593   5.176   5.964   1.874
13884TIP3   OH241594   1.951   1.359   1.354
13884TIP3    H141595   1.914   1.280   1.314
13884TIP3    H241596   2.007   1.396   1.286
13885TIP3   OH241597   2.802   6.468   4.874
13885TIP3    H141598   2.885   6.479   4.920
13885TIP3    H241599   2.768   6.385   4.906
13886TIP3   OH241600   4.845   3.961   1.770
13886TIP3    H141601   4.932   3.984   1.802
13886TIP3    H241602   4.844   3.993   1.680
13887TIP3   OH241603   6.816   5.598   5.794
13887TIP3    H141604   6.824   5.574   5.886
13887TIP3    H241605   6.749   5.666   5.792
13888TIP3   OH241606   3.284   4.142   3.461
13888TIP3    H141607   3.270   4.212   3.525
13888TIP3    H241608   3.380   4.136   3.453
13889TIP3   OH241609   0.304   4.171   2.391
13889TIP3    H141610   0.392   4.192   2.423
13889TIP3    H241611   0.251   4.247   2.414
13890TIP3   OH241612   2.942   5.468   5.136
13890TIP3    H141613   3.022   5.474   5.188
13890TIP3    H241614   2.921   5.374   5.133
13891TIP3   OH241615   3.026   7.739   5.339
13891TIP3    H141616   3.036   7.805   5.270
13891TIP3    H241617   2.988   7.787   5.413
13892TIP3   OH241618   7.846   1.202   2.228
13892TIP3    H141619   7.895   1.217   2.308
13892TIP3    H241620   7.777   1.140   2.253
13893TIP3   OH241621   1.924   3.609   6.421
13893TIP3    H141622   1.854   3.659   6.461
13893TIP3    H241623   2.004   3.651   6.450
13894TIP3   OH241624   5.057   4.473   4.950
13894TIP3    H141625   4.974   4.473   4.998
13894TIP3    H241626   5.069   4.382   4.923
13895TIP3   OH241627   6.353   4.667   3.809
13895TIP3    H141628   6.324   4.738   3.753
13895TIP3    H241629   6.338   4.699   3.898
13896TIP3   OH241630   5.162   6.694   5.241
13896TIP3    H141631   5.077   6.691   5.197
13896TIP3    H241632   5.206   6.770   5.202
13897TIP3   OH241633   2.603   2.641   0.859
13897TIP3    H141634   2.659   2.653   0.936
13897TIP3    H241635   2.645   2.694   0.791
13898TIP3   OH241636   6.679   0.051   6.053
13898TIP3    H141637   6.619  -0.023   6.063
13898TIP3    H241638   6.623   0.125   6.029
13899TIP3   OH241639   5.096   7.323   4.907
13899TIP3    H141640   5.045   7.371   4.972
13899TIP3    H241641   5.187   7.333   4.935
13900TIP3   OH241642   2.751   0.566   5.990
13900TIP3    H141643   2.655   0.568   5.997
13900TIP3    H241644   2.770   0.610   5.907
13901TIP3   OH241645   7.277   4.076   2.544
13901TIP3    H141646   7.283   4.096   2.451
13901TIP3    H241647   7.284   3.981   2.549
13902TIP3   OH241648   2.935   5.625   4.235
13902TIP3    H141649   2.986   5.592   4.309
13902TIP3    H241650   2.982   5.704   4.207
13903TIP3   OH241651   0.093   7.730   2.281
13903TIP3    H141652   0.141   7.807   2.250
13903TIP3    H241653   0.075   7.748   2.373
13904TIP3   OH241654   5.543   1.946   5.427
13904TIP3    H141655   5.627   1.989   5.409
13904TIP3    H241656   5.519   1.905   5.345
13905TIP3   OH241657   0.328   0.850   1.978
13905TIP3    H141658   0.404   0.857   1.920
13905TIP3    H241659   0.308   0.941   2.003
13906TIP3   OH241660   0.943   1.309   2.556
13906TIP3    H141661   0.928   1.328   2.464
13906TIP3    H241662   0.857   1.316   2.597
13907TIP3   OH241663   0.047   6.627   6.230
13907TIP3    H141664   0.053   6.681   6.309
13907TIP3    H241665   0.030   6.689   6.159
13908TIP3   OH241666   2.588   1.627   4.230
13908TIP3    H141667   2.665   1.570   4.229
13908TIP3    H241668   2.549   1.614   4.144
13909TIP3   OH241669   6.598   2.997   2.826
13909TIP3    H141670   6.584   3.026   2.736
13909TIP3    H241671   6.686   3.028   2.848
13910TIP3   OH241672   1.771   6.123   3.527
13910TIP3    H141673   1.782   6.153   3.617
13910TIP3    H241674   1.860   6.124   3.490
13911TIP3   OH241675   7.969   3.914   4.541
13911TIP3    H141676   7.907   3.942   4.609
13911TIP3    H241677   7.915   3.869   4.476
13912TIP3   OH241678   7.876   2.397   2.769
13912TIP3    H141679   7.827   2.475   2.741
13912TIP3    H241680   7.905   2.357   2.687
13913TIP3   OH241681   2.311   7.058   0.428
13913TIP3    H141682   2.356   7.142   0.432
13913TIP3    H241683   2.219   7.081   0.414
13914TIP3   OH241684   2.992   2.065   3.849
13914TIP3    H141685   3.015   1.977   3.821
13914TIP3    H241686   2.968   2.055   3.942
13915TIP3   OH241687   5.107   6.432   1.064
13915TIP3    H141688   5.025   6.422   1.015
13915TIP3    H241689   5.108   6.358   1.124
13916TIP3   OH241690   0.739   5.080   0.008
13916TIP3    H141691   0.786   5.002  -0.018
13916TIP3    H241692   0.800   5.128   0.064
13917TIP3   OH241693   5.977   6.583   6.352
13917TIP3    H141694   6.017   6.664   6.384
13917TIP3    H241695   6.051   6.530   6.321
13918TIP3   OH241696   1.303   2.965   5.639
13918TIP3    H141697   1.325   2.995   5.551
13918TIP3    H241698   1.258   2.881   5.625
13919TIP3   OH241699   2.656   3.458   1.100
13919TIP3    H141700   2.609   3.482   1.180
13919TIP3    H241701   2.746   3.484   1.116
13920TIP3   OH241702   4.226   5.503   3.476
13920TIP3    H141703   4.165   5.573   3.499
13920TIP3    H241704   4.272   5.482   3.558
13921TIP3   OH241705   0.734   5.422   1.865
13921TIP3    H141706   0.824   5.453   1.852
13921TIP3    H241707   0.687   5.450   1.787
13922TIP3   OH241708   6.309   6.334   2.341
13922TIP3    H141709   6.377   6.275   2.375
13922TIP3    H241710   6.227   6.297   2.374
13923TIP3   OH241711   4.578   1.572   4.756
13923TIP3    H141712   4.540   1.659   4.745
13923TIP3    H241713   4.567   1.553   4.849
13924TIP3   OH241714   1.504   3.433   3.945
13924TIP3    H141715   1.575   3.393   3.995
13924TIP3    H241716   1.523   3.409   3.854
13925TIP3   OH241717   3.185   7.439   4.047
13925TIP3    H141718   3.104   7.402   4.011
13925TIP3    H241719   3.158   7.482   4.128
13926TIP3   OH241720   1.181   3.884   4.479
13926TIP3    H141721   1.267   3.888   4.438
13926TIP3    H241722   1.199   3.855   4.569
13927TIP3   OH241723   1.956   6.112   0.651
13927TIP3    H141724   1.947   6.060   0.732
13927TIP3    H241725   1.939   6.202   0.679
13928TIP3   OH241726   5.835   5.145   2.613
13928TIP3    H141727   5.927   5.119   2.603
13928TIP3    H241728   5.789   5.100   2.542
13929TIP3   OH241729   1.852   7.495   1.733
13929TIP3    H141730   1.797   7.424   1.766
13929TIP3    H241731   1.819   7.513   1.645
13930TIP3   OH241732   6.855   7.110   0.251
13930TIP3    H141733   6.779   7.066   0.289
13930TIP3    H241734   6.930   7.074   0.298
13931TIP3   OH241735   3.974   0.392   4.366
13931TIP3    H141736   3.901   0.451   4.349
13931TIP3    H241737   4.015   0.379   4.280
13932TIP3   OH241738   1.427   7.047   2.635
13932TIP3    H141739   1.397   6.958   2.617
13932TIP3    H241740   1.452   7.046   2.728
13933TIP3   OH241741   7.962   6.252   0.908
13933TIP3    H141742   8.022   6.282   0.839
13933TIP3    H241743   8.018   6.207   0.971
13934TIP3   OH241744   2.514   5.335   3.521
13934TIP3    H141745   2.535   5.376   3.605
13934TIP3    H241746   2.419   5.334   3.518
13935TIP3   OH241747   7.440   5.143   2.158
13935TIP3    H141748   7.390   5.181   2.085
13935TIP3    H241749   7.401   5.056   2.170
13936TIP3   OH241750   4.909   6.162   3.994
13936TIP3    H141751   4.862   6.101   3.937
13936TIP3    H241752   4.976   6.200   3.938
13937TIP3   OH241753   4.091   0.218   4.063
13937TIP3    H141754   4.166   0.202   4.120
13937TIP3    H241755   4.117   0.181   3.978
13938TIP3   OH241756   3.932   1.821   4.304
13938TIP3    H141757   3.984   1.771   4.241
13938TIP3    H241758   3.849   1.773   4.309
13939TIP3   OH241759   3.933   3.289   5.382
13939TIP3    H141760   3.841   3.298   5.358
13939TIP3    H241761   3.981   3.342   5.318
13940TIP3   OH241762   0.188   4.763   3.001
13940TIP3    H141763   0.184   4.822   3.076
13940TIP3    H241764   0.172   4.676   3.038
13941TIP3   OH241765   3.616   4.659   2.218
13941TIP3    H141766   3.662   4.650   2.301
13941TIP3    H241767   3.523   4.651   2.241
13942TIP3   OH241768   5.037   3.782   1.763
13942TIP3    H141769   5.034   3.722   1.688
13942TIP3    H241770   5.122   3.825   1.755
13943TIP3   OH241771   1.019   2.898   4.707
13943TIP3    H141772   0.996   2.989   4.687
13943TIP3    H241773   0.947   2.867   4.763
13944TIP3   OH241774   4.571   5.527   6.743
13944TIP3    H141775   4.497   5.587   6.732
13944TIP3    H241776   4.541   5.464   6.809
13945TIP3   OH241777   4.199   5.791   6.698
13945TIP3    H141778   4.277   5.840   6.722
13945TIP3    H241779   4.227   5.736   6.625
13946TIP3   OH241780   4.240   1.581   2.173
13946TIP3    H141781   4.333   1.579   2.153
13946TIP3    H241782   4.216   1.674   2.169
13947TIP3   OH241783   1.577   6.635   0.165
13947TIP3    H141784   1.628   6.555   0.171
13947TIP3    H241785   1.582   6.674   0.252
13948TIP3   OH241786   1.941   7.514   2.575
13948TIP3    H141787   1.849   7.530   2.557
13948TIP3    H241788   1.947   7.516   2.671
13949TIP3   OH241789   4.706   6.714   1.723
13949TIP3    H141790   4.671   6.779   1.663
13949TIP3    H241791   4.800   6.710   1.703
13950TIP3   OH241792   6.733   7.237   2.048
13950TIP3    H141793   6.706   7.328   2.035
13950TIP3    H241794   6.733   7.200   1.960
13951TIP3   OH241795   0.726   4.986   1.157
13951TIP3    H141796   0.811   4.944   1.170
13951TIP3    H241797   0.720   4.999   1.062
13952TIP3   OH241798   2.602   7.725   6.599
13952TIP3    H141799   2.576   7.656   6.660
13952TIP3    H241800   2.534   7.791   6.607
13953TIP3   OH241801   5.723   1.218   0.138
13953TIP3    H141802   5.668   1.276   0.189
13953TIP3    H241803   5.773   1.276   0.080
13954TIP3   OH241804   5.691   5.141   4.471
13954TIP3    H141805   5.763   5.116   4.413
13954TIP3    H241806   5.634   5.064   4.472
13955TIP3   OH241807   2.323   1.325   3.330
13955TIP3    H141808   2.243   1.322   3.277
13955TIP3    H241809   2.358   1.236   3.326
13956TIP3   OH241810   6.760   6.767   2.478
13956TIP3    H141811   6.722   6.689   2.518
13956TIP3    H241812   6.787   6.738   2.391
13957TIP3   OH241813   4.762   6.429   5.563
13957TIP3    H141814   4.800   6.518   5.566
13957TIP3    H241815   4.670   6.443   5.544
13958TIP3   OH241816   8.144   3.635   5.252
13958TIP3    H141817   8.075   3.587   5.297
13958TIP3    H241818   8.104   3.720   5.231
13959TIP3   OH241819   2.395   0.027   0.956
13959TIP3    H141820   2.366   0.080   0.882
13959TIP3    H241821   2.323  -0.034   0.972
13960TIP3   OH241822   5.815   4.534   1.235
13960TIP3    H141823   5.757   4.599   1.275
13960TIP3    H241824   5.780   4.522   1.147
13961TIP3   OH241825   0.735   4.074   3.914
13961TIP3    H141826   0.688   4.085   3.832
13961TIP3    H241827   0.689   4.003   3.959
13962TIP3   OH241828   6.133   2.248   1.370
13962TIP3    H141829   6.172   2.282   1.451
13962TIP3    H241830   6.194   2.182   1.339
13963TIP3   OH241831   1.413   6.851   1.305
13963TIP3    H141832   1.339   6.812   1.351
13963TIP3    H241833   1.393   6.944   1.302
13964TIP3   OH241834   5.786   1.642   5.326
13964TIP3    H141835   5.769   1.632   5.233
13964TIP3    H241836   5.807   1.735   5.337
13965TIP3   OH241837   2.217   3.996   3.320
13965TIP3    H141838   2.176   4.081   3.301
13965TIP3    H241839   2.236   3.959   3.234
13966TIP3   OH241840   0.046   5.558   1.008
13966TIP3    H141841   0.126   5.610   1.020
13966TIP3    H241842  -0.017   5.596   1.069
13967TIP3   OH241843   2.281   1.484   1.686
13967TIP3    H141844   2.260   1.400   1.645
13967TIP3    H241845   2.354   1.465   1.744
13968TIP3   OH241846   1.711   0.486   0.767
13968TIP3    H141847   1.635   0.450   0.721
13968TIP3    H241848   1.771   0.412   0.777
13969TIP3   OH241849   4.161   4.093   1.088
13969TIP3    H141850   4.250   4.079   1.055
13969TIP3    H241851   4.104   4.068   1.016
13970TIP3   OH241852   1.658   3.094   5.272
13970TIP3    H141853   1.621   3.154   5.207
13970TIP3    H241854   1.638   3.134   5.357
13971TIP3   OH241855   3.597   4.825   0.932
13971TIP3    H141856   3.622   4.821   0.840
13971TIP3    H241857   3.528   4.890   0.936
13972TIP3   OH241858   0.318   7.623   0.389
13972TIP3    H141859   0.350   7.546   0.435
13972TIP3    H241860   0.223   7.613   0.388
13973TIP3   OH241861   4.465   0.105   6.253
13973TIP3    H141862   4.400   0.137   6.190
13973TIP3    H241863   4.425   0.121   6.339
13974TIP3   OH241864   7.917   6.293   6.746
13974TIP3    H141865   7.929   6.363   6.810
13974TIP3    H241866   8.005   6.257   6.733
13975TIP3   OH241867   6.076   6.839   4.524
13975TIP3    H141868   6.050   6.910   4.582
13975TIP3    H241869   6.063   6.759   4.575
13976TIP3   OH241870   3.439   1.064   0.018
13976TIP3    H141871   3.451   1.001  -0.053
13976TIP3    H241872   3.471   1.019   0.096
13977TIP3   OH241873   0.088   6.073   1.004
13977TIP3    H141874   0.178   6.062   0.972
13977TIP3    H241875   0.098   6.090   1.097
13978TIP3   OH241876   2.643   2.722   6.565
13978TIP3    H141877   2.641   2.637   6.521
13978TIP3    H241878   2.633   2.786   6.494
13979TIP3   OH241879   4.851   5.436   0.262
13979TIP3    H141880   4.931   5.435   0.315
13979TIP3    H241881   4.865   5.367   0.197
13980TIP3   OH241882   5.390   0.788   6.517
13980TIP3    H141883   5.340   0.847   6.460
13980TIP3    H241884   5.482   0.810   6.498
13981TIP3   OH241885   0.630   1.857   3.719
13981TIP3    H141886   0.554   1.864   3.778
13981TIP3    H241887   0.607   1.911   3.644
13982TIP3   OH241888   6.459   1.927   6.782
13982TIP3    H141889   6.474   1.907   6.690
13982TIP3    H241890   6.379   1.880   6.804
13983TIP3   OH241891   7.974   1.770   4.460
13983TIP3    H141892   7.925   1.852   4.463
13983TIP3    H241893   7.936   1.722   4.386
13984TIP3   OH241894   1.803   1.816   4.811
13984TIP3    H141895   1.740   1.875   4.771
13984TIP3    H241896   1.786   1.823   4.905
13985TIP3   OH241897   5.010   7.012   3.914
13985TIP3    H141898   4.988   7.036   3.824
13985TIP3    H241899   4.977   6.923   3.923
13986TIP3   OH241900   0.951   0.025   3.258
13986TIP3    H141901   0.868  -0.016   3.282
13986TIP3    H241902   0.975   0.077   3.335
13987TIP3   OH241903   1.079   2.553   4.937
13987TIP3    H141904   1.038   2.634   4.965
13987TIP3    H241905   1.045   2.486   4.997
13988TIP3   OH241906   3.923   1.407   4.026
13988TIP3    H141907   3.915   1.498   4.000
13988TIP3    H241908   3.948   1.410   4.118
13989TIP3   OH241909   0.286   6.341   0.571
13989TIP3    H141910   0.221   6.279   0.605
13989TIP3    H241911   0.349   6.351   0.643
13990TIP3   OH241912   6.342   6.950   6.737
13990TIP3    H141913   6.262   6.910   6.769
13990TIP3    H241914   6.353   7.029   6.790
13991TIP3   OH241915   5.249   2.606   6.434
13991TIP3    H141916   5.178   2.628   6.493
13991TIP3    H241917   5.206   2.566   6.358
13992TIP3   OH241918   6.972   0.777   6.392
13992TIP3    H141919   7.055   0.729   6.392
13992TIP3    H241920   6.990   0.857   6.442
13993TIP3   OH241921   6.769   7.202   0.008
13993TIP3    H141922   6.770   7.194   0.103
13993TIP3    H241923   6.831   7.273  -0.011
13994TIP3   OH241924   3.975   0.888   2.785
13994TIP3    H141925   4.048   0.892   2.723
13994TIP3    H241926   3.908   0.837   2.740
13995TIP3   OH241927   2.640   0.264   5.695
13995TIP3    H141928   2.665   0.179   5.731
13995TIP3    H241929   2.714   0.289   5.640
13996TIP3   OH241930   8.204   6.890   1.375
13996TIP3    H141931   8.158   6.842   1.307
13996TIP3    H241932   8.297   6.874   1.357
13997TIP3   OH241933   0.293   2.901   5.169
13997TIP3    H141934   0.267   2.850   5.092
13997TIP3    H241935   0.386   2.922   5.153
13998TIP3   OH241936   8.105   3.063   2.860
13998TIP3    H141937   8.101   2.976   2.822
13998TIP3    H241938   8.054   3.057   2.940
13999TIP3   OH241939   7.647   1.967   5.781
13999TIP3    H141940   7.578   1.980   5.716
13999TIP3    H241941   7.716   2.028   5.755
14000TIP3   OH241942   3.684   4.380   4.831
14000TIP3    H141943   3.695   4.438   4.906
14000TIP3    H241944   3.601   4.335   4.848
14001TIP3   OH241945   3.797   6.266   2.456
14001TIP3    H141946   3.821   6.357   2.474
14001TIP3    H241947   3.738   6.270   2.381
14002TIP3   OH241948   0.555   6.082   3.136
14002TIP3    H141949   0.506   6.164   3.139
14002TIP3    H241950   0.630   6.096   3.194
14003TIP3   OH241951   7.885   5.330   1.658
14003TIP3    H141952   7.908   5.286   1.739
14003TIP3    H241953   7.825   5.270   1.614
14004TIP3   OH241954   0.151   0.987   4.669
14004TIP3    H141955   0.200   1.032   4.601
14004TIP3    H241956   0.107   0.915   4.623
14005TIP3   OH241957   6.657   5.770   3.910
14005TIP3    H141958   6.616   5.844   3.955
14005TIP3    H241959   6.653   5.698   3.973
14006TIP3   OH241960   0.021   5.771   2.145
14006TIP3    H141961  -0.047   5.714   2.110
14006TIP3    H241962   0.085   5.780   2.074
14007TIP3   OH241963   3.527   6.513   1.018
14007TIP3    H141964   3.547   6.575   0.948
14007TIP3    H241965   3.450   6.549   1.061
14008TIP3   OH241966   2.746   6.780   6.145
14008TIP3    H141967   2.738   6.870   6.112
14008TIP3    H241968   2.730   6.788   6.239
14009TIP3   OH241969   5.485   3.795   1.082
14009TIP3    H141970   5.559   3.850   1.105
14009TIP3    H241971   5.501   3.712   1.126
14010TIP3   OH241972   2.186   7.603   5.172
14010TIP3    H141973   2.099   7.645   5.172
14010TIP3    H241974   2.196   7.570   5.261
14011TIP3   OH241975   4.314   0.906   3.943
14011TIP3    H141976   4.324   0.965   4.018
14011TIP3    H241977   4.399   0.862   3.936
14012TIP3   OH241978   6.205   5.461   6.548
14012TIP3    H141979   6.260   5.384   6.558
14012TIP3    H241980   6.157   5.468   6.630
14013TIP3   OH241981   2.127   6.641   1.439
14013TIP3    H141982   2.114   6.576   1.369
14013TIP3    H241983   2.126   6.590   1.520
14014TIP3   OH241984   0.606   0.900   5.415
14014TIP3    H141985   0.624   0.971   5.477
14014TIP3    H241986   0.691   0.855   5.406
14015TIP3   OH241987   3.540   6.442   0.190
14015TIP3    H141988   3.628   6.425   0.224
14015TIP3    H241989   3.495   6.357   0.197
14016TIP3   OH241990   0.171   1.013   2.516
14016TIP3    H141991   0.253   0.965   2.531
14016TIP3    H241992   0.176   1.041   2.425
14017TIP3   OH241993   6.995   6.266   0.656
14017TIP3    H141994   6.971   6.292   0.745
14017TIP3    H241995   6.955   6.180   0.645
14018TIP3   OH241996   5.797   6.164   4.487
14018TIP3    H141997   5.831   6.114   4.560
14018TIP3    H241998   5.807   6.256   4.514
14019TIP3   OH241999   7.166   5.524   6.012
14019TIP3    H142000   7.183   5.487   5.926
14019TIP3    H242001   7.093   5.584   5.999
14020TIP3   OH242002   6.807   0.036   4.697
14020TIP3    H142003   6.898   0.024   4.726
14020TIP3    H242004   6.788  -0.043   4.647
14021TIP3   OH242005   5.661   4.098   4.359
14021TIP3    H142006   5.696   4.120   4.445
14021TIP3    H242007   5.663   4.002   4.356
14022TIP3   OH242008   2.694   5.876   3.561
14022TIP3    H142009   2.755   5.911   3.626
14022TIP3    H242010   2.716   5.922   3.480
14023TIP3   OH242011   5.995   1.079   2.484
14023TIP3    H142012   5.936   1.141   2.442
14023TIP3    H242013   6.082   1.116   2.473
14024TIP3   OH242014   4.666   5.653   5.065
14024TIP3    H142015   4.720   5.668   5.143
14024TIP3    H242016   4.723   5.675   4.992
14025TIP3   OH242017   6.752   0.268   1.197
14025TIP3    H142018   6.666   0.233   1.172
14025TIP3    H242019   6.746   0.280   1.291
14026TIP3   OH242020   7.391   3.399   2.782
14026TIP3    H142021   7.400   3.459   2.856
14026TIP3    H242022   7.477   3.356   2.775
14027TIP3   OH242023   1.078   2.395   4.350
14027TIP3    H142024   1.023   2.319   4.370
14027TIP3    H242025   1.018   2.457   4.308
14028TIP3   OH242026   5.954   4.642   1.642
14028TIP3    H142027   5.996   4.642   1.556
14028TIP3    H242028   5.982   4.561   1.683
14029TIP3   OH242029   0.885   5.115   6.671
14029TIP3    H142030   0.868   5.131   6.578
14029TIP3    H242031   0.901   5.021   6.676
14030TIP3   OH242032   5.600   5.492   5.414
14030TIP3    H142033   5.536   5.518   5.481
14030TIP3    H242034   5.665   5.441   5.462
14031TIP3   OH242035   4.862   6.999   2.205
14031TIP3    H142036   4.831   6.994   2.115
14031TIP3    H242037   4.804   6.941   2.254
14032TIP3   OH242038   8.050   4.696   1.179
14032TIP3    H142039   8.015   4.627   1.235
14032TIP3    H242040   8.137   4.714   1.215
14033TIP3   OH242041   5.764   3.285   3.915
14033TIP3    H142042   5.831   3.352   3.928
14033TIP3    H242043   5.748   3.251   4.002
14034TIP3   OH242044   8.282   0.637   2.314
14034TIP3    H142045   8.260   0.698   2.243
14034TIP3    H242046   8.253   0.551   2.282
14035TIP3   OH242047   1.426   4.621   1.224
14035TIP3    H142048   1.386   4.620   1.137
14035TIP3    H242049   1.481   4.699   1.223
14036TIP3   OH242050   4.388   0.806   5.006
14036TIP3    H142051   4.441   0.884   4.993
14036TIP3    H242052   4.439   0.735   4.966
14037TIP3   OH242053   2.912   1.556   2.197
14037TIP3    H142054   2.822   1.523   2.195
14037TIP3    H242055   2.964   1.484   2.232
14038TIP3   OH242056   4.308   2.389   2.234
14038TIP3    H142057   4.400   2.368   2.220
14038TIP3    H242058   4.264   2.363   2.153
14039TIP3   OH242059   3.712   7.116   3.193
14039TIP3    H142060   3.802   7.110   3.226
14039TIP3    H242061   3.721   7.157   3.107
14040TIP3   OH242062   2.126   3.339   4.921
14040TIP3    H142063   2.202   3.280   4.917
14040TIP3    H242064   2.162   3.425   4.899
14041TIP3   OH242065   3.993   0.479   3.562
14041TIP3    H142066   3.954   0.396   3.588
14041TIP3    H242067   3.952   0.500   3.478
14042TIP3   OH242068   3.414   4.981   1.555
14042TIP3    H142069   3.444   5.020   1.637
14042TIP3    H242070   3.464   5.026   1.487
14043TIP3   OH242071   2.867   4.491   3.715
14043TIP3    H142072   2.860   4.458   3.805
14043TIP3    H242073   2.957   4.474   3.690
14044TIP3   OH242074   3.142   3.657   4.291
14044TIP3    H142075   3.177   3.743   4.315
14044TIP3    H242076   3.059   3.650   4.338
14045TIP3   OH242077   2.046   3.023   6.461
14045TIP3    H142078   1.993   3.080   6.517
14045TIP3    H242079   2.026   3.051   6.372
14046TIP3   OH242080   1.275   2.608   4.763
14046TIP3    H142081   1.253   2.695   4.731
14046TIP3    H242082   1.194   2.575   4.802
14047TIP3   OH242083   0.526   3.581   3.882
14047TIP3    H142084   0.545   3.540   3.797
14047TIP3    H242085   0.574   3.528   3.945
14048TIP3   OH242086   5.890   3.002   5.177
14048TIP3    H142087   5.885   3.070   5.244
14048TIP3    H242088   5.805   3.005   5.134
14049TIP3   OH242089   7.098   3.439   0.842
14049TIP3    H142090   7.141   3.407   0.763
14049TIP3    H242091   7.158   3.506   0.876
14050TIP3   OH242092   5.412   7.680   5.784
14050TIP3    H142093   5.438   7.772   5.780
14050TIP3    H242094   5.320   7.680   5.757
14051TIP3   OH242095   7.413   2.098   2.929
14051TIP3    H142096   7.395   2.192   2.922
14051TIP3    H242097   7.338   2.056   2.886
14052TIP3   OH242098   1.207   7.516   1.017
14052TIP3    H142099   1.301   7.497   1.010
14052TIP3    H242100   1.179   7.467   1.094
14053TIP3   OH242101   4.340   0.104   5.813
14053TIP3    H142102   4.343   0.023   5.762
14053TIP3    H242103   4.310   0.076   5.899
14054TIP3   OH242104   6.409   4.132   5.027
14054TIP3    H142105   6.375   4.194   5.091
14054TIP3    H242106   6.492   4.171   4.997
14055TIP3   OH242107   2.980   4.892   3.844
14055TIP3    H142108   3.036   4.845   3.907
14055TIP3    H242109   2.954   4.971   3.890
14056TIP3   OH242110   1.328   5.955   0.963
14056TIP3    H142111   1.385   5.928   1.035
14056TIP3    H242112   1.241   5.962   1.001
14057TIP3   OH242113   4.235   4.249   6.755
14057TIP3    H142114   4.224   4.242   6.660
14057TIP3    H242115   4.276   4.166   6.780
14058TIP3   OH242116   2.581   2.849   6.334
14058TIP3    H142117   2.648   2.889   6.278
14058TIP3    H242118   2.535   2.789   6.276
14059TIP3   OH242119   2.855   1.146   2.914
14059TIP3    H142120   2.814   1.080   2.970
14059TIP3    H242121   2.782   1.193   2.874
14060TIP3   OH242122   3.157   7.614   4.354
14060TIP3    H142123   3.158   7.698   4.399
14060TIP3    H242124   3.170   7.550   4.424
14061TIP3   OH242125   1.504   1.203   2.776
14061TIP3    H142126   1.469   1.241   2.857
14061TIP3    H242127   1.555   1.273   2.736
14062TIP3   OH242128   3.114   0.074   2.551
14062TIP3    H142129   3.021   0.073   2.575
14062TIP3    H242130   3.151   0.146   2.601
14063TIP3   OH242131   8.116   4.760   4.431
14063TIP3    H142132   8.027   4.760   4.465
14063TIP3    H242133   8.114   4.702   4.356
14064TIP3   OH242134   4.194   4.055   0.248
14064TIP3    H142135   4.238   4.103   0.317
14064TIP3    H242136   4.262   4.000   0.209
14065TIP3   OH242137   1.538   2.636   4.981
14065TIP3    H142138   1.545   2.612   4.888
14065TIP3    H242139   1.509   2.727   4.980
14066TIP3   OH242140   5.619   7.094   1.586
14066TIP3    H142141   5.533   7.068   1.553
14066TIP3    H242142   5.670   7.013   1.585
14067TIP3   OH242143   3.385   2.672   5.444
14067TIP3    H142144   3.477   2.650   5.432
14067TIP3    H242145   3.379   2.706   5.533
14068TIP3   OH242146   0.017   0.225   0.783
14068TIP3    H142147   0.084   0.163   0.810
14068TIP3    H242148  -0.034   0.179   0.716
14069TIP3   OH242149   3.213   0.947   3.879
14069TIP3    H142150   3.284   0.888   3.856
14069TIP3    H242151   3.150   0.892   3.925
14070TIP3   OH242152   7.351   3.842   4.765
14070TIP3    H142153   7.259   3.833   4.791
14070TIP3    H242154   7.399   3.835   4.848
14071TIP3   OH242155   4.697   3.907   5.664
14071TIP3    H142156   4.725   3.999   5.659
14071TIP3    H242157   4.773   3.861   5.701
14072TIP3   OH242158   5.762   4.725  -0.024
14072TIP3    H142159   5.686   4.779  -0.002
14072TIP3    H242160   5.767   4.661   0.047
14073TIP3   OH242161   4.563   1.662   5.613
14073TIP3    H142162   4.499   1.662   5.684
14073TIP3    H242163   4.641   1.621   5.650
14074TIP3   OH242164   0.531   4.089   1.958
14074TIP3    H142165   0.539   4.079   2.052
14074TIP3    H242166   0.440   4.114   1.944
14075TIP3   OH242167   2.275   7.099   2.921
14075TIP3    H142168   2.270   7.135   2.833
14075TIP3    H242169   2.184   7.090   2.949
14076TIP3   OH242170   7.127   7.464   0.386
14076TIP3    H142171   7.135   7.541   0.330
14076TIP3    H242172   7.043   7.425   0.362
14077TIP3   OH242173   7.680   0.289   0.395
14077TIP3    H142174   7.649   0.379   0.381
14077TIP3    H242175   7.619   0.253   0.460
14078TIP3   OH242176   2.780   2.557   2.383
14078TIP3    H142177   2.796   2.591   2.295
14078TIP3    H242178   2.811   2.467   2.380
14079TIP3   OH242179   4.933   3.514   6.443
14079TIP3    H142180   4.890   3.431   6.459
14079TIP3    H242181   4.876   3.579   6.483
14080TIP3   OH242182   1.777   6.216   3.787
14080TIP3    H142183   1.742   6.247   3.871
14080TIP3    H242184   1.863   6.259   3.779
14081TIP3   OH242185   0.613   0.896   2.206
14081TIP3    H142186   0.669   0.971   2.183
14081TIP3    H242187   0.617   0.892   2.302
14082TIP3   OH242188   0.705   6.814   2.727
14082TIP3    H142189   0.673   6.724   2.720
14082TIP3    H242190   0.630   6.864   2.758
14083TIP3   OH242191   0.055   4.952   4.214
14083TIP3    H142192   0.006   4.911   4.143
14083TIP3    H242193   0.144   4.961   4.179
14084TIP3   OH242194   4.927   5.335   6.126
14084TIP3    H142195   4.970   5.376   6.050
14084TIP3    H242196   4.997   5.323   6.189
14085TIP3   OH242197   3.353   1.594   1.173
14085TIP3    H142198   3.323   1.684   1.187
14085TIP3    H242199   3.435   1.589   1.223
14086TIP3   OH242200   7.974   6.230   3.226
14086TIP3    H142201   7.939   6.239   3.315
14086TIP3    H242202   7.977   6.320   3.193
14087TIP3   OH242203   7.558   3.078   0.501
14087TIP3    H142204   7.591   3.000   0.456
14087TIP3    H242205   7.528   3.136   0.431
14088TIP3   OH242206   7.221   1.892   4.850
14088TIP3    H142207   7.148   1.837   4.878
14088TIP3    H242208   7.187   1.982   4.856
14089TIP3   OH242209   7.253   5.729   3.162
14089TIP3    H142210   7.293   5.815   3.163
14089TIP3    H242211   7.296   5.683   3.090
14090TIP3   OH242212   1.899   4.811   1.179
14090TIP3    H142213   1.900   4.878   1.111
14090TIP3    H242214   1.933   4.855   1.257
14091TIP3   OH242215   5.352   2.818   5.946
14091TIP3    H142216   5.400   2.843   5.867
14091TIP3    H242217   5.374   2.726   5.958
14092TIP3   OH242218   7.847   3.754   0.955
14092TIP3    H142219   7.941   3.757   0.975
14092TIP3    H242220   7.823   3.662   0.967
14093TIP3   OH242221   5.521   2.820   5.737
14093TIP3    H142222   5.524   2.819   5.641
14093TIP3    H242223   5.594   2.876   5.763
14094TIP3   OH242224   3.395   6.244   1.160
14094TIP3    H142225   3.368   6.210   1.075
14094TIP3    H242226   3.399   6.339   1.148
14095TIP3   OH242227   6.359   4.814   2.714
14095TIP3    H142228   6.374   4.751   2.785
14095TIP3    H242229   6.359   4.760   2.635
14096TIP3   OH242230   6.113   2.500   3.577
14096TIP3    H142231   6.046   2.531   3.516
14096TIP3    H242232   6.072   2.508   3.664
14097TIP3   OH242233   0.267   1.685   1.454
14097TIP3    H142234   0.329   1.639   1.510
14097TIP3    H242235   0.221   1.615   1.407
14098TIP3   OH242236   6.266   1.141   2.326
14098TIP3    H142237   6.204   1.076   2.295
14098TIP3    H242238   6.349   1.118   2.283
14099TIP3   OH242239   2.503   3.616   4.569
14099TIP3    H142240   2.425   3.670   4.585
14099TIP3    H242241   2.478   3.560   4.496
14100TIP3   OH242242   2.751   2.247   6.048
14100TIP3    H142243   2.752   2.170   5.991
14100TIP3    H242244   2.841   2.257   6.078
14101TIP3   OH242245   4.297   5.578   0.223
14101TIP3    H142246   4.219   5.616   0.184
14101TIP3    H242247   4.365   5.591   0.157
14102TIP3   OH242248   0.139   1.955   0.451
14102TIP3    H142249   0.225   1.913   0.452
14102TIP3    H242250   0.106   1.944   0.540
14103TIP3   OH242251   7.753   6.540   5.683
14103TIP3    H142252   7.682   6.549   5.746
14103TIP3    H242253   7.724   6.591   5.607
14104TIP3   OH242254   5.612   7.428   4.258
14104TIP3    H142255   5.555   7.388   4.324
14104TIP3    H242256   5.681   7.364   4.244
14105TIP3   OH242257   2.756   7.428   2.940
14105TIP3    H142258   2.845   7.402   2.964
14105TIP3    H242259   2.711   7.438   3.024
14106TIP3   OH242260   1.828   3.218   3.870
14106TIP3    H142261   1.826   3.288   3.935
14106TIP3    H242262   1.892   3.156   3.903
14107TIP3   OH242263   5.539   5.360   4.604
14107TIP3    H142264   5.598   5.308   4.549
14107TIP3    H242265   5.564   5.450   4.588
14108TIP3   OH242266   2.663   4.729   0.400
14108TIP3    H142267   2.643   4.694   0.314
14108TIP3    H242268   2.599   4.799   0.413
14109TIP3   OH242269   1.846   0.884   4.283
14109TIP3    H142270   1.926   0.882   4.230
14109TIP3    H242271   1.847   0.971   4.324
14110TIP3   OH242272   4.111   5.909   0.542
14110TIP3    H142273   4.173   5.910   0.470
14110TIP3    H242274   4.159   5.872   0.616
14111TIP3   OH242275   5.378   1.967   1.202
14111TIP3    H142276   5.400   2.059   1.208
14111TIP3    H242277   5.325   1.950   1.280
14112TIP3   OH242278   3.970   3.855   5.088
14112TIP3    H142279   4.063   3.879   5.083
14112TIP3    H242280   3.964   3.774   5.037
14113TIP3   OH242281   7.031   0.293   1.188
14113TIP3    H142282   6.945   0.324   1.159
14113TIP3    H242283   7.074   0.371   1.224
14114TIP3   OH242284   3.940   1.755   3.608
14114TIP3    H142285   3.988   1.819   3.660
14114TIP3    H242286   3.849   1.786   3.609
14115TIP3   OH242287   5.420   7.713   4.974
14115TIP3    H142288   5.438   7.652   4.904
14115TIP3    H242289   5.484   7.783   4.962
14116TIP3   OH242290   1.377   6.211   2.156
14116TIP3    H142291   1.418   6.289   2.193
14116TIP3    H242292   1.337   6.167   2.231
14117TIP3   OH242293   7.468   7.470   4.470
14117TIP3    H142294   7.495   7.532   4.402
14117TIP3    H242295   7.398   7.516   4.517
14118TIP3   OH242296   2.999   0.305   0.955
14118TIP3    H142297   3.001   0.212   0.931
14118TIP3    H242298   3.071   0.315   1.017
14119TIP3   OH242299   3.691   6.395   2.226
14119TIP3    H142300   3.657   6.396   2.137
14119TIP3    H242301   3.653   6.472   2.268
14120TIP3   OH242302   7.915   1.685   5.140
14120TIP3    H142303   7.971   1.619   5.180
14120TIP3    H242304   7.827   1.649   5.147
14121TIP3   OH242305   3.928   0.729   5.372
14121TIP3    H142306   3.850   0.766   5.413
14121TIP3    H242307   3.898   0.695   5.289
14122TIP3   OH242308   4.446   3.178   0.059
14122TIP3    H142309   4.412   3.088   0.064
14122TIP3    H242310   4.537   3.168   0.030
14123TIP3   OH242311   6.840   0.890   5.605
14123TIP3    H142312   6.822   0.847   5.689
14123TIP3    H242313   6.755   0.897   5.563
14124TIP3   OH242314   5.733   1.402   6.065
14124TIP3    H142315   5.807   1.342   6.060
14124TIP3    H242316   5.663   1.357   6.017
14125TIP3   OH242317   6.685   4.316   5.326
14125TIP3    H142318   6.769   4.316   5.372
14125TIP3    H242319   6.705   4.353   5.240
14126TIP3   OH242320   1.060   1.374   0.028
14126TIP3    H142321   1.077   1.466   0.048
14126TIP3    H242322   1.006   1.377  -0.051
14127TIP3   OH242323   3.495   1.019   6.334
14127TIP3    H142324   3.584   0.982   6.336
14127TIP3    H242325   3.457   0.992   6.418
14128TIP3   OH242326   6.140   2.429   0.300
14128TIP3    H142327   6.055   2.389   0.316
14128TIP3    H242328   6.120   2.508   0.251
14129TIP3   OH242329   5.354   5.356   1.742
14129TIP3    H142330   5.428   5.301   1.718
14129TIP3    H242331   5.392   5.426   1.795
14130TIP3   OH242332   4.829   5.770   5.287
14130TIP3    H142333   4.857   5.785   5.377
14130TIP3    H242334   4.908   5.745   5.241
14131TIP3   OH242335   0.863   3.310   6.419
14131TIP3    H142336   0.821   3.326   6.504
14131TIP3    H242337   0.794   3.325   6.355
14132TIP3   OH242338   5.070   1.115   0.486
14132TIP3    H142339   5.093   1.113   0.393
14132TIP3    H242340   4.979   1.084   0.488
14133TIP3   OH242341   6.447   7.538   4.938
14133TIP3    H142342   6.428   7.445   4.920
14133TIP3    H242343   6.369   7.584   4.908
14134TIP3   OH242344   0.835   6.084   2.892
14134TIP3    H142345   0.744   6.114   2.896
14134TIP3    H242346   0.873   6.133   2.819
14135TIP3   OH242347   5.497   5.920   3.310
14135TIP3    H142348   5.467   5.951   3.395
14135TIP3    H242349   5.434   5.853   3.285
14136TIP3   OH242350   1.102   4.407   6.300
14136TIP3    H142351   1.147   4.328   6.270
14136TIP3    H242352   1.028   4.417   6.241
14137TIP3   OH242353   6.426   1.957   5.637
14137TIP3    H142354   6.484   2.005   5.578
14137TIP3    H242355   6.351   2.014   5.649
14138TIP3   OH242356   6.293   4.235   1.159
14138TIP3    H142357   6.348   4.294   1.107
14138TIP3    H242358   6.329   4.148   1.141
14139TIP3   OH242359   7.532   6.964   5.324
14139TIP3    H142360   7.492   6.925   5.246
14139TIP3    H242361   7.626   6.950   5.312
14140TIP3   OH242362   5.827   7.574   6.558
14140TIP3    H142363   5.757   7.553   6.496
14140TIP3    H242364   5.782   7.589   6.641
14141TIP3   OH242365   5.056   2.082   6.454
14141TIP3    H142366   5.073   2.072   6.360
14141TIP3    H242367   4.966   2.052   6.466
14142TIP3   OH242368   2.498   7.762   2.568
14142TIP3    H142369   2.545   7.751   2.651
14142TIP3    H242370   2.414   7.719   2.583
14143TIP3   OH242371   8.230   6.664   2.385
14143TIP3    H142372   8.145   6.701   2.411
14143TIP3    H242373   8.207   6.587   2.333
14144TIP3   OH242374   7.359   3.514   0.787
14144TIP3    H142375   7.441   3.479   0.752
14144TIP3    H242376   7.384   3.557   0.868
14145TIP3   OH242377   4.704   6.924   4.056
14145TIP3    H142378   4.745   6.938   4.141
14145TIP3    H242379   4.731   7.000   4.003
14146TIP3   OH242380   1.652   7.816   1.621
14146TIP3    H142381   1.732   7.849   1.661
14146TIP3    H242382   1.678   7.735   1.577
14147TIP3   OH242383   0.076   6.488   0.841
14147TIP3    H142384   0.093   6.543   0.917
14147TIP3    H242385   0.153   6.499   0.786
14148TIP3   OH242386   3.036   5.776   5.633
14148TIP3    H142387   3.006   5.862   5.604
14148TIP3    H242388   3.122   5.793   5.672
14149TIP3   OH242389   3.271   2.573   3.679
14149TIP3    H142390   3.364   2.573   3.701
14149TIP3    H242391   3.269   2.595   3.585
14150TIP3   OH242392   6.637   3.347   3.308
14150TIP3    H142393   6.599   3.348   3.396
14150TIP3    H242394   6.663   3.256   3.295
14151TIP3   OH242395   2.433   0.411   6.292
14151TIP3    H142396   2.359   0.419   6.351
14151TIP3    H242397   2.510   0.416   6.350
14152TIP3   OH242398   2.187   3.306   6.165
14152TIP3    H142399   2.280   3.286   6.159
14152TIP3    H242400   2.181   3.399   6.142
14153TIP3   OH242401   6.646   6.132   3.621
14153TIP3    H142402   6.664   6.087   3.703
14153TIP3    H242403   6.664   6.224   3.640
14154TIP3   OH242404   6.872   0.761   6.017
14154TIP3    H142405   6.964   0.783   6.006
14154TIP3    H242406   6.825   0.830   5.970
14155TIP3   OH242407   6.853   4.970   5.711
14155TIP3    H142408   6.867   5.006   5.799
14155TIP3    H242409   6.919   5.013   5.657
14156TIP3   OH242410   2.503   5.991   4.885
14156TIP3    H142411   2.543   5.915   4.843
14156TIP3    H242412   2.429   5.955   4.935
14157TIP3   OH242413   1.449   0.223   0.846
14157TIP3    H142414   1.372   0.206   0.793
14157TIP3    H242415   1.429   0.306   0.890
14158TIP3   OH242416   1.995   0.877   1.407
14158TIP3    H142417   2.005   0.972   1.400
14158TIP3    H242418   1.999   0.845   1.316
14159TIP3   OH242419   1.800   2.649   0.217
14159TIP3    H142420   1.790   2.598   0.297
14159TIP3    H242421   1.850   2.592   0.158
14160TIP3   OH242422   4.941   4.722   3.541
14160TIP3    H142423   4.856   4.688   3.512
14160TIP3    H242424   4.921   4.810   3.574
14161TIP3   OH242425   6.665   0.849   1.751
14161TIP3    H142426   6.750   0.804   1.743
14161TIP3    H242427   6.601   0.782   1.725
14162TIP3   OH242428   0.480   3.945   4.195
14162TIP3    H142429   0.508   4.036   4.210
14162TIP3    H242430   0.519   3.896   4.268
14163TIP3   OH242431   4.603   7.587   4.666
14163TIP3    H142432   4.566   7.546   4.587
14163TIP3    H242433   4.683   7.629   4.635
14164TIP3   OH242434   4.502   4.095   2.487
14164TIP3    H142435   4.556   4.092   2.566
14164TIP3    H242436   4.565   4.104   2.415
14165TIP3   OH242437   0.265   5.790   4.844
14165TIP3    H142438   0.334   5.846   4.879
14165TIP3    H242439   0.255   5.819   4.753
14166TIP3   OH242440   1.673   5.677   4.416
14166TIP3    H142441   1.707   5.588   4.412
14166TIP3    H242442   1.582   5.670   4.386
14167TIP3   OH242443   2.367   6.713   2.417
14167TIP3    H142444   2.370   6.763   2.498
14167TIP3    H242445   2.454   6.673   2.411
14168TIP3   OH242446   2.771   3.124   1.137
14168TIP3    H142447   2.786   3.195   1.075
14168TIP3    H242448   2.851   3.071   1.132
14169TIP3   OH242449   6.795   5.333   1.200
14169TIP3    H142450   6.789   5.242   1.230
14169TIP3    H242451   6.797   5.384   1.281
14170TIP3   OH242452   4.960   2.049   3.774
14170TIP3    H142453   4.955   1.969   3.723
14170TIP3    H242454   4.872   2.087   3.767
14171TIP3   OH242455   3.319   2.556   6.234
14171TIP3    H142456   3.311   2.582   6.143
14171TIP3    H242457   3.412   2.571   6.255
14172TIP3   OH242458   2.847   7.159   6.642
14172TIP3    H142459   2.879   7.112   6.565
14172TIP3    H242460   2.759   7.126   6.655
14173TIP3   OH242461   6.498   2.399   3.002
14173TIP3    H142462   6.452   2.483   2.993
14173TIP3    H242463   6.432   2.333   2.979
14174TIP3   OH242464   1.196   6.873   4.111
14174TIP3    H142465   1.152   6.796   4.147
14174TIP3    H242466   1.132   6.913   4.053
14175TIP3   OH242467   6.054   1.505   5.922
14175TIP3    H142468   6.025   1.596   5.915
14175TIP3    H242469   6.145   1.511   5.952
14176TIP3   OH242470   0.156   7.381   0.051
14176TIP3    H142471   0.112   7.435  -0.014
14176TIP3    H242472   0.119   7.293   0.039
14177TIP3   OH242473   7.807   6.446   5.304
14177TIP3    H142474   7.825   6.364   5.351
14177TIP3    H242475   7.714   6.441   5.283
14178TIP3   OH242476   6.761   7.696   6.401
14178TIP3    H142477   6.699   7.760   6.436
14178TIP3    H242478   6.749   7.700   6.306
14179TIP3   OH242479   1.196   2.368   6.318
14179TIP3    H142480   1.102   2.352   6.307
14179TIP3    H242481   1.229   2.289   6.362
14180TIP3   OH242482   5.231   2.281   1.228
14180TIP3    H142483   5.155   2.340   1.236
14180TIP3    H242484   5.264   2.296   1.140
14181TIP3   OH242485   7.924   3.106   2.577
14181TIP3    H142486   7.988   3.174   2.598
14181TIP3    H242487   7.965   3.025   2.606
14182TIP3   OH242488   6.479   3.689   6.478
14182TIP3    H142489   6.441   3.601   6.475
14182TIP3    H242490   6.530   3.690   6.559
14183TIP3   OH242491   6.972   5.518   0.078
14183TIP3    H142492   6.888   5.489   0.115
14183TIP3    H242493   6.961   5.612   0.062
14184TIP3   OH242494   2.535   3.722   6.016
14184TIP3    H142495   2.466   3.760   6.071
14184TIP3    H242496   2.492   3.651   5.970
14185TIP3   OH242497   3.129   3.941   6.535
14185TIP3    H142498   3.095   3.852   6.523
14185TIP3    H242499   3.120   3.957   6.629
14186TIP3   OH242500   0.066   2.163   1.810
14186TIP3    H142501   0.101   2.117   1.734
14186TIP3    H242502   0.143   2.180   1.865
14187TIP3   OH242503   2.852   0.810   2.808
14187TIP3    H142504   2.871   0.841   2.719
14187TIP3    H242505   2.875   0.717   2.806
14188TIP3   OH242506   0.731   1.740   6.634
14188TIP3    H142507   0.709   1.652   6.663
14188TIP3    H242508   0.686   1.798   6.696
14189TIP3   OH242509   0.807   7.180   2.544
14189TIP3    H142510   0.891   7.215   2.515
14189TIP3    H242511   0.771   7.137   2.467
14190TIP3   OH242512   2.815   2.735   5.108
14190TIP3    H142513   2.823   2.743   5.013
14190TIP3    H242514   2.844   2.820   5.142
14191TIP3   OH242515   6.123   7.047   1.995
14191TIP3    H142516   6.034   7.071   2.020
14191TIP3    H242517   6.178   7.112   2.040
14192TIP3   OH242518   7.902   7.342   3.602
14192TIP3    H142519   7.831   7.381   3.652
14192TIP3    H242520   7.969   7.410   3.597
14193TIP3   OH242521   4.648   1.124   4.750
14193TIP3    H142522   4.704   1.065   4.699
14193TIP3    H242523   4.686   1.211   4.735
14194TIP3   OH242524   7.939   4.764   6.282
14194TIP3    H142525   7.880   4.689   6.294
14194TIP3    H242526   7.937   4.781   6.188
14195TIP3   OH242527   2.327   6.585   0.447
14195TIP3    H142528   2.397   6.627   0.497
14195TIP3    H242529   2.293   6.655   0.391
14196TIP3   OH242530   6.256   5.765   0.864
14196TIP3    H142531   6.303   5.685   0.889
14196TIP3    H242532   6.174   5.733   0.826
14197TIP3   OH242533   5.238   3.504   5.687
14197TIP3    H142534   5.237   3.573   5.620
14197TIP3    H242535   5.158   3.453   5.671
14198TIP3   OH242536   4.573   1.144   5.835
14198TIP3    H142537   4.661   1.166   5.805
14198TIP3    H242538   4.522   1.224   5.822
14199TIP3   OH242539   1.677   5.121   0.428
14199TIP3    H142540   1.651   5.213   0.423
14199TIP3    H242541   1.769   5.120   0.401
14200TIP3   OH242542   2.887   4.013   1.516
14200TIP3    H142543   2.833   4.092   1.517
14200TIP3    H242544   2.879   3.978   1.604
14201TIP3   OH242545   7.114   7.333   6.714
14201TIP3    H142546   7.166   7.256   6.735
14201TIP3    H242547   7.175   7.392   6.669
14202TIP3   OH242548   4.783   4.265   4.361
14202TIP3    H142549   4.830   4.349   4.363
14202TIP3    H242550   4.691   4.290   4.361
14203TIP3   OH242551   7.202   0.156   4.122
14203TIP3    H142552   7.219   0.070   4.160
14203TIP3    H242553   7.156   0.205   4.190
14204TIP3   OH242554   1.451   4.517   3.001
14204TIP3    H142555   1.436   4.559   3.086
14204TIP3    H242556   1.387   4.557   2.943
14205TIP3   OH242557   5.554   2.601   0.101
14205TIP3    H142558   5.520   2.691   0.097
14205TIP3    H242559   5.510   2.556   0.029
14206TIP3   OH242560   1.024   3.169   4.677
14206TIP3    H142561   0.951   3.230   4.689
14206TIP3    H242562   1.085   3.215   4.620
14207TIP3   OH242563   3.783   2.367   1.024
14207TIP3    H142564   3.874   2.338   1.029
14207TIP3    H242565   3.735   2.301   1.074
14208TIP3   OH242566   3.143   1.911   4.684
14208TIP3    H142567   3.053   1.931   4.707
14208TIP3    H242568   3.138   1.874   4.595
14209TIP3   OH242569   3.466   0.084   5.005
14209TIP3    H142570   3.406   0.035   5.061
14209TIP3    H242571   3.415   0.100   4.925
14210TIP3   OH242572   2.112   4.262   0.686
14210TIP3    H142573   2.139   4.171   0.697
14210TIP3    H242574   2.033   4.270   0.739
14211TIP3   OH242575  -0.011   3.321   0.419
14211TIP3    H142576  -0.015   3.298   0.512
14211TIP3    H242577   0.076   3.360   0.409
14212TIP3   OH242578   3.615   1.038   1.847
14212TIP3    H142579   3.647   0.955   1.883
14212TIP3    H242580   3.522   1.040   1.869
14213TIP3   OH242581   1.579   7.371   3.217
14213TIP3    H142582   1.671   7.349   3.200
14213TIP3    H242583   1.583   7.444   3.278
14214TIP3   OH242584   6.132   5.920   4.095
14214TIP3    H142585   6.147   5.975   4.173
14214TIP3    H242586   6.104   5.836   4.131
14215TIP3   OH242587   5.952   4.856   1.821
14215TIP3    H142588   5.955   4.828   1.730
14215TIP3    H242589   5.971   4.777   1.871
14216TIP3   OH242590   4.911   4.926   3.266
14216TIP3    H142591   4.965   4.850   3.287
14216TIP3    H242592   4.959   5.001   3.304
14217TIP3   OH242593   3.814   1.527   2.495
14217TIP3    H142594   3.817   1.444   2.448
14217TIP3    H242595   3.846   1.505   2.583
14218TIP3   OH242596   5.996   4.111   6.003
14218TIP3    H142597   5.965   4.201   6.011
14218TIP3    H242598   6.028   4.088   6.091
14219TIP3   OH242599   0.217   7.059   1.901
14219TIP3    H142600   0.242   7.130   1.843
14219TIP3    H242601   0.124   7.074   1.919
14220TIP3   OH242602   2.800   5.727   3.933
14220TIP3    H142603   2.714   5.737   3.974
14220TIP3    H242604   2.830   5.641   3.960
14221TIP3   OH242605   3.022   1.823   1.318
14221TIP3    H142606   2.966   1.848   1.392
14221TIP3    H242607   3.090   1.767   1.357
14222TIP3   OH242608   5.932   5.815   2.462
14222TIP3    H142609   6.011   5.764   2.446
14222TIP3    H242610   5.910   5.797   2.553
14223TIP3   OH242611   1.312   3.340   5.470
14223TIP3    H142612   1.300   3.403   5.398
14223TIP3    H242613   1.397   3.301   5.453
14224TIP3   OH242614   3.271   1.934   2.906
14224TIP3    H142615   3.198   1.872   2.904
14224TIP3    H242616   3.234   2.013   2.946
14225TIP3   OH242617   2.923   1.276   5.746
14225TIP3    H142618   2.852   1.339   5.737
14225TIP3    H242619   2.880   1.193   5.766
14226TIP3   OH242620   4.448   0.344   1.711
14226TIP3    H142621   4.508   0.270   1.722
14226TIP3    H242622   4.468   0.378   1.623
14227TIP3   OH242623   4.593   1.514   5.923
14227TIP3    H142624   4.665   1.568   5.955
14227TIP3    H242625   4.571   1.457   5.997
14228TIP3   OH242626   2.389   0.375   0.040
14228TIP3    H142627   2.484   0.375   0.053
14228TIP3    H242628   2.367   0.467   0.026
14229TIP3   OH242629   7.457   5.252   3.852
14229TIP3    H142630   7.501   5.298   3.924
14229TIP3    H242631   7.525   5.244   3.784
14230TIP3   OH242632   3.799   1.970   1.562
14230TIP3    H142633   3.779   2.036   1.628
14230TIP3    H242634   3.882   1.931   1.591
14231TIP3   OH242635   2.135   5.659   2.558
14231TIP3    H142636   2.227   5.655   2.532
14231TIP3    H242637   2.136   5.665   2.653
14232TIP3   OH242638   2.568   4.169   1.931
14232TIP3    H142639   2.588   4.133   2.017
14232TIP3    H242640   2.653   4.181   1.889
14233TIP3   OH242641   4.354   0.347   5.697
14233TIP3    H142642   4.404   0.422   5.726
14233TIP3    H242643   4.381   0.275   5.755
14234TIP3   OH242644   3.832   1.339   3.222
14234TIP3    H142645   3.756   1.389   3.191
14234TIP3    H242646   3.903   1.403   3.222
14235TIP3   OH242647   5.449   7.341   4.483
14235TIP3    H142648   5.415   7.272   4.541
14235TIP3    H242649   5.521   7.380   4.532
14236TIP3   OH242650   4.388   0.910   4.679
14236TIP3    H142651   4.319   0.937   4.739
14236TIP3    H242652   4.367   0.954   4.597
14237TIP3   OH242653   3.992   5.606   0.318
14237TIP3    H142654   3.924   5.579   0.380
14237TIP3    H242655   4.014   5.527   0.270
14238TIP3   OH242656   7.176   2.768   3.679
14238TIP3    H142657   7.217   2.818   3.609
14238TIP3    H242658   7.201   2.677   3.663
14239TIP3   OH242659   4.326   4.661   6.732
14239TIP3    H142660   4.329   4.637   6.639
14239TIP3    H242661   4.392   4.604   6.773
14240TIP3   OH242662   5.345   7.546   4.745
14240TIP3    H142663   5.257   7.568   4.775
14240TIP3    H242664   5.343   7.452   4.730
14241TIP3   OH242665   1.352   4.223   0.965
14241TIP3    H142666   1.417   4.292   0.971
14241TIP3    H242667   1.362   4.173   1.046
14242TIP3   OH242668   6.490   0.414   4.485
14242TIP3    H142669   6.492   0.325   4.521
14242TIP3    H242670   6.416   0.456   4.528
14243TIP3   OH242671   5.016   3.978   2.370
14243TIP3    H142672   5.026   4.000   2.463
14243TIP3    H242673   4.948   4.038   2.339
14244TIP3   OH242674   3.058   5.122   4.936
14244TIP3    H142675   3.128   5.098   4.997
14244TIP3    H242676   3.095   5.189   4.880
14245TIP3   OH242677   2.793   5.376   0.831
14245TIP3    H142678   2.816   5.296   0.783
14245TIP3    H242679   2.770   5.440   0.764
14246TIP3   OH242680   7.867   7.285   5.632
14246TIP3    H142681   7.888   7.229   5.706
14246TIP3    H242682   7.774   7.272   5.616
14247TIP3   OH242683   2.076   5.304   1.597
14247TIP3    H142684   2.048   5.216   1.622
14247TIP3    H242685   2.059   5.358   1.675
14248TIP3   OH242686   2.822   6.624   1.367
14248TIP3    H142687   2.912   6.643   1.338
14248TIP3    H242688   2.777   6.598   1.287
14249TIP3   OH242689   0.464   7.434   0.558
14249TIP3    H142690   0.423   7.353   0.527
14249TIP3    H242691   0.436   7.442   0.650
14250TIP3   OH242692   3.875   1.485   0.192
14250TIP3    H142693   3.863   1.578   0.175
14250TIP3    H242694   3.908   1.481   0.282
14251TIP3   OH242695   1.823   3.772   0.722
14251TIP3    H142696   1.749   3.805   0.772
14251TIP3    H242697   1.830   3.679   0.747
14252TIP3   OH242698   4.425   6.841   1.234
14252TIP3    H142699   4.506   6.829   1.185
14252TIP3    H242700   4.363   6.875   1.170
14253TIP3   OH242701   2.027   2.379   5.907
14253TIP3    H142702   2.093   2.336   5.853
14253TIP3    H242703   1.969   2.422   5.844
14254TIP3   OH242704   0.694   6.901   0.364
14254TIP3    H142705   0.700   6.819   0.413
14254TIP3    H242706   0.635   6.956   0.416
14255TIP3   OH242707   0.840   3.982   2.803
14255TIP3    H142708   0.911   3.994   2.740
14255TIP3    H242709   0.763   3.964   2.750
14256TIP3   OH242710   6.409   0.275   1.910
14256TIP3    H142711   6.473   0.332   1.867
14256TIP3    H242712   6.406   0.307   2.001
14257TIP3   OH242713   7.059   2.930   0.992
14257TIP3    H142714   7.098   3.017   0.983
14257TIP3    H242715   6.967   2.947   1.014
14258TIP3   OH242716   6.174   3.984   4.799
14258TIP3    H142717   6.125   3.913   4.759
14258TIP3    H242718   6.173   3.964   4.893
14259TIP3   OH242719   3.435   0.408   3.875
14259TIP3    H142720   3.499   0.458   3.825
14259TIP3    H242721   3.380   0.474   3.917
14260TIP3   OH242722   3.872   3.932   4.121
14260TIP3    H142723   3.903   3.931   4.030
14260TIP3    H242724   3.869   3.839   4.145
14261TIP3   OH242725   5.908   3.150   2.968
14261TIP3    H142726   5.859   3.227   2.941
14261TIP3    H242727   5.946   3.173   3.053
14262TIP3   OH242728   3.843   5.449   4.831
14262TIP3    H142729   3.919   5.466   4.887
14262TIP3    H242730   3.790   5.387   4.882
14263TIP3   OH242731   2.319   1.528   0.707
14263TIP3    H142732   2.289   1.561   0.622
14263TIP3    H242733   2.394   1.582   0.729
14264TIP3   OH242734   1.246   2.027   0.971
14264TIP3    H142735   1.258   2.005   1.063
14264TIP3    H242736   1.189   1.957   0.937
14265TIP3   OH242737   2.804   2.692   3.940
14265TIP3    H142738   2.815   2.786   3.924
14265TIP3    H242739   2.874   2.651   3.888
14266TIP3   OH242740   5.386   3.772   5.639
14266TIP3    H142741   5.378   3.756   5.733
14266TIP3    H242742   5.459   3.716   5.612
14267TIP3   OH242743   2.902   6.304   5.608
14267TIP3    H142744   2.928   6.363   5.678
14267TIP3    H242745   2.918   6.354   5.527
14268TIP3   OH242746   3.001   5.523   1.414
14268TIP3    H142747   2.924   5.513   1.469
14268TIP3    H242748   3.002   5.616   1.390
14269TIP3   OH242749   7.192   6.597   2.248
14269TIP3    H142750   7.130   6.625   2.180
14269TIP3    H242751   7.147   6.525   2.293
14270TIP3   OH242752   2.479   4.128   5.041
14270TIP3    H142753   2.515   4.212   5.068
14270TIP3    H242754   2.391   4.126   5.078
14271TIP3   OH242755   6.550   5.325   5.327
14271TIP3    H142756   6.528   5.233   5.343
14271TIP3    H242757   6.467   5.371   5.340
14272TIP3   OH242758   2.997   6.052   5.660
14272TIP3    H142759   3.066   6.049   5.594
14272TIP3    H242760   2.953   6.136   5.646
14273TIP3   OH242761   6.182   1.703   3.585
14273TIP3    H142762   6.213   1.616   3.611
14273TIP3    H242763   6.090   1.704   3.609
14274TIP3   OH242764   4.748   3.491   4.212
14274TIP3    H142765   4.825   3.522   4.165
14274TIP3    H242766   4.698   3.442   4.146
14275TIP3   OH242767   1.430   2.881   1.417
14275TIP3    H142768   1.522   2.898   1.394
14275TIP3    H242769   1.427   2.788   1.438
14276TIP3   OH242770   2.511   4.788   3.061
14276TIP3    H142771   2.596   4.752   3.085
14276TIP3    H242772   2.495   4.857   3.125
14277TIP3   OH242773   5.028   5.548   3.442
14277TIP3    H142774   4.977   5.551   3.361
14277TIP3    H242775   4.970   5.507   3.506
14278TIP3   OH242776   6.236   3.412   4.850
14278TIP3    H142777   6.241   3.332   4.902
14278TIP3    H242778   6.256   3.483   4.912
14279TIP3   OH242779   7.889   4.208   3.468
14279TIP3    H142780   7.836   4.271   3.420
14279TIP3    H242781   7.899   4.246   3.555
14280TIP3   OH242782   1.906   6.494   5.928
14280TIP3    H142783   1.971   6.516   5.862
14280TIP3    H242784   1.913   6.562   5.994
14281TIP3   OH242785   3.229   7.532   0.500
14281TIP3    H142786   3.279   7.450   0.502
14281TIP3    H242787   3.275   7.590   0.560
14282TIP3   OH242788   0.370   0.264   0.822
14282TIP3    H142789   0.450   0.214   0.838
14282TIP3    H242790   0.369   0.332   0.889
14283TIP3   OH242791   1.616   5.369   3.381
14283TIP3    H142792   1.538   5.410   3.346
14283TIP3    H242793   1.590   5.337   3.468
14284TIP3   OH242794   0.996   3.502   4.158
14284TIP3    H142795   0.944   3.522   4.080
14284TIP3    H242796   1.014   3.588   4.197
14285TIP3   OH242797   1.142   1.789   0.858
14285TIP3    H142798   1.081   1.757   0.926
14285TIP3    H242799   1.093   1.781   0.777
14286TIP3   OH242800   3.530   4.310   4.266
14286TIP3    H142801   3.569   4.364   4.334
14286TIP3    H242802   3.601   4.295   4.203
14287TIP3   OH242803   7.173   3.396   5.168
14287TIP3    H142804   7.241   3.434   5.223
14287TIP3    H242805   7.214   3.318   5.129
14288TIP3   OH242806   6.761   7.408   3.488
14288TIP3    H142807   6.690   7.378   3.545
14288TIP3    H242808   6.718   7.462   3.422
14289TIP3   OH242809   1.882   5.622   3.215
14289TIP3    H142810   1.932   5.702   3.199
14289TIP3    H242811   1.810   5.649   3.271
14290TIP3   OH242812   0.920   0.196   2.364
14290TIP3    H142813   0.877   0.272   2.404
14290TIP3    H242814   0.852   0.130   2.359
14291TIP3   OH242815   3.573   2.593   3.419
14291TIP3    H142816   3.649   2.650   3.412
14291TIP3    H242817   3.506   2.646   3.462
14292TIP3   OH242818   5.237   3.352   6.473
14292TIP3    H142819   5.280   3.412   6.533
14292TIP3    H242820   5.308   3.318   6.418
14293TIP3   OH242821   4.464   4.801   3.155
14293TIP3    H142822   4.454   4.893   3.130
14293TIP3    H242823   4.425   4.796   3.243
14294TIP3   OH242824   2.485   6.823   4.886
14294TIP3    H142825   2.540   6.751   4.856
14294TIP3    H242826   2.427   6.842   4.812
14295TIP3   OH242827   8.169   1.840   6.024
14295TIP3    H142828   8.204   1.928   6.009
14295TIP3    H242829   8.228   1.801   6.088
14296TIP3   OH242830   1.599   2.456   2.968
14296TIP3    H142831   1.637   2.504   3.041
14296TIP3    H242832   1.624   2.505   2.890
14297TIP3   OH242833   6.071   1.872   6.620
14297TIP3    H142834   6.002   1.926   6.656
14297TIP3    H242835   6.036   1.838   6.538
14298TIP3   OH242836   5.400   3.841   5.089
14298TIP3    H142837   5.447   3.859   5.170
14298TIP3    H242838   5.422   3.914   5.031
14299TIP3   OH242839   4.538   3.162   3.595
14299TIP3    H142840   4.458   3.160   3.542
14299TIP3    H242841   4.520   3.227   3.663
14300TIP3   OH242842   4.361   1.158   0.096
14300TIP3    H142843   4.329   1.136   0.183
14300TIP3    H242844   4.452   1.184   0.110
14301TIP3   OH242845   1.347   5.978   2.450
14301TIP3    H142846   1.364   5.918   2.378
14301TIP3    H242847   1.304   5.924   2.517
14302TIP3   OH242848   2.249   2.759   0.203
14302TIP3    H142849   2.267   2.769   0.296
14302TIP3    H242850   2.272   2.669   0.183
14303TIP3   OH242851   7.378   6.216   3.432
14303TIP3    H142852   7.369   6.311   3.443
14303TIP3    H242853   7.289   6.182   3.435
14304TIP3   OH242854   6.749   3.096   5.499
14304TIP3    H142855   6.811   3.138   5.558
14304TIP3    H242856   6.669   3.149   5.506
14305TIP3   OH242857   6.580   7.356   2.547
14305TIP3    H142858   6.541   7.342   2.461
14305TIP3    H242859   6.645   7.287   2.556
14306TIP3   OH242860   3.163   2.839   4.471
14306TIP3    H142861   3.179   2.875   4.558
14306TIP3    H242862   3.170   2.744   4.482
14307TIP3   OH242863   7.376   7.622   0.012
14307TIP3    H142864   7.412   7.577   0.088
14307TIP3    H242865   7.367   7.713   0.039
14308TIP3   OH242866   7.508   0.087   1.240
14308TIP3    H142867   7.519   0.080   1.145
14308TIP3    H242868   7.415   0.103   1.253
14309TIP3   OH242869   0.799   3.006   5.836
14309TIP3    H142870   0.859   2.937   5.864
14309TIP3    H242871   0.723   2.997   5.893
14310TIP3   OH242872   0.780   1.463   1.803
14310TIP3    H142873   0.755   1.555   1.788
14310TIP3    H242874   0.735   1.439   1.884
14311TIP3   OH242875   5.133   7.257   3.694
14311TIP3    H142876   5.202   7.204   3.655
14311TIP3    H242877   5.178   7.309   3.761
14312TIP3   OH242878   1.777   5.710   1.924
14312TIP3    H142879   1.795   5.696   1.831
14312TIP3    H242880   1.861   5.737   1.961
14313TIP3   OH242881   0.658   3.556   4.157
14313TIP3    H142882   0.661   3.637   4.207
14313TIP3    H242883   0.726   3.567   4.090
14314TIP3   OH242884   5.072   0.607   2.375
14314TIP3    H142885   5.016   0.593   2.452
14314TIP3    H242886   5.062   0.700   2.355
14315TIP3   OH242887   2.148   5.774   5.760
14315TIP3    H142888   2.203   5.738   5.690
14315TIP3    H242889   2.097   5.843   5.719
14316TIP3   OH242890   6.803   5.274   5.095
14316TIP3    H142891   6.708   5.276   5.086
14316TIP3    H242892   6.834   5.336   5.028
14317TIP3   OH242893   8.203   7.115   1.507
14317TIP3    H142894   8.284   7.165   1.514
14317TIP3    H242895   8.229   7.033   1.464
14318TIP3   OH242896   7.939   2.353   1.998
14318TIP3    H142897   7.926   2.447   1.983
14318TIP3    H242898   7.856   2.324   2.036
14319TIP3   OH242899   1.883   6.422   4.882
14319TIP3    H142900   1.892   6.475   4.804
14319TIP3    H242901   1.927   6.339   4.860
14320TIP3   OH242902   1.181   4.251   3.748
14320TIP3    H142903   1.138   4.227   3.666
14320TIP3    H242904   1.205   4.343   3.737
14321TIP3   OH242905   3.750   3.932   1.818
14321TIP3    H142906   3.762   3.973   1.732
14321TIP3    H242907   3.663   3.892   1.814
14322TIP3   OH242908   1.081   7.039   4.618
14322TIP3    H142909   1.058   6.978   4.688
14322TIP3    H242910   1.117   6.982   4.549
14323TIP3   OH242911   1.060   5.914   3.501
14323TIP3    H142912   0.982   5.876   3.461
14323TIP3    H242913   1.070   5.999   3.460
14324TIP3   OH242914   8.287   5.000   2.860
14324TIP3    H142915   8.208   5.050   2.881
14324TIP3    H242916   8.358   5.047   2.905
14325TIP3   OH242917   3.852   5.721   5.312
14325TIP3    H142918   3.916   5.710   5.382
14325TIP3    H242919   3.777   5.762   5.356
14326TIP3   OH242920   4.924   7.651   0.459
14326TIP3    H142921   4.840   7.611   0.481
14326TIP3    H242922   4.978   7.639   0.538
14327TIP3   OH242923   1.208   2.790   2.195
14327TIP3    H142924   1.253   2.861   2.148
14327TIP3    H242925   1.275   2.752   2.251
14328TIP3   OH242926   6.375   6.996   4.395
14328TIP3    H142927   6.320   7.031   4.464
14328TIP3    H242928   6.464   7.022   4.419
14329TIP3   OH242929   7.322   4.337   1.427
14329TIP3    H142930   7.393   4.382   1.381
14329TIP3    H242931   7.297   4.265   1.369
14330TIP3   OH242932   5.733   2.167   2.915
14330TIP3    H142933   5.729   2.095   2.852
14330TIP3    H242934   5.816   2.210   2.897
14331TIP3   OH242935   5.321   5.676   1.060
14331TIP3    H142936   5.413   5.696   1.041
14331TIP3    H242937   5.322   5.643   1.149
14332TIP3   OH242938   1.715   4.005   4.825
14332TIP3    H142939   1.742   3.920   4.789
14332TIP3    H242940   1.756   4.007   4.912
14333TIP3   OH242941   6.435   3.281   1.252
14333TIP3    H142942   6.437   3.199   1.302
14333TIP3    H242943   6.358   3.327   1.285
14334TIP3   OH242944   4.197   5.965   1.262
14334TIP3    H142945   4.207   5.905   1.335
14334TIP3    H242946   4.287   5.991   1.240
14335TIP3   OH242947   1.964   2.221   1.911
14335TIP3    H142948   2.040   2.205   1.966
14335TIP3    H242949   1.991   2.292   1.852
14336TIP3   OH242950   4.868   3.479   0.391
14336TIP3    H142951   4.807   3.439   0.453
14336TIP3    H242952   4.871   3.571   0.417
14337TIP3   OH242953   4.962   0.169   1.093
14337TIP3    H142954   4.966   0.203   1.182
14337TIP3    H242955   4.965   0.074   1.103
14338TIP3   OH242956   7.450   7.175   0.099
14338TIP3    H142957   7.472   7.099   0.152
14338TIP3    H242958   7.535   7.210   0.071
14339TIP3   OH242959   7.696   2.876   2.609
14339TIP3    H142960   7.740   2.833   2.536
14339TIP3    H242961   7.725   2.967   2.604
14340TIP3   OH242962   0.935   7.778   3.922
14340TIP3    H142963   0.937   7.727   3.840
14340TIP3    H242964   0.893   7.720   3.985
14341TIP3   OH242965   5.095   1.102   4.989
14341TIP3    H142966   5.026   1.075   5.049
14341TIP3    H242967   5.061   1.080   4.902
14342TIP3   OH242968   6.475   4.912   4.431
14342TIP3    H142969   6.456   4.995   4.388
14342TIP3    H242970   6.494   4.852   4.360
14343TIP3   OH242971   5.583   3.525   4.364
14343TIP3    H142972   5.513   3.473   4.326
14343TIP3    H242973   5.590   3.496   4.454
14344TIP3   OH242974   2.383   1.942   0.633
14344TIP3    H142975   2.368   1.993   0.554
14344TIP3    H242976   2.382   2.006   0.704
14345TIP3   OH242977   1.002   5.961   6.167
14345TIP3    H142978   0.989   5.932   6.257
14345TIP3    H242979   1.079   5.913   6.136
14346TIP3   OH242980   4.868   4.271   0.628
14346TIP3    H142981   4.915   4.313   0.700
14346TIP3    H242982   4.905   4.312   0.549
14347TIP3   OH242983   6.315   7.432   3.815
14347TIP3    H142984   6.286   7.463   3.901
14347TIP3    H242985   6.308   7.337   3.820
14348TIP3   OH242986   6.649   1.529   1.576
14348TIP3    H142987   6.706   1.455   1.596
14348TIP3    H242988   6.687   1.568   1.498
14349TIP3   OH242989   0.297   4.413   0.170
14349TIP3    H142990   0.252   4.471   0.230
14349TIP3    H242991   0.388   4.443   0.172
14350TIP3   OH242992   7.241   1.737   1.731
14350TIP3    H142993   7.232   1.641   1.729
14350TIP3    H242994   7.160   1.768   1.771
14351TIP3   OH242995   4.338   1.236   1.566
14351TIP3    H142996   4.313   1.235   1.473
14351TIP3    H242997   4.272   1.181   1.608
14352TIP3   OH242998   7.919   7.361   6.268
14352TIP3    H142999   7.906   7.269   6.244
14352TIP3    H243000   7.833   7.390   6.297
14353TIP3   OH243001   2.994   7.649   1.981
14353TIP3    H143002   2.907   7.621   2.007
14353TIP3    H243003   2.983   7.739   1.950
14354TIP3   OH243004   1.094   2.514   2.980
14354TIP3    H143005   1.085   2.591   2.924
14354TIP3    H243006   1.148   2.453   2.930
14355TIP3   OH243007   3.937   1.222   3.798
14355TIP3    H143008   3.919   1.266   3.881
14355TIP3    H243009   4.029   1.239   3.781
14356TIP3   OH243010   7.249   2.538   1.910
14356TIP3    H143011   7.296   2.505   1.834
14356TIP3    H243012   7.235   2.460   1.964
14357TIP3   OH243013   2.917   6.371   4.452
14357TIP3    H143014   2.836   6.422   4.447
14357TIP3    H243015   2.932   6.360   4.546
14358TIP3   OH243016   0.198   0.940   5.489
14358TIP3    H143017   0.179   0.869   5.551
14358TIP3    H243018   0.246   0.898   5.418
14359TIP3   OH243019   5.882   7.784   4.975
14359TIP3    H143020   5.947   7.827   5.031
14359TIP3    H243021   5.929   7.711   4.935
14360TIP3   OH243022   1.361   5.395   5.388
14360TIP3    H143023   1.405   5.431   5.310
14360TIP3    H243024   1.406   5.313   5.405
14361TIP3   OH243025   0.438   5.754   3.388
14361TIP3    H143026   0.443   5.848   3.372
14361TIP3    H243027   0.515   5.718   3.344
14362TIP3   OH243028   4.960   2.597   1.415
14362TIP3    H143029   4.884   2.653   1.433
14362TIP3    H243030   5.026   2.626   1.478
14363TIP3   OH243031   6.909   1.048   1.410
14363TIP3    H143032   6.996   1.011   1.426
14363TIP3    H243033   6.898   1.047   1.315
14364TIP3   OH243034   4.526   2.995   5.594
14364TIP3    H143035   4.591   3.030   5.533
14364TIP3    H243036   4.463   2.948   5.539
14365TIP3   OH243037   5.444   4.438   5.789
14365TIP3    H143038   5.427   4.376   5.859
14365TIP3    H243039   5.506   4.501   5.827
14366TIP3   OH243040   2.428   7.265   3.267
14366TIP3    H143041   2.357   7.203   3.281
14366TIP3    H243042   2.453   7.253   3.176
14367TIP3   OH243043   3.108   7.211   4.720
14367TIP3    H143044   3.070   7.165   4.794
14367TIP3    H243045   3.098   7.150   4.646
14368TIP3   OH243046   7.525   7.453   2.046
14368TIP3    H143047   7.440   7.491   2.023
14368TIP3    H243048   7.516   7.360   2.024
14369TIP3   OH243049   3.576   7.747  -0.003
14369TIP3    H143050   3.656   7.799  -0.011
14369TIP3    H243051   3.533   7.782   0.075
14370TIP3   OH243052   1.812   2.135   1.533
14370TIP3    H143053   1.756   2.212   1.539
14370TIP3    H243054   1.898   2.165   1.561
14371TIP3   OH243055   2.088   6.181   1.929
14371TIP3    H143056   2.114   6.267   1.962
14371TIP3    H243057   2.168   6.144   1.892
14372TIP3   OH243058   2.802   1.010   5.033
14372TIP3    H143059   2.730   1.018   4.971
14372TIP3    H243060   2.760   0.986   5.116
14373TIP3   OH243061   1.203   7.459   2.677
14373TIP3    H143062   1.183   7.366   2.680
14373TIP3    H243063   1.132   7.501   2.727
14374TIP3   OH243064   3.868   3.856   3.515
14374TIP3    H143065   3.882   3.924   3.449
14374TIP3    H243066   3.843   3.904   3.594
14375TIP3   OH243067   3.603   1.907   3.424
14375TIP3    H143068   3.608   1.827   3.371
14375TIP3    H243069   3.603   1.978   3.359
14376TIP3   OH243070   7.406   0.285   1.671
14376TIP3    H143071   7.488   0.326   1.699
14376TIP3    H243072   7.374   0.241   1.750
14377TIP3   OH243073   7.070   4.892   2.439
14377TIP3    H143074   7.131   4.876   2.511
14377TIP3    H243075   6.984   4.890   2.480
14378TIP3   OH243076   2.986   3.732   2.657
14378TIP3    H143077   2.939   3.723   2.574
14378TIP3    H243078   2.982   3.646   2.697
14379TIP3   OH243079   6.696   2.214   2.181
14379TIP3    H143080   6.663   2.294   2.223
14379TIP3    H243081   6.626   2.150   2.194
14380TIP3   OH243082   6.893   3.415   1.584
14380TIP3    H143083   6.986   3.395   1.584
14380TIP3    H243084   6.851   3.337   1.621
14381TIP3   OH243085   5.985   2.434   4.434
14381TIP3    H143086   6.063   2.486   4.456
14381TIP3    H243087   5.941   2.421   4.518
14382TIP3   OH243088   4.672   2.497   0.103
14382TIP3    H143089   4.585   2.476   0.137
14382TIP3    H243090   4.669   2.590   0.083
14383TIP3   OH243091   0.188   2.323   2.742
14383TIP3    H143092   0.099   2.356   2.744
14383TIP3    H243093   0.179   2.228   2.755
14384TIP3   OH243094   0.978   6.086   1.492
14384TIP3    H143095   0.970   6.006   1.545
14384TIP3    H243096   0.899   6.136   1.512
14385TIP3   OH243097   1.969   5.455   2.120
14385TIP3    H143098   2.056   5.490   2.103
14385TIP3    H243099   1.926   5.522   2.173
14386TIP3   OH243100   0.796   4.631   2.489
14386TIP3    H143101   0.766   4.560   2.433
14386TIP3    H243102   0.892   4.624   2.488
14387TIP3   OH243103   0.858   4.619   2.134
14387TIP3    H143104   0.849   4.577   2.219
14387TIP3    H243105   0.769   4.619   2.098
14388TIP3   OH243106   5.275   7.816   3.537
14388TIP3    H143107   5.358   7.769   3.546
14388TIP3    H243108   5.278   7.853   3.449
14389TIP3   OH243109   6.574   6.590   5.334
14389TIP3    H143110   6.606   6.520   5.390
14389TIP3    H243111   6.650   6.615   5.281
14390TIP3   OH243112   0.787   0.699   1.702
14390TIP3    H143113   0.854   0.747   1.653
14390TIP3    H243114   0.833   0.626   1.742
14391TIP3   OH243115   2.331   7.139   5.746
14391TIP3    H143116   2.300   7.049   5.738
14391TIP3    H243117   2.396   7.136   5.816
14392TIP3   OH243118   7.045   0.321   2.197
14392TIP3    H143119   7.050   0.233   2.159
14392TIP3    H243120   7.078   0.310   2.286
14393TIP3   OH243121   3.543   1.949   2.939
14393TIP3    H143122   3.450   1.969   2.928
14393TIP3    H243123   3.564   1.892   2.865
14394TIP3   OH243124   1.723   7.190   4.835
14394TIP3    H143125   1.693   7.099   4.833
14394TIP3    H243126   1.767   7.198   4.919
14395TIP3   OH243127   1.537   2.724   5.287
14395TIP3    H143128   1.526   2.680   5.371
14395TIP3    H243129   1.469   2.791   5.287
14396TIP3   OH243130   1.822   1.437   4.317
14396TIP3    H143131   1.749   1.377   4.298
14396TIP3    H243132   1.833   1.488   4.237
14397TIP3   OH243133   3.239   3.054   0.953
14397TIP3    H143134   3.278   3.020   1.034
14397TIP3    H243135   3.225   2.976   0.899
14398TIP3   OH243136   5.523   0.890   0.721
14398TIP3    H143137   5.486   0.838   0.650
14398TIP3    H243138   5.467   0.968   0.726
14399TIP3   OH243139   3.794   5.509   0.097
14399TIP3    H143140   3.724   5.541   0.154
14399TIP3    H243141   3.828   5.432   0.141
14400TIP3   OH243142   6.559   3.512   5.969
14400TIP3    H143143   6.570   3.562   6.050
14400TIP3    H243144   6.640   3.527   5.920
14401TIP3   OH243145   6.776   3.811   5.089
14401TIP3    H143146   6.806   3.877   5.151
14401TIP3    H243147   6.826   3.732   5.110
14402TIP3   OH243148   8.170   1.277   5.020
14402TIP3    H143149   8.221   1.216   4.966
14402TIP3    H243150   8.093   1.298   4.967
14403TIP3   OH243151   7.608   5.348   5.877
14403TIP3    H143152   7.567   5.435   5.874
14403TIP3    H243153   7.646   5.343   5.964
14404TIP3   OH243154   1.443   2.505   6.415
14404TIP3    H143155   1.356   2.466   6.411
14404TIP3    H243156   1.438   2.569   6.486
14405TIP3   OH243157   4.349   4.571   6.459
14405TIP3    H143158   4.336   4.635   6.389
14405TIP3    H243159   4.262   4.556   6.494
14406TIP3   OH243160   0.426   1.298   2.132
14406TIP3    H143161   0.439   1.247   2.212
14406TIP3    H243162   0.399   1.384   2.163
14407TIP3   OH243163   4.031   2.704   3.642
14407TIP3    H143164   4.066   2.644   3.707
14407TIP3    H243165   4.028   2.789   3.687
14408TIP3   OH243166   5.130   3.675   0.184
14408TIP3    H143167   5.102   3.584   0.192
14408TIP3    H243168   5.110   3.714   0.269
14409TIP3   OH243169   5.276   4.715   5.011
14409TIP3    H143170   5.235   4.629   5.019
14409TIP3    H243171   5.205   4.777   5.027
14410TIP3   OH243172   6.661   1.453   2.822
14410TIP3    H143173   6.751   1.440   2.792
14410TIP3    H243174   6.644   1.546   2.806
14411TIP3   OH243175   0.843   5.799   4.730
14411TIP3    H143176   0.761   5.777   4.774
14411TIP3    H243177   0.864   5.723   4.676
14412TIP3   OH243178   6.174   0.719   5.378
14412TIP3    H143179   6.131   0.635   5.363
14412TIP3    H243180   6.170   0.764   5.294
14413TIP3   OH243181   2.284   5.485   4.610
14413TIP3    H143182   2.335   5.465   4.532
14413TIP3    H243183   2.348   5.486   4.681
14414TIP3   OH243184   2.849   0.723   0.699
14414TIP3    H143185   2.787   0.794   0.714
14414TIP3    H243186   2.844   0.670   0.779
14415TIP3   OH243187   1.081   2.705   4.272
14415TIP3    H143188   1.086   2.727   4.365
14415TIP3    H243189   1.003   2.651   4.264
14416TIP3   OH243190   3.134   6.275   2.086
14416TIP3    H143191   3.125   6.370   2.080
14416TIP3    H243192   3.145   6.259   2.180
14417TIP3   OH243193   0.106   4.202   6.528
14417TIP3    H143194   0.073   4.184   6.616
14417TIP3    H243195   0.174   4.268   6.541
14418TIP3   OH243196   4.503   6.896   3.401
14418TIP3    H143197   4.422   6.893   3.452
14418TIP3    H243198   4.571   6.922   3.463
14419TIP3   OH243199   1.983   1.767   2.954
14419TIP3    H143200   2.022   1.685   2.922
14419TIP3    H243201   1.907   1.739   3.004
14420TIP3   OH243202   5.808   2.151   2.328
14420TIP3    H143203   5.745   2.201   2.276
14420TIP3    H243204   5.802   2.190   2.415
14421TIP3   OH243205   6.517   0.568   0.258
14421TIP3    H143206   6.439   0.624   0.264
14421TIP3    H243207   6.512   0.511   0.335
14422TIP3   OH243208   6.365   0.243   4.893
14422TIP3    H143209   6.449   0.273   4.928
14422TIP3    H243210   6.362   0.150   4.916
14423TIP3   OH243211   7.480   2.150   0.267
14423TIP3    H143212   7.546   2.165   0.334
14423TIP3    H243213   7.399   2.134   0.316
14424TIP3   OH243214   2.732   7.034   3.854
14424TIP3    H143215   2.826   7.016   3.867
14424TIP3    H243216   2.721   7.123   3.885
14425TIP3   OH243217   3.219   2.603   2.623
14425TIP3    H143218   3.220   2.650   2.706
14425TIP3    H243219   3.280   2.651   2.567
14426TIP3   OH243220   1.015   2.420   4.611
14426TIP3    H143221   0.979   2.339   4.646
14426TIP3    H243222   1.050   2.396   4.525
14427TIP3   OH243223   3.289   7.042   2.747
14427TIP3    H143224   3.285   7.089   2.664
14427TIP3    H243225   3.213   6.983   2.744
14428TIP3   OH243226   6.718   3.637   2.063
14428TIP3    H143227   6.728   3.542   2.050
14428TIP3    H243228   6.666   3.666   1.988
14429TIP3   OH243229   6.485   2.028   2.146
14429TIP3    H143230   6.487   1.975   2.066
14429TIP3    H243231   6.397   2.066   2.147
14430TIP3   OH243232   5.913   0.197   5.664
14430TIP3    H143233   5.938   0.286   5.689
14430TIP3    H243234   5.964   0.179   5.586
14431TIP3   OH243235   2.146   4.611   2.417
14431TIP3    H143236   2.134   4.664   2.496
14431TIP3    H243237   2.113   4.665   2.346
14432TIP3   OH243238   4.024   4.785   2.268
14432TIP3    H143239   3.940   4.742   2.252
14432TIP3    H243240   4.041   4.835   2.187
14433TIP3   OH243241   2.043   0.282   4.408
14433TIP3    H143242   2.119   0.224   4.422
14433TIP3    H243243   2.081   0.369   4.399
14434TIP3   OH243244   3.683   5.077   5.953
14434TIP3    H143245   3.654   5.043   6.038
14434TIP3    H243246   3.638   5.022   5.889
14435TIP3   OH243247   3.799   5.778   4.922
14435TIP3    H143248   3.865   5.739   4.979
14435TIP3    H243249   3.720   5.728   4.939
14436TIP3   OH243250   5.090   3.100   6.039
14436TIP3    H143251   5.097   3.157   6.116
14436TIP3    H243252   5.006   3.124   6.000
14437TIP3   OH243253   3.895   3.140   6.563
14437TIP3    H143254   3.969   3.093   6.524
14437TIP3    H243255   3.925   3.163   6.651
14438TIP3   OH243256   3.121   1.066   4.248
14438TIP3    H143257   3.152   0.979   4.274
14438TIP3    H243258   3.061   1.049   4.175
14439TIP3   OH243259   3.819   5.084   1.064
14439TIP3    H143260   3.911   5.070   1.038
14439TIP3    H243261   3.796   5.006   1.115
14440TIP3   OH243262   5.564   2.946   0.883
14440TIP3    H143263   5.561   2.890   0.961
14440TIP3    H243264   5.626   2.901   0.824
14441TIP3   OH243265   6.222   1.431   3.550
14441TIP3    H143266   6.224   1.378   3.471
14441TIP3    H243267   6.306   1.414   3.592
14442TIP3   OH243268   1.200   0.876   1.404
14442TIP3    H143269   1.225   0.849   1.492
14442TIP3    H243270   1.202   0.795   1.352
14443TIP3   OH243271   3.809   4.298   1.421
14443TIP3    H143272   3.882   4.290   1.360
14443TIP3    H243273   3.773   4.385   1.406
14444TIP3   OH243274   4.387   4.783   2.560
14444TIP3    H143275   4.360   4.696   2.530
14444TIP3    H243276   4.481   4.775   2.575
14445TIP3   OH243277   3.581   1.643   2.039
14445TIP3    H143278   3.611   1.667   2.126
14445TIP3    H243279   3.631   1.564   2.017
14446TIP3   OH243280   1.687   4.370   1.886
14446TIP3    H143281   1.611   4.314   1.904
14446TIP3    H243282   1.651   4.444   1.837
14447TIP3   OH243283   7.062   2.424   0.473
14447TIP3    H143284   7.097   2.449   0.558
14447TIP3    H243285   7.002   2.351   0.492
14448TIP3   OH243286   0.199   6.521   1.247
14448TIP3    H143287   0.210   6.443   1.191
14448TIP3    H243288   0.238   6.592   1.196
14449TIP3   OH243289   4.689   7.286   2.228
14449TIP3    H143290   4.711   7.301   2.136
14449TIP3    H243291   4.600   7.251   2.226
14450TIP3   OH243292   6.001   6.984   2.560
14450TIP3    H143293   5.938   7.003   2.490
14450TIP3    H243294   6.001   7.063   2.613
14451TIP3   OH243295   8.272   2.233   3.326
14451TIP3    H143296   8.247   2.210   3.237
14451TIP3    H243297   8.317   2.317   3.317
14452TIP3   OH243298   0.440   4.906   5.754
14452TIP3    H143299   0.376   4.840   5.727
14452TIP3    H243300   0.454   4.889   5.847
14453TIP3   OH243301   0.492   7.735   5.197
14453TIP3    H143302   0.491   7.696   5.109
14453TIP3    H243303   0.457   7.666   5.253
14454TIP3   OH243304   6.211   2.991   2.157
14454TIP3    H143305   6.163   2.983   2.075
14454TIP3    H243306   6.169   2.929   2.216
14455TIP3   OH243307   7.464   0.608   2.232
14455TIP3    H143308   7.421   0.686   2.266
14455TIP3    H243309   7.527   0.584   2.300
14456TIP3   OH243310   5.359   6.779   4.583
14456TIP3    H143311   5.312   6.705   4.543
14456TIP3    H243312   5.438   6.788   4.530
14457TIP3   OH243313   6.185   1.638   2.139
14457TIP3    H143314   6.168   1.546   2.160
14457TIP3    H243315   6.227   1.673   2.218
14458TIP3   OH243316   5.831   0.350   5.256
14458TIP3    H143317   5.839   0.265   5.213
14458TIP3    H243318   5.826   0.413   5.184
14459TIP3   OH243319   6.108   5.200   3.333
14459TIP3    H143320   6.104   5.213   3.428
14459TIP3    H243321   6.089   5.286   3.296
14460TIP3   OH243322   4.298   2.904   6.362
14460TIP3    H143323   4.324   2.970   6.299
14460TIP3    H243324   4.231   2.946   6.416
14461TIP3   OH243325   2.536   0.513   0.502
14461TIP3    H143326   2.566   0.432   0.461
14461TIP3    H243327   2.561   0.503   0.594
14462TIP3   OH243328   3.494   2.584   6.554
14462TIP3    H143329   3.419   2.530   6.530
14462TIP3    H243330   3.474   2.613   6.643
14463TIP3   OH243331   6.792   5.630   2.589
14463TIP3    H143332   6.766   5.600   2.502
14463TIP3    H243333   6.739   5.577   2.649
14464TIP3   OH243334   7.036   3.835   5.852
14464TIP3    H143335   7.061   3.912   5.801
14464TIP3    H243336   7.056   3.859   5.942
14465TIP3   OH243337   7.744   7.116   3.554
14465TIP3    H143338   7.702   7.091   3.636
14465TIP3    H243339   7.806   7.184   3.578
14466TIP3   OH243340   2.241   3.695   0.051
14466TIP3    H143341   2.204   3.610   0.027
14466TIP3    H243342   2.186   3.725   0.124
14467TIP3   OH243343   2.330   7.694   1.372
14467TIP3    H143344   2.237   7.671   1.367
14467TIP3    H243345   2.349   7.698   1.466
14468TIP3   OH243346   1.639   3.601   0.871
14468TIP3    H143347   1.633   3.612   0.966
14468TIP3    H243348   1.669   3.511   0.859
14469TIP3   OH243349   0.295   6.804   6.693
14469TIP3    H143350   0.349   6.772   6.766
14469TIP3    H243351   0.285   6.728   6.635
14470TIP3   OH243352   2.952   7.387   5.982
14470TIP3    H143353   2.863   7.408   6.009
14470TIP3    H243354   2.980   7.461   5.929
14471TIP3   OH243355   2.158   0.509   2.175
14471TIP3    H143356   2.144   0.439   2.239
14471TIP3    H243357   2.182   0.585   2.228
14472TIP3   OH243358   5.482   3.386   3.225
14472TIP3    H143359   5.412   3.386   3.290
14472TIP3    H243360   5.562   3.397   3.276
14473TIP3   OH243361   0.572   5.306   4.122
14473TIP3    H143362   0.569   5.253   4.202
14473TIP3    H243363   0.626   5.382   4.145
14474TIP3   OH243364   3.406   0.786   3.772
14474TIP3    H143365   3.494   0.781   3.810
14474TIP3    H243366   3.417   0.752   3.683
14475TIP3   OH243367   7.635   2.105   4.803
14475TIP3    H143368   7.620   2.012   4.785
14475TIP3    H243369   7.718   2.106   4.851
14476TIP3   OH243370   5.713   1.630   2.694
14476TIP3    H143371   5.758   1.547   2.708
14476TIP3    H243372   5.696   1.633   2.600
14477TIP3   OH243373   1.283   3.127   5.844
14477TIP3    H143374   1.256   3.069   5.915
14477TIP3    H243375   1.259   3.080   5.764
14478TIP3   OH243376   1.410   7.041   4.150
14478TIP3    H143377   1.339   6.976   4.146
14478TIP3    H243378   1.364   7.126   4.150
14479TIP3   OH243379   2.160   2.901   4.135
14479TIP3    H143380   2.245   2.945   4.136
14479TIP3    H243381   2.176   2.819   4.089
14480TIP3   OH243382   0.850   5.508   2.629
14480TIP3    H143383   0.936   5.549   2.619
14480TIP3    H243384   0.788   5.579   2.615
14481TIP3   OH243385   7.286   3.987   6.489
14481TIP3    H143386   7.230   3.923   6.445
14481TIP3    H243387   7.226   4.046   6.532
14482TIP3   OH243388   6.696   4.835   0.208
14482TIP3    H143389   6.681   4.855   0.300
14482TIP3    H243390   6.669   4.744   0.198
14483TIP3   OH243391   7.158   0.834   5.749
14483TIP3    H143392   7.172   0.751   5.703
14483TIP3    H243393   7.147   0.898   5.679
14484TIP3   OH243394   2.629   6.584   2.728
14484TIP3    H143395   2.700   6.645   2.748
14484TIP3    H243396   2.602   6.606   2.639
14485TIP3   OH243397   4.305   6.350   4.955
14485TIP3    H143398   4.250   6.354   5.033
14485TIP3    H243399   4.260   6.406   4.891
14486TIP3   OH243400   0.577   3.397   1.379
14486TIP3    H143401   0.598   3.441   1.461
14486TIP3    H243402   0.539   3.314   1.405
14487TIP3   OH243403   4.559   3.420   5.652
14487TIP3    H143404   4.504   3.394   5.726
14487TIP3    H243405   4.642   3.445   5.691
14488TIP3   OH243406   7.793   2.454   3.726
14488TIP3    H143407   7.799   2.543   3.692
14488TIP3    H243408   7.849   2.453   3.803
14489TIP3   OH243409   7.060   7.445   6.257
14489TIP3    H143410   7.090   7.515   6.315
14489TIP3    H243411   6.966   7.437   6.276
14490TIP3   OH243412   2.299   1.264   4.924
14490TIP3    H143413   2.330   1.274   4.834
14490TIP3    H243414   2.291   1.169   4.936
14491TIP3   OH243415   2.237   2.833   4.704
14491TIP3    H143416   2.224   2.739   4.698
14491TIP3    H243417   2.325   2.848   4.670
14492TIP3   OH243418   7.318   6.692   4.507
14492TIP3    H143419   7.272   6.634   4.568
14492TIP3    H243420   7.248   6.737   4.460
14493TIP3   OH243421   5.661   4.425   1.017
14493TIP3    H143422   5.629   4.361   0.954
14493TIP3    H243423   5.607   4.502   1.002
14494TIP3   OH243424   4.086   4.118   3.575
14494TIP3    H143425   4.030   4.137   3.499
14494TIP3    H243426   4.121   4.030   3.557
14495TIP3   OH243427   1.761   7.420   6.443
14495TIP3    H143428   1.848   7.407   6.406
14495TIP3    H243429   1.717   7.478   6.382
14496TIP3   OH243430   5.249   4.118   5.119
14496TIP3    H143431   5.322   4.088   5.065
14496TIP3    H243432   5.284   4.192   5.168
14497TIP3   OH243433   5.619   2.450   6.114
14497TIP3    H143434   5.553   2.437   6.183
14497TIP3    H243435   5.645   2.361   6.090
14498TIP3   OH243436   0.217   6.947   3.924
14498TIP3    H143437   0.248   6.980   3.840
14498TIP3    H243438   0.127   6.980   3.931
14499TIP3   OH243439   8.239   5.521   0.429
14499TIP3    H143440   8.334   5.518   0.414
14499TIP3    H243441   8.229   5.570   0.510
14500TIP3   OH243442   0.257   5.605   6.120
14500TIP3    H143443   0.198   5.531   6.134
14500TIP3    H243444   0.260   5.615   6.025
14501TIP3   OH243445   2.933   7.278   5.714
14501TIP3    H143446   2.934   7.187   5.743
14501TIP3    H243447   2.971   7.327   5.788
14502TIP3   OH243448   3.228   2.467   6.494
14502TIP3    H143449   3.195   2.531   6.556
14502TIP3    H243450   3.231   2.513   6.410
14503TIP3   OH243451   0.779   1.383   2.329
14503TIP3    H143452   0.745   1.396   2.241
14503TIP3    H243453   0.743   1.456   2.380
14504TIP3   OH243454   8.200   2.067   3.959
14504TIP3    H143455   8.138   2.006   3.920
14504TIP3    H243456   8.198   2.143   3.901
14505TIP3   OH243457   7.675   3.798   2.689
14505TIP3    H143458   7.733   3.726   2.663
14505TIP3    H243459   7.662   3.785   2.783
14506TIP3   OH243460   0.140   4.828   5.013
14506TIP3    H143461   0.046   4.811   5.007
14506TIP3    H243462   0.180   4.741   5.012
14507TIP3   OH243463   7.713   4.438   0.098
14507TIP3    H143464   7.782   4.503   0.080
14507TIP3    H243465   7.757   4.368   0.146
14508TIP3   OH243466   1.772   2.663   5.790
14508TIP3    H143467   1.746   2.628   5.875
14508TIP3    H243468   1.808   2.588   5.743
14509TIP3   OH243469   1.295   1.079   3.232
14509TIP3    H143470   1.228   1.048   3.171
14509TIP3    H243471   1.250   1.089   3.315
14510TIP3   OH243472   0.366   4.155   3.364
14510TIP3    H143473   0.278   4.122   3.347
14510TIP3    H243474   0.353   4.227   3.426
14511TIP3   OH243475   2.234   3.766   1.939
14511TIP3    H143476   2.234   3.838   2.001
14511TIP3    H243477   2.298   3.704   1.973
14512TIP3   OH243478   3.059   1.842   1.743
14512TIP3    H143479   3.050   1.808   1.654
14512TIP3    H243480   2.986   1.804   1.791
14513TIP3   OH243481   7.286   3.181   3.362
14513TIP3    H143482   7.354   3.199   3.427
14513TIP3    H243483   7.304   3.244   3.291
14514TIP3   OH243484   0.130   6.331   3.037
14514TIP3    H143485   0.078   6.363   3.110
14514TIP3    H243486   0.221   6.341   3.066
14515TIP3   OH243487   4.271   0.057   1.419
14515TIP3    H143488   4.308   0.016   1.497
14515TIP3    H243489   4.308   0.145   1.418
14516TIP3   OH243490   5.374   3.687   3.592
14516TIP3    H143491   5.402   3.730   3.511
14516TIP3    H243492   5.415   3.739   3.662
14517TIP3   OH243493   5.662   2.298   0.475
14517TIP3    H143494   5.715   2.272   0.400
14517TIP3    H243495   5.607   2.370   0.443
14518TIP3   OH243496   4.487   6.253   2.231
14518TIP3    H143497   4.446   6.339   2.226
14518TIP3    H243498   4.577   6.268   2.203
14519TIP3   OH243499   7.830   5.265   6.212
14519TIP3    H143500   7.864   5.281   6.124
14519TIP3    H243501   7.831   5.169   6.220
14520TIP3   OH243502   6.535   3.604   1.117
14520TIP3    H143503   6.530   3.509   1.128
14520TIP3    H243504   6.592   3.633   1.187
14521TIP3   OH243505   5.217   1.904   1.405
14521TIP3    H143506   5.165   1.833   1.368
14521TIP3    H243507   5.157   1.978   1.409
14522TIP3   OH243508   7.017   5.926   1.431
14522TIP3    H143509   6.964   5.857   1.471
14522TIP3    H243510   6.990   5.926   1.339
14523TIP3   OH243511   2.682   6.061   3.328
14523TIP3    H143512   2.758   6.117   3.341
14523TIP3    H243513   2.630   6.106   3.261
14524TIP3   OH243514   3.092   4.940   2.914
14524TIP3    H143515   3.153   5.004   2.878
14524TIP3    H243516   3.130   4.855   2.893
14525TIP3   OH243517   0.945   5.851   3.193
14525TIP3    H143518   0.933   5.945   3.208
14525TIP3    H243519   0.949   5.841   3.098
14526TIP3   OH243520   7.679   7.428   0.719
14526TIP3    H143521   7.755   7.471   0.680
14526TIP3    H243522   7.703   7.335   0.720
14527TIP3   OH243523   4.035   5.109   5.347
14527TIP3    H143524   4.091   5.068   5.414
14527TIP3    H243525   4.023   5.198   5.378
14528TIP3   OH243526   1.744   3.820   1.668
14528TIP3    H143527   1.705   3.862   1.744
14528TIP3    H243528   1.838   3.819   1.686
14529TIP3   OH243529   6.392   1.065   0.645
14529TIP3    H143530   6.346   0.992   0.603
14529TIP3    H243531   6.417   1.031   0.731
14530TIP3   OH243532   1.814   4.314   5.977
14530TIP3    H143533   1.776   4.387   6.025
14530TIP3    H243534   1.862   4.264   6.043
14531TIP3   OH243535   6.791   3.750   4.831
14531TIP3    H143536   6.801   3.784   4.920
14531TIP3    H243537   6.697   3.741   4.819
14532TIP3   OH243538   7.838   6.459   3.646
14532TIP3    H143539   7.761   6.422   3.689
14532TIP3    H243540   7.809   6.546   3.618
14533TIP3   OH243541   2.815   7.187   4.441
14533TIP3    H143542   2.871   7.117   4.407
14533TIP3    H243543   2.845   7.266   4.396
14534TIP3   OH243544   3.163   2.932   3.962
14534TIP3    H143545   3.068   2.949   3.960
14534TIP3    H243546   3.179   2.900   4.051
14535TIP3   OH243547   7.444   1.562   4.218
14535TIP3    H143548   7.475   1.508   4.146
14535TIP3    H243549   7.512   1.554   4.285
14536TIP3   OH243550   6.546   0.577   4.779
14536TIP3    H143551   6.597   0.505   4.741
14536TIP3    H243552   6.578   0.655   4.735
14537TIP3   OH243553   3.439   0.686   2.199
14537TIP3    H143554   3.424   0.600   2.238
14537TIP3    H243555   3.528   0.709   2.228
14538TIP3   OH243556   6.949   6.704   2.109
14538TIP3    H143557   6.939   6.759   2.032
14538TIP3    H243558   6.867   6.653   2.113
14539TIP3   OH243559   2.497   1.618   3.682
14539TIP3    H143560   2.410   1.655   3.695
14539TIP3    H243561   2.497   1.587   3.592
14540TIP3   OH243562   3.654   4.205   0.881
14540TIP3    H143563   3.692   4.169   0.961
14540TIP3    H243564   3.588   4.141   0.854
14541TIP3   OH243565   2.619   3.173   4.370
14541TIP3    H143566   2.638   3.214   4.286
14541TIP3    H243567   2.663   3.088   4.366
14542TIP3   OH243568   4.548   2.902   3.745
14542TIP3    H143569   4.582   2.973   3.689
14542TIP3    H243570   4.454   2.920   3.752
14543TIP3   OH243571   1.478   4.478   4.944
14543TIP3    H143572   1.567   4.457   4.972
14543TIP3    H243573   1.466   4.431   4.861
14544TIP3   OH243574   1.604   5.650   6.500
14544TIP3    H143575   1.583   5.557   6.493
14544TIP3    H243576   1.548   5.681   6.571
14545TIP3   OH243577   1.023   1.313   5.247
14545TIP3    H143578   1.025   1.348   5.159
14545TIP3    H243579   1.112   1.326   5.281
14546TIP3   OH243580   3.747   1.716   4.797
14546TIP3    H143581   3.762   1.803   4.760
14546TIP3    H243582   3.692   1.671   4.732
14547TIP3   OH243583   8.043   3.681   6.549
14547TIP3    H143584   7.965   3.626   6.551
14547TIP3    H243585   8.107   3.630   6.498
14548TIP3   OH243586   1.793   4.723   5.040
14548TIP3    H143587   1.753   4.756   4.959
14548TIP3    H243588   1.818   4.802   5.088
14549TIP3   OH243589   7.826   1.938   6.641
14549TIP3    H143590   7.809   1.844   6.647
14549TIP3    H243591   7.739   1.977   6.639
14550TIP3   OH243592   1.838   1.648   0.299
14550TIP3    H143593   1.760   1.607   0.261
14550TIP3    H243594   1.891   1.575   0.330
14551TIP3   OH243595   7.129   5.946   5.645
14551TIP3    H143596   7.182   6.025   5.652
14551TIP3    H243597   7.118   5.917   5.736
14552TIP3   OH243598   0.302   4.812   1.200
14552TIP3    H143599   0.348   4.890   1.231
14552TIP3    H243600   0.365   4.768   1.143
14553TIP3   OH243601   4.816   0.265   6.446
14553TIP3    H143602   4.745   0.263   6.381
14553TIP3    H243603   4.889   0.306   6.400
14554TIP3   OH243604   0.992   3.697   0.195
14554TIP3    H143605   0.995   3.613   0.242
14554TIP3    H243606   0.993   3.673   0.103
14555TIP3   OH243607   2.187   5.947   3.152
14555TIP3    H143608   2.225   5.965   3.238
14555TIP3    H243609   2.251   5.891   3.109
14556TIP3   OH243610   6.022   0.460   5.711
14556TIP3    H143611   6.010   0.517   5.635
14556TIP3    H243612   6.103   0.489   5.751
14557TIP3   OH243613   0.496   3.366   1.108
14557TIP3    H143614   0.514   3.396   1.197
14557TIP3    H243615   0.460   3.277   1.120
14558TIP3   OH243616   0.903   6.945   3.713
14558TIP3    H143617   0.810   6.950   3.695
14558TIP3    H243618   0.940   6.897   3.639
14559TIP3   OH243619   4.730   3.710   1.828
14559TIP3    H143620   4.789   3.785   1.827
14559TIP3    H243621   4.644   3.746   1.849
14560TIP3   OH243622   2.801   1.607   1.306
14560TIP3    H143623   2.765   1.696   1.310
14560TIP3    H243624   2.886   1.617   1.263
14561TIP3   OH243625   3.387   3.744   3.358
14561TIP3    H143626   3.360   3.760   3.449
14561TIP3    H243627   3.483   3.739   3.362
14562TIP3   OH243628   1.440   6.702   0.688
14562TIP3    H143629   1.351   6.729   0.664
14562TIP3    H243630   1.451   6.734   0.777
14563TIP3   OH243631   2.880   3.067   2.885
14563TIP3    H143632   2.828   3.144   2.907
14563TIP3    H243633   2.959   3.102   2.843
14564TIP3   OH243634   0.901   7.023   1.349
14564TIP3    H143635   0.925   7.003   1.439
14564TIP3    H243636   0.960   7.093   1.323
14565TIP3   OH243637   6.780   4.680   6.428
14565TIP3    H143638   6.763   4.677   6.333
14565TIP3    H243639   6.765   4.771   6.453
14566TIP3   OH243640   0.418   6.703   2.135
14566TIP3    H143641   0.423   6.797   2.148
14566TIP3    H243642   0.341   6.676   2.185
14567TIP3   OH243643   6.008   2.252   5.560
14567TIP3    H143644   5.926   2.247   5.610
14567TIP3    H243645   6.013   2.343   5.532
14568TIP3   OH243646   5.264   3.942   4.331
14568TIP3    H143647   5.208   3.864   4.327
14568TIP3    H243648   5.335   3.917   4.391
14569TIP3   OH243649   1.159   1.528   5.878
14569TIP3    H143650   1.242   1.566   5.848
14569TIP3    H243651   1.154   1.444   5.831
14570TIP3   OH243652   4.345   4.946   1.446
14570TIP3    H143653   4.292   5.017   1.409
14570TIP3    H243654   4.424   4.989   1.477
14571TIP3   OH243655   0.967   2.962   2.361
14571TIP3    H143656   0.948   2.927   2.274
14571TIP3    H243657   1.060   2.982   2.359
14572TIP3   OH243658   5.103   1.980   5.960
14572TIP3    H143659   5.158   1.905   5.937
14572TIP3    H243660   5.042   1.989   5.886
14573TIP3   OH243661   6.747   6.515   2.576
14573TIP3    H143662   6.841   6.522   2.594
14573TIP3    H243663   6.714   6.454   2.642
14574TIP3   OH243664   8.267   4.549   3.070
14574TIP3    H143665   8.186   4.506   3.096
14574TIP3    H243666   8.337   4.497   3.110
14575TIP3   OH243667   3.136   2.195   0.805
14575TIP3    H143668   3.142   2.254   0.730
14575TIP3    H243669   3.226   2.180   0.832
14576TIP3   OH243670   4.981   5.103   0.744
14576TIP3    H143671   4.939   5.042   0.805
14576TIP3    H243672   5.065   5.124   0.785
14577TIP3   OH243673   2.649   6.347   2.291
14577TIP3    H143674   2.554   6.356   2.297
14577TIP3    H243675   2.675   6.413   2.226
14578TIP3   OH243676   5.489   3.196   0.796
14578TIP3    H143677   5.513   3.120   0.849
14578TIP3    H243678   5.542   3.268   0.831
14579TIP3   OH243679   3.476   5.626   5.452
14579TIP3    H143680   3.481   5.680   5.373
14579TIP3    H243681   3.477   5.689   5.524
14580TIP3   OH243682   7.181   7.289   0.177
14580TIP3    H143683   7.163   7.311   0.268
14580TIP3    H243684   7.265   7.242   0.180
14581TIP3   OH243685   5.326   2.304   1.528
14581TIP3    H143686   5.385   2.367   1.571
14581TIP3    H243687   5.330   2.326   1.435
14582TIP3   OH243688   6.898   7.082   6.440
14582TIP3    H143689   6.836   7.130   6.385
14582TIP3    H243690   6.982   7.090   6.395
14583TIP3   OH243691   5.038   1.741   1.247
14583TIP3    H143692   4.961   1.683   1.245
14583TIP3    H243693   5.053   1.762   1.155
14584TIP3   OH243694   3.209   0.486   2.872
14584TIP3    H143695   3.262   0.563   2.893
14584TIP3    H243696   3.180   0.452   2.956
14585TIP3   OH243697   2.265   3.274   1.704
14585TIP3    H143698   2.304   3.361   1.704
14585TIP3    H243699   2.205   3.273   1.778
14586TIP3   OH243700   3.866   7.135   5.893
14586TIP3    H143701   3.891   7.211   5.945
14586TIP3    H243702   3.915   7.063   5.932
14587TIP3   OH243703   7.365   0.998   5.943
14587TIP3    H143704   7.390   0.941   5.871
14587TIP3    H243705   7.286   0.958   5.980
14588TIP3   OH243706   7.338   6.550   5.066
14588TIP3    H143707   7.331   6.465   5.109
14588TIP3    H243708   7.359   6.529   4.975
14589TIP3   OH243709   0.751   6.102   5.192
14589TIP3    H143710   0.782   6.086   5.103
14589TIP3    H243711   0.756   6.197   5.202
14590TIP3   OH243712   6.230   0.822   0.578
14590TIP3    H143713   6.176   0.841   0.655
14590TIP3    H243714   6.258   0.732   0.589
14591TIP3   OH243715   1.899   4.326   2.667
14591TIP3    H143716   1.848   4.265   2.614
14591TIP3    H243717   1.870   4.413   2.639
14592TIP3   OH243718   1.998   1.033   0.873
14592TIP3    H143719   2.005   0.977   0.796
14592TIP3    H243720   2.089   1.057   0.893
14593TIP3   OH243721   1.559   3.311   0.496
14593TIP3    H143722   1.565   3.303   0.401
14593TIP3    H243723   1.529   3.225   0.525
14594TIP3   OH243724   5.206   4.570   1.661
14594TIP3    H143725   5.229   4.637   1.726
14594TIP3    H243726   5.136   4.520   1.702
14595TIP3   OH243727   4.052   6.591   1.561
14595TIP3    H143728   3.971   6.632   1.590
14595TIP3    H243729   4.119   6.659   1.569
14596TIP3   OH243730   2.808   3.768   1.398
14596TIP3    H143731   2.832   3.855   1.430
14596TIP3    H243732   2.722   3.751   1.437
14597TIP3   OH243733   5.420   1.165   4.751
14597TIP3    H143734   5.512   1.143   4.739
14597TIP3    H243735   5.402   1.144   4.842
14598TIP3   OH243736   1.161   0.377   2.183
14598TIP3    H143737   1.230   0.312   2.174
14598TIP3    H243738   1.097   0.352   2.116
14599TIP3   OH243739   7.386   1.325   4.890
14599TIP3    H143740   7.477   1.349   4.873
14599TIP3    H243741   7.370   1.249   4.833
14600TIP3   OH243742   4.509   0.465   6.620
14600TIP3    H143743   4.545   0.530   6.679
14600TIP3    H243744   4.437   0.510   6.575
14601TIP3   OH243745   6.496   7.353   4.688
14601TIP3    H143746   6.430   7.422   4.675
14601TIP3    H243747   6.457   7.275   4.648
14602TIP3   OH243748   2.721   6.847   5.307
14602TIP3    H143749   2.678   6.788   5.369
14602TIP3    H243750   2.791   6.794   5.269
14603TIP3   OH243751   7.176   6.251   3.767
14603TIP3    H143752   7.161   6.209   3.683
14603TIP3    H243753   7.091   6.286   3.792
14604TIP3   OH243754   8.031   3.924   6.318
14604TIP3    H143755   7.977   3.857   6.359
14604TIP3    H243756   8.066   3.975   6.391
14605TIP3   OH243757   3.733   0.968   0.473
14605TIP3    H143758   3.826   0.976   0.496
14605TIP3    H243759   3.721   0.875   0.453
14606TIP3   OH243760   2.792   4.306   4.769
14606TIP3    H143761   2.772   4.324   4.678
14606TIP3    H243762   2.780   4.390   4.814
14607TIP3   OH243763   1.099   6.820   5.443
14607TIP3    H143764   1.067   6.812   5.533
14607TIP3    H243765   1.043   6.887   5.403
14608TIP3   OH243766   3.663   3.468   6.623
14608TIP3    H143767   3.585   3.444   6.574
14608TIP3    H243768   3.737   3.445   6.566
14609TIP3   OH243769   6.388   6.059   6.455
14609TIP3    H143770   6.322   6.018   6.511
14609TIP3    H243771   6.402   6.145   6.494
14610TIP3   OH243772   4.501   3.796   1.970
14610TIP3    H143773   4.408   3.792   1.993
14610TIP3    H243774   4.524   3.889   1.977
14611TIP3   OH243775   4.467   6.385   4.634
14611TIP3    H143776   4.489   6.299   4.672
14611TIP3    H243777   4.531   6.445   4.672
14612TIP3   OH243778   5.676   5.716   0.300
14612TIP3    H143779   5.596   5.674   0.332
14612TIP3    H243780   5.679   5.799   0.348
14613TIP3   OH243781   2.012   7.032   2.933
14613TIP3    H143782   1.963   7.110   2.904
14613TIP3    H243783   1.988   7.022   3.025
14614TIP3   OH243784   7.019   4.719   2.215
14614TIP3    H143785   7.059   4.674   2.140
14614TIP3    H243786   7.019   4.811   2.191
14615TIP3   OH243787   1.308   2.058   4.670
14615TIP3    H143788   1.271   2.141   4.700
14615TIP3    H243789   1.234   1.997   4.671
14616TIP3   OH243790   5.875   7.182   0.053
14616TIP3    H143791   5.939   7.184  -0.018
14616TIP3    H243792   5.842   7.092   0.053
14617TIP3   OH243793   3.811   7.810   2.554
14617TIP3    H143794   3.778   7.792   2.642
14617TIP3    H243795   3.896   7.767   2.551
14618TIP3   OH243796   6.462   7.538   1.322
14618TIP3    H143797   6.499   7.607   1.377
14618TIP3    H243798   6.372   7.529   1.351
14619TIP3   OH243799   5.647   1.187   0.899
14619TIP3    H143800   5.570   1.172   0.845
14619TIP3    H243801   5.652   1.110   0.956
14620TIP3   OH243802   1.100   1.244   1.781
14620TIP3    H143803   1.147   1.243   1.864
14620TIP3    H243804   1.030   1.179   1.792
14621TIP3   OH243805   1.418   1.386   4.208
14621TIP3    H143806   1.392   1.359   4.120
14621TIP3    H243807   1.511   1.364   4.212
14622TIP3   OH243808   7.720   4.302   3.748
14622TIP3    H143809   7.742   4.388   3.711
14622TIP3    H243810   7.660   4.321   3.819
14623TIP3   OH243811   7.481   4.461   4.177
14623TIP3    H143812   7.509   4.553   4.184
14623TIP3    H243813   7.389   4.466   4.152
14624TIP3   OH243814   0.778   2.331   1.361
14624TIP3    H143815   0.739   2.254   1.319
14624TIP3    H243816   0.864   2.340   1.321
14625TIP3   OH243817   7.866   6.507   2.176
14625TIP3    H143818   7.893   6.596   2.198
14625TIP3    H243819   7.859   6.462   2.260
14626TIP3   OH243820   8.256   0.752   4.839
14626TIP3    H143821   8.207   0.832   4.821
14626TIP3    H243822   8.309   0.773   4.916
14627TIP3   OH243823   7.296   4.792   4.096
14627TIP3    H143824   7.264   4.871   4.141
14627TIP3    H243825   7.221   4.759   4.048
14628TIP3   OH243826   1.301   3.786   2.185
14628TIP3    H143827   1.300   3.713   2.123
14628TIP3    H243828   1.261   3.751   2.265
14629TIP3   OH243829   8.057   1.343   1.644
14629TIP3    H143830   8.059   1.263   1.696
14629TIP3    H243831   8.144   1.348   1.603
14630TIP3   OH243832   6.218   3.232   6.137
14630TIP3    H143833   6.237   3.240   6.044
14630TIP3    H243834   6.149   3.297   6.153
14631TIP3   OH243835   4.836   5.974   0.209
14631TIP3    H143836   4.903   5.974   0.276
14631TIP3    H243837   4.821   5.882   0.190
14632TIP3   OH243838   0.945   1.675   1.588
14632TIP3    H143839   0.885   1.611   1.550
14632TIP3    H243840   1.011   1.622   1.634
14633TIP3   OH243841   4.789   1.670   1.153
14633TIP3    H143842   4.772   1.654   1.246
14633TIP3    H243843   4.772   1.763   1.141
14634TIP3   OH243844   1.278   5.033   2.189
14634TIP3    H143845   1.290   4.939   2.193
14634TIP3    H243846   1.253   5.059   2.278
14635TIP3   OH243847   2.672   2.681   4.164
14635TIP3    H143848   2.726   2.697   4.086
14635TIP3    H243849   2.735   2.666   4.234
14636TIP3   OH243850   6.522   3.371   5.093
14636TIP3    H143851   6.481   3.397   5.175
14636TIP3    H243852   6.493   3.280   5.079
14637TIP3   OH243853   6.160   7.465   2.901
14637TIP3    H143854   6.161   7.535   2.966
14637TIP3    H243855   6.242   7.418   2.914
14638TIP3   OH243856   4.623   5.450   3.403
14638TIP3    H143857   4.608   5.543   3.417
14638TIP3    H243858   4.631   5.440   3.309
14639TIP3   OH243859   7.735   6.573   2.987
14639TIP3    H143860   7.770   6.648   3.035
14639TIP3    H243861   7.812   6.521   2.963
14640TIP3   OH243862   0.053   4.011   4.934
14640TIP3    H143863   0.124   3.957   4.901
14640TIP3    H243864  -0.008   4.019   4.861
14641TIP3   OH243865   2.794   1.279   1.476
14641TIP3    H143866   2.750   1.356   1.440
14641TIP3    H243867   2.790   1.291   1.571
14642TIP3   OH243868   4.039   2.795   5.691
14642TIP3    H143869   3.976   2.750   5.635
14642TIP3    H243870   4.123   2.754   5.670
14643TIP3   OH243871   3.130   0.999   2.472
14643TIP3    H143872   3.155   1.085   2.441
14643TIP3    H243873   3.198   0.975   2.535
14644TIP3   OH243874   2.691   1.298   2.029
14644TIP3    H143875   2.703   1.332   2.118
14644TIP3    H243876   2.695   1.203   2.039
14645TIP3   OH243877   0.261   6.931   6.331
14645TIP3    H143878   0.328   6.995   6.355
14645TIP3    H243879   0.181   6.966   6.369
14646TIP3   OH243880   5.711   0.580   3.968
14646TIP3    H143881   5.657   0.520   4.019
14646TIP3    H243882   5.759   0.630   4.033
14647TIP3   OH243883   1.864   1.588   2.357
14647TIP3    H143884   1.831   1.501   2.379
14647TIP3    H243885   1.951   1.571   2.319
14648TIP3   OH243886   6.570   2.471   0.515
14648TIP3    H143887   6.651   2.441   0.473
14648TIP3    H243888   6.597   2.498   0.603
14649TIP3   OH243889   5.430   0.170   2.538
14649TIP3    H143890   5.504   0.153   2.479
14649TIP3    H243891   5.380   0.089   2.536
14650TIP3   OH243892   6.109   7.541   0.548
14650TIP3    H143893   6.017   7.519   0.535
14650TIP3    H243894   6.106   7.622   0.599
14651TIP3   OH243895   0.688   4.469   1.798
14651TIP3    H143896   0.674   4.378   1.772
14651TIP3    H243897   0.680   4.468   1.893
14652TIP3   OH243898   6.149   5.478   1.395
14652TIP3    H143899   6.228   5.529   1.413
14652TIP3    H243900   6.084   5.512   1.456
14653TIP3   OH243901   3.754   6.433   4.629
14653TIP3    H143902   3.845   6.441   4.599
14653TIP3    H243903   3.756   6.467   4.719
14654TIP3   OH243904   6.639   4.321   3.903
14654TIP3    H143905   6.594   4.237   3.897
14654TIP3    H243906   6.688   4.328   3.822
14655TIP3   OH243907   3.327   7.155   2.416
14655TIP3    H143908   3.250   7.195   2.457
14655TIP3    H243909   3.343   7.208   2.338
14656TIP3   OH243910   2.840   0.077   2.883
14656TIP3    H143911   2.837   0.103   2.791
14656TIP3    H243912   2.933   0.085   2.906
14657TIP3   OH243913   4.304   7.578   5.160
14657TIP3    H143914   4.271   7.606   5.075
14657TIP3    H243915   4.356   7.500   5.140
14658TIP3   OH243916   5.437   5.598   5.599
14658TIP3    H143917   5.478   5.660   5.660
14658TIP3    H243918   5.361   5.644   5.564
14659TIP3   OH243919   0.376   4.493   2.937
14659TIP3    H143920   0.446   4.428   2.947
14659TIP3    H243921   0.417   4.566   2.891
14660TIP3   OH243922   0.084   7.687   6.430
14660TIP3    H143923   0.123   7.602   6.413
14660TIP3    H243924   0.036   7.708   6.350
14661TIP3   OH243925   3.032   3.915   1.068
14661TIP3    H143926   2.967   3.869   1.015
14661TIP3    H243927   2.983   3.987   1.109
14662TIP3   OH243928   4.319   4.221   3.732
14662TIP3    H143929   4.378   4.147   3.749
14662TIP3    H243930   4.239   4.180   3.699
14663TIP3   OH243931   4.582   5.184   5.684
14663TIP3    H143932   4.618   5.095   5.684
14663TIP3    H243933   4.654   5.239   5.715
14664TIP3   OH243934   4.718   5.009   3.911
14664TIP3    H143935   4.724   4.916   3.932
14664TIP3    H243936   4.803   5.045   3.936
14665TIP3   OH243937   6.106   7.388   3.498
14665TIP3    H143938   6.073   7.357   3.582
14665TIP3    H243939   6.134   7.478   3.514
14666TIP3   OH243940   3.490   5.085   2.675
14666TIP3    H143941   3.450   5.050   2.754
14666TIP3    H243942   3.465   5.024   2.606
14667TIP3   OH243943   5.596   2.244   5.005
14667TIP3    H143944   5.537   2.204   4.941
14667TIP3    H243945   5.632   2.169   5.054
14668TIP3   OH243946   4.548   5.939   3.805
14668TIP3    H143947   4.503   5.859   3.830
14668TIP3    H243948   4.641   5.921   3.821
14669TIP3   OH243949   1.056   6.795   6.441
14669TIP3    H143950   1.047   6.725   6.376
14669TIP3    H243951   1.150   6.815   6.441
14670TIP3   OH243952   5.614   1.828   1.354
14670TIP3    H143953   5.537   1.779   1.325
14670TIP3    H243954   5.607   1.912   1.307
14671TIP3   OH243955   0.882   2.283   2.414
14671TIP3    H143956   0.968   2.297   2.453
14671TIP3    H243957   0.895   2.297   2.321
14672TIP3   OH243958   8.300   7.732   1.156
14672TIP3    H143959   8.267   7.660   1.209
14672TIP3    H243960   8.236   7.802   1.169
14673TIP3   OH243961   0.910   7.292   6.577
14673TIP3    H143962   0.887   7.200   6.566
14673TIP3    H243963   0.991   7.291   6.628
14674TIP3   OH243964   3.451   3.796   2.933
14674TIP3    H143965   3.381   3.738   2.903
14674TIP3    H243966   3.526   3.772   2.879
14675TIP3   OH243967   6.429   3.107   2.003
14675TIP3    H143968   6.372   3.075   2.073
14675TIP3    H243969   6.497   3.040   1.996
14676TIP3   OH243970   5.432   6.844   3.684
14676TIP3    H143971   5.380   6.848   3.604
14676TIP3    H243972   5.516   6.809   3.657
14677TIP3   OH243973   0.068   6.837   2.569
14677TIP3    H143974   0.089   6.900   2.500
14677TIP3    H243975   0.019   6.768   2.523
14678TIP3   OH243976   4.030   6.829   2.601
14678TIP3    H143977   4.042   6.923   2.591
14678TIP3    H243978   4.051   6.792   2.515
14679TIP3   OH243979   0.319   2.139   4.786
14679TIP3    H143980   0.397   2.095   4.752
14679TIP3    H243981   0.256   2.134   4.715
14680TIP3   OH243982   2.723   5.817   2.505
14680TIP3    H143983   2.632   5.818   2.475
14680TIP3    H243984   2.775   5.836   2.427
14681TIP3   OH243985   1.455   4.245   1.950
14681TIP3    H143986   1.377   4.214   1.905
14681TIP3    H243987   1.491   4.167   1.993
14682TIP3   OH243988   2.208   4.278   0.411
14682TIP3    H143989   2.175   4.274   0.501
14682TIP3    H243990   2.249   4.193   0.397
14683TIP3   OH243991   1.469   3.178   5.014
14683TIP3    H143992   1.494   3.256   5.063
14683TIP3    H243993   1.397   3.207   4.958
14684TIP3   OH243994   5.900   0.911   5.368
14684TIP3    H143995   5.900   0.869   5.281
14684TIP3    H243996   5.827   0.869   5.414
14685TIP3   OH243997   5.263   1.530   2.659
14685TIP3    H143998   5.203   1.578   2.601
14685TIP3    H243999   5.221   1.534   2.745
14686TIP3   OH244000   0.368   5.892   3.751
14686TIP3    H144001   0.278   5.882   3.783
14686TIP3    H244002   0.393   5.804   3.722
14687TIP3   OH244003   2.067   6.058   3.877
14687TIP3    H144004   2.037   5.972   3.905
14687TIP3    H244005   2.090   6.047   3.784
14688TIP3   OH244006   1.440   2.690   2.562
14688TIP3    H144007   1.481   2.662   2.644
14688TIP3    H244008   1.392   2.770   2.586
14689TIP3   OH244009   4.348   7.400   3.363
14689TIP3    H144010   4.336   7.485   3.405
14689TIP3    H244011   4.300   7.339   3.419
14690TIP3   OH244012   3.885   6.851   6.607
14690TIP3    H144013   3.951   6.791   6.642
14690TIP3    H244014   3.901   6.851   6.512
14691TIP3   OH244015   8.232   2.522   4.918
14691TIP3    H144016   8.308   2.564   4.958
14691TIP3    H244017   8.214   2.447   4.975
14692TIP3   OH244018   4.584   7.726   0.964
14692TIP3    H144019   4.608   7.721   1.057
14692TIP3    H244020   4.658   7.770   0.923
14693TIP3   OH244021   5.424   5.031   5.723
14693TIP3    H144022   5.499   5.042   5.665
14693TIP3    H244023   5.351   5.071   5.676
14694TIP3   OH244024   1.284   1.649   2.606
14694TIP3    H144025   1.348   1.679   2.542
14694TIP3    H244026   1.219   1.601   2.554
14695TIP3   OH244027   3.924   0.129   0.111
14695TIP3    H144028   3.902   0.139   0.018
14695TIP3    H244029   3.985   0.056   0.113
14696TIP3   OH244030   1.266   5.789   3.635
14696TIP3    H144031   1.192   5.842   3.605
14696TIP3    H244032   1.323   5.782   3.559
14697TIP3   OH244033   5.671   0.830   5.516
14697TIP3    H144034   5.608   0.822   5.444
14697TIP3    H244035   5.650   0.915   5.557
14698TIP3   OH244036   5.917   5.491   2.059
14698TIP3    H144037   5.921   5.526   2.148
14698TIP3    H244038   5.868   5.409   2.068
14699TIP3   OH244039   1.370   5.465   1.843
14699TIP3    H144040   1.463   5.451   1.858
14699TIP3    H244041   1.329   5.450   1.929
14700TIP3   OH244042   7.818   4.607   4.270
14700TIP3    H144043   7.830   4.683   4.214
14700TIP3    H244044   7.901   4.559   4.264
14701TIP3   OH244045   7.738   4.436   3.372
14701TIP3    H144046   7.701   4.479   3.449
14701TIP3    H244047   7.662   4.415   3.317
14702TIP3   OH244048   0.782   3.700   5.536
14702TIP3    H144049   0.876   3.682   5.536
14702TIP3    H244050   0.743   3.626   5.490
14703TIP3   OH244051   0.166   3.189   5.669
14703TIP3    H144052   0.087   3.242   5.677
14703TIP3    H244053   0.214   3.228   5.596
14704TIP3   OH244054   1.504   4.758   4.223
14704TIP3    H144055   1.544   4.782   4.307
14704TIP3    H244056   1.555   4.808   4.159
14705TIP3   OH244057   7.571   6.573   1.164
14705TIP3    H144058   7.547   6.653   1.117
14705TIP3    H244059   7.499   6.558   1.225
14706TIP3   OH244060   7.446   6.899   5.574
14706TIP3    H144061   7.472   6.942   5.493
14706TIP3    H244062   7.356   6.870   5.559
14707TIP3   OH244063   6.264   3.355   3.255
14707TIP3    H144064   6.303   3.320   3.175
14707TIP3    H244065   6.272   3.450   3.246
14708TIP3   OH244066   0.568   4.906   5.282
14708TIP3    H144067   0.545   4.925   5.373
14708TIP3    H244068   0.485   4.907   5.235
14709TIP3   OH244069   4.760   6.943   0.861
14709TIP3    H144070   4.706   6.865   0.871
14709TIP3    H244071   4.712   6.998   0.799
14710TIP3   OH244072   6.436   7.017   3.593
14710TIP3    H144073   6.526   7.019   3.625
14710TIP3    H244074   6.435   7.081   3.521
14711TIP3   OH244075   5.584   3.551   5.585
14711TIP3    H144076   5.582   3.471   5.638
14711TIP3    H244077   5.673   3.553   5.549
14712TIP3   OH244078   1.629   4.795   1.207
14712TIP3    H144079   1.570   4.849   1.154
14712TIP3    H244080   1.712   4.797   1.160
14713TIP3   OH244081   2.047   7.564   0.448
14713TIP3    H144082   2.102   7.520   0.512
14713TIP3    H244083   2.007   7.636   0.495
14714TIP3   OH244084   8.201   4.479   0.824
14714TIP3    H144085   8.190   4.474   0.919
14714TIP3    H244086   8.115   4.457   0.789
14715TIP3   OH244087   4.899   3.106   2.926
14715TIP3    H144088   4.901   3.090   3.020
14715TIP3    H244089   4.811   3.080   2.899
14716TIP3   OH244090   3.187   6.526   4.456
14716TIP3    H144091   3.103   6.482   4.444
14716TIP3    H244092   3.192   6.542   4.551
14717TIP3   OH244093   2.949   6.713   5.199
14717TIP3    H144094   2.972   6.709   5.106
14717TIP3    H244095   3.030   6.691   5.245
14718TIP3   OH244096   5.622   0.322   1.409
14718TIP3    H144097   5.663   0.240   1.382
14718TIP3    H244098   5.668   0.389   1.359
14719TIP3   OH244099   6.456   3.128   4.010
14719TIP3    H144100   6.539   3.138   3.962
14719TIP3    H244101   6.479   3.145   4.102
14720TIP3   OH244102   2.460   4.820   1.795
14720TIP3    H144103   2.468   4.865   1.711
14720TIP3    H244104   2.496   4.882   1.859
14721TIP3   OH244105   7.212   5.791   2.226
14721TIP3    H144106   7.298   5.751   2.210
14721TIP3    H244107   7.150   5.731   2.185
14722TIP3   OH244108   7.855   2.533   1.285
14722TIP3    H144109   7.938   2.572   1.311
14722TIP3    H244110   7.866   2.440   1.303
14723TIP3   OH244111   5.397   4.663   1.492
14723TIP3    H144112   5.329   4.615   1.539
14723TIP3    H244113   5.479   4.630   1.527
14724TIP3   OH244114   0.738   4.915   2.438
14724TIP3    H144115   0.691   4.918   2.521
14724TIP3    H244116   0.785   4.832   2.440
14725TIP3   OH244117   5.155   4.367   1.152
14725TIP3    H144118   5.149   4.414   1.069
14725TIP3    H244119   5.245   4.381   1.181
14726TIP3   OH244120   4.771   6.745   5.259
14726TIP3    H144121   4.679   6.758   5.284
14726TIP3    H244122   4.790   6.817   5.198
14727TIP3   OH244123   7.458   5.576   5.905
14727TIP3    H144124   7.403   5.581   5.827
14727TIP3    H244125   7.415   5.636   5.967
14728TIP3   OH244126   2.188   1.270   4.589
14728TIP3    H144127   2.196   1.209   4.516
14728TIP3    H244128   2.133   1.340   4.556
14729TIP3   OH244129   2.682   2.377   3.397
14729TIP3    H144130   2.645   2.369   3.310
14729TIP3    H244131   2.673   2.470   3.419
14730TIP3   OH244132   6.502   6.570   5.012
14730TIP3    H144133   6.589   6.546   5.042
14730TIP3    H244134   6.492   6.662   5.036
14731TIP3   OH244135   7.602   3.496   1.239
14731TIP3    H144136   7.574   3.551   1.312
14731TIP3    H244137   7.605   3.408   1.275
14732TIP3   OH244138   7.697   0.795   1.953
14732TIP3    H144139   7.786   0.807   1.986
14732TIP3    H244140   7.659   0.883   1.955
14733TIP3   OH244141   4.819   0.968   0.491
14733TIP3    H144142   4.757   0.989   0.420
14733TIP3    H244143   4.765   0.961   0.569
14734TIP3   OH244144   0.994   4.590   1.670
14734TIP3    H144145   1.021   4.582   1.761
14734TIP3    H244146   0.921   4.528   1.661
14735TIP3   OH244147   4.603   1.837   6.361
14735TIP3    H144148   4.523   1.869   6.403
14735TIP3    H244149   4.603   1.743   6.376
14736TIP3   OH244150   1.638   5.309   5.470
14736TIP3    H144151   1.721   5.356   5.462
14736TIP3    H244152   1.579   5.371   5.512
14737TIP3   OH244153   2.378   1.170   2.004
14737TIP3    H144154   2.302   1.126   1.965
14737TIP3    H244155   2.453   1.130   1.960
14738TIP3   OH244156   7.394   2.895   0.236
14738TIP3    H144157   7.430   2.878   0.323
14738TIP3    H244158   7.412   2.814   0.187
14739TIP3   OH244159   0.166   2.942   0.024
14739TIP3    H144160   0.171   3.016   0.084
14739TIP3    H244161   0.235   2.959  -0.041
14740TIP3   OH244162   5.586   2.556   3.018
14740TIP3    H144163   5.628   2.541   3.102
14740TIP3    H244164   5.598   2.650   3.001
14741TIP3   OH244165   0.089   0.757   0.680
14741TIP3    H144166   0.107   0.847   0.652
14741TIP3    H244167   0.173   0.713   0.673
14742TIP3   OH244168   4.107   2.323   0.754
14742TIP3    H144169   4.119   2.278   0.838
14742TIP3    H244170   4.157   2.271   0.691
14743TIP3   OH244171   0.584   4.262   3.700
14743TIP3    H144172   0.603   4.334   3.640
14743TIP3    H244173   0.509   4.293   3.751
14744TIP3   OH244174   8.230   7.663   5.765
14744TIP3    H144175   8.295   7.734   5.772
14744TIP3    H244176   8.181   7.684   5.685
14745TIP3   OH244177   1.202   0.908   0.380
14745TIP3    H144178   1.196   1.003   0.368
14745TIP3    H244179   1.138   0.871   0.319
14746TIP3   OH244180   7.690   3.418   5.869
14746TIP3    H144181   7.736   3.491   5.828
14746TIP3    H244182   7.716   3.423   5.961
14747TIP3   OH244183   7.839   0.182   1.269
14747TIP3    H144184   7.798   0.199   1.184
14747TIP3    H244185   7.766   0.161   1.328
14748TIP3   OH244186   0.832   7.615   4.130
14748TIP3    H144187   0.766   7.595   4.197
14748TIP3    H244188   0.903   7.554   4.149
14749TIP3   OH244189   0.903   2.523   0.229
14749TIP3    H144190   0.872   2.437   0.256
14749TIP3    H244191   0.865   2.583   0.293
14750TIP3   OH244192   3.082   2.132   1.187
14750TIP3    H144193   3.124   2.217   1.175
14750TIP3    H244194   2.996   2.153   1.225
14751TIP3   OH244195   6.570   2.147   0.968
14751TIP3    H144196   6.655   2.130   1.008
14751TIP3    H244197   6.584   2.227   0.917
14752TIP3   OH244198   7.889   4.405   1.711
14752TIP3    H144199   7.905   4.322   1.665
14752TIP3    H244200   7.965   4.459   1.690
14753TIP3   OH244201   4.687   7.493   0.712
14753TIP3    H144202   4.687   7.589   0.714
14753TIP3    H244203   4.766   7.469   0.762
14754TIP3   OH244204   1.850   2.272   2.960
14754TIP3    H144205   1.803   2.189   2.958
14754TIP3    H244206   1.793   2.334   2.916
14755TIP3   OH244207   3.338   4.533   2.640
14755TIP3    H144208   3.377   4.461   2.690
14755TIP3    H244209   3.399   4.606   2.653
14756TIP3   OH244210   5.352   2.788   0.062
14756TIP3    H144211   5.360   2.881   0.041
14756TIP3    H244212   5.266   2.763   0.026
14757TIP3   OH244213   3.379   5.912   6.241
14757TIP3    H144214   3.460   5.868   6.215
14757TIP3    H244215   3.407   5.976   6.307
14758TIP3   OH244216   4.256   4.448   1.683
14758TIP3    H144217   4.202   4.516   1.643
14758TIP3    H244218   4.341   4.489   1.696
14759TIP3   OH244219   7.922   1.267   6.314
14759TIP3    H144220   7.903   1.239   6.225
14759TIP3    H244221   7.994   1.329   6.305
14760TIP3   OH244222   7.261   1.935   1.445
14760TIP3    H144223   7.287   1.951   1.355
14760TIP3    H244224   7.192   1.869   1.439
14761TIP3   OH244225   5.835   1.903   3.281
14761TIP3    H144226   5.883   1.985   3.267
14761TIP3    H244227   5.744   1.925   3.262
14762TIP3   OH244228   0.074   1.605   6.748
14762TIP3    H144229   0.160   1.647   6.754
14762TIP3    H244230   0.012   1.674   6.771
14763TIP3   OH244231   4.922   3.029   6.346
14763TIP3    H144232   4.891   3.033   6.436
14763TIP3    H244233   4.883   2.950   6.310
14764TIP3   OH244234   2.863   2.604   4.338
14764TIP3    H144235   2.873   2.590   4.433
14764TIP3    H244236   2.903   2.527   4.298
14765TIP3   OH244237   3.123   0.292   3.998
14765TIP3    H144238   3.196   0.234   4.017
14765TIP3    H244239   3.076   0.301   4.081
14766TIP3   OH244240   2.822   7.045   1.452
14766TIP3    H144241   2.853   7.049   1.362
14766TIP3    H244242   2.899   7.062   1.505
14767TIP3   OH244243   2.933   4.368   0.639
14767TIP3    H144244   3.017   4.336   0.605
14767TIP3    H244245   2.877   4.291   0.641
14768TIP3   OH244246   7.867   4.818   4.102
14768TIP3    H144247   7.877   4.849   4.012
14768TIP3    H244248   7.915   4.881   4.155
14769TIP3   OH244249   2.160   5.389   0.191
14769TIP3    H144250   2.141   5.332   0.266
14769TIP3    H244251   2.088   5.451   0.190
14770TIP3   OH244252   1.103   6.818   3.562
14770TIP3    H144253   1.157   6.893   3.588
14770TIP3    H244254   1.144   6.786   3.481
14771TIP3   OH244255   4.425   4.858   3.965
14771TIP3    H144256   4.385   4.824   3.885
14771TIP3    H244257   4.396   4.798   4.034
14772TIP3   OH244258   6.095   5.361   4.031
14772TIP3    H144259   6.190   5.362   4.020
14772TIP3    H244260   6.082   5.342   4.124
14773TIP3   OH244261   1.593   6.854   5.805
14773TIP3    H144262   1.676   6.806   5.805
14773TIP3    H244263   1.561   6.846   5.715
14774TIP3   OH244264   3.947   7.614   1.413
14774TIP3    H144265   3.858   7.614   1.378
14774TIP3    H244266   3.937   7.644   1.504
14775TIP3   OH244267   4.032   4.612   2.536
14775TIP3    H144268   4.023   4.649   2.448
14775TIP3    H244269   3.951   4.565   2.551
14776TIP3   OH244270   3.368   1.433   6.612
14776TIP3    H144271   3.395   1.431   6.704
14776TIP3    H244272   3.427   1.372   6.568
14777TIP3   OH244273   4.077   1.885   0.977
14777TIP3    H144274   4.147   1.863   1.038
14777TIP3    H244275   4.113   1.862   0.891
14778TIP3   OH244276   0.819   6.007   5.982
14778TIP3    H144277   0.886   5.991   5.916
14778TIP3    H244278   0.855   5.968   6.062
14779TIP3   OH244279   7.427   1.214   0.760
14779TIP3    H144280   7.455   1.305   0.753
14779TIP3    H244281   7.421   1.199   0.855
14780TIP3   OH244282   7.329   0.785   6.666
14780TIP3    H144283   7.288   0.732   6.598
14780TIP3    H244284   7.333   0.728   6.743
14781TIP3   OH244285   6.338   6.243   5.300
14781TIP3    H144286   6.309   6.194   5.224
14781TIP3    H244287   6.258   6.287   5.331
14782TIP3   OH244288   6.911   6.277   3.137
14782TIP3    H144289   6.872   6.317   3.215
14782TIP3    H244290   6.988   6.231   3.170
14783TIP3   OH244291   4.955   3.523   4.060
14783TIP3    H144292   5.046   3.529   4.089
14783TIP3    H244293   4.953   3.443   4.006
14784TIP3   OH244294   4.101   1.102   0.027
14784TIP3    H144295   4.190   1.135   0.041
14784TIP3    H244296   4.069   1.081   0.115
14785TIP3   OH244297   1.594   3.707   5.606
14785TIP3    H144298   1.541   3.658   5.543
14785TIP3    H244299   1.569   3.671   5.691
14786TIP3   OH244300   1.576   1.381   0.569
14786TIP3    H144301   1.539   1.339   0.647
14786TIP3    H244302   1.606   1.308   0.515
14787TIP3   OH244303   4.498   6.722   3.806
14787TIP3    H144304   4.424   6.781   3.793
14787TIP3    H244305   4.506   6.714   3.901
14788TIP3   OH244306   2.655   0.624   0.192
14788TIP3    H144307   2.566   0.625   0.159
14788TIP3    H244308   2.682   0.716   0.193
14789TIP3   OH244309   4.021   3.892   2.423
14789TIP3    H144310   4.043   3.799   2.425
14789TIP3    H244311   4.049   3.921   2.336
14790TIP3   OH244312   2.488   1.231   5.817
14790TIP3    H144313   2.471   1.264   5.729
14790TIP3    H244314   2.502   1.310   5.870
14791TIP3   OH244315   7.300   7.094   3.535
14791TIP3    H144316   7.275   7.015   3.488
14791TIP3    H244317   7.323   7.063   3.623
14792TIP3   OH244318   4.710   4.540   5.320
14792TIP3    H144319   4.736   4.629   5.346
14792TIP3    H244320   4.676   4.500   5.400
14793TIP3   OH244321   3.819   4.341   2.423
14793TIP3    H144322   3.772   4.359   2.504
14793TIP3    H244323   3.784   4.258   2.392
14794TIP3   OH244324   6.808   1.946   5.237
14794TIP3    H144325   6.844   2.001   5.306
14794TIP3    H244326   6.885   1.904   5.197
14795TIP3   OH244327   8.213   5.740   4.888
14795TIP3    H144328   8.124   5.720   4.918
14795TIP3    H244329   8.268   5.679   4.938
14796TIP3   OH244330   6.169   4.826   1.131
14796TIP3    H144331   6.087   4.840   1.178
14796TIP3    H244332   6.167   4.888   1.058
14797TIP3   OH244333   4.020   5.066   6.658
14797TIP3    H144334   4.057   4.987   6.697
14797TIP3    H244335   3.953   5.095   6.720
14798TIP3   OH244336   5.036   6.727   2.324
14798TIP3    H144337   5.049   6.632   2.331
14798TIP3    H244338   4.959   6.745   2.377
14799TIP3   OH244339   1.105   2.498   2.353
14799TIP3    H144340   1.169   2.530   2.289
14799TIP3    H244341   1.029   2.474   2.300
14800TIP3   OH244342   2.678   6.503   4.474
14800TIP3    H144343   2.645   6.566   4.410
14800TIP3    H244344   2.619   6.511   4.548
14801TIP3   OH244345   6.115   4.115   0.332
14801TIP3    H144346   6.123   4.020   0.321
14801TIP3    H244347   6.032   4.138   0.291
14802TIP3   OH244348   2.387   7.437   0.827
14802TIP3    H144349   2.306   7.415   0.872
14802TIP3    H244350   2.449   7.369   0.856
14803TIP3   OH244351   2.830   1.928   1.517
14803TIP3    H144352   2.807   1.850   1.568
14803TIP3    H244353   2.784   1.999   1.561
14804TIP3   OH244354   2.162   6.579   6.326
14804TIP3    H144355   2.251   6.613   6.322
14804TIP3    H244356   2.170   6.487   6.300
14805TIP3   OH244357   6.147   0.450   1.093
14805TIP3    H144358   6.065   0.471   1.049
14805TIP3    H244359   6.134   0.476   1.184
14806TIP3   OH244360   6.915   4.888   4.003
14806TIP3    H144361   6.913   4.794   3.985
14806TIP3    H244362   6.891   4.896   4.095
14807TIP3   OH244363   5.875   7.438   4.986
14807TIP3    H144364   5.894   7.377   4.915
14807TIP3    H244365   5.847   7.383   5.059
14808TIP3   OH244366   6.783   3.641   0.359
14808TIP3    H144367   6.772   3.628   0.453
14808TIP3    H244368   6.697   3.672   0.329
14809TIP3   OH244369   6.120   6.576   4.688
14809TIP3    H144370   6.199   6.629   4.697
14809TIP3    H244371   6.113   6.529   4.771
14810TIP3   OH244372   4.657   4.051   1.061
14810TIP3    H144373   4.599   4.103   1.116
14810TIP3    H244374   4.624   4.063   0.972
14811TIP3   OH244375   5.810   3.479   2.354
14811TIP3    H144376   5.807   3.517   2.441
14811TIP3    H244377   5.721   3.488   2.320
14812TIP3   OH244378   1.221   3.135   0.949
14812TIP3    H144379   1.160   3.093   1.010
14812TIP3    H244380   1.239   3.221   0.988
14813TIP3   OH244381   6.053   2.131   2.480
14813TIP3    H144382   6.020   2.112   2.392
14813TIP3    H244383   6.081   2.223   2.476
14814TIP3   OH244384   6.392   6.974   4.754
14814TIP3    H144385   6.480   6.993   4.789
14814TIP3    H244386   6.333   7.002   4.824
14815TIP3   OH244387   4.699   0.254   1.099
14815TIP3    H144388   4.793   0.235   1.098
14815TIP3    H244389   4.692   0.342   1.064
   8.29157   7.81737   6.77004   0.00000   0.00000  -2.76386   0.00000  -2.76386  -3.90869
