Title t= 139.00000 step= 69500
19942
    1ASP      N    1   2.029   2.380   2.895
    1ASP    HT1    2   2.063   2.303   2.955
    1ASP    HT2    3   2.038   2.471   2.944
    1ASP    HT3    4   2.098   2.379   2.817
    1ASP     CA    5   1.887   2.364   2.833
    1ASP     HA    6   1.814   2.387   2.909
    1ASP     CB    7   1.867   2.445   2.703
    1ASP    HB1    8   1.891   2.392   2.609
    1ASP    HB2    9   1.928   2.538   2.711
    1ASP     CG   10   1.721   2.489   2.690
    1ASP    OD1   11   1.696   2.568   2.596
    1ASP    OD2   12   1.636   2.442   2.771
    1ASP      C   13   1.860   2.218   2.803
    1ASP      O   14   1.947   2.148   2.757
    2ALA      N   15   1.747   2.160   2.849
    2ALA     HN   16   1.672   2.209   2.893
    2ALA     CA   17   1.719   2.017   2.814
    2ALA     HA   18   1.765   1.993   2.719
    2ALA     CB   19   1.750   1.920   2.930
    2ALA    HB1   20   1.749   1.817   2.889
    2ALA    HB2   21   1.673   1.925   3.010
    2ALA    HB3   22   1.847   1.946   2.978
    2ALA      C   23   1.567   1.995   2.783
    2ALA      O   24   1.486   2.050   2.854
    3ASP      N   25   1.542   1.914   2.678
    3ASP     HN   26   1.621   1.885   2.624
    3ASP     CA   27   1.406   1.875   2.632
    3ASP     HA   28   1.358   1.970   2.613
    3ASP     CB   29   1.407   1.793   2.494
    3ASP    HB1   30   1.305   1.799   2.452
    3ASP    HB2   31   1.438   1.687   2.505
    3ASP     CG   32   1.511   1.858   2.404
    3ASP    OD1   33   1.628   1.821   2.403
    3ASP    OD2   34   1.470   1.957   2.340
    3ASP      C   35   1.326   1.798   2.732
    3ASP      O   36   1.379   1.716   2.801
    4GLY      N   37   1.199   1.843   2.758
    4GLY     HN   38   1.159   1.916   2.703
    4GLY     CA   39   1.108   1.790   2.855
    4GLY    HA1   40   1.013   1.834   2.829
    4GLY    HA2   41   1.145   1.825   2.950
    4GLY      C   42   1.085   1.647   2.847
    4GLY      O   43   1.094   1.588   2.738
    5PRO      N   44   1.059   1.572   2.957
    5PRO     CD   45   1.033   1.635   3.091
    5PRO    HD1   46   0.952   1.708   3.073
    5PRO    HD2   47   1.123   1.693   3.120
    5PRO     CA   48   1.062   1.426   2.958
    5PRO     HA   49   1.145   1.393   2.897
    5PRO     CB   50   1.076   1.399   3.107
    5PRO    HB1   51   1.184   1.397   3.132
    5PRO    HB2   52   1.026   1.308   3.145
    5PRO     CG   53   1.017   1.523   3.187
    5PRO    HG1   54   0.908   1.513   3.208
    5PRO    HG2   55   1.080   1.544   3.277
    5PRO      C   56   0.940   1.363   2.897
    5PRO      O   57   0.829   1.408   2.939
    6GLY      N   58   0.949   1.272   2.792
    6GLY     HN   59   1.035   1.231   2.763
    6GLY     CA   60   0.827   1.203   2.734
    6GLY    HA1   61   0.833   1.190   2.627
    6GLY    HA2   62   0.736   1.246   2.772
    6GLY      C   63   0.815   1.065   2.786
    6GLY      O   64   0.884   1.031   2.882
    7ASP      N   65   0.730   0.984   2.719
    7ASP     HN   66   0.687   1.021   2.637
    7ASP     CA   67   0.717   0.838   2.752
    7ASP     HA   68   0.673   0.834   2.850
    7ASP     CB   69   0.606   0.778   2.666
    7ASP    HB1   70   0.638   0.771   2.560
    7ASP    HB2   71   0.506   0.826   2.672
    7ASP     CG   72   0.567   0.637   2.703
    7ASP    OD1   73   0.491   0.573   2.630
    7ASP    OD2   74   0.610   0.582   2.813
    7ASP      C   75   0.849   0.759   2.743
    7ASP      O   76   0.908   0.774   2.636
    8PRO      N   77   0.906   0.681   2.836
    8PRO     CD   78   0.882   0.704   2.973
    8PRO    HD1   79   0.801   0.641   3.016
    8PRO    HD2   80   0.873   0.813   2.990
    8PRO     CA   81   1.020   0.595   2.814
    8PRO     HA   82   1.085   0.652   2.750
    8PRO     CB   83   1.071   0.551   2.954
    8PRO    HB1   84   1.182   0.546   2.964
    8PRO    HB2   85   1.035   0.448   2.978
    8PRO     CG   86   1.015   0.655   3.048
    8PRO    HG1   87   0.983   0.624   3.149
    8PRO    HG2   88   1.080   0.743   3.064
    8PRO      C   89   0.999   0.475   2.726
    8PRO      O   90   1.091   0.400   2.701
    9ASP      N   91   0.879   0.451   2.662
    9ASP     HN   92   0.794   0.495   2.691
    9ASP     CA   93   0.870   0.359   2.544
    9ASP     HA   94   0.924   0.270   2.575
    9ASP     CB   95   0.727   0.321   2.519
    9ASP    HB1   96   0.718   0.277   2.417
    9ASP    HB2   97   0.661   0.410   2.526
    9ASP     CG   98   0.678   0.215   2.616
    9ASP    OD1   99   0.553   0.192   2.626
    9ASP    OD2  100   0.756   0.151   2.686
    9ASP      C  101   0.924   0.434   2.421
    9ASP      O  102   0.961   0.381   2.318
   10ALA      N  103   0.923   0.569   2.425
   10ALA     HN  104   0.878   0.621   2.497
   10ALA     CA  105   0.988   0.641   2.314
   10ALA     HA  106   0.964   0.593   2.220
   10ALA     CB  107   0.944   0.786   2.298
   10ALA    HB1  108   0.969   0.821   2.195
   10ALA    HB2  109   0.985   0.859   2.372
   10ALA    HB3  110   0.833   0.789   2.299
   10ALA      C  111   1.136   0.645   2.326
   10ALA      O  112   1.203   0.621   2.430
   11GLY      N  113   1.204   0.672   2.218
   11GLY     HN  114   1.152   0.699   2.138
   11GLY     CA  115   1.349   0.673   2.210
   11GLY    HA1  116   1.380   0.579   2.252
   11GLY    HA2  117   1.375   0.760   2.269
   11GLY      C  118   1.390   0.689   2.065
   11GLY    OT1  119   1.358   0.608   1.981
   11GLY    OT2  120   1.476   0.779   2.044
   12LIT    LIT  121   4.407   4.741   3.877
   13LIT    LIT  122   1.104   1.890   2.226
   14LIT    LIT  123   6.097   4.844   1.497
   15LIT    LIT  124   0.381   1.862   3.250
   16LIT    LIT  125   3.987   5.734   3.467
   17LIT    LIT  126   2.864   5.508   4.216
   18LIT    LIT  127   0.425   5.489   2.971
   19LIT    LIT  128   0.375   0.236   2.637
   20LIT    LIT  129   4.025   2.546   3.902
   21LIT    LIT  130   1.991   5.298   2.432
   22LIT    LIT  131   5.327   2.980   0.443
   23LIT    LIT  132   2.414   2.571   2.108
   24LIT    LIT  133   4.538   3.057   2.581
   25LIT    LIT  134   0.596   4.990   0.422
   26LIT    LIT  135   2.404   0.457   3.780
   27LIT    LIT  136   0.611   1.279   3.498
   28LIT    LIT  137   1.862   1.551   4.389
   29LIT    LIT  138   1.777   4.287   1.306
   30LIT    LIT  139   2.181   2.847   2.826
   31LIT    LIT  140   0.841   3.842   4.950
   32LIT    LIT  141   0.274   0.047   1.511
   33LIT    LIT  142   3.381   0.544   1.378
   34CLA    CLA  143   3.137   2.419   2.750
   35CLA    CLA  144   0.644   2.528   4.786
   36CLA    CLA  145   5.058   3.571   1.425
   37CLA    CLA  146   0.617   5.327   2.254
   38CLA    CLA  147   4.452   5.579   1.328
   39CLA    CLA  148   4.472   4.122   3.615
   40CLA    CLA  149   0.469   2.246   2.818
   41CLA    CLA  150   4.425   0.856   4.476
   42CLA    CLA  151   4.579   3.218   1.207
   43CLA    CLA  152   1.097   3.231   1.100
   44CLA    CLA  153   5.371   2.013   4.043
   45CLA    CLA  154   5.883   4.952   0.136
   46CLA    CLA  155   5.338   5.524   4.980
   47CLA    CLA  156   2.270   0.462   3.592
   48CLA    CLA  157   2.558   4.323   4.163
   49CLA    CLA  158   2.004   2.695   4.501
   50CLA    CLA  159   3.703   4.532   4.927
   51CLA    CLA  160   2.389   5.669   0.909
   52TIP3   OH2  161   5.524   0.800   1.805
   52TIP3    H1  162   5.437   0.761   1.815
   52TIP3    H2  163   5.556   0.766   1.722
   53TIP3   OH2  164   5.722   3.767   4.700
   53TIP3    H1  165   5.647   3.724   4.740
   53TIP3    H2  166   5.778   3.696   4.671
   54TIP3   OH2  167   6.283   2.263   3.487
   54TIP3    H1  168   6.292   2.206   3.410
   54TIP3    H2  169   6.275   2.202   3.561
   55TIP3   OH2  170   5.048   2.236   3.163
   55TIP3    H1  171   5.014   2.208   3.078
   55TIP3    H2  172   5.126   2.287   3.141
   56TIP3   OH2  173   5.605   5.609   1.545
   56TIP3    H1  174   5.672   5.562   1.594
   56TIP3    H2  175   5.547   5.644   1.612
   57TIP3   OH2  176   1.555   1.984   0.698
   57TIP3    H1  177   1.597   1.971   0.784
   57TIP3    H2  178   1.543   1.895   0.664
   58TIP3   OH2  179   0.884   2.883   2.875
   58TIP3    H1  180   0.856   2.952   2.815
   58TIP3    H2  181   0.971   2.858   2.845
   59TIP3   OH2  182   2.387   1.764   3.992
   59TIP3    H1  183   2.325   1.798   3.928
   59TIP3    H2  184   2.413   1.840   4.044
   60TIP3   OH2  185   3.521   4.776   2.014
   60TIP3    H1  186   3.466   4.743   2.085
   60TIP3    H2  187   3.467   4.763   1.935
   61TIP3   OH2  188   5.126   0.686   1.420
   61TIP3    H1  189   5.070   0.736   1.361
   61TIP3    H2  190   5.174   0.626   1.363
   62TIP3   OH2  191   5.298   3.729   2.865
   62TIP3    H1  192   5.310   3.823   2.881
   62TIP3    H2  193   5.249   3.698   2.941
   63TIP3   OH2  194   5.333   1.873   1.075
   63TIP3    H1  195   5.265   1.934   1.102
   63TIP3    H2  196   5.339   1.883   0.980
   64TIP3   OH2  197   5.962   0.193   1.275
   64TIP3    H1  198   6.052   0.163   1.262
   64TIP3    H2  199   5.962   0.234   1.361
   65TIP3   OH2  200   4.697   2.784   2.756
   65TIP3    H1  201   4.726   2.849   2.691
   65TIP3    H2  202   4.732   2.701   2.724
   66TIP3   OH2  203   5.266   1.763   1.324
   66TIP3    H1  204   5.185   1.713   1.338
   66TIP3    H2  205   5.278   1.762   1.229
   67TIP3   OH2  206   4.749   3.852   4.934
   67TIP3    H1  207   4.759   3.947   4.920
   67TIP3    H2  208   4.679   3.827   4.874
   68TIP3   OH2  209   1.996   3.830  -0.004
   68TIP3    H1  210   2.023   3.803   0.084
   68TIP3    H2  211   1.933   3.764  -0.032
   69TIP3   OH2  212   2.826   4.682   1.013
   69TIP3    H1  213   2.879   4.614   1.055
   69TIP3    H2  214   2.877   4.709   0.937
   70TIP3   OH2  215   6.143   1.764   3.877
   70TIP3    H1  216   6.161   1.852   3.911
   70TIP3    H2  217   6.210   1.709   3.918
   71TIP3   OH2  218   4.209   1.873   5.067
   71TIP3    H1  219   4.225   1.789   5.109
   71TIP3    H2  220   4.278   1.881   5.001
   72TIP3   OH2  221   4.619   1.957   0.469
   72TIP3    H1  222   4.625   2.049   0.492
   72TIP3    H2  223   4.536   1.948   0.422
   73TIP3   OH2  224   5.468   5.245   1.423
   73TIP3    H1  225   5.414   5.227   1.500
   73TIP3    H2  226   5.426   5.321   1.382
   74TIP3   OH2  227   2.516   1.101   1.839
   74TIP3    H1  228   2.542   1.193   1.829
   74TIP3    H2  229   2.424   1.100   1.813
   75TIP3   OH2  230   0.707   1.200   3.072
   75TIP3    H1  231   0.628   1.199   3.017
   75TIP3    H2  232   0.763   1.266   3.031
   76TIP3   OH2  233   2.553   1.992   3.563
   76TIP3    H1  234   2.557   2.033   3.649
   76TIP3    H2  235   2.636   2.015   3.521
   77TIP3   OH2  236   1.544   3.085   1.224
   77TIP3    H1  237   1.527   3.172   1.262
   77TIP3    H2  238   1.459   3.042   1.224
   78TIP3   OH2  239   3.540   1.922   4.646
   78TIP3    H1  240   3.461   1.972   4.669
   78TIP3    H2  241   3.604   1.947   4.712
   79TIP3   OH2  242   3.148   5.246   0.598
   79TIP3    H1  243   3.156   5.243   0.693
   79TIP3    H2  244   3.234   5.278   0.568
   80TIP3   OH2  245   1.897   3.195   4.640
   80TIP3    H1  246   1.946   3.273   4.667
   80TIP3    H2  247   1.815   3.230   4.605
   81TIP3   OH2  248   4.056   4.528   4.417
   81TIP3    H1  249   4.146   4.537   4.387
   81TIP3    H2  250   4.036   4.612   4.458
   82TIP3   OH2  251   3.184   5.183   0.311
   82TIP3    H1  252   3.156   5.174   0.402
   82TIP3    H2  253   3.102   5.182   0.261
   83TIP3   OH2  254   5.558   1.774   4.964
   83TIP3    H1  255   5.638   1.723   4.948
   83TIP3    H2  256   5.573   1.858   4.920
   84TIP3   OH2  257   3.776   2.903   3.396
   84TIP3    H1  258   3.820   2.972   3.445
   84TIP3    H2  259   3.769   2.939   3.307
   85TIP3   OH2  260   2.293   4.725   1.744
   85TIP3    H1  261   2.224   4.792   1.737
   85TIP3    H2  262   2.343   4.733   1.663
   86TIP3   OH2  263   5.591   1.800   1.686
   86TIP3    H1  264   5.498   1.783   1.669
   86TIP3    H2  265   5.591   1.884   1.733
   87TIP3   OH2  266   0.365   3.726   3.642
   87TIP3    H1  267   0.384   3.649   3.589
   87TIP3    H2  268   0.290   3.766   3.599
   88TIP3   OH2  269   2.041   1.291   2.788
   88TIP3    H1  270   1.996   1.282   2.872
   88TIP3    H2  271   1.981   1.254   2.724
   89TIP3   OH2  272   2.887   0.086   0.517
   89TIP3    H1  273   2.965   0.033   0.501
   89TIP3    H2  274   2.840   0.084   0.434
   90TIP3   OH2  275   4.354   5.208   3.703
   90TIP3    H1  276   4.329   5.246   3.618
   90TIP3    H2  277   4.274   5.164   3.733
   91TIP3   OH2  278   0.548   2.693   0.828
   91TIP3    H1  279   0.628   2.640   0.823
   91TIP3    H2  280   0.538   2.711   0.922
   92TIP3   OH2  281   4.258   4.524   2.842
   92TIP3    H1  282   4.191   4.553   2.780
   92TIP3    H2  283   4.324   4.481   2.788
   93TIP3   OH2  284   5.092   3.096   1.979
   93TIP3    H1  285   5.185   3.112   1.996
   93TIP3    H2  286   5.060   3.176   1.937
   94TIP3   OH2  287   3.318   3.560   4.053
   94TIP3    H1  288   3.359   3.642   4.026
   94TIP3    H2  289   3.249   3.545   3.988
   95TIP3   OH2  290   4.517   0.776   3.212
   95TIP3    H1  291   4.528   0.727   3.131
   95TIP3    H2  292   4.424   0.796   3.216
   96TIP3   OH2  293   6.196   0.275   0.894
   96TIP3    H1  294   6.219   0.191   0.853
   96TIP3    H2  295   6.180   0.333   0.820
   97TIP3   OH2  296   4.353   4.798   4.642
   97TIP3    H1  297   4.429   4.851   4.619
   97TIP3    H2  298   4.289   4.817   4.574
   98TIP3   OH2  299   0.077   5.463   4.208
   98TIP3    H1  300   0.083   5.454   4.303
   98TIP3    H2  301   0.161   5.429   4.176
   99TIP3   OH2  302   5.012   3.840   0.577
   99TIP3    H1  303   5.102   3.808   0.586
   99TIP3    H2  304   4.989   3.870   0.665
  100TIP3   OH2  305   3.905   2.190   4.650
  100TIP3    H1  306   3.882   2.114   4.703
  100TIP3    H2  307   3.890   2.265   4.707
  101TIP3   OH2  308   3.246   0.898   1.207
  101TIP3    H1  309   3.169   0.875   1.155
  101TIP3    H2  310   3.263   0.990   1.186
  102TIP3   OH2  311   4.951   3.317   0.135
  102TIP3    H1  312   5.039   3.325   0.098
  102TIP3    H2  313   4.961   3.254   0.207
  103TIP3   OH2  314   3.344   4.799   3.026
  103TIP3    H1  315   3.332   4.885   3.066
  103TIP3    H2  316   3.418   4.809   2.967
  104TIP3   OH2  317   2.251   0.556   2.692
  104TIP3    H1  318   2.270   0.648   2.678
  104TIP3    H2  319   2.157   0.552   2.707
  105TIP3   OH2  320   0.323   5.243   1.130
  105TIP3    H1  321   0.307   5.190   1.208
  105TIP3    H2  322   0.248   5.303   1.127
  106TIP3   OH2  323   0.625   5.271   0.725
  106TIP3    H1  324   0.530   5.266   0.710
  106TIP3    H2  325   0.636   5.244   0.816
  107TIP3   OH2  326   3.385   4.430   4.359
  107TIP3    H1  327   3.389   4.526   4.363
  107TIP3    H2  328   3.306   4.411   4.308
  108TIP3   OH2  329   0.838   4.397   0.106
  108TIP3    H1  330   0.744   4.384   0.102
  108TIP3    H2  331   0.871   4.368   0.021
  109TIP3   OH2  332   2.253   3.610   3.308
  109TIP3    H1  333   2.275   3.703   3.305
  109TIP3    H2  334   2.210   3.598   3.393
  110TIP3   OH2  335   2.663   5.728   1.617
  110TIP3    H1  336   2.682   5.795   1.552
  110TIP3    H2  337   2.742   5.674   1.621
  111TIP3   OH2  338   4.689   3.946   3.902
  111TIP3    H1  339   4.663   4.029   3.943
  111TIP3    H2  340   4.606   3.904   3.879
  112TIP3   OH2  341   5.247   5.359   2.975
  112TIP3    H1  342   5.334   5.320   2.966
  112TIP3    H2  343   5.265   5.453   2.986
  113TIP3   OH2  344   4.708   0.952   4.577
  113TIP3    H1  345   4.754   0.885   4.527
  113TIP3    H2  346   4.619   0.953   4.540
  114TIP3   OH2  347   4.395   5.924   2.010
  114TIP3    H1  348   4.316   5.963   1.972
  114TIP3    H2  349   4.467   5.973   1.970
  115TIP3   OH2  350   1.454   5.994   5.188
  115TIP3    H1  351   1.407   6.007   5.106
  115TIP3    H2  352   1.414   5.915   5.226
  116TIP3   OH2  353   4.368   4.395   2.646
  116TIP3    H1  354   4.362   4.374   2.553
  116TIP3    H2  355   4.319   4.326   2.690
  117TIP3   OH2  356   2.421   4.065   1.136
  117TIP3    H1  357   2.437   4.135   1.199
  117TIP3    H2  358   2.342   4.021   1.168
  118TIP3   OH2  359   3.533   4.158   2.557
  118TIP3    H1  360   3.502   4.079   2.514
  118TIP3    H2  361   3.510   4.229   2.497
  119TIP3   OH2  362   5.714   2.379   2.220
  119TIP3    H1  363   5.744   2.465   2.190
  119TIP3    H2  364   5.691   2.332   2.140
  120TIP3   OH2  365   3.417   5.535   3.835
  120TIP3    H1  366   3.460   5.615   3.866
  120TIP3    H2  367   3.324   5.557   3.834
  121TIP3   OH2  368   3.752   5.782   0.589
  121TIP3    H1  369   3.675   5.820   0.632
  121TIP3    H2  370   3.744   5.688   0.604
  122TIP3   OH2  371   0.531   3.093   1.823
  122TIP3    H1  372   0.591   3.021   1.842
  122TIP3    H2  373   0.446   3.062   1.854
  123TIP3   OH2  374   4.598   0.981   4.254
  123TIP3    H1  375   4.523   0.941   4.297
  123TIP3    H2  376   4.667   0.914   4.259
  124TIP3   OH2  377   3.566   5.253   2.987
  124TIP3    H1  378   3.550   5.316   3.057
  124TIP3    H2  379   3.645   5.285   2.943
  125TIP3   OH2  380   1.448   1.050   1.649
  125TIP3    H1  381   1.388   1.013   1.713
  125TIP3    H2  382   1.534   1.049   1.692
  126TIP3   OH2  383   3.217   2.917   2.078
  126TIP3    H1  384   3.235   2.833   2.036
  126TIP3    H2  385   3.225   2.899   2.172
  127TIP3   OH2  386   1.659   4.019   3.820
  127TIP3    H1  387   1.654   4.114   3.820
  127TIP3    H2  388   1.609   3.992   3.897
  128TIP3   OH2  389   5.157   1.531   0.621
  128TIP3    H1  390   5.121   1.575   0.544
  128TIP3    H2  391   5.088   1.470   0.649
  129TIP3   OH2  392   5.710   3.339   2.399
  129TIP3    H1  393   5.765   3.311   2.473
  129TIP3    H2  394   5.627   3.363   2.439
  130TIP3   OH2  395   5.334   2.701   1.592
  130TIP3    H1  396   5.297   2.767   1.651
  130TIP3    H2  397   5.293   2.619   1.619
  131TIP3   OH2  398   3.619   2.369   0.716
  131TIP3    H1  399   3.700   2.343   0.760
  131TIP3    H2  400   3.598   2.296   0.659
  132TIP3   OH2  401   4.689   1.303   0.169
  132TIP3    H1  402   4.781   1.288   0.190
  132TIP3    H2  403   4.645   1.305   0.254
  133TIP3   OH2  404   3.402   2.744   0.965
  133TIP3    H1  405   3.410   2.680   0.894
  133TIP3    H2  406   3.430   2.826   0.927
  134TIP3   OH2  407   4.964   1.104   2.927
  134TIP3    H1  408   4.964   1.075   3.018
  134TIP3    H2  409   4.984   1.025   2.877
  135TIP3   OH2  410   2.949   2.325   2.512
  135TIP3    H1  411   3.023   2.363   2.559
  135TIP3    H2  412   2.968   2.232   2.508
  136TIP3   OH2  413   2.507   0.474   0.348
  136TIP3    H1  414   2.483   0.499   0.259
  136TIP3    H2  415   2.458   0.535   0.404
  137TIP3   OH2  416   2.202   3.022   3.775
  137TIP3    H1  417   2.131   3.076   3.809
  137TIP3    H2  418   2.165   2.934   3.773
  138TIP3   OH2  419   5.127   1.752   4.851
  138TIP3    H1  420   5.209   1.716   4.884
  138TIP3    H2  421   5.154   1.819   4.788
  139TIP3   OH2  422   3.307   4.195   0.565
  139TIP3    H1  423   3.402   4.204   0.554
  139TIP3    H2  424   3.295   4.104   0.593
  140TIP3   OH2  425   0.248   1.361   2.549
  140TIP3    H1  426   0.260   1.298   2.477
  140TIP3    H2  427   0.290   1.441   2.518
  141TIP3   OH2  428   2.974   4.501   0.470
  141TIP3    H1  429   2.983   4.502   0.565
  141TIP3    H2  430   2.902   4.439   0.454
  142TIP3   OH2  431   3.056   2.399   3.424
  142TIP3    H1  432   3.095   2.313   3.439
  142TIP3    H2  433   3.101   2.432   3.346
  143TIP3   OH2  434   5.523   0.763   2.210
  143TIP3    H1  435   5.487   0.727   2.129
  143TIP3    H2  436   5.479   0.848   2.221
  144TIP3   OH2  437   4.310   4.146   1.699
  144TIP3    H1  438   4.297   4.071   1.642
  144TIP3    H2  439   4.342   4.215   1.642
  145TIP3   OH2  440   6.146   4.298   2.501
  145TIP3    H1  441   6.085   4.228   2.523
  145TIP3    H2  442   6.231   4.265   2.530
  146TIP3   OH2  443   3.843   4.977   2.120
  146TIP3    H1  444   3.813   4.894   2.083
  146TIP3    H2  445   3.898   4.952   2.194
  147TIP3   OH2  446   4.845   3.512   2.074
  147TIP3    H1  447   4.805   3.530   2.159
  147TIP3    H2  448   4.891   3.429   2.087
  148TIP3   OH2  449   1.096   1.358   1.608
  148TIP3    H1  450   1.162   1.401   1.662
  148TIP3    H2  451   1.020   1.415   1.613
  149TIP3   OH2  452   6.089   4.797   3.509
  149TIP3    H1  453   6.059   4.885   3.532
  149TIP3    H2  454   6.019   4.738   3.538
  150TIP3   OH2  455   5.418   0.799   4.605
  150TIP3    H1  456   5.326   0.788   4.581
  150TIP3    H2  457   5.417   0.816   4.699
  151TIP3   OH2  458   4.242   2.134   3.106
  151TIP3    H1  459   4.229   2.071   3.176
  151TIP3    H2  460   4.240   2.219   3.149
  152TIP3   OH2  461   2.250   4.554   3.690
  152TIP3    H1  462   2.211   4.512   3.613
  152TIP3    H2  463   2.316   4.613   3.654
  153TIP3   OH2  464   0.678   5.221   3.777
  153TIP3    H1  465   0.755   5.276   3.786
  153TIP3    H2  466   0.604   5.282   3.779
  154TIP3   OH2  467   5.934   4.045   3.708
  154TIP3    H1  468   5.887   3.984   3.766
  154TIP3    H2  469   6.023   4.010   3.703
  155TIP3   OH2  470   5.338   1.118   0.102
  155TIP3    H1  471   5.310   1.186   0.164
  155TIP3    H2  472   5.430   1.137   0.086
  156TIP3   OH2  473   3.690   1.593   3.660
  156TIP3    H1  474   3.634   1.601   3.582
  156TIP3    H2  475   3.696   1.499   3.676
  157TIP3   OH2  476   4.117   5.005   5.115
  157TIP3    H1  477   4.119   4.982   5.207
  157TIP3    H2  478   4.068   4.934   5.073
  158TIP3   OH2  479   0.356   4.677   3.565
  158TIP3    H1  480   0.318   4.746   3.511
  158TIP3    H2  481   0.450   4.688   3.555
  159TIP3   OH2  482   1.321   3.068   0.437
  159TIP3    H1  483   1.411   3.099   0.430
  159TIP3    H2  484   1.327   2.987   0.487
  160TIP3   OH2  485   4.101   0.759   2.908
  160TIP3    H1  486   4.148   0.698   2.851
  160TIP3    H2  487   4.149   0.757   2.990
  161TIP3   OH2  488   1.185   5.673   4.322
  161TIP3    H1  489   1.277   5.701   4.321
  161TIP3    H2  490   1.173   5.637   4.410
  162TIP3   OH2  491   3.243   0.579   1.012
  162TIP3    H1  492   3.159   0.537   1.030
  162TIP3    H2  493   3.307   0.508   1.013
  163TIP3   OH2  494   0.096   0.078   4.142
  163TIP3    H1  495   0.102   0.173   4.150
  163TIP3    H2  496   0.032   0.052   4.209
  164TIP3   OH2  497   0.387   0.935   2.916
  164TIP3    H1  498   0.434   0.967   2.839
  164TIP3    H2  499   0.454   0.930   2.984
  165TIP3   OH2  500   4.961   1.621   2.914
  165TIP3    H1  501   4.940   1.586   2.827
  165TIP3    H2  502   4.952   1.546   2.973
  166TIP3   OH2  503   5.476   4.408  -0.048
  166TIP3    H1  504   5.521   4.484  -0.010
  166TIP3    H2  505   5.415   4.380   0.020
  167TIP3   OH2  506   5.557   0.060   0.209
  167TIP3    H1  507   5.484   0.041   0.149
  167TIP3    H2  508   5.589  -0.026   0.237
  168TIP3   OH2  509   3.729   4.170   4.274
  168TIP3    H1  510   3.812   4.217   4.280
  168TIP3    H2  511   3.663   4.235   4.300
  169TIP3   OH2  512   5.960   3.762   0.221
  169TIP3    H1  513   5.993   3.820   0.152
  169TIP3    H2  514   5.887   3.810   0.260
  170TIP3   OH2  515   2.342   1.045   0.354
  170TIP3    H1  516   2.393   1.122   0.379
  170TIP3    H2  517   2.391   0.971   0.390
  171TIP3   OH2  518   0.150   2.546   4.474
  171TIP3    H1  519   0.179   2.474   4.418
  171TIP3    H2  520   0.197   2.622   4.442
  172TIP3   OH2  521   2.749   1.172   1.206
  172TIP3    H1  522   2.719   1.255   1.243
  172TIP3    H2  523   2.677   1.144   1.149
  173TIP3   OH2  524   4.583   1.703   0.278
  173TIP3    H1  525   4.674   1.733   0.283
  173TIP3    H2  526   4.560   1.708   0.185
  174TIP3   OH2  527   5.234   0.266   4.539
  174TIP3    H1  528   5.194   0.318   4.609
  174TIP3    H2  529   5.314   0.314   4.517
  175TIP3   OH2  530   3.200   0.870   2.832
  175TIP3    H1  531   3.257   0.807   2.877
  175TIP3    H2  532   3.181   0.936   2.898
  176TIP3   OH2  533   2.254   0.687   1.401
  176TIP3    H1  534   2.284   0.607   1.357
  176TIP3    H2  535   2.312   0.756   1.369
  177TIP3   OH2  536   2.795   3.780   3.220
  177TIP3    H1  537   2.839   3.721   3.160
  177TIP3    H2  538   2.850   3.780   3.299
  178TIP3   OH2  539   2.220   4.603   1.992
  178TIP3    H1  540   2.248   4.624   1.903
  178TIP3    H2  541   2.278   4.531   2.019
  179TIP3   OH2  542   4.644   1.710   0.558
  179TIP3    H1  543   4.596   1.675   0.483
  179TIP3    H2  544   4.650   1.804   0.541
  180TIP3   OH2  545   0.838   1.208   4.869
  180TIP3    H1  546   0.802   1.126   4.903
  180TIP3    H2  547   0.887   1.181   4.791
  181TIP3   OH2  548   6.082   4.403   2.726
  181TIP3    H1  549   6.045   4.346   2.792
  181TIP3    H2  550   6.083   4.350   2.646
  182TIP3   OH2  551   5.201   4.391   0.939
  182TIP3    H1  552   5.124   4.347   0.902
  182TIP3    H2  553   5.178   4.407   1.030
  183TIP3   OH2  554   5.347   0.111   1.701
  183TIP3    H1  555   5.343   0.184   1.762
  183TIP3    H2  556   5.407   0.139   1.632
  184TIP3   OH2  557   2.145   1.339   3.232
  184TIP3    H1  558   2.236   1.368   3.228
  184TIP3    H2  559   2.149   1.244   3.230
  185TIP3   OH2  560   2.129   1.034   3.245
  185TIP3    H1  561   2.040   1.013   3.218
  185TIP3    H2  562   2.178   1.044   3.164
  186TIP3   OH2  563   5.897   1.136   0.445
  186TIP3    H1  564   5.869   1.138   0.354
  186TIP3    H2  565   5.894   1.228   0.473
  187TIP3   OH2  566   2.977   5.426   1.351
  187TIP3    H1  567   3.056   5.384   1.387
  187TIP3    H2  568   2.968   5.507   1.401
  188TIP3   OH2  569   0.800   0.872   5.089
  188TIP3    H1  570   0.886   0.909   5.071
  188TIP3    H2  571   0.738   0.937   5.058
  189TIP3   OH2  572   0.170   5.136   0.281
  189TIP3    H1  573   0.125   5.054   0.261
  189TIP3    H2  574   0.151   5.192   0.206
  190TIP3   OH2  575   3.932   1.734   2.292
  190TIP3    H1  576   3.887   1.659   2.252
  190TIP3    H2  577   3.930   1.716   2.386
  191TIP3   OH2  578   0.356   4.540   4.800
  191TIP3    H1  579   0.437   4.502   4.834
  191TIP3    H2  580   0.369   4.544   4.705
  192TIP3   OH2  581   5.071   3.082   1.558
  192TIP3    H1  582   5.063   3.057   1.650
  192TIP3    H2  583   5.030   3.168   1.553
  193TIP3   OH2  584   4.873   5.088   3.297
  193TIP3    H1  585   4.947   5.042   3.258
  193TIP3    H2  586   4.905   5.177   3.310
  194TIP3   OH2  587   2.308   3.058   3.219
  194TIP3    H1  588   2.318   3.085   3.128
  194TIP3    H2  589   2.249   3.123   3.257
  195TIP3   OH2  590   2.066   5.527   1.683
  195TIP3    H1  591   2.099   5.593   1.622
  195TIP3    H2  592   2.045   5.452   1.627
  196TIP3   OH2  593   1.382   2.106   1.708
  196TIP3    H1  594   1.464   2.155   1.707
  196TIP3    H2  595   1.321   2.162   1.660
  197TIP3   OH2  596   6.255   2.267   0.925
  197TIP3    H1  597   6.235   2.352   0.963
  197TIP3    H2  598   6.350   2.265   0.919
  198TIP3   OH2  599   2.464   2.323   3.738
  198TIP3    H1  600   2.521   2.246   3.735
  198TIP3    H2  601   2.399   2.301   3.805
  199TIP3   OH2  602   5.040   4.090   3.831
  199TIP3    H1  603   4.947   4.108   3.847
  199TIP3    H2  604   5.079   4.088   3.919
  200TIP3   OH2  605   3.360   5.948   2.594
  200TIP3    H1  606   3.293   5.892   2.635
  200TIP3    H2  607   3.443   5.917   2.631
  201TIP3   OH2  608   3.385   1.800   0.105
  201TIP3    H1  609   3.321   1.756   0.049
  201TIP3    H2  610   3.463   1.745   0.101
  202TIP3   OH2  611   1.555   3.907   2.702
  202TIP3    H1  612   1.462   3.915   2.723
  202TIP3    H2  613   1.558   3.843   2.631
  203TIP3   OH2  614   0.258   4.411   4.497
  203TIP3    H1  615   0.197   4.368   4.556
  203TIP3    H2  616   0.206   4.479   4.454
  204TIP3   OH2  617   2.942   2.931   1.066
  204TIP3    H1  618   2.988   3.010   1.039
  204TIP3    H2  619   2.970   2.917   1.157
  205TIP3   OH2  620   2.301   0.667   0.988
  205TIP3    H1  621   2.251   0.586   0.992
  205TIP3    H2  622   2.238   0.736   1.008
  206TIP3   OH2  623   2.909   2.633   3.747
  206TIP3    H1  624   2.971   2.698   3.780
  206TIP3    H2  625   2.833   2.641   3.806
  207TIP3   OH2  626   5.502   4.139   3.203
  207TIP3    H1  627   5.483   4.091   3.284
  207TIP3    H2  628   5.548   4.076   3.148
  208TIP3   OH2  629   5.858   0.863   1.683
  208TIP3    H1  630   5.827   0.882   1.772
  208TIP3    H2  631   5.890   0.947   1.650
  209TIP3   OH2  632   0.458   3.290   1.128
  209TIP3    H1  633   0.534   3.348   1.132
  209TIP3    H2  634   0.476   3.222   1.193
  210TIP3   OH2  635   1.412   1.547   2.123
  210TIP3    H1  636   1.403   1.489   2.199
  210TIP3    H2  637   1.464   1.496   2.060
  211TIP3   OH2  638   3.380   1.255   4.881
  211TIP3    H1  639   3.359   1.324   4.944
  211TIP3    H2  640   3.466   1.223   4.908
  212TIP3   OH2  641   1.496   0.648   1.086
  212TIP3    H1  642   1.454   0.604   1.159
  212TIP3    H2  643   1.514   0.737   1.119
  213TIP3   OH2  644   2.544   2.203   4.796
  213TIP3    H1  645   2.507   2.149   4.726
  213TIP3    H2  646   2.512   2.291   4.777
  214TIP3   OH2  647   4.548   4.213   3.882
  214TIP3    H1  648   4.526   4.186   3.793
  214TIP3    H2  649   4.591   4.298   3.871
  215TIP3   OH2  650   0.720   3.472   0.537
  215TIP3    H1  651   0.711   3.404   0.604
  215TIP3    H2  652   0.803   3.453   0.494
  216TIP3   OH2  653   0.715   4.288   2.202
  216TIP3    H1  654   0.806   4.317   2.208
  216TIP3    H2  655   0.670   4.337   2.271
  217TIP3   OH2  656   4.677   1.834   1.321
  217TIP3    H1  657   4.601   1.794   1.363
  217TIP3    H2  658   4.748   1.771   1.336
  218TIP3   OH2  659   4.302   3.699   3.689
  218TIP3    H1  660   4.252   3.724   3.612
  218TIP3    H2  661   4.393   3.701   3.661
  219TIP3   OH2  662   0.293   1.316   3.868
  219TIP3    H1  663   0.292   1.241   3.810
  219TIP3    H2  664   0.274   1.280   3.955
  220TIP3   OH2  665   0.144   0.463   3.029
  220TIP3    H1  666   0.227   0.506   3.009
  220TIP3    H2  667   0.156   0.373   3.001
  221TIP3   OH2  668   3.786   0.484   3.794
  221TIP3    H1  669   3.707   0.489   3.741
  221TIP3    H2  670   3.858   0.498   3.732
  222TIP3   OH2  671   4.168   4.611   0.061
  222TIP3    H1  672   4.256   4.574   0.070
  222TIP3    H2  673   4.183   4.705   0.049
  223TIP3   OH2  674   3.847   3.389   1.813
  223TIP3    H1  675   3.885   3.356   1.732
  223TIP3    H2  676   3.753   3.390   1.796
  224TIP3   OH2  677   2.801   3.048   2.614
  224TIP3    H1  678   2.892   3.057   2.584
  224TIP3    H2  679   2.769   3.138   2.619
  225TIP3   OH2  680   1.293   4.769   2.574
  225TIP3    H1  681   1.282   4.695   2.634
  225TIP3    H2  682   1.224   4.830   2.598
  226TIP3   OH2  683   4.419   2.323   3.207
  226TIP3    H1  684   4.480   2.258   3.242
  226TIP3    H2  685   4.432   2.400   3.263
  227TIP3   OH2  686   5.337   3.629   3.378
  227TIP3    H1  687   5.261   3.581   3.346
  227TIP3    H2  688   5.412   3.574   3.355
  228TIP3   OH2  689   4.664   3.025   4.042
  228TIP3    H1  690   4.757   3.046   4.032
  228TIP3    H2  691   4.618   3.101   4.007
  229TIP3   OH2  692   1.850   1.210   1.104
  229TIP3    H1  693   1.770   1.202   1.155
  229TIP3    H2  694   1.824   1.257   1.025
  230TIP3   OH2  695   5.588   5.121   0.204
  230TIP3    H1  696   5.660   5.148   0.146
  230TIP3    H2  697   5.619   5.041   0.245
  231TIP3   OH2  698   4.145   4.581   1.576
  231TIP3    H1  699   4.147   4.589   1.672
  231TIP3    H2  700   4.105   4.495   1.561
  232TIP3   OH2  701   3.282   5.373   3.602
  232TIP3    H1  702   3.199   5.404   3.638
  232TIP3    H2  703   3.320   5.450   3.560
  233TIP3   OH2  704   5.112   3.348   3.540
  233TIP3    H1  705   5.200   3.311   3.536
  233TIP3    H2  706   5.124   3.435   3.579
  234TIP3   OH2  707   5.035   0.686   3.187
  234TIP3    H1  708   4.961   0.743   3.206
  234TIP3    H2  709   5.102   0.744   3.152
  235TIP3   OH2  710   4.198   0.070   3.444
  235TIP3    H1  711   4.292   0.055   3.453
  235TIP3    H2  712   4.166   0.073   3.534
  236TIP3   OH2  713   3.262   4.602   3.905
  236TIP3    H1  714   3.187   4.550   3.933
  236TIP3    H2  715   3.230   4.654   3.832
  237TIP3   OH2  716   4.479   2.955   4.364
  237TIP3    H1  717   4.526   2.932   4.444
  237TIP3    H2  718   4.396   2.993   4.394
  238TIP3   OH2  719   3.857   4.048   1.541
  238TIP3    H1  720   3.932   4.018   1.489
  238TIP3    H2  721   3.803   3.970   1.554
  239TIP3   OH2  722   1.075   2.504   0.103
  239TIP3    H1  723   1.090   2.415   0.072
  239TIP3    H2  724   0.985   2.524   0.076
  240TIP3   OH2  725   2.599   0.873   1.968
  240TIP3    H1  726   2.636   0.839   1.886
  240TIP3    H2  727   2.584   0.966   1.950
  241TIP3   OH2  728   1.708   0.559   2.711
  241TIP3    H1  729   1.692   0.622   2.780
  241TIP3    H2  730   1.633   0.568   2.652
  242TIP3   OH2  731   0.315   1.767   0.029
  242TIP3    H1  732   0.392   1.711   0.034
  242TIP3    H2  733   0.275   1.761   0.115
  243TIP3   OH2  734   3.968   4.099   3.777
  243TIP3    H1  735   3.955   4.173   3.836
  243TIP3    H2  736   4.062   4.079   3.785
  244TIP3   OH2  737   2.660   0.420   3.485
  244TIP3    H1  738   2.662   0.362   3.408
  244TIP3    H2  739   2.619   0.500   3.454
  245TIP3   OH2  740   5.247   5.276   5.172
  245TIP3    H1  741   5.282   5.196   5.132
  245TIP3    H2  742   5.277   5.347   5.116
  246TIP3   OH2  743   2.540   0.387   4.857
  246TIP3    H1  744   2.585   0.458   4.811
  246TIP3    H2  745   2.504   0.429   4.936
  247TIP3   OH2  746   1.823   1.944   1.428
  247TIP3    H1  747   1.756   1.897   1.379
  247TIP3    H2  748   1.901   1.890   1.422
  248TIP3   OH2  749   1.876   4.236   3.887
  248TIP3    H1  750   1.890   4.216   3.794
  248TIP3    H2  751   1.964   4.246   3.923
  249TIP3   OH2  752   1.555   4.191   0.303
  249TIP3    H1  753   1.460   4.199   0.300
  249TIP3    H2  754   1.584   4.219   0.216
  250TIP3   OH2  755   2.311   4.767   3.866
  250TIP3    H1  756   2.295   4.683   3.822
  250TIP3    H2  757   2.404   4.766   3.886
  251TIP3   OH2  758   0.202   2.078   4.333
  251TIP3    H1  759   0.297   2.091   4.325
  251TIP3    H2  760   0.191   2.028   4.414
  252TIP3   OH2  761   0.082   1.604   3.671
  252TIP3    H1  762  -0.001   1.573   3.637
  252TIP3    H2  763   0.097   1.687   3.626
  253TIP3   OH2  764   5.014   2.467   1.843
  253TIP3    H1  765   4.954   2.523   1.892
  253TIP3    H2  766   5.077   2.436   1.907
  254TIP3   OH2  767   1.420   3.986   2.046
  254TIP3    H1  768   1.453   3.987   2.136
  254TIP3    H2  769   1.494   3.955   1.994
  255TIP3   OH2  770   2.758   1.479   3.078
  255TIP3    H1  771   2.730   1.563   3.044
  255TIP3    H2  772   2.733   1.480   3.170
  256TIP3   OH2  773   5.548   5.128   4.339
  256TIP3    H1  774   5.572   5.054   4.394
  256TIP3    H2  775   5.544   5.092   4.251
  257TIP3   OH2  776   0.927   3.149   2.770
  257TIP3    H1  777   0.993   3.111   2.827
  257TIP3    H2  778   0.851   3.164   2.827
  258TIP3   OH2  779   3.478   5.136   3.599
  258TIP3    H1  780   3.421   5.162   3.672
  258TIP3    H2  781   3.461   5.201   3.531
  259TIP3   OH2  782   0.930   3.901   3.316
  259TIP3    H1  783   1.011   3.945   3.289
  259TIP3    H2  784   0.898   3.859   3.236
  260TIP3   OH2  785   5.955   0.656   0.478
  260TIP3    H1  786   5.953   0.613   0.393
  260TIP3    H2  787   6.044   0.690   0.486
  261TIP3   OH2  788   3.800   3.873   3.938
  261TIP3    H1  789   3.734   3.804   3.931
  261TIP3    H2  790   3.869   3.836   3.993
  262TIP3   OH2  791   3.777   5.753   1.868
  262TIP3    H1  792   3.842   5.823   1.870
  262TIP3    H2  793   3.827   5.674   1.849
  263TIP3   OH2  794   2.623   0.050   4.896
  263TIP3    H1  795   2.645   0.063   4.804
  263TIP3    H2  796   2.647  -0.041   4.914
  264TIP3   OH2  797   3.096   3.484   0.588
  264TIP3    H1  798   3.068   3.474   0.679
  264TIP3    H2  799   3.171   3.543   0.592
  265TIP3   OH2  800   3.782   2.470   0.488
  265TIP3    H1  801   3.713   2.465   0.422
  265TIP3    H2  802   3.736   2.467   0.572
  266TIP3   OH2  803   3.998   4.242   2.443
  266TIP3    H1  804   3.920   4.254   2.497
  266TIP3    H2  805   3.970   4.264   2.354
  267TIP3   OH2  806   5.726   0.572   2.175
  267TIP3    H1  807   5.663   0.644   2.180
  267TIP3    H2  808   5.692   0.516   2.105
  268TIP3   OH2  809   4.746   0.549   3.936
  268TIP3    H1  810   4.797   0.559   3.856
  268TIP3    H2  811   4.663   0.511   3.907
  269TIP3   OH2  812   1.667   3.152  -0.010
  269TIP3    H1  813   1.623   3.230   0.024
  269TIP3    H2  814   1.758   3.161   0.019
  270TIP3   OH2  815   2.198   4.403   3.445
  270TIP3    H1  816   2.129   4.467   3.426
  270TIP3    H2  817   2.194   4.341   3.372
  271TIP3   OH2  818   6.050   2.593   4.902
  271TIP3    H1  819   6.015   2.668   4.952
  271TIP3    H2  820   6.142   2.588   4.929
  272TIP3   OH2  821   5.944   1.112   4.873
  272TIP3    H1  822   5.864   1.096   4.923
  272TIP3    H2  823   5.920   1.181   4.811
  273TIP3   OH2  824   1.871   0.703   3.849
  273TIP3    H1  825   1.890   0.626   3.902
  273TIP3    H2  826   1.940   0.704   3.782
  274TIP3   OH2  827   6.105   0.629   1.587
  274TIP3    H1  828   6.018   0.667   1.602
  274TIP3    H2  829   6.154   0.698   1.544
  275TIP3   OH2  830   4.299   3.001   3.067
  275TIP3    H1  831   4.369   2.950   3.027
  275TIP3    H2  832   4.220   2.949   3.055
  276TIP3   OH2  833   1.006   0.172   4.155
  276TIP3    H1  834   1.036   0.126   4.233
  276TIP3    H2  835   0.984   0.102   4.093
  277TIP3   OH2  836   1.565   0.215   3.141
  277TIP3    H1  837   1.566   0.202   3.046
  277TIP3    H2  838   1.502   0.286   3.154
  278TIP3   OH2  839   2.247   1.429   3.684
  278TIP3    H1  840   2.281   1.424   3.773
  278TIP3    H2  841   2.272   1.517   3.654
  279TIP3   OH2  842   3.607   2.136   2.874
  279TIP3    H1  843   3.516   2.131   2.844
  279TIP3    H2  844   3.612   2.071   2.945
  280TIP3   OH2  845   6.266   1.725   1.563
  280TIP3    H1  846   6.186   1.769   1.536
  280TIP3    H2  847   6.332   1.755   1.501
  281TIP3   OH2  848   2.854   4.876   1.942
  281TIP3    H1  849   2.851   4.964   1.904
  281TIP3    H2  850   2.946   4.852   1.937
  282TIP3   OH2  851   0.631   3.556   1.803
  282TIP3    H1  852   0.616   3.543   1.709
  282TIP3    H2  853   0.602   3.646   1.819
  283TIP3   OH2  854   5.364   3.997   1.474
  283TIP3    H1  855   5.418   4.012   1.397
  283TIP3    H2  856   5.404   4.052   1.542
  284TIP3   OH2  857   1.561   4.626   2.126
  284TIP3    H1  858   1.470   4.656   2.128
  284TIP3    H2  859   1.602   4.678   2.056
  285TIP3   OH2  860   6.033   2.172   2.234
  285TIP3    H1  861   6.066   2.238   2.173
  285TIP3    H2  862   6.089   2.182   2.311
  286TIP3   OH2  863   0.494   5.464   0.417
  286TIP3    H1  864   0.454   5.540   0.460
  286TIP3    H2  865   0.448   5.389   0.454
  287TIP3   OH2  866   3.002   0.585   0.839
  287TIP3    H1  867   3.080   0.640   0.831
  287TIP3    H2  868   2.929   0.645   0.831
  288TIP3   OH2  869   0.052   0.230   4.876
  288TIP3    H1  870  -0.042   0.248   4.871
  288TIP3    H2  871   0.072   0.234   4.970
  289TIP3   OH2  872   1.593   0.989   2.882
  289TIP3    H1  873   1.614   1.003   2.790
  289TIP3    H2  874   1.646   1.053   2.929
  290TIP3   OH2  875   0.713   1.777   2.044
  290TIP3    H1  876   0.670   1.724   1.977
  290TIP3    H2  877   0.764   1.842   1.995
  291TIP3   OH2  878   1.174   3.395   1.372
  291TIP3    H1  879   1.200   3.475   1.325
  291TIP3    H2  880   1.144   3.336   1.303
  292TIP3   OH2  881   0.587   1.416   0.979
  292TIP3    H1  882   0.585   1.511   0.989
  292TIP3    H2  883   0.678   1.392   0.997
  293TIP3   OH2  884   4.821   4.368   4.593
  293TIP3    H1  885   4.746   4.317   4.562
  293TIP3    H2  886   4.789   4.411   4.672
  294TIP3   OH2  887   5.894   1.523   3.338
  294TIP3    H1  888   5.802   1.512   3.363
  294TIP3    H2  889   5.935   1.439   3.362
  295TIP3   OH2  890   1.892   1.346   1.837
  295TIP3    H1  891   1.816   1.362   1.780
  295TIP3    H2  892   1.855   1.315   1.919
  296TIP3   OH2  893   0.446   2.092   4.121
  296TIP3    H1  894   0.385   2.084   4.048
  296TIP3    H2  895   0.449   2.186   4.140
  297TIP3   OH2  896   2.191   3.868   3.377
  297TIP3    H1  897   2.151   3.946   3.413
  297TIP3    H2  898   2.155   3.860   3.289
  298TIP3   OH2  899   2.584   3.212   1.341
  298TIP3    H1  900   2.593   3.302   1.372
  298TIP3    H2  901   2.577   3.221   1.246
  299TIP3   OH2  902   1.731   2.556   2.270
  299TIP3    H1  903   1.657   2.536   2.327
  299TIP3    H2  904   1.716   2.646   2.242
  300TIP3   OH2  905   2.581   4.841   3.997
  300TIP3    H1  906   2.607   4.808   4.083
  300TIP3    H2  907   2.521   4.914   4.016
  301TIP3   OH2  908   0.693   4.493   3.776
  301TIP3    H1  909   0.713   4.450   3.692
  301TIP3    H2  910   0.600   4.474   3.791
  302TIP3   OH2  911   5.210   4.325   0.266
  302TIP3    H1  912   5.239   4.397   0.321
  302TIP3    H2  913   5.139   4.284   0.316
  303TIP3   OH2  914   2.798   0.700   3.724
  303TIP3    H1  915   2.815   0.753   3.802
  303TIP3    H2  916   2.849   0.621   3.736
  304TIP3   OH2  917  -0.022   2.245   4.030
  304TIP3    H1  918  -0.063   2.233   4.116
  304TIP3    H2  919   0.003   2.337   4.028
  305TIP3   OH2  920   6.099   5.565   2.375
  305TIP3    H1  921   6.181   5.527   2.344
  305TIP3    H2  922   6.110   5.660   2.365
  306TIP3   OH2  923   2.254   1.640   2.235
  306TIP3    H1  924   2.185   1.683   2.286
  306TIP3    H2  925   2.265   1.555   2.278
  307TIP3   OH2  926   1.949   2.639   4.031
  307TIP3    H1  927   1.992   2.564   4.072
  307TIP3    H2  928   1.944   2.704   4.101
  308TIP3   OH2  929   0.940   1.897   0.990
  308TIP3    H1  930   0.961   1.941   1.072
  308TIP3    H2  931   0.888   1.961   0.941
  309TIP3   OH2  932   6.055   0.035   4.191
  309TIP3    H1  933   6.078   0.045   4.099
  309TIP3    H2  934   5.994   0.107   4.208
  310TIP3   OH2  935   6.103   4.269   3.863
  310TIP3    H1  936   6.117   4.354   3.905
  310TIP3    H2  937   6.008   4.265   3.850
  311TIP3   OH2  938   3.427   3.650   3.742
  311TIP3    H1  939   3.447   3.652   3.836
  311TIP3    H2  940   3.443   3.739   3.712
  312TIP3   OH2  941   5.976   0.438   0.679
  312TIP3    H1  942   6.049   0.499   0.671
  312TIP3    H2  943   5.937   0.435   0.592
  313TIP3   OH2  944   6.248   3.583   1.829
  313TIP3    H1  945   6.274   3.659   1.881
  313TIP3    H2  946   6.326   3.560   1.778
  314TIP3   OH2  947   2.190   4.801   4.126
  314TIP3    H1  948   2.226   4.825   4.041
  314TIP3    H2  949   2.095   4.804   4.112
  315TIP3   OH2  950   4.299   5.319   3.983
  315TIP3    H1  951   4.383   5.299   3.941
  315TIP3    H2  952   4.276   5.406   3.949
  316TIP3   OH2  953   5.713   0.365   2.635
  316TIP3    H1  954   5.753   0.403   2.556
  316TIP3    H2  955   5.640   0.313   2.602
  317TIP3   OH2  956   0.790   4.393   1.362
  317TIP3    H1  957   0.879   4.410   1.332
  317TIP3    H2  958   0.773   4.460   1.428
  318TIP3   OH2  959   0.104   5.716   3.377
  318TIP3    H1  960   0.030   5.687   3.325
  318TIP3    H2  961   0.067   5.735   3.463
  319TIP3   OH2  962   4.867   0.224   3.826
  319TIP3    H1  963   4.840   0.260   3.741
  319TIP3    H2  964   4.796   0.163   3.849
  320TIP3   OH2  965   6.103   1.451   0.103
  320TIP3    H1  966   6.180   1.426   0.051
  320TIP3    H2  967   6.072   1.368   0.141
  321TIP3   OH2  968   1.520   1.663   1.080
  321TIP3    H1  969   1.515   1.633   0.990
  321TIP3    H2  970   1.493   1.586   1.132
  322TIP3   OH2  971   3.745   0.705   5.100
  322TIP3    H1  972   3.679   0.663   5.156
  322TIP3    H2  973   3.829   0.669   5.130
  323TIP3   OH2  974   3.869   2.834   1.031
  323TIP3    H1  975   3.857   2.817   0.937
  323TIP3    H2  976   3.837   2.754   1.074
  324TIP3   OH2  977   3.707   1.499   4.608
  324TIP3    H1  978   3.621   1.532   4.636
  324TIP3    H2  979   3.763   1.508   4.684
  325TIP3   OH2  980   1.988   4.791   0.142
  325TIP3    H1  981   1.996   4.714   0.198
  325TIP3    H2  982   1.917   4.842   0.181
  326TIP3   OH2  983   6.055   2.799   1.737
  326TIP3    H1  984   6.125   2.865   1.736
  326TIP3    H2  985   6.052   2.767   1.647
  327TIP3   OH2  986   5.016   1.974   1.489
  327TIP3    H1  987   4.934   1.956   1.535
  327TIP3    H2  988   5.062   2.035   1.546
  328TIP3   OH2  989   5.875   3.987   1.907
  328TIP3    H1  990   5.877   3.893   1.889
  328TIP3    H2  991   5.913   4.027   1.829
  329TIP3   OH2  992   5.029   4.553   4.592
  329TIP3    H1  993   4.987   4.633   4.626
  329TIP3    H2  994   4.955   4.495   4.572
  330TIP3   OH2  995   3.527   5.825   4.476
  330TIP3    H1  996   3.446   5.773   4.468
  330TIP3    H2  997   3.498   5.916   4.472
  331TIP3   OH2  998   6.264   4.766   1.448
  331TIP3    H1  999   6.343   4.784   1.500
  331TIP3    H2 1000   6.298   4.749   1.360
  332TIP3   OH2 1001   6.027   3.787   0.719
  332TIP3    H1 1002   6.065   3.826   0.641
  332TIP3    H2 1003   6.092   3.803   0.788
  333TIP3   OH2 1004   4.378   4.424   0.098
  333TIP3    H1 1005   4.375   4.328   0.089
  333TIP3    H2 1006   4.448   4.451   0.038
  334TIP3   OH2 1007   4.846   0.494   0.946
  334TIP3    H1 1008   4.895   0.412   0.938
  334TIP3    H2 1009   4.761   0.466   0.981
  335TIP3   OH2 1010   1.916   1.882   5.181
  335TIP3    H1 1011   1.846   1.917   5.126
  335TIP3    H2 1012   1.995   1.925   5.150
  336TIP3   OH2 1013   1.039   3.074   2.394
  336TIP3    H1 1014   1.046   2.991   2.441
  336TIP3    H2 1015   1.108   3.128   2.432
  337TIP3   OH2 1016   6.203   1.083   1.517
  337TIP3    H1 1017   6.238   1.148   1.457
  337TIP3    H2 1018   6.114   1.066   1.485
  338TIP3   OH2 1019   5.656   4.177   4.705
  338TIP3    H1 1020   5.712   4.242   4.747
  338TIP3    H2 1021   5.570   4.192   4.744
  339TIP3   OH2 1022   2.613   3.570   3.767
  339TIP3    H1 1023   2.610   3.475   3.777
  339TIP3    H2 1024   2.643   3.585   3.677
  340TIP3   OH2 1025   3.298   0.736   4.809
  340TIP3    H1 1026   3.209   0.768   4.805
  340TIP3    H2 1027   3.334   0.774   4.889
  341TIP3   OH2 1028   2.965   2.906   0.208
  341TIP3    H1 1029   2.897   2.838   0.211
  341TIP3    H2 1030   2.973   2.935   0.299
  342TIP3   OH2 1031   0.014   3.557   0.737
  342TIP3    H1 1032   0.032   3.507   0.816
  342TIP3    H2 1033  -0.003   3.646   0.768
  343TIP3   OH2 1034   1.852   0.302   1.242
  343TIP3    H1 1035   1.799   0.223   1.255
  343TIP3    H2 1036   1.805   0.352   1.174
  344TIP3   OH2 1037   0.521   5.472   1.605
  344TIP3    H1 1038   0.524   5.567   1.588
  344TIP3    H2 1039   0.447   5.441   1.554
  345TIP3   OH2 1040   2.058   5.592   1.937
  345TIP3    H1 1041   2.089   5.511   1.977
  345TIP3    H2 1042   2.043   5.569   1.845
  346TIP3   OH2 1043   1.741   3.936   0.307
  346TIP3    H1 1044   1.723   3.860   0.252
  346TIP3    H2 1045   1.662   3.990   0.299
  347TIP3   OH2 1046   0.457   2.917   3.710
  347TIP3    H1 1047   0.538   2.968   3.717
  347TIP3    H2 1048   0.486   2.826   3.721
  348TIP3   OH2 1049   6.303   4.218   2.887
  348TIP3    H1 1050   6.258   4.301   2.903
  348TIP3    H2 1051   6.395   4.237   2.903
  349TIP3   OH2 1052   1.154   2.353   0.512
  349TIP3    H1 1053   1.110   2.358   0.596
  349TIP3    H2 1054   1.090   2.313   0.453
  350TIP3   OH2 1055   4.618   1.739   0.964
  350TIP3    H1 1056   4.665   1.718   1.045
  350TIP3    H2 1057   4.606   1.834   0.967
  351TIP3   OH2 1058   2.822   2.305   0.769
  351TIP3    H1 1059   2.891   2.249   0.733
  351TIP3    H2 1060   2.857   2.338   0.851
  352TIP3   OH2 1061   3.053   2.300   4.889
  352TIP3    H1 1062   2.970   2.265   4.922
  352TIP3    H2 1063   3.092   2.345   4.964
  353TIP3   OH2 1064   3.869   4.244   4.566
  353TIP3    H1 1065   3.867   4.180   4.495
  353TIP3    H2 1066   3.778   4.268   4.580
  354TIP3   OH2 1067   4.031   2.247   0.333
  354TIP3    H1 1068   4.099   2.293   0.284
  354TIP3    H2 1069   3.951   2.263   0.283
  355TIP3   OH2 1070   5.722   1.391   4.941
  355TIP3    H1 1071   5.740   1.358   4.853
  355TIP3    H2 1072   5.729   1.486   4.933
  356TIP3   OH2 1073   2.196   5.716   4.277
  356TIP3    H1 1074   2.122   5.666   4.242
  356TIP3    H2 1075   2.200   5.690   4.370
  357TIP3   OH2 1076   2.020   1.069   0.573
  357TIP3    H1 1077   2.057   1.156   0.581
  357TIP3    H2 1078   2.032   1.045   0.481
  358TIP3   OH2 1079   4.460   0.643   1.752
  358TIP3    H1 1080   4.374   0.619   1.720
  358TIP3    H2 1081   4.520   0.580   1.712
  359TIP3   OH2 1082   0.520   0.790   1.088
  359TIP3    H1 1083   0.599   0.843   1.100
  359TIP3    H2 1084   0.471   0.803   1.169
  360TIP3   OH2 1085   5.890   0.950   3.129
  360TIP3    H1 1086   5.936   1.022   3.171
  360TIP3    H2 1087   5.952   0.877   3.133
  361TIP3   OH2 1088   5.103   4.809   3.244
  361TIP3    H1 1089   5.190   4.825   3.280
  361TIP3    H2 1090   5.093   4.873   3.175
  362TIP3   OH2 1091   2.767   1.976   0.700
  362TIP3    H1 1092   2.732   1.961   0.612
  362TIP3    H2 1093   2.699   1.944   0.759
  363TIP3   OH2 1094   3.597   2.619   2.995
  363TIP3    H1 1095   3.527   2.557   2.976
  363TIP3    H2 1096   3.595   2.682   2.923
  364TIP3   OH2 1097   0.834   1.987   1.921
  364TIP3    H1 1098   0.770   2.058   1.929
  364TIP3    H2 1099   0.834   1.965   1.828
  365TIP3   OH2 1100   3.898   3.174   0.659
  365TIP3    H1 1101   3.812   3.144   0.630
  365TIP3    H2 1102   3.920   3.118   0.733
  366TIP3   OH2 1103   3.627   5.915   4.733
  366TIP3    H1 1104   3.594   5.880   4.650
  366TIP3    H2 1105   3.722   5.919   4.721
  367TIP3   OH2 1106   4.558   5.202   3.883
  367TIP3    H1 1107   4.502   5.191   3.806
  367TIP3    H2 1108   4.627   5.137   3.871
  368TIP3   OH2 1109   3.044   1.239   3.797
  368TIP3    H1 1110   2.994   1.310   3.758
  368TIP3    H2 1111   2.992   1.160   3.779
  369TIP3   OH2 1112   1.640   1.280   3.203
  369TIP3    H1 1113   1.714   1.323   3.245
  369TIP3    H2 1114   1.676   1.199   3.167
  370TIP3   OH2 1115   5.507   2.979   5.017
  370TIP3    H1 1116   5.471   3.059   4.978
  370TIP3    H2 1117   5.459   2.908   4.973
  371TIP3   OH2 1118   0.200   1.423   2.137
  371TIP3    H1 1119   0.197   1.350   2.199
  371TIP3    H2 1120   0.283   1.467   2.156
  372TIP3   OH2 1121   2.988   4.099   2.157
  372TIP3    H1 1122   2.915   4.038   2.150
  372TIP3    H2 1123   2.977   4.140   2.243
  373TIP3   OH2 1124   0.897   0.947   1.929
  373TIP3    H1 1125   0.913   1.032   1.888
  373TIP3    H2 1126   0.977   0.898   1.915
  374TIP3   OH2 1127   0.494   2.984   0.280
  374TIP3    H1 1128   0.558   3.007   0.348
  374TIP3    H2 1129   0.500   3.055   0.217
  375TIP3   OH2 1130   4.293   0.579   2.841
  375TIP3    H1 1131   4.298   0.531   2.924
  375TIP3    H2 1132   4.320   0.516   2.775
  376TIP3   OH2 1133   5.795   2.509   1.393
  376TIP3    H1 1134   5.827   2.448   1.327
  376TIP3    H2 1135   5.811   2.596   1.355
  377TIP3   OH2 1136   0.125   0.525   0.123
  377TIP3    H1 1137   0.079   0.449   0.159
  377TIP3    H2 1138   0.055   0.581   0.091
  378TIP3   OH2 1139   0.860   1.714   4.112
  378TIP3    H1 1140   0.847   1.671   4.028
  378TIP3    H2 1141   0.813   1.797   4.105
  379TIP3   OH2 1142   4.537   3.501   0.197
  379TIP3    H1 1143   4.504   3.494   0.286
  379TIP3    H2 1144   4.624   3.539   0.206
  380TIP3   OH2 1145   5.791   0.113   4.305
  380TIP3    H1 1146   5.799   0.017   4.308
  380TIP3    H2 1147   5.697   0.130   4.308
  381TIP3   OH2 1148   2.207   4.251   2.469
  381TIP3    H1 1149   2.245   4.174   2.427
  381TIP3    H2 1150   2.255   4.325   2.433
  382TIP3   OH2 1151   3.631   3.499   3.127
  382TIP3    H1 1152   3.616   3.557   3.202
  382TIP3    H2 1153   3.638   3.559   3.052
  383TIP3   OH2 1154   0.318   2.907   1.802
  383TIP3    H1 1155   0.233   2.875   1.830
  383TIP3    H2 1156   0.365   2.830   1.771
  384TIP3   OH2 1157   4.147   1.612   4.594
  384TIP3    H1 1158   4.082   1.598   4.526
  384TIP3    H2 1159   4.157   1.707   4.598
  385TIP3   OH2 1160   1.144   0.823   5.102
  385TIP3    H1 1161   1.219   0.875   5.130
  385TIP3    H2 1162   1.095   0.882   5.044
  386TIP3   OH2 1163   2.739   3.439   0.966
  386TIP3    H1 1164   2.644   3.428   0.957
  386TIP3    H2 1165   2.758   3.404   1.053
  387TIP3   OH2 1166   4.748   0.881   3.924
  387TIP3    H1 1167   4.684   0.952   3.929
  387TIP3    H2 1168   4.694   0.801   3.915
  388TIP3   OH2 1169   5.026   1.935   5.110
  388TIP3    H1 1170   5.067   1.945   5.024
  388TIP3    H2 1171   5.091   1.969   5.172
  389TIP3   OH2 1172   0.710   1.961   4.075
  389TIP3    H1 1173   0.632   2.003   4.110
  389TIP3    H2 1174   0.756   2.030   4.028
  390TIP3   OH2 1175   0.864   1.673   2.535
  390TIP3    H1 1176   0.830   1.669   2.625
  390TIP3    H2 1177   0.811   1.609   2.487
  391TIP3   OH2 1178   1.954   4.592   5.005
  391TIP3    H1 1179   1.891   4.658   5.034
  391TIP3    H2 1180   2.035   4.641   4.991
  392TIP3   OH2 1181   0.031   3.108   4.985
  392TIP3    H1 1182  -0.033   3.099   5.056
  392TIP3    H2 1183   0.070   3.195   4.999
  393TIP3   OH2 1184   3.446   4.563   2.460
  393TIP3    H1 1185   3.428   4.574   2.553
  393TIP3    H2 1186   3.538   4.589   2.450
  394TIP3   OH2 1187   3.175   1.093   5.000
  394TIP3    H1 1188   3.231   1.145   4.943
  394TIP3    H2 1189   3.173   1.141   5.083
  395TIP3   OH2 1190   2.432   2.675   1.141
  395TIP3    H1 1191   2.461   2.737   1.075
  395TIP3    H2 1192   2.487   2.598   1.128
  396TIP3   OH2 1193   3.544   0.216   4.208
  396TIP3    H1 1194   3.587   0.215   4.123
  396TIP3    H2 1195   3.455   0.247   4.190
  397TIP3   OH2 1196   1.898   4.906   5.067
  397TIP3    H1 1197   1.905   5.000   5.083
  397TIP3    H2 1198   1.962   4.889   4.997
  398TIP3   OH2 1199   4.549   3.176   2.786
  398TIP3    H1 1200   4.486   3.246   2.773
  398TIP3    H2 1201   4.631   3.221   2.806
  399TIP3   OH2 1202   2.113   1.175   4.680
  399TIP3    H1 1203   2.128   1.109   4.748
  399TIP3    H2 1204   2.190   1.171   4.625
  400TIP3   OH2 1205   5.995   2.039   0.264
  400TIP3    H1 1206   6.032   1.960   0.304
  400TIP3    H2 1207   6.071   2.086   0.230
  401TIP3   OH2 1208   3.856   4.194   2.921
  401TIP3    H1 1209   3.813   4.123   2.874
  401TIP3    H2 1210   3.787   4.236   2.972
  402TIP3   OH2 1211   3.593   0.163   1.190
  402TIP3    H1 1212   3.668   0.194   1.240
  402TIP3    H2 1213   3.631   0.114   1.117
  403TIP3   OH2 1214   3.147   1.028   3.071
  403TIP3    H1 1215   3.232   1.068   3.058
  403TIP3    H2 1216   3.162   0.959   3.136
  404TIP3   OH2 1217   1.680   0.344   3.362
  404TIP3    H1 1218   1.633   0.286   3.302
  404TIP3    H2 1219   1.764   0.362   3.318
  405TIP3   OH2 1220   1.760   4.970   1.576
  405TIP3    H1 1221   1.805   4.899   1.530
  405TIP3    H2 1222   1.756   4.940   1.667
  406TIP3   OH2 1223   1.517   2.372   1.531
  406TIP3    H1 1224   1.588   2.362   1.595
  406TIP3    H2 1225   1.521   2.292   1.478
  407TIP3   OH2 1226   0.976   2.235   1.826
  407TIP3    H1 1227   0.950   2.316   1.871
  407TIP3    H2 1228   1.047   2.200   1.879
  408TIP3   OH2 1229   5.047   0.047   3.918
  408TIP3    H1 1230   4.985   0.112   3.885
  408TIP3    H2 1231   5.131   0.091   3.916
  409TIP3   OH2 1232   2.181   2.515   3.773
  409TIP3    H1 1233   2.258   2.559   3.809
  409TIP3    H2 1234   2.211   2.478   3.690
  410TIP3   OH2 1235   0.057   4.302   4.679
  410TIP3    H1 1236  -0.019   4.337   4.634
  410TIP3    H2 1237   0.046   4.207   4.677
  411TIP3   OH2 1238   5.944   3.044   0.086
  411TIP3    H1 1239   5.852   3.042   0.060
  411TIP3    H2 1240   5.991   3.013   0.009
  412TIP3   OH2 1241   0.933  -0.015   4.894
  412TIP3    H1 1242   0.848  -0.040   4.931
  412TIP3    H2 1243   0.944   0.077   4.919
  413TIP3   OH2 1244   2.875   4.736   3.040
  413TIP3    H1 1245   2.787   4.709   3.066
  413TIP3    H2 1246   2.899   4.805   3.102
  414TIP3   OH2 1247   2.512   1.409   0.380
  414TIP3    H1 1248   2.598   1.415   0.339
  414TIP3    H2 1249   2.453   1.381   0.309
  415TIP3   OH2 1250   2.059   2.451   1.189
  415TIP3    H1 1251   2.067   2.356   1.183
  415TIP3    H2 1252   2.149   2.482   1.199
  416TIP3   OH2 1253   1.378   2.153   0.203
  416TIP3    H1 1254   1.387   2.129   0.295
  416TIP3    H2 1255   1.303   2.101   0.172
  417TIP3   OH2 1256   5.319   3.461   4.883
  417TIP3    H1 1257   5.244   3.514   4.909
  417TIP3    H2 1258   5.393   3.523   4.883
  418TIP3   OH2 1259   4.142   1.682   1.891
  418TIP3    H1 1260   4.188   1.628   1.956
  418TIP3    H2 1261   4.079   1.623   1.850
  419TIP3   OH2 1262   5.084   1.708   1.589
  419TIP3    H1 1263   5.112   1.799   1.599
  419TIP3    H2 1264   4.998   1.714   1.547
  420TIP3   OH2 1265   4.034   2.678   2.199
  420TIP3    H1 1266   3.984   2.742   2.149
  420TIP3    H2 1267   4.120   2.677   2.157
  421TIP3   OH2 1268   6.069   2.439   3.531
  421TIP3    H1 1269   6.124   2.363   3.511
  421TIP3    H2 1270   6.128   2.513   3.526
  422TIP3   OH2 1271   2.041   1.699   0.094
  422TIP3    H1 1272   2.012   1.781   0.135
  422TIP3    H2 1273   1.964   1.642   0.098
  423TIP3   OH2 1274   0.831   5.312   5.010
  423TIP3    H1 1275   0.889   5.254   4.961
  423TIP3    H2 1276   0.764   5.254   5.046
  424TIP3   OH2 1277   6.244   1.844   0.164
  424TIP3    H1 1278   6.262   1.919   0.222
  424TIP3    H2 1279   6.231   1.884   0.078
  425TIP3   OH2 1280   2.786   1.395   4.423
  425TIP3    H1 1281   2.733   1.458   4.471
  425TIP3    H2 1282   2.873   1.435   4.417
  426TIP3   OH2 1283   3.337   1.716   1.188
  426TIP3    H1 1284   3.319   1.684   1.099
  426TIP3    H2 1285   3.251   1.722   1.229
  427TIP3   OH2 1286   4.765   4.759   2.333
  427TIP3    H1 1287   4.701   4.705   2.380
  427TIP3    H2 1288   4.847   4.744   2.380
  428TIP3   OH2 1289   1.811   4.192   1.486
  428TIP3    H1 1290   1.799   4.186   1.580
  428TIP3    H2 1291   1.846   4.107   1.460
  429TIP3   OH2 1292   5.658   4.700   3.224
  429TIP3    H1 1293   5.749   4.728   3.234
  429TIP3    H2 1294   5.638   4.654   3.306
  430TIP3   OH2 1295   1.428   1.154   0.017
  430TIP3    H1 1296   1.417   1.097  -0.059
  430TIP3    H2 1297   1.498   1.113   0.067
  431TIP3   OH2 1298   5.577   3.338   4.335
  431TIP3    H1 1299   5.539   3.270   4.281
  431TIP3    H2 1300   5.644   3.294   4.388
  432TIP3   OH2 1301   3.129   3.462   3.899
  432TIP3    H1 1302   3.091   3.384   3.858
  432TIP3    H2 1303   3.053   3.517   3.920
  433TIP3   OH2 1304   1.094   2.232   2.390
  433TIP3    H1 1305   1.006   2.270   2.395
  433TIP3    H2 1306   1.133   2.252   2.475
  434TIP3   OH2 1307   1.701   3.226   5.120
  434TIP3    H1 1308   1.626   3.247   5.065
  434TIP3    H2 1309   1.663   3.206   5.206
  435TIP3   OH2 1310   5.279   0.275   4.150
  435TIP3    H1 1311   5.311   0.363   4.169
  435TIP3    H2 1312   5.194   0.289   4.109
  436TIP3   OH2 1313   3.763   3.993   2.283
  436TIP3    H1 1314   3.799   3.948   2.360
  436TIP3    H2 1315   3.805   3.950   2.209
  437TIP3   OH2 1316   4.769   1.874   1.620
  437TIP3    H1 1317   4.724   1.833   1.546
  437TIP3    H2 1318   4.706   1.871   1.692
  438TIP3   OH2 1319   4.079   2.854   3.420
  438TIP3    H1 1320   4.130   2.776   3.443
  438TIP3    H2 1321   4.087   2.912   3.496
  439TIP3   OH2 1322   1.587   0.161   2.010
  439TIP3    H1 1323   1.677   0.155   1.977
  439TIP3    H2 1324   1.549   0.234   1.961
  440TIP3   OH2 1325   0.022   5.540   2.231
  440TIP3    H1 1326   0.046   5.522   2.322
  440TIP3    H2 1327   0.099   5.517   2.180
  441TIP3   OH2 1328   3.304   0.461   3.468
  441TIP3    H1 1329   3.270   0.388   3.521
  441TIP3    H2 1330   3.232   0.482   3.408
  442TIP3   OH2 1331   5.771   2.377   4.660
  442TIP3    H1 1332   5.697   2.427   4.696
  442TIP3    H2 1333   5.848   2.429   4.684
  443TIP3   OH2 1334   3.411   0.375   0.955
  443TIP3    H1 1335   3.375   0.362   0.867
  443TIP3    H2 1336   3.506   0.377   0.943
  444TIP3   OH2 1337   3.867   1.662   0.843
  444TIP3    H1 1338   3.789   1.653   0.899
  444TIP3    H2 1339   3.837   1.715   0.769
  445TIP3   OH2 1340   5.871   2.602   0.185
  445TIP3    H1 1341   5.831   2.521   0.216
  445TIP3    H2 1342   5.940   2.621   0.248
  446TIP3   OH2 1343   2.969   3.479   1.571
  446TIP3    H1 1344   3.038   3.422   1.537
  446TIP3    H2 1345   2.948   3.443   1.657
  447TIP3   OH2 1346   5.221   4.637   1.916
  447TIP3    H1 1347   5.168   4.697   1.969
  447TIP3    H2 1348   5.168   4.620   1.838
  448TIP3   OH2 1349   4.337   4.367   3.130
  448TIP3    H1 1350   4.372   4.296   3.185
  448TIP3    H2 1351   4.393   4.442   3.149
  449TIP3   OH2 1352   1.498   0.376   1.876
  449TIP3    H1 1353   1.451   0.446   1.921
  449TIP3    H2 1354   1.451   0.364   1.794
  450TIP3   OH2 1355   6.159   5.215   0.308
  450TIP3    H1 1356   6.066   5.229   0.293
  450TIP3    H2 1357   6.169   5.119   0.311
  451TIP3   OH2 1358   3.637   3.698   2.929
  451TIP3    H1 1359   3.668   3.776   2.974
  451TIP3    H2 1360   3.542   3.700   2.939
  452TIP3   OH2 1361   1.850   5.413   1.273
  452TIP3    H1 1362   1.855   5.464   1.192
  452TIP3    H2 1363   1.763   5.374   1.271
  453TIP3   OH2 1364   4.624   2.755   2.212
  453TIP3    H1 1365   4.549   2.800   2.172
  453TIP3    H2 1366   4.625   2.669   2.171
  454TIP3   OH2 1367   5.543   0.476   1.390
  454TIP3    H1 1368   5.526   0.570   1.394
  454TIP3    H2 1369   5.531   0.453   1.298
  455TIP3   OH2 1370   0.832   4.092   3.505
  455TIP3    H1 1371   0.746   4.059   3.527
  455TIP3    H2 1372   0.869   4.027   3.445
  456TIP3   OH2 1373   3.987   4.352   3.967
  456TIP3    H1 1374   4.012   4.338   4.058
  456TIP3    H2 1375   3.920   4.420   3.969
  457TIP3   OH2 1376   2.224   1.331   4.322
  457TIP3    H1 1377   2.258   1.395   4.260
  457TIP3    H2 1378   2.258   1.359   4.407
  458TIP3   OH2 1379   2.216   5.040   2.682
  458TIP3    H1 1380   2.173   4.979   2.743
  458TIP3    H2 1381   2.308   5.014   2.684
  459TIP3   OH2 1382   3.780   4.635   3.700
  459TIP3    H1 1383   3.699   4.603   3.739
  459TIP3    H2 1384   3.753   4.676   3.617
  460TIP3   OH2 1385   0.076   1.126   2.075
  460TIP3    H1 1386   0.133   1.052   2.054
  460TIP3    H2 1387   0.131   1.203   2.063
  461TIP3   OH2 1388   0.928   2.651   4.342
  461TIP3    H1 1389   0.905   2.743   4.327
  461TIP3    H2 1390   0.943   2.616   4.254
  462TIP3   OH2 1391   4.054   0.187   4.655
  462TIP3    H1 1392   4.104   0.269   4.647
  462TIP3    H2 1393   4.098   0.139   4.725
  463TIP3   OH2 1394   1.177   2.843   0.342
  463TIP3    H1 1395   1.233   2.779   0.298
  463TIP3    H2 1396   1.219   2.927   0.324
  464TIP3   OH2 1397   1.018   2.346   4.964
  464TIP3    H1 1398   1.104   2.380   4.986
  464TIP3    H2 1399   1.015   2.260   5.005
  465TIP3   OH2 1400   0.693   1.940   1.243
  465TIP3    H1 1401   0.646   1.859   1.262
  465TIP3    H2 1402   0.761   1.914   1.181
  466TIP3   OH2 1403   3.506   3.019   0.831
  466TIP3    H1 1404   3.535   3.093   0.885
  466TIP3    H2 1405   3.412   3.033   0.821
  467TIP3   OH2 1406   2.606   4.052   0.302
  467TIP3    H1 1407   2.567   4.124   0.351
  467TIP3    H2 1408   2.532   3.995   0.281
  468TIP3   OH2 1409   2.059   2.741   1.073
  468TIP3    H1 1410   2.117   2.768   1.145
  468TIP3    H2 1411   2.049   2.647   1.084
  469TIP3   OH2 1412   3.006   0.885   1.048
  469TIP3    H1 1413   3.011   0.949   0.978
  469TIP3    H2 1414   2.923   0.839   1.033
  470TIP3   OH2 1415   0.317   0.473   0.725
  470TIP3    H1 1416   0.314   0.539   0.656
  470TIP3    H2 1417   0.313   0.523   0.807
  471TIP3   OH2 1418   4.978   4.010   4.482
  471TIP3    H1 1419   4.992   3.958   4.561
  471TIP3    H2 1420   5.053   4.069   4.479
  472TIP3   OH2 1421   1.945   4.092   0.408
  472TIP3    H1 1422   1.974   4.049   0.488
  472TIP3    H2 1423   1.896   4.025   0.361
  473TIP3   OH2 1424   2.301   5.013   2.282
  473TIP3    H1 1425   2.238   4.949   2.250
  473TIP3    H2 1426   2.387   4.977   2.259
  474TIP3   OH2 1427   0.030   4.883   4.057
  474TIP3    H1 1428   0.103   4.874   3.996
  474TIP3    H2 1429  -0.046   4.900   4.002
  475TIP3   OH2 1430   0.899   3.346   0.085
  475TIP3    H1 1431   0.970   3.405   0.063
  475TIP3    H2 1432   0.822   3.385   0.042
  476TIP3   OH2 1433   2.233   2.392   5.193
  476TIP3    H1 1434   2.236   2.436   5.278
  476TIP3    H2 1435   2.215   2.462   5.131
  477TIP3   OH2 1436   2.347   0.738   5.086
  477TIP3    H1 1437   2.298   0.662   5.119
  477TIP3    H2 1438   2.435   0.704   5.070
  478TIP3   OH2 1439   2.360   2.899   2.803
  478TIP3    H1 1440   2.393   2.949   2.877
  478TIP3    H2 1441   2.439   2.871   2.756
  479TIP3   OH2 1442   3.963   3.777   3.704
  479TIP3    H1 1443   4.002   3.793   3.790
  479TIP3    H2 1444   3.882   3.829   3.704
  480TIP3   OH2 1445   3.381   3.389   0.788
  480TIP3    H1 1446   3.444   3.336   0.739
  480TIP3    H2 1447   3.348   3.451   0.724
  481TIP3   OH2 1448   1.289   5.174   3.315
  481TIP3    H1 1449   1.295   5.090   3.361
  481TIP3    H2 1450   1.360   5.172   3.251
  482TIP3   OH2 1451   1.945   2.004   3.368
  482TIP3    H1 1452   1.955   2.055   3.449
  482TIP3    H2 1453   1.866   1.952   3.382
  483TIP3   OH2 1454   1.151   1.776   4.417
  483TIP3    H1 1455   1.129   1.724   4.494
  483TIP3    H2 1456   1.108   1.730   4.344
  484TIP3   OH2 1457   0.143   3.179   3.244
  484TIP3    H1 1458   0.176   3.172   3.154
  484TIP3    H2 1459   0.202   3.124   3.295
  485TIP3   OH2 1460   5.717   0.401   4.297
  485TIP3    H1 1461   5.761   0.319   4.272
  485TIP3    H2 1462   5.690   0.440   4.213
  486TIP3   OH2 1463   2.421   4.078   0.690
  486TIP3    H1 1464   2.442   4.057   0.599
  486TIP3    H2 1465   2.495   4.045   0.740
  487TIP3   OH2 1466   4.164   1.947   2.928
  487TIP3    H1 1467   4.202   2.027   2.964
  487TIP3    H2 1468   4.133   1.899   3.004
  488TIP3   OH2 1469   1.839   3.625   2.594
  488TIP3    H1 1470   1.865   3.717   2.594
  488TIP3    H2 1471   1.892   3.585   2.525
  489TIP3   OH2 1472   0.118   2.636   2.411
  489TIP3    H1 1473   0.198   2.598   2.377
  489TIP3    H2 1474   0.104   2.594   2.495
  490TIP3   OH2 1475   2.104   4.515   0.799
  490TIP3    H1 1476   2.065   4.485   0.716
  490TIP3    H2 1477   2.169   4.580   0.772
  491TIP3   OH2 1478   2.375   1.203   0.845
  491TIP3    H1 1479   2.297   1.189   0.899
  491TIP3    H2 1480   2.386   1.121   0.798
  492TIP3   OH2 1481   5.700   4.189   3.448
  492TIP3    H1 1482   5.745   4.129   3.388
  492TIP3    H2 1483   5.617   4.147   3.467
  493TIP3   OH2 1484   1.847   4.519   2.163
  493TIP3    H1 1485   1.879   4.561   2.243
  493TIP3    H2 1486   1.756   4.545   2.157
  494TIP3   OH2 1487   5.304   1.708   2.848
  494TIP3    H1 1488   5.398   1.723   2.837
  494TIP3    H2 1489   5.282   1.642   2.782
  495TIP3   OH2 1490   5.851   3.748   1.771
  495TIP3    H1 1491   5.889   3.709   1.692
  495TIP3    H2 1492   5.883   3.694   1.843
  496TIP3   OH2 1493   0.329   2.603   4.678
  496TIP3    H1 1494   0.401   2.540   4.683
  496TIP3    H2 1495   0.255   2.552   4.646
  497TIP3   OH2 1496   0.421   5.544   2.585
  497TIP3    H1 1497   0.413   5.474   2.520
  497TIP3    H2 1498   0.491   5.600   2.551
  498TIP3   OH2 1499   3.246   2.674   2.603
  498TIP3    H1 1500   3.213   2.597   2.649
  498TIP3    H2 1501   3.234   2.746   2.664
  499TIP3   OH2 1502   5.103   0.039   2.159
  499TIP3    H1 1503   5.171   0.017   2.095
  499TIP3    H2 1504   5.120  -0.020   2.232
  500TIP3   OH2 1505   1.484   0.490   2.564
  500TIP3    H1 1506   1.497   0.525   2.475
  500TIP3    H2 1507   1.404   0.438   2.558
  501TIP3   OH2 1508   3.170   3.666   3.626
  501TIP3    H1 1509   3.130   3.583   3.597
  501TIP3    H2 1510   3.246   3.639   3.678
  502TIP3   OH2 1511   3.068   3.991   3.109
  502TIP3    H1 1512   3.088   4.015   3.200
  502TIP3    H2 1513   3.154   3.972   3.071
  503TIP3   OH2 1514   2.861   2.517   0.417
  503TIP3    H1 1515   2.853   2.594   0.474
  503TIP3    H2 1516   2.915   2.456   0.467
  504TIP3   OH2 1517   4.839   2.700   3.522
  504TIP3    H1 1518   4.876   2.783   3.492
  504TIP3    H2 1519   4.915   2.644   3.537
  505TIP3   OH2 1520   3.112   3.229   2.828
  505TIP3    H1 1521   3.129   3.322   2.840
  505TIP3    H2 1522   3.046   3.225   2.759
  506TIP3   OH2 1523   5.663   0.421   0.658
  506TIP3    H1 1524   5.572   0.436   0.686
  506TIP3    H2 1525   5.699   0.361   0.723
  507TIP3   OH2 1526   4.640   1.287   3.875
  507TIP3    H1 1527   4.703   1.306   3.945
  507TIP3    H2 1528   4.619   1.194   3.886
  508TIP3   OH2 1529   1.526   1.790   3.682
  508TIP3    H1 1530   1.613   1.761   3.711
  508TIP3    H2 1531   1.477   1.801   3.763
  509TIP3   OH2 1532   4.143   2.869   0.408
  509TIP3    H1 1533   4.107   2.921   0.480
  509TIP3    H2 1534   4.073   2.808   0.386
  510TIP3   OH2 1535   2.484   4.284   0.453
  510TIP3    H1 1536   2.418   4.292   0.521
  510TIP3    H2 1537   2.466   4.355   0.392
  511TIP3   OH2 1538   4.418   3.857   4.870
  511TIP3    H1 1539   4.429   3.943   4.829
  511TIP3    H2 1540   4.459   3.796   4.810
  512TIP3   OH2 1541   3.169   5.167   1.839
  512TIP3    H1 1542   3.079   5.193   1.859
  512TIP3    H2 1543   3.211   5.160   1.925
  513TIP3   OH2 1544   2.215   0.373   3.291
  513TIP3    H1 1545   2.184   0.282   3.287
  513TIP3    H2 1546   2.188   0.404   3.377
  514TIP3   OH2 1547   0.993   3.877   2.212
  514TIP3    H1 1548   0.931   3.828   2.266
  514TIP3    H2 1549   1.078   3.861   2.253
  515TIP3   OH2 1550   5.389   3.697   2.028
  515TIP3    H1 1551   5.312   3.664   2.074
  515TIP3    H2 1552   5.369   3.789   2.010
  516TIP3   OH2 1553   0.113   5.282   0.064
  516TIP3    H1 1554   0.156   5.324  -0.010
  516TIP3    H2 1555   0.048   5.346   0.094
  517TIP3   OH2 1556   0.317   5.573   2.840
  517TIP3    H1 1557   0.239   5.617   2.808
  517TIP3    H2 1558   0.373   5.564   2.763
  518TIP3   OH2 1559   6.022   0.165   2.879
  518TIP3    H1 1560   5.940   0.185   2.924
  518TIP3    H2 1561   6.027   0.230   2.808
  519TIP3   OH2 1562   5.176   4.106   4.864
  519TIP3    H1 1563   5.094   4.155   4.871
  519TIP3    H2 1564   5.153   4.025   4.818
  520TIP3   OH2 1565   0.527   1.453   1.814
  520TIP3    H1 1566   0.581   1.528   1.787
  520TIP3    H2 1567   0.438   1.478   1.790
  521TIP3   OH2 1568   0.511   1.778   1.598
  521TIP3    H1 1569   0.476   1.777   1.687
  521TIP3    H2 1570   0.487   1.693   1.561
  522TIP3   OH2 1571   1.866   1.902   4.013
  522TIP3    H1 1572   1.778   1.914   4.050
  522TIP3    H2 1573   1.908   1.840   4.072
  523TIP3   OH2 1574   1.655   1.314   4.866
  523TIP3    H1 1575   1.604   1.386   4.901
  523TIP3    H2 1576   1.696   1.274   4.943
  524TIP3   OH2 1577   3.636   1.266   5.031
  524TIP3    H1 1578   3.611   1.343   5.082
  524TIP3    H2 1579   3.731   1.269   5.027
  525TIP3   OH2 1580   4.762   0.077   1.046
  525TIP3    H1 1581   4.824   0.007   1.068
  525TIP3    H2 1582   4.706   0.039   0.979
  526TIP3   OH2 1583   2.712   1.744   3.961
  526TIP3    H1 1584   2.661   1.821   3.986
  526TIP3    H2 1585   2.782   1.779   3.906
  527TIP3   OH2 1586   6.103   3.288   3.444
  527TIP3    H1 1587   6.109   3.300   3.539
  527TIP3    H2 1588   6.163   3.216   3.425
  528TIP3   OH2 1589   5.231   2.241   2.302
  528TIP3    H1 1590   5.262   2.151   2.315
  528TIP3    H2 1591   5.308   2.296   2.313
  529TIP3   OH2 1592   4.913   0.224   2.219
  529TIP3    H1 1593   4.962   0.157   2.171
  529TIP3    H2 1594   4.961   0.234   2.301
  530TIP3   OH2 1595   4.198   5.927   0.851
  530TIP3    H1 1596   4.120   5.929   0.795
  530TIP3    H2 1597   4.249   5.853   0.817
  531TIP3   OH2 1598   5.318   4.944   3.364
  531TIP3    H1 1599   5.345   4.930   3.273
  531TIP3    H2 1600   5.325   5.039   3.376
  532TIP3   OH2 1601   4.074   5.242   0.829
  532TIP3    H1 1602   4.007   5.237   0.761
  532TIP3    H2 1603   4.024   5.246   0.911
  533TIP3   OH2 1604   0.146   4.998   4.594
  533TIP3    H1 1605   0.145   5.086   4.557
  533TIP3    H2 1606   0.196   5.007   4.676
  534TIP3   OH2 1607   4.423   1.175   1.303
  534TIP3    H1 1608   4.502   1.133   1.270
  534TIP3    H2 1609   4.381   1.109   1.357
  535TIP3   OH2 1610   3.891   5.957   1.535
  535TIP3    H1 1611   3.981   5.923   1.531
  535TIP3    H2 1612   3.840   5.887   1.575
  536TIP3   OH2 1613   1.964   2.148   3.134
  536TIP3    H1 1614   1.982   2.102   3.216
  536TIP3    H2 1615   1.887   2.202   3.153
  537TIP3   OH2 1616   1.971   2.813   4.243
  537TIP3    H1 1617   1.976   2.768   4.327
  537TIP3    H2 1618   2.037   2.882   4.249
  538TIP3   OH2 1619   1.425   0.716   2.714
  538TIP3    H1 1620   1.458   0.788   2.659
  538TIP3    H2 1621   1.438   0.638   2.661
  539TIP3   OH2 1622   1.462   3.228   4.970
  539TIP3    H1 1623   1.541   3.209   4.919
  539TIP3    H2 1624   1.447   3.149   5.022
  540TIP3   OH2 1625   0.239   0.364   1.715
  540TIP3    H1 1626   0.332   0.343   1.705
  540TIP3    H2 1627   0.228   0.446   1.667
  541TIP3   OH2 1628   3.019   5.769   3.901
  541TIP3    H1 1629   2.991   5.859   3.918
  541TIP3    H2 1630   3.098   5.778   3.848
  542TIP3   OH2 1631   1.947   0.565   5.147
  542TIP3    H1 1632   1.936   0.517   5.065
  542TIP3    H2 1633   2.042   0.580   5.154
  543TIP3   OH2 1634   4.258   1.918   3.994
  543TIP3    H1 1635   4.288   1.975   3.923
  543TIP3    H2 1636   4.238   1.978   4.066
  544TIP3   OH2 1637   3.802   3.044   4.010
  544TIP3    H1 1638   3.827   3.136   4.015
  544TIP3    H2 1639   3.860   3.000   4.071
  545TIP3   OH2 1640   4.370   3.856   0.244
  545TIP3    H1 1641   4.410   3.840   0.158
  545TIP3    H2 1642   4.415   3.934   0.277
  546TIP3   OH2 1643   6.052   4.494   2.319
  546TIP3    H1 1644   6.072   4.587   2.327
  546TIP3    H2 1645   6.111   4.452   2.382
  547TIP3   OH2 1646   6.050   3.544   0.973
  547TIP3    H1 1647   6.016   3.541   0.883
  547TIP3    H2 1648   6.099   3.626   0.977
  548TIP3   OH2 1649   3.783   0.645   1.512
  548TIP3    H1 1650   3.726   0.569   1.525
  548TIP3    H2 1651   3.771   0.697   1.591
  549TIP3   OH2 1652   1.779   0.064   0.430
  549TIP3    H1 1653   1.709   0.125   0.409
  549TIP3    H2 1654   1.739  -0.023   0.424
  550TIP3   OH2 1655   1.080   2.148   2.819
  550TIP3    H1 1656   1.078   2.217   2.753
  550TIP3    H2 1657   1.014   2.174   2.883
  551TIP3   OH2 1658   5.355   5.863   0.402
  551TIP3    H1 1659   5.291   5.883   0.334
  551TIP3    H2 1660   5.434   5.838   0.354
  552TIP3   OH2 1661   1.625   3.687   3.338
  552TIP3    H1 1662   1.678   3.619   3.298
  552TIP3    H2 1663   1.636   3.675   3.432
  553TIP3   OH2 1664   0.951   2.835   1.670
  553TIP3    H1 1665   0.974   2.835   1.577
  553TIP3    H2 1666   0.975   2.748   1.701
  554TIP3   OH2 1667   0.693   2.041   2.364
  554TIP3    H1 1668   0.638   2.011   2.436
  554TIP3    H2 1669   0.633   2.052   2.291
  555TIP3   OH2 1670   3.631   1.413   1.995
  555TIP3    H1 1671   3.623   1.325   2.032
  555TIP3    H2 1672   3.636   1.400   1.901
  556TIP3   OH2 1673   4.742   3.618   1.304
  556TIP3    H1 1674   4.746   3.714   1.303
  556TIP3    H2 1675   4.834   3.591   1.312
  557TIP3   OH2 1676   6.009   2.579   0.636
  557TIP3    H1 1677   6.096   2.618   0.627
  557TIP3    H2 1678   5.950   2.653   0.649
  558TIP3   OH2 1679   0.454   3.188   2.967
  558TIP3    H1 1680   0.456   3.281   2.943
  558TIP3    H2 1681   0.361   3.166   2.965
  559TIP3   OH2 1682   2.776   1.427   0.593
  559TIP3    H1 1683   2.717   1.422   0.669
  559TIP3    H2 1684   2.743   1.500   0.541
  560TIP3   OH2 1685   3.792   3.758   4.467
  560TIP3    H1 1686   3.858   3.697   4.435
  560TIP3    H2 1687   3.717   3.703   4.491
  561TIP3   OH2 1688   0.375   2.084   4.750
  561TIP3    H1 1689   0.428   2.151   4.792
  561TIP3    H2 1690   0.338   2.034   4.823
  562TIP3   OH2 1691   0.060   5.427   3.664
  562TIP3    H1 1692   0.096   5.379   3.739
  562TIP3    H2 1693  -0.027   5.455   3.693
  563TIP3   OH2 1694   1.981   1.927   0.232
  563TIP3    H1 1695   2.047   1.978   0.279
  563TIP3    H2 1696   1.898   1.972   0.252
  564TIP3   OH2 1697   1.349   0.203   2.681
  564TIP3    H1 1698   1.291   0.267   2.639
  564TIP3    H2 1699   1.432   0.211   2.634
  565TIP3   OH2 1700   5.285   0.153   3.862
  565TIP3    H1 1701   5.354   0.134   3.926
  565TIP3    H2 1702   5.295   0.246   3.843
  566TIP3   OH2 1703   5.782   5.293   3.733
  566TIP3    H1 1704   5.834   5.280   3.654
  566TIP3    H2 1705   5.841   5.336   3.794
  567TIP3   OH2 1706   1.454   0.649   4.208
  567TIP3    H1 1707   1.466   0.580   4.143
  567TIP3    H2 1708   1.466   0.605   4.292
  568TIP3   OH2 1709   1.748   2.284   2.371
  568TIP3    H1 1710   1.661   2.259   2.402
  568TIP3    H2 1711   1.733   2.360   2.314
  569TIP3   OH2 1712   0.793   3.443   4.890
  569TIP3    H1 1713   0.779   3.474   4.801
  569TIP3    H2 1714   0.705   3.430   4.925
  570TIP3   OH2 1715   4.231   2.933   1.222
  570TIP3    H1 1716   4.296   2.908   1.156
  570TIP3    H2 1717   4.229   2.859   1.283
  571TIP3   OH2 1718   5.297   1.085   4.067
  571TIP3    H1 1719   5.301   0.990   4.076
  571TIP3    H2 1720   5.386   1.111   4.043
  572TIP3   OH2 1721   3.332   2.341   1.296
  572TIP3    H1 1722   3.427   2.339   1.282
  572TIP3    H2 1723   3.316   2.422   1.344
  573TIP3   OH2 1724   1.684   4.722   0.909
  573TIP3    H1 1725   1.697   4.792   0.846
  573TIP3    H2 1726   1.631   4.657   0.863
  574TIP3   OH2 1727   4.164   5.278   2.139
  574TIP3    H1 1728   4.071   5.301   2.144
  574TIP3    H2 1729   4.209   5.356   2.172
  575TIP3   OH2 1730   2.416   3.457   3.436
  575TIP3    H1 1731   2.380   3.516   3.370
  575TIP3    H2 1732   2.434   3.512   3.512
  576TIP3   OH2 1733   4.798   3.395   0.823
  576TIP3    H1 1734   4.703   3.391   0.809
  576TIP3    H2 1735   4.814   3.333   0.894
  577TIP3   OH2 1736   3.293   1.419   0.163
  577TIP3    H1 1737   3.258   1.339   0.124
  577TIP3    H2 1738   3.388   1.412   0.152
  578TIP3   OH2 1739   4.248   1.595   3.691
  578TIP3    H1 1740   4.224   1.560   3.605
  578TIP3    H2 1741   4.304   1.669   3.672
  579TIP3   OH2 1742   5.219   4.335   3.689
  579TIP3    H1 1743   5.164   4.257   3.687
  579TIP3    H2 1744   5.227   4.357   3.782
  580TIP3   OH2 1745   2.289   2.769   1.792
  580TIP3    H1 1746   2.313   2.862   1.787
  580TIP3    H2 1747   2.362   2.724   1.749
  581TIP3   OH2 1748   2.562   0.269   2.382
  581TIP3    H1 1749   2.513   0.318   2.449
  581TIP3    H2 1750   2.532   0.307   2.299
  582TIP3   OH2 1751   2.915   5.605   2.518
  582TIP3    H1 1752   2.838   5.550   2.506
  582TIP3    H2 1753   2.959   5.568   2.595
  583TIP3   OH2 1754   6.055   2.827   0.993
  583TIP3    H1 1755   6.076   2.773   1.068
  583TIP3    H2 1756   6.134   2.824   0.939
  584TIP3   OH2 1757   4.850   4.709   3.351
  584TIP3    H1 1758   4.919   4.751   3.300
  584TIP3    H2 1759   4.836   4.624   3.308
  585TIP3   OH2 1760   2.069   2.098   4.042
  585TIP3    H1 1761   2.046   2.137   4.126
  585TIP3    H2 1762   1.994   2.044   4.019
  586TIP3   OH2 1763   1.802   0.037   2.843
  586TIP3    H1 1764   1.883   0.039   2.894
  586TIP3    H2 1765   1.796   0.125   2.806
  587TIP3   OH2 1766   0.948   5.669   0.739
  587TIP3    H1 1767   0.982   5.633   0.821
  587TIP3    H2 1768   0.855   5.646   0.739
  588TIP3   OH2 1769   4.545   5.194   2.676
  588TIP3    H1 1770   4.525   5.287   2.666
  588TIP3    H2 1771   4.530   5.175   2.768
  589TIP3   OH2 1772   5.891   0.380   3.913
  589TIP3    H1 1773   5.879   0.299   3.863
  589TIP3    H2 1774   5.959   0.428   3.866
  590TIP3   OH2 1775   1.513   3.831   0.714
  590TIP3    H1 1776   1.494   3.922   0.694
  590TIP3    H2 1777   1.468   3.782   0.645
  591TIP3   OH2 1778   4.371   5.111   3.171
  591TIP3    H1 1779   4.281   5.128   3.141
  591TIP3    H2 1780   4.366   5.024   3.211
  592TIP3   OH2 1781   5.959   3.066   2.759
  592TIP3    H1 1782   6.024   3.071   2.830
  592TIP3    H2 1783   5.909   2.987   2.778
  593TIP3   OH2 1784   0.171   0.946   4.414
  593TIP3    H1 1785   0.238   1.014   4.403
  593TIP3    H2 1786   0.141   0.957   4.504
  594TIP3   OH2 1787   2.115   3.678   4.071
  594TIP3    H1 1788   2.139   3.586   4.072
  594TIP3    H2 1789   2.171   3.718   4.138
  595TIP3   OH2 1790   2.681   2.202   0.074
  595TIP3    H1 1791   2.690   2.284   0.123
  595TIP3    H2 1792   2.770   2.181   0.046
  596TIP3   OH2 1793   1.867   5.145   2.443
  596TIP3    H1 1794   1.898   5.056   2.425
  596TIP3    H2 1795   1.777   5.134   2.473
  597TIP3   OH2 1796   3.708   5.023   1.391
  597TIP3    H1 1797   3.731   4.943   1.345
  597TIP3    H2 1798   3.748   5.013   1.478
  598TIP3   OH2 1799   4.845   5.006   4.554
  598TIP3    H1 1800   4.818   5.097   4.569
  598TIP3    H2 1801   4.939   5.012   4.537
  599TIP3   OH2 1802   4.492   2.502   0.723
  599TIP3    H1 1803   4.428   2.455   0.776
  599TIP3    H2 1804   4.442   2.537   0.649
  600TIP3   OH2 1805   1.096   4.084   2.726
  600TIP3    H1 1806   1.178   4.039   2.710
  600TIP3    H2 1807   1.030   4.032   2.680
  601TIP3   OH2 1808   2.765   0.441   0.365
  601TIP3    H1 1809   2.787   0.418   0.456
  601TIP3    H2 1810   2.670   0.431   0.360
  602TIP3   OH2 1811   0.210   4.791   2.365
  602TIP3    H1 1812   0.169   4.762   2.446
  602TIP3    H2 1813   0.273   4.722   2.343
  603TIP3   OH2 1814   4.696   2.535   1.336
  603TIP3    H1 1815   4.665   2.620   1.370
  603TIP3    H2 1816   4.622   2.502   1.285
  604TIP3   OH2 1817   1.642   1.164   0.746
  604TIP3    H1 1818   1.724   1.114   0.741
  604TIP3    H2 1819   1.609   1.167   0.656
  605TIP3   OH2 1820   6.204   0.161   1.431
  605TIP3    H1 1821   6.229   0.094   1.495
  605TIP3    H2 1822   6.137   0.212   1.476
  606TIP3   OH2 1823   2.428   3.355   0.727
  606TIP3    H1 1824   2.377   3.415   0.783
  606TIP3    H2 1825   2.448   3.407   0.649
  607TIP3   OH2 1826   4.207   0.708   4.629
  607TIP3    H1 1827   4.279   0.747   4.579
  607TIP3    H2 1828   4.136   0.772   4.623
  608TIP3   OH2 1829   3.001   3.410   0.865
  608TIP3    H1 1830   3.062   3.473   0.904
  608TIP3    H2 1831   2.916   3.434   0.902
  609TIP3   OH2 1832   2.039   5.010   0.410
  609TIP3    H1 1833   1.994   5.081   0.366
  609TIP3    H2 1834   1.984   4.989   0.486
  610TIP3   OH2 1835   5.815   5.177   2.513
  610TIP3    H1 1836   5.857   5.165   2.428
  610TIP3    H2 1837   5.823   5.271   2.530
  611TIP3   OH2 1838   5.011   4.774   2.473
  611TIP3    H1 1839   5.002   4.838   2.544
  611TIP3    H2 1840   5.041   4.694   2.516
  612TIP3   OH2 1841   0.368   4.224   3.841
  612TIP3    H1 1842   0.295   4.244   3.899
  612TIP3    H2 1843   0.383   4.306   3.793
  613TIP3   OH2 1844   5.065   3.485   2.439
  613TIP3    H1 1845   5.155   3.490   2.470
  613TIP3    H2 1846   5.027   3.570   2.461
  614TIP3   OH2 1847   1.452   3.585   3.898
  614TIP3    H1 1848   1.443   3.639   3.976
  614TIP3    H2 1849   1.534   3.538   3.910
  615TIP3   OH2 1850   0.749   1.672   0.917
  615TIP3    H1 1851   0.813   1.743   0.919
  615TIP3    H2 1852   0.725   1.664   0.824
  616TIP3   OH2 1853   0.897   3.039   1.261
  616TIP3    H1 1854   0.949   3.091   1.200
  616TIP3    H2 1855   0.962   2.994   1.315
  617TIP3   OH2 1856   0.058   5.878   3.080
  617TIP3    H1 1857   0.123   5.932   3.125
  617TIP3    H2 1858   0.063   5.793   3.124
  618TIP3   OH2 1859   2.117   1.825   4.234
  618TIP3    H1 1860   2.120   1.766   4.158
  618TIP3    H2 1861   2.208   1.853   4.246
  619TIP3   OH2 1862   4.015   4.553   1.860
  619TIP3    H1 1863   3.945   4.501   1.900
  619TIP3    H2 1864   3.969   4.609   1.797
  620TIP3   OH2 1865   0.940   0.558   4.904
  620TIP3    H1 1866   0.847   0.582   4.902
  620TIP3    H2 1867   0.964   0.565   4.996
  621TIP3   OH2 1868   4.204   0.358   1.016
  621TIP3    H1 1869   4.223   0.316   1.100
  621TIP3    H2 1870   4.270   0.323   0.956
  622TIP3   OH2 1871   4.343   4.715   3.063
  622TIP3    H1 1872   4.312   4.666   2.987
  622TIP3    H2 1873   4.285   4.687   3.134
  623TIP3   OH2 1874   0.793   1.302   2.369
  623TIP3    H1 1875   0.729   1.358   2.325
  623TIP3    H2 1876   0.812   1.233   2.306
  624TIP3   OH2 1877   1.014   5.068   0.716
  624TIP3    H1 1878   1.031   5.147   0.664
  624TIP3    H2 1879   1.078   5.072   0.787
  625TIP3   OH2 1880   1.898   3.635   0.416
  625TIP3    H1 1881   1.959   3.645   0.343
  625TIP3    H2 1882   1.841   3.712   0.410
  626TIP3   OH2 1883   3.098   3.718   4.527
  626TIP3    H1 1884   3.152   3.735   4.450
  626TIP3    H2 1885   3.140   3.769   4.597
  627TIP3   OH2 1886   4.779   0.875   3.287
  627TIP3    H1 1887   4.688   0.845   3.282
  627TIP3    H2 1888   4.803   0.862   3.379
  628TIP3   OH2 1889   2.656   3.495   4.773
  628TIP3    H1 1890   2.705   3.568   4.734
  628TIP3    H2 1891   2.570   3.533   4.792
  629TIP3   OH2 1892   1.658   1.982   5.098
  629TIP3    H1 1893   1.681   2.048   5.163
  629TIP3    H2 1894   1.682   2.022   5.014
  630TIP3   OH2 1895   4.222   3.611   2.637
  630TIP3    H1 1896   4.284   3.682   2.620
  630TIP3    H2 1897   4.192   3.626   2.726
  631TIP3   OH2 1898   0.621   2.012   1.508
  631TIP3    H1 1899   0.665   1.980   1.429
  631TIP3    H2 1900   0.595   1.933   1.555
  632TIP3   OH2 1901   2.902   3.931   4.518
  632TIP3    H1 1902   2.968   3.862   4.511
  632TIP3    H2 1903   2.952   4.011   4.536
  633TIP3   OH2 1904   1.129   4.645   0.280
  633TIP3    H1 1905   1.203   4.702   0.303
  633TIP3    H2 1906   1.122   4.654   0.185
  634TIP3   OH2 1907   2.861   0.682   4.957
  634TIP3    H1 1908   2.922   0.613   4.931
  634TIP3    H2 1909   2.916   0.759   4.970
  635TIP3   OH2 1910   6.133   4.560   4.405
  635TIP3    H1 1911   6.069   4.525   4.343
  635TIP3    H2 1912   6.109   4.653   4.414
  636TIP3   OH2 1913   5.262   2.356   4.449
  636TIP3    H1 1914   5.354   2.330   4.452
  636TIP3    H2 1915   5.223   2.302   4.380
  637TIP3   OH2 1916   5.034   1.778   3.884
  637TIP3    H1 1917   4.959   1.835   3.865
  637TIP3    H2 1918   4.997   1.705   3.933
  638TIP3   OH2 1919   4.337   5.739   2.778
  638TIP3    H1 1920   4.359   5.656   2.734
  638TIP3    H2 1921   4.347   5.805   2.710
  639TIP3   OH2 1922   2.890   0.201   1.550
  639TIP3    H1 1923   2.955   0.252   1.597
  639TIP3    H2 1924   2.873   0.251   1.470
  640TIP3   OH2 1925   0.232   1.466   1.193
  640TIP3    H1 1926   0.301   1.461   1.126
  640TIP3    H2 1927   0.151   1.481   1.143
  641TIP3   OH2 1928   6.117   0.252   4.968
  641TIP3    H1 1929   6.044   0.311   4.950
  641TIP3    H2 1930   6.133   0.262   5.062
  642TIP3   OH2 1931   1.086   5.096   2.404
  642TIP3    H1 1932   0.998   5.075   2.373
  642TIP3    H2 1933   1.091   5.057   2.491
  643TIP3   OH2 1934   0.313   1.053   0.566
  643TIP3    H1 1935   0.382   0.990   0.587
  643TIP3    H2 1936   0.281   1.082   0.651
  644TIP3   OH2 1937   1.700   3.688   4.727
  644TIP3    H1 1938   1.643   3.645   4.663
  644TIP3    H2 1939   1.787   3.684   4.688
  645TIP3   OH2 1940   1.987   0.825   0.875
  645TIP3    H1 1941   1.926   0.861   0.811
  645TIP3    H2 1942   1.968   0.874   0.956
  646TIP3   OH2 1943   0.156   2.161   2.227
  646TIP3    H1 1944   0.101   2.176   2.304
  646TIP3    H2 1945   0.129   2.228   2.164
  647TIP3   OH2 1946   1.472   4.455   0.817
  647TIP3    H1 1947   1.531   4.442   0.743
  647TIP3    H2 1948   1.502   4.394   0.884
  648TIP3   OH2 1949   5.460   0.664   2.759
  648TIP3    H1 1950   5.487   0.659   2.668
  648TIP3    H2 1951   5.457   0.572   2.788
  649TIP3   OH2 1952   1.478   0.301   3.738
  649TIP3    H1 1953   1.403   0.314   3.796
  649TIP3    H2 1954   1.516   0.388   3.727
  650TIP3   OH2 1955   1.981   0.052   3.625
  650TIP3    H1 1956   1.989   0.139   3.664
  650TIP3    H2 1957   1.891   0.048   3.594
  651TIP3   OH2 1958   4.587   2.288   4.102
  651TIP3    H1 1959   4.653   2.219   4.098
  651TIP3    H2 1960   4.525   2.257   4.169
  652TIP3   OH2 1961   5.960   3.521   0.340
  652TIP3    H1 1962   5.967   3.598   0.283
  652TIP3    H2 1963   6.049   3.505   0.370
  653TIP3   OH2 1964   3.044   2.814   4.146
  653TIP3    H1 1965   2.972   2.791   4.204
  653TIP3    H2 1966   3.040   2.750   4.075
  654TIP3   OH2 1967   3.597   3.668   4.025
  654TIP3    H1 1968   3.579   3.743   4.081
  654TIP3    H2 1969   3.622   3.598   4.085
  655TIP3   OH2 1970   2.239   2.779   1.281
  655TIP3    H1 1971   2.305   2.750   1.218
  655TIP3    H2 1972   2.259   2.729   1.361
  656TIP3   OH2 1973   3.156   3.819   2.075
  656TIP3    H1 1974   3.216   3.890   2.097
  656TIP3    H2 1975   3.092   3.818   2.147
  657TIP3   OH2 1976   5.212   0.982   0.326
  657TIP3    H1 1977   5.262   1.016   0.252
  657TIP3    H2 1978   5.141   0.931   0.285
  658TIP3   OH2 1979   5.884   4.316   4.370
  658TIP3    H1 1980   5.790   4.312   4.391
  658TIP3    H2 1981   5.926   4.272   4.444
  659TIP3   OH2 1982   1.259   2.078   3.013
  659TIP3    H1 1983   1.342   2.073   2.965
  659TIP3    H2 1984   1.194   2.100   2.946
  660TIP3   OH2 1985   6.156   4.685   4.737
  660TIP3    H1 1986   6.149   4.723   4.650
  660TIP3    H2 1987   6.248   4.661   4.746
  661TIP3   OH2 1988   1.499   2.798   3.023
  661TIP3    H1 1989   1.557   2.765   2.954
  661TIP3    H2 1990   1.558   2.833   3.089
  662TIP3   OH2 1991   3.004   2.493   4.449
  662TIP3    H1 1992   3.062   2.427   4.489
  662TIP3    H2 1993   2.938   2.442   4.403
  663TIP3   OH2 1994   0.842   1.067   3.599
  663TIP3    H1 1995   0.894   1.059   3.679
  663TIP3    H2 1996   0.869   1.150   3.561
  664TIP3   OH2 1997   2.669   4.506   1.977
  664TIP3    H1 1998   2.757   4.490   2.013
  664TIP3    H2 1999   2.671   4.464   1.891
  665TIP3   OH2 2000   3.250   5.789   3.792
  665TIP3    H1 2001   3.312   5.793   3.865
  665TIP3    H2 2002   3.285   5.851   3.727
  666TIP3   OH2 2003   1.391   4.778   1.013
  666TIP3    H1 2004   1.414   4.815   0.928
  666TIP3    H2 2005   1.392   4.852   1.073
  667TIP3   OH2 2006   1.249   2.447   1.850
  667TIP3    H1 2007   1.330   2.492   1.828
  667TIP3    H2 2008   1.230   2.392   1.774
  668TIP3   OH2 2009   3.391   1.837   2.004
  668TIP3    H1 2010   3.462   1.883   1.959
  668TIP3    H2 2011   3.420   1.746   2.008
  669TIP3   OH2 2012   1.003   4.452   1.038
  669TIP3    H1 2013   0.936   4.478   0.975
  669TIP3    H2 2014   1.082   4.441   0.986
  670TIP3   OH2 2015   5.663   2.022   4.928
  670TIP3    H1 2016   5.741   2.062   4.966
  670TIP3    H2 2017   5.619   2.093   4.882
  671TIP3   OH2 2018   1.201   0.818   1.592
  671TIP3    H1 2019   1.219   0.852   1.680
  671TIP3    H2 2020   1.278   0.843   1.541
  672TIP3   OH2 2021   5.603   5.865   2.742
  672TIP3    H1 2022   5.591   5.954   2.710
  672TIP3    H2 2023   5.682   5.834   2.697
  673TIP3   OH2 2024   1.532   5.573   2.447
  673TIP3    H1 2025   1.443   5.581   2.412
  673TIP3    H2 2026   1.564   5.491   2.411
  674TIP3   OH2 2027   1.558   2.598   1.087
  674TIP3    H1 2028   1.549   2.614   1.181
  674TIP3    H2 2029   1.493   2.531   1.068
  675TIP3   OH2 2030   5.966   1.746   2.218
  675TIP3    H1 2031   5.901   1.725   2.152
  675TIP3    H2 2032   5.995   1.662   2.252
  676TIP3   OH2 2033   1.364   3.371   1.574
  676TIP3    H1 2034   1.437   3.314   1.550
  676TIP3    H2 2035   1.298   3.355   1.507
  677TIP3   OH2 2036   0.533   1.989   2.611
  677TIP3    H1 2037   0.443   1.964   2.589
  677TIP3    H2 2038   0.523   2.061   2.674
  678TIP3   OH2 2039   2.383   2.691   0.027
  678TIP3    H1 2040   2.299   2.709  -0.014
  678TIP3    H2 2041   2.425   2.628  -0.031
  679TIP3   OH2 2042   5.448   0.382   1.118
  679TIP3    H1 2043   5.475   0.291   1.117
  679TIP3    H2 2044   5.477   0.417   1.033
  680TIP3   OH2 2045   3.608   2.747   2.140
  680TIP3    H1 2046   3.646   2.771   2.055
  680TIP3    H2 2047   3.513   2.757   2.128
  681TIP3   OH2 2048   1.224   2.446   4.075
  681TIP3    H1 2049   1.280   2.497   4.134
  681TIP3    H2 2050   1.135   2.463   4.105
  682TIP3   OH2 2051   1.537   4.665   3.150
  682TIP3    H1 2052   1.456   4.623   3.179
  682TIP3    H2 2053   1.606   4.608   3.183
  683TIP3   OH2 2054   0.714   3.631   4.662
  683TIP3    H1 2055   0.623   3.607   4.643
  683TIP3    H2 2056   0.731   3.708   4.607
  684TIP3   OH2 2057   3.225   2.221   3.836
  684TIP3    H1 2058   3.183   2.276   3.770
  684TIP3    H2 2059   3.213   2.270   3.918
  685TIP3   OH2 2060   2.375   0.461   1.356
  685TIP3    H1 2061   2.415   0.379   1.386
  685TIP3    H2 2062   2.384   0.458   1.261
  686TIP3   OH2 2063   2.039   5.192   2.839
  686TIP3    H1 2064   2.134   5.178   2.836
  686TIP3    H2 2065   2.008   5.160   2.755
  687TIP3   OH2 2066   1.676   2.089   3.672
  687TIP3    H1 2067   1.582   2.079   3.657
  687TIP3    H2 2068   1.683   2.117   3.763
  688TIP3   OH2 2069   4.614   5.270   3.584
  688TIP3    H1 2070   4.688   5.226   3.543
  688TIP3    H2 2071   4.538   5.238   3.537
  689TIP3   OH2 2072   2.482   0.615   1.579
  689TIP3    H1 2073   2.446   0.582   1.497
  689TIP3    H2 2074   2.406   0.630   1.635
  690TIP3   OH2 2075   4.622   3.001   0.881
  690TIP3    H1 2076   4.705   2.966   0.914
  690TIP3    H2 2077   4.643   3.031   0.792
  691TIP3   OH2 2078   4.423   1.447   3.323
  691TIP3    H1 2079   4.470   1.462   3.405
  691TIP3    H2 2080   4.482   1.392   3.271
  692TIP3   OH2 2081   0.599   4.057   2.063
  692TIP3    H1 2082   0.652   4.137   2.068
  692TIP3    H2 2083   0.529   4.071   2.127
  693TIP3   OH2 2084   4.703   2.602   0.000
  693TIP3    H1 2085   4.744   2.688   0.005
  693TIP3    H2 2086   4.640   2.600   0.072
  694TIP3   OH2 2087   4.915   2.860   4.881
  694TIP3    H1 2088   4.909   2.764   4.888
  694TIP3    H2 2089   4.835   2.891   4.923
  695TIP3   OH2 2090   2.215   0.555   1.743
  695TIP3    H1 2091   2.173   0.499   1.677
  695TIP3    H2 2092   2.157   0.631   1.750
  696TIP3   OH2 2093   2.543   3.810   0.044
  696TIP3    H1 2094   2.628   3.785   0.080
  696TIP3    H2 2095   2.498   3.854   0.116
  697TIP3   OH2 2096   2.702   4.282   4.794
  697TIP3    H1 2097   2.680   4.199   4.837
  697TIP3    H2 2098   2.651   4.281   4.713
  698TIP3   OH2 2099   4.756   4.216   1.264
  698TIP3    H1 2100   4.757   4.311   1.249
  698TIP3    H2 2101   4.771   4.207   1.358
  699TIP3   OH2 2102   2.692   4.472   3.402
  699TIP3    H1 2103   2.749   4.431   3.338
  699TIP3    H2 2104   2.691   4.565   3.377
  700TIP3   OH2 2105   3.875   3.202   5.265
  700TIP3    H1 2106   3.918   3.280   5.300
  700TIP3    H2 2107   3.918   3.186   5.181
  701TIP3   OH2 2108   2.674   3.505   2.791
  701TIP3    H1 2109   2.729   3.472   2.862
  701TIP3    H2 2110   2.630   3.582   2.828
  702TIP3   OH2 2111   3.337   5.020   4.031
  702TIP3    H1 2112   3.342   5.097   3.975
  702TIP3    H2 2113   3.399   5.037   4.101
  703TIP3   OH2 2114   3.967   5.301   3.471
  703TIP3    H1 2115   3.881   5.263   3.453
  703TIP3    H2 2116   3.969   5.313   3.566
  704TIP3   OH2 2117   0.966   2.933   4.654
  704TIP3    H1 2118   0.889   2.879   4.640
  704TIP3    H2 2119   1.040   2.874   4.638
  705TIP3   OH2 2120   1.730   2.627   4.934
  705TIP3    H1 2121   1.786   2.658   4.862
  705TIP3    H2 2122   1.773   2.659   5.013
  706TIP3   OH2 2123   0.513   4.749   2.541
  706TIP3    H1 2124   0.453   4.724   2.472
  706TIP3    H2 2125   0.573   4.811   2.500
  707TIP3   OH2 2126   5.025   4.363   1.713
  707TIP3    H1 2127   5.075   4.282   1.728
  707TIP3    H2 2128   4.992   4.386   1.800
  708TIP3   OH2 2129   6.179   3.770   1.505
  708TIP3    H1 2130   6.211   3.728   1.425
  708TIP3    H2 2131   6.099   3.723   1.526
  709TIP3   OH2 2132   4.341   2.408   0.481
  709TIP3    H1 2133   4.249   2.429   0.464
  709TIP3    H2 2134   4.344   2.312   0.479
  710TIP3   OH2 2135   4.794   3.500   5.088
  710TIP3    H1 2136   4.702   3.494   5.064
  710TIP3    H2 2137   4.841   3.467   5.012
  711TIP3   OH2 2138   5.023   4.404   2.212
  711TIP3    H1 2139   4.960   4.399   2.140
  711TIP3    H2 2140   5.060   4.492   2.205
  712TIP3   OH2 2141   3.842  -0.017   4.025
  712TIP3    H1 2142   3.823   0.054   3.963
  712TIP3    H2 2143   3.863   0.028   4.107
  713TIP3   OH2 2144   1.861   0.880   2.018
  713TIP3    H1 2145   1.952   0.853   2.028
  713TIP3    H2 2146   1.858   0.969   2.051
  714TIP3   OH2 2147   3.660   4.105   4.005
  714TIP3    H1 2148   3.690   4.106   4.096
  714TIP3    H2 2149   3.703   4.028   3.968
  715TIP3   OH2 2150   0.948   3.857   0.781
  715TIP3    H1 2151   0.909   3.833   0.696
  715TIP3    H2 2152   0.932   3.781   0.836
  716TIP3   OH2 2153   2.681   1.233   4.902
  716TIP3    H1 2154   2.704   1.148   4.939
  716TIP3    H2 2155   2.765   1.273   4.879
  717TIP3   OH2 2156   4.301   4.782   2.216
  717TIP3    H1 2157   4.271   4.740   2.135
  717TIP3    H2 2158   4.260   4.732   2.286
  718TIP3   OH2 2159   1.610   1.824   1.282
  718TIP3    H1 2160   1.530   1.861   1.321
  718TIP3    H2 2161   1.579   1.776   1.205
  719TIP3   OH2 2162   1.345   3.967   1.580
  719TIP3    H1 2163   1.372   4.000   1.665
  719TIP3    H2 2164   1.394   3.885   1.570
  720TIP3   OH2 2165   5.110   4.154   2.358
  720TIP3    H1 2166   5.060   4.235   2.371
  720TIP3    H2 2167   5.199   4.184   2.339
  721TIP3   OH2 2168   0.678   2.917   1.456
  721TIP3    H1 2169   0.729   2.879   1.384
  721TIP3    H2 2170   0.722   3.000   1.476
  722TIP3   OH2 2171   0.440   4.492   0.925
  722TIP3    H1 2172   0.517   4.499   0.982
  722TIP3    H2 2173   0.369   4.468   0.984
  723TIP3   OH2 2174   0.348   4.119   2.272
  723TIP3    H1 2175   0.410   4.069   2.325
  723TIP3    H2 2176   0.263   4.077   2.288
  724TIP3   OH2 2177   2.198   5.436   2.128
  724TIP3    H1 2178   2.134   5.365   2.126
  724TIP3    H2 2179   2.282   5.392   2.135
  725TIP3   OH2 2180   5.265   1.889   1.836
  725TIP3    H1 2181   5.343   1.921   1.790
  725TIP3    H2 2182   5.228   1.823   1.777
  726TIP3   OH2 2183   2.897   3.375   1.290
  726TIP3    H1 2184   2.829   3.394   1.355
  726TIP3    H2 2185   2.954   3.313   1.333
  727TIP3   OH2 2186   3.274   4.235   1.097
  727TIP3    H1 2187   3.184   4.248   1.067
  727TIP3    H2 2188   3.328   4.264   1.023
  728TIP3   OH2 2189   2.840   5.905   1.838
  728TIP3    H1 2190   2.868   5.988   1.877
  728TIP3    H2 2191   2.866   5.912   1.747
  729TIP3   OH2 2192   5.957   0.795   2.042
  729TIP3    H1 2193   5.870   0.834   2.030
  729TIP3    H2 2194   5.942   0.701   2.036
  730TIP3   OH2 2195   5.787   4.163   1.376
  730TIP3    H1 2196   5.875   4.193   1.398
  730TIP3    H2 2197   5.734   4.190   1.451
  731TIP3   OH2 2198   3.274   3.926   2.507
  731TIP3    H1 2199   3.239   3.889   2.426
  731TIP3    H2 2200   3.247   4.017   2.505
  732TIP3   OH2 2201   0.516   0.925   4.515
  732TIP3    H1 2202   0.493   0.869   4.590
  732TIP3    H2 2203   0.561   0.867   4.455
  733TIP3   OH2 2204   2.366   3.675   2.939
  733TIP3    H1 2205   2.445   3.722   2.911
  733TIP3    H2 2206   2.395   3.624   3.015
  734TIP3   OH2 2207   0.851   1.858   5.005
  734TIP3    H1 2208   0.867   1.780   5.059
  734TIP3    H2 2209   0.777   1.902   5.048
  735TIP3   OH2 2210   5.328   3.800   3.905
  735TIP3    H1 2211   5.369   3.885   3.920
  735TIP3    H2 2212   5.370   3.768   3.825
  736TIP3   OH2 2213   0.383   3.479   2.377
  736TIP3    H1 2214   0.361   3.562   2.334
  736TIP3    H2 2215   0.445   3.437   2.317
  737TIP3   OH2 2216   3.187   5.394   4.855
  737TIP3    H1 2217   3.241   5.470   4.875
  737TIP3    H2 2218   3.151   5.412   4.768
  738TIP3   OH2 2219   4.775   0.230   1.702
  738TIP3    H1 2220   4.795   0.238   1.795
  738TIP3    H2 2221   4.853   0.264   1.658
  739TIP3   OH2 2222   0.574   5.855   4.400
  739TIP3    H1 2223   0.630   5.922   4.438
  739TIP3    H2 2224   0.490   5.899   4.387
  740TIP3   OH2 2225   5.934   4.250   2.907
  740TIP3    H1 2226   5.956   4.174   2.960
  740TIP3    H2 2227   5.922   4.321   2.970
  741TIP3   OH2 2228   0.679   5.441   1.366
  741TIP3    H1 2229   0.654   5.453   1.458
  741TIP3    H2 2230   0.627   5.365   1.337
  742TIP3   OH2 2231   3.831   1.085   4.713
  742TIP3    H1 2232   3.827   1.180   4.716
  742TIP3    H2 2233   3.749   1.059   4.670
  743TIP3   OH2 2234   0.854   2.645   3.400
  743TIP3    H1 2235   0.851   2.728   3.352
  743TIP3    H2 2236   0.880   2.580   3.335
  744TIP3   OH2 2237   4.015   4.802   1.415
  744TIP3    H1 2238   3.976   4.790   1.328
  744TIP3    H2 2239   4.009   4.716   1.456
  745TIP3   OH2 2240   1.020   5.144   1.142
  745TIP3    H1 2241   1.069   5.156   1.223
  745TIP3    H2 2242   1.001   5.051   1.137
  746TIP3   OH2 2243   5.502   0.223   2.487
  746TIP3    H1 2244   5.545   0.227   2.402
  746TIP3    H2 2245   5.490   0.130   2.503
  747TIP3   OH2 2246   1.680   1.032   1.776
  747TIP3    H1 2247   1.713   1.085   1.848
  747TIP3    H2 2248   1.687   0.942   1.807
  748TIP3   OH2 2249   4.257   5.152   0.144
  748TIP3    H1 2250   4.278   5.189   0.230
  748TIP3    H2 2251   4.282   5.221   0.082
  749TIP3   OH2 2252   3.663   3.668   2.246
  749TIP3    H1 2253   3.739   3.712   2.208
  749TIP3    H2 2254   3.598   3.667   2.176
  750TIP3   OH2 2255   3.035   4.749   0.861
  750TIP3    H1 2256   3.026   4.682   0.793
  750TIP3    H2 2257   3.082   4.706   0.932
  751TIP3   OH2 2258   0.716   4.088   2.973
  751TIP3    H1 2259   0.691   4.060   2.885
  751TIP3    H2 2260   0.788   4.030   2.997
  752TIP3   OH2 2261   4.543   4.844   0.237
  752TIP3    H1 2262   4.638   4.859   0.237
  752TIP3    H2 2263   4.533   4.753   0.266
  753TIP3   OH2 2264   2.124   2.373   2.403
  753TIP3    H1 2265   2.062   2.312   2.362
  753TIP3    H2 2266   2.110   2.455   2.357
  754TIP3   OH2 2267   1.266   0.760   4.017
  754TIP3    H1 2268   1.327   0.718   4.078
  754TIP3    H2 2269   1.251   0.847   4.056
  755TIP3   OH2 2270   1.947   1.985   3.665
  755TIP3    H1 2271   2.014   2.050   3.684
  755TIP3    H2 2272   1.864   2.031   3.678
  756TIP3   OH2 2273   2.571   1.977   2.399
  756TIP3    H1 2274   2.556   1.951   2.490
  756TIP3    H2 2275   2.515   2.054   2.387
  757TIP3   OH2 2276   2.248   2.239   0.252
  757TIP3    H1 2277   2.341   2.260   0.251
  757TIP3    H2 2278   2.245   2.144   0.246
  758TIP3   OH2 2279   2.704   5.853   2.244
  758TIP3    H1 2280   2.689   5.797   2.168
  758TIP3    H2 2281   2.796   5.879   2.236
  759TIP3   OH2 2282   2.412   5.034   4.080
  759TIP3    H1 2283   2.472   5.054   4.153
  759TIP3    H2 2284   2.327   5.064   4.111
  760TIP3   OH2 2285   1.366   1.059   2.358
  760TIP3    H1 2286   1.403   1.140   2.395
  760TIP3    H2 2287   1.283   1.047   2.405
  761TIP3   OH2 2288   6.161   2.239   0.462
  761TIP3    H1 2289   6.235   2.234   0.402
  761TIP3    H2 2290   6.200   2.258   0.548
  762TIP3   OH2 2291   2.640   2.297   2.062
  762TIP3    H1 2292   2.673   2.222   2.112
  762TIP3    H2 2293   2.718   2.334   2.021
  763TIP3   OH2 2294   1.099   5.478   1.759
  763TIP3    H1 2295   1.025   5.512   1.708
  763TIP3    H2 2296   1.103   5.385   1.737
  764TIP3   OH2 2297   0.823   2.618   2.882
  764TIP3    H1 2298   0.762   2.604   2.955
  764TIP3    H2 2299   0.827   2.714   2.873
  765TIP3   OH2 2300   2.249   1.004   5.033
  765TIP3    H1 2301   2.282   0.917   5.059
  765TIP3    H2 2302   2.190   1.029   5.105
  766TIP3   OH2 2303   0.784   1.937   2.704
  766TIP3    H1 2304   0.701   1.932   2.658
  766TIP3    H2 2305   0.826   2.016   2.669
  767TIP3   OH2 2306   5.379   1.868   3.173
  767TIP3    H1 2307   5.395   1.922   3.096
  767TIP3    H2 2308   5.422   1.915   3.245
  768TIP3   OH2 2309   2.797   4.106   0.128
  768TIP3    H1 2310   2.744   4.058   0.064
  768TIP3    H2 2311   2.737   4.125   0.200
  769TIP3   OH2 2312   4.492   3.768   2.282
  769TIP3    H1 2313   4.415   3.781   2.339
  769TIP3    H2 2314   4.455   3.740   2.199
  770TIP3   OH2 2315   4.540   4.328   0.686
  770TIP3    H1 2316   4.469   4.265   0.675
  770TIP3    H2 2317   4.495   4.412   0.696
  771TIP3   OH2 2318   0.821   5.636   4.523
  771TIP3    H1 2319   0.863   5.705   4.574
  771TIP3    H2 2320   0.864   5.639   4.437
  772TIP3   OH2 2321   4.686   4.461   3.886
  772TIP3    H1 2322   4.765   4.412   3.908
  772TIP3    H2 2323   4.713   4.519   3.815
  773TIP3   OH2 2324   0.647   3.722   3.500
  773TIP3    H1 2325   0.594   3.747   3.576
  773TIP3    H2 2326   0.641   3.626   3.497
  774TIP3   OH2 2327   1.188   3.874   3.586
  774TIP3    H1 2328   1.226   3.820   3.655
  774TIP3    H2 2329   1.094   3.856   3.591
  775TIP3   OH2 2330   2.919   0.492   3.544
  775TIP3    H1 2331   2.949   0.474   3.455
  775TIP3    H2 2332   2.828   0.463   3.545
  776TIP3   OH2 2333   2.044   4.602   3.337
  776TIP3    H1 2334   2.053   4.582   3.244
  776TIP3    H2 2335   2.079   4.691   3.347
  777TIP3   OH2 2336   1.637   4.734   3.502
  777TIP3    H1 2337   1.592   4.817   3.515
  777TIP3    H2 2338   1.568   4.669   3.499
  778TIP3   OH2 2339   0.784   0.768   0.020
  778TIP3    H1 2340   0.711   0.734   0.072
  778TIP3    H2 2341   0.747   0.781  -0.067
  779TIP3   OH2 2342   2.375   3.938   0.238
  779TIP3    H1 2343   2.339   4.021   0.208
  779TIP3    H2 2344   2.330   3.920   0.320
  780TIP3   OH2 2345   1.209   0.994   4.161
  780TIP3    H1 2346   1.209   1.003   4.256
  780TIP3    H2 2347   1.267   1.064   4.130
  781TIP3   OH2 2348   2.788   5.816   1.052
  781TIP3    H1 2349   2.749   5.730   1.033
  781TIP3    H2 2350   2.877   5.796   1.082
  782TIP3   OH2 2351   1.939   0.818   4.263
  782TIP3    H1 2352   1.902   0.835   4.350
  782TIP3    H2 2353   2.031   0.844   4.271
  783TIP3   OH2 2354   0.406   5.373   2.021
  783TIP3    H1 2355   0.457   5.348   2.098
  783TIP3    H2 2356   0.451   5.332   1.948
  784TIP3   OH2 2357   5.108   1.674   0.392
  784TIP3    H1 2358   5.152   1.754   0.364
  784TIP3    H2 2359   5.081   1.631   0.311
  785TIP3   OH2 2360   0.671   3.243   0.713
  785TIP3    H1 2361   0.702   3.251   0.803
  785TIP3    H2 2362   0.680   3.150   0.693
  786TIP3   OH2 2363   3.591   1.032   1.399
  786TIP3    H1 2364   3.601   0.942   1.366
  786TIP3    H2 2365   3.527   1.072   1.341
  787TIP3   OH2 2366   0.995   4.666   2.531
  787TIP3    H1 2367   1.044   4.652   2.612
  787TIP3    H2 2368   0.922   4.722   2.557
  788TIP3   OH2 2369   1.138   3.225   3.740
  788TIP3    H1 2370   1.057   3.273   3.755
  788TIP3    H2 2371   1.183   3.274   3.671
  789TIP3   OH2 2372   2.177   3.670   1.623
  789TIP3    H1 2373   2.268   3.688   1.643
  789TIP3    H2 2374   2.129   3.745   1.659
  790TIP3   OH2 2375   1.543   5.400   3.865
  790TIP3    H1 2376   1.611   5.336   3.889
  790TIP3    H2 2377   1.540   5.460   3.939
  791TIP3   OH2 2378   0.663   0.334   2.879
  791TIP3    H1 2379   0.691   0.290   2.798
  791TIP3    H2 2380   0.643   0.423   2.851
  792TIP3   OH2 2381   4.310   3.156   1.645
  792TIP3    H1 2382   4.391   3.204   1.662
  792TIP3    H2 2383   4.304   3.151   1.550
  793TIP3   OH2 2384   4.495   1.716   3.966
  793TIP3    H1 2385   4.420   1.776   3.969
  793TIP3    H2 2386   4.549   1.742   4.041
  794TIP3   OH2 2387   6.190   5.148   2.687
  794TIP3    H1 2388   6.184   5.148   2.592
  794TIP3    H2 2389   6.152   5.231   2.714
  795TIP3   OH2 2390   5.912   0.441   4.943
  795TIP3    H1 2391   5.943   0.459   4.854
  795TIP3    H2 2392   5.822   0.472   4.943
  796TIP3   OH2 2393   5.978   3.791   3.199
  796TIP3    H1 2394   5.909   3.754   3.143
  796TIP3    H2 2395   6.058   3.750   3.167
  797TIP3   OH2 2396   0.488   5.578   4.377
  797TIP3    H1 2397   0.518   5.667   4.358
  797TIP3    H2 2398   0.562   5.536   4.420
  798TIP3   OH2 2399   2.431   1.718   0.281
  798TIP3    H1 2400   2.382   1.637   0.276
  798TIP3    H2 2401   2.514   1.694   0.323
  799TIP3   OH2 2402   3.440   2.686   3.291
  799TIP3    H1 2403   3.461   2.723   3.377
  799TIP3    H2 2404   3.525   2.673   3.249
  800TIP3   OH2 2405   5.055   3.414   0.560
  800TIP3    H1 2406   5.150   3.425   0.549
  800TIP3    H2 2407   5.042   3.415   0.655
  801TIP3   OH2 2408   1.555   4.842   2.469
  801TIP3    H1 2409   1.467   4.825   2.504
  801TIP3    H2 2410   1.603   4.761   2.484
  802TIP3   OH2 2411   0.258   1.519   1.743
  802TIP3    H1 2412   0.223   1.606   1.759
  802TIP3    H2 2413   0.200   1.460   1.791
  803TIP3   OH2 2414   4.417   4.938   3.911
  803TIP3    H1 2415   4.329   4.941   3.949
  803TIP3    H2 2416   4.442   5.030   3.901
  804TIP3   OH2 2417   3.562   4.061   0.227
  804TIP3    H1 2418   3.657   4.058   0.220
  804TIP3    H2 2419   3.543   4.145   0.268
  805TIP3   OH2 2420   0.382   5.980   1.715
  805TIP3    H1 2421   0.339   5.935   1.788
  805TIP3    H2 2422   0.398   5.912   1.650
  806TIP3   OH2 2423   4.670   4.231   1.938
  806TIP3    H1 2424   4.590   4.208   1.985
  806TIP3    H2 2425   4.739   4.185   1.986
  807TIP3   OH2 2426   6.205   2.933   2.886
  807TIP3    H1 2427   6.152   2.966   2.959
  807TIP3    H2 2428   6.155   2.858   2.853
  808TIP3   OH2 2429   4.164   1.312   1.711
  808TIP3    H1 2430   4.223   1.373   1.668
  808TIP3    H2 2431   4.095   1.296   1.647
  809TIP3   OH2 2432   5.602   1.391   2.269
  809TIP3    H1 2433   5.536   1.322   2.263
  809TIP3    H2 2434   5.603   1.415   2.362
  810TIP3   OH2 2435   3.815   0.363   1.009
  810TIP3    H1 2436   3.783   0.447   0.976
  810TIP3    H2 2437   3.891   0.343   0.955
  811TIP3   OH2 2438   4.835   5.782   0.996
  811TIP3    H1 2439   4.851   5.744   1.082
  811TIP3    H2 2440   4.741   5.798   0.994
  812TIP3   OH2 2441   5.317   0.060   0.038
  812TIP3    H1 2442   5.286   0.032  -0.048
  812TIP3    H2 2443   5.243   0.108   0.076
  813TIP3   OH2 2444   3.563   1.582   3.421
  813TIP3    H1 2445   3.489   1.547   3.471
  813TIP3    H2 2446   3.613   1.505   3.395
  814TIP3   OH2 2447   1.817   4.522   3.497
  814TIP3    H1 2448   1.763   4.599   3.478
  814TIP3    H2 2449   1.903   4.543   3.462
  815TIP3   OH2 2450   2.423   4.716   2.389
  815TIP3    H1 2451   2.447   4.769   2.313
  815TIP3    H2 2452   2.346   4.760   2.426
  816TIP3   OH2 2453   4.125   1.832   1.661
  816TIP3    H1 2454   4.119   1.815   1.755
  816TIP3    H2 2455   4.129   1.745   1.621
  817TIP3   OH2 2456   4.214   2.171   3.476
  817TIP3    H1 2457   4.139   2.166   3.535
  817TIP3    H2 2458   4.263   2.090   3.492
  818TIP3   OH2 2459   3.341   0.185   2.509
  818TIP3    H1 2460   3.260   0.209   2.554
  818TIP3    H2 2461   3.410   0.199   2.575
  819TIP3   OH2 2462   1.914   3.982   3.392
  819TIP3    H1 2463   1.921   3.886   3.394
  819TIP3    H2 2464   1.855   4.000   3.319
  820TIP3   OH2 2465   1.474   2.385   4.401
  820TIP3    H1 2466   1.528   2.440   4.345
  820TIP3    H2 2467   1.443   2.443   4.470
  821TIP3   OH2 2468   0.283   0.068   4.353
  821TIP3    H1 2469   0.212   0.083   4.290
  821TIP3    H2 2470   0.258   0.120   4.429
  822TIP3   OH2 2471   6.209   5.872   0.211
  822TIP3    H1 2472   6.126   5.842   0.250
  822TIP3    H2 2473   6.275   5.816   0.251
  823TIP3   OH2 2474   2.195   0.737   3.157
  823TIP3    H1 2475   2.260   0.783   3.105
  823TIP3    H2 2476   2.244   0.669   3.203
  824TIP3   OH2 2477   5.732   2.528   2.671
  824TIP3    H1 2478   5.672   2.482   2.613
  824TIP3    H2 2479   5.816   2.485   2.657
  825TIP3   OH2 2480   3.159   4.804   4.169
  825TIP3    H1 2481   3.205   4.860   4.108
  825TIP3    H2 2482   3.066   4.813   4.146
  826TIP3   OH2 2483   0.704   3.869   4.506
  826TIP3    H1 2484   0.760   3.841   4.434
  826TIP3    H2 2485   0.739   3.954   4.533
  827TIP3   OH2 2486   3.799   1.879   0.660
  827TIP3    H1 2487   3.806   1.947   0.594
  827TIP3    H2 2488   3.715   1.896   0.703
  828TIP3   OH2 2489   1.991   2.595   2.315
  828TIP3    H1 2490   2.009   2.670   2.372
  828TIP3    H2 2491   1.896   2.596   2.304
  829TIP3   OH2 2492   1.688   3.006   0.460
  829TIP3    H1 2493   1.627   2.934   0.442
  829TIP3    H2 2494   1.679   3.021   0.554
  830TIP3   OH2 2495   0.083   4.678   4.723
  830TIP3    H1 2496   0.158   4.731   4.749
  830TIP3    H2 2497   0.100   4.655   4.631
  831TIP3   OH2 2498   6.325   3.455   3.415
  831TIP3    H1 2499   6.253   3.405   3.378
  831TIP3    H2 2500   6.383   3.472   3.342
  832TIP3   OH2 2501   4.040   0.162   0.942
  832TIP3    H1 2502   4.030   0.186   0.850
  832TIP3    H2 2503   4.099   0.228   0.978
  833TIP3   OH2 2504   2.125   3.747   4.425
  833TIP3    H1 2505   2.202   3.804   4.416
  833TIP3    H2 2506   2.153   3.663   4.389
  834TIP3   OH2 2507   3.349   0.102   0.593
  834TIP3    H1 2508   3.326   0.195   0.593
  834TIP3    H2 2509   3.399   0.089   0.674
  835TIP3   OH2 2510   4.849   5.957   3.399
  835TIP3    H1 2511   4.917   5.900   3.364
  835TIP3    H2 2512   4.888   5.996   3.477
  836TIP3   OH2 2513   2.573   1.598   2.268
  836TIP3    H1 2514   2.517   1.594   2.346
  836TIP3    H2 2515   2.559   1.686   2.233
  837TIP3   OH2 2516   3.618   1.398   3.944
  837TIP3    H1 2517   3.619   1.475   4.000
  837TIP3    H2 2518   3.527   1.369   3.944
  838TIP3   OH2 2519   5.956   2.017   3.586
  838TIP3    H1 2520   5.914   1.982   3.507
  838TIP3    H2 2521   5.939   1.951   3.654
  839TIP3   OH2 2522   5.057   5.443   0.633
  839TIP3    H1 2523   5.012   5.392   0.566
  839TIP3    H2 2524   5.147   5.411   0.632
  840TIP3   OH2 2525   3.288   5.390   2.862
  840TIP3    H1 2526   3.350   5.456   2.828
  840TIP3    H2 2527   3.342   5.312   2.875
  841TIP3   OH2 2528   2.015   5.309   4.970
  841TIP3    H1 2529   1.919   5.312   4.971
  841TIP3    H2 2530   2.036   5.257   4.892
  842TIP3   OH2 2531   0.113   2.025   0.383
  842TIP3    H1 2532   0.145   2.103   0.429
  842TIP3    H2 2533   0.095   2.055   0.294
  843TIP3   OH2 2534   5.044   1.153   2.425
  843TIP3    H1 2535   4.961   1.187   2.458
  843TIP3    H2 2536   5.020   1.094   2.354
  844TIP3   OH2 2537   5.571   5.171   1.859
  844TIP3    H1 2538   5.532   5.258   1.855
  844TIP3    H2 2539   5.548   5.139   1.947
  845TIP3   OH2 2540   3.539   5.612   3.060
  845TIP3    H1 2541   3.600   5.686   3.058
  845TIP3    H2 2542   3.476   5.634   3.129
  846TIP3   OH2 2543   5.284   1.978   2.904
  846TIP3    H1 2544   5.208   2.034   2.923
  846TIP3    H2 2545   5.248   1.890   2.898
  847TIP3   OH2 2546   5.709   0.138   2.818
  847TIP3    H1 2547   5.692   0.048   2.792
  847TIP3    H2 2548   5.744   0.180   2.739
  848TIP3   OH2 2549   0.777   3.248   2.400
  848TIP3    H1 2550   0.740   3.161   2.412
  848TIP3    H2 2551   0.871   3.234   2.399
  849TIP3   OH2 2552   1.997   0.679   1.325
  849TIP3    H1 2553   2.051   0.654   1.250
  849TIP3    H2 2554   2.060   0.706   1.392
  850TIP3   OH2 2555   1.729   3.668   0.146
  850TIP3    H1 2556   1.805   3.611   0.155
  850TIP3    H2 2557   1.715   3.676   0.052
  851TIP3   OH2 2558   5.336   1.641   1.679
  851TIP3    H1 2559   5.248   1.665   1.648
  851TIP3    H2 2560   5.384   1.621   1.598
  852TIP3   OH2 2561   3.597   4.667   1.632
  852TIP3    H1 2562   3.626   4.683   1.543
  852TIP3    H2 2563   3.510   4.630   1.623
  853TIP3   OH2 2564   2.562   2.050   1.890
  853TIP3    H1 2565   2.583   2.073   1.981
  853TIP3    H2 2566   2.586   2.128   1.839
  854TIP3   OH2 2567   4.451   0.647   5.034
  854TIP3    H1 2568   4.446   0.619   4.943
  854TIP3    H2 2569   4.359   0.653   5.062
  855TIP3   OH2 2570   1.841   5.665   2.219
  855TIP3    H1 2571   1.800   5.609   2.153
  855TIP3    H2 2572   1.776   5.734   2.235
  856TIP3   OH2 2573   4.510   0.139   2.250
  856TIP3    H1 2574   4.415   0.153   2.249
  856TIP3    H2 2575   4.539   0.170   2.164
  857TIP3   OH2 2576   6.224   3.953   2.903
  857TIP3    H1 2577   6.151   3.956   2.965
  857TIP3    H2 2578   6.257   4.043   2.901
  858TIP3   OH2 2579   1.110   5.594   3.250
  858TIP3    H1 2580   1.148   5.543   3.321
  858TIP3    H2 2581   1.019   5.567   3.246
  859TIP3   OH2 2582   1.650   1.349   1.682
  859TIP3    H1 2583   1.587   1.283   1.710
  859TIP3    H2 2584   1.655   1.339   1.587
  860TIP3   OH2 2585   0.796   2.258   4.260
  860TIP3    H1 2586   0.865   2.278   4.323
  860TIP3    H2 2587   0.783   2.164   4.267
  861TIP3   OH2 2588   5.829   3.923   0.868
  861TIP3    H1 2589   5.750   3.940   0.816
  861TIP3    H2 2590   5.888   3.878   0.807
  862TIP3   OH2 2591   0.500   2.100   0.956
  862TIP3    H1 2592   0.458   2.111   1.042
  862TIP3    H2 2593   0.442   2.042   0.908
  863TIP3   OH2 2594   2.444   4.924   3.347
  863TIP3    H1 2595   2.509   4.982   3.309
  863TIP3    H2 2596   2.379   4.983   3.387
  864TIP3   OH2 2597   4.394   2.904   2.178
  864TIP3    H1 2598   4.415   2.918   2.271
  864TIP3    H2 2599   4.425   2.983   2.134
  865TIP3   OH2 2600   4.991   1.005   3.182
  865TIP3    H1 2601   4.919   0.947   3.208
  865TIP3    H2 2602   4.986   1.078   3.243
  866TIP3   OH2 2603   1.745   0.331   4.600
  866TIP3    H1 2604   1.659   0.314   4.640
  866TIP3    H2 2605   1.749   0.272   4.525
  867TIP3   OH2 2606   3.919   2.293   2.515
  867TIP3    H1 2607   3.931   2.374   2.465
  867TIP3    H2 2608   3.851   2.315   2.579
  868TIP3   OH2 2609   3.221   2.912   3.534
  868TIP3    H1 2610   3.264   2.933   3.451
  868TIP3    H2 2611   3.291   2.909   3.598
  869TIP3   OH2 2612   6.285   0.447   2.228
  869TIP3    H1 2613   6.201   0.463   2.272
  869TIP3    H2 2614   6.343   0.516   2.261
  870TIP3   OH2 2615   1.602   4.263   4.387
  870TIP3    H1 2616   1.673   4.266   4.452
  870TIP3    H2 2617   1.647   4.253   4.304
  871TIP3   OH2 2618   1.766   2.256   0.590
  871TIP3    H1 2619   1.779   2.169   0.628
  871TIP3    H2 2620   1.796   2.317   0.658
  872TIP3   OH2 2621   0.697   4.665   2.287
  872TIP3    H1 2622   0.684   4.711   2.204
  872TIP3    H2 2623   0.785   4.629   2.281
  873TIP3   OH2 2624   0.590   4.996   3.442
  873TIP3    H1 2625   0.553   4.971   3.357
  873TIP3    H2 2626   0.524   5.053   3.481
  874TIP3   OH2 2627   3.874   5.849   3.353
  874TIP3    H1 2628   3.904   5.893   3.273
  874TIP3    H2 2629   3.779   5.850   3.347
  875TIP3   OH2 2630   3.636   0.258   2.294
  875TIP3    H1 2631   3.674   0.252   2.206
  875TIP3    H2 2632   3.704   0.223   2.352
  876TIP3   OH2 2633   5.802   2.517   4.158
  876TIP3    H1 2634   5.799   2.426   4.130
  876TIP3    H2 2635   5.891   2.545   4.139
  877TIP3   OH2 2636   3.146   3.450   1.114
  877TIP3    H1 2637   3.202   3.375   1.095
  877TIP3    H2 2638   3.084   3.417   1.179
  878TIP3   OH2 2639   1.884   4.421   1.226
  878TIP3    H1 2640   1.962   4.463   1.262
  878TIP3    H2 2641   1.884   4.446   1.133
  879TIP3   OH2 2642   6.188   3.879   2.290
  879TIP3    H1 2643   6.166   3.828   2.368
  879TIP3    H2 2644   6.104   3.907   2.255
  880TIP3   OH2 2645   1.266   2.302   4.682
  880TIP3    H1 2646   1.334   2.258   4.632
  880TIP3    H2 2647   1.304   2.314   4.769
  881TIP3   OH2 2648   0.822   3.932   3.743
  881TIP3    H1 2649   0.899   3.987   3.739
  881TIP3    H2 2650   0.749   3.991   3.727
  882TIP3   OH2 2651   2.383   0.933   3.974
  882TIP3    H1 2652   2.430   0.917   3.892
  882TIP3    H2 2653   2.291   0.923   3.952
  883TIP3   OH2 2654   4.077   5.003   1.101
  883TIP3    H1 2655   4.040   5.074   1.049
  883TIP3    H2 2656   4.105   5.045   1.183
  884TIP3   OH2 2657   3.249   2.071   4.843
  884TIP3    H1 2658   3.185   2.142   4.850
  884TIP3    H2 2659   3.286   2.064   4.931
  885TIP3   OH2 2660   5.587   3.663   1.174
  885TIP3    H1 2661   5.628   3.712   1.103
  885TIP3    H2 2662   5.631   3.694   1.253
  886TIP3   OH2 2663   1.563   5.761   1.345
  886TIP3    H1 2664   1.626   5.755   1.273
  886TIP3    H2 2665   1.561   5.673   1.383
  887TIP3   OH2 2666   3.979   4.748   4.234
  887TIP3    H1 2667   3.904   4.758   4.292
  887TIP3    H2 2668   4.011   4.659   4.250
  888TIP3   OH2 2669   5.693   2.018   3.099
  888TIP3    H1 2670   5.691   2.068   3.180
  888TIP3    H2 2671   5.619   2.051   3.048
  889TIP3   OH2 2672   1.354   5.386   3.689
  889TIP3    H1 2673   1.284   5.426   3.740
  889TIP3    H2 2674   1.430   5.386   3.747
  890TIP3   OH2 2675   1.139   0.488   3.609
  890TIP3    H1 2676   1.176   0.542   3.540
  890TIP3    H2 2677   1.059   0.451   3.571
  891TIP3   OH2 2678   1.905   2.937   4.814
  891TIP3    H1 2679   1.893   2.979   4.899
  891TIP3    H2 2680   1.902   3.009   4.751
  892TIP3   OH2 2681   0.207   1.453   5.203
  892TIP3    H1 2682   0.174   1.525   5.150
  892TIP3    H2 2683   0.298   1.444   5.176
  893TIP3   OH2 2684   5.126   3.388   1.764
  893TIP3    H1 2685   5.095   3.479   1.759
  893TIP3    H2 2686   5.058   3.337   1.719
  894TIP3   OH2 2687   2.181   5.926   0.790
  894TIP3    H1 2688   2.202   6.005   0.839
  894TIP3    H2 2689   2.251   5.865   0.813
  895TIP3   OH2 2690   3.405   3.554   2.464
  895TIP3    H1 2691   3.423   3.522   2.376
  895TIP3    H2 2692   3.463   3.629   2.475
  896TIP3   OH2 2693   0.081   3.142   0.255
  896TIP3    H1 2694   0.121   3.229   0.263
  896TIP3    H2 2695   0.017   3.152   0.184
  897TIP3   OH2 2696   5.999   4.656   2.839
  897TIP3    H1 2697   6.010   4.566   2.808
  897TIP3    H2 2698   6.045   4.658   2.923
  898TIP3   OH2 2699   0.973   2.051   4.369
  898TIP3    H1 2700   0.999   2.113   4.436
  898TIP3    H2 2701   1.055   2.017   4.333
  899TIP3   OH2 2702   0.197   5.635   3.120
  899TIP3    H1 2703   0.215   5.628   3.213
  899TIP3    H2 2704   0.279   5.668   3.082
  900TIP3   OH2 2705   6.300   1.452   4.300
  900TIP3    H1 2706   6.231   1.409   4.350
  900TIP3    H2 2707   6.291   1.416   4.211
  901TIP3   OH2 2708   0.274   5.575   3.807
  901TIP3    H1 2709   0.192   5.593   3.853
  901TIP3    H2 2710   0.287   5.652   3.751
  902TIP3   OH2 2711   0.956   5.496   2.971
  902TIP3    H1 2712   1.011   5.492   2.892
  902TIP3    H2 2713   1.010   5.457   3.039
  903TIP3   OH2 2714   2.962   5.080   4.827
  903TIP3    H1 2715   2.899   5.011   4.804
  903TIP3    H2 2716   3.047   5.035   4.829
  904TIP3   OH2 2717   5.094   2.542   4.223
  904TIP3    H1 2718   5.086   2.619   4.167
  904TIP3    H2 2719   5.143   2.572   4.299
  905TIP3   OH2 2720   4.756   3.120   4.593
  905TIP3    H1 2721   4.740   3.177   4.668
  905TIP3    H2 2722   4.677   3.066   4.587
  906TIP3   OH2 2723   1.544   0.679   3.592
  906TIP3    H1 2724   1.472   0.656   3.650
  906TIP3    H2 2725   1.597   0.600   3.587
  907TIP3   OH2 2726   4.185   1.100   4.890
  907TIP3    H1 2727   4.103   1.135   4.855
  907TIP3    H2 2728   4.237   1.081   4.812
  908TIP3   OH2 2729   5.927   0.560   4.386
  908TIP3    H1 2730   5.998   0.553   4.322
  908TIP3    H2 2731   5.853   0.516   4.344
  909TIP3   OH2 2732   0.584   3.677   3.784
  909TIP3    H1 2733   0.502   3.724   3.764
  909TIP3    H2 2734   0.652   3.732   3.746
  910TIP3   OH2 2735   2.281   1.894   2.494
  910TIP3    H1 2736   2.311   1.968   2.443
  910TIP3    H2 2737   2.247   1.932   2.575
  911TIP3   OH2 2738   4.203   5.070   4.095
  911TIP3    H1 2739   4.145   5.064   4.172
  911TIP3    H2 2740   4.207   5.164   4.076
  912TIP3   OH2 2741   5.336   5.317   1.156
  912TIP3    H1 2742   5.403   5.251   1.139
  912TIP3    H2 2743   5.254   5.268   1.153
  913TIP3   OH2 2744   5.248   3.166   1.242
  913TIP3    H1 2745   5.158   3.137   1.256
  913TIP3    H2 2746   5.267   3.142   1.151
  914TIP3   OH2 2747   1.275   1.174   3.887
  914TIP3    H1 2748   1.333   1.218   3.825
  914TIP3    H2 2749   1.327   1.164   3.967
  915TIP3   OH2 2750   4.065   0.305   1.468
  915TIP3    H1 2751   4.084   0.240   1.536
  915TIP3    H2 2752   3.974   0.288   1.443
  916TIP3   OH2 2753   3.105   3.732   2.906
  916TIP3    H1 2754   3.121   3.821   2.875
  916TIP3    H2 2755   3.028   3.704   2.857
  917TIP3   OH2 2756   3.886   3.344   0.890
  917TIP3    H1 2757   3.844   3.273   0.842
  917TIP3    H2 2758   3.980   3.328   0.879
  918TIP3   OH2 2759   2.878   3.690   2.016
  918TIP3    H1 2760   2.832   3.617   1.976
  918TIP3    H2 2761   2.958   3.700   1.966
  919TIP3   OH2 2762   5.397   1.282   3.437
  919TIP3    H1 2763   5.325   1.300   3.377
  919TIP3    H2 2764   5.356   1.279   3.524
  920TIP3   OH2 2765   1.982   3.561   0.684
  920TIP3    H1 2766   1.959   3.560   0.591
  920TIP3    H2 2767   1.998   3.469   0.706
  921TIP3   OH2 2768   1.872   4.790   2.036
  921TIP3    H1 2769   1.855   4.697   2.025
  921TIP3    H2 2770   1.918   4.797   2.120
  922TIP3   OH2 2771   0.393   2.677   0.592
  922TIP3    H1 2772   0.394   2.757   0.540
  922TIP3    H2 2773   0.452   2.695   0.666
  923TIP3   OH2 2774   4.150   2.451   1.866
  923TIP3    H1 2775   4.091   2.525   1.851
  923TIP3    H2 2776   4.223   2.466   1.806
  924TIP3   OH2 2777   3.447   4.077   4.616
  924TIP3    H1 2778   3.366   4.087   4.667
  924TIP3    H2 2779   3.417   4.054   4.528
  925TIP3   OH2 2780   1.763   4.095   0.785
  925TIP3    H1 2781   1.776   4.016   0.838
  925TIP3    H2 2782   1.776   4.066   0.695
  926TIP3   OH2 2783   0.901   2.759   1.006
  926TIP3    H1 2784   0.921   2.837   0.956
  926TIP3    H2 2785   0.875   2.694   0.941
  927TIP3   OH2 2786   4.172   0.270   4.091
  927TIP3    H1 2787   4.184   0.329   4.165
  927TIP3    H2 2788   4.103   0.311   4.039
  928TIP3   OH2 2789   1.318   4.593   4.810
  928TIP3    H1 2790   1.297   4.500   4.800
  928TIP3    H2 2791   1.404   4.602   4.767
  929TIP3   OH2 2792   5.745   5.863   0.480
  929TIP3    H1 2793   5.742   5.959   0.477
  929TIP3    H2 2794   5.701   5.836   0.400
  930TIP3   OH2 2795   0.014   3.186   4.112
  930TIP3    H1 2796   0.055   3.103   4.089
  930TIP3    H2 2797   0.032   3.244   4.039
  931TIP3   OH2 2798   0.891   5.837   1.890
  931TIP3    H1 2799   0.956   5.855   1.822
  931TIP3    H2 2800   0.819   5.897   1.871
  932TIP3   OH2 2801   0.682   1.870   0.646
  932TIP3    H1 2802   0.650   1.885   0.557
  932TIP3    H2 2803   0.745   1.798   0.637
  933TIP3   OH2 2804   2.520   1.120   4.135
  933TIP3    H1 2805   2.503   1.184   4.066
  933TIP3    H2 2806   2.488   1.037   4.099
  934TIP3   OH2 2807   1.550   2.942   3.464
  934TIP3    H1 2808   1.514   2.860   3.499
  934TIP3    H2 2809   1.637   2.917   3.432
  935TIP3   OH2 2810   4.370   0.164   3.927
  935TIP3    H1 2811   4.306   0.205   3.985
  935TIP3    H2 2812   4.317   0.119   3.861
  936TIP3   OH2 2813   5.972   0.438   4.654
  936TIP3    H1 2814   5.977   0.470   4.564
  936TIP3    H2 2815   5.966   0.343   4.646
  937TIP3   OH2 2816   2.057   0.787   2.373
  937TIP3    H1 2817   2.053   0.809   2.280
  937TIP3    H2 2818   2.150   0.775   2.391
  938TIP3   OH2 2819   3.504   5.074   0.084
  938TIP3    H1 2820   3.547   5.132   0.146
  938TIP3    H2 2821   3.520   5.113  -0.001
  939TIP3   OH2 2822   5.528   4.832   2.656
  939TIP3    H1 2823   5.618   4.810   2.679
  939TIP3    H2 2824   5.533   4.923   2.625
  940TIP3   OH2 2825   0.579   1.623   3.410
  940TIP3    H1 2826   0.649   1.652   3.467
  940TIP3    H2 2827   0.617   1.624   3.322
  941TIP3   OH2 2828   3.851   5.266   0.515
  941TIP3    H1 2829   3.867   5.179   0.478
  941TIP3    H2 2830   3.871   5.327   0.445
  942TIP3   OH2 2831   0.706   3.053   0.403
  942TIP3    H1 2832   0.754   3.135   0.395
  942TIP3    H2 2833   0.767   2.987   0.369
  943TIP3   OH2 2834   4.395   2.817   1.727
  943TIP3    H1 2835   4.409   2.723   1.720
  943TIP3    H2 2836   4.478   2.851   1.761
  944TIP3   OH2 2837   0.747   1.940   0.051
  944TIP3    H1 2838   0.829   1.980   0.023
  944TIP3    H2 2839   0.732   1.870  -0.012
  945TIP3   OH2 2840   4.362   1.944   0.317
  945TIP3    H1 2841   4.270   1.942   0.292
  945TIP3    H2 2842   4.408   1.897   0.247
  946TIP3   OH2 2843   4.239   1.573   0.215
  946TIP3    H1 2844   4.227   1.546   0.124
  946TIP3    H2 2845   4.170   1.637   0.231
  947TIP3   OH2 2846   3.570   2.400   4.278
  947TIP3    H1 2847   3.542   2.315   4.314
  947TIP3    H2 2848   3.491   2.454   4.280
  948TIP3   OH2 2849   5.719   1.922   2.325
  948TIP3    H1 2850   5.797   1.867   2.321
  948TIP3    H2 2851   5.685   1.910   2.414
  949TIP3   OH2 2852   0.530   4.886   1.446
  949TIP3    H1 2853   0.567   4.877   1.534
  949TIP3    H2 2854   0.598   4.849   1.388
  950TIP3   OH2 2855   3.826   2.226   4.149
  950TIP3    H1 2856   3.786   2.304   4.186
  950TIP3    H2 2857   3.867   2.182   4.224
  951TIP3   OH2 2858   5.038   4.919   1.668
  951TIP3    H1 2859   5.006   4.848   1.724
  951TIP3    H2 2860   5.128   4.934   1.698
  952TIP3   OH2 2861   2.392   5.304   0.250
  952TIP3    H1 2862   2.363   5.229   0.198
  952TIP3    H2 2863   2.445   5.356   0.191
  953TIP3   OH2 2864   5.284   3.355   1.021
  953TIP3    H1 2865   5.319   3.398   1.099
  953TIP3    H2 2866   5.233   3.423   0.977
  954TIP3   OH2 2867   0.923   3.917   2.891
  954TIP3    H1 2868   0.923   3.863   2.812
  954TIP3    H2 2869   0.960   4.000   2.864
  955TIP3   OH2 2870   5.713   0.646   3.492
  955TIP3    H1 2871   5.747   0.666   3.579
  955TIP3    H2 2872   5.739   0.722   3.438
  956TIP3   OH2 2873   6.058   0.019   2.442
  956TIP3    H1 2874   6.142  -0.027   2.440
  956TIP3    H2 2875   6.005  -0.031   2.505
  957TIP3   OH2 2876   0.005   4.933   3.604
  957TIP3    H1 2877  -0.071   4.890   3.565
  957TIP3    H2 2878  -0.009   4.927   3.698
  958TIP3   OH2 2879   0.866   1.266   0.088
  958TIP3    H1 2880   0.911   1.307   0.013
  958TIP3    H2 2881   0.909   1.181   0.098
  959TIP3   OH2 2882   3.358   1.306   3.982
  959TIP3    H1 2883   3.393   1.265   4.061
  959TIP3    H2 2884   3.281   1.354   4.012
  960TIP3   OH2 2885   0.512   1.149   3.611
  960TIP3    H1 2886   0.452   1.160   3.684
  960TIP3    H2 2887   0.538   1.057   3.615
  961TIP3   OH2 2888   1.559   5.098   4.779
  961TIP3    H1 2889   1.547   5.022   4.837
  961TIP3    H2 2890   1.474   5.140   4.777
  962TIP3   OH2 2891   0.760   5.486   0.111
  962TIP3    H1 2892   0.675   5.503   0.069
  962TIP3    H2 2893   0.788   5.403   0.074
  963TIP3   OH2 2894   2.857   0.449   4.400
  963TIP3    H1 2895   2.816   0.448   4.486
  963TIP3    H2 2896   2.785   0.464   4.339
  964TIP3   OH2 2897   2.844   0.230   2.231
  964TIP3    H1 2898   2.814   0.276   2.152
  964TIP3    H2 2899   2.832   0.293   2.302
  965TIP3   OH2 2900   1.532   1.468   2.748
  965TIP3    H1 2901   1.624   1.478   2.771
  965TIP3    H2 2902   1.494   1.555   2.759
  966TIP3   OH2 2903   5.280   5.296   0.358
  966TIP3    H1 2904   5.252   5.381   0.393
  966TIP3    H2 2905   5.360   5.276   0.407
  967TIP3   OH2 2906   4.847   2.955   2.189
  967TIP3    H1 2907   4.923   2.915   2.147
  967TIP3    H2 2908   4.778   2.889   2.182
  968TIP3   OH2 2909   3.980   1.104   3.351
  968TIP3    H1 2910   3.925   1.062   3.285
  968TIP3    H2 2911   4.063   1.120   3.306
  969TIP3   OH2 2912  -0.021   4.394   0.774
  969TIP3    H1 2913   0.053   4.442   0.737
  969TIP3    H2 2914   0.010   4.304   0.781
  970TIP3   OH2 2915   0.226   3.044   3.508
  970TIP3    H1 2916   0.255   2.979   3.573
  970TIP3    H2 2917   0.306   3.081   3.473
  971TIP3   OH2 2918   4.987   5.253   2.979
  971TIP3    H1 2919   4.933   5.271   2.902
  971TIP3    H2 2920   5.063   5.310   2.970
  972TIP3   OH2 2921   2.952   5.073   1.234
  972TIP3    H1 2922   2.943   5.077   1.138
  972TIP3    H2 2923   2.870   5.111   1.267
  973TIP3   OH2 2924   6.180   3.399   3.948
  973TIP3    H1 2925   6.232   3.479   3.937
  973TIP3    H2 2926   6.163   3.394   4.043
  974TIP3   OH2 2927   6.037   1.885   1.768
  974TIP3    H1 2928   6.102   1.839   1.820
  974TIP3    H2 2929   6.068   1.976   1.766
  975TIP3   OH2 2930   5.204   3.255   0.016
  975TIP3    H1 2931   5.286   3.211   0.039
  975TIP3    H2 2932   5.168   3.202  -0.055
  976TIP3   OH2 2933   3.938   2.683   4.012
  976TIP3    H1 2934   3.927   2.674   4.107
  976TIP3    H2 2935   3.887   2.761   3.990
  977TIP3   OH2 2936   5.433   5.507   2.654
  977TIP3    H1 2937   5.341   5.483   2.648
  977TIP3    H2 2938   5.446   5.573   2.586
  978TIP3   OH2 2939   1.575   4.564   3.845
  978TIP3    H1 2940   1.617   4.645   3.874
  978TIP3    H2 2941   1.575   4.570   3.749
  979TIP3   OH2 2942   1.739   2.163   4.893
  979TIP3    H1 2943   1.686   2.222   4.840
  979TIP3    H2 2944   1.817   2.213   4.914
  980TIP3   OH2 2945   2.385   2.382   1.197
  980TIP3    H1 2946   2.473   2.398   1.164
  980TIP3    H2 2947   2.364   2.293   1.168
  981TIP3   OH2 2948   1.164   2.792   2.239
  981TIP3    H1 2949   1.076   2.810   2.205
  981TIP3    H2 2950   1.155   2.710   2.287
  982TIP3   OH2 2951   4.675   2.082   4.424
  982TIP3    H1 2952   4.767   2.109   4.416
  982TIP3    H2 2953   4.679   1.992   4.456
  983TIP3   OH2 2954   4.915   5.576   2.001
  983TIP3    H1 2955   4.846   5.565   1.936
  983TIP3    H2 2956   4.915   5.670   2.021
  984TIP3   OH2 2957   4.228   0.840   5.067
  984TIP3    H1 2958   4.238   0.918   5.012
  984TIP3    H2 2959   4.168   0.783   5.018
  985TIP3   OH2 2960   5.360   0.906   2.802
  985TIP3    H1 2961   5.275   0.896   2.846
  985TIP3    H2 2962   5.389   0.817   2.785
  986TIP3   OH2 2963   5.954   4.530   3.365
  986TIP3    H1 2964   5.904   4.489   3.436
  986TIP3    H2 2965   6.043   4.535   3.398
  987TIP3   OH2 2966   4.599   0.619   1.176
  987TIP3    H1 2967   4.564   0.565   1.247
  987TIP3    H2 2968   4.594   0.563   1.099
  988TIP3   OH2 2969   3.230   2.994   2.629
  988TIP3    H1 2970   3.223   3.089   2.644
  988TIP3    H2 2971   3.200   2.956   2.712
  989TIP3   OH2 2972   3.144   1.131   0.553
  989TIP3    H1 2973   3.101   1.215   0.537
  989TIP3    H2 2974   3.233   1.143   0.518
  990TIP3   OH2 2975   3.590   1.618   3.116
  990TIP3    H1 2976   3.615   1.687   3.178
  990TIP3    H2 2977   3.623   1.537   3.156
  991TIP3   OH2 2978   2.359   3.755   1.954
  991TIP3    H1 2979   2.409   3.777   1.876
  991TIP3    H2 2980   2.278   3.805   1.946
  992TIP3   OH2 2981   1.603   5.281   1.941
  992TIP3    H1 2982   1.537   5.222   1.903
  992TIP3    H2 2983   1.643   5.229   2.011
  993TIP3   OH2 2984   4.626   5.105   1.302
  993TIP3    H1 2985   4.711   5.062   1.295
  993TIP3    H2 2986   4.636   5.186   1.251
  994TIP3   OH2 2987   5.335   1.374   4.310
  994TIP3    H1 2988   5.417   1.325   4.300
  994TIP3    H2 2989   5.286   1.327   4.377
  995TIP3   OH2 2990   1.288   0.899   1.816
  995TIP3    H1 2991   1.265   0.970   1.875
  995TIP3    H2 2992   1.318   0.829   1.874
  996TIP3   OH2 2993   5.628   1.759   3.443
  996TIP3    H1 2994   5.538   1.781   3.467
  996TIP3    H2 2995   5.644   1.675   3.485
  997TIP3   OH2 2996   5.136   3.966   2.557
  997TIP3    H1 2997   5.149   4.014   2.475
  997TIP3    H2 2998   5.099   4.031   2.618
  998TIP3   OH2 2999   4.983   0.872  -0.028
  998TIP3    H1 3000   4.912   0.924   0.010
  998TIP3    H2 3001   5.006   0.809   0.041
  999TIP3   OH2 3002   1.193   3.579   2.124
  999TIP3    H1 3003   1.280   3.570   2.085
  999TIP3    H2 3004   1.208   3.633   2.202
 1000TIP3   OH2 3005   4.244   1.372   0.613
 1000TIP3    H1 3006   4.234   1.295   0.669
 1000TIP3    H2 3007   4.215   1.343   0.527
 1001TIP3   OH2 3008   2.366   3.882   4.528
 1001TIP3    H1 3009   2.396   3.792   4.515
 1001TIP3    H2 3010   2.391   3.927   4.447
 1002TIP3   OH2 3011   5.755   5.219   4.944
 1002TIP3    H1 3012   5.665   5.243   4.925
 1002TIP3    H2 3013   5.807   5.295   4.918
 1003TIP3   OH2 3014   0.601   2.918   2.666
 1003TIP3    H1 3015   0.612   2.827   2.694
 1003TIP3    H2 3016   0.532   2.914   2.600
 1004TIP3   OH2 3017   3.430   5.044   1.134
 1004TIP3    H1 3018   3.393   4.957   1.119
 1004TIP3    H2 3019   3.449   5.046   1.228
 1005TIP3   OH2 3020   1.509   3.657   2.208
 1005TIP3    H1 3021   1.497   3.709   2.128
 1005TIP3    H2 3022   1.592   3.689   2.244
 1006TIP3   OH2 3023   5.244   5.631   2.424
 1006TIP3    H1 3024   5.185   5.605   2.354
 1006TIP3    H2 3025   5.231   5.566   2.493
 1007TIP3   OH2 3026   3.410   2.409   2.937
 1007TIP3    H1 3027   3.386   2.347   3.006
 1007TIP3    H2 3028   3.326   2.442   2.904
 1008TIP3   OH2 3029   2.479   3.849   1.695
 1008TIP3    H1 3030   2.505   3.773   1.644
 1008TIP3    H2 3031   2.560   3.885   1.729
 1009TIP3   OH2 3032   3.257  -0.031   2.113
 1009TIP3    H1 3033   3.266  -0.047   2.207
 1009TIP3    H2 3034   3.196   0.041   2.107
 1010TIP3   OH2 3035   3.989   3.144   2.115
 1010TIP3    H1 3036   4.046   3.107   2.183
 1010TIP3    H2 3037   3.991   3.239   2.131
 1011TIP3   OH2 3038   5.665   2.512   3.172
 1011TIP3    H1 3039   5.758   2.490   3.171
 1011TIP3    H2 3040   5.655   2.572   3.246
 1012TIP3   OH2 3041   5.065   5.418   3.461
 1012TIP3    H1 3042   4.995   5.433   3.398
 1012TIP3    H2 3043   5.140   5.467   3.427
 1013TIP3   OH2 3044   1.487   1.280   2.564
 1013TIP3    H1 3045   1.580   1.297   2.547
 1013TIP3    H2 3046   1.464   1.340   2.635
 1014TIP3   OH2 3047   3.694   1.939   3.460
 1014TIP3    H1 3048   3.758   1.920   3.392
 1014TIP3    H2 3049   3.706   2.032   3.479
 1015TIP3   OH2 3050   5.373   0.619   3.315
 1015TIP3    H1 3051   5.316   0.581   3.249
 1015TIP3    H2 3052   5.428   0.546   3.344
 1016TIP3   OH2 3053   2.022   2.747   1.631
 1016TIP3    H1 3054   2.044   2.763   1.722
 1016TIP3    H2 3055   2.102   2.709   1.593
 1017TIP3   OH2 3056   4.290   1.060   4.013
 1017TIP3    H1 3057   4.244   1.009   4.079
 1017TIP3    H2 3058   4.248   1.146   4.015
 1018TIP3   OH2 3059   5.222   5.509   3.779
 1018TIP3    H1 3060   5.306   5.509   3.732
 1018TIP3    H2 3061   5.162   5.554   3.720
 1019TIP3   OH2 3062   0.905   3.162   4.103
 1019TIP3    H1 3063   0.893   3.179   4.196
 1019TIP3    H2 3064   0.979   3.217   4.077
 1020TIP3   OH2 3065   0.237   2.516   2.795
 1020TIP3    H1 3066   0.314   2.464   2.819
 1020TIP3    H2 3067   0.261   2.606   2.816
 1021TIP3   OH2 3068   5.190   1.635   0.859
 1021TIP3    H1 3069   5.181   1.600   0.771
 1021TIP3    H2 3070   5.254   1.706   0.849
 1022TIP3   OH2 3071   4.426   4.301   4.253
 1022TIP3    H1 3072   4.511   4.332   4.284
 1022TIP3    H2 3073   4.373   4.290   4.332
 1023TIP3   OH2 3074   1.798   0.925   3.520
 1023TIP3    H1 3075   1.893   0.912   3.528
 1023TIP3    H2 3076   1.764   0.839   3.495
 1024TIP3   OH2 3077   2.078   0.991   0.314
 1024TIP3    H1 3078   2.169   1.019   0.318
 1024TIP3    H2 3079   2.063   0.970   0.221
 1025TIP3   OH2 3080   5.828   4.595   4.015
 1025TIP3    H1 3081   5.845   4.505   4.044
 1025TIP3    H2 3082   5.734   4.596   3.997
 1026TIP3   OH2 3083   5.686   5.596   1.288
 1026TIP3    H1 3084   5.685   5.682   1.246
 1026TIP3    H2 3085   5.636   5.609   1.369
 1027TIP3   OH2 3086   4.725   1.237   4.334
 1027TIP3    H1 3087   4.664   1.163   4.330
 1027TIP3    H2 3088   4.671   1.313   4.311
 1028TIP3   OH2 3089   2.752   2.274   4.569
 1028TIP3    H1 3090   2.813   2.209   4.603
 1028TIP3    H2 3091   2.739   2.250   4.478
 1029TIP3   OH2 3092   0.266   4.996   1.282
 1029TIP3    H1 3093   0.249   4.965   1.193
 1029TIP3    H2 3094   0.359   4.977   1.297
 1030TIP3   OH2 3095   3.309   1.998   5.105
 1030TIP3    H1 3096   3.306   2.047   5.187
 1030TIP3    H2 3097   3.254   1.921   5.120
 1031TIP3   OH2 3098   1.732   5.267   4.914
 1031TIP3    H1 3099   1.766   5.299   4.831
 1031TIP3    H2 3100   1.656   5.214   4.891
 1032TIP3   OH2 3101   5.878   1.445   0.280
 1032TIP3    H1 3102   5.891   1.388   0.204
 1032TIP3    H2 3103   5.792   1.485   0.266
 1033TIP3   OH2 3104   0.552   2.640   3.727
 1033TIP3    H1 3105   0.567   2.604   3.640
 1033TIP3    H2 3106   0.501   2.572   3.772
 1034TIP3   OH2 3107   3.406   3.996   1.115
 1034TIP3    H1 3108   3.325   3.953   1.143
 1034TIP3    H2 3109   3.377   4.083   1.086
 1035TIP3   OH2 3110   1.587   1.547   0.268
 1035TIP3    H1 3111   1.618   1.626   0.223
 1035TIP3    H2 3112   1.539   1.499   0.200
 1036TIP3   OH2 3113   2.413   0.994   3.287
 1036TIP3    H1 3114   2.341   1.055   3.275
 1036TIP3    H2 3115   2.417   0.946   3.204
 1037TIP3   OH2 3116   2.317   5.901   3.467
 1037TIP3    H1 3117   2.375   5.872   3.397
 1037TIP3    H2 3118   2.371   5.956   3.522
 1038TIP3   OH2 3119   3.376   1.096   0.215
 1038TIP3    H1 3120   3.403   1.116   0.126
 1038TIP3    H2 3121   3.299   1.040   0.205
 1039TIP3   OH2 3122   2.871   1.391   4.794
 1039TIP3    H1 3123   2.878   1.315   4.737
 1039TIP3    H2 3124   2.952   1.439   4.781
 1040TIP3   OH2 3125   1.136   0.138   1.819
 1040TIP3    H1 3126   1.121   0.047   1.795
 1040TIP3    H2 3127   1.158   0.135   1.912
 1041TIP3   OH2 3128   0.215   0.494   3.780
 1041TIP3    H1 3129   0.234   0.518   3.690
 1041TIP3    H2 3130   0.214   0.398   3.779
 1042TIP3   OH2 3131   5.381   2.622   3.760
 1042TIP3    H1 3132   5.305   2.607   3.816
 1042TIP3    H2 3133   5.400   2.536   3.722
 1043TIP3   OH2 3134   1.431   5.518   1.809
 1043TIP3    H1 3135   1.453   5.448   1.871
 1043TIP3    H2 3136   1.364   5.570   1.853
 1044TIP3   OH2 3137   5.214   5.640   3.417
 1044TIP3    H1 3138   5.153   5.654   3.490
 1044TIP3    H2 3139   5.293   5.604   3.459
 1045TIP3   OH2 3140   3.556   2.436   0.318
 1045TIP3    H1 3141   3.537   2.398   0.232
 1045TIP3    H2 3142   3.500   2.388   0.379
 1046TIP3   OH2 3143   1.358   0.658   3.777
 1046TIP3    H1 3144   1.362   0.578   3.830
 1046TIP3    H2 3145   1.336   0.727   3.839
 1047TIP3   OH2 3146   2.447   4.371   3.726
 1047TIP3    H1 3147   2.369   4.423   3.706
 1047TIP3    H2 3148   2.417   4.304   3.787
 1048TIP3   OH2 3149   0.002   0.616   3.982
 1048TIP3    H1 3150   0.024   0.648   3.895
 1048TIP3    H2 3151   0.052   0.672   4.042
 1049TIP3   OH2 3152   5.214   4.410   4.794
 1049TIP3    H1 3153   5.136   4.388   4.846
 1049TIP3    H2 3154   5.179   4.458   4.718
 1050TIP3   OH2 3155   1.659   4.150   2.910
 1050TIP3    H1 3156   1.589   4.211   2.886
 1050TIP3    H2 3157   1.643   4.072   2.856
 1051TIP3   OH2 3158   5.209   2.535   3.957
 1051TIP3    H1 3159   5.143   2.480   3.915
 1051TIP3    H2 3160   5.175   2.551   4.045
 1052TIP3   OH2 3161   5.661   2.622   2.914
 1052TIP3    H1 3162   5.659   2.561   2.989
 1052TIP3    H2 3163   5.666   2.565   2.838
 1053TIP3   OH2 3164   2.475   4.870   0.763
 1053TIP3    H1 3165   2.423   4.870   0.844
 1053TIP3    H2 3166   2.557   4.828   0.787
 1054TIP3   OH2 3167   0.428   0.287   4.778
 1054TIP3    H1 3168   0.396   0.377   4.786
 1054TIP3    H2 3169   0.464   0.282   4.690
 1055TIP3   OH2 3170   0.614   4.200   4.718
 1055TIP3    H1 3171   0.588   4.260   4.648
 1055TIP3    H2 3172   0.696   4.162   4.687
 1056TIP3   OH2 3173   4.118   4.557   3.089
 1056TIP3    H1 3174   4.133   4.493   3.159
 1056TIP3    H2 3175   4.164   4.520   3.013
 1057TIP3   OH2 3176   5.587   5.684   3.767
 1057TIP3    H1 3177   5.568   5.599   3.808
 1057TIP3    H2 3178   5.678   5.702   3.791
 1058TIP3   OH2 3179   2.551   5.527   1.904
 1058TIP3    H1 3180   2.622   5.586   1.931
 1058TIP3    H2 3181   2.474   5.583   1.901
 1059TIP3   OH2 3182   3.357   1.181   1.221
 1059TIP3    H1 3183   3.424   1.239   1.258
 1059TIP3    H2 3184   3.308   1.237   1.161
 1060TIP3   OH2 3185   5.760   0.544   1.042
 1060TIP3    H1 3186   5.787   0.530   1.132
 1060TIP3    H2 3187   5.808   0.478   0.991
 1061TIP3   OH2 3188   3.976   0.954   1.389
 1061TIP3    H1 3189   4.049   0.998   1.346
 1061TIP3    H2 3190   3.898   0.993   1.350
 1062TIP3   OH2 3191   1.350   3.994   3.801
 1062TIP3    H1 3192   1.388   3.974   3.715
 1062TIP3    H2 3193   1.351   3.911   3.848
 1063TIP3   OH2 3194   1.197   3.572   2.506
 1063TIP3    H1 3195   1.281   3.544   2.471
 1063TIP3    H2 3196   1.154   3.491   2.535
 1064TIP3   OH2 3197   5.496   5.475   3.898
 1064TIP3    H1 3198   5.511   5.392   3.945
 1064TIP3    H2 3199   5.428   5.518   3.949
 1065TIP3   OH2 3200   1.176   2.563   1.252
 1065TIP3    H1 3201   1.195   2.568   1.345
 1065TIP3    H2 3202   1.209   2.646   1.216
 1066TIP3   OH2 3203   5.562   3.528   2.163
 1066TIP3    H1 3204   5.491   3.564   2.110
 1066TIP3    H2 3205   5.538   3.550   2.253
 1067TIP3   OH2 3206   6.066   0.913   2.250
 1067TIP3    H1 3207   6.103   0.994   2.215
 1067TIP3    H2 3208   6.018   0.875   2.176
 1068TIP3   OH2 3209   1.517   0.152  -0.051
 1068TIP3    H1 3210   1.589   0.200  -0.011
 1068TIP3    H2 3211   1.438   0.192  -0.016
 1069TIP3   OH2 3212   2.829   4.616   2.691
 1069TIP3    H1 3213   2.788   4.595   2.606
 1069TIP3    H2 3214   2.897   4.679   2.669
 1070TIP3   OH2 3215   4.264   1.301   4.318
 1070TIP3    H1 3216   4.293   1.349   4.240
 1070TIP3    H2 3217   4.306   1.347   4.391
 1071TIP3   OH2 3218   2.719   5.264   3.066
 1071TIP3    H1 3219   2.791   5.218   3.024
 1071TIP3    H2 3220   2.661   5.290   2.995
 1072TIP3   OH2 3221   3.798   0.299   4.826
 1072TIP3    H1 3222   3.792   0.235   4.896
 1072TIP3    H2 3223   3.775   0.250   4.747
 1073TIP3   OH2 3224   5.567   4.968   4.112
 1073TIP3    H1 3225   5.492   4.908   4.111
 1073TIP3    H2 3226   5.643   4.911   4.123
 1074TIP3   OH2 3227   3.193   4.016   0.864
 1074TIP3    H1 3228   3.256   3.946   0.876
 1074TIP3    H2 3229   3.139   3.989   0.790
 1075TIP3   OH2 3230   5.574   4.730   3.634
 1075TIP3    H1 3231   5.546   4.650   3.589
 1075TIP3    H2 3232   5.493   4.768   3.669
 1076TIP3   OH2 3233   0.740   1.671   3.850
 1076TIP3    H1 3234   0.646   1.667   3.829
 1076TIP3    H2 3235   0.767   1.580   3.854
 1077TIP3   OH2 3236   5.141   5.858   2.354
 1077TIP3    H1 3237   5.196   5.935   2.364
 1077TIP3    H2 3238   5.182   5.791   2.408
 1078TIP3   OH2 3239   0.495   5.535   3.153
 1078TIP3    H1 3240   0.551   5.603   3.190
 1078TIP3    H2 3241   0.494   5.466   3.219
 1079TIP3   OH2 3242   5.428   3.146   0.045
 1079TIP3    H1 3243   5.499   3.089   0.077
 1079TIP3    H2 3244   5.474   3.216  -0.002
 1080TIP3   OH2 3245   4.152   0.032   3.801
 1080TIP3    H1 3246   4.101   0.113   3.790
 1080TIP3    H2 3247   4.090  -0.038   3.784
 1081TIP3   OH2 3248   5.404   2.993   1.998
 1081TIP3    H1 3249   5.460   3.068   1.976
 1081TIP3    H2 3250   5.450   2.950   2.070
 1082TIP3   OH2 3251   5.365   1.790   0.063
 1082TIP3    H1 3252   5.354   1.838   0.145
 1082TIP3    H2 3253   5.407   1.708   0.089
 1083TIP3   OH2 3254   0.026   4.374   3.230
 1083TIP3    H1 3255   0.053   4.464   3.248
 1083TIP3    H2 3256   0.063   4.323   3.302
 1084TIP3   OH2 3257   5.499   2.196   4.783
 1084TIP3    H1 3258   5.409   2.216   4.810
 1084TIP3    H2 3259   5.510   2.243   4.701
 1085TIP3   OH2 3260   3.112   4.379   5.066
 1085TIP3    H1 3261   3.158   4.451   5.110
 1085TIP3    H2 3262   3.038   4.422   5.022
 1086TIP3   OH2 3263   3.092   3.047   4.686
 1086TIP3    H1 3264   3.052   3.084   4.764
 1086TIP3    H2 3265   3.025   3.057   4.618
 1087TIP3   OH2 3266   0.753   5.988   5.175
 1087TIP3    H1 3267   0.659   5.981   5.193
 1087TIP3    H2 3268   0.764   5.941   5.092
 1088TIP3   OH2 3269   3.936   2.815   4.936
 1088TIP3    H1 3270   3.848   2.855   4.935
 1088TIP3    H2 3271   3.945   2.775   4.850
 1089TIP3   OH2 3272   4.019   0.575   2.470
 1089TIP3    H1 3273   4.025   0.651   2.413
 1089TIP3    H2 3274   3.961   0.514   2.424
 1090TIP3   OH2 3275   1.711   3.701   4.313
 1090TIP3    H1 3276   1.758   3.619   4.326
 1090TIP3    H2 3277   1.632   3.693   4.366
 1091TIP3   OH2 3278   4.460   5.856   0.392
 1091TIP3    H1 3279   4.492   5.879   0.479
 1091TIP3    H2 3280   4.405   5.931   0.366
 1092TIP3   OH2 3281   5.832   2.520   3.657
 1092TIP3    H1 3282   5.837   2.464   3.734
 1092TIP3    H2 3283   5.900   2.485   3.599
 1093TIP3   OH2 3284   3.543   2.508   2.697
 1093TIP3    H1 3285   3.487   2.476   2.768
 1093TIP3    H2 3286   3.489   2.498   2.618
 1094TIP3   OH2 3287   1.865   0.230   4.176
 1094TIP3    H1 3288   1.928   0.195   4.113
 1094TIP3    H2 3289   1.792   0.259   4.123
 1095TIP3   OH2 3290   0.874   4.373   2.591
 1095TIP3    H1 3291   0.828   4.290   2.602
 1095TIP3    H2 3292   0.809   4.440   2.609
 1096TIP3   OH2 3293   6.247   3.725   0.323
 1096TIP3    H1 3294   6.225   3.788   0.391
 1096TIP3    H2 3295   6.167   3.718   0.271
 1097TIP3   OH2 3296   2.136   3.870   2.664
 1097TIP3    H1 3297   2.086   3.894   2.585
 1097TIP3    H2 3298   2.113   3.937   2.728
 1098TIP3   OH2 3299   0.518   4.857   4.935
 1098TIP3    H1 3300   0.607   4.862   4.900
 1098TIP3    H2 3301   0.467   4.911   4.875
 1099TIP3   OH2 3302   3.221   2.904   0.126
 1099TIP3    H1 3303   3.127   2.891   0.131
 1099TIP3    H2 3304   3.241   2.969   0.192
 1100TIP3   OH2 3305   4.162   2.506   4.858
 1100TIP3    H1 3306   4.081   2.462   4.833
 1100TIP3    H2 3307   4.231   2.449   4.825
 1101TIP3   OH2 3308   3.135   4.505   1.412
 1101TIP3    H1 3309   3.064   4.453   1.375
 1101TIP3    H2 3310   3.150   4.574   1.348
 1102TIP3   OH2 3311   0.644   5.736   0.021
 1102TIP3    H1 3312   0.584   5.804  -0.011
 1102TIP3    H2 3313   0.598   5.698   0.096
 1103TIP3   OH2 3314   1.383   2.953   0.793
 1103TIP3    H1 3315   1.316   2.886   0.804
 1103TIP3    H2 3316   1.335   3.036   0.800
 1104TIP3   OH2 3317   6.011   0.890   4.181
 1104TIP3    H1 3318   6.079   0.908   4.247
 1104TIP3    H2 3319   6.059   0.889   4.098
 1105TIP3   OH2 3320   5.589   2.249   3.950
 1105TIP3    H1 3321   5.675   2.216   3.975
 1105TIP3    H2 3322   5.527   2.188   3.991
 1106TIP3   OH2 3323   2.971   3.277   2.602
 1106TIP3    H1 3324   3.039   3.343   2.590
 1106TIP3    H2 3325   2.969   3.230   2.519
 1107TIP3   OH2 3326   5.737   1.369   4.446
 1107TIP3    H1 3327   5.688   1.286   4.452
 1107TIP3    H2 3328   5.784   1.363   4.363
 1108TIP3   OH2 3329   0.182   3.145   2.993
 1108TIP3    H1 3330   0.173   3.074   2.929
 1108TIP3    H2 3331   0.112   3.206   2.971
 1109TIP3   OH2 3332   2.668   1.221   2.865
 1109TIP3    H1 3333   2.681   1.213   2.959
 1109TIP3    H2 3334   2.695   1.310   2.844
 1110TIP3   OH2 3335   2.904   4.188   1.656
 1110TIP3    H1 3336   2.996   4.203   1.638
 1110TIP3    H2 3337   2.897   4.194   1.752
 1111TIP3   OH2 3338   4.934   1.573   4.905
 1111TIP3    H1 3339   4.922   1.549   4.997
 1111TIP3    H2 3340   5.003   1.640   4.907
 1112TIP3   OH2 3341   1.106   2.316   3.204
 1112TIP3    H1 3342   1.118   2.371   3.127
 1112TIP3    H2 3343   1.091   2.378   3.276
 1113TIP3   OH2 3344   4.932   2.203   4.430
 1113TIP3    H1 3345   4.900   2.288   4.460
 1113TIP3    H2 3346   5.013   2.223   4.382
 1114TIP3   OH2 3347   1.371   3.263   3.874
 1114TIP3    H1 3348   1.276   3.272   3.885
 1114TIP3    H2 3349   1.381   3.180   3.827
 1115TIP3   OH2 3350   1.263   0.431   1.628
 1115TIP3    H1 3351   1.183   0.480   1.612
 1115TIP3    H2 3352   1.327   0.467   1.566
 1116TIP3   OH2 3353   4.712   0.619   2.273
 1116TIP3    H1 3354   4.641   0.616   2.209
 1116TIP3    H2 3355   4.668   0.615   2.358
 1117TIP3   OH2 3356   5.770   3.650   3.055
 1117TIP3    H1 3357   5.699   3.622   2.998
 1117TIP3    H2 3358   5.840   3.587   3.040
 1118TIP3   OH2 3359   0.545   4.193   5.081
 1118TIP3    H1 3360   0.631   4.165   5.113
 1118TIP3    H2 3361   0.496   4.216   5.161
 1119TIP3   OH2 3362   1.949   3.335   1.186
 1119TIP3    H1 3363   1.900   3.395   1.129
 1119TIP3    H2 3364   2.039   3.366   1.181
 1120TIP3   OH2 3365   4.258   0.272   0.650
 1120TIP3    H1 3366   4.299   0.339   0.596
 1120TIP3    H2 3367   4.171   0.305   0.668
 1121TIP3   OH2 3368   5.904   1.806   0.509
 1121TIP3    H1 3369   5.931   1.734   0.452
 1121TIP3    H2 3370   5.985   1.839   0.547
 1122TIP3   OH2 3371   2.152   1.952   2.825
 1122TIP3    H1 3372   2.202   2.011   2.769
 1122TIP3    H2 3373   2.061   1.967   2.801
 1123TIP3   OH2 3374   5.881   3.609   4.260
 1123TIP3    H1 3375   5.792   3.608   4.296
 1123TIP3    H2 3376   5.929   3.668   4.318
 1124TIP3   OH2 3377   4.301   5.291   0.627
 1124TIP3    H1 3378   4.218   5.269   0.671
 1124TIP3    H2 3379   4.354   5.331   0.696
 1125TIP3   OH2 3380   4.279   2.704   3.515
 1125TIP3    H1 3381   4.374   2.710   3.519
 1125TIP3    H2 3382   4.262   2.616   3.483
 1126TIP3   OH2 3383   0.359   3.485   3.483
 1126TIP3    H1 3384   0.319   3.529   3.408
 1126TIP3    H2 3385   0.291   3.425   3.515
 1127TIP3   OH2 3386   4.368   3.632   3.058
 1127TIP3    H1 3387   4.308   3.703   3.080
 1127TIP3    H2 3388   4.373   3.580   3.138
 1128TIP3   OH2 3389   3.140   4.880   4.894
 1128TIP3    H1 3390   3.217   4.838   4.856
 1128TIP3    H2 3391   3.097   4.810   4.944
 1129TIP3   OH2 3392   5.967   2.723   4.517
 1129TIP3    H1 3393   5.890   2.712   4.462
 1129TIP3    H2 3394   6.027   2.776   4.465
 1130TIP3   OH2 3395   0.487   5.407   3.782
 1130TIP3    H1 3396   0.542   5.479   3.753
 1130TIP3    H2 3397   0.405   5.447   3.808
 1131TIP3   OH2 3398   2.641   2.163   0.995
 1131TIP3    H1 3399   2.553   2.125   0.990
 1131TIP3    H2 3400   2.684   2.132   0.915
 1132TIP3   OH2 3401   4.819   0.267  -0.034
 1132TIP3    H1 3402   4.912   0.291  -0.039
 1132TIP3    H2 3403   4.820   0.173  -0.018
 1133TIP3   OH2 3404   0.649   4.785   2.053
 1133TIP3    H1 3405   0.613   4.869   2.023
 1133TIP3    H2 3406   0.574   4.726   2.051
 1134TIP3   OH2 3407   3.816   1.231   3.028
 1134TIP3    H1 3408   3.886   1.259   2.968
 1134TIP3    H2 3409   3.754   1.184   2.972
 1135TIP3   OH2 3410   1.914   1.170   2.576
 1135TIP3    H1 3411   1.856   1.246   2.581
 1135TIP3    H2 3412   1.883   1.121   2.500
 1136TIP3   OH2 3413   2.052   4.209   1.723
 1136TIP3    H1 3414   2.096   4.274   1.669
 1136TIP3    H2 3415   2.011   4.260   1.793
 1137TIP3   OH2 3416   5.176   2.613   0.335
 1137TIP3    H1 3417   5.254   2.599   0.390
 1137TIP3    H2 3418   5.102   2.593   0.393
 1138TIP3   OH2 3419   2.063   2.555   5.035
 1138TIP3    H1 3420   2.090   2.601   4.955
 1138TIP3    H2 3421   2.009   2.618   5.082
 1139TIP3   OH2 3422   3.911   5.521   1.831
 1139TIP3    H1 3423   3.932   5.461   1.759
 1139TIP3    H2 3424   3.996   5.552   1.863
 1140TIP3   OH2 3425   2.328   1.491   4.716
 1140TIP3    H1 3426   2.352   1.407   4.757
 1140TIP3    H2 3427   2.233   1.488   4.709
 1141TIP3   OH2 3428   5.317   0.724   3.724
 1141TIP3    H1 3429   5.291   0.736   3.633
 1141TIP3    H2 3430   5.292   0.805   3.768
 1142TIP3   OH2 3431   4.759   5.641   2.878
 1142TIP3    H1 3432   4.826   5.680   2.823
 1142TIP3    H2 3433   4.729   5.712   2.935
 1143TIP3   OH2 3434   0.122   4.240   1.947
 1143TIP3    H1 3435   0.184   4.174   1.916
 1143TIP3    H2 3436   0.086   4.204   2.028
 1144TIP3   OH2 3437   5.731   5.179   3.369
 1144TIP3    H1 3438   5.709   5.108   3.429
 1144TIP3    H2 3439   5.705   5.146   3.283
 1145TIP3   OH2 3440   3.242   3.063   3.882
 1145TIP3    H1 3441   3.262   3.128   3.815
 1145TIP3    H2 3442   3.327   3.045   3.924
 1146TIP3   OH2 3443   5.428   0.739   1.309
 1146TIP3    H1 3444   5.359   0.786   1.355
 1146TIP3    H2 3445   5.434   0.781   1.224
 1147TIP3   OH2 3446   4.532   1.446   3.614
 1147TIP3    H1 3447   4.472   1.397   3.671
 1147TIP3    H2 3448   4.615   1.446   3.660
 1148TIP3   OH2 3449   0.613   0.933   3.083
 1148TIP3    H1 3450   0.651   0.897   3.163
 1148TIP3    H2 3451   0.670   1.007   3.061
 1149TIP3   OH2 3452   5.520   5.757   0.211
 1149TIP3    H1 3453   5.476   5.684   0.167
 1149TIP3    H2 3454   5.600   5.770   0.160
 1150TIP3   OH2 3455   1.486   3.910   3.546
 1150TIP3    H1 3456   1.528   3.835   3.587
 1150TIP3    H2 3457   1.431   3.872   3.477
 1151TIP3   OH2 3458   2.678   1.692   2.935
 1151TIP3    H1 3459   2.626   1.743   2.997
 1151TIP3    H2 3460   2.614   1.637   2.890
 1152TIP3   OH2 3461   2.514   5.722   4.359
 1152TIP3    H1 3462   2.554   5.695   4.442
 1152TIP3    H2 3463   2.423   5.741   4.382
 1153TIP3   OH2 3464   4.529   3.235   3.903
 1153TIP3    H1 3465   4.450   3.221   3.852
 1153TIP3    H2 3466   4.527   3.329   3.924
 1154TIP3   OH2 3467   2.319   4.318   1.459
 1154TIP3    H1 3468   2.256   4.292   1.392
 1154TIP3    H2 3469   2.405   4.294   1.423
 1155TIP3   OH2 3470   2.421   1.414   5.063
 1155TIP3    H1 3471   2.484   1.429   4.993
 1155TIP3    H2 3472   2.342   1.383   5.018
 1156TIP3   OH2 3473   0.830   2.625   3.675
 1156TIP3    H1 3474   0.744   2.635   3.715
 1156TIP3    H2 3475   0.815   2.637   3.581
 1157TIP3   OH2 3476   2.974   1.603   1.620
 1157TIP3    H1 3477   3.012   1.516   1.615
 1157TIP3    H2 3478   3.005   1.638   1.704
 1158TIP3   OH2 3479   1.841   0.521   1.049
 1158TIP3    H1 3480   1.813   0.596   1.102
 1158TIP3    H2 3481   1.849   0.556   0.961
 1159TIP3   OH2 3482   3.923   5.719   2.252
 1159TIP3    H1 3483   4.002   5.734   2.200
 1159TIP3    H2 3484   3.956   5.690   2.338
 1160TIP3   OH2 3485   3.902   1.689   2.548
 1160TIP3    H1 3486   3.878   1.603   2.581
 1160TIP3    H2 3487   3.947   1.731   2.622
 1161TIP3   OH2 3488   4.298   0.405   0.410
 1161TIP3    H1 3489   4.221   0.362   0.373
 1161TIP3    H2 3490   4.318   0.476   0.349
 1162TIP3   OH2 3491   2.067   3.477   1.995
 1162TIP3    H1 3492   2.061   3.569   1.970
 1162TIP3    H2 3493   2.021   3.430   1.925
 1163TIP3   OH2 3494   3.100   1.256   2.749
 1163TIP3    H1 3495   3.152   1.270   2.828
 1163TIP3    H2 3496   3.014   1.294   2.770
 1164TIP3   OH2 3497   2.224   2.124   4.560
 1164TIP3    H1 3498   2.173   2.180   4.619
 1164TIP3    H2 3499   2.252   2.051   4.614
 1165TIP3   OH2 3500   5.710   1.816   0.766
 1165TIP3    H1 3501   5.792   1.781   0.799
 1165TIP3    H2 3502   5.731   1.905   0.737
 1166TIP3   OH2 3503   5.670   2.902   3.585
 1166TIP3    H1 3504   5.682   2.854   3.667
 1166TIP3    H2 3505   5.759   2.931   3.562
 1167TIP3   OH2 3506   2.536   5.292   2.854
 1167TIP3    H1 3507   2.498   5.213   2.891
 1167TIP3    H2 3508   2.464   5.335   2.808
 1168TIP3   OH2 3509   5.136   1.934   0.302
 1168TIP3    H1 3510   5.094   2.007   0.257
 1168TIP3    H2 3511   5.141   1.962   0.394
 1169TIP3   OH2 3512   1.478   0.210   4.128
 1169TIP3    H1 3513   1.428   0.184   4.205
 1169TIP3    H2 3514   1.467   0.138   4.066
 1170TIP3   OH2 3515   3.557   0.238   1.930
 1170TIP3    H1 3516   3.609   0.172   1.976
 1170TIP3    H2 3517   3.567   0.216   1.838
 1171TIP3   OH2 3518   1.988   4.523   4.688
 1171TIP3    H1 3519   1.999   4.489   4.777
 1171TIP3    H2 3520   1.960   4.614   4.701
 1172TIP3   OH2 3521   1.383   4.326   3.168
 1172TIP3    H1 3522   1.399   4.232   3.176
 1172TIP3    H2 3523   1.407   4.347   3.078
 1173TIP3   OH2 3524   2.205   3.535   2.229
 1173TIP3    H1 3525   2.242   3.615   2.194
 1173TIP3    H2 3526   2.188   3.480   2.152
 1174TIP3   OH2 3527   5.452   4.031   1.755
 1174TIP3    H1 3528   5.469   4.006   1.845
 1174TIP3    H2 3529   5.491   3.961   1.703
 1175TIP3   OH2 3530   4.873   2.420   1.621
 1175TIP3    H1 3531   4.929   2.450   1.550
 1175TIP3    H2 3532   4.915   2.453   1.701
 1176TIP3   OH2 3533   0.265   1.391   4.342
 1176TIP3    H1 3534   0.288   1.345   4.261
 1176TIP3    H2 3535   0.175   1.419   4.329
 1177TIP3   OH2 3536   5.321   4.008   2.859
 1177TIP3    H1 3537   5.298   4.062   2.783
 1177TIP3    H2 3538   5.290   4.058   2.935
 1178TIP3   OH2 3539   2.464   4.113   2.508
 1178TIP3    H1 3540   2.436   4.202   2.530
 1178TIP3    H2 3541   2.419   4.093   2.426
 1179TIP3   OH2 3542   1.772   4.404   4.891
 1179TIP3    H1 3543   1.791   4.445   4.975
 1179TIP3    H2 3544   1.801   4.313   4.902
 1180TIP3   OH2 3545   5.799   3.840   3.853
 1180TIP3    H1 3546   5.733   3.847   3.922
 1180TIP3    H2 3547   5.868   3.787   3.892
 1181TIP3   OH2 3548   5.884   2.867   0.652
 1181TIP3    H1 3549   5.861   2.845   0.742
 1181TIP3    H2 3550   5.877   2.962   0.648
 1182TIP3   OH2 3551   3.047   5.723   4.544
 1182TIP3    H1 3552   3.016   5.804   4.585
 1182TIP3    H2 3553   3.118   5.752   4.486
 1183TIP3   OH2 3554   2.788   1.154   0.704
 1183TIP3    H1 3555   2.805   1.182   0.793
 1183TIP3    H2 3556   2.824   1.223   0.649
 1184TIP3   OH2 3557   5.234   2.424   3.045
 1184TIP3    H1 3558   5.252   2.444   2.953
 1184TIP3    H2 3559   5.159   2.479   3.068
 1185TIP3   OH2 3560   1.187   4.636   1.918
 1185TIP3    H1 3561   1.212   4.551   1.883
 1185TIP3    H2 3562   1.213   4.699   1.850
 1186TIP3   OH2 3563   1.375   3.809   4.044
 1186TIP3    H1 3564   1.453   3.853   4.076
 1186TIP3    H2 3565   1.302   3.866   4.070
 1187TIP3   OH2 3566   1.651   3.620   1.221
 1187TIP3    H1 3567   1.637   3.594   1.130
 1187TIP3    H2 3568   1.630   3.714   1.222
 1188TIP3   OH2 3569   5.215   2.155   1.550
 1188TIP3    H1 3570   5.254   2.231   1.593
 1188TIP3    H2 3571   5.173   2.191   1.471
 1189TIP3   OH2 3572   1.181   1.933   0.150
 1189TIP3    H1 3573   1.158   1.840   0.144
 1189TIP3    H2 3574   1.124   1.976   0.086
 1190TIP3   OH2 3575   6.299   5.481   1.091
 1190TIP3    H1 3576   6.245   5.449   1.019
 1190TIP3    H2 3577   6.251   5.455   1.170
 1191TIP3   OH2 3578   4.664   3.966   4.176
 1191TIP3    H1 3579   4.703   4.052   4.159
 1191TIP3    H2 3580   4.737   3.913   4.208
 1192TIP3   OH2 3581   4.615   2.267   0.149
 1192TIP3    H1 3582   4.566   2.349   0.162
 1192TIP3    H2 3583   4.569   2.223   0.077
 1193TIP3   OH2 3584   5.100   0.408   4.740
 1193TIP3    H1 3585   5.109   0.484   4.797
 1193TIP3    H2 3586   5.037   0.352   4.785
 1194TIP3   OH2 3587   1.750   1.647   2.004
 1194TIP3    H1 3588   1.710   1.731   1.984
 1194TIP3    H2 3589   1.828   1.643   1.950
 1195TIP3   OH2 3590   0.145   1.655   5.035
 1195TIP3    H1 3591   0.056   1.687   5.021
 1195TIP3    H2 3592   0.193   1.732   5.068
 1196TIP3   OH2 3593   4.787   4.942   3.491
 1196TIP3    H1 3594   4.798   4.869   3.431
 1196TIP3    H2 3595   4.837   5.014   3.451
 1197TIP3   OH2 3596   5.678   5.330   1.232
 1197TIP3    H1 3597   5.609   5.304   1.294
 1197TIP3    H2 3598   5.700   5.419   1.256
 1198TIP3   OH2 3599   4.780   3.977   3.278
 1198TIP3    H1 3600   4.701   3.963   3.330
 1198TIP3    H2 3601   4.843   3.915   3.314
 1199TIP3   OH2 3602   4.774   1.577   1.983
 1199TIP3    H1 3603   4.866   1.554   1.971
 1199TIP3    H2 3604   4.756   1.558   2.075
 1200TIP3   OH2 3605   3.709   3.569   0.944
 1200TIP3    H1 3606   3.772   3.504   0.916
 1200TIP3    H2 3607   3.716   3.569   1.040
 1201TIP3   OH2 3608   0.578   2.962   0.722
 1201TIP3    H1 3609   0.548   2.883   0.767
 1201TIP3    H2 3610   0.527   2.964   0.641
 1202TIP3   OH2 3611   0.140   1.085   2.484
 1202TIP3    H1 3612   0.097   1.071   2.569
 1202TIP3    H2 3613   0.086   1.035   2.422
 1203TIP3   OH2 3614   5.213   1.011   3.796
 1203TIP3    H1 3615   5.211   1.024   3.891
 1203TIP3    H2 3616   5.124   0.982   3.774
 1204TIP3   OH2 3617   5.253   3.702   1.616
 1204TIP3    H1 3618   5.327   3.666   1.666
 1204TIP3    H2 3619   5.216   3.626   1.571
 1205TIP3   OH2 3620   4.833   4.340   0.700
 1205TIP3    H1 3621   4.843   4.401   0.773
 1205TIP3    H2 3622   4.744   4.356   0.668
 1206TIP3   OH2 3623   2.697   4.940   2.590
 1206TIP3    H1 3624   2.754   4.893   2.651
 1206TIP3    H2 3625   2.693   4.884   2.513
 1207TIP3   OH2 3626   1.056   5.701   2.550
 1207TIP3    H1 3627   1.135   5.660   2.585
 1207TIP3    H2 3628   1.087   5.783   2.512
 1208TIP3   OH2 3629   0.072   5.666   4.486
 1208TIP3    H1 3630  -0.009   5.615   4.476
 1208TIP3    H2 3631   0.140   5.601   4.502
 1209TIP3   OH2 3632   0.103   4.920   1.779
 1209TIP3    H1 3633   0.121   4.926   1.685
 1209TIP3    H2 3634   0.118   4.828   1.800
 1210TIP3   OH2 3635   0.918   0.256   1.798
 1210TIP3    H1 3636   1.006   0.220   1.796
 1210TIP3    H2 3637   0.905   0.282   1.890
 1211TIP3   OH2 3638   4.110   5.771   4.112
 1211TIP3    H1 3639   4.064   5.852   4.091
 1211TIP3    H2 3640   4.075   5.707   4.050
 1212TIP3   OH2 3641   0.623   0.641   1.800
 1212TIP3    H1 3642   0.636   0.665   1.892
 1212TIP3    H2 3643   0.642   0.721   1.751
 1213TIP3   OH2 3644   5.883   3.552   3.952
 1213TIP3    H1 3645   5.794   3.521   3.970
 1213TIP3    H2 3646   5.926   3.552   4.037
 1214TIP3   OH2 3647   3.577   4.325   4.539
 1214TIP3    H1 3648   3.511   4.364   4.481
 1214TIP3    H2 3649   3.530   4.255   4.585
 1215TIP3   OH2 3650   2.095   4.838   4.899
 1215TIP3    H1 3651   2.147   4.916   4.876
 1215TIP3    H2 3652   2.077   4.796   4.814
 1216TIP3   OH2 3653   0.531   1.395   2.263
 1216TIP3    H1 3654   0.449   1.400   2.312
 1216TIP3    H2 3655   0.581   1.471   2.291
 1217TIP3   OH2 3656   1.630   4.783   4.121
 1217TIP3    H1 3657   1.627   4.834   4.039
 1217TIP3    H2 3658   1.719   4.750   4.124
 1218TIP3   OH2 3659   0.793   0.529   1.625
 1218TIP3    H1 3660   0.733   0.565   1.690
 1218TIP3    H2 3661   0.819   0.444   1.661
 1219TIP3   OH2 3662   0.010   2.717   3.158
 1219TIP3    H1 3663   0.001   2.810   3.140
 1219TIP3    H2 3664   0.025   2.712   3.253
 1220TIP3   OH2 3665   1.686   5.078   1.058
 1220TIP3    H1 3666   1.610   5.029   1.025
 1220TIP3    H2 3667   1.663   5.102   1.147
 1221TIP3   OH2 3668   3.776   2.020   4.838
 1221TIP3    H1 3669   3.788   1.934   4.877
 1221TIP3    H2 3670   3.729   2.070   4.904
 1222TIP3   OH2 3671   4.071   3.808   1.481
 1222TIP3    H1 3672   4.158   3.834   1.513
 1222TIP3    H2 3673   4.087   3.734   1.423
 1223TIP3   OH2 3674   2.591   0.690   4.482
 1223TIP3    H1 3675   2.666   0.733   4.441
 1223TIP3    H2 3676   2.573   0.614   4.425
 1224TIP3   OH2 3677   4.432   5.591   3.075
 1224TIP3    H1 3678   4.523   5.564   3.086
 1224TIP3    H2 3679   4.435   5.663   3.013
 1225TIP3   OH2 3680   3.169   4.217   1.567
 1225TIP3    H1 3681   3.149   4.283   1.501
 1225TIP3    H2 3682   3.259   4.189   1.546
 1226TIP3   OH2 3683   4.223   1.121   3.665
 1226TIP3    H1 3684   4.276   1.171   3.728
 1226TIP3    H2 3685   4.150   1.179   3.643
 1227TIP3   OH2 3686   6.291   5.413   1.753
 1227TIP3    H1 3687   6.353   5.365   1.808
 1227TIP3    H2 3688   6.225   5.348   1.730
 1228TIP3   OH2 3689   2.806   3.631   2.287
 1228TIP3    H1 3690   2.812   3.637   2.192
 1228TIP3    H2 3691   2.755   3.551   2.302
 1229TIP3   OH2 3692   0.909   2.513   1.210
 1229TIP3    H1 3693   1.002   2.522   1.232
 1229TIP3    H2 3694   0.896   2.571   1.135
 1230TIP3   OH2 3695   5.255   0.887   3.153
 1230TIP3    H1 3696   5.315   0.930   3.214
 1230TIP3    H2 3697   5.172   0.935   3.164
 1231TIP3   OH2 3698   0.417   3.106   3.309
 1231TIP3    H1 3699   0.467   3.117   3.228
 1231TIP3    H2 3700   0.482   3.079   3.374
 1232TIP3   OH2 3701   4.359   3.235   0.526
 1232TIP3    H1 3702   4.329   3.266   0.441
 1232TIP3    H2 3703   4.397   3.312   0.567
 1233TIP3   OH2 3704   3.004   2.978   0.503
 1233TIP3    H1 3705   2.983   3.046   0.567
 1233TIP3    H2 3706   3.099   2.970   0.507
 1234TIP3   OH2 3707   0.884   2.929   0.791
 1234TIP3    H1 3708   0.917   3.009   0.749
 1234TIP3    H2 3709   0.794   2.921   0.760
 1235TIP3   OH2 3710   5.654   0.667   0.831
 1235TIP3    H1 3711   5.616   0.590   0.788
 1235TIP3    H2 3712   5.692   0.632   0.912
 1236TIP3   OH2 3713   2.855   3.617   2.614
 1236TIP3    H1 3714   2.922   3.587   2.553
 1236TIP3    H2 3715   2.827   3.538   2.661
 1237TIP3   OH2 3716   2.904   5.155   2.890
 1237TIP3    H1 3717   2.892   5.181   2.799
 1237TIP3    H2 3718   2.904   5.059   2.888
 1238TIP3   OH2 3719   2.704   1.148   4.367
 1238TIP3    H1 3720   2.710   1.241   4.390
 1238TIP3    H2 3721   2.642   1.146   4.294
 1239TIP3   OH2 3722   0.514   1.084   2.220
 1239TIP3    H1 3723   0.583   1.080   2.153
 1239TIP3    H2 3724   0.496   0.992   2.241
 1240TIP3   OH2 3725   0.292   1.691   3.263
 1240TIP3    H1 3726   0.205   1.659   3.286
 1240TIP3    H2 3727   0.326   1.628   3.200
 1241TIP3   OH2 3728   3.728   0.472   2.762
 1241TIP3    H1 3729   3.649   0.507   2.801
 1241TIP3    H2 3730   3.791   0.544   2.764
 1242TIP3   OH2 3731   5.662   3.429   4.056
 1242TIP3    H1 3732   5.579   3.382   4.047
 1242TIP3    H2 3733   5.661   3.461   4.146
 1243TIP3   OH2 3734   5.584   1.446   1.590
 1243TIP3    H1 3735   5.565   1.521   1.534
 1243TIP3    H2 3736   5.539   1.373   1.549
 1244TIP3   OH2 3737   1.161   4.999   0.397
 1244TIP3    H1 3738   1.159   5.075   0.455
 1244TIP3    H2 3739   1.175   5.036   0.310
 1245TIP3   OH2 3740   2.545   2.401   4.440
 1245TIP3    H1 3741   2.621   2.371   4.490
 1245TIP3    H2 3742   2.476   2.413   4.505
 1246TIP3   OH2 3743   4.220   5.544   3.844
 1246TIP3    H1 3744   4.127   5.562   3.857
 1246TIP3    H2 3745   4.235   5.556   3.751
 1247TIP3   OH2 3746   0.625   0.381   4.255
 1247TIP3    H1 3747   0.690   0.447   4.230
 1247TIP3    H2 3748   0.674   0.299   4.254
 1248TIP3   OH2 3749   5.446   2.902   3.450
 1248TIP3    H1 3750   5.527   2.905   3.500
 1248TIP3    H2 3751   5.435   2.810   3.427
 1249TIP3   OH2 3752   1.034   1.106   1.697
 1249TIP3    H1 3753   1.114   1.132   1.743
 1249TIP3    H2 3754   1.008   1.185   1.648
 1250TIP3   OH2 3755   4.809   3.855   0.094
 1250TIP3    H1 3756   4.836   3.794   0.162
 1250TIP3    H2 3757   4.762   3.802   0.030
 1251TIP3   OH2 3758   2.906   4.727   0.217
 1251TIP3    H1 3759   2.892   4.738   0.123
 1251TIP3    H2 3760   2.902   4.633   0.232
 1252TIP3   OH2 3761   1.503   1.807   4.368
 1252TIP3    H1 3762   1.575   1.826   4.428
 1252TIP3    H2 3763   1.424   1.822   4.419
 1253TIP3   OH2 3764   5.047   0.524   2.170
 1253TIP3    H1 3765   4.962   0.510   2.128
 1253TIP3    H2 3766   5.028   0.586   2.241
 1254TIP3   OH2 3767   5.505   4.694   0.065
 1254TIP3    H1 3768   5.589   4.720   0.103
 1254TIP3    H2 3769   5.453   4.663   0.139
 1255TIP3   OH2 3770   3.368   5.419   4.466
 1255TIP3    H1 3771   3.384   5.463   4.550
 1255TIP3    H2 3772   3.456   5.399   4.433
 1256TIP3   OH2 3773   3.347   1.798   3.876
 1256TIP3    H1 3774   3.432   1.756   3.868
 1256TIP3    H2 3775   3.317   1.774   3.964
 1257TIP3   OH2 3776   0.143   5.222   4.401
 1257TIP3    H1 3777   0.211   5.183   4.347
 1257TIP3    H2 3778   0.061   5.185   4.368
 1258TIP3   OH2 3779   3.617   5.218   0.281
 1258TIP3    H1 3780   3.630   5.311   0.300
 1258TIP3    H2 3781   3.679   5.173   0.339
 1259TIP3   OH2 3782   5.850   5.737   3.898
 1259TIP3    H1 3783   5.793   5.791   3.953
 1259TIP3    H2 3784   5.893   5.677   3.959
 1260TIP3   OH2 3785   2.854   4.751   0.556
 1260TIP3    H1 3786   2.900   4.701   0.488
 1260TIP3    H2 3787   2.804   4.817   0.507
 1261TIP3   OH2 3788   4.106   2.428   3.158
 1261TIP3    H1 3789   4.142   2.432   3.070
 1261TIP3    H2 3790   4.012   2.418   3.146
 1262TIP3   OH2 3791   4.094   1.671   1.270
 1262TIP3    H1 3792   4.178   1.630   1.292
 1262TIP3    H2 3793   4.090   1.668   1.175
 1263TIP3   OH2 3794   2.992   1.451   1.162
 1263TIP3    H1 3795   2.977   1.377   1.221
 1263TIP3    H2 3796   2.949   1.525   1.205
 1264TIP3   OH2 3797   4.144   1.879   4.608
 1264TIP3    H1 3798   4.171   1.952   4.553
 1264TIP3    H2 3799   4.069   1.912   4.658
 1265TIP3   OH2 3800   3.926   3.880   2.947
 1265TIP3    H1 3801   3.908   3.951   3.008
 1265TIP3    H2 3802   3.911   3.919   2.860
 1266TIP3   OH2 3803   5.134   5.108   0.602
 1266TIP3    H1 3804   5.122   5.014   0.586
 1266TIP3    H2 3805   5.062   5.149   0.554
 1267TIP3   OH2 3806   5.925   3.128   5.118
 1267TIP3    H1 3807   5.853   3.108   5.058
 1267TIP3    H2 3808   5.885   3.179   5.188
 1268TIP3   OH2 3809   5.729   4.260   2.721
 1268TIP3    H1 3810   5.810   4.270   2.771
 1268TIP3    H2 3811   5.734   4.172   2.684
 1269TIP3   OH2 3812   5.636   4.344   1.862
 1269TIP3    H1 3813   5.544   4.349   1.834
 1269TIP3    H2 3814   5.635   4.280   1.934
 1270TIP3   OH2 3815   2.886   0.159   4.082
 1270TIP3    H1 3816   2.948   0.232   4.078
 1270TIP3    H2 3817   2.942   0.080   4.082
 1271TIP3   OH2 3818   0.656   2.098   4.893
 1271TIP3    H1 3819   0.715   2.024   4.883
 1271TIP3    H2 3820   0.696   2.152   4.961
 1272TIP3   OH2 3821   0.255   5.209   1.780
 1272TIP3    H1 3822   0.167   5.178   1.798
 1272TIP3    H2 3823   0.305   5.186   1.859
 1273TIP3   OH2 3824  -0.007   5.760   2.043
 1273TIP3    H1 3825   0.082   5.786   2.018
 1273TIP3    H2 3826   0.005   5.683   2.098
 1274TIP3   OH2 3827   2.419   1.709   1.503
 1274TIP3    H1 3828   2.468   1.758   1.569
 1274TIP3    H2 3829   2.396   1.627   1.547
 1275TIP3   OH2 3830   1.678   2.875   1.050
 1275TIP3    H1 3831   1.618   2.944   1.081
 1275TIP3    H2 3832   1.658   2.800   1.105
 1276TIP3   OH2 3833   3.762   1.471   0.421
 1276TIP3    H1 3834   3.730   1.429   0.500
 1276TIP3    H2 3835   3.817   1.543   0.453
 1277TIP3   OH2 3836   3.873   5.363   2.073
 1277TIP3    H1 3837   3.813   5.401   2.137
 1277TIP3    H2 3838   3.864   5.417   1.995
 1278TIP3   OH2 3839   2.092   2.991   1.386
 1278TIP3    H1 3840   2.035   3.002   1.310
 1278TIP3    H2 3841   2.163   2.935   1.355
 1279TIP3   OH2 3842   3.651   5.178   1.075
 1279TIP3    H1 3843   3.575   5.121   1.064
 1279TIP3    H2 3844   3.652   5.199   1.168
 1280TIP3   OH2 3845   2.308   3.309   4.538
 1280TIP3    H1 3846   2.244   3.271   4.598
 1280TIP3    H2 3847   2.349   3.233   4.496
 1281TIP3   OH2 3848   4.449   0.939   2.733
 1281TIP3    H1 3849   4.469   1.033   2.737
 1281TIP3    H2 3850   4.523   0.896   2.775
 1282TIP3   OH2 3851   4.359   3.465  -0.017
 1282TIP3    H1 3852   4.426   3.471   0.051
 1282TIP3    H2 3853   4.355   3.372  -0.039
 1283TIP3   OH2 3854   2.204   2.671   2.928
 1283TIP3    H1 3855   2.196   2.687   3.022
 1283TIP3    H2 3856   2.287   2.625   2.918
 1284TIP3   OH2 3857   2.841   3.884   2.610
 1284TIP3    H1 3858   2.781   3.903   2.683
 1284TIP3    H2 3859   2.851   3.789   2.612
 1285TIP3   OH2 3860   4.091   0.006   5.089
 1285TIP3    H1 3861   4.075   0.090   5.133
 1285TIP3    H2 3862   4.115  -0.054   5.159
 1286TIP3   OH2 3863   2.261   5.416   3.566
 1286TIP3    H1 3864   2.332   5.357   3.593
 1286TIP3    H2 3865   2.306   5.493   3.532
 1287TIP3   OH2 3866   3.122   0.822   3.778
 1287TIP3    H1 3867   3.189   0.864   3.831
 1287TIP3    H2 3868   3.045   0.879   3.787
 1288TIP3   OH2 3869   3.891   2.782   0.475
 1288TIP3    H1 3870   3.806   2.824   0.465
 1288TIP3    H2 3871   3.873   2.689   0.463
 1289TIP3   OH2 3872   0.605   4.742   2.972
 1289TIP3    H1 3873   0.597   4.751   3.067
 1289TIP3    H2 3874   0.689   4.697   2.960
 1290TIP3   OH2 3875   3.879   2.317   0.797
 1290TIP3    H1 3876   3.901   2.246   0.859
 1290TIP3    H2 3877   3.938   2.303   0.724
 1291TIP3   OH2 3878   0.077   4.604   4.418
 1291TIP3    H1 3879   0.097   4.591   4.325
 1291TIP3    H2 3880  -0.017   4.625   4.419
 1292TIP3   OH2 3881   2.713   4.743   3.423
 1292TIP3    H1 3882   2.653   4.811   3.453
 1292TIP3    H2 3883   2.731   4.765   3.331
 1293TIP3   OH2 3884   0.996   3.004   1.885
 1293TIP3    H1 3885   0.934   3.073   1.862
 1293TIP3    H2 3886   1.000   2.948   1.807
 1294TIP3   OH2 3887   4.911   0.565   4.516
 1294TIP3    H1 3888   4.844   0.507   4.482
 1294TIP3    H2 3889   4.993   0.530   4.482
 1295TIP3   OH2 3890   5.595   3.048   0.818
 1295TIP3    H1 3891   5.637   2.971   0.856
 1295TIP3    H2 3892   5.660   3.118   0.828
 1296TIP3   OH2 3893   3.671   0.791   4.828
 1296TIP3    H1 3894   3.712   0.757   4.907
 1296TIP3    H2 3895   3.591   0.834   4.858
 1297TIP3   OH2 3896   0.020   2.543   1.818
 1297TIP3    H1 3897   0.022   2.637   1.833
 1297TIP3    H2 3898  -0.072   2.522   1.803
 1298TIP3   OH2 3899   5.912   2.173   1.861
 1298TIP3    H1 3900   5.831   2.155   1.814
 1298TIP3    H2 3901   5.981   2.165   1.795
 1299TIP3   OH2 3902   0.304   1.588   2.386
 1299TIP3    H1 3903   0.327   1.666   2.336
 1299TIP3    H2 3904   0.209   1.590   2.393
 1300TIP3   OH2 3905   3.765   0.711   2.099
 1300TIP3    H1 3906   3.674   0.732   2.118
 1300TIP3    H2 3907   3.761   0.642   2.033
 1301TIP3   OH2 3908   0.246   1.809   1.147
 1301TIP3    H1 3909   0.283   1.855   1.223
 1301TIP3    H2 3910   0.153   1.800   1.168
 1302TIP3   OH2 3911   2.324  -0.037   0.344
 1302TIP3    H1 3912   2.258  -0.048   0.413
 1302TIP3    H2 3913   2.352   0.054   0.352
 1303TIP3   OH2 3914   2.761   4.312   0.418
 1303TIP3    H1 3915   2.811   4.239   0.454
 1303TIP3    H2 3916   2.681   4.316   0.470
 1304TIP3   OH2 3917   1.937   4.738   2.323
 1304TIP3    H1 3918   1.933   4.752   2.418
 1304TIP3    H2 3919   2.030   4.741   2.302
 1305TIP3   OH2 3920   0.235   2.184   3.004
 1305TIP3    H1 3921   0.222   2.255   3.067
 1305TIP3    H2 3922   0.313   2.210   2.955
 1306TIP3   OH2 3923   1.282   0.560   0.753
 1306TIP3    H1 3924   1.290   0.528   0.844
 1306TIP3    H2 3925   1.201   0.610   0.752
 1307TIP3   OH2 3926   4.098   0.960   0.021
 1307TIP3    H1 3927   4.069   0.958   0.112
 1307TIP3    H2 3928   4.167   1.026   0.019
 1308TIP3   OH2 3929   4.785   1.497   1.679
 1308TIP3    H1 3930   4.735   1.544   1.746
 1308TIP3    H2 3931   4.769   1.405   1.698
 1309TIP3   OH2 3932   0.919   5.073   4.191
 1309TIP3    H1 3933   1.005   5.084   4.151
 1309TIP3    H2 3934   0.867   5.031   4.122
 1310TIP3   OH2 3935   6.217   2.774   4.677
 1310TIP3    H1 3936   6.153   2.720   4.631
 1310TIP3    H2 3937   6.166   2.846   4.714
 1311TIP3   OH2 3938   1.546   0.270   2.862
 1311TIP3    H1 3939   1.593   0.240   2.784
 1311TIP3    H2 3940   1.455   0.275   2.834
 1312TIP3   OH2 3941   2.342   1.405   0.611
 1312TIP3    H1 3942   2.384   1.342   0.669
 1312TIP3    H2 3943   2.406   1.418   0.540
 1313TIP3   OH2 3944   2.171   4.158   4.910
 1313TIP3    H1 3945   2.173   4.144   4.816
 1313TIP3    H2 3946   2.253   4.119   4.942
 1314TIP3   OH2 3947   3.577   1.149   2.105
 1314TIP3    H1 3948   3.643   1.109   2.161
 1314TIP3    H2 3949   3.501   1.160   2.161
 1315TIP3   OH2 3950   4.422   4.563   4.467
 1315TIP3    H1 3951   4.495   4.607   4.511
 1315TIP3    H2 3952   4.360   4.632   4.447
 1316TIP3   OH2 3953   3.378   3.882   1.573
 1316TIP3    H1 3954   3.372   3.916   1.662
 1316TIP3    H2 3955   3.344   3.952   1.518
 1317TIP3   OH2 3956   1.000   2.578   1.753
 1317TIP3    H1 3957   1.095   2.569   1.762
 1317TIP3    H2 3958   0.964   2.528   1.827
 1318TIP3   OH2 3959   4.883   5.852   2.051
 1318TIP3    H1 3960   4.833   5.933   2.057
 1318TIP3    H2 3961   4.975   5.880   2.052
 1319TIP3   OH2 3962   2.754   2.502   4.209
 1319TIP3    H1 3963   2.700   2.435   4.250
 1319TIP3    H2 3964   2.807   2.454   4.145
 1320TIP3   OH2 3965   6.246   4.132   1.250
 1320TIP3    H1 3966   6.204   4.167   1.171
 1320TIP3    H2 3967   6.294   4.055   1.219
 1321TIP3   OH2 3968   6.195   5.409   0.500
 1321TIP3    H1 3969   6.108   5.394   0.538
 1321TIP3    H2 3970   6.201   5.346   0.428
 1322TIP3   OH2 3971   0.346   4.370   3.541
 1322TIP3    H1 3972   0.441   4.372   3.548
 1322TIP3    H2 3973   0.319   4.461   3.553
 1323TIP3   OH2 3974   5.879   1.606   0.020
 1323TIP3    H1 3975   5.944   1.538   0.042
 1323TIP3    H2 3976   5.842   1.632   0.104
 1324TIP3   OH2 3977   5.650   2.604   3.471
 1324TIP3    H1 3978   5.668   2.541   3.540
 1324TIP3    H2 3979   5.704   2.680   3.492
 1325TIP3   OH2 3980   1.546   2.737   4.469
 1325TIP3    H1 3981   1.620   2.794   4.450
 1325TIP3    H2 3982   1.478   2.764   4.407
 1326TIP3   OH2 3983   1.676   3.518   4.040
 1326TIP3    H1 3984   1.688   3.607   4.074
 1326TIP3    H2 3985   1.717   3.461   4.105
 1327TIP3   OH2 3986   6.177   2.024   3.957
 1327TIP3    H1 3987   6.085   2.049   3.963
 1327TIP3    H2 3988   6.225   2.105   3.974
 1328TIP3   OH2 3989   5.266   1.289   2.953
 1328TIP3    H1 3990   5.205   1.267   2.882
 1328TIP3    H2 3991   5.351   1.257   2.922
 1329TIP3   OH2 3992   0.102   0.804   5.013
 1329TIP3    H1 3993   0.028   0.818   5.072
 1329TIP3    H2 3994   0.156   0.738   5.056
 1330TIP3   OH2 3995   3.637   2.310   4.889
 1330TIP3    H1 3996   3.604   2.242   4.948
 1330TIP3    H2 3997   3.678   2.374   4.947
 1331TIP3   OH2 3998   1.450   2.581   1.689
 1331TIP3    H1 3999   1.538   2.606   1.719
 1331TIP3    H2 4000   1.463   2.496   1.646
 1332TIP3   OH2 4001   2.114   4.764   1.109
 1332TIP3    H1 4002   2.044   4.830   1.114
 1332TIP3    H2 4003   2.073   4.689   1.065
 1333TIP3   OH2 4004   3.399   2.389   3.569
 1333TIP3    H1 4005   3.436   2.459   3.622
 1333TIP3    H2 4006   3.460   2.378   3.496
 1334TIP3   OH2 4007   1.744   4.919   2.283
 1334TIP3    H1 4008   1.810   4.850   2.281
 1334TIP3    H2 4009   1.685   4.895   2.355
 1335TIP3   OH2 4010   3.721   2.982   1.399
 1335TIP3    H1 4011   3.694   2.941   1.317
 1335TIP3    H2 4012   3.751   2.910   1.454
 1336TIP3   OH2 4013   1.986   3.419   4.730
 1336TIP3    H1 4014   2.075   3.445   4.755
 1336TIP3    H2 4015   1.939   3.413   4.813
 1337TIP3   OH2 4016   4.948   3.372   4.564
 1337TIP3    H1 4017   4.977   3.327   4.484
 1337TIP3    H2 4018   4.872   3.321   4.594
 1338TIP3   OH2 4019   3.251   2.531   3.190
 1338TIP3    H1 4020   3.294   2.447   3.198
 1338TIP3    H2 4021   3.311   2.593   3.231
 1339TIP3   OH2 4022   5.831   4.399   3.567
 1339TIP3    H1 4023   5.838   4.379   3.661
 1339TIP3    H2 4024   5.788   4.322   3.530
 1340TIP3   OH2 4025   6.071   4.403   5.028
 1340TIP3    H1 4026   5.980   4.387   5.052
 1340TIP3    H2 4027   6.086   4.347   4.952
 1341TIP3   OH2 4028   4.603   3.590   2.619
 1341TIP3    H1 4029   4.610   3.609   2.712
 1341TIP3    H2 4030   4.601   3.676   2.577
 1342TIP3   OH2 4031   1.198   2.209   1.989
 1342TIP3    H1 4032   1.290   2.188   1.975
 1342TIP3    H2 4033   1.196   2.305   1.996
 1343TIP3   OH2 4034   5.613   0.447   1.739
 1343TIP3    H1 4035   5.546   0.417   1.677
 1343TIP3    H2 4036   5.645   0.529   1.701
 1344TIP3   OH2 4037   2.529   2.718   2.066
 1344TIP3    H1 4038   2.611   2.682   2.031
 1344TIP3    H2 4039   2.551   2.808   2.090
 1345TIP3   OH2 4040   4.613   2.289   1.585
 1345TIP3    H1 4041   4.561   2.279   1.665
 1345TIP3    H2 4042   4.695   2.329   1.614
 1346TIP3   OH2 4043   1.437   0.294   0.670
 1346TIP3    H1 4044   1.369   0.353   0.700
 1346TIP3    H2 4045   1.417   0.210   0.713
 1347TIP3   OH2 4046   3.292   5.787   0.523
 1347TIP3    H1 4047   3.297   5.702   0.567
 1347TIP3    H2 4048   3.355   5.780   0.451
 1348TIP3   OH2 4049   2.122   4.289   3.946
 1348TIP3    H1 4050   2.149   4.375   3.916
 1348TIP3    H2 4051   2.202   4.250   3.982
 1349TIP3   OH2 4052   6.293   1.053   0.747
 1349TIP3    H1 4053   6.379   1.093   0.735
 1349TIP3    H2 4054   6.271   1.072   0.839
 1350TIP3   OH2 4055   4.872   5.767   2.442
 1350TIP3    H1 4056   4.806   5.836   2.433
 1350TIP3    H2 4057   4.948   5.799   2.395
 1351TIP3   OH2 4058   1.670   1.306   0.484
 1351TIP3    H1 4059   1.714   1.391   0.491
 1351TIP3    H2 4060   1.713   1.263   0.410
 1352TIP3   OH2 4061   5.049   5.008   3.090
 1352TIP3    H1 4062   5.034   5.097   3.057
 1352TIP3    H2 4063   5.107   4.967   3.026
 1353TIP3   OH2 4064   0.859   2.223   2.994
 1353TIP3    H1 4065   0.883   2.312   3.022
 1353TIP3    H2 4066   0.767   2.215   3.019
 1354TIP3   OH2 4067   4.858   3.600   0.490
 1354TIP3    H1 4068   4.913   3.676   0.511
 1354TIP3    H2 4069   4.912   3.524   0.513
 1355TIP3   OH2 4070   6.318   2.093   3.261
 1355TIP3    H1 4071   6.327   2.002   3.290
 1355TIP3    H2 4072   6.279   2.086   3.174
 1356TIP3   OH2 4073   5.586   3.426   3.143
 1356TIP3    H1 4074   5.614   3.490   3.209
 1356TIP3    H2 4075   5.490   3.427   3.148
 1357TIP3   OH2 4076   0.102   1.882   1.424
 1357TIP3    H1 4077   0.081   1.973   1.444
 1357TIP3    H2 4078   0.197   1.882   1.410
 1358TIP3   OH2 4079   0.648   3.738   4.117
 1358TIP3    H1 4080   0.622   3.813   4.170
 1358TIP3    H2 4081   0.565   3.702   4.084
 1359TIP3   OH2 4082   6.185   0.829   2.954
 1359TIP3    H1 4083   6.184   0.754   2.895
 1359TIP3    H2 4084   6.174   0.792   3.041
 1360TIP3   OH2 4085   4.997   1.367   1.030
 1360TIP3    H1 4086   4.961   1.349   1.117
 1360TIP3    H2 4087   5.086   1.397   1.048
 1361TIP3   OH2 4088   0.445   4.720   1.193
 1361TIP3    H1 4089   0.510   4.729   1.263
 1361TIP3    H2 4090   0.486   4.760   1.117
 1362TIP3   OH2 4091   2.819   0.457   3.084
 1362TIP3    H1 4092   2.889   0.404   3.044
 1362TIP3    H2 4093   2.779   0.504   3.010
 1363TIP3   OH2 4094   4.571   1.830   2.087
 1363TIP3    H1 4095   4.629   1.759   2.114
 1363TIP3    H2 4096   4.616   1.910   2.115
 1364TIP3   OH2 4097   1.579   4.627   4.726
 1364TIP3    H1 4098   1.627   4.647   4.807
 1364TIP3    H2 4099   1.642   4.644   4.656
 1365TIP3   OH2 4100   1.049   0.068   4.406
 1365TIP3    H1 4101   1.144   0.057   4.414
 1365TIP3    H2 4102   1.013   0.024   4.483
 1366TIP3   OH2 4103   0.408   4.262   2.590
 1366TIP3    H1 4104   0.389   4.169   2.580
 1366TIP3    H2 4105   0.324   4.306   2.572
 1367TIP3   OH2 4106   0.586   5.500   4.657
 1367TIP3    H1 4107   0.631   5.490   4.741
 1367TIP3    H2 4108   0.655   5.528   4.597
 1368TIP3   OH2 4109   3.346   0.981   1.956
 1368TIP3    H1 4110   3.357   0.886   1.960
 1368TIP3    H2 4111   3.389   1.006   1.874
 1369TIP3   OH2 4112   1.743   1.977   2.196
 1369TIP3    H1 4113   1.661   1.967   2.245
 1369TIP3    H2 4114   1.808   1.996   2.263
 1370TIP3   OH2 4115   3.919   1.382   2.458
 1370TIP3    H1 4116   3.874   1.407   2.378
 1370TIP3    H2 4117   3.850   1.376   2.524
 1371TIP3   OH2 4118   5.897   3.379   4.879
 1371TIP3    H1 4119   5.944   3.319   4.820
 1371TIP3    H2 4120   5.962   3.445   4.902
 1372TIP3   OH2 4121   4.360   0.477   3.133
 1372TIP3    H1 4122   4.452   0.454   3.121
 1372TIP3    H2 4123   4.320   0.400   3.172
 1373TIP3   OH2 4124   4.498   4.415   1.272
 1373TIP3    H1 4125   4.430   4.476   1.247
 1373TIP3    H2 4126   4.562   4.468   1.319
 1374TIP3   OH2 4127   4.869   1.527   2.691
 1374TIP3    H1 4128   4.867   1.434   2.671
 1374TIP3    H2 4129   4.795   1.564   2.643
 1375TIP3   OH2 4130   5.356   3.088   1.001
 1375TIP3    H1 4131   5.333   3.178   0.982
 1375TIP3    H2 4132   5.440   3.074   0.958
 1376TIP3   OH2 4133   5.013   3.428   2.836
 1376TIP3    H1 4134   5.049   3.479   2.909
 1376TIP3    H2 4135   5.078   3.359   2.821
 1377TIP3   OH2 4136   4.922   3.384   3.351
 1377TIP3    H1 4137   4.867   3.353   3.423
 1377TIP3    H2 4138   5.003   3.412   3.393
 1378TIP3   OH2 4139   2.770   5.902   2.769
 1378TIP3    H1 4140   2.711   5.860   2.706
 1378TIP3    H2 4141   2.746   5.863   2.853
 1379TIP3   OH2 4142   1.106   2.925   4.329
 1379TIP3    H1 4143   1.152   2.999   4.369
 1379TIP3    H2 4144   1.017   2.957   4.313
 1380TIP3   OH2 4145   1.866   3.680   1.894
 1380TIP3    H1 4146   1.822   3.666   1.810
 1380TIP3    H2 4147   1.823   3.756   1.932
 1381TIP3   OH2 4148   0.450   4.875   0.513
 1381TIP3    H1 4149   0.360   4.862   0.484
 1381TIP3    H2 4150   0.469   4.801   0.570
 1382TIP3   OH2 4151   2.638   1.328   3.673
 1382TIP3    H1 4152   2.613   1.319   3.581
 1382TIP3    H2 4153   2.618   1.419   3.694
 1383TIP3   OH2 4154   4.232   0.698   3.964
 1383TIP3    H1 4155   4.164   0.736   4.020
 1383TIP3    H2 4156   4.211   0.730   3.876
 1384TIP3   OH2 4157   3.769   5.043   2.870
 1384TIP3    H1 4158   3.843   5.018   2.814
 1384TIP3    H2 4159   3.772   5.138   2.873
 1385TIP3   OH2 4160   5.568   4.445   0.862
 1385TIP3    H1 4161   5.540   4.451   0.954
 1385TIP3    H2 4162   5.660   4.473   0.863
 1386TIP3   OH2 4163   0.922   5.836   0.438
 1386TIP3    H1 4164   0.871   5.808   0.362
 1386TIP3    H2 4165   0.919   5.761   0.498
 1387TIP3   OH2 4166   1.016   3.445   0.860
 1387TIP3    H1 4167   1.094   3.395   0.882
 1387TIP3    H2 4168   0.943   3.386   0.881
 1388TIP3   OH2 4169   6.164   3.933   3.593
 1388TIP3    H1 4170   6.196   3.847   3.565
 1388TIP3    H2 4171   6.222   3.958   3.665
 1389TIP3   OH2 4172   2.829   0.736   4.686
 1389TIP3    H1 4173   2.788   0.653   4.660
 1389TIP3    H2 4174   2.830   0.734   4.781
 1390TIP3   OH2 4175   4.888   5.944   0.026
 1390TIP3    H1 4176   4.850   5.889  -0.043
 1390TIP3    H2 4177   4.822   5.945   0.095
 1391TIP3   OH2 4178   2.845   0.572   2.025
 1391TIP3    H1 4179   2.848   0.527   1.941
 1391TIP3    H2 4180   2.934   0.566   2.059
 1392TIP3   OH2 4181   2.524   3.259   1.081
 1392TIP3    H1 4182   2.461   3.188   1.097
 1392TIP3    H2 4183   2.474   3.324   1.031
 1393TIP3   OH2 4184   4.838   1.623   4.640
 1393TIP3    H1 4185   4.925   1.631   4.600
 1393TIP3    H2 4186   4.852   1.643   4.732
 1394TIP3   OH2 4187   2.048   3.921   1.680
 1394TIP3    H1 4188   2.050   4.016   1.668
 1394TIP3    H2 4189   1.967   3.893   1.636
 1395TIP3   OH2 4190   4.461   1.823   3.077
 1395TIP3    H1 4191   4.485   1.763   3.006
 1395TIP3    H2 4192   4.402   1.772   3.132
 1396TIP3   OH2 4193   1.265   5.040   0.121
 1396TIP3    H1 4194   1.290   5.123   0.080
 1396TIP3    H2 4195   1.348   4.996   0.140
 1397TIP3   OH2 4196   1.338   5.068   2.797
 1397TIP3    H1 4197   1.331   5.161   2.818
 1397TIP3    H2 4198   1.431   5.054   2.777
 1398TIP3   OH2 4199   2.738   1.414   0.200
 1398TIP3    H1 4200   2.761   1.327   0.231
 1398TIP3    H2 4201   2.719   1.403   0.107
 1399TIP3   OH2 4202   5.222   1.962   0.788
 1399TIP3    H1 4203   5.243   2.048   0.824
 1399TIP3    H2 4204   5.128   1.963   0.774
 1400TIP3   OH2 4205   5.365   0.418   3.785
 1400TIP3    H1 4206   5.328   0.494   3.741
 1400TIP3    H2 4207   5.450   0.448   3.819
 1401TIP3   OH2 4208   0.919   4.588   2.026
 1401TIP3    H1 4209   0.921   4.549   2.114
 1401TIP3    H2 4210   1.010   4.614   2.010
 1402TIP3   OH2 4211   5.828   1.837   2.950
 1402TIP3    H1 4212   5.798   1.920   2.987
 1402TIP3    H2 4213   5.804   1.771   3.016
 1403TIP3   OH2 4214   1.973   5.558   3.121
 1403TIP3    H1 4215   2.010   5.526   3.203
 1403TIP3    H2 4216   1.911   5.625   3.147
 1404TIP3   OH2 4217   5.813   2.169   2.672
 1404TIP3    H1 4218   5.800   2.190   2.765
 1404TIP3    H2 4219   5.890   2.220   2.647
 1405TIP3   OH2 4220   2.613   1.914   0.438
 1405TIP3    H1 4221   2.643   2.005   0.428
 1405TIP3    H2 4222   2.591   1.887   0.349
 1406TIP3   OH2 4223   0.681   2.639   1.923
 1406TIP3    H1 4224   0.691   2.681   1.837
 1406TIP3    H2 4225   0.768   2.644   1.962
 1407TIP3   OH2 4226   5.090   1.082   1.384
 1407TIP3    H1 4227   5.031   1.030   1.439
 1407TIP3    H2 4228   5.178   1.055   1.411
 1408TIP3   OH2 4229   6.156   3.359   1.666
 1408TIP3    H1 4230   6.194   3.408   1.738
 1408TIP3    H2 4231   6.225   3.299   1.639
 1409TIP3   OH2 4232   1.247   3.526   3.346
 1409TIP3    H1 4233   1.278   3.613   3.372
 1409TIP3    H2 4234   1.222   3.537   3.254
 1410TIP3   OH2 4235   5.459   3.945   2.349
 1410TIP3    H1 4236   5.434   3.853   2.357
 1410TIP3    H2 4237   5.540   3.953   2.399
 1411TIP3   OH2 4238   3.028   1.333   0.063
 1411TIP3    H1 4239   2.983   1.318   0.146
 1411TIP3    H2 4240   2.963   1.374   0.006
 1412TIP3   OH2 4241   2.487   0.020   2.826
 1412TIP3    H1 4242   2.533  -0.032   2.760
 1412TIP3    H2 4243   2.546   0.093   2.844
 1413TIP3   OH2 4244   5.307   5.227   1.639
 1413TIP3    H1 4245   5.314   5.135   1.664
 1413TIP3    H2 4246   5.313   5.275   1.721
 1414TIP3   OH2 4247   2.229   2.602   1.499
 1414TIP3    H1 4248   2.162   2.536   1.518
 1414TIP3    H2 4249   2.312   2.555   1.502
 1415TIP3   OH2 4250   4.073   5.240   2.470
 1415TIP3    H1 4251   4.162   5.244   2.436
 1415TIP3    H2 4252   4.056   5.146   2.481
 1416TIP3   OH2 4253   1.811   0.952   4.493
 1416TIP3    H1 4254   1.812   0.982   4.584
 1416TIP3    H2 4255   1.719   0.948   4.469
 1417TIP3   OH2 4256   3.435   3.372   4.936
 1417TIP3    H1 4257   3.421   3.334   5.022
 1417TIP3    H2 4258   3.494   3.446   4.951
 1418TIP3   OH2 4259   4.403   1.732   0.805
 1418TIP3    H1 4260   4.433   1.646   0.775
 1418TIP3    H2 4261   4.469   1.760   0.869
 1419TIP3   OH2 4262   4.300   1.637   3.193
 1419TIP3    H1 4263   4.232   1.586   3.149
 1419TIP3    H2 4264   4.346   1.574   3.248
 1420TIP3   OH2 4265   0.144   3.780   3.426
 1420TIP3    H1 4266   0.104   3.864   3.405
 1420TIP3    H2 4267   0.075   3.730   3.470
 1421TIP3   OH2 4268   5.554   3.626   2.421
 1421TIP3    H1 4269   5.555   3.703   2.478
 1421TIP3    H2 4270   5.530   3.553   2.478
 1422TIP3   OH2 4271   5.378   5.509   4.333
 1422TIP3    H1 4272   5.370   5.414   4.334
 1422TIP3    H2 4273   5.291   5.540   4.358
 1423TIP3   OH2 4274   4.045   5.447   4.360
 1423TIP3    H1 4275   4.112   5.494   4.311
 1423TIP3    H2 4276   4.077   5.445   4.450
 1424TIP3   OH2 4277   5.549   3.618   4.872
 1424TIP3    H1 4278   5.586   3.560   4.939
 1424TIP3    H2 4279   5.571   3.575   4.789
 1425TIP3   OH2 4280   5.816   3.006   1.057
 1425TIP3    H1 4281   5.893   2.951   1.044
 1425TIP3    H2 4282   5.747   2.946   1.084
 1426TIP3   OH2 4283   2.687   1.558   2.571
 1426TIP3    H1 4284   2.629   1.631   2.549
 1426TIP3    H2 4285   2.639   1.509   2.638
 1427TIP3   OH2 4286   2.600   5.648   3.608
 1427TIP3    H1 4287   2.538   5.665   3.537
 1427TIP3    H2 4288   2.610   5.733   3.652
 1428TIP3   OH2 4289   4.227   0.909   2.559
 1428TIP3    H1 4290   4.149   0.884   2.608
 1428TIP3    H2 4291   4.296   0.914   2.624
 1429TIP3   OH2 4292   2.219   3.520   2.661
 1429TIP3    H1 4293   2.225   3.519   2.757
 1429TIP3    H2 4294   2.179   3.604   2.640
 1430TIP3   OH2 4295   2.907   5.442   2.225
 1430TIP3    H1 4296   2.957   5.516   2.260
 1430TIP3    H2 4297   2.882   5.391   2.302
 1431TIP3   OH2 4298   5.054   4.724   5.125
 1431TIP3    H1 4299   4.964   4.751   5.110
 1431TIP3    H2 4300   5.067   4.735   5.219
 1432TIP3   OH2 4301   0.891   6.003   0.838
 1432TIP3    H1 4302   0.838   5.926   0.819
 1432TIP3    H2 4303   0.963   6.000   0.774
 1433TIP3   OH2 4304   5.401   1.620   5.155
 1433TIP3    H1 4305   5.443   1.667   5.083
 1433TIP3    H2 4306   5.397   1.529   5.125
 1434TIP3   OH2 4307   2.988   3.550   3.202
 1434TIP3    H1 4308   2.988   3.514   3.290
 1434TIP3    H2 4309   3.078   3.578   3.187
 1435TIP3   OH2 4310   2.549   2.223   0.604
 1435TIP3    H1 4311   2.534   2.267   0.687
 1435TIP3    H2 4312   2.512   2.282   0.538
 1436TIP3   OH2 4313   0.285   1.043   0.870
 1436TIP3    H1 4314   0.245   0.977   0.927
 1436TIP3    H2 4315   0.235   1.123   0.887
 1437TIP3   OH2 4316   5.526   0.121   1.196
 1437TIP3    H1 4317   5.605   0.081   1.232
 1437TIP3    H2 4318   5.467   0.048   1.182
 1438TIP3   OH2 4319   4.576   3.458   4.931
 1438TIP3    H1 4320   4.481   3.451   4.918
 1438TIP3    H2 4321   4.601   3.535   4.879
 1439TIP3   OH2 4322   3.771   5.140   4.055
 1439TIP3    H1 4323   3.765   5.096   3.970
 1439TIP3    H2 4324   3.724   5.082   4.115
 1440TIP3   OH2 4325   2.699   1.797   1.921
 1440TIP3    H1 4326   2.677   1.890   1.910
 1440TIP3    H2 4327   2.697   1.762   1.832
 1441TIP3   OH2 4328   2.493   2.619   1.689
 1441TIP3    H1 4329   2.549   2.688   1.723
 1441TIP3    H2 4330   2.487   2.639   1.595
 1442TIP3   OH2 4331   2.070   2.789   0.429
 1442TIP3    H1 4332   2.074   2.737   0.349
 1442TIP3    H2 4333   2.020   2.735   0.490
 1443TIP3   OH2 4334   2.186   4.777   0.456
 1443TIP3    H1 4335   2.278   4.795   0.440
 1443TIP3    H2 4336   2.142   4.860   0.438
 1444TIP3   OH2 4337   3.845   4.316   1.912
 1444TIP3    H1 4338   3.760   4.280   1.940
 1444TIP3    H2 4339   3.876   4.254   1.846
 1445TIP3   OH2 4340   5.560   2.978   1.480
 1445TIP3    H1 4341   5.550   2.902   1.538
 1445TIP3    H2 4342   5.482   3.031   1.496
 1446TIP3   OH2 4343   4.653   0.926   2.108
 1446TIP3    H1 4344   4.649   0.886   2.021
 1446TIP3    H2 4345   4.568   0.908   2.146
 1447TIP3   OH2 4346   1.731   2.543   0.270
 1447TIP3    H1 4347   1.711   2.456   0.305
 1447TIP3    H2 4348   1.729   2.531   0.175
 1448TIP3   OH2 4349   5.731   4.942   1.762
 1448TIP3    H1 4350   5.675   5.010   1.800
 1448TIP3    H2 4351   5.671   4.889   1.709
 1449TIP3   OH2 4352   2.984   5.917   2.986
 1449TIP3    H1 4353   2.897   5.877   2.981
 1449TIP3    H2 4354   3.007   5.938   2.896
 1450TIP3   OH2 4355   6.338   1.013   1.745
 1450TIP3    H1 4356   6.269   1.001   1.810
 1450TIP3    H2 4357   6.292   1.031   1.664
 1451TIP3   OH2 4358   4.751   5.379   2.395
 1451TIP3    H1 4359   4.830   5.328   2.378
 1451TIP3    H2 4360   4.702   5.376   2.313
 1452TIP3   OH2 4361   2.288   0.495   3.932
 1452TIP3    H1 4362   2.202   0.523   3.964
 1452TIP3    H2 4363   2.326   0.445   4.004
 1453TIP3   OH2 4364   4.466   0.558   2.148
 1453TIP3    H1 4365   4.388   0.608   2.125
 1453TIP3    H2 4366   4.463   0.481   2.091
 1454TIP3   OH2 4367   2.940   2.285   1.884
 1454TIP3    H1 4368   2.998   2.295   1.959
 1454TIP3    H2 4369   2.933   2.373   1.847
 1455TIP3   OH2 4370   1.761   3.182   2.329
 1455TIP3    H1 4371   1.782   3.089   2.322
 1455TIP3    H2 4372   1.825   3.225   2.271
 1456TIP3   OH2 4373   2.131   0.468   1.106
 1456TIP3    H1 4374   2.038   0.459   1.089
 1456TIP3    H2 4375   2.154   0.390   1.158
 1457TIP3   OH2 4376   2.980   1.212   1.312
 1457TIP3    H1 4377   3.030   1.134   1.339
 1457TIP3    H2 4378   2.896   1.177   1.283
 1458TIP3   OH2 4379   3.543   0.446   4.351
 1458TIP3    H1 4380   3.552   0.502   4.274
 1458TIP3    H2 4381   3.552   0.357   4.318
 1459TIP3   OH2 4382   2.005   2.150   1.328
 1459TIP3    H1 4383   2.070   2.170   1.396
 1459TIP3    H2 4384   1.942   2.093   1.372
 1460TIP3   OH2 4385   2.457   0.198   3.461
 1460TIP3    H1 4386   2.385   0.253   3.491
 1460TIP3    H2 4387   2.533   0.230   3.510
 1461TIP3   OH2 4388   4.684   2.064   3.959
 1461TIP3    H1 4389   4.642   2.134   3.909
 1461TIP3    H2 4390   4.727   2.010   3.893
 1462TIP3   OH2 4391   2.290   4.661   0.682
 1462TIP3    H1 4392   2.353   4.731   0.701
 1462TIP3    H2 4393   2.226   4.702   0.624
 1463TIP3   OH2 4394   4.217   3.035   0.209
 1463TIP3    H1 4395   4.175   3.011   0.292
 1463TIP3    H2 4396   4.150   3.084   0.162
 1464TIP3   OH2 4397   6.265   0.448   1.943
 1464TIP3    H1 4398   6.281   0.448   2.038
 1464TIP3    H2 4399   6.335   0.504   1.908
 1465TIP3   OH2 4400   5.875   5.108   4.109
 1465TIP3    H1 4401   5.819   5.031   4.102
 1465TIP3    H2 4402   5.890   5.136   4.018
 1466TIP3   OH2 4403   3.879   2.298   5.119
 1466TIP3    H1 4404   3.841   2.294   5.206
 1466TIP3    H2 4405   3.913   2.209   5.103
 1467TIP3   OH2 4406   0.121   1.860   3.584
 1467TIP3    H1 4407   0.062   1.913   3.637
 1467TIP3    H2 4408   0.203   1.911   3.581
 1468TIP3   OH2 4409   3.627   2.579   2.359
 1468TIP3    H1 4410   3.715   2.546   2.380
 1468TIP3    H2 4411   3.638   2.632   2.281
 1469TIP3   OH2 4412   3.095   2.414   3.710
 1469TIP3    H1 4413   3.032   2.481   3.736
 1469TIP3    H2 4414   3.092   2.414   3.614
 1470TIP3   OH2 4415   5.265   2.374   3.443
 1470TIP3    H1 4416   5.174   2.377   3.413
 1470TIP3    H2 4417   5.277   2.283   3.471
 1471TIP3   OH2 4418   4.248   4.726   3.438
 1471TIP3    H1 4419   4.337   4.702   3.411
 1471TIP3    H2 4420   4.197   4.646   3.428
 1472TIP3   OH2 4421   3.594   3.938   3.157
 1472TIP3    H1 4422   3.688   3.926   3.150
 1472TIP3    H2 4423   3.574   3.924   3.250
 1473TIP3   OH2 4424   5.791   1.648   1.054
 1473TIP3    H1 4425   5.787   1.590   0.978
 1473TIP3    H2 4426   5.816   1.590   1.126
 1474TIP3   OH2 4427   0.663   1.639   2.293
 1474TIP3    H1 4428   0.720   1.661   2.220
 1474TIP3    H2 4429   0.583   1.689   2.278
 1475TIP3   OH2 4430   0.515   0.016   2.421
 1475TIP3    H1 4431   0.539   0.090   2.477
 1475TIP3    H2 4432   0.422   0.027   2.404
 1476TIP3   OH2 4433   3.013   2.125   0.692
 1476TIP3    H1 4434   2.956   2.054   0.662
 1476TIP3    H2 4435   3.100   2.101   0.659
 1477TIP3   OH2 4436   2.659   2.425   1.062
 1477TIP3    H1 4437   2.736   2.480   1.078
 1477TIP3    H2 4438   2.694   2.336   1.056
 1478TIP3   OH2 4439   3.464   2.070   4.033
 1478TIP3    H1 4440   3.425   1.997   4.081
 1478TIP3    H2 4441   3.395   2.101   3.975
 1479TIP3   OH2 4442   1.867   4.753   4.736
 1479TIP3    H1 4443   1.865   4.847   4.716
 1479TIP3    H2 4444   1.805   4.743   4.808
 1480TIP3   OH2 4445   1.057   2.691   5.002
 1480TIP3    H1 4446   1.128   2.627   4.998
 1480TIP3    H2 4447   1.040   2.701   5.096
 1481TIP3   OH2 4448   2.100   5.754   3.381
 1481TIP3    H1 4449   2.182   5.802   3.391
 1481TIP3    H2 4450   2.033   5.812   3.418
 1482TIP3   OH2 4451   0.894   4.182   1.532
 1482TIP3    H1 4452   0.833   4.206   1.602
 1482TIP3    H2 4453   0.884   4.251   1.467
 1483TIP3   OH2 4454   1.285   0.636   0.486
 1483TIP3    H1 4455   1.307   0.602   0.572
 1483TIP3    H2 4456   1.235   0.715   0.503
 1484TIP3   OH2 4457   1.237   1.352   4.903
 1484TIP3    H1 4458   1.169   1.391   4.848
 1484TIP3    H2 4459   1.193   1.336   4.987
 1485TIP3   OH2 4460   0.829   2.317   0.924
 1485TIP3    H1 4461   0.917   2.350   0.906
 1485TIP3    H2 4462   0.819   2.241   0.868
 1486TIP3   OH2 4463   3.435   3.816   5.219
 1486TIP3    H1 4464   3.470   3.731   5.193
 1486TIP3    H2 4465   3.431   3.866   5.138
 1487TIP3   OH2 4466   0.786   4.216   3.880
 1487TIP3    H1 4467   0.818   4.306   3.877
 1487TIP3    H2 4468   0.861   4.163   3.851
 1488TIP3   OH2 4469   2.518   1.504   2.786
 1488TIP3    H1 4470   2.447   1.565   2.807
 1488TIP3    H2 4471   2.478   1.417   2.798
 1489TIP3   OH2 4472   3.533   3.466   2.723
 1489TIP3    H1 4473   3.484   3.529   2.776
 1489TIP3    H2 4474   3.495   3.474   2.635
 1490TIP3   OH2 4475   4.068   3.919   0.308
 1490TIP3    H1 4476   4.040   3.829   0.290
 1490TIP3    H2 4477   4.127   3.911   0.383
 1491TIP3   OH2 4478   5.129   4.048   4.109
 1491TIP3    H1 4479   5.201   4.027   4.167
 1491TIP3    H2 4480   5.051   4.044   4.164
 1492TIP3   OH2 4481   0.314   1.463   4.603
 1492TIP3    H1 4482   0.224   1.448   4.632
 1492TIP3    H2 4483   0.315   1.430   4.513
 1493TIP3   OH2 4484   0.450   0.761   1.521
 1493TIP3    H1 4485   0.517   0.705   1.482
 1493TIP3    H2 4486   0.496   0.816   1.584
 1494TIP3   OH2 4487   0.146   0.207   2.215
 1494TIP3    H1 4488   0.058   0.237   2.194
 1494TIP3    H2 4489   0.204   0.260   2.161
 1495TIP3   OH2 4490   0.445   1.809   2.302
 1495TIP3    H1 4491   0.382   1.792   2.232
 1495TIP3    H2 4492   0.430   1.901   2.325
 1496TIP3   OH2 4493   1.673   5.778   5.092
 1496TIP3    H1 4494   1.728   5.699   5.103
 1496TIP3    H2 4495   1.607   5.770   5.161
 1497TIP3   OH2 4496   5.485   3.308   5.193
 1497TIP3    H1 4497   5.544   3.341   5.125
 1497TIP3    H2 4498   5.467   3.218   5.167
 1498TIP3   OH2 4499   3.999   5.546   0.715
 1498TIP3    H1 4500   3.927   5.516   0.771
 1498TIP3    H2 4501   4.072   5.558   0.776
 1499TIP3   OH2 4502   6.314   4.652   1.194
 1499TIP3    H1 4503   6.307   4.573   1.248
 1499TIP3    H2 4504   6.297   4.622   1.105
 1500TIP3   OH2 4505   5.163   2.929   0.529
 1500TIP3    H1 4506   5.142   2.944   0.621
 1500TIP3    H2 4507   5.180   2.835   0.523
 1501TIP3   OH2 4508   6.241   1.473   2.084
 1501TIP3    H1 4509   6.331   1.466   2.114
 1501TIP3    H2 4510   6.232   1.404   2.018
 1502TIP3   OH2 4511   4.783   5.912   2.705
 1502TIP3    H1 4512   4.858   5.854   2.688
 1502TIP3    H2 4513   4.806   5.994   2.660
 1503TIP3   OH2 4514   1.301   4.391   3.496
 1503TIP3    H1 4515   1.231   4.329   3.516
 1503TIP3    H2 4516   1.380   4.337   3.494
 1504TIP3   OH2 4517   2.142   0.262   2.892
 1504TIP3    H1 4518   2.113   0.348   2.864
 1504TIP3    H2 4519   2.063   0.219   2.927
 1505TIP3   OH2 4520   5.915   2.665   1.175
 1505TIP3    H1 4521   5.881   2.726   1.240
 1505TIP3    H2 4522   5.859   2.678   1.098
 1506TIP3   OH2 4523   5.999   3.780   5.124
 1506TIP3    H1 4524   6.086   3.817   5.139
 1506TIP3    H2 4525   5.943   3.819   5.191
 1507TIP3   OH2 4526   0.761   4.800   1.565
 1507TIP3    H1 4527   0.841   4.804   1.513
 1507TIP3    H2 4528   0.791   4.773   1.652
 1508TIP3   OH2 4529   1.664   3.474   2.004
 1508TIP3    H1 4530   1.693   3.481   1.913
 1508TIP3    H2 4531   1.571   3.496   2.001
 1509TIP3   OH2 4532   0.353   5.083   2.627
 1509TIP3    H1 4533   0.402   5.043   2.698
 1509TIP3    H2 4534   0.283   5.133   2.670
 1510TIP3   OH2 4535   5.658   4.799   1.540
 1510TIP3    H1 4536   5.615   4.764   1.462
 1510TIP3    H2 4537   5.749   4.810   1.514
 1511TIP3   OH2 4538   3.571   3.811   4.726
 1511TIP3    H1 4539   3.596   3.890   4.679
 1511TIP3    H2 4540   3.568   3.838   4.818
 1512TIP3   OH2 4541   3.863   5.257   4.379
 1512TIP3    H1 4542   3.923   5.184   4.368
 1512TIP3    H2 4543   3.919   5.335   4.385
 1513TIP3   OH2 4544   0.740   1.048   4.606
 1513TIP3    H1 4545   0.797   0.977   4.635
 1513TIP3    H2 4546   0.666   1.005   4.563
 1514TIP3   OH2 4547   4.604   1.680   2.597
 1514TIP3    H1 4548   4.580   1.591   2.624
 1514TIP3    H2 4549   4.526   1.733   2.615
 1515TIP3   OH2 4550   0.058   3.898   1.123
 1515TIP3    H1 4551   0.082   3.918   1.032
 1515TIP3    H2 4552   0.118   3.827   1.148
 1516TIP3   OH2 4553   5.016   5.148   5.056
 1516TIP3    H1 4554   5.077   5.186   5.119
 1516TIP3    H2 4555   5.021   5.207   4.980
 1517TIP3   OH2 4556   3.299   3.148   0.191
 1517TIP3    H1 4557   3.287   3.188   0.277
 1517TIP3    H2 4558   3.391   3.161   0.171
 1518TIP3   OH2 4559   2.424   4.004   3.582
 1518TIP3    H1 4560   2.495   4.049   3.536
 1518TIP3    H2 4561   2.419   3.918   3.540
 1519TIP3   OH2 4562   3.667   0.032   3.623
 1519TIP3    H1 4563   3.598  -0.032   3.636
 1519TIP3    H2 4564   3.625   0.105   3.579
 1520TIP3   OH2 4565   2.924   1.337   1.549
 1520TIP3    H1 4566   2.959   1.304   1.466
 1520TIP3    H2 4567   2.875   1.263   1.585
 1521TIP3   OH2 4568   2.641   0.317   3.236
 1521TIP3    H1 4569   2.548   0.314   3.213
 1521TIP3    H2 4570   2.681   0.370   3.168
 1522TIP3   OH2 4571   1.184   4.253   1.243
 1522TIP3    H1 4572   1.149   4.337   1.213
 1522TIP3    H2 4573   1.141   4.188   1.189
 1523TIP3   OH2 4574   0.583   3.526   4.371
 1523TIP3    H1 4575   0.593   3.482   4.456
 1523TIP3    H2 4576   0.664   3.504   4.324
 1524TIP3   OH2 4577   4.003   2.090   2.725
 1524TIP3    H1 4578   3.978   2.174   2.686
 1524TIP3    H2 4579   4.094   2.077   2.699
 1525TIP3   OH2 4580   3.181   1.694   2.480
 1525TIP3    H1 4581   3.198   1.692   2.386
 1525TIP3    H2 4582   3.118   1.624   2.495
 1526TIP3   OH2 4583   5.682   3.011   3.089
 1526TIP3    H1 4584   5.617   3.079   3.108
 1526TIP3    H2 4585   5.753   3.027   3.151
 1527TIP3   OH2 4586   4.035   2.234   0.601
 1527TIP3    H1 4587   4.098   2.166   0.577
 1527TIP3    H2 4588   4.026   2.286   0.521
 1528TIP3   OH2 4589   4.195   0.331   4.953
 1528TIP3    H1 4590   4.240   0.414   4.936
 1528TIP3    H2 4591   4.106   0.344   4.919
 1529TIP3   OH2 4592   0.850   1.110   2.155
 1529TIP3    H1 4593   0.801   1.173   2.102
 1529TIP3    H2 4594   0.861   1.034   2.098
 1530TIP3   OH2 4595   1.671   5.823   2.498
 1530TIP3    H1 4596   1.649   5.873   2.419
 1530TIP3    H2 4597   1.625   5.740   2.487
 1531TIP3   OH2 4598   3.002   4.004   4.095
 1531TIP3    H1 4599   2.997   4.085   4.145
 1531TIP3    H2 4600   3.093   3.976   4.103
 1532TIP3   OH2 4601   1.518   2.249   2.017
 1532TIP3    H1 4602   1.537   2.188   2.088
 1532TIP3    H2 4603   1.589   2.314   2.020
 1533TIP3   OH2 4604   2.674   5.048   3.261
 1533TIP3    H1 4605   2.762   5.011   3.264
 1533TIP3    H2 4606   2.679   5.116   3.194
 1534TIP3   OH2 4607   5.209   5.354   4.615
 1534TIP3    H1 4608   5.266   5.431   4.622
 1534TIP3    H2 4609   5.244   5.305   4.541
 1535TIP3   OH2 4610   5.292   4.606   2.455
 1535TIP3    H1 4611   5.221   4.586   2.516
 1535TIP3    H2 4612   5.372   4.584   2.503
 1536TIP3   OH2 4613   5.040   1.140   4.859
 1536TIP3    H1 4614   4.976   1.170   4.795
 1536TIP3    H2 4615   5.000   1.062   4.898
 1537TIP3   OH2 4616   5.568   0.988   4.255
 1537TIP3    H1 4617   5.543   0.944   4.174
 1537TIP3    H2 4618   5.568   0.919   4.321
 1538TIP3   OH2 4619  -0.023   3.530   0.130
 1538TIP3    H1 4620   0.032   3.458   0.098
 1538TIP3    H2 4621   0.001   3.540   0.222
 1539TIP3   OH2 4622   5.982   3.314   0.116
 1539TIP3    H1 4623   5.957   3.343   0.204
 1539TIP3    H2 4624   5.978   3.219   0.120
 1540TIP3   OH2 4625   1.274   3.378   5.150
 1540TIP3    H1 4626   1.318   3.350   5.069
 1540TIP3    H2 4627   1.207   3.312   5.165
 1541TIP3   OH2 4628   4.733   4.218   0.945
 1541TIP3    H1 4629   4.648   4.173   0.942
 1541TIP3    H2 4630   4.744   4.255   0.858
 1542TIP3   OH2 4631   1.856   0.473   0.589
 1542TIP3    H1 4632   1.848   0.521   0.506
 1542TIP3    H2 4633   1.830   0.536   0.656
 1543TIP3   OH2 4634   0.375   5.167   1.522
 1543TIP3    H1 4635   0.332   5.106   1.463
 1543TIP3    H2 4636   0.317   5.172   1.598
 1544TIP3   OH2 4637   4.978   1.128   4.357
 1544TIP3    H1 4638   4.890   1.165   4.360
 1544TIP3    H2 4639   4.975   1.064   4.286
 1545TIP3   OH2 4640   0.707   5.028   2.943
 1545TIP3    H1 4641   0.628   5.013   2.892
 1545TIP3    H2 4642   0.748   4.942   2.951
 1546TIP3   OH2 4643   4.108   0.062   4.328
 1546TIP3    H1 4644   4.095   0.157   4.319
 1546TIP3    H2 4645   4.195   0.046   4.292
 1547TIP3   OH2 4646   0.036   1.643   2.441
 1547TIP3    H1 4647  -0.017   1.563   2.450
 1547TIP3    H2 4648  -0.020   1.702   2.390
 1548TIP3   OH2 4649   2.191   4.511   2.677
 1548TIP3    H1 4650   2.204   4.448   2.606
 1548TIP3    H2 4651   2.233   4.470   2.752
 1549TIP3   OH2 4652   5.892   2.812   1.977
 1549TIP3    H1 4653   5.864   2.903   1.981
 1549TIP3    H2 4654   5.933   2.803   1.891
 1550TIP3   OH2 4655   4.947   1.271   0.299
 1550TIP3    H1 4656   4.970   1.358   0.265
 1550TIP3    H2 4657   5.005   1.259   0.373
 1551TIP3   OH2 4658   2.898   1.655   0.223
 1551TIP3    H1 4659   2.960   1.642   0.295
 1551TIP3    H2 4660   2.855   1.570   0.212
 1552TIP3   OH2 4661   4.092   4.501   3.425
 1552TIP3    H1 4662   4.148   4.424   3.425
 1552TIP3    H2 4663   4.044   4.497   3.508
 1553TIP3   OH2 4664   2.050   2.878   0.838
 1553TIP3    H1 4665   2.132   2.851   0.797
 1553TIP3    H2 4666   2.052   2.836   0.924
 1554TIP3   OH2 4667   5.841   1.310   4.690
 1554TIP3    H1 4668   5.915   1.370   4.686
 1554TIP3    H2 4669   5.810   1.303   4.599
 1555TIP3   OH2 4670   2.826   1.514   5.063
 1555TIP3    H1 4671   2.815   1.486   5.154
 1555TIP3    H2 4672   2.850   1.433   5.017
 1556TIP3   OH2 4673   0.445   0.362   0.292
 1556TIP3    H1 4674   0.540   0.348   0.294
 1556TIP3    H2 4675   0.427   0.390   0.203
 1557TIP3   OH2 4676   4.594   2.751   1.464
 1557TIP3    H1 4677   4.678   2.763   1.509
 1557TIP3    H2 4678   4.566   2.839   1.441
 1558TIP3   OH2 4679   2.712   2.766   0.151
 1558TIP3    H1 4680   2.650   2.704   0.189
 1558TIP3    H2 4681   2.667   2.801   0.073
 1559TIP3   OH2 4682   5.789   4.598   1.365
 1559TIP3    H1 4683   5.869   4.640   1.397
 1559TIP3    H2 4684   5.817   4.512   1.334
 1560TIP3   OH2 4685   4.343   1.194   1.045
 1560TIP3    H1 4686   4.428   1.218   1.010
 1560TIP3    H2 4687   4.356   1.188   1.140
 1561TIP3   OH2 4688   6.123   5.766   1.105
 1561TIP3    H1 4689   6.035   5.803   1.098
 1561TIP3    H2 4690   6.130   5.741   1.198
 1562TIP3   OH2 4691   2.844   3.921   0.823
 1562TIP3    H1 4692   2.762   3.953   0.861
 1562TIP3    H2 4693   2.822   3.900   0.733
 1563TIP3   OH2 4694   4.419   2.500   3.753
 1563TIP3    H1 4695   4.512   2.514   3.737
 1563TIP3    H2 4696   4.402   2.544   3.836
 1564TIP3   OH2 4697   2.146   4.802   4.576
 1564TIP3    H1 4698   2.152   4.708   4.590
 1564TIP3    H2 4699   2.232   4.827   4.542
 1565TIP3   OH2 4700   4.575   4.209   4.955
 1565TIP3    H1 4701   4.592   4.181   4.866
 1565TIP3    H2 4702   4.489   4.251   4.951
 1566TIP3   OH2 4703   2.934   3.280   4.796
 1566TIP3    H1 4704   2.868   3.254   4.732
 1566TIP3    H2 4705   2.888   3.283   4.879
 1567TIP3   OH2 4706   6.237   3.701   3.145
 1567TIP3    H1 4707   6.274   3.669   3.062
 1567TIP3    H2 4708   6.214   3.622   3.193
 1568TIP3   OH2 4709   3.003   1.060   4.142
 1568TIP3    H1 4710   2.957   1.143   4.154
 1568TIP3    H2 4711   2.934   0.998   4.116
 1569TIP3   OH2 4712   2.242   1.855   1.116
 1569TIP3    H1 4713   2.219   1.808   1.196
 1569TIP3    H2 4714   2.294   1.929   1.146
 1570TIP3   OH2 4715   4.468   3.975   0.565
 1570TIP3    H1 4716   4.520   3.897   0.583
 1570TIP3    H2 4717   4.532   4.047   0.566
 1571TIP3   OH2 4718   4.392   5.530   4.526
 1571TIP3    H1 4719   4.347   5.558   4.446
 1571TIP3    H2 4720   4.452   5.602   4.545
 1572TIP3   OH2 4721   3.538   5.161   1.605
 1572TIP3    H1 4722   3.468   5.118   1.653
 1572TIP3    H2 4723   3.577   5.092   1.551
 1573TIP3   OH2 4724   1.250   0.233   3.110
 1573TIP3    H1 4725   1.297   0.157   3.074
 1573TIP3    H2 4726   1.169   0.238   3.059
 1574TIP3   OH2 4727   1.551   1.655   3.368
 1574TIP3    H1 4728   1.523   1.658   3.277
 1574TIP3    H2 4729   1.517   1.572   3.401
 1575TIP3   OH2 4730   4.976   2.161   2.876
 1575TIP3    H1 4731   4.887   2.187   2.852
 1575TIP3    H2 4732   4.983   2.069   2.851
 1576TIP3   OH2 4733   2.414   4.973   0.503
 1576TIP3    H1 4734   2.460   5.057   0.494
 1576TIP3    H2 4735   2.425   4.950   0.596
 1577TIP3   OH2 4736   1.586   5.339   2.950
 1577TIP3    H1 4737   1.560   5.401   2.882
 1577TIP3    H2 4738   1.680   5.354   2.961
 1578TIP3   OH2 4739   0.165   2.939   2.812
 1578TIP3    H1 4740   0.241   2.884   2.833
 1578TIP3    H2 4741   0.090   2.880   2.817
 1579TIP3   OH2 4742   5.998   1.363   3.021
 1579TIP3    H1 4743   6.080   1.344   3.067
 1579TIP3    H2 4744   6.005   1.456   2.997
 1580TIP3   OH2 4745   0.831   5.568   1.038
 1580TIP3    H1 4746   0.738   5.572   1.019
 1580TIP3    H2 4747   0.857   5.479   1.013
 1581TIP3   OH2 4748   6.020   3.816   2.701
 1581TIP3    H1 4749   6.037   3.853   2.788
 1581TIP3    H2 4750   5.963   3.881   2.659
 1582TIP3   OH2 4751   5.813   0.706   3.748
 1582TIP3    H1 4752   5.891   0.663   3.783
 1582TIP3    H2 4753   5.806   0.787   3.799
 1583TIP3   OH2 4754   1.238   0.034   4.669
 1583TIP3    H1 4755   1.209  -0.050   4.704
 1583TIP3    H2 4756   1.226   0.096   4.741
 1584TIP3   OH2 4757   0.040   1.552   4.746
 1584TIP3    H1 4758   0.015   1.597   4.665
 1584TIP3    H2 4759   0.070   1.622   4.804
 1585TIP3   OH2 4760   4.537   1.185   2.745
 1585TIP3    H1 4761   4.524   1.272   2.705
 1585TIP3    H2 4762   4.620   1.193   2.792
 1586TIP3   OH2 4763   5.411   2.798   3.153
 1586TIP3    H1 4764   5.493   2.847   3.165
 1586TIP3    H2 4765   5.393   2.761   3.239
 1587TIP3   OH2 4766   6.282   2.798   0.108
 1587TIP3    H1 4767   6.370   2.761   0.109
 1587TIP3    H2 4768   6.251   2.790   0.198
 1588TIP3   OH2 4769   1.214   1.521   0.546
 1588TIP3    H1 4770   1.279   1.471   0.495
 1588TIP3    H2 4771   1.156   1.454   0.583
 1589TIP3   OH2 4772   6.109   2.956   4.125
 1589TIP3    H1 4773   6.094   2.905   4.204
 1589TIP3    H2 4774   6.204   2.972   4.124
 1590TIP3   OH2 4775   4.932   0.512   0.683
 1590TIP3    H1 4776   4.934   0.526   0.777
 1590TIP3    H2 4777   4.921   0.417   0.673
 1591TIP3   OH2 4778   3.957   1.568   0.238
 1591TIP3    H1 4779   3.942   1.484   0.282
 1591TIP3    H2 4780   3.918   1.633   0.296
 1592TIP3   OH2 4781   3.327   2.391   1.930
 1592TIP3    H1 4782   3.309   2.320   1.870
 1592TIP3    H2 4783   3.388   2.448   1.884
 1593TIP3   OH2 4784   5.434   1.720   0.381
 1593TIP3    H1 4785   5.354   1.712   0.433
 1593TIP3    H2 4786   5.504   1.727   0.445
 1594TIP3   OH2 4787   2.095   2.953   2.959
 1594TIP3    H1 4788   2.067   3.040   2.931
 1594TIP3    H2 4789   2.030   2.928   3.024
 1595TIP3   OH2 4790   1.637   2.800   2.182
 1595TIP3    H1 4791   1.564   2.830   2.236
 1595TIP3    H2 4792   1.618   2.836   2.095
 1596TIP3   OH2 4793   3.023   5.663   1.894
 1596TIP3    H1 4794   3.007   5.758   1.899
 1596TIP3    H2 4795   3.101   5.650   1.948
 1597TIP3   OH2 4796   2.463   2.032   0.164
 1597TIP3    H1 4797   2.526   2.100   0.143
 1597TIP3    H2 4798   2.509   1.950   0.147
 1598TIP3   OH2 4799   2.395   2.481   0.592
 1598TIP3    H1 4800   2.317   2.499   0.539
 1598TIP3    H2 4801   2.446   2.562   0.586
 1599TIP3   OH2 4802   3.311   0.455   4.782
 1599TIP3    H1 4803   3.367   0.426   4.853
 1599TIP3    H2 4804   3.318   0.551   4.783
 1600TIP3   OH2 4805   4.023   3.578   3.157
 1600TIP3    H1 4806   4.057   3.614   3.075
 1600TIP3    H2 4807   3.939   3.621   3.168
 1601TIP3   OH2 4808   3.794   0.959   3.511
 1601TIP3    H1 4809   3.711   0.992   3.477
 1601TIP3    H2 4810   3.859   1.024   3.482
 1602TIP3   OH2 4811   3.497   0.738   0.578
 1602TIP3    H1 4812   3.412   0.740   0.622
 1602TIP3    H2 4813   3.526   0.830   0.577
 1603TIP3   OH2 4814   2.625   5.346   5.074
 1603TIP3    H1 4815   2.565   5.278   5.045
 1603TIP3    H2 4816   2.601   5.362   5.165
 1604TIP3   OH2 4817   1.910   5.384   2.587
 1604TIP3    H1 4818   1.868   5.348   2.665
 1604TIP3    H2 4819   1.896   5.478   2.594
 1605TIP3   OH2 4820   6.099   5.747   1.365
 1605TIP3    H1 4821   6.142   5.705   1.440
 1605TIP3    H2 4822   6.015   5.778   1.400
 1606TIP3   OH2 4823   4.512   4.837   3.275
 1606TIP3    H1 4824   4.524   4.752   3.318
 1606TIP3    H2 4825   4.496   4.815   3.183
 1607TIP3   OH2 4826   2.704   0.432   1.549
 1607TIP3    H1 4827   2.643   0.505   1.548
 1607TIP3    H2 4828   2.648   0.354   1.550
 1608TIP3   OH2 4829   4.152   4.926   2.468
 1608TIP3    H1 4830   4.153   4.976   2.387
 1608TIP3    H2 4831   4.242   4.894   2.477
 1609TIP3   OH2 4832   3.822   0.188   4.539
 1609TIP3    H1 4833   3.850   0.244   4.466
 1609TIP3    H2 4834   3.902   0.176   4.591
 1610TIP3   OH2 4835   6.152   3.909   0.527
 1610TIP3    H1 4836   6.118   3.996   0.510
 1610TIP3    H2 4837   6.218   3.921   0.596
 1611TIP3   OH2 4838   4.025   3.728   5.025
 1611TIP3    H1 4839   4.081   3.728   4.947
 1611TIP3    H2 4840   4.030   3.639   5.059
 1612TIP3   OH2 4841   2.733   3.866   4.166
 1612TIP3    H1 4842   2.702   3.822   4.086
 1612TIP3    H2 4843   2.824   3.887   4.147
 1613TIP3   OH2 4844   1.495   3.863   4.625
 1613TIP3    H1 4845   1.572   3.915   4.602
 1613TIP3    H2 4846   1.525   3.772   4.620
 1614TIP3   OH2 4847   2.490   0.644   3.405
 1614TIP3    H1 4848   2.436   0.597   3.468
 1614TIP3    H2 4849   2.434   0.655   3.328
 1615TIP3   OH2 4850   2.129   4.076   4.654
 1615TIP3    H1 4851   2.070   4.138   4.612
 1615TIP3    H2 4852   2.186   4.046   4.582
 1616TIP3   OH2 4853   2.487   5.974   0.826
 1616TIP3    H1 4854   2.465   5.887   0.860
 1616TIP3    H2 4855   2.528   5.957   0.741
 1617TIP3   OH2 4856   1.656   1.588   5.134
 1617TIP3    H1 4857   1.573   1.551   5.101
 1617TIP3    H2 4858   1.685   1.646   5.063
 1618TIP3   OH2 4859   4.439   2.090   4.266
 1618TIP3    H1 4860   4.471   2.017   4.212
 1618TIP3    H2 4861   4.508   2.103   4.331
 1619TIP3   OH2 4862   4.925   3.259   2.452
 1619TIP3    H1 4863   4.839   3.287   2.483
 1619TIP3    H2 4864   4.980   3.337   2.462
 1620TIP3   OH2 4865   2.632   4.654   4.626
 1620TIP3    H1 4866   2.600   4.626   4.541
 1620TIP3    H2 4867   2.712   4.604   4.639
 1621TIP3   OH2 4868   5.734   5.225   2.220
 1621TIP3    H1 4869   5.727   5.304   2.166
 1621TIP3    H2 4870   5.819   5.187   2.197
 1622TIP3   OH2 4871   5.863   2.051   3.851
 1622TIP3    H1 4872   5.791   2.069   3.791
 1622TIP3    H2 4873   5.838   1.971   3.896
 1623TIP3   OH2 4874   1.721   3.376   2.679
 1623TIP3    H1 4875   1.749   3.449   2.624
 1623TIP3    H2 4876   1.754   3.298   2.634
 1624TIP3   OH2 4877   1.218   1.401   2.575
 1624TIP3    H1 4878   1.163   1.325   2.561
 1624TIP3    H2 4879   1.169   1.456   2.636
 1625TIP3   OH2 4880   6.286   1.848   1.076
 1625TIP3    H1 4881   6.301   1.756   1.100
 1625TIP3    H2 4882   6.300   1.850   0.981
 1626TIP3   OH2 4883   4.684   5.060   3.093
 1626TIP3    H1 4884   4.624   5.005   3.143
 1626TIP3    H2 4885   4.755   5.080   3.154
 1627TIP3   OH2 4886   1.233   3.704   3.791
 1627TIP3    H1 4887   1.324   3.673   3.789
 1627TIP3    H2 4888   1.204   3.687   3.881
 1628TIP3   OH2 4889   0.189   3.419   4.008
 1628TIP3    H1 4890   0.231   3.505   4.013
 1628TIP3    H2 4891   0.201   3.391   3.918
 1629TIP3   OH2 4892   1.705   3.275   0.410
 1629TIP3    H1 4893   1.791   3.289   0.450
 1629TIP3    H2 4894   1.701   3.181   0.393
 1630TIP3   OH2 4895   3.447   0.725   0.005
 1630TIP3    H1 4896   3.385   0.669   0.052
 1630TIP3    H2 4897   3.482   0.784   0.072
 1631TIP3   OH2 4898   5.313   5.915   2.828
 1631TIP3    H1 4899   5.354   5.983   2.883
 1631TIP3    H2 4900   5.387   5.862   2.797
 1632TIP3   OH2 4901   0.579   2.180   0.195
 1632TIP3    H1 4902   0.653   2.142   0.147
 1632TIP3    H2 4903   0.545   2.248   0.136
 1633TIP3   OH2 4904   1.225   5.443   1.096
 1633TIP3    H1 4905   1.168   5.443   1.173
 1633TIP3    H2 4906   1.295   5.381   1.118
 1634TIP3   OH2 4907   3.902   5.258   3.751
 1634TIP3    H1 4908   3.837   5.197   3.786
 1634TIP3    H2 4909   3.984   5.210   3.751
 1635TIP3   OH2 4910   0.390   0.578   0.485
 1635TIP3    H1 4911   0.468   0.611   0.531
 1635TIP3    H2 4912   0.418   0.494   0.448
 1636TIP3   OH2 4913   1.274   2.960   1.792
 1636TIP3    H1 4914   1.234   3.047   1.790
 1636TIP3    H2 4915   1.240   2.917   1.713
 1637TIP3   OH2 4916   2.351   2.197   4.342
 1637TIP3    H1 4917   2.307   2.159   4.418
 1637TIP3    H2 4918   2.410   2.263   4.379
 1638TIP3   OH2 4919   4.152   3.498   3.952
 1638TIP3    H1 4920   4.153   3.478   3.859
 1638TIP3    H2 4921   4.171   3.414   3.995
 1639TIP3   OH2 4922   3.006   5.076   3.977
 1639TIP3    H1 4923   2.956   5.115   3.905
 1639TIP3    H2 4924   2.977   4.985   3.979
 1640TIP3   OH2 4925   0.255   0.922   2.107
 1640TIP3    H1 4926   0.320   0.886   2.168
 1640TIP3    H2 4927   0.303   0.987   2.056
 1641TIP3   OH2 4928   3.323   2.526   1.592
 1641TIP3    H1 4929   3.396   2.588   1.586
 1641TIP3    H2 4930   3.363   2.440   1.581
 1642TIP3   OH2 4931   5.072   5.222   1.205
 1642TIP3    H1 4932   4.983   5.256   1.209
 1642TIP3    H2 4933   5.096   5.205   1.296
 1643TIP3   OH2 4934   0.798   5.980   1.185
 1643TIP3    H1 4935   0.741   5.994   1.109
 1643TIP3    H2 4936   0.853   5.906   1.161
 1644TIP3   OH2 4937   3.912   2.393   3.853
 1644TIP3    H1 4938   3.834   2.425   3.807
 1644TIP3    H2 4939   3.918   2.300   3.828
 1645TIP3   OH2 4940   5.960   4.759   3.231
 1645TIP3    H1 4941   5.971   4.668   3.259
 1645TIP3    H2 4942   5.963   4.809   3.313
 1646TIP3   OH2 4943   4.864   1.766   0.255
 1646TIP3    H1 4944   4.857   1.860   0.235
 1646TIP3    H2 4945   4.901   1.763   0.343
 1647TIP3   OH2 4946   2.048   1.777   2.362
 1647TIP3    H1 4947   2.003   1.703   2.402
 1647TIP3    H2 4948   2.038   1.849   2.425
 1648TIP3   OH2 4949   4.147   1.287   0.143
 1648TIP3    H1 4950   4.114   1.376   0.135
 1648TIP3    H2 4951   4.194   1.271   0.061
 1649TIP3   OH2 4952   3.460   0.433   1.513
 1649TIP3    H1 4953   3.545   0.390   1.510
 1649TIP3    H2 4954   3.441   0.442   1.607
 1650TIP3   OH2 4955   4.228   4.658   4.990
 1650TIP3    H1 4956   4.197   4.642   5.079
 1650TIP3    H2 4957   4.260   4.748   4.991
 1651TIP3   OH2 4958   1.499   2.505   2.433
 1651TIP3    H1 4959   1.559   2.515   2.507
 1651TIP3    H2 4960   1.482   2.411   2.428
 1652TIP3   OH2 4961   5.511   2.041   1.804
 1652TIP3    H1 4962   5.533   2.067   1.893
 1652TIP3    H2 4963   5.486   2.123   1.761
 1653TIP3   OH2 4964   0.217   1.916   2.632
 1653TIP3    H1 4965   0.226   1.821   2.642
 1653TIP3    H2 4966   0.157   1.926   2.558
 1654TIP3   OH2 4967   6.023   4.020   3.082
 1654TIP3    H1 4968   5.993   3.948   3.137
 1654TIP3    H2 4969   6.058   4.084   3.144
 1655TIP3   OH2 4970   4.925   3.022   3.703
 1655TIP3    H1 4971   4.913   3.016   3.609
 1655TIP3    H2 4972   4.954   2.934   3.730
 1656TIP3   OH2 4973   3.822   3.473   3.677
 1656TIP3    H1 4974   3.808   3.566   3.694
 1656TIP3    H2 4975   3.907   3.470   3.632
 1657TIP3   OH2 4976   5.423   1.472   0.780
 1657TIP3    H1 4977   5.345   1.487   0.726
 1657TIP3    H2 4978   5.468   1.556   0.781
 1658TIP3   OH2 4979   4.961   3.302   4.290
 1658TIP3    H1 4980   5.016   3.225   4.283
 1658TIP3    H2 4981   4.978   3.352   4.210
 1659TIP3   OH2 4982   6.006   4.286   1.840
 1659TIP3    H1 4983   5.956   4.254   1.915
 1659TIP3    H2 4984   5.985   4.225   1.769
 1660TIP3   OH2 4985   4.469   1.472   0.777
 1660TIP3    H1 4986   4.407   1.417   0.729
 1660TIP3    H2 4987   4.553   1.430   0.766
 1661TIP3   OH2 4988   0.312   4.621   1.537
 1661TIP3    H1 4989   0.287   4.541   1.492
 1661TIP3    H2 4990   0.254   4.625   1.613
 1662TIP3   OH2 4991   2.806   2.497   4.830
 1662TIP3    H1 4992   2.765   2.411   4.826
 1662TIP3    H2 4993   2.898   2.481   4.808
 1663TIP3   OH2 4994   1.705   0.110   1.372
 1663TIP3    H1 4995   1.755   0.126   1.452
 1663TIP3    H2 4996   1.696   0.015   1.369
 1664TIP3   OH2 4997   2.783   3.056   1.447
 1664TIP3    H1 4998   2.739   2.973   1.430
 1664TIP3    H2 4999   2.732   3.121   1.400
 1665TIP3   OH2 5000   1.868   5.657   2.590
 1665TIP3    H1 5001   1.928   5.675   2.517
 1665TIP3    H2 5002   1.787   5.702   2.566
 1666TIP3   OH2 5003   5.398   2.621   3.382
 1666TIP3    H1 5004   5.348   2.539   3.381
 1666TIP3    H2 5005   5.484   2.596   3.414
 1667TIP3   OH2 5006   5.880   4.636   4.793
 1667TIP3    H1 5007   5.971   4.663   4.777
 1667TIP3    H2 5008   5.835   4.654   4.710
 1668TIP3   OH2 5009   1.263   4.791   1.619
 1668TIP3    H1 5010   1.261   4.878   1.658
 1668TIP3    H2 5011   1.357   4.772   1.607
 1669TIP3   OH2 5012   6.282   2.472   1.213
 1669TIP3    H1 5013   6.301   2.390   1.259
 1669TIP3    H2 5014   6.190   2.465   1.188
 1670TIP3   OH2 5015   1.966   0.547   4.224
 1670TIP3    H1 5016   1.985   0.509   4.309
 1670TIP3    H2 5017   1.968   0.642   4.239
 1671TIP3   OH2 5018   5.711   5.955   1.694
 1671TIP3    H1 5019   5.638   6.008   1.663
 1671TIP3    H2 5020   5.689   5.935   1.785
 1672TIP3   OH2 5021   1.653   5.718   0.253
 1672TIP3    H1 5022   1.661   5.796   0.198
 1672TIP3    H2 5023   1.629   5.751   0.339
 1673TIP3   OH2 5024   6.135   1.549   0.701
 1673TIP3    H1 5025   6.154   1.457   0.685
 1673TIP3    H2 5026   6.109   1.583   0.615
 1674TIP3   OH2 5027   3.817   0.153   4.216
 1674TIP3    H1 5028   3.867   0.223   4.259
 1674TIP3    H2 5029   3.728   0.163   4.250
 1675TIP3   OH2 5030   2.731   2.441   0.199
 1675TIP3    H1 5031   2.764   2.473   0.283
 1675TIP3    H2 5032   2.747   2.514   0.138
 1676TIP3   OH2 5033   1.443   1.824   0.316
 1676TIP3    H1 5034   1.410   1.880   0.245
 1676TIP3    H2 5035   1.537   1.821   0.301
 1677TIP3   OH2 5036   0.202   0.230   0.714
 1677TIP3    H1 5037   0.109   0.250   0.708
 1677TIP3    H2 5038   0.245   0.315   0.701
 1678TIP3   OH2 5039   2.563   2.307   1.709
 1678TIP3    H1 5040   2.580   2.363   1.634
 1678TIP3    H2 5041   2.468   2.303   1.715
 1679TIP3   OH2 5042   4.400   3.865   2.579
 1679TIP3    H1 5043   4.464   3.935   2.570
 1679TIP3    H2 5044   4.330   3.904   2.632
 1680TIP3   OH2 5045   1.808   2.758   0.831
 1680TIP3    H1 5046   1.755   2.782   0.907
 1680TIP3    H2 5047   1.884   2.816   0.837
 1681TIP3   OH2 5048   2.635   2.946   2.389
 1681TIP3    H1 5049   2.671   2.886   2.454
 1681TIP3    H2 5050   2.616   3.026   2.438
 1682TIP3   OH2 5051   4.375   2.763   0.599
 1682TIP3    H1 5052   4.345   2.834   0.542
 1682TIP3    H2 5053   4.443   2.719   0.548
 1683TIP3   OH2 5054   4.135   2.015   1.395
 1683TIP3    H1 5055   4.126   2.023   1.300
 1683TIP3    H2 5056   4.115   1.923   1.413
 1684TIP3   OH2 5057   3.422   1.822   3.380
 1684TIP3    H1 5058   3.440   1.728   3.372
 1684TIP3    H2 5059   3.501   1.858   3.420
 1685TIP3   OH2 5060   5.014   0.680   2.403
 1685TIP3    H1 5061   4.947   0.655   2.467
 1685TIP3    H2 5062   5.003   0.774   2.392
 1686TIP3   OH2 5063   4.042   5.367   1.573
 1686TIP3    H1 5064   4.004   5.280   1.576
 1686TIP3    H2 5065   4.136   5.353   1.582
 1687TIP3   OH2 5066   5.316   3.427   1.303
 1687TIP3    H1 5067   5.297   3.335   1.284
 1687TIP3    H2 5068   5.245   3.455   1.361
 1688TIP3   OH2 5069   2.723   0.666   3.272
 1688TIP3    H1 5070   2.640   0.639   3.310
 1688TIP3    H2 5071   2.754   0.588   3.225
 1689TIP3   OH2 5072   5.536   5.586   2.910
 1689TIP3    H1 5073   5.500   5.571   2.823
 1689TIP3    H2 5074   5.465   5.624   2.961
 1690TIP3   OH2 5075   3.916   1.681   0.476
 1690TIP3    H1 5076   3.989   1.653   0.531
 1690TIP3    H2 5077   3.896   1.769   0.506
 1691TIP3   OH2 5078   1.365   2.771   4.671
 1691TIP3    H1 5079   1.281   2.739   4.637
 1691TIP3    H2 5080   1.420   2.779   4.594
 1692TIP3   OH2 5081   0.982   5.776   1.107
 1692TIP3    H1 5082   0.940   5.697   1.074
 1692TIP3    H2 5083   1.075   5.763   1.091
 1693TIP3   OH2 5084   3.071   5.160   3.114
 1693TIP3    H1 5085   3.028   5.162   3.028
 1693TIP3    H2 5086   3.164   5.160   3.094
 1694TIP3   OH2 5087   6.224   3.567   2.228
 1694TIP3    H1 5088   6.249   3.582   2.319
 1694TIP3    H2 5089   6.137   3.606   2.219
 1695TIP3   OH2 5090   5.515   0.711   2.483
 1695TIP3    H1 5091   5.559   0.790   2.516
 1695TIP3    H2 5092   5.499   0.730   2.390
 1696TIP3   OH2 5093   2.326   1.445   2.017
 1696TIP3    H1 5094   2.398   1.502   2.046
 1696TIP3    H2 5095   2.356   1.356   2.037
 1697TIP3   OH2 5096   3.151   0.627   1.707
 1697TIP3    H1 5097   3.181   0.670   1.787
 1697TIP3    H2 5098   3.215   0.654   1.641
 1698TIP3   OH2 5099   2.501   5.844   3.269
 1698TIP3    H1 5100   2.589   5.874   3.290
 1698TIP3    H2 5101   2.494   5.853   3.174
 1699TIP3   OH2 5102   5.569   2.598   0.328
 1699TIP3    H1 5103   5.602   2.511   0.303
 1699TIP3    H2 5104   5.644   2.642   0.368
 1700TIP3   OH2 5105   4.259   3.220   1.289
 1700TIP3    H1 5106   4.345   3.245   1.253
 1700TIP3    H2 5107   4.220   3.165   1.221
 1701TIP3   OH2 5108   0.206   2.746   1.493
 1701TIP3    H1 5109   0.244   2.723   1.577
 1701TIP3    H2 5110   0.281   2.751   1.433
 1702TIP3   OH2 5111   3.105   5.669   2.194
 1702TIP3    H1 5112   3.187   5.718   2.201
 1702TIP3    H2 5113   3.043   5.717   2.248
 1703TIP3   OH2 5114   5.919   4.518   0.459
 1703TIP3    H1 5115   5.876   4.447   0.411
 1703TIP3    H2 5116   5.848   4.578   0.483
 1704TIP3   OH2 5117   4.319   0.540   4.818
 1704TIP3    H1 5118   4.273   0.606   4.766
 1704TIP3    H2 5119   4.364   0.485   4.754
 1705TIP3   OH2 5120   5.377   1.092   5.054
 1705TIP3    H1 5121   5.393   1.158   5.121
 1705TIP3    H2 5122   5.411   1.132   4.973
 1706TIP3   OH2 5123   3.965   4.925   2.680
 1706TIP3    H1 5124   3.888   4.885   2.639
 1706TIP3    H2 5125   4.030   4.929   2.610
 1707TIP3   OH2 5126   0.176   4.405   2.531
 1707TIP3    H1 5127   0.132   4.322   2.548
 1707TIP3    H2 5128   0.112   4.457   2.483
 1708TIP3   OH2 5129   0.391   0.978   3.280
 1708TIP3    H1 5130   0.299   0.958   3.298
 1708TIP3    H2 5131   0.439   0.915   3.334
 1709TIP3   OH2 5132   4.170   1.157   2.324
 1709TIP3    H1 5133   4.118   1.234   2.301
 1709TIP3    H2 5134   4.109   1.099   2.370
 1710TIP3   OH2 5135   0.665   0.887   1.662
 1710TIP3    H1 5136   0.757   0.899   1.638
 1710TIP3    H2 5137   0.639   0.970   1.702
 1711TIP3   OH2 5138   4.420   5.451   2.785
 1711TIP3    H1 5139   4.356   5.380   2.795
 1711TIP3    H2 5140   4.438   5.481   2.874
 1712TIP3   OH2 5141   2.468   3.720   3.549
 1712TIP3    H1 5142   2.540   3.742   3.608
 1712TIP3    H2 5143   2.505   3.727   3.461
 1713TIP3   OH2 5144   3.599   0.557   4.122
 1713TIP3    H1 5145   3.603   0.487   4.057
 1713TIP3    H2 5146   3.632   0.634   4.076
 1714TIP3   OH2 5147   5.766   0.115   1.548
 1714TIP3    H1 5148   5.741   0.035   1.594
 1714TIP3    H2 5149   5.851   0.096   1.509
 1715TIP3   OH2 5150   0.042   1.836   4.765
 1715TIP3    H1 5151   0.117   1.862   4.818
 1715TIP3    H2 5152  -0.027   1.898   4.788
 1716TIP3   OH2 5153   2.923   4.942   3.231
 1716TIP3    H1 5154   2.977   4.926   3.308
 1716TIP3    H2 5155   2.979   4.997   3.174
 1717TIP3   OH2 5156   3.162   0.153   1.037
 1717TIP3    H1 5157   3.124   0.106   1.112
 1717TIP3    H2 5158   3.126   0.109   0.960
 1718TIP3   OH2 5159   2.439   0.808   1.215
 1718TIP3    H1 5160   2.382   0.885   1.220
 1718TIP3    H2 5161   2.406   0.758   1.141
 1719TIP3   OH2 5162   4.608   2.815   3.165
 1719TIP3    H1 5163   4.632   2.895   3.212
 1719TIP3    H2 5164   4.566   2.845   3.084
 1720TIP3   OH2 5165   1.514   0.743   0.704
 1720TIP3    H1 5166   1.462   0.710   0.778
 1720TIP3    H2 5167   1.471   0.825   0.680
 1721TIP3   OH2 5168   2.211   1.513   0.203
 1721TIP3    H1 5169   2.171   1.580   0.148
 1721TIP3    H2 5170   2.220   1.437   0.145
 1722TIP3   OH2 5171   0.211   2.887   3.829
 1722TIP3    H1 5172   0.306   2.895   3.823
 1722TIP3    H2 5173   0.187   2.837   3.751
 1723TIP3   OH2 5174   0.723   5.143   4.699
 1723TIP3    H1 5175   0.754   5.230   4.725
 1723TIP3    H2 5176   0.775   5.082   4.751
 1724TIP3   OH2 5177   6.208   4.517   3.910
 1724TIP3    H1 5178   6.284   4.528   3.853
 1724TIP3    H2 5179   6.141   4.573   3.872
 1725TIP3   OH2 5180   3.155   1.521   4.835
 1725TIP3    H1 5181   3.218   1.546   4.903
 1725TIP3    H2 5182   3.145   1.600   4.782
 1726TIP3   OH2 5183   3.735   1.312   3.670
 1726TIP3    H1 5184   3.661   1.254   3.654
 1726TIP3    H2 5185   3.771   1.284   3.754
 1727TIP3   OH2 5186   4.643   1.332   2.355
 1727TIP3    H1 5187   4.587   1.408   2.338
 1727TIP3    H2 5188   4.582   1.264   2.386
 1728TIP3   OH2 5189   4.180   3.867   4.313
 1728TIP3    H1 5190   4.189   3.924   4.237
 1728TIP3    H2 5191   4.269   3.839   4.334
 1729TIP3   OH2 5192   5.462   3.173   2.686
 1729TIP3    H1 5193   5.512   3.176   2.767
 1729TIP3    H2 5194   5.402   3.099   2.697
 1730TIP3   OH2 5195   2.955   2.326   1.033
 1730TIP3    H1 5196   2.934   2.305   1.124
 1730TIP3    H2 5197   3.033   2.380   1.038
 1731TIP3   OH2 5198   5.574   5.970   2.986
 1731TIP3    H1 5199   5.592   5.932   2.900
 1731TIP3    H2 5200   5.567   5.894   3.044
 1732TIP3   OH2 5201   0.648   4.022   0.115
 1732TIP3    H1 5202   0.577   3.974   0.074
 1732TIP3    H2 5203   0.719   4.020   0.051
 1733TIP3   OH2 5204   0.499   3.950   3.041
 1733TIP3    H1 5205   0.554   4.021   3.007
 1733TIP3    H2 5206   0.438   3.931   2.971
 1734TIP3   OH2 5207   3.514   4.326   3.985
 1734TIP3    H1 5208   3.504   4.357   3.895
 1734TIP3    H2 5209   3.558   4.241   3.976
 1735TIP3   OH2 5210   1.592   4.101   5.069
 1735TIP3    H1 5211   1.523   4.059   5.018
 1735TIP3    H2 5212   1.670   4.094   5.015
 1736TIP3   OH2 5213   4.388   2.647   3.238
 1736TIP3    H1 5214   4.453   2.709   3.205
 1736TIP3    H2 5215   4.304   2.691   3.226
 1737TIP3   OH2 5216   3.716   1.642   2.124
 1737TIP3    H1 5217   3.732   1.720   2.070
 1737TIP3    H2 5218   3.651   1.592   2.075
 1738TIP3   OH2 5219   4.635   0.421   3.239
 1738TIP3    H1 5220   4.701   0.451   3.176
 1738TIP3    H2 5221   4.621   0.329   3.217
 1739TIP3   OH2 5222   2.904   5.352   1.097
 1739TIP3    H1 5223   2.919   5.366   1.190
 1739TIP3    H2 5224   2.829   5.292   1.093
 1740TIP3   OH2 5225   3.845   3.431   0.248
 1740TIP3    H1 5226   3.848   3.412   0.342
 1740TIP3    H2 5227   3.755   3.460   0.233
 1741TIP3   OH2 5228   5.151   2.256   0.288
 1741TIP3    H1 5229   5.197   2.327   0.331
 1741TIP3    H2 5230   5.193   2.249   0.202
 1742TIP3   OH2 5231   1.035   3.522   2.831
 1742TIP3    H1 5232   0.939   3.525   2.826
 1742TIP3    H2 5233   1.060   3.463   2.760
 1743TIP3   OH2 5234   1.466   5.360   4.523
 1743TIP3    H1 5235   1.425   5.382   4.607
 1743TIP3    H2 5236   1.554   5.330   4.546
 1744TIP3   OH2 5237   4.117   5.083   3.789
 1744TIP3    H1 5238   4.085   5.007   3.741
 1744TIP3    H2 5239   4.117   5.056   3.880
 1745TIP3   OH2 5240   1.229   0.360   3.836
 1745TIP3    H1 5241   1.204   0.413   3.760
 1745TIP3    H2 5242   1.154   0.367   3.895
 1746TIP3   OH2 5243   3.083   1.413   4.018
 1746TIP3    H1 5244   3.089   1.355   3.942
 1746TIP3    H2 5245   3.007   1.381   4.066
 1747TIP3   OH2 5246   1.232   0.270   4.803
 1747TIP3    H1 5247   1.235   0.267   4.899
 1747TIP3    H2 5248   1.192   0.355   4.783
 1748TIP3   OH2 5249   1.611   0.187   2.592
 1748TIP3    H1 5250   1.705   0.201   2.578
 1748TIP3    H2 5251   1.589   0.117   2.530
 1749TIP3   OH2 5252   0.862   5.126   2.735
 1749TIP3    H1 5253   0.788   5.116   2.795
 1749TIP3    H2 5254   0.860   5.219   2.711
 1750TIP3   OH2 5255   1.249   1.939   0.498
 1750TIP3    H1 5256   1.288   1.873   0.441
 1750TIP3    H2 5257   1.323   1.991   0.528
 1751TIP3   OH2 5258   5.717   3.828   2.176
 1751TIP3    H1 5259   5.766   3.760   2.130
 1751TIP3    H2 5260   5.625   3.806   2.161
 1752TIP3   OH2 5261   1.480   0.976   2.601
 1752TIP3    H1 5262   1.459   1.067   2.624
 1752TIP3    H2 5263   1.455   0.968   2.509
 1753TIP3   OH2 5264   3.898   5.529   3.011
 1753TIP3    H1 5265   3.933   5.618   3.006
 1753TIP3    H2 5266   3.973   5.475   3.037
 1754TIP3   OH2 5267   1.850   0.918   4.021
 1754TIP3    H1 5268   1.871   0.874   4.104
 1754TIP3    H2 5269   1.856   0.850   3.955
 1755TIP3   OH2 5270   6.230   0.616  -0.001
 1755TIP3    H1 5271   6.193   0.542  -0.049
 1755TIP3    H2 5272   6.154   0.670   0.022
 1756TIP3   OH2 5273   0.889   4.119   0.828
 1756TIP3    H1 5274   0.917   4.029   0.814
 1756TIP3    H2 5275   0.812   4.129   0.772
 1757TIP3   OH2 5276   1.746   5.731   3.201
 1757TIP3    H1 5277   1.686   5.757   3.131
 1757TIP3    H2 5278   1.762   5.812   3.250
 1758TIP3   OH2 5279   0.313   4.412   2.239
 1758TIP3    H1 5280   0.343   4.321   2.227
 1758TIP3    H2 5281   0.224   4.403   2.272
 1759TIP3   OH2 5282   5.512   5.230   3.761
 1759TIP3    H1 5283   5.523   5.215   3.854
 1759TIP3    H2 5284   5.596   5.264   3.731
 1760TIP3   OH2 5285   1.770   5.013   4.629
 1760TIP3    H1 5286   1.845   5.064   4.658
 1760TIP3    H2 5287   1.695   5.055   4.669
 1761TIP3   OH2 5288   4.798   0.670   2.620
 1761TIP3    H1 5289   4.709   0.700   2.602
 1761TIP3    H2 5290   4.801   0.581   2.584
 1762TIP3   OH2 5291   2.290   5.661   2.778
 1762TIP3    H1 5292   2.261   5.680   2.689
 1762TIP3    H2 5293   2.239   5.721   2.833
 1763TIP3   OH2 5294   0.142   1.871   0.654
 1763TIP3    H1 5295   0.127   1.954   0.608
 1763TIP3    H2 5296   0.206   1.892   0.722
 1764TIP3   OH2 5297   5.375   4.216   2.308
 1764TIP3    H1 5298   5.394   4.125   2.331
 1764TIP3    H2 5299   5.460   4.260   2.312
 1765TIP3   OH2 5300   5.894   5.130   1.112
 1765TIP3    H1 5301   5.826   5.073   1.148
 1765TIP3    H2 5302   5.868   5.218   1.140
 1766TIP3   OH2 5303   4.465   4.994   4.298
 1766TIP3    H1 5304   4.397   5.062   4.302
 1766TIP3    H2 5305   4.484   4.973   4.390
 1767TIP3   OH2 5306   0.931   4.115   4.183
 1767TIP3    H1 5307   0.857   4.173   4.164
 1767TIP3    H2 5308   0.952   4.133   4.275
 1768TIP3   OH2 5309   1.138   0.970   0.758
 1768TIP3    H1 5310   1.105   1.021   0.832
 1768TIP3    H2 5311   1.133   0.879   0.788
 1769TIP3   OH2 5312   1.834   2.639   2.980
 1769TIP3    H1 5313   1.782   2.630   3.060
 1769TIP3    H2 5314   1.773   2.673   2.915
 1770TIP3   OH2 5315   0.868   3.724   4.275
 1770TIP3    H1 5316   0.790   3.740   4.221
 1770TIP3    H2 5317   0.876   3.629   4.277
 1771TIP3   OH2 5318   0.639   4.435   1.117
 1771TIP3    H1 5319   0.692   4.431   1.197
 1771TIP3    H2 5320   0.615   4.344   1.100
 1772TIP3   OH2 5321   1.734   3.288   0.739
 1772TIP3    H1 5322   1.648   3.287   0.697
 1772TIP3    H2 5323   1.754   3.196   0.755
 1773TIP3   OH2 5324   2.221   3.290   3.386
 1773TIP3    H1 5325   2.172   3.344   3.324
 1773TIP3    H2 5326   2.299   3.341   3.406
 1774TIP3   OH2 5327   3.321   1.657   3.098
 1774TIP3    H1 5328   3.416   1.643   3.102
 1774TIP3    H2 5329   3.302   1.671   3.005
 1775TIP3   OH2 5330   2.910   1.047   3.276
 1775TIP3    H1 5331   2.890   0.985   3.347
 1775TIP3    H2 5332   2.887   0.999   3.196
 1776TIP3   OH2 5333   3.001   2.700  -0.005
 1776TIP3    H1 5334   2.969   2.786  -0.031
 1776TIP3    H2 5335   3.074   2.682  -0.065
 1777TIP3   OH2 5336   3.098   0.562   0.566
 1777TIP3    H1 5337   3.020   0.567   0.621
 1777TIP3    H2 5338   3.091   0.478   0.520
 1778TIP3   OH2 5339   3.882   4.690   3.278
 1778TIP3    H1 5340   3.922   4.711   3.194
 1778TIP3    H2 5341   3.913   4.601   3.298
 1779TIP3   OH2 5342   1.929   2.422   0.773
 1779TIP3    H1 5343   2.023   2.426   0.789
 1779TIP3    H2 5344   1.889   2.451   0.855
 1780TIP3   OH2 5345   3.183   2.464   1.101
 1780TIP3    H1 5346   3.180   2.557   1.126
 1780TIP3    H2 5347   3.223   2.420   1.175
 1781TIP3   OH2 5348   4.749   2.860   0.086
 1781TIP3    H1 5349   4.817   2.825   0.143
 1781TIP3    H2 5350   4.667   2.833   0.127
 1782TIP3   OH2 5351   3.721   2.221   2.203
 1782TIP3    H1 5352   3.773   2.141   2.203
 1782TIP3    H2 5353   3.633   2.192   2.177
 1783TIP3   OH2 5354   3.208   0.800   0.674
 1783TIP3    H1 5355   3.163   0.737   0.618
 1783TIP3    H2 5356   3.137   0.850   0.715
 1784TIP3   OH2 5357   5.580   3.287   1.651
 1784TIP3    H1 5358   5.540   3.209   1.612
 1784TIP3    H2 5359   5.584   3.350   1.580
 1785TIP3   OH2 5360   1.410   2.613   4.131
 1785TIP3    H1 5361   1.388   2.686   4.189
 1785TIP3    H2 5362   1.443   2.655   4.051
 1786TIP3   OH2 5363   4.576   3.497   0.473
 1786TIP3    H1 5364   4.623   3.579   0.487
 1786TIP3    H2 5365   4.536   3.478   0.557
 1787TIP3   OH2 5366   2.906   3.724   1.455
 1787TIP3    H1 5367   2.905   3.629   1.469
 1787TIP3    H2 5368   2.942   3.759   1.537
 1788TIP3   OH2 5369   4.428   3.431   0.713
 1788TIP3    H1 5370   4.335   3.443   0.730
 1788TIP3    H2 5371   4.461   3.385   0.790
 1789TIP3   OH2 5372   0.121   0.987   3.357
 1789TIP3    H1 5373   0.109   1.003   3.450
 1789TIP3    H2 5374   0.033   0.995   3.320
 1790TIP3   OH2 5375   0.636   5.092   0.934
 1790TIP3    H1 5376   0.685   5.020   0.895
 1790TIP3    H2 5377   0.663   5.093   1.026
 1791TIP3   OH2 5378   3.916   2.983   1.747
 1791TIP3    H1 5379   3.910   3.027   1.663
 1791TIP3    H2 5380   3.988   3.027   1.792
 1792TIP3   OH2 5381   1.453   5.900   4.057
 1792TIP3    H1 5382   1.540   5.935   4.036
 1792TIP3    H2 5383   1.454   5.890   4.152
 1793TIP3   OH2 5384   5.578   1.739   2.763
 1793TIP3    H1 5385   5.650   1.777   2.814
 1793TIP3    H2 5386   5.613   1.656   2.732
 1794TIP3   OH2 5387   3.877   3.336   1.274
 1794TIP3    H1 5388   3.817   3.385   1.218
 1794TIP3    H2 5389   3.900   3.258   1.223
 1795TIP3   OH2 5390   0.318   1.109   1.886
 1795TIP3    H1 5391   0.240   1.164   1.875
 1795TIP3    H2 5392   0.302   1.033   1.830
 1796TIP3   OH2 5393   2.177   3.163   2.695
 1796TIP3    H1 5394   2.250   3.193   2.749
 1796TIP3    H2 5395   2.134   3.243   2.666
 1797TIP3   OH2 5396   1.871   1.646   1.684
 1797TIP3    H1 5397   1.934   1.576   1.698
 1797TIP3    H2 5398   1.921   1.727   1.693
 1798TIP3   OH2 5399   3.119   4.219   1.941
 1798TIP3    H1 5400   3.210   4.206   1.970
 1798TIP3    H2 5401   3.067   4.184   2.013
 1799TIP3   OH2 5402   5.694   2.376   0.213
 1799TIP3    H1 5403   5.759   2.326   0.263
 1799TIP3    H2 5404   5.710   2.351   0.122
 1800TIP3   OH2 5405   4.962   2.273   0.679
 1800TIP3    H1 5406   4.966   2.225   0.596
 1800TIP3    H2 5407   4.911   2.216   0.737
 1801TIP3   OH2 5408   1.439   5.386   4.232
 1801TIP3    H1 5409   1.433   5.393   4.327
 1801TIP3    H2 5410   1.360   5.338   4.207
 1802TIP3   OH2 5411   1.922   0.733   1.718
 1802TIP3    H1 5412   1.875   0.723   1.801
 1802TIP3    H2 5413   1.853   0.737   1.652
 1803TIP3   OH2 5414   2.004   3.095   4.050
 1803TIP3    H1 5415   2.075   3.057   4.102
 1803TIP3    H2 5416   1.964   3.020   4.006
 1804TIP3   OH2 5417   2.147   1.137   3.770
 1804TIP3    H1 5418   2.108   1.127   3.857
 1804TIP3    H2 5419   2.078   1.176   3.717
 1805TIP3   OH2 5420   5.842   1.929   4.732
 1805TIP3    H1 5421   5.756   1.918   4.774
 1805TIP3    H2 5422   5.862   2.022   4.742
 1806TIP3   OH2 5423   1.267   5.773   0.635
 1806TIP3    H1 5424   1.249   5.866   0.647
 1806TIP3    H2 5425   1.224   5.730   0.708
 1807TIP3   OH2 5426   0.644   5.637   1.848
 1807TIP3    H1 5427   0.688   5.711   1.890
 1807TIP3    H2 5428   0.690   5.560   1.881
 1808TIP3   OH2 5429   3.037   0.915   0.446
 1808TIP3    H1 5430   3.072   0.911   0.357
 1808TIP3    H2 5431   3.087   0.985   0.488
 1809TIP3   OH2 5432   5.647   3.834   0.497
 1809TIP3    H1 5433   5.611   3.891   0.564
 1809TIP3    H2 5434   5.701   3.891   0.442
 1810TIP3   OH2 5435   4.035   3.964   4.541
 1810TIP3    H1 5436   3.946   3.933   4.559
 1810TIP3    H2 5437   4.055   3.929   4.454
 1811TIP3   OH2 5438   4.356   2.482   1.435
 1811TIP3    H1 5439   4.448   2.456   1.441
 1811TIP3    H2 5440   4.312   2.407   1.394
 1812TIP3   OH2 5441   4.528   4.453   2.295
 1812TIP3    H1 5442   4.477   4.372   2.292
 1812TIP3    H2 5443   4.619   4.424   2.301
 1813TIP3   OH2 5444   0.909   2.559   2.627
 1813TIP3    H1 5445   0.895   2.465   2.611
 1813TIP3    H2 5446   0.863   2.576   2.710
 1814TIP3   OH2 5447   2.247   1.969   0.329
 1814TIP3    H1 5448   2.330   1.960   0.281
 1814TIP3    H2 5449   2.237   1.886   0.375
 1815TIP3   OH2 5450   0.815   2.539   1.524
 1815TIP3    H1 5451   0.867   2.556   1.602
 1815TIP3    H2 5452   0.879   2.539   1.452
 1816TIP3   OH2 5453   5.325   0.984   2.249
 1816TIP3    H1 5454   5.381   1.060   2.264
 1816TIP3    H2 5455   5.269   0.979   2.326
 1817TIP3   OH2 5456   2.430   1.232   4.764
 1817TIP3    H1 5457   2.394   1.195   4.845
 1817TIP3    H2 5458   2.524   1.241   4.782
 1818TIP3   OH2 5459   5.332   1.465   3.897
 1818TIP3    H1 5460   5.408   1.518   3.873
 1818TIP3    H2 5461   5.302   1.503   3.979
 1819TIP3   OH2 5462   1.581   2.271   0.866
 1819TIP3    H1 5463   1.625   2.354   0.847
 1819TIP3    H2 5464   1.648   2.217   0.908
 1820TIP3   OH2 5465   3.427   3.158   2.097
 1820TIP3    H1 5466   3.381   3.075   2.097
 1820TIP3    H2 5467   3.520   3.134   2.103
 1821TIP3   OH2 5468   6.314   5.661   3.854
 1821TIP3    H1 5469   6.251   5.590   3.842
 1821TIP3    H2 5470   6.286   5.706   3.933
 1822TIP3   OH2 5471   0.727   4.327   3.232
 1822TIP3    H1 5472   0.685   4.242   3.242
 1822TIP3    H2 5473   0.775   4.321   3.150
 1823TIP3   OH2 5474   4.902   3.557   4.340
 1823TIP3    H1 5475   4.918   3.464   4.356
 1823TIP3    H2 5476   4.983   3.600   4.367
 1824TIP3   OH2 5477   1.197   1.210   0.564
 1824TIP3    H1 5478   1.185   1.116   0.549
 1824TIP3    H2 5479   1.279   1.232   0.521
 1825TIP3   OH2 5480   3.728   0.336   1.587
 1825TIP3    H1 5481   3.807   0.385   1.609
 1825TIP3    H2 5482   3.740   0.250   1.628
 1826TIP3   OH2 5483   0.560   1.644   4.362
 1826TIP3    H1 5484   0.503   1.697   4.419
 1826TIP3    H2 5485   0.648   1.667   4.390
 1827TIP3   OH2 5486   5.779   2.735   0.435
 1827TIP3    H1 5487   5.799   2.802   0.369
 1827TIP3    H2 5488   5.832   2.758   0.510
 1828TIP3   OH2 5489   4.709   1.733   3.249
 1828TIP3    H1 5490   4.638   1.730   3.184
 1828TIP3    H2 5491   4.769   1.800   3.215
 1829TIP3   OH2 5492   5.651   1.458   3.409
 1829TIP3    H1 5493   5.610   1.407   3.479
 1829TIP3    H2 5494   5.583   1.466   3.342
 1830TIP3   OH2 5495   4.873   0.916   4.957
 1830TIP3    H1 5496   4.822   0.865   5.020
 1830TIP3    H2 5497   4.840   0.889   4.871
 1831TIP3   OH2 5498   1.031   2.731   0.664
 1831TIP3    H1 5499   0.963   2.688   0.612
 1831TIP3    H2 5500   0.987   2.804   0.706
 1832TIP3   OH2 5501   4.389   4.773   0.575
 1832TIP3    H1 5502   4.408   4.857   0.533
 1832TIP3    H2 5503   4.407   4.707   0.508
 1833TIP3   OH2 5504   0.751   5.379   1.951
 1833TIP3    H1 5505   0.694   5.378   2.027
 1833TIP3    H2 5506   0.694   5.359   1.877
 1834TIP3   OH2 5507   2.734   4.890   4.757
 1834TIP3    H1 5508   2.772   4.803   4.770
 1834TIP3    H2 5509   2.664   4.876   4.693
 1835TIP3   OH2 5510   2.664   5.408   1.262
 1835TIP3    H1 5511   2.585   5.461   1.277
 1835TIP3    H2 5512   2.736   5.467   1.279
 1836TIP3   OH2 5513   6.005   2.986   3.853
 1836TIP3    H1 5514   5.944   2.921   3.817
 1836TIP3    H2 5515   6.023   2.955   3.942
 1837TIP3   OH2 5516   4.163   3.847   2.289
 1837TIP3    H1 5517   4.128   3.875   2.205
 1837TIP3    H2 5518   4.125   3.760   2.303
 1838TIP3   OH2 5519   2.377   2.359   1.500
 1838TIP3    H1 5520   2.382   2.366   1.405
 1838TIP3    H2 5521   2.435   2.286   1.522
 1839TIP3   OH2 5522   4.964   0.215   0.946
 1839TIP3    H1 5523   5.048   0.189   0.986
 1839TIP3    H2 5524   4.902   0.149   0.978
 1840TIP3   OH2 5525   1.691   5.410   0.966
 1840TIP3    H1 5526   1.695   5.464   0.887
 1840TIP3    H2 5527   1.764   5.349   0.957
 1841TIP3   OH2 5528   5.004   2.549   2.253
 1841TIP3    H1 5529   5.051   2.627   2.222
 1841TIP3    H2 5530   4.993   2.563   2.347
 1842TIP3   OH2 5531   1.036   4.799   1.455
 1842TIP3    H1 5532   1.108   4.801   1.518
 1842TIP3    H2 5533   1.078   4.783   1.371
 1843TIP3   OH2 5534   4.679   3.836   2.478
 1843TIP3    H1 5535   4.670   3.928   2.503
 1843TIP3    H2 5536   4.606   3.820   2.419
 1844TIP3   OH2 5537   1.671   2.368   1.741
 1844TIP3    H1 5538   1.670   2.319   1.823
 1844TIP3    H2 5539   1.760   2.402   1.735
 1845TIP3   OH2 5540   1.125   4.098   3.267
 1845TIP3    H1 5541   1.117   4.156   3.191
 1845TIP3    H2 5542   1.133   4.156   3.342
 1846TIP3   OH2 5543   3.577   4.630   4.670
 1846TIP3    H1 5544   3.622   4.628   4.754
 1846TIP3    H2 5545   3.554   4.539   4.653
 1847TIP3   OH2 5546   1.057   4.205   0.638
 1847TIP3    H1 5547   1.041   4.298   0.654
 1847TIP3    H2 5548   1.013   4.160   0.711
 1848TIP3   OH2 5549   5.533   5.264   2.379
 1848TIP3    H1 5550   5.604   5.241   2.319
 1848TIP3    H2 5551   5.498   5.346   2.344
 1849TIP3   OH2 5552   0.669   5.610   3.708
 1849TIP3    H1 5553   0.626   5.680   3.756
 1849TIP3    H2 5554   0.637   5.619   3.618
 1850TIP3   OH2 5555   0.594   4.028   1.685
 1850TIP3    H1 5556   0.605   4.120   1.708
 1850TIP3    H2 5557   0.666   3.983   1.729
 1851TIP3   OH2 5558   3.508   4.306   0.341
 1851TIP3    H1 5559   3.540   4.322   0.430
 1851TIP3    H2 5560   3.413   4.306   0.349
 1852TIP3   OH2 5561   5.548   0.436   3.408
 1852TIP3    H1 5562   5.591   0.516   3.437
 1852TIP3    H2 5563   5.587   0.418   3.322
 1853TIP3   OH2 5564   6.211   0.507   3.053
 1853TIP3    H1 5565   6.199   0.563   2.977
 1853TIP3    H2 5566   6.303   0.482   3.050
 1854TIP3   OH2 5567   3.948   0.274   0.714
 1854TIP3    H1 5568   3.879   0.297   0.651
 1854TIP3    H2 5569   3.959   0.353   0.767
 1855TIP3   OH2 5570   3.045   0.879   4.371
 1855TIP3    H1 5571   3.040   0.938   4.296
 1855TIP3    H2 5572   3.133   0.843   4.368
 1856TIP3   OH2 5573   1.316   1.751   4.767
 1856TIP3    H1 5574   1.271   1.738   4.851
 1856TIP3    H2 5575   1.246   1.754   4.702
 1857TIP3   OH2 5576   6.183   1.281   4.951
 1857TIP3    H1 5577   6.209   1.257   5.040
 1857TIP3    H2 5578   6.091   1.256   4.946
 1858TIP3   OH2 5579   5.080   4.076   1.501
 1858TIP3    H1 5580   5.129   4.081   1.583
 1858TIP3    H2 5581   5.138   4.029   1.441
 1859TIP3   OH2 5582   6.013   2.637   2.413
 1859TIP3    H1 5583   5.920   2.655   2.423
 1859TIP3    H2 5584   6.022   2.543   2.431
 1860TIP3   OH2 5585   1.387   1.516   3.762
 1860TIP3    H1 5586   1.462   1.569   3.789
 1860TIP3    H2 5587   1.424   1.431   3.740
 1861TIP3   OH2 5588   3.547   2.373   1.751
 1861TIP3    H1 5589   3.543   2.468   1.741
 1861TIP3    H2 5590   3.638   2.355   1.773
 1862TIP3   OH2 5591   4.160   1.750   3.435
 1862TIP3    H1 5592   4.075   1.756   3.480
 1862TIP3    H2 5593   4.170   1.658   3.414
 1863TIP3   OH2 5594   1.221   1.541   0.185
 1863TIP3    H1 5595   1.312   1.551   0.216
 1863TIP3    H2 5596   1.208   1.446   0.180
 1864TIP3   OH2 5597   1.256   2.737   3.621
 1864TIP3    H1 5598   1.344   2.745   3.583
 1864TIP3    H2 5599   1.249   2.810   3.682
 1865TIP3   OH2 5600   5.136   2.624   3.500
 1865TIP3    H1 5601   5.096   2.544   3.466
 1865TIP3    H2 5602   5.229   2.614   3.480
 1866TIP3   OH2 5603   1.738   5.515   2.011
 1866TIP3    H1 5604   1.809   5.488   1.952
 1866TIP3    H2 5605   1.680   5.439   2.015
 1867TIP3   OH2 5606   1.065   2.509   2.961
 1867TIP3    H1 5607   0.987   2.561   2.941
 1867TIP3    H2 5608   1.135   2.574   2.970
 1868TIP3   OH2 5609   3.932   0.779   4.462
 1868TIP3    H1 5610   3.838   0.789   4.480
 1868TIP3    H2 5611   3.974   0.800   4.545
 1869TIP3   OH2 5612   2.476   0.445   0.994
 1869TIP3    H1 5613   2.529   0.452   0.914
 1869TIP3    H2 5614   2.448   0.535   1.012
 1870TIP3   OH2 5615   0.101   2.840   3.361
 1870TIP3    H1 5616   0.105   2.925   3.405
 1870TIP3    H2 5617   0.147   2.780   3.421
 1871TIP3   OH2 5618   1.401   0.991   0.698
 1871TIP3    H1 5619   1.441   1.017   0.782
 1871TIP3    H2 5620   1.308   1.012   0.708
 1872TIP3   OH2 5621   2.012   1.523   4.742
 1872TIP3    H1 5622   2.023   1.505   4.835
 1872TIP3    H2 5623   1.958   1.452   4.709
 1873TIP3   OH2 5624   2.261   3.852   0.486
 1873TIP3    H1 5625   2.182   3.906   0.484
 1873TIP3    H2 5626   2.249   3.794   0.561
 1874TIP3   OH2 5627   2.196   2.481   0.352
 1874TIP3    H1 5628   2.106   2.449   0.351
 1874TIP3    H2 5629   2.250   2.403   0.338
 1875TIP3   OH2 5630   2.541   0.599   3.796
 1875TIP3    H1 5631   2.511   0.682   3.832
 1875TIP3    H2 5632   2.619   0.623   3.745
 1876TIP3   OH2 5633   5.465   0.112   3.243
 1876TIP3    H1 5634   5.392   0.058   3.215
 1876TIP3    H2 5635   5.427   0.174   3.305
 1877TIP3   OH2 5636   0.193   1.942   4.573
 1877TIP3    H1 5637   0.117   1.909   4.622
 1877TIP3    H2 5638   0.239   1.998   4.635
 1878TIP3   OH2 5639   0.784   2.558   0.816
 1878TIP3    H1 5640   0.778   2.466   0.845
 1878TIP3    H2 5641   0.833   2.554   0.734
 1879TIP3   OH2 5642   4.207   1.505   4.944
 1879TIP3    H1 5643   4.291   1.501   4.897
 1879TIP3    H2 5644   4.231   1.490   5.036
 1880TIP3   OH2 5645   5.456   3.092   3.179
 1880TIP3    H1 5646   5.401   3.133   3.246
 1880TIP3    H2 5647   5.395   3.043   3.124
 1881TIP3   OH2 5648   0.045   5.818   3.634
 1881TIP3    H1 5649   0.035   5.768   3.715
 1881TIP3    H2 5650  -0.019   5.888   3.641
 1882TIP3   OH2 5651   5.228   1.297   3.242
 1882TIP3    H1 5652   5.266   1.243   3.172
 1882TIP3    H2 5653   5.212   1.382   3.200
 1883TIP3   OH2 5654   4.907   2.586   0.436
 1883TIP3    H1 5655   4.854   2.562   0.511
 1883TIP3    H2 5656   4.903   2.510   0.377
 1884TIP3   OH2 5657   1.328   2.462   0.832
 1884TIP3    H1 5658   1.288   2.419   0.908
 1884TIP3    H2 5659   1.414   2.422   0.824
 1885TIP3   OH2 5660   4.656   3.707   1.549
 1885TIP3    H1 5661   4.735   3.683   1.599
 1885TIP3    H2 5662   4.662   3.656   1.469
 1886TIP3   OH2 5663   5.069   5.335   4.865
 1886TIP3    H1 5664   5.094   5.331   4.773
 1886TIP3    H2 5665   5.138   5.387   4.906
 1887TIP3   OH2 5666   5.905   1.147   1.767
 1887TIP3    H1 5667   5.825   1.166   1.816
 1887TIP3    H2 5668   5.925   1.229   1.722
 1888TIP3   OH2 5669   0.794   5.786   4.206
 1888TIP3    H1 5670   0.867   5.847   4.212
 1888TIP3    H2 5671   0.730   5.820   4.268
 1889TIP3   OH2 5672   4.076   3.118   4.753
 1889TIP3    H1 5673   4.166   3.129   4.784
 1889TIP3    H2 5674   4.036   3.057   4.815
 1890TIP3   OH2 5675   4.459   1.265   4.902
 1890TIP3    H1 5676   4.418   1.253   4.816
 1890TIP3    H2 5677   4.523   1.335   4.888
 1891TIP3   OH2 5678   5.405   4.723   0.654
 1891TIP3    H1 5679   5.376   4.693   0.740
 1891TIP3    H2 5680   5.475   4.786   0.673
 1892TIP3   OH2 5681   2.729   4.184   0.690
 1892TIP3    H1 5682   2.779   4.220   0.763
 1892TIP3    H2 5683   2.637   4.195   0.715
 1893TIP3   OH2 5684   0.798   3.755   0.575
 1893TIP3    H1 5685   0.711   3.789   0.551
 1893TIP3    H2 5686   0.799   3.665   0.543
 1894TIP3   OH2 5687   0.277   0.203   3.723
 1894TIP3    H1 5688   0.331   0.139   3.678
 1894TIP3    H2 5689   0.282   0.178   3.815
 1895TIP3   OH2 5690   0.329   0.381   4.122
 1895TIP3    H1 5691   0.334   0.336   4.037
 1895TIP3    H2 5692   0.420   0.393   4.149
 1896TIP3   OH2 5693   6.096   5.631   2.902
 1896TIP3    H1 5694   6.043   5.590   2.970
 1896TIP3    H2 5695   6.161   5.682   2.950
 1897TIP3   OH2 5696   1.049   5.899   4.237
 1897TIP3    H1 5697   1.072   5.810   4.263
 1897TIP3    H2 5698   1.085   5.954   4.306
 1898TIP3   OH2 5699   4.466   5.018   1.494
 1898TIP3    H1 5700   4.383   4.998   1.450
 1898TIP3    H2 5701   4.523   5.050   1.425
 1899TIP3   OH2 5702   2.433   5.010   4.537
 1899TIP3    H1 5703   2.425   4.952   4.462
 1899TIP3    H2 5704   2.477   5.088   4.503
 1900TIP3   OH2 5705   2.346   5.436   4.298
 1900TIP3    H1 5706   2.365   5.505   4.233
 1900TIP3    H2 5707   2.425   5.431   4.351
 1901TIP3   OH2 5708   4.388   2.910   4.098
 1901TIP3    H1 5709   4.412   2.953   4.016
 1901TIP3    H2 5710   4.441   2.955   4.164
 1902TIP3   OH2 5711   5.471   5.162   0.820
 1902TIP3    H1 5712   5.393   5.192   0.866
 1902TIP3    H2 5713   5.541   5.219   0.850
 1903TIP3   OH2 5714   4.778   0.583   5.038
 1903TIP3    H1 5715   4.721   0.655   5.066
 1903TIP3    H2 5716   4.786   0.595   4.943
 1904TIP3   OH2 5717   5.537   4.656   4.613
 1904TIP3    H1 5718   5.524   4.631   4.704
 1904TIP3    H2 5719   5.449   4.670   4.579
 1905TIP3   OH2 5720   3.140   3.315   1.423
 1905TIP3    H1 5721   3.180   3.231   1.444
 1905TIP3    H2 5722   3.214   3.374   1.405
 1906TIP3   OH2 5723   1.950   3.279   3.863
 1906TIP3    H1 5724   1.984   3.244   3.945
 1906TIP3    H2 5725   1.966   3.373   3.869
 1907TIP3   OH2 5726   2.397   1.836   4.268
 1907TIP3    H1 5727   2.416   1.916   4.316
 1907TIP3    H2 5728   2.460   1.772   4.302
 1908TIP3   OH2 5729   2.868   4.342   3.159
 1908TIP3    H1 5730   2.887   4.363   3.068
 1908TIP3    H2 5731   2.813   4.264   3.155
 1909TIP3   OH2 5732   4.863   2.899   4.206
 1909TIP3    H1 5733   4.925   2.865   4.141
 1909TIP3    H2 5734   4.782   2.913   4.157
 1910TIP3   OH2 5735   0.590   4.012   4.246
 1910TIP3    H1 5736   0.578   4.056   4.330
 1910TIP3    H2 5737   0.575   4.081   4.180
 1911TIP3   OH2 5738   2.035   3.753   0.880
 1911TIP3    H1 5739   2.122   3.792   0.880
 1911TIP3    H2 5740   2.041   3.680   0.818
 1912TIP3   OH2 5741   5.839   0.758   2.861
 1912TIP3    H1 5742   5.920   0.807   2.844
 1912TIP3    H2 5743   5.821   0.711   2.780
 1913TIP3   OH2 5744   4.027   4.253   3.120
 1913TIP3    H1 5745   3.993   4.237   3.032
 1913TIP3    H2 5746   4.121   4.268   3.108
 1914TIP3   OH2 5747   3.334   5.657   3.513
 1914TIP3    H1 5748   3.253   5.639   3.560
 1914TIP3    H2 5749   3.365   5.740   3.550
 1915TIP3   OH2 5750   4.841   1.278   4.074
 1915TIP3    H1 5751   4.830   1.247   4.164
 1915TIP3    H2 5752   4.935   1.276   4.059
 1916TIP3   OH2 5753   0.810   0.132   1.244
 1916TIP3    H1 5754   0.787   0.116   1.152
 1916TIP3    H2 5755   0.905   0.120   1.248
 1917TIP3   OH2 5756   4.546   1.449   4.295
 1917TIP3    H1 5757   4.503   1.443   4.209
 1917TIP3    H2 5758   4.501   1.521   4.339
 1918TIP3   OH2 5759   4.106   5.110   4.875
 1918TIP3    H1 5760   4.185   5.164   4.872
 1918TIP3    H2 5761   4.113   5.061   4.957
 1919TIP3   OH2 5762   4.482   1.418   2.605
 1919TIP3    H1 5763   4.390   1.435   2.625
 1919TIP3    H2 5764   4.483   1.404   2.511
 1920TIP3   OH2 5765   0.227   2.069   3.962
 1920TIP3    H1 5766   0.266   1.983   3.947
 1920TIP3    H2 5767   0.176   2.059   4.043
 1921TIP3   OH2 5768   5.953   0.558   0.212
 1921TIP3    H1 5769   6.000   0.641   0.211
 1921TIP3    H2 5770   5.873   0.575   0.162
 1922TIP3   OH2 5771   1.307   4.046   0.363
 1922TIP3    H1 5772   1.354   3.990   0.424
 1922TIP3    H2 5773   1.217   4.047   0.395
 1923TIP3   OH2 5774   1.903   2.724   2.016
 1923TIP3    H1 5775   1.814   2.688   2.013
 1923TIP3    H2 5776   1.894   2.811   1.977
 1924TIP3   OH2 5777   4.364   2.998   2.649
 1924TIP3    H1 5778   4.350   2.904   2.650
 1924TIP3    H2 5779   4.284   3.035   2.685
 1925TIP3   OH2 5780   0.597   3.059   4.620
 1925TIP3    H1 5781   0.630   3.049   4.710
 1925TIP3    H2 5782   0.548   2.978   4.604
 1926TIP3   OH2 5783   3.904   2.541   2.402
 1926TIP3    H1 5784   3.919   2.567   2.493
 1926TIP3    H2 5785   3.965   2.596   2.351
 1927TIP3   OH2 5786   3.151   4.812   0.334
 1927TIP3    H1 5787   3.164   4.881   0.269
 1927TIP3    H2 5788   3.063   4.778   0.316
 1928TIP3   OH2 5789   6.075   5.366   2.797
 1928TIP3    H1 5790   5.986   5.399   2.807
 1928TIP3    H2 5791   6.130   5.443   2.810
 1929TIP3   OH2 5792   4.494   3.001   0.459
 1929TIP3    H1 5793   4.442   3.076   0.490
 1929TIP3    H2 5794   4.545   3.036   0.386
 1930TIP3   OH2 5795   3.997   2.047   5.101
 1930TIP3    H1 5796   4.076   1.993   5.108
 1930TIP3    H2 5797   3.938   2.012   5.168
 1931TIP3   OH2 5798   0.603   5.335   3.356
 1931TIP3    H1 5799   0.559   5.255   3.385
 1931TIP3    H2 5800   0.620   5.384   3.436
 1932TIP3   OH2 5801   3.583   1.354   0.244
 1932TIP3    H1 5802   3.650   1.381   0.307
 1932TIP3    H2 5803   3.598   1.260   0.232
 1933TIP3   OH2 5804   5.501   5.252   2.908
 1933TIP3    H1 5805   5.561   5.321   2.882
 1933TIP3    H2 5806   5.555   5.190   2.957
 1934TIP3   OH2 5807   2.964   1.227   3.023
 1934TIP3    H1 5808   3.020   1.150   3.029
 1934TIP3    H2 5809   2.890   1.207   3.081
 1935TIP3   OH2 5810   1.106   1.976   4.713
 1935TIP3    H1 5811   1.048   1.905   4.741
 1935TIP3    H2 5812   1.046   2.041   4.676
 1936TIP3   OH2 5813   4.924   2.900   1.811
 1936TIP3    H1 5814   4.868   2.844   1.865
 1936TIP3    H2 5815   5.009   2.899   1.855
 1937TIP3   OH2 5816   1.703   1.301   1.428
 1937TIP3    H1 5817   1.645   1.227   1.410
 1937TIP3    H2 5818   1.756   1.310   1.349
 1938TIP3   OH2 5819   2.095   3.425   3.165
 1938TIP3    H1 5820   2.150   3.494   3.202
 1938TIP3    H2 5821   2.008   3.464   3.159
 1939TIP3   OH2 5822   2.508   2.596   3.027
 1939TIP3    H1 5823   2.497   2.584   3.121
 1939TIP3    H2 5824   2.601   2.582   3.011
 1940TIP3   OH2 5825   0.542   2.633   4.361
 1940TIP3    H1 5826   0.588   2.591   4.289
 1940TIP3    H2 5827   0.610   2.680   4.410
 1941TIP3   OH2 5828   4.138   4.337   1.912
 1941TIP3    H1 5829   4.130   4.295   1.826
 1941TIP3    H2 5830   4.086   4.417   1.904
 1942TIP3   OH2 5831   0.196   3.787   3.975
 1942TIP3    H1 5832   0.234   3.736   4.046
 1942TIP3    H2 5833   0.267   3.843   3.944
 1943TIP3   OH2 5834   0.095   1.299   1.803
 1943TIP3    H1 5835   0.019   1.243   1.821
 1943TIP3    H2 5836   0.072   1.347   1.723
 1944TIP3   OH2 5837   4.611   2.046   3.139
 1944TIP3    H1 5838   4.559   1.971   3.112
 1944TIP3    H2 5839   4.577   2.070   3.225
 1945TIP3   OH2 5840   1.070   2.056   5.018
 1945TIP3    H1 5841   0.992   2.005   4.997
 1945TIP3    H2 5842   1.130   2.039   4.945
 1946TIP3   OH2 5843   4.468   2.983   1.389
 1946TIP3    H1 5844   4.519   3.048   1.341
 1946TIP3    H2 5845   4.391   2.968   1.335
 1947TIP3   OH2 5846   0.010   2.900   1.563
 1947TIP3    H1 5847   0.080   2.859   1.513
 1947TIP3    H2 5848  -0.004   2.984   1.520
 1948TIP3   OH2 5849   6.057   1.468   2.312
 1948TIP3    H1 5850   6.052   1.376   2.338
 1948TIP3    H2 5851   6.119   1.469   2.239
 1949TIP3   OH2 5852   4.468   4.256   2.896
 1949TIP3    H1 5853   4.540   4.221   2.948
 1949TIP3    H2 5854   4.412   4.300   2.960
 1950TIP3   OH2 5855   5.812   2.892   4.701
 1950TIP3    H1 5856   5.781   2.840   4.775
 1950TIP3    H2 5857   5.869   2.833   4.652
 1951TIP3   OH2 5858   5.790   5.806   4.977
 1951TIP3    H1 5859   5.815   5.741   5.043
 1951TIP3    H2 5860   5.697   5.821   4.992
 1952TIP3   OH2 5861   0.384   2.735   0.297
 1952TIP3    H1 5862   0.455   2.675   0.320
 1952TIP3    H2 5863   0.421   2.823   0.311
 1953TIP3   OH2 5864   2.966   2.283   0.274
 1953TIP3    H1 5865   2.974   2.294   0.180
 1953TIP3    H2 5866   3.029   2.345   0.311
 1954TIP3   OH2 5867   6.158   3.713   2.498
 1954TIP3    H1 5868   6.158   3.617   2.499
 1954TIP3    H2 5869   6.113   3.737   2.579
 1955TIP3   OH2 5870   2.584   5.520   4.860
 1955TIP3    H1 5871   2.616   5.459   4.926
 1955TIP3    H2 5872   2.657   5.529   4.798
 1956TIP3   OH2 5873   2.127   1.678   0.384
 1956TIP3    H1 5874   2.047   1.707   0.340
 1956TIP3    H2 5875   2.161   1.608   0.329
 1957TIP3   OH2 5876   0.072   2.158   1.326
 1957TIP3    H1 5877   0.062   2.181   1.419
 1957TIP3    H2 5878  -0.001   2.098   1.308
 1958TIP3   OH2 5879   4.672   4.426   3.271
 1958TIP3    H1 5880   4.697   4.409   3.180
 1958TIP3    H2 5881   4.620   4.349   3.296
 1959TIP3   OH2 5882   1.441   0.504   2.955
 1959TIP3    H1 5883   1.382   0.506   2.880
 1959TIP3    H2 5884   1.504   0.434   2.935
 1960TIP3   OH2 5885   4.452   1.035   0.408
 1960TIP3    H1 5886   4.468   0.988   0.326
 1960TIP3    H2 5887   4.451   1.127   0.384
 1961TIP3   OH2 5888   3.685   4.727   3.462
 1961TIP3    H1 5889   3.762   4.709   3.408
 1961TIP3    H2 5890   3.662   4.817   3.441
 1962TIP3   OH2 5891   1.717   5.660   0.769
 1962TIP3    H1 5892   1.769   5.600   0.715
 1962TIP3    H2 5893   1.783   5.709   0.819
 1963TIP3   OH2 5894   0.876   1.813   4.744
 1963TIP3    H1 5895   0.843   1.816   4.834
 1963TIP3    H2 5896   0.797   1.806   4.690
 1964TIP3   OH2 5897   2.937   5.737   1.362
 1964TIP3    H1 5898   3.004   5.710   1.424
 1964TIP3    H2 5899   2.985   5.775   1.289
 1965TIP3   OH2 5900   0.146   5.388   0.414
 1965TIP3    H1 5901   0.159   5.304   0.369
 1965TIP3    H2 5902   0.098   5.366   0.493
 1966TIP3   OH2 5903   0.875   4.716   3.409
 1966TIP3    H1 5904   0.931   4.689   3.482
 1966TIP3    H2 5905   0.934   4.765   3.351
 1967TIP3   OH2 5906   3.634   5.389   4.413
 1967TIP3    H1 5907   3.714   5.339   4.399
 1967TIP3    H2 5908   3.660   5.480   4.404
 1968TIP3   OH2 5909   0.341   0.547   4.903
 1968TIP3    H1 5910   0.260   0.504   4.876
 1968TIP3    H2 5911   0.375   0.492   4.974
 1969TIP3   OH2 5912   4.958   2.286   2.399
 1969TIP3    H1 5913   5.036   2.301   2.346
 1969TIP3    H2 5914   4.987   2.299   2.490
 1970TIP3   OH2 5915   0.807   2.501   5.053
 1970TIP3    H1 5916   0.894   2.466   5.031
 1970TIP3    H2 5917   0.759   2.499   4.970
 1971TIP3   OH2 5918   0.650   4.572   1.511
 1971TIP3    H1 5919   0.556   4.589   1.514
 1971TIP3    H2 5920   0.691   4.656   1.531
 1972TIP3   OH2 5921   2.273   2.222   1.860
 1972TIP3    H1 5922   2.300   2.307   1.894
 1972TIP3    H2 5923   2.338   2.161   1.893
 1973TIP3   OH2 5924   3.645   4.466   2.846
 1973TIP3    H1 5925   3.640   4.505   2.933
 1973TIP3    H2 5926   3.608   4.378   2.857
 1974TIP3   OH2 5927   5.083   1.531   4.511
 1974TIP3    H1 5928   5.077   1.441   4.543
 1974TIP3    H2 5929   5.175   1.554   4.522
 1975TIP3   OH2 5930   0.823   4.903   0.848
 1975TIP3    H1 5931   0.898   4.950   0.810
 1975TIP3    H2 5932   0.795   4.844   0.779
 1976TIP3   OH2 5933   2.581   1.981   4.062
 1976TIP3    H1 5934   2.644   1.993   4.133
 1976TIP3    H2 5935   2.502   2.027   4.091
 1977TIP3   OH2 5936   4.988   1.379   3.065
 1977TIP3    H1 5937   5.013   1.351   3.153
 1977TIP3    H2 5938   5.066   1.366   3.012
 1978TIP3   OH2 5939   0.770   3.190   1.459
 1978TIP3    H1 5940   0.784   3.158   1.370
 1978TIP3    H2 5941   0.858   3.210   1.492
 1979TIP3   OH2 5942   1.748   5.179   2.158
 1979TIP3    H1 5943   1.756   5.089   2.189
 1979TIP3    H2 5944   1.698   5.224   2.226
 1980TIP3   OH2 5945   0.081   3.628   5.021
 1980TIP3    H1 5946   0.028   3.655   5.096
 1980TIP3    H2 5947   0.031   3.656   4.945
 1981TIP3   OH2 5948  -0.005   3.378   1.337
 1981TIP3    H1 5949  -0.053   3.332   1.268
 1981TIP3    H2 5950   0.081   3.396   1.299
 1982TIP3   OH2 5951   3.163   5.055   3.351
 1982TIP3    H1 5952   3.176   5.144   3.318
 1982TIP3    H2 5953   3.239   5.007   3.317
 1983TIP3   OH2 5954   5.175   5.864   4.618
 1983TIP3    H1 5955   5.202   5.774   4.604
 1983TIP3    H2 5956   5.133   5.863   4.704
 1984TIP3   OH2 5957   2.806   1.069   1.553
 1984TIP3    H1 5958   2.854   0.987   1.567
 1984TIP3    H2 5959   2.780   1.067   1.461
 1985TIP3   OH2 5960   1.784   0.798   4.958
 1985TIP3    H1 5961   1.713   0.735   4.952
 1985TIP3    H2 5962   1.863   0.747   4.939
 1986TIP3   OH2 5963   1.203   4.724   0.768
 1986TIP3    H1 5964   1.200   4.642   0.817
 1986TIP3    H2 5965   1.124   4.722   0.714
 1987TIP3   OH2 5966   0.404   0.546   2.991
 1987TIP3    H1 5967   0.448   0.536   2.907
 1987TIP3    H2 5968   0.468   0.588   3.047
 1988TIP3   OH2 5969   5.257   0.123   2.764
 1988TIP3    H1 5970   5.335   0.090   2.719
 1988TIP3    H2 5971   5.289   0.156   2.847
 1989TIP3   OH2 5972   5.961   2.811   5.017
 1989TIP3    H1 5973   5.967   2.831   5.110
 1989TIP3    H2 5974   6.008   2.882   4.974
 1990TIP3   OH2 5975   6.158   4.939   4.853
 1990TIP3    H1 5976   6.067   4.968   4.861
 1990TIP3    H2 5977   6.155   4.870   4.787
 1991TIP3   OH2 5978   2.613   2.106   3.812
 1991TIP3    H1 5979   2.677   2.175   3.828
 1991TIP3    H2 5980   2.587   2.078   3.900
 1992TIP3   OH2 5981   3.339   0.436   1.758
 1992TIP3    H1 5982   3.365   0.452   1.849
 1992TIP3    H2 5983   3.269   0.500   1.742
 1993TIP3   OH2 5984   4.870   5.370   2.764
 1993TIP3    H1 5985   4.880   5.461   2.736
 1993TIP3    H2 5986   4.903   5.318   2.691
 1994TIP3   OH2 5987   0.501   3.203   0.022
 1994TIP3    H1 5988   0.575   3.178  -0.033
 1994TIP3    H2 5989   0.461   3.120   0.047
 1995TIP3   OH2 5990   1.696   2.133   1.070
 1995TIP3    H1 5991   1.776   2.184   1.082
 1995TIP3    H2 5992   1.630   2.179   1.122
 1996TIP3   OH2 5993   3.251   5.263   5.100
 1996TIP3    H1 5994   3.219   5.311   5.024
 1996TIP3    H2 5995   3.343   5.246   5.081
 1997TIP3   OH2 5996   1.892   3.960   5.151
 1997TIP3    H1 5997   1.968   3.924   5.105
 1997TIP3    H2 5998   1.856   4.025   5.091
 1998TIP3   OH2 5999   0.222   1.394   3.560
 1998TIP3    H1 6000   0.246   1.337   3.634
 1998TIP3    H2 6001   0.178   1.469   3.601
 1999TIP3   OH2 6002   0.844   3.769   1.500
 1999TIP3    H1 6003   0.920   3.808   1.457
 1999TIP3    H2 6004   0.849   3.676   1.477
 2000TIP3   OH2 6005   5.512   3.417   2.593
 2000TIP3    H1 6006   5.523   3.336   2.643
 2000TIP3    H2 6007   5.425   3.449   2.618
 2001TIP3   OH2 6008   2.538   2.976   0.483
 2001TIP3    H1 6009   2.583   3.006   0.562
 2001TIP3    H2 6010   2.479   2.907   0.514
 2002TIP3   OH2 6011   4.745   0.146   2.678
 2002TIP3    H1 6012   4.814   0.081   2.691
 2002TIP3    H2 6013   4.710   0.126   2.591
 2003TIP3   OH2 6014   5.007   1.395   3.747
 2003TIP3    H1 6015   5.041   1.379   3.835
 2003TIP3    H2 6016   4.956   1.316   3.726
 2004TIP3   OH2 6017   1.293   0.075   3.929
 2004TIP3    H1 6018   1.227   0.144   3.936
 2004TIP3    H2 6019   1.289   0.047   3.837
 2005TIP3   OH2 6020   4.444   1.557   4.764
 2005TIP3    H1 6021   4.528   1.529   4.728
 2005TIP3    H2 6022   4.416   1.630   4.709
 2006TIP3   OH2 6023   0.634   5.175   1.460
 2006TIP3    H1 6024   0.658   5.083   1.469
 2006TIP3    H2 6025   0.542   5.179   1.485
 2007TIP3   OH2 6026   4.949   0.345   1.288
 2007TIP3    H1 6027   4.949   0.435   1.257
 2007TIP3    H2 6028   5.038   0.314   1.272
 2008TIP3   OH2 6029   0.670   1.929   0.361
 2008TIP3    H1 6030   0.664   1.934   0.265
 2008TIP3    H2 6031   0.764   1.920   0.378
 2009TIP3   OH2 6032   2.348   2.960   0.064
 2009TIP3    H1 6033   2.408   2.891   0.037
 2009TIP3    H2 6034   2.272   2.915   0.099
 2010TIP3   OH2 6035   0.933   4.508   0.422
 2010TIP3    H1 6036   0.919   4.426   0.376
 2010TIP3    H2 6037   1.005   4.551   0.375
 2011TIP3   OH2 6038   3.960   5.027   4.643
 2011TIP3    H1 6039   4.002   5.056   4.724
 2011TIP3    H2 6040   3.921   5.107   4.607
 2012TIP3   OH2 6041   1.749   1.373   2.499
 2012TIP3    H1 6042   1.823   1.385   2.438
 2012TIP3    H2 6043   1.729   1.461   2.530
 2013TIP3   OH2 6044   1.206   5.908   2.402
 2013TIP3    H1 6045   1.299   5.905   2.426
 2013TIP3    H2 6046   1.177   5.995   2.431
 2014TIP3   OH2 6047   0.249   0.716   2.803
 2014TIP3    H1 6048   0.319   0.770   2.840
 2014TIP3    H2 6049   0.200   0.685   2.879
 2015TIP3   OH2 6050   3.181   3.847   1.203
 2015TIP3    H1 6051   3.143   3.893   1.278
 2015TIP3    H2 6052   3.107   3.803   1.162
 2016TIP3   OH2 6053   5.781   3.243   2.647
 2016TIP3    H1 6054   5.812   3.152   2.654
 2016TIP3    H2 6055   5.707   3.248   2.708
 2017TIP3   OH2 6056   2.966   3.426   3.496
 2017TIP3    H1 6057   2.968   3.367   3.572
 2017TIP3    H2 6058   2.882   3.409   3.454
 2018TIP3   OH2 6059   4.023   3.702   4.085
 2018TIP3    H1 6060   4.051   3.618   4.049
 2018TIP3    H2 6061   4.099   3.734   4.134
 2019TIP3   OH2 6062   0.480   2.741   4.933
 2019TIP3    H1 6063   0.538   2.816   4.916
 2019TIP3    H2 6064   0.526   2.667   4.895
 2020TIP3   OH2 6065   6.183   4.564   0.565
 2020TIP3    H1 6066   6.200   4.508   0.640
 2020TIP3    H2 6067   6.104   4.527   0.525
 2021TIP3   OH2 6068   1.632   3.704   3.654
 2021TIP3    H1 6069   1.578   3.632   3.688
 2021TIP3    H2 6070   1.667   3.746   3.732
 2022TIP3   OH2 6071   2.790   0.550   4.088
 2022TIP3    H1 6072   2.729   0.605   4.136
 2022TIP3    H2 6073   2.735   0.484   4.045
 2023TIP3   OH2 6074   4.872   0.337   4.931
 2023TIP3    H1 6075   4.804   0.317   4.867
 2023TIP3    H2 6076   4.839   0.412   4.979
 2024TIP3   OH2 6077   1.434   4.852   4.650
 2024TIP3    H1 6078   1.454   4.841   4.558
 2024TIP3    H2 6079   1.465   4.772   4.692
 2025TIP3   OH2 6080   1.290   0.247   3.484
 2025TIP3    H1 6081   1.343   0.249   3.564
 2025TIP3    H2 6082   1.235   0.324   3.489
 2026TIP3   OH2 6083   3.493   3.913   0.559
 2026TIP3    H1 6084   3.537   3.995   0.582
 2026TIP3    H2 6085   3.544   3.845   0.602
 2027TIP3   OH2 6086   4.543   2.910   4.660
 2027TIP3    H1 6087   4.573   2.819   4.660
 2027TIP3    H2 6088   4.465   2.910   4.716
 2028TIP3   OH2 6089   1.061   0.436   1.328
 2028TIP3    H1 6090   1.119   0.471   1.261
 2028TIP3    H2 6091   1.064   0.501   1.399
 2029TIP3   OH2 6092   5.541   4.692   1.264
 2029TIP3    H1 6093   5.505   4.627   1.203
 2029TIP3    H2 6094   5.619   4.651   1.300
 2030TIP3   OH2 6095   0.711   4.594   5.094
 2030TIP3    H1 6096   0.705   4.675   5.043
 2030TIP3    H2 6097   0.642   4.538   5.058
 2031TIP3   OH2 6098   4.606   2.691   4.921
 2031TIP3    H1 6099   4.657   2.610   4.927
 2031TIP3    H2 6100   4.575   2.693   4.831
 2032TIP3   OH2 6101   4.066   0.025   1.219
 2032TIP3    H1 6102   4.027   0.037   1.132
 2032TIP3    H2 6103   4.111   0.107   1.237
 2033TIP3   OH2 6104   3.857   1.485   2.713
 2033TIP3    H1 6105   3.890   1.416   2.771
 2033TIP3    H2 6106   3.772   1.508   2.749
 2034TIP3   OH2 6107  -0.008   1.647   4.052
 2034TIP3    H1 6108   0.075   1.657   4.006
 2034TIP3    H2 6109   0.004   1.692   4.135
 2035TIP3   OH2 6110   1.562   2.616   0.507
 2035TIP3    H1 6111   1.627   2.550   0.484
 2035TIP3    H2 6112   1.479   2.578   0.479
 2036TIP3   OH2 6113   2.124   3.571   1.119
 2036TIP3    H1 6114   2.051   3.594   1.062
 2036TIP3    H2 6115   2.098   3.601   1.206
 2037TIP3   OH2 6116   3.905   5.639   4.658
 2037TIP3    H1 6117   3.881   5.676   4.743
 2037TIP3    H2 6118   3.959   5.563   4.680
 2038TIP3   OH2 6119   5.222   2.432   1.642
 2038TIP3    H1 6120   5.177   2.436   1.726
 2038TIP3    H2 6121   5.154   2.455   1.578
 2039TIP3   OH2 6122   6.293   3.842   0.842
 2039TIP3    H1 6123   6.384   3.869   0.832
 2039TIP3    H2 6124   6.252   3.916   0.888
 2040TIP3   OH2 6125   2.249   2.726   0.786
 2040TIP3    H1 6126   2.341   2.713   0.810
 2040TIP3    H2 6127   2.210   2.639   0.794
 2041TIP3   OH2 6128  -0.002   5.431   5.037
 2041TIP3    H1 6129  -0.013   5.344   4.999
 2041TIP3    H2 6130   0.087   5.458   5.013
 2042TIP3   OH2 6131   3.282   4.087   4.096
 2042TIP3    H1 6132   3.223   4.145   4.144
 2042TIP3    H2 6133   3.335   4.146   4.042
 2043TIP3   OH2 6134   5.527   4.698   0.403
 2043TIP3    H1 6135   5.503   4.654   0.484
 2043TIP3    H2 6136   5.571   4.779   0.431
 2044TIP3   OH2 6137   3.288   3.018   1.473
 2044TIP3    H1 6138   3.383   3.020   1.462
 2044TIP3    H2 6139   3.275   3.019   1.567
 2045TIP3   OH2 6140   4.616   4.369   1.712
 2045TIP3    H1 6141   4.625   4.299   1.777
 2045TIP3    H2 6142   4.574   4.440   1.760
 2046TIP3   OH2 6143   0.934   2.937   0.317
 2046TIP3    H1 6144   1.019   2.901   0.341
 2046TIP3    H2 6145   0.952   3.002   0.250
 2047TIP3   OH2 6146   1.886   3.139   2.869
 2047TIP3    H1 6147   1.848   3.111   2.786
 2047TIP3    H2 6148   1.920   3.227   2.852
 2048TIP3   OH2 6149   0.991   4.258   2.092
 2048TIP3    H1 6150   1.060   4.267   2.157
 2048TIP3    H2 6151   0.966   4.166   2.094
 2049TIP3   OH2 6152   3.342   5.712   3.227
 2049TIP3    H1 6153   3.324   5.664   3.308
 2049TIP3    H2 6154   3.282   5.786   3.228
 2050TIP3   OH2 6155   4.585   2.688   0.913
 2050TIP3    H1 6156   4.624   2.758   0.860
 2050TIP3    H2 6157   4.559   2.622   0.849
 2051TIP3   OH2 6158   0.082   2.379   2.059
 2051TIP3    H1 6159   0.030   2.384   1.978
 2051TIP3    H2 6160   0.038   2.438   2.120
 2052TIP3   OH2 6161   0.325   5.136   3.879
 2052TIP3    H1 6162   0.376   5.070   3.832
 2052TIP3    H2 6163   0.375   5.154   3.958
 2053TIP3   OH2 6164   0.259   3.715   2.244
 2053TIP3    H1 6165   0.208   3.638   2.221
 2053TIP3    H2 6166   0.327   3.720   2.176
 2054TIP3   OH2 6167  -0.015   2.464   2.624
 2054TIP3    H1 6168   0.055   2.417   2.668
 2054TIP3    H2 6169  -0.096   2.428   2.661
 2055TIP3   OH2 6170   0.019   4.915   0.241
 2055TIP3    H1 6171  -0.060   4.876   0.278
 2055TIP3    H2 6172   0.033   4.867   0.159
 2056TIP3   OH2 6173   4.062   2.529   0.466
 2056TIP3    H1 6174   3.986   2.496   0.515
 2056TIP3    H2 6175   4.028   2.546   0.378
 2057TIP3   OH2 6176   2.923   2.091   2.186
 2057TIP3    H1 6177   2.961   2.153   2.124
 2057TIP3    H2 6178   2.974   2.102   2.266
 2058TIP3   OH2 6179   1.236   1.056   4.424
 2058TIP3    H1 6180   1.160   1.079   4.477
 2058TIP3    H2 6181   1.301   1.124   4.443
 2059TIP3   OH2 6182   4.881   0.565   3.665
 2059TIP3    H1 6183   4.810   0.565   3.602
 2059TIP3    H2 6184   4.927   0.648   3.650
 2060TIP3   OH2 6185   3.296   1.903   0.824
 2060TIP3    H1 6186   3.300   1.972   0.890
 2060TIP3    H2 6187   3.206   1.869   0.830
 2061TIP3   OH2 6188   3.958   5.128   1.908
 2061TIP3    H1 6189   3.937   5.217   1.933
 2061TIP3    H2 6190   3.924   5.073   1.979
 2062TIP3   OH2 6191   5.214   1.511   1.086
 2062TIP3    H1 6192   5.308   1.517   1.102
 2062TIP3    H2 6193   5.201   1.553   1.001
 2063TIP3   OH2 6194   2.733   3.157   3.243
 2063TIP3    H1 6195   2.810   3.176   3.190
 2063TIP3    H2 6196   2.758   3.080   3.295
 2064TIP3   OH2 6197   1.679   5.642   1.112
 2064TIP3    H1 6198   1.684   5.563   1.058
 2064TIP3    H2 6199   1.770   5.670   1.122
 2065TIP3   OH2 6200   0.980   0.874   1.140
 2065TIP3    H1 6201   0.921   0.940   1.102
 2065TIP3    H2 6202   0.932   0.840   1.216
 2066TIP3   OH2 6203   1.923   5.574   0.035
 2066TIP3    H1 6204   2.016   5.555   0.026
 2066TIP3    H2 6205   1.913   5.606   0.125
 2067TIP3   OH2 6206   0.671   0.731   4.376
 2067TIP3    H1 6207   0.765   0.718   4.391
 2067TIP3    H2 6208   0.661   0.726   4.281
 2068TIP3   OH2 6209   5.998   4.670   1.530
 2068TIP3    H1 6210   5.968   4.627   1.611
 2068TIP3    H2 6211   6.066   4.611   1.497
 2069TIP3   OH2 6212   4.929   2.581   4.945
 2069TIP3    H1 6213   4.890   2.616   5.026
 2069TIP3    H2 6214   4.996   2.520   4.976
 2070TIP3   OH2 6215   3.957   5.673   0.007
 2070TIP3    H1 6216   4.017   5.682   0.081
 2070TIP3    H2 6217   3.872   5.700   0.041
 2071TIP3   OH2 6218   1.917   3.706   3.407
 2071TIP3    H1 6219   1.906   3.733   3.498
 2071TIP3    H2 6220   1.926   3.611   3.411
 2072TIP3   OH2 6221   3.557   0.090   4.886
 2072TIP3    H1 6222   3.528   0.004   4.854
 2072TIP3    H2 6223   3.647   0.074   4.915
 2073TIP3   OH2 6224   5.840   5.988   2.317
 2073TIP3    H1 6225   5.925   5.947   2.304
 2073TIP3    H2 6226   5.846   6.071   2.269
 2074TIP3   OH2 6227   2.600   5.334   3.860
 2074TIP3    H1 6228   2.569   5.420   3.830
 2074TIP3    H2 6229   2.520   5.283   3.871
 2075TIP3   OH2 6230   1.154   0.924   2.571
 2075TIP3    H1 6231   1.061   0.905   2.581
 2075TIP3    H2 6232   1.191   0.844   2.534
 2076TIP3   OH2 6233   5.574   0.191   0.928
 2076TIP3    H1 6234   5.648   0.182   0.868
 2076TIP3    H2 6235   5.602   0.148   1.008
 2077TIP3   OH2 6236   2.715   1.684   1.662
 2077TIP3    H1 6237   2.674   1.598   1.657
 2077TIP3    H2 6238   2.809   1.666   1.649
 2078TIP3   OH2 6239   4.939   2.985   2.432
 2078TIP3    H1 6240   4.914   2.977   2.340
 2078TIP3    H2 6241   4.957   3.079   2.444
 2079TIP3   OH2 6242   1.256   4.004   0.624
 2079TIP3    H1 6243   1.170   4.039   0.601
 2079TIP3    H2 6244   1.273   4.037   0.712
 2080TIP3   OH2 6245   2.818   2.602   3.325
 2080TIP3    H1 6246   2.772   2.658   3.388
 2080TIP3    H2 6247   2.830   2.519   3.370
 2081TIP3   OH2 6248   2.450   3.085   4.484
 2081TIP3    H1 6249   2.503   3.013   4.451
 2081TIP3    H2 6250   2.510   3.160   4.489
 2082TIP3   OH2 6251   2.816   2.203   1.509
 2082TIP3    H1 6252   2.755   2.200   1.435
 2082TIP3    H2 6253   2.827   2.111   1.533
 2083TIP3   OH2 6254   2.817   0.870   0.615
 2083TIP3    H1 6255   2.785   0.957   0.641
 2083TIP3    H2 6256   2.888   0.888   0.554
 2084TIP3   OH2 6257   0.559   0.302   1.746
 2084TIP3    H1 6258   0.600   0.381   1.710
 2084TIP3    H2 6259   0.600   0.230   1.699
 2085TIP3   OH2 6260   5.914   1.497   1.496
 2085TIP3    H1 6261   5.897   1.455   1.580
 2085TIP3    H2 6262   5.900   1.590   1.511
 2086TIP3   OH2 6263   0.807   0.029   2.918
 2086TIP3    H1 6264   0.797   0.095   2.850
 2086TIP3    H2 6265   0.835  -0.050   2.871
 2087TIP3   OH2 6266   3.557   5.160   2.494
 2087TIP3    H1 6267   3.482   5.125   2.542
 2087TIP3    H2 6268   3.545   5.255   2.497
 2088TIP3   OH2 6269   1.279   5.638   0.909
 2088TIP3    H1 6270   1.277   5.566   0.972
 2088TIP3    H2 6271   1.310   5.713   0.959
 2089TIP3   OH2 6272   5.010   2.630   0.112
 2089TIP3    H1 6273   5.089   2.644   0.163
 2089TIP3    H2 6274   4.969   2.553   0.150
 2090TIP3   OH2 6275   0.845   0.416   5.174
 2090TIP3    H1 6276   0.939   0.416   5.155
 2090TIP3    H2 6277   0.829   0.332   5.217
 2091TIP3   OH2 6278   5.901   3.250   4.524
 2091TIP3    H1 6279   5.957   3.316   4.483
 2091TIP3    H2 6280   5.874   3.193   4.451
 2092TIP3   OH2 6281   5.962   5.585   3.132
 2092TIP3    H1 6282   5.883   5.531   3.129
 2092TIP3    H2 6283   5.930   5.673   3.112
 2093TIP3   OH2 6284   1.739   0.150   0.988
 2093TIP3    H1 6285   1.825   0.185   1.010
 2093TIP3    H2 6286   1.718   0.189   0.903
 2094TIP3   OH2 6287   2.175   5.955   2.719
 2094TIP3    H1 6288   2.108   5.956   2.787
 2094TIP3    H2 6289   2.137   5.903   2.648
 2095TIP3   OH2 6290   2.758   4.944   0.748
 2095TIP3    H1 6291   2.811   4.868   0.722
 2095TIP3    H2 6292   2.777   5.011   0.683
 2096TIP3   OH2 6293   0.423   4.854   0.112
 2096TIP3    H1 6294   0.362   4.921   0.083
 2096TIP3    H2 6295   0.368   4.775   0.122
 2097TIP3   OH2 6296   5.847   0.939   3.920
 2097TIP3    H1 6297   5.931   0.923   3.878
 2097TIP3    H2 6298   5.865   0.935   4.014
 2098TIP3   OH2 6299   3.997   5.029   4.276
 2098TIP3    H1 6300   3.942   5.065   4.207
 2098TIP3    H2 6301   4.004   4.936   4.254
 2099TIP3   OH2 6302   2.906   4.587   4.362
 2099TIP3    H1 6303   2.870   4.524   4.299
 2099TIP3    H2 6304   2.877   4.555   4.447
 2100TIP3   OH2 6305   3.483   5.404   2.031
 2100TIP3    H1 6306   3.542   5.337   1.995
 2100TIP3    H2 6307   3.527   5.434   2.111
 2101TIP3   OH2 6308   1.466   5.223   3.505
 2101TIP3    H1 6309   1.394   5.185   3.456
 2101TIP3    H2 6310   1.427   5.296   3.552
 2102TIP3   OH2 6311   3.699   3.026   4.866
 2102TIP3    H1 6312   3.652   3.077   4.801
 2102TIP3    H2 6313   3.678   3.068   4.950
 2103TIP3   OH2 6314   1.561   1.484   1.922
 2103TIP3    H1 6315   1.587   1.456   1.834
 2103TIP3    H2 6316   1.636   1.535   1.954
 2104TIP3   OH2 6317   2.447   4.760   1.548
 2104TIP3    H1 6318   2.393   4.783   1.472
 2104TIP3    H2 6319   2.522   4.713   1.510
 2105TIP3   OH2 6320   2.508   0.235   1.560
 2105TIP3    H1 6321   2.557   0.193   1.489
 2105TIP3    H2 6322   2.485   0.164   1.619
 2106TIP3   OH2 6323   4.070   3.602   2.408
 2106TIP3    H1 6324   3.991   3.551   2.423
 2106TIP3    H2 6325   4.119   3.595   2.491
 2107TIP3   OH2 6326   0.966   5.241   0.277
 2107TIP3    H1 6327   1.002   5.308   0.218
 2107TIP3    H2 6328   0.941   5.288   0.356
 2108TIP3   OH2 6329   0.172   0.641   1.946
 2108TIP3    H1 6330   0.228   0.694   1.890
 2108TIP3    H2 6331   0.167   0.690   2.028
 2109TIP3   OH2 6332   1.854   0.996   3.253
 2109TIP3    H1 6333   1.802   0.921   3.281
 2109TIP3    H2 6334   1.852   1.055   3.329
 2110TIP3   OH2 6335   0.236   1.391   0.540
 2110TIP3    H1 6336   0.319   1.437   0.523
 2110TIP3    H2 6337   0.247   1.306   0.497
 2111TIP3   OH2 6338   4.706   5.004   0.604
 2111TIP3    H1 6339   4.725   5.097   0.594
 2111TIP3    H2 6340   4.629   5.002   0.662
 2112TIP3   OH2 6341   0.404   2.855   2.496
 2112TIP3    H1 6342   0.316   2.888   2.515
 2112TIP3    H2 6343   0.409   2.857   2.400
 2113TIP3   OH2 6344   1.746   3.599   5.014
 2113TIP3    H1 6345   1.706   3.602   4.927
 2113TIP3    H2 6346   1.683   3.642   5.071
 2114TIP3   OH2 6347   1.071   5.518   4.842
 2114TIP3    H1 6348   1.157   5.478   4.850
 2114TIP3    H2 6349   1.052   5.551   4.930
 2115TIP3   OH2 6350   4.485   2.904   0.132
 2115TIP3    H1 6351   4.447   2.843   0.069
 2115TIP3    H2 6352   4.410   2.943   0.176
 2116TIP3   OH2 6353   3.679   1.944   3.758
 2116TIP3    H1 6354   3.632   2.022   3.728
 2116TIP3    H2 6355   3.672   1.882   3.686
 2117TIP3   OH2 6356   6.266   5.951   1.244
 2117TIP3    H1 6357   6.229   5.910   1.321
 2117TIP3    H2 6358   6.230   5.902   1.170
 2118TIP3   OH2 6359   5.218   2.853   4.888
 2118TIP3    H1 6360   5.306   2.817   4.872
 2118TIP3    H2 6361   5.187   2.882   4.803
 2119TIP3   OH2 6362   0.353   0.829   0.173
 2119TIP3    H1 6363   0.290   0.790   0.234
 2119TIP3    H2 6364   0.300   0.864   0.103
 2120TIP3   OH2 6365   4.672   5.137   5.020
 2120TIP3    H1 6366   4.722   5.151   5.100
 2120TIP3    H2 6367   4.581   5.137   5.048
 2121TIP3   OH2 6368   4.145   5.615   0.491
 2121TIP3    H1 6369   4.137   5.697   0.540
 2121TIP3    H2 6370   4.093   5.553   0.541
 2122TIP3   OH2 6371   2.095   0.074   3.343
 2122TIP3    H1 6372   2.091   0.098   3.435
 2122TIP3    H2 6373   2.010   0.034   3.325
 2123TIP3   OH2 6374   3.496   4.377   3.337
 2123TIP3    H1 6375   3.484   4.426   3.418
 2123TIP3    H2 6376   3.426   4.407   3.280
 2124TIP3   OH2 6377   5.086   3.636   3.611
 2124TIP3    H1 6378   5.167   3.676   3.645
 2124TIP3    H2 6379   5.049   3.702   3.553
 2125TIP3   OH2 6380   4.989   3.851   4.744
 2125TIP3    H1 6381   4.986   3.757   4.763
 2125TIP3    H2 6382   4.917   3.888   4.796
 2126TIP3   OH2 6383   0.173   4.955   1.015
 2126TIP3    H1 6384   0.251   4.958   0.959
 2126TIP3    H2 6385   0.101   4.940   0.953
 2127TIP3   OH2 6386   2.521   3.889   4.763
 2127TIP3    H1 6387   2.510   3.956   4.831
 2127TIP3    H2 6388   2.488   3.931   4.684
 2128TIP3   OH2 6389   3.209   4.865   3.781
 2128TIP3    H1 6390   3.158   4.938   3.747
 2128TIP3    H2 6391   3.248   4.898   3.862
 2129TIP3   OH2 6392   5.733   1.297   3.066
 2129TIP3    H1 6393   5.719   1.283   3.160
 2129TIP3    H2 6394   5.822   1.332   3.059
 2130TIP3   OH2 6395   5.079   1.981   3.601
 2130TIP3    H1 6396   5.061   1.902   3.551
 2130TIP3    H2 6397   5.064   1.956   3.692
 2131TIP3   OH2 6398   4.739   4.096   4.503
 2131TIP3    H1 6399   4.690   4.019   4.473
 2131TIP3    H2 6400   4.831   4.075   4.483
 2132TIP3   OH2 6401   2.276   3.822   3.885
 2132TIP3    H1 6402   2.229   3.857   3.809
 2132TIP3    H2 6403   2.211   3.770   3.932
 2133TIP3   OH2 6404   5.564   0.606   3.826
 2133TIP3    H1 6405   5.651   0.627   3.793
 2133TIP3    H2 6406   5.509   0.679   3.795
 2134TIP3   OH2 6407   1.120   0.511   4.689
 2134TIP3    H1 6408   1.061   0.457   4.637
 2134TIP3    H2 6409   1.066   0.544   4.760
 2135TIP3   OH2 6410   3.617   2.036   1.070
 2135TIP3    H1 6411   3.552   2.095   1.032
 2135TIP3    H2 6412   3.629   2.068   1.159
 2136TIP3   OH2 6413   5.117   4.542   3.240
 2136TIP3    H1 6414   5.110   4.637   3.241
 2136TIP3    H2 6415   5.064   4.512   3.313
 2137TIP3   OH2 6416   3.765   0.834   1.009
 2137TIP3    H1 6417   3.731   0.779   0.939
 2137TIP3    H2 6418   3.856   0.851   0.985
 2138TIP3   OH2 6419   6.158   5.275   3.024
 2138TIP3    H1 6420   6.242   5.319   3.019
 2138TIP3    H2 6421   6.108   5.311   2.951
 2139TIP3   OH2 6422   1.087   4.576   4.045
 2139TIP3    H1 6423   1.111   4.551   4.134
 2139TIP3    H2 6424   1.078   4.671   4.049
 2140TIP3   OH2 6425   4.822   2.753   0.692
 2140TIP3    H1 6426   4.822   2.661   0.719
 2140TIP3    H2 6427   4.914   2.780   0.698
 2141TIP3   OH2 6428   2.259   5.992   4.213
 2141TIP3    H1 6429   2.258   6.005   4.118
 2141TIP3    H2 6430   2.253   5.897   4.225
 2142TIP3   OH2 6431   2.385   5.845   1.663
 2142TIP3    H1 6432   2.462   5.788   1.659
 2142TIP3    H2 6433   2.408   5.922   1.611
 2143TIP3   OH2 6434   0.352   3.071   5.003
 2143TIP3    H1 6435   0.289   3.068   4.931
 2143TIP3    H2 6436   0.411   3.142   4.981
 2144TIP3   OH2 6437   4.707   0.052   2.425
 2144TIP3    H1 6438   4.759  -0.001   2.364
 2144TIP3    H2 6439   4.625   0.069   2.379
 2145TIP3   OH2 6440   1.590   5.811   2.993
 2145TIP3    H1 6441   1.507   5.767   2.972
 2145TIP3    H2 6442   1.652   5.776   2.928
 2146TIP3   OH2 6443   0.770   1.806   3.528
 2146TIP3    H1 6444   0.785   1.886   3.478
 2146TIP3    H2 6445   0.826   1.815   3.605
 2147TIP3   OH2 6446   2.698   1.929   1.535
 2147TIP3    H1 6447   2.656   1.895   1.455
 2147TIP3    H2 6448   2.704   1.853   1.592
 2148TIP3   OH2 6449   0.353   0.637   3.991
 2148TIP3    H1 6450   0.295   0.590   4.051
 2148TIP3    H2 6451   0.327   0.606   3.904
 2149TIP3   OH2 6452   0.893   3.216   4.650
 2149TIP3    H1 6453   0.848   3.210   4.734
 2149TIP3    H2 6454   0.899   3.125   4.619
 2150TIP3   OH2 6455   0.249   3.409   1.254
 2150TIP3    H1 6456   0.285   3.413   1.342
 2150TIP3    H2 6457   0.321   3.380   1.199
 2151TIP3   OH2 6458   2.468   1.040   2.881
 2151TIP3    H1 6459   2.535   0.986   2.923
 2151TIP3    H2 6460   2.510   1.125   2.868
 2152TIP3   OH2 6461   3.810   5.732   4.927
 2152TIP3    H1 6462   3.728   5.768   4.962
 2152TIP3    H2 6463   3.877   5.794   4.954
 2153TIP3   OH2 6464   2.900   5.901   3.452
 2153TIP3    H1 6465   2.950   5.959   3.509
 2153TIP3    H2 6466   2.944   5.816   3.459
 2154TIP3   OH2 6467   3.759   0.493   1.905
 2154TIP3    H1 6468   3.710   0.412   1.921
 2154TIP3    H2 6469   3.832   0.466   1.849
 2155TIP3   OH2 6470   2.481   3.625   3.987
 2155TIP3    H1 6471   2.524   3.630   3.901
 2155TIP3    H2 6472   2.391   3.651   3.970
 2156TIP3   OH2 6473   3.263   5.951   0.963
 2156TIP3    H1 6474   3.341   5.993   0.927
 2156TIP3    H2 6475   3.210   5.928   0.886
 2157TIP3   OH2 6476   4.104   3.470   5.088
 2157TIP3    H1 6477   4.124   3.441   5.177
 2157TIP3    H2 6478   4.032   3.414   5.059
 2158TIP3   OH2 6479   4.436   4.886   2.484
 2158TIP3    H1 6480   4.475   4.799   2.476
 2158TIP3    H2 6481   4.457   4.929   2.401
 2159TIP3   OH2 6482   6.066   2.335   5.139
 2159TIP3    H1 6483   6.135   2.336   5.074
 2159TIP3    H2 6484   6.063   2.424   5.173
 2160TIP3   OH2 6485   4.772   3.051   2.660
 2160TIP3    H1 6486   4.828   3.079   2.733
 2160TIP3    H2 6487   4.832   3.008   2.599
 2161TIP3   OH2 6488   5.093   4.537   2.618
 2161TIP3    H1 6489   5.014   4.495   2.653
 2161TIP3    H2 6490   5.142   4.564   2.696
 2162TIP3   OH2 6491   3.350   4.377   1.806
 2162TIP3    H1 6492   3.264   4.337   1.819
 2162TIP3    H2 6493   3.344   4.417   1.719
 2163TIP3   OH2 6494   1.855   4.757   3.728
 2163TIP3    H1 6495   1.787   4.758   3.659
 2163TIP3    H2 6496   1.872   4.849   3.747
 2164TIP3   OH2 6497   6.109   2.712   0.326
 2164TIP3    H1 6498   6.149   2.714   0.413
 2164TIP3    H2 6499   6.060   2.794   0.321
 2165TIP3   OH2 6500   1.386   3.683   4.980
 2165TIP3    H1 6501   1.326   3.633   4.925
 2165TIP3    H2 6502   1.430   3.618   5.034
 2166TIP3   OH2 6503   0.725   5.371   4.205
 2166TIP3    H1 6504   0.754   5.439   4.265
 2166TIP3    H2 6505   0.769   5.292   4.235
 2167TIP3   OH2 6506   4.748   4.000   2.739
 2167TIP3    H1 6507   4.697   3.930   2.778
 2167TIP3    H2 6508   4.770   4.058   2.812
 2168TIP3   OH2 6509   0.111   4.418   4.925
 2168TIP3    H1 6510   0.170   4.485   4.889
 2168TIP3    H2 6511   0.062   4.386   4.849
 2169TIP3   OH2 6512   3.051   2.530   5.113
 2169TIP3    H1 6513   2.975   2.479   5.142
 2169TIP3    H2 6514   3.015   2.612   5.082
 2170TIP3   OH2 6515   3.614   3.702   0.705
 2170TIP3    H1 6516   3.688   3.726   0.649
 2170TIP3    H2 6517   3.653   3.650   0.775
 2171TIP3   OH2 6518   2.083   0.102   2.129
 2171TIP3    H1 6519   2.127   0.111   2.213
 2171TIP3    H2 6520   2.049   0.013   2.129
 2172TIP3   OH2 6521   0.339   3.363   4.746
 2172TIP3    H1 6522   0.321   3.269   4.749
 2172TIP3    H2 6523   0.271   3.398   4.689
 2173TIP3   OH2 6524   4.123   6.000   1.110
 2173TIP3    H1 6525   4.147   5.963   1.025
 2173TIP3    H2 6526   4.124   5.926   1.170
 2174TIP3   OH2 6527   1.612   2.859   2.506
 2174TIP3    H1 6528   1.554   2.888   2.435
 2174TIP3    H2 6529   1.599   2.764   2.510
 2175TIP3   OH2 6530   4.497   5.707   0.154
 2175TIP3    H1 6531   4.444   5.758   0.214
 2175TIP3    H2 6532   4.484   5.748   0.068
 2176TIP3   OH2 6533   1.933   2.993   1.154
 2176TIP3    H1 6534   1.856   2.973   1.208
 2176TIP3    H2 6535   1.945   2.915   1.100
 2177TIP3   OH2 6536   0.515   3.482   3.966
 2177TIP3    H1 6537   0.603   3.449   3.981
 2177TIP3    H2 6538   0.527   3.560   3.912
 2178TIP3   OH2 6539   4.236   0.825   0.382
 2178TIP3    H1 6540   4.277   0.896   0.431
 2178TIP3    H2 6541   4.155   0.864   0.348
 2179TIP3   OH2 6542   6.177   3.457   4.648
 2179TIP3    H1 6543   6.170   3.451   4.553
 2179TIP3    H2 6544   6.207   3.370   4.675
 2180TIP3   OH2 6545   0.271   1.916   0.906
 2180TIP3    H1 6546   0.272   1.844   0.969
 2180TIP3    H2 6547   0.242   1.992   0.956
 2181TIP3   OH2 6548   1.039   0.381   4.364
 2181TIP3    H1 6549   1.125   0.356   4.398
 2181TIP3    H2 6550   1.029   0.328   4.285
 2182TIP3   OH2 6551   5.459   1.572   1.381
 2182TIP3    H1 6552   5.407   1.639   1.337
 2182TIP3    H2 6553   5.404   1.494   1.379
 2183TIP3   OH2 6554   5.392   1.312   1.861
 2183TIP3    H1 6555   5.463   1.376   1.867
 2183TIP3    H2 6556   5.338   1.328   1.938
 2184TIP3   OH2 6557   1.727   1.155   3.646
 2184TIP3    H1 6558   1.822   1.167   3.642
 2184TIP3    H2 6559   1.712   1.071   3.604
 2185TIP3   OH2 6560   2.696   0.065   0.312
 2185TIP3    H1 6561   2.647  -0.005   0.269
 2185TIP3    H2 6562   2.732   0.116   0.239
 2186TIP3   OH2 6563   5.288   3.567   0.703
 2186TIP3    H1 6564   5.212   3.582   0.760
 2186TIP3    H2 6565   5.321   3.655   0.684
 2187TIP3   OH2 6566   0.379   2.034   0.063
 2187TIP3    H1 6567   0.364   1.940   0.069
 2187TIP3    H2 6568   0.454   2.050   0.121
 2188TIP3   OH2 6569   1.913   3.236   0.096
 2188TIP3    H1 6570   1.934   3.173   0.164
 2188TIP3    H2 6571   1.936   3.321   0.133
 2189TIP3   OH2 6572   2.484   3.628   4.510
 2189TIP3    H1 6573   2.572   3.657   4.533
 2189TIP3    H2 6574   2.495   3.580   4.428
 2190TIP3   OH2 6575   4.356   1.157   3.257
 2190TIP3    H1 6576   4.428   1.128   3.201
 2190TIP3    H2 6577   4.290   1.190   3.196
 2191TIP3   OH2 6578   6.293   3.210   4.691
 2191TIP3    H1 6579   6.302   3.184   4.600
 2191TIP3    H2 6580   6.371   3.174   4.734
 2192TIP3   OH2 6581   2.583   5.400   4.415
 2192TIP3    H1 6582   2.630   5.484   4.409
 2192TIP3    H2 6583   2.617   5.359   4.494
 2193TIP3   OH2 6584   0.962   5.127   3.016
 2193TIP3    H1 6585   0.881   5.122   3.067
 2193TIP3    H2 6586   0.940   5.084   2.933
 2194TIP3   OH2 6587   5.218   0.816   3.481
 2194TIP3    H1 6588   5.230   0.748   3.414
 2194TIP3    H2 6589   5.269   0.890   3.449
 2195TIP3   OH2 6590   0.637   2.469   3.493
 2195TIP3    H1 6591   0.716   2.492   3.445
 2195TIP3    H2 6592   0.614   2.382   3.462
 2196TIP3   OH2 6593   1.331   1.378   1.283
 2196TIP3    H1 6594   1.302   1.300   1.331
 2196TIP3    H2 6595   1.345   1.444   1.350
 2197TIP3   OH2 6596   3.596   0.509   4.852
 2197TIP3    H1 6597   3.652   0.583   4.828
 2197TIP3    H2 6598   3.650   0.432   4.837
 2198TIP3   OH2 6599   5.119   2.874   2.130
 2198TIP3    H1 6600   5.187   2.878   2.198
 2198TIP3    H2 6601   5.132   2.954   2.079
 2199TIP3   OH2 6602   5.117   2.410   5.017
 2199TIP3    H1 6603   5.162   2.354   4.954
 2199TIP3    H2 6604   5.087   2.350   5.085
 2200TIP3   OH2 6605   5.202   5.853   0.828
 2200TIP3    H1 6606   5.256   5.870   0.751
 2200TIP3    H2 6607   5.136   5.791   0.797
 2201TIP3   OH2 6608   0.933   3.968   0.116
 2201TIP3    H1 6609   0.980   3.955   0.198
 2201TIP3    H2 6610   0.970   4.049   0.080
 2202TIP3   OH2 6611   3.700   4.117   4.816
 2202TIP3    H1 6612   3.731   4.103   4.726
 2202TIP3    H2 6613   3.779   4.142   4.864
 2203TIP3   OH2 6614   1.164   5.060   4.083
 2203TIP3    H1 6615   1.197   5.114   4.010
 2203TIP3    H2 6616   1.225   4.987   4.088
 2204TIP3   OH2 6617   3.892   4.297   3.348
 2204TIP3    H1 6618   3.971   4.316   3.398
 2204TIP3    H2 6619   3.922   4.292   3.257
 2205TIP3   OH2 6620   5.113  -0.011   1.618
 2205TIP3    H1 6621   5.180   0.040   1.663
 2205TIP3    H2 6622   5.163  -0.070   1.561
 2206TIP3   OH2 6623   4.311   2.116   0.530
 2206TIP3    H1 6624   4.332   2.064   0.452
 2206TIP3    H2 6625   4.276   2.052   0.592
 2207TIP3   OH2 6626   5.323   1.319   0.321
 2207TIP3    H1 6627   5.245   1.326   0.376
 2207TIP3    H2 6628   5.396   1.338   0.381
 2208TIP3   OH2 6629   4.037   0.925   0.624
 2208TIP3    H1 6630   4.016   0.835   0.600
 2208TIP3    H2 6631   4.128   0.922   0.652
 2209TIP3   OH2 6632   4.074   0.349   3.015
 2209TIP3    H1 6633   4.124   0.303   3.083
 2209TIP3    H2 6634   4.059   0.436   3.052
 2210TIP3   OH2 6635   6.334   4.558   2.806
 2210TIP3    H1 6636   6.325   4.503   2.728
 2210TIP3    H2 6637   6.263   4.529   2.864
 2211TIP3   OH2 6638   0.727   0.468   0.972
 2211TIP3    H1 6639   0.686   0.547   0.937
 2211TIP3    H2 6640   0.724   0.480   1.067
 2212TIP3   OH2 6641   5.014   4.318   0.496
 2212TIP3    H1 6642   5.039   4.234   0.532
 2212TIP3    H2 6643   4.952   4.355   0.560
 2213TIP3   OH2 6644   0.789   3.338   3.038
 2213TIP3    H1 6645   0.818   3.410   2.981
 2213TIP3    H2 6646   0.734   3.381   3.104
 2214TIP3   OH2 6647   1.290   3.159   2.546
 2214TIP3    H1 6648   1.306   3.086   2.606
 2214TIP3    H2 6649   1.363   3.156   2.485
 2215TIP3   OH2 6650   3.727   0.196   0.460
 2215TIP3    H1 6651   3.717   0.134   0.387
 2215TIP3    H2 6652   3.684   0.153   0.534
 2216TIP3   OH2 6653   2.109   1.491   1.832
 2216TIP3    H1 6654   2.186   1.462   1.881
 2216TIP3    H2 6655   2.047   1.418   1.838
 2217TIP3   OH2 6656   0.898   0.628   3.500
 2217TIP3    H1 6657   0.840   0.553   3.512
 2217TIP3    H2 6658   0.944   0.610   3.417
 2218TIP3   OH2 6659   5.434   5.835   4.086
 2218TIP3    H1 6660   5.506   5.894   4.066
 2218TIP3    H2 6661   5.356   5.882   4.060
 2219TIP3   OH2 6662   0.280   3.683   1.199
 2219TIP3    H1 6663   0.256   3.594   1.172
 2219TIP3    H2 6664   0.364   3.700   1.156
 2220TIP3   OH2 6665   4.361   5.502   0.246
 2220TIP3    H1 6666   4.415   5.575   0.216
 2220TIP3    H2 6667   4.280   5.543   0.277
 2221TIP3   OH2 6668   1.512   5.535   2.740
 2221TIP3    H1 6669   1.553   5.598   2.680
 2221TIP3    H2 6670   1.419   5.540   2.719
 2222TIP3   OH2 6671   5.963   2.312   1.242
 2222TIP3    H1 6672   5.867   2.307   1.234
 2222TIP3    H2 6673   5.995   2.270   1.163
 2223TIP3   OH2 6674   3.092   3.648   1.866
 2223TIP3    H1 6675   3.134   3.562   1.861
 2223TIP3    H2 6676   3.125   3.686   1.948
 2224TIP3   OH2 6677   4.871   3.242   3.134
 2224TIP3    H1 6678   4.779   3.231   3.111
 2224TIP3    H2 6679   4.870   3.305   3.206
 2225TIP3   OH2 6680   3.680   5.923   1.188
 2225TIP3    H1 6681   3.737   5.997   1.166
 2225TIP3    H2 6682   3.738   5.863   1.236
 2226TIP3   OH2 6683   0.712   1.584   2.740
 2226TIP3    H1 6684   0.650   1.512   2.732
 2226TIP3    H2 6685   0.752   1.572   2.826
 2227TIP3   OH2 6686   2.665   3.043   0.266
 2227TIP3    H1 6687   2.702   2.959   0.241
 2227TIP3    H2 6688   2.620   3.026   0.349
 2228TIP3   OH2 6689   4.025   0.509   0.822
 2228TIP3    H1 6690   4.032   0.547   0.910
 2228TIP3    H2 6691   4.095   0.551   0.772
 2229TIP3   OH2 6692   2.220   4.503   1.189
 2229TIP3    H1 6693   2.224   4.549   1.106
 2229TIP3    H2 6694   2.174   4.562   1.248
 2230TIP3   OH2 6695   3.019   3.786   0.431
 2230TIP3    H1 6696   2.992   3.715   0.489
 2230TIP3    H2 6697   3.003   3.752   0.343
 2231TIP3   OH2 6698   2.334   3.094   0.783
 2231TIP3    H1 6699   2.239   3.095   0.771
 2231TIP3    H2 6700   2.363   3.178   0.750
 2232TIP3   OH2 6701   1.642   1.355   2.185
 2232TIP3    H1 6702   1.578   1.332   2.252
 2232TIP3    H2 6703   1.679   1.438   2.215
 2233TIP3   OH2 6704   0.414   4.498   3.770
 2233TIP3    H1 6705   0.341   4.527   3.824
 2233TIP3    H2 6706   0.411   4.555   3.693
 2234TIP3   OH2 6707   0.231   0.847   1.770
 2234TIP3    H1 6708   0.228   0.784   1.697
 2234TIP3    H2 6709   0.151   0.899   1.759
 2235TIP3   OH2 6710   1.642   5.006   2.795
 2235TIP3    H1 6711   1.642   5.038   2.885
 2235TIP3    H2 6712   1.673   4.915   2.802
 2236TIP3   OH2 6713   3.989   1.937   1.177
 2236TIP3    H1 6714   4.027   1.867   1.124
 2236TIP3    H2 6715   3.916   1.895   1.222
 2237TIP3   OH2 6716   4.244   4.770   4.362
 2237TIP3    H1 6717   4.159   4.767   4.318
 2237TIP3    H2 6718   4.265   4.863   4.367
 2238TIP3   OH2 6719   5.096   0.863   0.935
 2238TIP3    H1 6720   5.166   0.927   0.951
 2238TIP3    H2 6721   5.020   0.917   0.916
 2239TIP3   OH2 6722   0.129   1.294   0.901
 2239TIP3    H1 6723   0.189   1.368   0.907
 2239TIP3    H2 6724   0.085   1.305   0.817
 2240TIP3   OH2 6725   3.438   1.862   2.537
 2240TIP3    H1 6726   3.450   1.952   2.507
 2240TIP3    H2 6727   3.371   1.826   2.479
 2241TIP3   OH2 6728   3.550   3.257   0.208
 2241TIP3    H1 6729   3.624   3.210   0.248
 2241TIP3    H2 6730   3.579   3.348   0.205
 2242TIP3   OH2 6731   5.541   2.055   0.217
 2242TIP3    H1 6732   5.618   2.045   0.161
 2242TIP3    H2 6733   5.561   2.002   0.295
 2243TIP3   OH2 6734   6.116   1.757   3.407
 2243TIP3    H1 6735   6.074   1.712   3.334
 2243TIP3    H2 6736   6.047   1.813   3.443
 2244TIP3   OH2 6737   2.379   0.181   2.018
 2244TIP3    H1 6738   2.348   0.090   2.021
 2244TIP3    H2 6739   2.342   0.216   1.937
 2245TIP3   OH2 6740   3.589   1.605   0.106
 2245TIP3    H1 6741   3.660   1.628   0.047
 2245TIP3    H2 6742   3.575   1.511   0.093
 2246TIP3   OH2 6743   1.443   1.066   1.375
 2246TIP3    H1 6744   1.432   1.052   1.469
 2246TIP3    H2 6745   1.354   1.076   1.342
 2247TIP3   OH2 6746   1.836   0.272   2.441
 2247TIP3    H1 6747   1.876   0.359   2.446
 2247TIP3    H2 6748   1.898   0.216   2.488
 2248TIP3   OH2 6749   1.942   1.455   4.993
 2248TIP3    H1 6750   1.913   1.528   5.047
 2248TIP3    H2 6751   1.863   1.404   4.977
 2249TIP3   OH2 6752   1.121   4.196   1.705
 2249TIP3    H1 6753   1.034   4.185   1.667
 2249TIP3    H2 6754   1.150   4.107   1.725
 2250TIP3   OH2 6755   1.725   5.239   4.011
 2250TIP3    H1 6756   1.784   5.170   4.043
 2250TIP3    H2 6757   1.783   5.313   3.993
 2251TIP3   OH2 6758   4.781   4.077   4.778
 2251TIP3    H1 6759   4.752   4.077   4.687
 2251TIP3    H2 6760   4.839   4.153   4.785
 2252TIP3   OH2 6761   2.577   1.926   2.696
 2252TIP3    H1 6762   2.668   1.904   2.676
 2252TIP3    H2 6763   2.555   1.873   2.773
 2253TIP3   OH2 6764   4.830   5.131   0.142
 2253TIP3    H1 6765   4.828   5.083   0.225
 2253TIP3    H2 6766   4.829   5.062   0.075
 2254TIP3   OH2 6767   5.609   2.101   4.284
 2254TIP3    H1 6768   5.678   2.039   4.260
 2254TIP3    H2 6769   5.536   2.081   4.226
 2255TIP3   OH2 6770   3.078   0.934   2.049
 2255TIP3    H1 6771   3.085   0.979   2.133
 2255TIP3    H2 6772   3.155   0.962   2.000
 2256TIP3   OH2 6773   6.090   1.426   4.672
 2256TIP3    H1 6774   6.090   1.517   4.704
 2256TIP3    H2 6775   6.154   1.381   4.727
 2257TIP3   OH2 6776   5.591   1.411   2.552
 2257TIP3    H1 6777   5.510   1.363   2.571
 2257TIP3    H2 6778   5.641   1.407   2.634
 2258TIP3   OH2 6779   2.593   4.244   3.522
 2258TIP3    H1 6780   2.567   4.265   3.612
 2258TIP3    H2 6781   2.623   4.327   3.486
 2259TIP3   OH2 6782   4.804   0.745   0.609
 2259TIP3    H1 6783   4.845   0.659   0.607
 2259TIP3    H2 6784   4.717   0.731   0.572
 2260TIP3   OH2 6785   0.683   3.466   2.256
 2260TIP3    H1 6786   0.640   3.434   2.176
 2260TIP3    H2 6787   0.707   3.386   2.304
 2261TIP3   OH2 6788   3.272   1.734   2.744
 2261TIP3    H1 6789   3.365   1.756   2.740
 2261TIP3    H2 6790   3.247   1.719   2.653
 2262TIP3   OH2 6791   3.366   3.673   2.843
 2262TIP3    H1 6792   3.283   3.694   2.885
 2262TIP3    H2 6793   3.393   3.755   2.800
 2263TIP3   OH2 6794   0.128   0.232   5.161
 2263TIP3    H1 6795   0.200   0.171   5.179
 2263TIP3    H2 6796   0.069   0.223   5.236
 2264TIP3   OH2 6797   3.654   4.209   2.133
 2264TIP3    H1 6798   3.635   4.155   2.056
 2264TIP3    H2 6799   3.697   4.150   2.194
 2265TIP3   OH2 6800   3.154   1.879   2.209
 2265TIP3    H1 6801   3.231   1.842   2.165
 2265TIP3    H2 6802   3.080   1.839   2.163
 2266TIP3   OH2 6803   4.163   0.769   2.314
 2266TIP3    H1 6804   4.220   0.781   2.389
 2266TIP3    H2 6805   4.097   0.838   2.323
 2267TIP3   OH2 6806   5.334   1.912   1.570
 2267TIP3    H1 6807   5.289   1.996   1.563
 2267TIP3    H2 6808   5.318   1.869   1.486
 2268TIP3   OH2 6809   3.825   1.827   2.802
 2268TIP3    H1 6810   3.886   1.901   2.801
 2268TIP3    H2 6811   3.868   1.762   2.858
 2269TIP3   OH2 6812   5.713   1.201   0.864
 2269TIP3    H1 6813   5.773   1.166   0.797
 2269TIP3    H2 6814   5.625   1.183   0.829
 2270TIP3   OH2 6815   0.756   0.800   3.307
 2270TIP3    H1 6816   0.841   0.843   3.309
 2270TIP3    H2 6817   0.735   0.785   3.399
 2271TIP3   OH2 6818   5.530   0.419   2.855
 2271TIP3    H1 6819   5.589   0.423   2.931
 2271TIP3    H2 6820   5.587   0.408   2.780
 2272TIP3   OH2 6821   0.699   5.147   5.159
 2272TIP3    H1 6822   0.609   5.113   5.160
 2272TIP3    H2 6823   0.753   5.070   5.173
 2273TIP3   OH2 6824   2.640   0.410   5.155
 2273TIP3    H1 6825   2.597   0.328   5.130
 2273TIP3    H2 6826   2.711   0.384   5.213
 2274TIP3   OH2 6827   3.139   4.343   3.635
 2274TIP3    H1 6828   3.235   4.349   3.632
 2274TIP3    H2 6829   3.114   4.309   3.549
 2275TIP3   OH2 6830   5.960   3.580   1.567
 2275TIP3    H1 6831   5.966   3.549   1.476
 2275TIP3    H2 6832   6.026   3.528   1.613
 2276TIP3   OH2 6833   2.938   0.884   1.805
 2276TIP3    H1 6834   2.938   0.878   1.901
 2276TIP3    H2 6835   2.867   0.826   1.778
 2277TIP3   OH2 6836   4.765   1.007   2.485
 2277TIP3    H1 6837   4.773   0.926   2.536
 2277TIP3    H2 6838   4.689   0.992   2.429
 2278TIP3   OH2 6839   1.477   4.915   3.057
 2278TIP3    H1 6840   1.410   4.851   3.033
 2278TIP3    H2 6841   1.543   4.865   3.104
 2279TIP3   OH2 6842   5.431   1.974   2.338
 2279TIP3    H1 6843   5.469   1.886   2.331
 2279TIP3    H2 6844   5.436   1.995   2.431
 2280TIP3   OH2 6845   1.417   3.699   1.598
 2280TIP3    H1 6846   1.385   3.668   1.514
 2280TIP3    H2 6847   1.345   3.683   1.659
 2281TIP3   OH2 6848   3.695   0.394   0.711
 2281TIP3    H1 6849   3.669   0.389   0.620
 2281TIP3    H2 6850   3.671   0.309   0.748
 2282TIP3   OH2 6851   1.852   1.704   1.028
 2282TIP3    H1 6852   1.823   1.677   1.115
 2282TIP3    H2 6853   1.867   1.622   0.982
 2283TIP3   OH2 6854   1.255   1.597   3.510
 2283TIP3    H1 6855   1.315   1.546   3.454
 2283TIP3    H2 6856   1.285   1.579   3.599
 2284TIP3   OH2 6857   0.612   2.234   3.093
 2284TIP3    H1 6858   0.559   2.224   3.172
 2284TIP3    H2 6859   0.549   2.254   3.024
 2285TIP3   OH2 6860   3.058   0.889   4.671
 2285TIP3    H1 6861   2.978   0.839   4.656
 2285TIP3    H2 6862   3.088   0.914   4.583
 2286TIP3   OH2 6863   1.347   5.518   4.922
 2286TIP3    H1 6864   1.412   5.582   4.893
 2286TIP3    H2 6865   1.317   5.550   5.007
 2287TIP3   OH2 6866   1.587   3.725   0.943
 2287TIP3    H1 6867   1.569   3.631   0.938
 2287TIP3    H2 6868   1.556   3.760   0.860
 2288TIP3   OH2 6869   1.807   2.863   0.084
 2288TIP3    H1 6870   1.747   2.806   0.132
 2288TIP3    H2 6871   1.750   2.923   0.036
 2289TIP3   OH2 6872   2.282   2.767   3.180
 2289TIP3    H1 6873   2.356   2.732   3.231
 2289TIP3    H2 6874   2.287   2.862   3.193
 2290TIP3   OH2 6875   3.582   1.815   0.817
 2290TIP3    H1 6876   3.599   1.779   0.904
 2290TIP3    H2 6877   3.489   1.838   0.818
 2291TIP3   OH2 6878   1.150   3.973   4.113
 2291TIP3    H1 6879   1.199   4.054   4.101
 2291TIP3    H2 6880   1.065   4.002   4.147
 2292TIP3   OH2 6881   2.494   2.681   1.426
 2292TIP3    H1 6882   2.586   2.704   1.414
 2292TIP3    H2 6883   2.461   2.666   1.338
 2293TIP3   OH2 6884   6.072   3.564   4.962
 2293TIP3    H1 6885   6.136   3.612   4.910
 2293TIP3    H2 6886   6.016   3.632   5.001
 2294TIP3   OH2 6887   0.194   2.011   1.716
 2294TIP3    H1 6888   0.152   2.057   1.789
 2294TIP3    H2 6889   0.271   2.064   1.696
 2295TIP3   OH2 6890   0.170   3.403   0.327
 2295TIP3    H1 6891   0.174   3.404   0.422
 2295TIP3    H2 6892   0.244   3.457   0.299
 2296TIP3   OH2 6893   3.280   0.532   5.214
 2296TIP3    H1 6894   3.191   0.529   5.250
 2296TIP3    H2 6895   3.275   0.479   5.135
 2297TIP3   OH2 6896   4.801   5.345   2.091
 2297TIP3    H1 6897   4.846   5.428   2.077
 2297TIP3    H2 6898   4.709   5.365   2.072
 2298TIP3   OH2 6899   1.458   4.315   2.858
 2298TIP3    H1 6900   1.420   4.260   2.790
 2298TIP3    H2 6901   1.445   4.404   2.827
 2299TIP3   OH2 6902   2.398   5.262   2.199
 2299TIP3    H1 6903   2.473   5.262   2.140
 2299TIP3    H2 6904   2.373   5.170   2.206
 2300TIP3   OH2 6905   1.304   4.165   0.102
 2300TIP3    H1 6906   1.239   4.234   0.107
 2300TIP3    H2 6907   1.292   4.113   0.181
 2301TIP3   OH2 6908   1.931   1.345   3.046
 2301TIP3    H1 6909   1.915   1.439   3.032
 2301TIP3    H2 6910   2.016   1.341   3.088
 2302TIP3   OH2 6911   4.942   2.505   3.769
 2302TIP3    H1 6912   4.956   2.419   3.731
 2302TIP3    H2 6913   4.847   2.516   3.768
 2303TIP3   OH2 6914   1.404   2.586   2.793
 2303TIP3    H1 6915   1.366   2.557   2.876
 2303TIP3    H2 6916   1.496   2.562   2.800
 2304TIP3   OH2 6917   2.927   0.801   3.105
 2304TIP3    H1 6918   2.992   0.766   3.044
 2304TIP3    H2 6919   2.948   0.757   3.188
 2305TIP3   OH2 6920   5.513   5.307   4.822
 2305TIP3    H1 6921   5.450   5.354   4.877
 2305TIP3    H2 6922   5.558   5.375   4.774
 2306TIP3   OH2 6923   3.450   4.714   4.992
 2306TIP3    H1 6924   3.430   4.733   4.900
 2306TIP3    H2 6925   3.514   4.644   4.990
 2307TIP3   OH2 6926   2.408   3.019   1.874
 2307TIP3    H1 6927   2.485   3.062   1.836
 2307TIP3    H2 6928   2.439   2.986   1.958
 2308TIP3   OH2 6929   5.158   5.489   2.647
 2308TIP3    H1 6930   5.160   5.427   2.719
 2308TIP3    H2 6931   5.074   5.473   2.604
 2309TIP3   OH2 6932   3.449   3.718   0.391
 2309TIP3    H1 6933   3.473   3.808   0.413
 2309TIP3    H2 6934   3.363   3.725   0.349
 2310TIP3   OH2 6935   5.018   2.231   5.192
 2310TIP3    H1 6936   4.925   2.208   5.200
 2310TIP3    H2 6937   5.063   2.160   5.238
 2311TIP3   OH2 6938   6.293   0.415   1.570
 2311TIP3    H1 6939   6.243   0.496   1.577
 2311TIP3    H2 6940   6.304   0.387   1.661
 2312TIP3   OH2 6941   6.149   2.952   4.880
 2312TIP3    H1 6942   6.244   2.963   4.892
 2312TIP3    H2 6943   6.117   3.039   4.858
 2313TIP3   OH2 6944   5.768   1.650   1.872
 2313TIP3    H1 6945   5.779   1.690   1.958
 2313TIP3    H2 6946   5.701   1.703   1.829
 2314TIP3   OH2 6947   0.179   3.388   0.018
 2314TIP3    H1 6948   0.209   3.465  -0.030
 2314TIP3    H2 6949   0.247   3.322   0.004
 2315TIP3   OH2 6950   6.046   3.449   4.381
 2315TIP3    H1 6951   6.002   3.506   4.317
 2315TIP3    H2 6952   6.077   3.375   4.329
 2316TIP3   OH2 6953   3.107   4.546   4.696
 2316TIP3    H1 6954   3.148   4.465   4.728
 2316TIP3    H2 6955   3.181   4.603   4.676
 2317TIP3   OH2 6956   0.840   0.240   4.885
 2317TIP3    H1 6957   0.879   0.264   4.801
 2317TIP3    H2 6958   0.863   0.313   4.943
 2318TIP3   OH2 6959   0.182   1.154   1.505
 2318TIP3    H1 6960   0.255   1.210   1.478
 2318TIP3    H2 6961   0.175   1.167   1.599
 2319TIP3   OH2 6962   2.969   5.396   3.238
 2319TIP3    H1 6963   3.001   5.342   3.165
 2319TIP3    H2 6964   2.920   5.335   3.293
 2320TIP3   OH2 6965   4.225   2.990   1.874
 2320TIP3    H1 6966   4.269   3.030   1.799
 2320TIP3    H2 6967   4.266   2.904   1.883
 2321TIP3   OH2 6968   3.492   5.619   2.270
 2321TIP3    H1 6969   3.546   5.674   2.214
 2321TIP3    H2 6970   3.408   5.665   2.276
 2322TIP3   OH2 6971   5.465   3.347   0.357
 2322TIP3    H1 6972   5.504   3.421   0.404
 2322TIP3    H2 6973   5.452   3.380   0.268
 2323TIP3   OH2 6974   4.206   1.339   1.287
 2323TIP3    H1 6975   4.190   1.299   1.202
 2323TIP3    H2 6976   4.286   1.298   1.319
 2324TIP3   OH2 6977   5.706   5.434   0.293
 2324TIP3    H1 6978   5.786   5.383   0.287
 2324TIP3    H2 6979   5.701   5.481   0.209
 2325TIP3   OH2 6980   4.483   2.301   1.833
 2325TIP3    H1 6981   4.493   2.363   1.905
 2325TIP3    H2 6982   4.474   2.216   1.875
 2326TIP3   OH2 6983   4.747   3.360   2.824
 2326TIP3    H1 6984   4.693   3.439   2.832
 2326TIP3    H2 6985   4.836   3.393   2.811
 2327TIP3   OH2 6986   5.912   1.912   4.476
 2327TIP3    H1 6987   5.874   1.827   4.455
 2327TIP3    H2 6988   5.871   1.936   4.559
 2328TIP3   OH2 6989   3.903   1.927   0.090
 2328TIP3    H1 6990   3.921   2.014   0.054
 2328TIP3    H2 6991   3.983   1.903   0.135
 2329TIP3   OH2 6992   1.864   5.015   4.116
 2329TIP3    H1 6993   1.849   4.929   4.154
 2329TIP3    H2 6994   1.938   5.051   4.166
 2330TIP3   OH2 6995   5.589   0.873   4.010
 2330TIP3    H1 6996   5.660   0.810   3.999
 2330TIP3    H2 6997   5.619   0.952   3.965
 2331TIP3   OH2 6998   2.290   1.242   1.535
 2331TIP3    H1 6999   2.290   1.163   1.588
 2331TIP3    H2 7000   2.321   1.214   1.449
 2332TIP3   OH2 7001   5.686   3.299   1.267
 2332TIP3    H1 7002   5.691   3.346   1.184
 2332TIP3    H2 7003   5.633   3.356   1.323
 2333TIP3   OH2 7004   5.949   1.767   3.705
 2333TIP3    H1 7005   5.935   1.675   3.684
 2333TIP3    H2 7006   6.011   1.765   3.779
 2334TIP3   OH2 7007   0.944   0.039   0.261
 2334TIP3    H1 7008   0.924   0.037   0.168
 2334TIP3    H2 7009   0.861   0.061   0.303
 2335TIP3   OH2 7010   0.789   0.190   4.337
 2335TIP3    H1 7011   0.872   0.187   4.385
 2335TIP3    H2 7012   0.733   0.125   4.380
 2336TIP3   OH2 7013   3.026   3.841   1.689
 2336TIP3    H1 7014   3.047   3.763   1.740
 2336TIP3    H2 7015   3.093   3.904   1.713
 2337TIP3   OH2 7016   5.617   5.911   1.145
 2337TIP3    H1 7017   5.560   5.869   1.080
 2337TIP3    H2 7018   5.706   5.892   1.115
 2338TIP3   OH2 7019   3.404   5.926   3.565
 2338TIP3    H1 7020   3.494   5.951   3.543
 2338TIP3    H2 7021   3.352   6.004   3.548
 2339TIP3   OH2 7022   0.013   0.612   4.432
 2339TIP3    H1 7023  -0.014   0.532   4.477
 2339TIP3    H2 7024   0.089   0.642   4.482
 2340TIP3   OH2 7025   0.123   5.954   4.050
 2340TIP3    H1 7026   0.082   5.912   3.974
 2340TIP3    H2 7027   0.063   6.023   4.074
 2341TIP3   OH2 7028   5.644   2.748   0.049
 2341TIP3    H1 7029   5.700   2.709   0.115
 2341TIP3    H2 7030   5.565   2.694   0.049
 2342TIP3   OH2 7031   0.702   0.087   4.085
 2342TIP3    H1 7032   0.777   0.049   4.040
 2342TIP3    H2 7033   0.739   0.127   4.164
 2343TIP3   OH2 7034   4.558   3.670   3.667
 2343TIP3    H1 7035   4.601   3.700   3.747
 2343TIP3    H2 7036   4.586   3.579   3.658
 2344TIP3   OH2 7037   2.767   4.357   0.910
 2344TIP3    H1 7038   2.766   4.424   0.842
 2344TIP3    H2 7039   2.684   4.369   0.956
 2345TIP3   OH2 7040   1.998   3.396   2.889
 2345TIP3    H1 7041   2.024   3.467   2.949
 2345TIP3    H2 7042   1.932   3.435   2.833
 2346TIP3   OH2 7043   3.120   1.141   4.513
 2346TIP3    H1 7044   3.111   1.228   4.475
 2346TIP3    H2 7045   3.038   1.127   4.560
 2347TIP3   OH2 7046   5.058   1.768   3.461
 2347TIP3    H1 7047   5.066   1.798   3.371
 2347TIP3    H2 7048   5.048   1.673   3.455
 2348TIP3   OH2 7049   3.401   0.623   3.209
 2348TIP3    H1 7050   3.422   0.607   3.301
 2348TIP3    H2 7051   3.443   0.551   3.162
 2349TIP3   OH2 7052   4.031   1.357   2.868
 2349TIP3    H1 7053   4.094   1.429   2.862
 2349TIP3    H2 7054   4.084   1.278   2.856
 2350TIP3   OH2 7055   1.755   1.590   0.475
 2350TIP3    H1 7056   1.748   1.685   0.476
 2350TIP3    H2 7057   1.699   1.562   0.402
 2351TIP3   OH2 7058   1.370   0.222   2.219
 2351TIP3    H1 7059   1.407   0.279   2.286
 2351TIP3    H2 7060   1.439   0.212   2.154
 2352TIP3   OH2 7061   6.090   1.057   3.322
 2352TIP3    H1 7062   6.113   0.990   3.386
 2352TIP3    H2 7063   6.157   1.049   3.254
 2353TIP3   OH2 7064   1.995   4.239   0.953
 2353TIP3    H1 7065   2.020   4.321   0.910
 2353TIP3    H2 7066   1.918   4.209   0.906
 2354TIP3   OH2 7067   1.000   0.696   3.990
 2354TIP3    H1 7068   1.094   0.711   4.000
 2354TIP3    H2 7069   0.985   0.698   3.896
 2355TIP3   OH2 7070   1.189   0.980   0.418
 2355TIP3    H1 7071   1.119   0.981   0.353
 2355TIP3    H2 7072   1.268   0.959   0.369
 2356TIP3   OH2 7073   0.801   1.479   4.934
 2356TIP3    H1 7074   0.800   1.394   4.892
 2356TIP3    H2 7075   0.783   1.542   4.864
 2357TIP3   OH2 7076   5.401   5.553   0.068
 2357TIP3    H1 7077   5.392   5.515   0.156
 2357TIP3    H2 7078   5.317   5.535   0.025
 2358TIP3   OH2 7079   6.085   4.154   4.842
 2358TIP3    H1 7080   6.029   4.090   4.886
 2358TIP3    H2 7081   6.169   4.147   4.887
 2359TIP3   OH2 7082   3.167   2.476   0.817
 2359TIP3    H1 7083   3.143   2.464   0.909
 2359TIP3    H2 7084   3.253   2.519   0.820
 2360TIP3   OH2 7085   3.610   0.328   3.970
 2360TIP3    H1 7086   3.679   0.276   3.928
 2360TIP3    H2 7087   3.549   0.349   3.899
 2361TIP3   OH2 7088   2.105   3.017   0.616
 2361TIP3    H1 7089   2.055   3.024   0.697
 2361TIP3    H2 7090   2.074   2.936   0.575
 2362TIP3   OH2 7091   0.828   4.361   4.890
 2362TIP3    H1 7092   0.897   4.315   4.842
 2362TIP3    H2 7093   0.876   4.416   4.952
 2363TIP3   OH2 7094   0.261   1.206   4.128
 2363TIP3    H1 7095   0.181   1.154   4.126
 2363TIP3    H2 7096   0.320   1.157   4.186
 2364TIP3   OH2 7097   2.793   0.040   1.774
 2364TIP3    H1 7098   2.829   0.086   1.697
 2364TIP3    H2 7099   2.702   0.024   1.752
 2365TIP3   OH2 7100   3.390   2.530   4.642
 2365TIP3    H1 7101   3.450   2.467   4.604
 2365TIP3    H2 7102   3.443   2.580   4.704
 2366TIP3   OH2 7103   3.825   1.767   1.897
 2366TIP3    H1 7104   3.866   1.703   1.840
 2366TIP3    H2 7105   3.896   1.826   1.922
 2367TIP3   OH2 7106   2.730   3.809   3.907
 2367TIP3    H1 7107   2.806   3.850   3.865
 2367TIP3    H2 7108   2.743   3.716   3.894
 2368TIP3   OH2 7109   1.660   3.479   1.508
 2368TIP3    H1 7110   1.676   3.533   1.430
 2368TIP3    H2 7111   1.565   3.480   1.519
 2369TIP3   OH2 7112  -0.009   3.781   2.059
 2369TIP3    H1 7113  -0.080   3.818   2.110
 2369TIP3    H2 7114   0.022   3.706   2.111
 2370TIP3   OH2 7115   5.003   1.354   1.480
 2370TIP3    H1 7116   5.014   1.389   1.568
 2370TIP3    H2 7117   5.051   1.272   1.480
 2371TIP3   OH2 7118   5.312   2.038   2.586
 2371TIP3    H1 7119   5.326   2.132   2.576
 2371TIP3    H2 7120   5.380   2.009   2.647
 2372TIP3   OH2 7121   3.854   3.564   4.270
 2372TIP3    H1 7122   3.893   3.612   4.197
 2372TIP3    H2 7123   3.925   3.510   4.305
 2373TIP3   OH2 7124   1.148   1.221   2.194
 2373TIP3    H1 7125   1.091   1.291   2.162
 2373TIP3    H2 7126   1.161   1.164   2.118
 2374TIP3   OH2 7127   4.897   4.445   1.954
 2374TIP3    H1 7128   4.811   4.405   1.968
 2374TIP3    H2 7129   4.879   4.540   1.952
 2375TIP3   OH2 7130   4.697   0.346   2.107
 2375TIP3    H1 7131   4.752   0.275   2.141
 2375TIP3    H2 7132   4.701   0.413   2.175
 2376TIP3   OH2 7133   2.711   2.554   0.735
 2376TIP3    H1 7134   2.743   2.467   0.715
 2376TIP3    H2 7135   2.774   2.614   0.695
 2377TIP3   OH2 7136   0.949   4.496   2.293
 2377TIP3    H1 7137   1.010   4.426   2.267
 2377TIP3    H2 7138   0.971   4.516   2.383
 2378TIP3   OH2 7139   3.135   1.789   3.270
 2378TIP3    H1 7140   3.204   1.808   3.334
 2378TIP3    H2 7141   3.182   1.756   3.194
 2379TIP3   OH2 7142   3.035   3.517   0.293
 2379TIP3    H1 7143   3.071   3.495   0.379
 2379TIP3    H2 7144   2.988   3.438   0.266
 2380TIP3   OH2 7145   3.057   0.134   2.556
 2380TIP3    H1 7146   3.037   0.056   2.504
 2380TIP3    H2 7147   3.006   0.123   2.636
 2381TIP3   OH2 7148   3.374   5.296   0.981
 2381TIP3    H1 7149   3.284   5.263   0.975
 2381TIP3    H2 7150   3.419   5.235   1.039
 2382TIP3   OH2 7151   5.235   4.033   3.123
 2382TIP3    H1 7152   5.239   4.129   3.118
 2382TIP3    H2 7153   5.296   4.010   3.193
 2383TIP3   OH2 7154   1.537   4.797   1.526
 2383TIP3    H1 7155   1.498   4.749   1.453
 2383TIP3    H2 7156   1.612   4.843   1.488
 2384TIP3   OH2 7157   1.620   5.485   1.622
 2384TIP3    H1 7158   1.660   5.410   1.664
 2384TIP3    H2 7159   1.539   5.501   1.671
 2385TIP3   OH2 7160   4.792   0.657   1.993
 2385TIP3    H1 7161   4.795   0.669   2.088
 2385TIP3    H2 7162   4.721   0.714   1.963
 2386TIP3   OH2 7163   0.577   0.196   1.348
 2386TIP3    H1 7164   0.549   0.243   1.270
 2386TIP3    H2 7165   0.671   0.183   1.336
 2387TIP3   OH2 7166   2.569   3.674   0.588
 2387TIP3    H1 7167   2.480   3.668   0.555
 2387TIP3    H2 7168   2.602   3.757   0.554
 2388TIP3   OH2 7169   2.672   3.764   1.072
 2388TIP3    H1 7170   2.649   3.786   1.162
 2388TIP3    H2 7171   2.743   3.701   1.079
 2389TIP3   OH2 7172   0.366   5.647   0.622
 2389TIP3    H1 7173   0.408   5.730   0.598
 2389TIP3    H2 7174   0.352   5.653   0.716
 2390TIP3   OH2 7175   0.563   5.225   4.029
 2390TIP3    H1 7176   0.621   5.286   4.075
 2390TIP3    H2 7177   0.608   5.206   3.947
 2391TIP3   OH2 7178   0.638   4.174   1.004
 2391TIP3    H1 7179   0.634   4.083   1.034
 2391TIP3    H2 7180   0.717   4.179   0.951
 2392TIP3   OH2 7181   4.267   1.796   2.722
 2392TIP3    H1 7182   4.237   1.832   2.805
 2392TIP3    H2 7183   4.296   1.872   2.672
 2393TIP3   OH2 7184   0.180   4.568   0.646
 2393TIP3    H1 7185   0.252   4.615   0.688
 2393TIP3    H2 7186   0.222   4.507   0.585
 2394TIP3   OH2 7187   4.592   0.118   1.546
 2394TIP3    H1 7188   4.618   0.110   1.454
 2394TIP3    H2 7189   4.663   0.169   1.586
 2395TIP3   OH2 7190   5.241   4.912   4.631
 2395TIP3    H1 7191   5.192   4.900   4.712
 2395TIP3    H2 7192   5.307   4.978   4.653
 2396TIP3   OH2 7193   1.399   2.278   2.726
 2396TIP3    H1 7194   1.463   2.348   2.742
 2396TIP3    H2 7195   1.416   2.215   2.796
 2397TIP3   OH2 7196   4.009   5.612   5.110
 2397TIP3    H1 7197   3.971   5.526   5.122
 2397TIP3    H2 7198   3.946   5.673   5.148
 2398TIP3   OH2 7199   0.363   0.924   4.972
 2398TIP3    H1 7200   0.368   0.884   5.058
 2398TIP3    H2 7201   0.270   0.930   4.953
 2399TIP3   OH2 7202   3.444   2.192   2.072
 2399TIP3    H1 7203   3.443   2.287   2.073
 2399TIP3    H2 7204   3.441   2.168   1.979
 2400TIP3   OH2 7205   3.562   1.037   2.914
 2400TIP3    H1 7206   3.548   1.066   2.824
 2400TIP3    H2 7207   3.500   1.088   2.966
 2401TIP3   OH2 7208   3.372   4.681   2.212
 2401TIP3    H1 7209   3.409   4.624   2.280
 2401TIP3    H2 7210   3.322   4.747   2.261
 2402TIP3   OH2 7211   0.920   4.827   0.422
 2402TIP3    H1 7212   0.904   4.786   0.337
 2402TIP3    H2 7213   1.014   4.845   0.422
 2403TIP3   OH2 7214   5.463   0.995   0.463
 2403TIP3    H1 7215   5.380   0.952   0.443
 2403TIP3    H2 7216   5.498   0.948   0.538
 2404TIP3   OH2 7217   1.748   5.610   4.436
 2404TIP3    H1 7218   1.765   5.686   4.380
 2404TIP3    H2 7219   1.748   5.645   4.525
 2405TIP3   OH2 7220   5.594   1.359   3.661
 2405TIP3    H1 7221   5.503   1.330   3.658
 2405TIP3    H2 7222   5.591   1.447   3.699
 2406TIP3   OH2 7223   2.890   4.318   2.335
 2406TIP3    H1 7224   2.802   4.330   2.300
 2406TIP3    H2 7225   2.877   4.294   2.427
 2407TIP3   OH2 7226   0.877   5.698   2.755
 2407TIP3    H1 7227   0.866   5.624   2.815
 2407TIP3    H2 7228   0.945   5.670   2.694
 2408TIP3   OH2 7229   0.683   4.543   2.630
 2408TIP3    H1 7230   0.632   4.609   2.583
 2408TIP3    H2 7231   0.641   4.537   2.716
 2409TIP3   OH2 7232   5.836   0.200   0.788
 2409TIP3    H1 7233   5.891   0.235   0.718
 2409TIP3    H2 7234   5.874   0.236   0.868
 2410TIP3   OH2 7235   2.687   5.784   0.209
 2410TIP3    H1 7236   2.598   5.781   0.172
 2410TIP3    H2 7237   2.675   5.819   0.297
 2411TIP3   OH2 7238   0.382   1.709   4.172
 2411TIP3    H1 7239   0.459   1.662   4.204
 2411TIP3    H2 7240   0.349   1.655   4.100
 2412TIP3   OH2 7241   5.901   5.842   3.036
 2412TIP3    H1 7242   5.863   5.785   2.969
 2412TIP3    H2 7243   5.912   5.926   2.993
 2413TIP3   OH2 7244   5.219   4.549   4.207
 2413TIP3    H1 7245   5.157   4.477   4.220
 2413TIP3    H2 7246   5.165   4.628   4.205
 2414TIP3   OH2 7247   2.051   3.870   1.313
 2414TIP3    H1 7248   2.137   3.836   1.338
 2414TIP3    H2 7249   2.071   3.934   1.244
 2415TIP3   OH2 7250   1.429   2.850   0.538
 2415TIP3    H1 7251   1.481   2.771   0.524
 2415TIP3    H2 7252   1.446   2.874   0.629
 2416TIP3   OH2 7253   0.004   0.946   2.310
 2416TIP3    H1 7254   0.007   1.002   2.232
 2416TIP3    H2 7255  -0.089   0.929   2.323
 2417TIP3   OH2 7256   0.294   4.637   5.061
 2417TIP3    H1 7257   0.285   4.563   5.122
 2417TIP3    H2 7258   0.315   4.596   4.977
 2418TIP3   OH2 7259   2.899   2.721   0.607
 2418TIP3    H1 7260   2.917   2.807   0.570
 2418TIP3    H2 7261   2.980   2.697   0.652
 2419TIP3   OH2 7262   2.794   2.724   2.223
 2419TIP3    H1 7263   2.797   2.630   2.236
 2419TIP3    H2 7264   2.788   2.761   2.311
 2420TIP3   OH2 7265   4.611   3.420   3.512
 2420TIP3    H1 7266   4.681   3.366   3.548
 2420TIP3    H2 7267   4.539   3.359   3.495
 2421TIP3   OH2 7268   3.187   1.242   3.361
 2421TIP3    H1 7269   3.145   1.321   3.395
 2421TIP3    H2 7270   3.126   1.209   3.296
 2422TIP3   OH2 7271   4.582   1.088   5.112
 2422TIP3    H1 7272   4.530   1.133   5.045
 2422TIP3    H2 7273   4.550   1.124   5.194
 2423TIP3   OH2 7274   6.179   2.012   0.877
 2423TIP3    H1 7275   6.262   2.041   0.915
 2423TIP3    H2 7276   6.112   2.062   0.923
 2424TIP3   OH2 7277   0.826   3.235   2.076
 2424TIP3    H1 7278   0.867   3.296   2.138
 2424TIP3    H2 7279   0.853   3.148   2.106
 2425TIP3   OH2 7280   5.369   2.757   0.879
 2425TIP3    H1 7281   5.421   2.793   0.950
 2425TIP3    H2 7282   5.422   2.772   0.800
 2426TIP3   OH2 7283   2.346   1.344   1.182
 2426TIP3    H1 7284   2.258   1.330   1.216
 2426TIP3    H2 7285   2.333   1.387   1.098
 2427TIP3   OH2 7286   3.335   2.529   4.365
 2427TIP3    H1 7287   3.329   2.563   4.454
 2427TIP3    H2 7288   3.244   2.522   4.336
 2428TIP3   OH2 7289   4.284   3.752   1.029
 2428TIP3    H1 7290   4.284   3.730   1.122
 2428TIP3    H2 7291   4.310   3.844   1.026
 2429TIP3   OH2 7292   1.244   5.435   3.421
 2429TIP3    H1 7293   1.283   5.358   3.380
 2429TIP3    H2 7294   1.290   5.445   3.504
 2430TIP3   OH2 7295   0.302   2.751   4.355
 2430TIP3    H1 7296   0.378   2.694   4.367
 2430TIP3    H2 7297   0.328   2.811   4.285
 2431TIP3   OH2 7298   5.193   0.605   3.927
 2431TIP3    H1 7299   5.157   0.527   3.886
 2431TIP3    H2 7300   5.246   0.646   3.858
 2432TIP3   OH2 7301   0.615   1.030   4.989
 2432TIP3    H1 7302   0.587   1.121   4.983
 2432TIP3    H2 7303   0.534   0.979   4.990
 2433TIP3   OH2 7304   5.933   3.597   2.174
 2433TIP3    H1 7305   5.861   3.534   2.169
 2433TIP3    H2 7306   5.979   3.589   2.091
 2434TIP3   OH2 7307   1.139   3.359   1.946
 2434TIP3    H1 7308   1.136   3.280   2.000
 2434TIP3    H2 7309   1.138   3.431   2.010
 2435TIP3   OH2 7310   1.241   5.690   4.049
 2435TIP3    H1 7311   1.288   5.774   4.049
 2435TIP3    H2 7312   1.188   5.692   4.129
 2436TIP3   OH2 7313   2.917   3.039   4.352
 2436TIP3    H1 7314   2.946   2.949   4.365
 2436TIP3    H2 7315   2.986   3.080   4.300
 2437TIP3   OH2 7316   2.444   4.783   4.919
 2437TIP3    H1 7317   2.456   4.777   5.014
 2437TIP3    H2 7318   2.526   4.749   4.883
 2438TIP3   OH2 7319   5.198   0.742   2.939
 2438TIP3    H1 7320   5.226   0.805   3.006
 2438TIP3    H2 7321   5.215   0.656   2.978
 2439TIP3   OH2 7322   1.090   0.670   1.925
 2439TIP3    H1 7323   1.113   0.582   1.952
 2439TIP3    H2 7324   1.171   0.706   1.889
 2440TIP3   OH2 7325   1.070   4.063   1.096
 2440TIP3    H1 7326   1.008   4.069   1.024
 2440TIP3    H2 7327   1.032   3.998   1.155
 2441TIP3   OH2 7328   1.885   3.209   3.604
 2441TIP3    H1 7329   1.792   3.190   3.608
 2441TIP3    H2 7330   1.913   3.216   3.695
 2442TIP3   OH2 7331   4.757   4.708   5.042
 2442TIP3    H1 7332   4.769   4.796   5.006
 2442TIP3    H2 7333   4.681   4.717   5.100
 2443TIP3   OH2 7334   2.363   4.426   2.337
 2443TIP3    H1 7335   2.382   4.514   2.368
 2443TIP3    H2 7336   2.340   4.437   2.244
 2444TIP3   OH2 7337   5.973   1.145   2.830
 2444TIP3    H1 7338   5.894   1.093   2.842
 2444TIP3    H2 7339   5.978   1.199   2.910
 2445TIP3   OH2 7340   1.293   2.654   2.567
 2445TIP3    H1 7341   1.323   2.611   2.647
 2445TIP3    H2 7342   1.341   2.610   2.497
 2446TIP3   OH2 7343   6.117   0.883   3.880
 2446TIP3    H1 7344   6.199   0.905   3.924
 2446TIP3    H2 7345   6.128   0.915   3.791
 2447TIP3   OH2 7346   2.771   1.764   2.365
 2447TIP3    H1 7347   2.724   1.846   2.380
 2447TIP3    H2 7348   2.813   1.744   2.449
 2448TIP3   OH2 7349   5.900   5.850   1.006
 2448TIP3    H1 7350   5.848   5.843   0.926
 2448TIP3    H2 7351   5.940   5.937   1.000
 2449TIP3   OH2 7352   6.227   5.440   4.487
 2449TIP3    H1 7353   6.221   5.413   4.579
 2449TIP3    H2 7354   6.195   5.365   4.437
 2450TIP3   OH2 7355   2.746   3.906   1.746
 2450TIP3    H1 7356   2.764   3.961   1.823
 2450TIP3    H2 7357   2.833   3.890   1.708
 2451TIP3   OH2 7358   1.019   1.031   4.992
 2451TIP3    H1 7359   1.013   1.034   4.896
 2451TIP3    H2 7360   1.051   1.118   5.016
 2452TIP3   OH2 7361   2.540   4.048   4.288
 2452TIP3    H1 7362   2.588   3.987   4.233
 2452TIP3    H2 7363   2.553   4.133   4.246
 2453TIP3   OH2 7364   6.334   4.270   1.654
 2453TIP3    H1 7365   6.337   4.174   1.663
 2453TIP3    H2 7366   6.289   4.300   1.733
 2454TIP3   OH2 7367   6.367   3.868   4.307
 2454TIP3    H1 7368   6.280   3.902   4.326
 2454TIP3    H2 7369   6.427   3.931   4.348
 2455TIP3   OH2 7370   5.346   5.501   1.371
 2455TIP3    H1 7371   5.296   5.582   1.364
 2455TIP3    H2 7372   5.340   5.462   1.284
 2456TIP3   OH2 7373   5.787   4.792   4.979
 2456TIP3    H1 7374   5.810   4.728   4.911
 2456TIP3    H2 7375   5.814   4.751   5.061
 2457TIP3   OH2 7376   5.289   3.836   0.558
 2457TIP3    H1 7377   5.313   3.912   0.611
 2457TIP3    H2 7378   5.303   3.864   0.468
 2458TIP3   OH2 7379   1.086   4.815   2.311
 2458TIP3    H1 7380   1.036   4.763   2.375
 2458TIP3    H2 7381   1.078   4.905   2.342
 2459TIP3   OH2 7382   5.316   3.350   1.969
 2459TIP3    H1 7383   5.265   3.354   1.889
 2459TIP3    H2 7384   5.263   3.398   2.033
 2460TIP3   OH2 7385   3.645   4.142   0.611
 2460TIP3    H1 7386   3.628   4.236   0.621
 2460TIP3    H2 7387   3.734   4.137   0.576
 2461TIP3   OH2 7388   0.384   2.931   4.160
 2461TIP3    H1 7389   0.404   3.024   4.175
 2461TIP3    H2 7390   0.460   2.896   4.115
 2462TIP3   OH2 7391   0.080   2.933   4.058
 2462TIP3    H1 7392   0.089   2.838   4.071
 2462TIP3    H2 7393   0.129   2.951   3.978
 2463TIP3   OH2 7394   3.852   3.783   0.600
 2463TIP3    H1 7395   3.928   3.724   0.607
 2463TIP3    H2 7396   3.884   3.858   0.550
 2464TIP3   OH2 7397   4.844   4.502   0.953
 2464TIP3    H1 7398   4.775   4.451   0.997
 2464TIP3    H2 7399   4.882   4.555   1.022
 2465TIP3   OH2 7400   2.224   0.537   4.763
 2465TIP3    H1 7401   2.256   0.466   4.818
 2465TIP3    H2 7402   2.304   0.582   4.733
 2466TIP3   OH2 7403   0.180   4.461   3.927
 2466TIP3    H1 7404   0.144   4.536   3.975
 2466TIP3    H2 7405   0.178   4.390   3.991
 2467TIP3   OH2 7406   2.473   3.494   1.969
 2467TIP3    H1 7407   2.416   3.418   1.984
 2467TIP3    H2 7408   2.413   3.567   1.954
 2468TIP3   OH2 7409   0.195   2.447   3.160
 2468TIP3    H1 7410   0.275   2.465   3.110
 2468TIP3    H2 7411   0.141   2.525   3.147
 2469TIP3   OH2 7412   2.857   2.436   2.246
 2469TIP3    H1 7413   2.943   2.467   2.219
 2469TIP3    H2 7414   2.870   2.398   2.332
 2470TIP3   OH2 7415   1.044   0.579   1.572
 2470TIP3    H1 7416   0.951   0.569   1.593
 2470TIP3    H2 7417   1.068   0.664   1.609
 2471TIP3   OH2 7418   0.317   0.410   2.712
 2471TIP3    H1 7419   0.266   0.469   2.767
 2471TIP3    H2 7420   0.386   0.464   2.675
 2472TIP3   OH2 7421   1.060   0.143   1.306
 2472TIP3    H1 7422   1.149   0.139   1.271
 2472TIP3    H2 7423   1.048   0.234   1.332
 2473TIP3   OH2 7424   2.910   1.751   3.519
 2473TIP3    H1 7425   2.892   1.670   3.470
 2473TIP3    H2 7426   2.972   1.798   3.464
 2474TIP3   OH2 7427   4.120   5.302   3.240
 2474TIP3    H1 7428   4.080   5.293   3.327
 2474TIP3    H2 7429   4.050   5.279   3.179
 2475TIP3   OH2 7430   4.094   0.284   0.292
 2475TIP3    H1 7431   4.080   0.303   0.199
 2475TIP3    H2 7432   4.055   0.197   0.304
 2476TIP3   OH2 7433   0.488   5.659   1.083
 2476TIP3    H1 7434   0.406   5.612   1.100
 2476TIP3    H2 7435   0.462   5.732   1.027
 2477TIP3   OH2 7436   0.612   4.747   4.462
 2477TIP3    H1 7437   0.648   4.678   4.407
 2477TIP3    H2 7438   0.617   4.712   4.551
 2478TIP3   OH2 7439   2.749   5.397   0.264
 2478TIP3    H1 7440   2.732   5.403   0.358
 2478TIP3    H2 7441   2.669   5.431   0.223
 2479TIP3   OH2 7442   4.622   1.260   0.624
 2479TIP3    H1 7443   4.623   1.249   0.719
 2479TIP3    H2 7444   4.693   1.205   0.592
 2480TIP3   OH2 7445   2.202   2.463   0.842
 2480TIP3    H1 7446   2.234   2.417   0.920
 2480TIP3    H2 7447   2.242   2.416   0.769
 2481TIP3   OH2 7448   2.850   1.340   4.138
 2481TIP3    H1 7449   2.788   1.393   4.089
 2481TIP3    H2 7450   2.830   1.358   4.230
 2482TIP3   OH2 7451   3.487   3.146   4.016
 2482TIP3    H1 7452   3.537   3.078   4.061
 2482TIP3    H2 7453   3.550   3.187   3.957
 2483TIP3   OH2 7454   4.553   5.767   4.508
 2483TIP3    H1 7455   4.624   5.720   4.464
 2483TIP3    H2 7456   4.532   5.840   4.450
 2484TIP3   OH2 7457   1.926   4.548   2.752
 2484TIP3    H1 7458   2.012   4.506   2.758
 2484TIP3    H2 7459   1.867   4.479   2.723
 2485TIP3   OH2 7460   6.026   1.596   4.318
 2485TIP3    H1 7461   6.059   1.513   4.352
 2485TIP3    H2 7462   6.094   1.660   4.341
 2486TIP3   OH2 7463   2.473   1.754   4.898
 2486TIP3    H1 7464   2.515   1.748   4.983
 2486TIP3    H2 7465   2.457   1.663   4.873
 2487TIP3   OH2 7466   0.316   3.220   2.544
 2487TIP3    H1 7467   0.389   3.216   2.606
 2487TIP3    H2 7468   0.353   3.262   2.466
 2488TIP3   OH2 7469   4.712   5.004   3.765
 2488TIP3    H1 7470   4.705   4.981   3.672
 2488TIP3    H2 7471   4.804   5.028   3.777
 2489TIP3   OH2 7472   4.144   5.962   4.351
 2489TIP3    H1 7473   4.066   5.943   4.299
 2489TIP3    H2 7474   4.167   5.877   4.391
 2490TIP3   OH2 7475   2.954   2.114   4.238
 2490TIP3    H1 7476   3.042   2.143   4.262
 2490TIP3    H2 7477   2.965   2.022   4.213
 2491TIP3   OH2 7478   0.693   0.452   3.514
 2491TIP3    H1 7479   0.659   0.385   3.455
 2491TIP3    H2 7480   0.615   0.499   3.545
 2492TIP3   OH2 7481   5.824   0.080   3.536
 2492TIP3    H1 7482   5.776   0.126   3.466
 2492TIP3    H2 7483   5.865   0.006   3.491
 2493TIP3   OH2 7484   5.048   2.355   2.677
 2493TIP3    H1 7485   5.037   2.275   2.728
 2493TIP3    H2 7486   5.137   2.384   2.696
 2494TIP3   OH2 7487   6.188   0.099   2.057
 2494TIP3    H1 7488   6.106   0.131   2.095
 2494TIP3    H2 7489   6.221   0.172   2.005
 2495TIP3   OH2 7490   3.706   3.140   2.116
 2495TIP3    H1 7491   3.709   3.049   2.143
 2495TIP3    H2 7492   3.784   3.152   2.061
 2496TIP3   OH2 7493   5.127   0.765   0.507
 2496TIP3    H1 7494   5.045   0.806   0.480
 2496TIP3    H2 7495   5.150   0.812   0.588
 2497TIP3   OH2 7496   5.934   5.605   0.128
 2497TIP3    H1 7497   5.885   5.676   0.087
 2497TIP3    H2 7498   5.958   5.640   0.214
 2498TIP3   OH2 7499   2.487   3.634   1.536
 2498TIP3    H1 7500   2.472   3.552   1.583
 2498TIP3    H2 7501   2.461   3.614   1.445
 2499TIP3   OH2 7502   5.215   2.154   3.805
 2499TIP3    H1 7503   5.278   2.219   3.773
 2499TIP3    H2 7504   5.264   2.103   3.869
 2500TIP3   OH2 7505   1.463   3.365   0.411
 2500TIP3    H1 7506   1.430   3.376   0.322
 2500TIP3    H2 7507   1.549   3.326   0.400
 2501TIP3   OH2 7508   5.857   3.588   0.769
 2501TIP3    H1 7509   5.901   3.669   0.743
 2501TIP3    H2 7510   5.770   3.593   0.729
 2502TIP3   OH2 7511   4.361   2.219   4.755
 2502TIP3    H1 7512   4.373   2.314   4.764
 2502TIP3    H2 7513   4.269   2.204   4.777
 2503TIP3   OH2 7514   5.952   0.402   3.508
 2503TIP3    H1 7515   5.861   0.374   3.497
 2503TIP3    H2 7516   5.986   0.348   3.579
 2504TIP3   OH2 7517   0.114   2.686   0.412
 2504TIP3    H1 7518   0.085   2.777   0.408
 2504TIP3    H2 7519   0.206   2.689   0.387
 2505TIP3   OH2 7520   2.084   4.927   1.753
 2505TIP3    H1 7521   2.087   4.963   1.665
 2505TIP3    H2 7522   1.991   4.930   1.777
 2506TIP3   OH2 7523   1.737   4.305   4.635
 2506TIP3    H1 7524   1.711   4.327   4.725
 2506TIP3    H2 7525   1.830   4.327   4.631
 2507TIP3   OH2 7526   1.600   3.109   4.563
 2507TIP3    H1 7527   1.653   3.038   4.527
 2507TIP3    H2 7528   1.573   3.160   4.486
 2508TIP3   OH2 7529   2.815   5.544   4.719
 2508TIP3    H1 7530   2.844   5.459   4.686
 2508TIP3    H2 7531   2.896   5.595   4.727
 2509TIP3   OH2 7532   2.179   0.824   0.674
 2509TIP3    H1 7533   2.131   0.793   0.751
 2509TIP3    H2 7534   2.140   0.908   0.654
 2510TIP3   OH2 7535   0.473   5.585   0.163
 2510TIP3    H1 7536   0.384   5.563   0.136
 2510TIP3    H2 7537   0.494   5.521   0.230
 2511TIP3   OH2 7538   2.906   2.009   0.216
 2511TIP3    H1 7539   2.997   2.023   0.245
 2511TIP3    H2 7540   2.856   2.074   0.265
 2512TIP3   OH2 7541   4.544  -0.008   0.556
 2512TIP3    H1 7542   4.507   0.010   0.643
 2512TIP3    H2 7543   4.511   0.063   0.501
 2513TIP3   OH2 7544   1.002   4.181   0.355
 2513TIP3    H1 7545   1.033   4.177   0.445
 2513TIP3    H2 7546   0.923   4.128   0.355
 2514TIP3   OH2 7547   0.498   3.802   1.836
 2514TIP3    H1 7548   0.531   3.884   1.798
 2514TIP3    H2 7549   0.453   3.759   1.763
 2515TIP3   OH2 7550   5.845   1.739   1.575
 2515TIP3    H1 7551   5.751   1.742   1.592
 2515TIP3    H2 7552   5.885   1.786   1.648
 2516TIP3   OH2 7553   3.231   2.191   3.498
 2516TIP3    H1 7554   3.287   2.257   3.539
 2516TIP3    H2 7555   3.234   2.116   3.557
 2517TIP3   OH2 7556   3.304   5.556   4.136
 2517TIP3    H1 7557   3.280   5.480   4.083
 2517TIP3    H2 7558   3.369   5.603   4.083
 2518TIP3   OH2 7559   6.099   4.806   1.063
 2518TIP3    H1 7560   6.098   4.867   1.136
 2518TIP3    H2 7561   6.134   4.725   1.099
 2519TIP3   OH2 7562   2.072   2.004   4.924
 2519TIP3    H1 7563   2.127   2.081   4.918
 2519TIP3    H2 7564   2.129   1.935   4.957
 2520TIP3   OH2 7565   0.620   4.410   3.489
 2520TIP3    H1 7566   0.574   4.426   3.407
 2520TIP3    H2 7567   0.706   4.377   3.463
 2521TIP3   OH2 7568   1.385   2.075   0.898
 2521TIP3    H1 7569   1.447   2.006   0.875
 2521TIP3    H2 7570   1.437   2.155   0.895
 2522TIP3   OH2 7571   1.625   0.723   2.948
 2522TIP3    H1 7572   1.550   0.665   2.937
 2522TIP3    H2 7573   1.604   0.801   2.897
 2523TIP3   OH2 7574   4.319   1.389   5.184
 2523TIP3    H1 7575   4.319   1.323   5.114
 2523TIP3    H2 7576   4.365   1.347   5.257
 2524TIP3   OH2 7577   1.791   0.930   5.212
 2524TIP3    H1 7578   1.769   0.880   5.134
 2524TIP3    H2 7579   1.882   0.908   5.230
 2525TIP3   OH2 7580   5.833   5.845   1.464
 2525TIP3    H1 7581   5.754   5.814   1.419
 2525TIP3    H2 7582   5.801   5.880   1.547
 2526TIP3   OH2 7583   4.355   5.198   2.433
 2526TIP3    H1 7584   4.422   5.159   2.488
 2526TIP3    H2 7585   4.401   5.221   2.352
 2527TIP3   OH2 7586   3.685   4.825   0.993
 2527TIP3    H1 7587   3.760   4.821   0.934
 2527TIP3    H2 7588   3.632   4.898   0.961
 2528TIP3   OH2 7589   1.903   6.008   0.318
 2528TIP3    H1 7590   1.845   5.964   0.380
 2528TIP3    H2 7591   1.990   6.001   0.357
 2529TIP3   OH2 7592   5.883   2.182   4.821
 2529TIP3    H1 7593   5.884   2.174   4.916
 2529TIP3    H2 7594   5.842   2.267   4.804
 2530TIP3   OH2 7595   5.973   0.301   0.361
 2530TIP3    H1 7596   5.911   0.273   0.294
 2530TIP3    H2 7597   6.033   0.359   0.314
 2531TIP3   OH2 7598   5.031   3.095   4.842
 2531TIP3    H1 7599   5.042   3.019   4.898
 2531TIP3    H2 7600   4.975   3.065   4.771
 2532TIP3   OH2 7601   4.327   4.087   2.744
 2532TIP3    H1 7602   4.246   4.131   2.769
 2532TIP3    H2 7603   4.397   4.138   2.787
 2533TIP3   OH2 7604   5.079   2.830   2.927
 2533TIP3    H1 7605   4.988   2.843   2.900
 2533TIP3    H2 7606   5.083   2.860   3.017
 2534TIP3   OH2 7607   5.604   4.096   4.245
 2534TIP3    H1 7608   5.647   4.023   4.200
 2534TIP3    H2 7609   5.596   4.066   4.335
 2535TIP3   OH2 7610   3.393   5.818   1.313
 2535TIP3    H1 7611   3.350   5.734   1.302
 2535TIP3    H2 7612   3.468   5.815   1.255
 2536TIP3   OH2 7613   5.079   5.157   1.498
 2536TIP3    H1 7614   5.169   5.185   1.515
 2536TIP3    H2 7615   5.041   5.142   1.584
 2537TIP3   OH2 7616   2.986   5.663   0.761
 2537TIP3    H1 7617   3.034   5.615   0.694
 2537TIP3    H2 7618   3.017   5.754   0.753
 2538TIP3   OH2 7619   1.919   2.365   0.384
 2538TIP3    H1 7620   1.881   2.450   0.362
 2538TIP3    H2 7621   1.856   2.325   0.445
 2539TIP3   OH2 7622   3.902   2.435   2.100
 2539TIP3    H1 7623   3.826   2.399   2.145
 2539TIP3    H2 7624   3.921   2.516   2.146
 2540TIP3   OH2 7625   0.168   5.190   3.558
 2540TIP3    H1 7626   0.103   5.250   3.593
 2540TIP3    H2 7627   0.132   5.103   3.574
 2541TIP3   OH2 7628   4.027   1.956   1.940
 2541TIP3    H1 7629   4.061   2.045   1.928
 2541TIP3    H2 7630   4.102   1.906   1.973
 2542TIP3   OH2 7631   1.009   0.505   0.895
 2542TIP3    H1 7632   0.928   0.488   0.943
 2542TIP3    H2 7633   1.068   0.434   0.920
 2543TIP3   OH2 7634   6.110   0.982   1.879
 2543TIP3    H1 7635   6.038   1.009   1.822
 2543TIP3    H2 7636   6.074   0.912   1.933
 2544TIP3   OH2 7637   4.754   0.393   2.516
 2544TIP3    H1 7638   4.772   0.332   2.588
 2544TIP3    H2 7639   4.800   0.355   2.441
 2545TIP3   OH2 7640   5.826   1.476   3.951
 2545TIP3    H1 7641   5.816   1.412   3.880
 2545TIP3    H2 7642   5.920   1.478   3.968
 2546TIP3   OH2 7643   3.006   5.629   4.160
 2546TIP3    H1 7644   2.993   5.704   4.102
 2546TIP3    H2 7645   3.096   5.602   4.145
 2547TIP3   OH2 7646   3.621   5.530   4.927
 2547TIP3    H1 7647   3.707   5.571   4.920
 2547TIP3    H2 7648   3.575   5.584   4.991
 2548TIP3   OH2 7649   3.463   3.949   2.277
 2548TIP3    H1 7650   3.558   3.956   2.272
 2548TIP3    H2 7651   3.447   3.896   2.355
 2549TIP3   OH2 7652   2.202   2.937   3.463
 2549TIP3    H1 7653   2.121   2.987   3.448
 2549TIP3    H2 7654   2.261   2.965   3.393
 2550TIP3   OH2 7655   4.915   5.214   3.559
 2550TIP3    H1 7656   4.919   5.211   3.654
 2550TIP3    H2 7657   4.976   5.284   3.534
 2551TIP3   OH2 7658   5.454   3.962   1.192
 2551TIP3    H1 7659   5.449   3.867   1.193
 2551TIP3    H2 7660   5.373   3.990   1.149
 2552TIP3   OH2 7661   1.661   4.350   3.245
 2552TIP3    H1 7662   1.678   4.357   3.338
 2552TIP3    H2 7663   1.589   4.287   3.238
 2553TIP3   OH2 7664   3.296   0.595   4.094
 2553TIP3    H1 7665   3.265   0.619   4.182
 2553TIP3    H2 7666   3.391   0.602   4.100
 2554TIP3   OH2 7667   3.139   0.351   0.151
 2554TIP3    H1 7668   3.087   0.305   0.085
 2554TIP3    H2 7669   3.225   0.362   0.111
 2555TIP3   OH2 7670   2.399   5.647   4.060
 2555TIP3    H1 7671   2.314   5.690   4.057
 2555TIP3    H2 7672   2.413   5.613   3.971
 2556TIP3   OH2 7673   1.013   0.145   0.584
 2556TIP3    H1 7674   0.971   0.182   0.661
 2556TIP3    H2 7675   1.048   0.220   0.537
 2557TIP3   OH2 7676   5.258   4.616   0.156
 2557TIP3    H1 7677   5.206   4.591   0.080
 2557TIP3    H2 7678   5.224   4.703   0.180
 2558TIP3   OH2 7679   3.727   3.285   2.746
 2558TIP3    H1 7680   3.665   3.354   2.766
 2558TIP3    H2 7681   3.752   3.249   2.831
 2559TIP3   OH2 7682   6.099   1.178   4.091
 2559TIP3    H1 7683   6.015   1.161   4.135
 2559TIP3    H2 7684   6.117   1.270   4.111
 2560TIP3   OH2 7685   5.318   2.643   2.052
 2560TIP3    H1 7686   5.379   2.692   2.107
 2560TIP3    H2 7687   5.373   2.584   2.001
 2561TIP3   OH2 7688   0.684   0.546   2.074
 2561TIP3    H1 7689   0.653   0.562   2.163
 2561TIP3    H2 7690   0.752   0.478   2.084
 2562TIP3   OH2 7691   1.502   1.391   4.243
 2562TIP3    H1 7692   1.525   1.332   4.315
 2562TIP3    H2 7693   1.413   1.420   4.264
 2563TIP3   OH2 7694   5.300   3.147   0.354
 2563TIP3    H1 7695   5.218   3.197   0.357
 2563TIP3    H2 7696   5.366   3.211   0.326
 2564TIP3   OH2 7697   1.810   2.484   1.027
 2564TIP3    H1 7698   1.723   2.513   1.056
 2564TIP3    H2 7699   1.863   2.486   1.107
 2565TIP3   OH2 7700   2.505   2.658   0.855
 2565TIP3    H1 7701   2.560   2.597   0.805
 2565TIP3    H2 7702   2.564   2.731   0.877
 2566TIP3   OH2 7703   5.642   1.088   1.440
 2566TIP3    H1 7704   5.558   1.115   1.403
 2566TIP3    H2 7705   5.672   1.017   1.383
 2567TIP3   OH2 7706   5.001   1.882   2.861
 2567TIP3    H1 7707   5.002   1.795   2.900
 2567TIP3    H2 7708   5.005   1.866   2.767
 2568TIP3   OH2 7709   2.954   0.773   2.726
 2568TIP3    H1 7710   2.904   0.855   2.733
 2568TIP3    H2 7711   3.034   0.790   2.775
 2569TIP3   OH2 7712   1.432   0.472   3.987
 2569TIP3    H1 7713   1.503   0.429   4.034
 2569TIP3    H2 7714   1.370   0.402   3.967
 2570TIP3   OH2 7715   4.302   4.210   4.027
 2570TIP3    H1 7716   4.330   4.237   4.114
 2570TIP3    H2 7717   4.383   4.184   3.982
 2571TIP3   OH2 7718   4.809   4.377   1.533
 2571TIP3    H1 7719   4.747   4.347   1.599
 2571TIP3    H2 7720   4.882   4.413   1.584
 2572TIP3   OH2 7721   1.675   5.042   3.590
 2572TIP3    H1 7722   1.602   5.093   3.553
 2572TIP3    H2 7723   1.753   5.090   3.565
 2573TIP3   OH2 7724   4.446  -0.041   0.035
 2573TIP3    H1 7725   4.500   0.023  -0.011
 2573TIP3    H2 7726   4.384   0.012   0.086
 2574TIP3   OH2 7727   1.840   4.046   1.963
 2574TIP3    H1 7728   1.826   4.124   1.909
 2574TIP3    H2 7729   1.831   4.078   2.053
 2575TIP3   OH2 7730   4.429   5.667   1.981
 2575TIP3    H1 7731   4.415   5.761   1.989
 2575TIP3    H2 7732   4.454   5.638   2.068
 2576TIP3   OH2 7733   0.700   5.852   3.842
 2576TIP3    H1 7734   0.678   5.807   3.923
 2576TIP3    H2 7735   0.792   5.878   3.853
 2577TIP3   OH2 7736   1.253   2.334   1.610
 2577TIP3    H1 7737   1.337   2.364   1.575
 2577TIP3    H2 7738   1.197   2.324   1.533
 2578TIP3   OH2 7739   5.403   4.208   0.853
 2578TIP3    H1 7740   5.478   4.267   0.845
 2578TIP3    H2 7741   5.335   4.261   0.895
 2579TIP3   OH2 7742   3.759   0.484   3.291
 2579TIP3    H1 7743   3.811   0.525   3.222
 2579TIP3    H2 7744   3.758   0.548   3.362
 2580TIP3   OH2 7745   0.166   3.395   4.532
 2580TIP3    H1 7746   0.137   3.420   4.444
 2580TIP3    H2 7747   0.149   3.301   4.536
 2581TIP3   OH2 7748   2.622   0.085   1.290
 2581TIP3    H1 7749   2.712   0.116   1.278
 2581TIP3    H2 7750   2.571   0.137   1.229
 2582TIP3   OH2 7751   2.934   3.620   4.741
 2582TIP3    H1 7752   2.988   3.543   4.725
 2582TIP3    H2 7753   2.962   3.684   4.676
 2583TIP3   OH2 7754   4.827   0.936   0.416
 2583TIP3    H1 7755   4.847   0.864   0.476
 2583TIP3    H2 7756   4.813   1.012   0.472
 2584TIP3   OH2 7757   0.634   4.959   4.232
 2584TIP3    H1 7758   0.665   5.028   4.290
 2584TIP3    H2 7759   0.635   4.880   4.286
 2585TIP3   OH2 7760   0.445   2.344   4.952
 2585TIP3    H1 7761   0.373   2.408   4.960
 2585TIP3    H2 7762   0.521   2.397   4.927
 2586TIP3   OH2 7763   5.683   4.874   1.098
 2586TIP3    H1 7764   5.698   4.857   1.191
 2586TIP3    H2 7765   5.596   4.838   1.081
 2587TIP3   OH2 7766   6.127   0.877   3.548
 2587TIP3    H1 7767   6.033   0.863   3.563
 2587TIP3    H2 7768   6.164   0.789   3.548
 2588TIP3   OH2 7769   3.350   4.112   3.794
 2588TIP3    H1 7770   3.396   4.192   3.772
 2588TIP3    H2 7771   3.258   4.138   3.801
 2589TIP3   OH2 7772   5.615   2.229   2.435
 2589TIP3    H1 7773   5.657   2.148   2.463
 2589TIP3    H2 7774   5.660   2.253   2.354
 2590TIP3   OH2 7775   0.124   1.756   1.756
 2590TIP3    H1 7776   0.155   1.843   1.733
 2590TIP3    H2 7777   0.048   1.742   1.699
 2591TIP3   OH2 7778   3.044   1.002   0.792
 2591TIP3    H1 7779   2.963   1.005   0.741
 2591TIP3    H2 7780   3.101   1.067   0.751
 2592TIP3   OH2 7781   0.648   4.913   3.961
 2592TIP3    H1 7782   0.715   4.978   3.937
 2592TIP3    H2 7783   0.623   4.936   4.050
 2593TIP3   OH2 7784   4.827   1.189   4.677
 2593TIP3    H1 7785   4.891   1.192   4.606
 2593TIP3    H2 7786   4.775   1.111   4.659
 2594TIP3   OH2 7787   3.500   5.415   1.549
 2594TIP3    H1 7788   3.520   5.328   1.582
 2594TIP3    H2 7789   3.534   5.474   1.616
 2595TIP3   OH2 7790   4.280   5.551   2.221
 2595TIP3    H1 7791   4.238   5.634   2.198
 2595TIP3    H2 7792   4.286   5.553   2.317
 2596TIP3   OH2 7793   5.571   0.726   0.383
 2596TIP3    H1 7794   5.643   0.753   0.441
 2596TIP3    H2 7795   5.572   0.630   0.388
 2597TIP3   OH2 7796   3.752   5.664   4.411
 2597TIP3    H1 7797   3.801   5.682   4.491
 2597TIP3    H2 7798   3.681   5.728   4.412
 2598TIP3   OH2 7799   1.309   5.865   1.906
 2598TIP3    H1 7800   1.365   5.819   1.969
 2598TIP3    H2 7801   1.238   5.901   1.960
 2599TIP3   OH2 7802   2.481   3.707   2.361
 2599TIP3    H1 7803   2.493   3.621   2.321
 2599TIP3    H2 7804   2.460   3.689   2.452
 2600TIP3   OH2 7805   1.791   1.195   5.080
 2600TIP3    H1 7806   1.848   1.252   5.132
 2600TIP3    H2 7807   1.786   1.114   5.130
 2601TIP3   OH2 7808   5.502   5.428   1.820
 2601TIP3    H1 7809   5.468   5.433   1.730
 2601TIP3    H2 7810   5.456   5.497   1.867
 2602TIP3   OH2 7811   0.478   2.357   4.215
 2602TIP3    H1 7812   0.524   2.423   4.164
 2602TIP3    H2 7813   0.539   2.336   4.287
 2603TIP3   OH2 7814   0.762   1.389   0.633
 2603TIP3    H1 7815   0.828   1.332   0.594
 2603TIP3    H2 7816   0.808   1.471   0.650
 2604TIP3   OH2 7817   4.967   0.841   2.834
 2604TIP3    H1 7818   4.932   0.770   2.780
 2604TIP3    H2 7819   5.032   0.798   2.890
 2605TIP3   OH2 7820   1.169   4.337   2.268
 2605TIP3    H1 7821   1.245   4.391   2.288
 2605TIP3    H2 7822   1.168   4.270   2.337
 2606TIP3   OH2 7823   1.143   4.166   3.556
 2606TIP3    H1 7824   1.070   4.177   3.617
 2606TIP3    H2 7825   1.163   4.073   3.559
 2607TIP3   OH2 7826   2.725   2.714   2.531
 2607TIP3    H1 7827   2.658   2.656   2.495
 2607TIP3    H2 7828   2.780   2.657   2.584
 2608TIP3   OH2 7829   4.453   4.185   3.300
 2608TIP3    H1 7830   4.444   4.149   3.388
 2608TIP3    H2 7831   4.464   4.108   3.243
 2609TIP3   OH2 7832   3.163   2.207   1.558
 2609TIP3    H1 7833   3.227   2.175   1.622
 2609TIP3    H2 7834   3.094   2.141   1.558
 2610TIP3   OH2 7835   6.046   5.151   2.144
 2610TIP3    H1 7836   6.086   5.085   2.087
 2610TIP3    H2 7837   6.083   5.234   2.113
 2611TIP3   OH2 7838   1.772   1.518   4.222
 2611TIP3    H1 7839   1.700   1.454   4.223
 2611TIP3    H2 7840   1.744   1.584   4.159
 2612TIP3   OH2 7841   3.517   1.449   0.913
 2612TIP3    H1 7842   3.440   1.392   0.925
 2612TIP3    H2 7843   3.480   1.535   0.896
 2613TIP3   OH2 7844   2.921   2.328   4.010
 2613TIP3    H1 7845   2.882   2.330   3.922
 2613TIP3    H2 7846   2.877   2.255   4.054
 2614TIP3   OH2 7847   5.204   2.968   2.613
 2614TIP3    H1 7848   5.219   2.956   2.519
 2614TIP3    H2 7849   5.200   2.879   2.648
 2615TIP3   OH2 7850   5.274   0.706   1.647
 2615TIP3    H1 7851   5.231   0.690   1.563
 2615TIP3    H2 7852   5.244   0.793   1.673
 2616TIP3   OH2 7853   3.027   1.808   0.788
 2616TIP3    H1 7854   2.960   1.788   0.853
 2616TIP3    H2 7855   2.978   1.827   0.708
 2617TIP3   OH2 7856   1.489   4.768   4.390
 2617TIP3    H1 7857   1.524   4.781   4.302
 2617TIP3    H2 7858   1.481   4.673   4.400
 2618TIP3   OH2 7859   5.094   4.661   2.202
 2618TIP3    H1 7860   5.098   4.693   2.292
 2618TIP3    H2 7861   5.027   4.714   2.160
 2619TIP3   OH2 7862   0.617   5.751   1.576
 2619TIP3    H1 7863   0.700   5.775   1.535
 2619TIP3    H2 7864   0.640   5.726   1.665
 2620TIP3   OH2 7865   4.789   1.835   5.025
 2620TIP3    H1 7866   4.880   1.864   5.036
 2620TIP3    H2 7867   4.748   1.855   5.109
 2621TIP3   OH2 7868   2.086   1.614   4.058
 2621TIP3    H1 7869   2.114   1.668   3.983
 2621TIP3    H2 7870   2.075   1.527   4.021
 2622TIP3   OH2 7871   0.847   3.185   3.406
 2622TIP3    H1 7872   0.865   3.276   3.385
 2622TIP3    H2 7873   0.844   3.141   3.321
 2623TIP3   OH2 7874   3.253   2.312   2.327
 2623TIP3    H1 7875   3.305   2.349   2.398
 2623TIP3    H2 7876   3.278   2.220   2.325
 2624TIP3   OH2 7877   5.589   4.209   3.980
 2624TIP3    H1 7878   5.529   4.139   3.954
 2624TIP3    H2 7879   5.615   4.187   4.070
 2625TIP3   OH2 7880   1.145   4.031   4.537
 2625TIP3    H1 7881   1.230   4.075   4.539
 2625TIP3    H2 7882   1.161   3.946   4.579
 2626TIP3   OH2 7883   5.607   5.950   1.943
 2626TIP3    H1 7884   5.521   5.941   1.983
 2626TIP3    H2 7885   5.651   6.018   1.995
 2627TIP3   OH2 7886   0.569   5.884   2.656
 2627TIP3    H1 7887   0.592   5.951   2.592
 2627TIP3    H2 7888   0.623   5.808   2.631
 2628TIP3   OH2 7889   1.724   3.205   4.006
 2628TIP3    H1 7890   1.795   3.220   4.068
 2628TIP3    H2 7891   1.767   3.207   3.920
 2629TIP3   OH2 7892   2.218   2.869   2.408
 2629TIP3    H1 7893   2.210   2.961   2.382
 2629TIP3    H2 7894   2.232   2.822   2.326
 2630TIP3   OH2 7895   4.332   0.046   1.935
 2630TIP3    H1 7896   4.364   0.105   1.868
 2630TIP3    H2 7897   4.408  -0.007   1.960
 2631TIP3   OH2 7898   3.183   0.926   0.181
 2631TIP3    H1 7899   3.150   0.953   0.095
 2631TIP3    H2 7900   3.217   0.838   0.167
 2632TIP3   OH2 7901   1.932   4.974   1.146
 2632TIP3    H1 7902   1.854   4.997   1.097
 2632TIP3    H2 7903   1.974   5.058   1.165
 2633TIP3   OH2 7904   1.414   4.511   2.327
 2633TIP3    H1 7905   1.482   4.552   2.274
 2633TIP3    H2 7906   1.333   4.552   2.300
 2634TIP3   OH2 7907   4.579   3.273   3.145
 2634TIP3    H1 7908   4.495   3.271   3.101
 2634TIP3    H2 7909   4.595   3.366   3.163
 2635TIP3   OH2 7910   4.915   5.606   4.761
 2635TIP3    H1 7911   4.861   5.544   4.811
 2635TIP3    H2 7912   4.865   5.687   4.763
 2636TIP3   OH2 7913   0.214   5.803   0.056
 2636TIP3    H1 7914   0.209   5.868   0.127
 2636TIP3    H2 7915   0.237   5.721   0.100
 2637TIP3   OH2 7916   6.057   0.597   3.829
 2637TIP3    H1 7917   6.097   0.674   3.868
 2637TIP3    H2 7918   6.129   0.553   3.783
 2638TIP3   OH2 7919   2.716   4.822   1.248
 2638TIP3    H1 7920   2.737   4.827   1.155
 2638TIP3    H2 7921   2.632   4.777   1.252
 2639TIP3   OH2 7922   0.973   2.629   0.343
 2639TIP3    H1 7923   1.025   2.562   0.299
 2639TIP3    H2 7924   1.021   2.710   0.330
 2640TIP3   OH2 7925   4.301   5.672   0.731
 2640TIP3    H1 7926   4.257   5.609   0.674
 2640TIP3    H2 7927   4.323   5.622   0.809
 2641TIP3   OH2 7928   0.122   1.688   0.238
 2641TIP3    H1 7929   0.105   1.695   0.332
 2641TIP3    H2 7930   0.050   1.736   0.197
 2642TIP3   OH2 7931   2.079   0.929   4.519
 2642TIP3    H1 7932   1.994   0.917   4.561
 2642TIP3    H2 7933   2.142   0.906   4.587
 2643TIP3   OH2 7934   2.808   5.279   1.529
 2643TIP3    H1 7935   2.865   5.330   1.472
 2643TIP3    H2 7936   2.783   5.203   1.477
 2644TIP3   OH2 7937   3.360   0.747   3.508
 2644TIP3    H1 7938   3.332   0.656   3.497
 2644TIP3    H2 7939   3.281   0.799   3.495
 2645TIP3   OH2 7940   1.158   2.343   3.792
 2645TIP3    H1 7941   1.162   2.293   3.874
 2645TIP3    H2 7942   1.149   2.434   3.820
 2646TIP3   OH2 7943   1.134   3.326   4.041
 2646TIP3    H1 7944   1.229   3.314   4.053
 2646TIP3    H2 7945   1.121   3.421   4.041
 2647TIP3   OH2 7946   6.112  -0.088   1.842
 2647TIP3    H1 7947   6.145  -0.034   1.914
 2647TIP3    H2 7948   6.133  -0.039   1.763
 2648TIP3   OH2 7949   4.831   2.492   3.004
 2648TIP3    H1 7950   4.803   2.400   2.995
 2648TIP3    H2 7951   4.844   2.522   2.914
 2649TIP3   OH2 7952   4.881   4.599   4.353
 2649TIP3    H1 7953   4.941   4.673   4.338
 2649TIP3    H2 7954   4.830   4.593   4.272
 2650TIP3   OH2 7955   5.766   5.511   0.733
 2650TIP3    H1 7956   5.796   5.599   0.753
 2650TIP3    H2 7957   5.761   5.467   0.818
 2651TIP3   OH2 7958   1.051   2.673   3.836
 2651TIP3    H1 7959   1.113   2.718   3.779
 2651TIP3    H2 7960   0.978   2.651   3.778
 2652TIP3   OH2 7961   5.078   4.282   4.289
 2652TIP3    H1 7962   5.144   4.231   4.242
 2652TIP3    H2 7963   5.114   4.292   4.377
 2653TIP3   OH2 7964   4.943   3.330   1.568
 2653TIP3    H1 7965   4.858   3.371   1.557
 2653TIP3    H2 7966   5.005   3.389   1.525
 2654TIP3   OH2 7967   5.792   4.828   2.725
 2654TIP3    H1 7968   5.859   4.871   2.673
 2654TIP3    H2 7969   5.841   4.769   2.783
 2655TIP3   OH2 7970   2.094   0.042   1.635
 2655TIP3    H1 7971   2.095   0.126   1.589
 2655TIP3    H2 7972   2.141  -0.018   1.577
 2656TIP3   OH2 7973   4.771   4.436   2.995
 2656TIP3    H1 7974   4.846   4.457   2.940
 2656TIP3    H2 7975   4.696   4.474   2.950
 2657TIP3   OH2 7976   0.879   3.279   0.354
 2657TIP3    H1 7977   0.973   3.296   0.352
 2657TIP3    H2 7978   0.847   3.309   0.269
 2658TIP3   OH2 7979   5.273   4.498   2.814
 2658TIP3    H1 7980   5.324   4.572   2.847
 2658TIP3    H2 7981   5.337   4.441   2.772
 2659TIP3   OH2 7982   1.294   4.831   4.000
 2659TIP3    H1 7983   1.387   4.817   3.980
 2659TIP3    H2 7984   1.251   4.827   3.914
 2660TIP3   OH2 7985   2.313   4.495   4.088
 2660TIP3    H1 7986   2.347   4.584   4.076
 2660TIP3    H2 7987   2.389   4.444   4.114
 2661TIP3   OH2 7988   4.030   1.283   4.734
 2661TIP3    H1 7989   4.110   1.335   4.732
 2661TIP3    H2 7990   4.019   1.253   4.643
 2662TIP3   OH2 7991   3.709   2.221   3.573
 2662TIP3    H1 7992   3.679   2.289   3.513
 2662TIP3    H2 7993   3.679   2.249   3.659
 2663TIP3   OH2 7994   3.342   0.396   0.682
 2663TIP3    H1 7995   3.422   0.426   0.640
 2663TIP3    H2 7996   3.273   0.453   0.646
 2664TIP3   OH2 7997   1.691   1.043   0.053
 2664TIP3    H1 7998   1.710   1.137   0.056
 2664TIP3    H2 7999   1.718   1.016  -0.035
 2665TIP3   OH2 8000   4.193   4.075   0.065
 2665TIP3    H1 8001   4.155   4.163   0.072
 2665TIP3    H2 8002   4.160   4.029   0.143
 2666TIP3   OH2 8003   2.388   3.146   3.563
 2666TIP3    H1 8004   2.343   3.084   3.620
 2666TIP3    H2 8005   2.318   3.186   3.512
 2667TIP3   OH2 8006   5.788   0.253   3.325
 2667TIP3    H1 8007   5.765   0.187   3.259
 2667TIP3    H2 8008   5.875   0.284   3.299
 2668TIP3   OH2 8009   3.308   3.169   4.546
 2668TIP3    H1 8010   3.252   3.172   4.468
 2668TIP3    H2 8011   3.250   3.136   4.616
 2669TIP3   OH2 8012   2.419   1.154   3.762
 2669TIP3    H1 8013   2.442   1.247   3.761
 2669TIP3    H2 8014   2.326   1.152   3.781
 2670TIP3   OH2 8015   1.508   3.573   4.540
 2670TIP3    H1 8016   1.503   3.480   4.566
 2670TIP3    H2 8017   1.421   3.593   4.505
 2671TIP3   OH2 8018   2.971   1.484   2.531
 2671TIP3    H1 8019   2.976   1.433   2.611
 2671TIP3    H2 8020   2.893   1.539   2.542
 2672TIP3   OH2 8021   5.479   1.603   4.129
 2672TIP3    H1 8022   5.411   1.584   4.193
 2672TIP3    H2 8023   5.516   1.687   4.158
 2673TIP3   OH2 8024   3.986   1.161   4.472
 2673TIP3    H1 8025   3.928   1.110   4.529
 2673TIP3    H2 8026   4.065   1.107   4.464
 2674TIP3   OH2 8027   1.822   2.439   4.552
 2674TIP3    H1 8028   1.871   2.521   4.547
 2674TIP3    H2 8029   1.806   2.415   4.461
 2675TIP3   OH2 8030   0.656   0.713   0.862
 2675TIP3    H1 8031   0.665   0.797   0.817
 2675TIP3    H2 8032   0.597   0.731   0.935
 2676TIP3   OH2 8033   2.726   2.951   4.156
 2676TIP3    H1 8034   2.801   2.990   4.200
 2676TIP3    H2 8035   2.672   3.025   4.131
 2677TIP3   OH2 8036   1.204   3.793   2.372
 2677TIP3    H1 8037   1.201   3.714   2.426
 2677TIP3    H2 8038   1.298   3.814   2.368
 2678TIP3   OH2 8039   1.288   5.120   4.365
 2678TIP3    H1 8040   1.382   5.127   4.349
 2678TIP3    H2 8041   1.259   5.050   4.307
 2679TIP3   OH2 8042   3.647   4.902   5.040
 2679TIP3    H1 8043   3.630   4.930   4.950
 2679TIP3    H2 8044   3.572   4.847   5.063
 2680TIP3   OH2 8045   0.927   3.458   1.752
 2680TIP3    H1 8046   0.945   3.373   1.792
 2680TIP3    H2 8047   0.904   3.515   1.825
 2681TIP3   OH2 8048   0.987   4.211   4.438
 2681TIP3    H1 8049   1.052   4.158   4.483
 2681TIP3    H2 8050   1.037   4.282   4.398
 2682TIP3   OH2 8051   1.948   4.525   3.853
 2682TIP3    H1 8052   1.910   4.447   3.813
 2682TIP3    H2 8053   1.933   4.595   3.789
 2683TIP3   OH2 8054   5.873   4.977   4.581
 2683TIP3    H1 8055   5.891   4.972   4.675
 2683TIP3    H2 8056   5.778   4.970   4.575
 2684TIP3   OH2 8057   3.267   2.959   4.222
 2684TIP3    H1 8058   3.229   3.038   4.260
 2684TIP3    H2 8059   3.194   2.913   4.181
 2685TIP3   OH2 8060   2.345   4.269   0.890
 2685TIP3    H1 8061   2.375   4.207   0.823
 2685TIP3    H2 8062   2.254   4.286   0.867
 2686TIP3   OH2 8063   4.383   1.975   1.664
 2686TIP3    H1 8064   4.395   1.985   1.759
 2686TIP3    H2 8065   4.297   1.935   1.655
 2687TIP3   OH2 8066   5.386   3.091   4.533
 2687TIP3    H1 8067   5.363   3.173   4.576
 2687TIP3    H2 8068   5.480   3.099   4.516
 2688TIP3   OH2 8069   3.576   4.416   5.211
 2688TIP3    H1 8070   3.634   4.441   5.139
 2688TIP3    H2 8071   3.552   4.326   5.193
 2689TIP3   OH2 8072   4.359   1.330   3.775
 2689TIP3    H1 8073   4.304   1.401   3.808
 2689TIP3    H2 8074   4.420   1.312   3.846
 2690TIP3   OH2 8075   2.447   0.781   3.097
 2690TIP3    H1 8076   2.532   0.800   3.057
 2690TIP3    H2 8077   2.437   0.686   3.087
 2691TIP3   OH2 8078   1.401   4.148   4.569
 2691TIP3    H1 8079   1.451   4.196   4.504
 2691TIP3    H2 8080   1.441   4.061   4.571
 2692TIP3   OH2 8081   0.575   4.283   0.167
 2692TIP3    H1 8082   0.504   4.274   0.230
 2692TIP3    H2 8083   0.599   4.193   0.145
 2693TIP3   OH2 8084   2.098   1.351   0.774
 2693TIP3    H1 8085   2.163   1.368   0.706
 2693TIP3    H2 8086   2.023   1.405   0.749
 2694TIP3   OH2 8087   4.939   0.468   0.293
 2694TIP3    H1 8088   4.859   0.420   0.273
 2694TIP3    H2 8089   5.004   0.400   0.312
 2695TIP3   OH2 8090   4.172   2.790   4.288
 2695TIP3    H1 8091   4.255   2.824   4.254
 2695TIP3    H2 8092   4.186   2.695   4.292
 2696TIP3   OH2 8093   1.124   4.958   2.642
 2696TIP3    H1 8094   1.040   4.949   2.688
 2696TIP3    H2 8095   1.178   5.009   2.702
 2697TIP3   OH2 8096   0.012   3.671   2.910
 2697TIP3    H1 8097  -0.038   3.752   2.910
 2697TIP3    H2 8098   0.088   3.689   2.856
 2698TIP3   OH2 8099   4.720   0.185   1.306
 2698TIP3    H1 8100   4.799   0.236   1.286
 2698TIP3    H2 8101   4.719   0.115   1.240
 2699TIP3   OH2 8102   1.432   4.486   4.333
 2699TIP3    H1 8103   1.488   4.415   4.362
 2699TIP3    H2 8104   1.427   4.475   4.238
 2700TIP3   OH2 8105   3.878   2.678   3.077
 2700TIP3    H1 8106   3.807   2.621   3.105
 2700TIP3    H2 8107   3.917   2.632   3.002
 2701TIP3   OH2 8108   2.872   4.450   0.166
 2701TIP3    H1 8109   2.817   4.418   0.237
 2701TIP3    H2 8110   2.923   4.374   0.139
 2702TIP3   OH2 8111   4.302   4.270   2.116
 2702TIP3    H1 8112   4.261   4.299   2.035
 2702TIP3    H2 8113   4.358   4.197   2.090
 2703TIP3   OH2 8114   1.864   2.465   3.339
 2703TIP3    H1 8115   1.822   2.396   3.287
 2703TIP3    H2 8116   1.878   2.426   3.425
 2704TIP3   OH2 8117   4.536   1.363   0.388
 2704TIP3    H1 8118   4.563   1.339   0.476
 2704TIP3    H2 8119   4.484   1.443   0.400
 2705TIP3   OH2 8120   1.708   2.445   2.018
 2705TIP3    H1 8121   1.740   2.494   2.093
 2705TIP3    H2 8122   1.658   2.509   1.967
 2706TIP3   OH2 8123   5.051   5.715   3.923
 2706TIP3    H1 8124   4.982   5.694   3.986
 2706TIP3    H2 8125   5.088   5.630   3.898
 2707TIP3   OH2 8126   2.673   1.436   1.571
 2707TIP3    H1 8127   2.646   1.396   1.653
 2707TIP3    H2 8128   2.765   1.411   1.561
 2708TIP3   OH2 8129   6.149   2.794   4.319
 2708TIP3    H1 8130   6.229   2.842   4.340
 2708TIP3    H2 8131   6.168   2.704   4.346
 2709TIP3   OH2 8132   6.242   0.559   0.652
 2709TIP3    H1 8133   6.237   0.609   0.733
 2709TIP3    H2 8134   6.205   0.618   0.586
 2710TIP3   OH2 8135   5.621   4.378   2.383
 2710TIP3    H1 8136   5.601   4.379   2.477
 2710TIP3    H2 8137   5.658   4.464   2.366
 2711TIP3   OH2 8138   4.654   4.126   3.073
 2711TIP3    H1 8139   4.694   4.108   3.158
 2711TIP3    H2 8140   4.648   4.041   3.030
 2712TIP3   OH2 8141   4.356   2.549   5.065
 2712TIP3    H1 8142   4.274   2.524   5.023
 2712TIP3    H2 8143   4.342   2.639   5.094
 2713TIP3   OH2 8144   5.048   4.788   4.229
 2713TIP3    H1 8145   4.957   4.816   4.219
 2713TIP3    H2 8146   5.086   4.852   4.290
 2714TIP3   OH2 8147   4.052   2.650   3.740
 2714TIP3    H1 8148   4.037   2.635   3.647
 2714TIP3    H2 8149   4.024   2.740   3.756
 2715TIP3   OH2 8150   1.215   5.012   1.779
 2715TIP3    H1 8151   1.170   5.020   1.863
 2715TIP3    H2 8152   1.159   5.060   1.718
 2716TIP3   OH2 8153   5.389   0.219   2.973
 2716TIP3    H1 8154   5.419   0.214   3.064
 2716TIP3    H2 8155   5.445   0.285   2.933
 2717TIP3   OH2 8156   4.406   2.876   4.951
 2717TIP3    H1 8157   4.458   2.796   4.944
 2717TIP3    H2 8158   4.399   2.893   5.045
 2718TIP3   OH2 8159   5.443   2.409   2.330
 2718TIP3    H1 8160   5.458   2.427   2.237
 2718TIP3    H2 8161   5.513   2.348   2.355
 2719TIP3   OH2 8162   3.387   0.455   2.627
 2719TIP3    H1 8163   3.438   0.374   2.626
 2719TIP3    H2 8164   3.298   0.428   2.604
 2720TIP3   OH2 8165   5.710   4.633   2.416
 2720TIP3    H1 8166   5.790   4.618   2.468
 2720TIP3    H2 8167   5.715   4.725   2.390
 2721TIP3   OH2 8168   3.313   3.289   3.732
 2721TIP3    H1 8169   3.301   3.369   3.783
 2721TIP3    H2 8170   3.407   3.285   3.714
 2722TIP3   OH2 8171   5.576   5.891   2.329
 2722TIP3    H1 8172   5.520   5.968   2.322
 2722TIP3    H2 8173   5.663   5.923   2.305
 2723TIP3   OH2 8174   1.747   0.344   3.908
 2723TIP3    H1 8175   1.695   0.381   3.836
 2723TIP3    H2 8176   1.759   0.252   3.884
 2724TIP3   OH2 8177   3.005   3.811   2.321
 2724TIP3    H1 8178   2.939   3.745   2.300
 2724TIP3    H2 8179   2.975   3.850   2.403
 2725TIP3   OH2 8180   0.947   5.961   3.973
 2725TIP3    H1 8181   0.986   5.925   4.053
 2725TIP3    H2 8182   1.021   5.974   3.914
 2726TIP3   OH2 8183   2.909   5.141   0.233
 2726TIP3    H1 8184   2.914   5.116   0.140
 2726TIP3    H2 8185   2.865   5.226   0.231
 2727TIP3   OH2 8186   2.680   2.126   3.302
 2727TIP3    H1 8187   2.740   2.057   3.275
 2727TIP3    H2 8188   2.725   2.207   3.277
 2728TIP3   OH2 8189  -0.065   2.851   1.226
 2728TIP3    H1 8190   0.027   2.846   1.249
 2728TIP3    H2 8191  -0.070   2.922   1.162
 2729TIP3   OH2 8192   0.429   5.064   4.724
 2729TIP3    H1 8193   0.426   5.023   4.637
 2729TIP3    H2 8194   0.514   5.109   4.726
 2730TIP3   OH2 8195   4.698   0.453   0.163
 2730TIP3    H1 8196   4.726   0.537   0.126
 2730TIP3    H2 8197   4.741   0.387   0.109
 2731TIP3   OH2 8198   0.576   4.030   3.561
 2731TIP3    H1 8199   0.584   4.082   3.481
 2731TIP3    H2 8200   0.481   4.023   3.575
 2732TIP3   OH2 8201   1.894   4.097   2.740
 2732TIP3    H1 8202   1.964   4.161   2.747
 2732TIP3    H2 8203   1.874   4.073   2.831
 2733TIP3   OH2 8204   0.681   2.718   0.349
 2733TIP3    H1 8205   0.707   2.691   0.438
 2733TIP3    H2 8206   0.761   2.757   0.312
 2734TIP3   OH2 8207   1.418   3.347   4.140
 2734TIP3    H1 8208   1.443   3.427   4.095
 2734TIP3    H2 8209   1.447   3.277   4.082
 2735TIP3   OH2 8210   4.322   4.840   1.064
 2735TIP3    H1 8211   4.244   4.893   1.046
 2735TIP3    H2 8212   4.351   4.812   0.977
 2736TIP3   OH2 8213   3.928   2.577   0.218
 2736TIP3    H1 8214   3.946   2.599   0.126
 2736TIP3    H2 8215   3.871   2.501   0.213
 2737TIP3   OH2 8216   2.560   5.200   0.452
 2737TIP3    H1 8217   2.479   5.217   0.403
 2737TIP3    H2 8218   2.605   5.284   0.452
 2738TIP3   OH2 8219   0.839   4.083   4.635
 2738TIP3    H1 8220   0.916   4.033   4.660
 2738TIP3    H2 8221   0.872   4.149   4.573
 2739TIP3   OH2 8222   5.970   5.465   4.919
 2739TIP3    H1 8223   6.049   5.494   4.873
 2739TIP3    H2 8224   5.979   5.503   5.007
 2740TIP3   OH2 8225   0.941   3.520   1.218
 2740TIP3    H1 8226   0.955   3.430   1.188
 2740TIP3    H2 8227   0.923   3.511   1.312
 2741TIP3   OH2 8228   2.720   2.768   4.815
 2741TIP3    H1 8229   2.700   2.809   4.899
 2741TIP3    H2 8230   2.704   2.675   4.829
 2742TIP3   OH2 8231   4.577   4.073   2.225
 2742TIP3    H1 8232   4.578   3.978   2.231
 2742TIP3    H2 8233   4.648   4.094   2.165
 2743TIP3   OH2 8234   4.349   1.936   3.522
 2743TIP3    H1 8235   4.399   1.878   3.580
 2743TIP3    H2 8236   4.281   1.880   3.484
 2744TIP3   OH2 8237   0.072   1.250   4.785
 2744TIP3    H1 8238   0.077   1.345   4.791
 2744TIP3    H2 8239   0.002   1.226   4.845
 2745TIP3   OH2 8240   2.791   0.870   2.223
 2745TIP3    H1 8241   2.781   0.965   2.220
 2745TIP3    H2 8242   2.873   0.853   2.177
 2746TIP3   OH2 8243   1.588   0.350   2.318
 2746TIP3    H1 8244   1.624   0.388   2.237
 2746TIP3    H2 8245   1.665   0.316   2.364
 2747TIP3   OH2 8246   0.980   1.463   3.590
 2747TIP3    H1 8247   1.053   1.524   3.577
 2747TIP3    H2 8248   1.018   1.376   3.579
 2748TIP3   OH2 8249   0.691   1.564   3.113
 2748TIP3    H1 8250   0.758   1.500   3.090
 2748TIP3    H2 8251   0.718   1.645   3.070
 2749TIP3   OH2 8252   3.294   2.187   2.576
 2749TIP3    H1 8253   3.387   2.202   2.559
 2749TIP3    H2 8254   3.267   2.259   2.633
 2750TIP3   OH2 8255   3.418   2.568   0.767
 2750TIP3    H1 8256   3.501   2.523   0.751
 2750TIP3    H2 8257   3.375   2.570   0.681
 2751TIP3   OH2 8258   1.157   1.306   5.153
 2751TIP3    H1 8259   1.080   1.286   5.207
 2751TIP3    H2 8260   1.214   1.359   5.211
 2752TIP3   OH2 8261   2.981   0.357   3.319
 2752TIP3    H1 8262   2.934   0.402   3.249
 2752TIP3    H2 8263   2.996   0.269   3.284
 2753TIP3   OH2 8264   2.147   3.231   5.128
 2753TIP3    H1 8265   2.146   3.277   5.212
 2753TIP3    H2 8266   2.092   3.285   5.071
 2754TIP3   OH2 8267   2.240   3.906   0.840
 2754TIP3    H1 8268   2.288   3.830   0.808
 2754TIP3    H2 8269   2.287   3.981   0.803
 2755TIP3   OH2 8270   5.829   4.965   2.988
 2755TIP3    H1 8271   5.831   4.989   2.895
 2755TIP3    H2 8272   5.892   4.893   2.996
 2756TIP3   OH2 8273   0.815   2.906   4.346
 2756TIP3    H1 8274   0.763   2.978   4.309
 2756TIP3    H2 8275   0.781   2.896   4.435
 2757TIP3   OH2 8276   5.844   4.502   0.882
 2757TIP3    H1 8277   5.904   4.569   0.851
 2757TIP3    H2 8278   5.886   4.468   0.961
 2758TIP3   OH2 8279   4.822   2.859   0.993
 2758TIP3    H1 8280   4.769   2.829   1.067
 2758TIP3    H2 8281   4.881   2.785   0.974
 2759TIP3   OH2 8282   1.132   5.347   2.513
 2759TIP3    H1 8283   1.127   5.257   2.480
 2759TIP3    H2 8284   1.138   5.401   2.435
 2760TIP3   OH2 8285   3.555   4.866   2.833
 2760TIP3    H1 8286   3.595   4.830   2.754
 2760TIP3    H2 8287   3.614   4.936   2.860
 2761TIP3   OH2 8288   5.196   2.949   3.999
 2761TIP3    H1 8289   5.158   2.929   3.914
 2761TIP3    H2 8290   5.221   2.863   4.035
 2762TIP3   OH2 8291   5.963   3.182   0.922
 2762TIP3    H1 8292   5.893   3.233   0.879
 2762TIP3    H2 8293   5.917   3.131   0.988
 2763TIP3   OH2 8294   4.232   4.726   3.981
 2763TIP3    H1 8295   4.218   4.660   4.049
 2763TIP3    H2 8296   4.146   4.763   3.966
 2764TIP3   OH2 8297   2.665   1.196   3.145
 2764TIP3    H1 8298   2.639   1.106   3.164
 2764TIP3    H2 8299   2.665   1.239   3.231
 2765TIP3   OH2 8300   5.103   4.853   1.378
 2765TIP3    H1 8301   5.099   4.849   1.473
 2765TIP3    H2 8302   5.189   4.817   1.355
 2766TIP3   OH2 8303   6.244   3.126   1.956
 2766TIP3    H1 8304   6.182   3.124   1.884
 2766TIP3    H2 8305   6.207   3.188   2.019
 2767TIP3   OH2 8306   6.065   4.958   1.348
 2767TIP3    H1 8307   6.017   5.037   1.373
 2767TIP3    H2 8308   6.138   4.990   1.296
 2768TIP3   OH2 8309   3.468   4.573   1.272
 2768TIP3    H1 8310   3.417   4.652   1.288
 2768TIP3    H2 8311   3.457   4.557   1.178
 2769TIP3   OH2 8312   5.310   2.198   0.909
 2769TIP3    H1 8313   5.349   2.285   0.899
 2769TIP3    H2 8314   5.223   2.214   0.944
 2770TIP3   OH2 8315   4.211   0.082   1.589
 2770TIP3    H1 8316   4.250   0.019   1.528
 2770TIP3    H2 8317   4.162   0.028   1.651
 2771TIP3   OH2 8318   0.903   5.779   2.155
 2771TIP3    H1 8319   0.972   5.713   2.146
 2771TIP3    H2 8320   0.886   5.807   2.065
 2772TIP3   OH2 8321   0.441   0.325   2.242
 2772TIP3    H1 8322   0.393   0.343   2.162
 2772TIP3    H2 8323   0.519   0.278   2.213
 2773TIP3   OH2 8324   1.390   3.627   1.320
 2773TIP3    H1 8325   1.335   3.607   1.244
 2773TIP3    H2 8326   1.471   3.659   1.283
 2774TIP3   OH2 8327   3.472   1.105   2.488
 2774TIP3    H1 8328   3.381   1.135   2.479
 2774TIP3    H2 8329   3.525   1.182   2.467
 2775TIP3   OH2 8330   0.834   2.224   1.588
 2775TIP3    H1 8331   0.787   2.141   1.579
 2775TIP3    H2 8332   0.898   2.208   1.657
 2776TIP3   OH2 8333   1.799   5.930   3.379
 2776TIP3    H1 8334   1.732   5.997   3.368
 2776TIP3    H2 8335   1.805   5.919   3.474
 2777TIP3   OH2 8336   4.134   5.759   4.524
 2777TIP3    H1 8337   4.211   5.750   4.580
 2777TIP3    H2 8338   4.079   5.684   4.548
 2778TIP3   OH2 8339   1.465   2.581   4.852
 2778TIP3    H1 8340   1.557   2.597   4.874
 2778TIP3    H2 8341   1.441   2.654   4.795
 2779TIP3   OH2 8342   0.128   5.523   2.477
 2779TIP3    H1 8343   0.116   5.612   2.511
 2779TIP3    H2 8344   0.223   5.511   2.476
 2780TIP3   OH2 8345   1.709   4.281   3.511
 2780TIP3    H1 8346   1.765   4.210   3.543
 2780TIP3    H2 8347   1.762   4.360   3.521
 2781TIP3   OH2 8348   4.284   4.289   0.585
 2781TIP3    H1 8349   4.189   4.293   0.579
 2781TIP3    H2 8350   4.315   4.345   0.514
 2782TIP3   OH2 8351   3.579   3.936   0.902
 2782TIP3    H1 8352   3.518   3.942   0.975
 2782TIP3    H2 8353   3.559   3.852   0.860
 2783TIP3   OH2 8354   3.025   3.064   4.030
 2783TIP3    H1 8355   3.034   2.977   4.070
 2783TIP3    H2 8356   3.098   3.069   3.969
 2784TIP3   OH2 8357   4.313   2.295   4.081
 2784TIP3    H1 8358   4.395   2.338   4.055
 2784TIP3    H2 8359   4.341   2.228   4.144
 2785TIP3   OH2 8360   6.206   0.873   4.447
 2785TIP3    H1 8361   6.230   0.783   4.425
 2785TIP3    H2 8362   6.265   0.898   4.518
 2786TIP3   OH2 8363   4.819   5.349   1.540
 2786TIP3    H1 8364   4.909   5.323   1.557
 2786TIP3    H2 8365   4.766   5.275   1.570
 2787TIP3   OH2 8366   3.109   1.707   1.388
 2787TIP3    H1 8367   3.050   1.633   1.398
 2787TIP3    H2 8368   3.144   1.722   1.476
 2788TIP3   OH2 8369   0.949   1.874   2.341
 2788TIP3    H1 8370   0.863   1.910   2.361
 2788TIP3    H2 8371   0.957   1.797   2.398
 2789TIP3   OH2 8372   3.821   3.587   2.766
 2789TIP3    H1 8373   3.783   3.543   2.690
 2789TIP3    H2 8374   3.746   3.611   2.820
 2790TIP3   OH2 8375   3.369   5.005   1.752
 2790TIP3    H1 8376   3.364   4.919   1.795
 2790TIP3    H2 8377   3.291   5.051   1.782
 2791TIP3   OH2 8378   5.464   3.975   2.055
 2791TIP3    H1 8379   5.431   3.966   2.144
 2791TIP3    H2 8380   5.527   4.046   2.060
 2792TIP3   OH2 8381   1.282   5.846   3.274
 2792TIP3    H1 8382   1.305   5.810   3.188
 2792TIP3    H2 8383   1.200   5.802   3.297
 2793TIP3   OH2 8384   5.676   1.592   0.222
 2793TIP3    H1 8385   5.594   1.605   0.271
 2793TIP3    H2 8386   5.651   1.602   0.130
 2794TIP3   OH2 8387   5.037   5.971   1.017
 2794TIP3    H1 8388   4.971   5.913   0.979
 2794TIP3    H2 8389   5.121   5.933   0.989
 2795TIP3   OH2 8390   4.031   2.688   1.860
 2795TIP3    H1 8391   4.113   2.713   1.903
 2795TIP3    H2 8392   4.030   2.738   1.779
 2796TIP3   OH2 8393   5.995   2.495   4.655
 2796TIP3    H1 8394   5.965   2.561   4.592
 2796TIP3    H2 8395   5.998   2.541   4.738
 2797TIP3   OH2 8396   0.591   2.985   5.142
 2797TIP3    H1 8397   0.569   2.925   5.214
 2797TIP3    H2 8398   0.516   2.979   5.083
 2798TIP3   OH2 8399   5.753   1.649   3.143
 2798TIP3    H1 8400   5.795   1.606   3.216
 2798TIP3    H2 8401   5.661   1.624   3.150
 2799TIP3   OH2 8402   0.436   3.218   4.055
 2799TIP3    H1 8403   0.379   3.172   3.994
 2799TIP3    H2 8404   0.422   3.311   4.035
 2800TIP3   OH2 8405   3.782   4.253   2.608
 2800TIP3    H1 8406   3.758   4.322   2.670
 2800TIP3    H2 8407   3.700   4.225   2.569
 2801TIP3   OH2 8408   5.405   3.806   2.591
 2801TIP3    H1 8409   5.389   3.745   2.663
 2801TIP3    H2 8410   5.328   3.862   2.590
 2802TIP3   OH2 8411   2.496   1.842   3.088
 2802TIP3    H1 8412   2.454   1.828   3.173
 2802TIP3    H2 8413   2.425   1.830   3.025
 2803TIP3   OH2 8414   3.507   5.192   5.025
 2803TIP3    H1 8415   3.583   5.134   5.028
 2803TIP3    H2 8416   3.492   5.207   4.932
 2804TIP3   OH2 8417   5.167   3.673   5.040
 2804TIP3    H1 8418   5.083   3.664   5.083
 2804TIP3    H2 8419   5.232   3.660   5.109
 2805TIP3   OH2 8420   5.284   2.465   2.765
 2805TIP3    H1 8421   5.314   2.544   2.810
 2805TIP3    H2 8422   5.364   2.418   2.742
 2806TIP3   OH2 8423   2.343   0.854   4.237
 2806TIP3    H1 8424   2.301   0.929   4.280
 2806TIP3    H2 8425   2.369   0.888   4.152
 2807TIP3   OH2 8426   0.360   4.204   1.577
 2807TIP3    H1 8427   0.433   4.161   1.533
 2807TIP3    H2 8428   0.308   4.132   1.613
 2808TIP3   OH2 8429   0.663   2.578   1.251
 2808TIP3    H1 8430   0.655   2.510   1.184
 2808TIP3    H2 8431   0.757   2.582   1.270
 2809TIP3   OH2 8432   3.121   0.393   2.595
 2809TIP3    H1 8433   3.066   0.314   2.589
 2809TIP3    H2 8434   3.072   0.451   2.654
 2810TIP3   OH2 8435   5.312   2.687   2.914
 2810TIP3    H1 8436   5.225   2.724   2.926
 2810TIP3    H2 8437   5.372   2.749   2.955
 2811TIP3   OH2 8438   5.046   2.745   3.729
 2811TIP3    H1 8439   5.098   2.724   3.651
 2811TIP3    H2 8440   5.012   2.660   3.759
 2812TIP3   OH2 8441   5.216   4.178   1.736
 2812TIP3    H1 8442   5.291   4.121   1.752
 2812TIP3    H2 8443   5.243   4.263   1.770
 2813TIP3   OH2 8444   0.091   0.752   4.211
 2813TIP3    H1 8445   0.132   0.825   4.257
 2813TIP3    H2 8446   0.078   0.685   4.278
 2814TIP3   OH2 8447   3.994   0.715   1.860
 2814TIP3    H1 8448   3.952   0.758   1.785
 2814TIP3    H2 8449   3.943   0.745   1.936
 2815TIP3   OH2 8450   4.882   1.020   1.603
 2815TIP3    H1 8451   4.956   1.027   1.664
 2815TIP3    H2 8452   4.830   0.947   1.636
 2816TIP3   OH2 8453   4.049   3.673   2.869
 2816TIP3    H1 8454   4.016   3.752   2.910
 2816TIP3    H2 8455   3.981   3.647   2.808
 2817TIP3   OH2 8456   1.965   4.156   2.428
 2817TIP3    H1 8457   1.959   4.201   2.343
 2817TIP3    H2 8458   2.054   4.173   2.458
 2818TIP3   OH2 8459   3.355   3.237   1.852
 2818TIP3    H1 8460   3.439   3.276   1.827
 2818TIP3    H2 8461   3.361   3.227   1.947
 2819TIP3   OH2 8462   2.855   5.620   4.393
 2819TIP3    H1 8463   2.812   5.700   4.360
 2819TIP3    H2 8464   2.920   5.652   4.455
 2820TIP3   OH2 8465   1.925   1.600   2.996
 2820TIP3    H1 8466   1.830   1.590   3.000
 2820TIP3    H2 8467   1.941   1.693   3.012
 2821TIP3   OH2 8468   1.772   0.567   4.450
 2821TIP3    H1 8469   1.854   0.612   4.472
 2821TIP3    H2 8470   1.771   0.490   4.506
 2822TIP3   OH2 8471   2.585   4.250   1.341
 2822TIP3    H1 8472   2.678   4.272   1.349
 2822TIP3    H2 8473   2.569   4.187   1.411
 2823TIP3   OH2 8474   3.468   3.478   3.508
 2823TIP3    H1 8475   3.504   3.533   3.439
 2823TIP3    H2 8476   3.499   3.518   3.589
 2824TIP3   OH2 8477   3.025   1.345   0.492
 2824TIP3    H1 8478   3.060   1.418   0.442
 2824TIP3    H2 8479   2.945   1.380   0.533
 2825TIP3   OH2 8480   3.886   0.681   2.709
 2825TIP3    H1 8481   3.949   0.659   2.641
 2825TIP3    H2 8482   3.939   0.719   2.779
 2826TIP3   OH2 8483   2.530   1.667   4.635
 2826TIP3    H1 8484   2.465   1.601   4.661
 2826TIP3    H2 8485   2.520   1.736   4.701
 2827TIP3   OH2 8486   5.825   5.316   1.865
 2827TIP3    H1 8487   5.765   5.245   1.842
 2827TIP3    H2 8488   5.772   5.376   1.917
 2828TIP3   OH2 8489   0.614   3.458   3.502
 2828TIP3    H1 8490   0.629   3.407   3.581
 2828TIP3    H2 8491   0.519   3.464   3.495
 2829TIP3   OH2 8492   0.599   3.665   0.394
 2829TIP3    H1 8493   0.671   3.686   0.334
 2829TIP3    H2 8494   0.633   3.595   0.449
 2830TIP3   OH2 8495   3.378   1.876   4.179
 2830TIP3    H1 8496   3.446   1.910   4.237
 2830TIP3    H2 8497   3.423   1.810   4.126
 2831TIP3   OH2 8498   0.614   1.188   0.057
 2831TIP3    H1 8499   0.698   1.233   0.059
 2831TIP3    H2 8500   0.599   1.160   0.147
 2832TIP3   OH2 8501   5.786   2.061   2.084
 2832TIP3    H1 8502   5.831   2.111   2.016
 2832TIP3    H2 8503   5.845   2.066   2.160
 2833TIP3   OH2 8504   0.803   1.957   3.304
 2833TIP3    H1 8505   0.826   2.049   3.322
 2833TIP3    H2 8506   0.853   1.934   3.226
 2834TIP3   OH2 8507   1.093   4.331   0.166
 2834TIP3    H1 8508   1.013   4.369   0.131
 2834TIP3    H2 8509   1.064   4.277   0.239
 2835TIP3   OH2 8510   3.728   4.351   0.950
 2835TIP3    H1 8511   3.776   4.354   0.866
 2835TIP3    H2 8512   3.782   4.295   1.006
 2836TIP3   OH2 8513   0.073   0.945   0.253
 2836TIP3    H1 8514   0.100   0.943   0.161
 2836TIP3    H2 8515   0.135   0.887   0.298
 2837TIP3   OH2 8516   2.490   3.516   4.257
 2837TIP3    H1 8517   2.565   3.456   4.253
 2837TIP3    H2 8518   2.493   3.563   4.173
 2838TIP3   OH2 8519   2.954   2.046   0.969
 2838TIP3    H1 8520   3.048   2.062   0.980
 2838TIP3    H2 8521   2.925   2.111   0.905
 2839TIP3   OH2 8522   5.896   5.810   3.537
 2839TIP3    H1 8523   5.897   5.881   3.601
 2839TIP3    H2 8524   5.827   5.836   3.475
 2840TIP3   OH2 8525   3.827   4.075   0.834
 2840TIP3    H1 8526   3.849   3.983   0.847
 2840TIP3    H2 8527   3.737   4.074   0.802
 2841TIP3   OH2 8528   3.564   1.001   0.619
 2841TIP3    H1 8529   3.488   1.035   0.666
 2841TIP3    H2 8530   3.639   1.027   0.673
 2842TIP3   OH2 8531   5.580   4.873   0.779
 2842TIP3    H1 8532   5.659   4.879   0.833
 2842TIP3    H2 8533   5.515   4.927   0.825
 2843TIP3   OH2 8534   0.987   3.523   4.620
 2843TIP3    H1 8535   0.970   3.437   4.658
 2843TIP3    H2 8536   0.900   3.560   4.605
 2844TIP3   OH2 8537   0.897   2.980   3.900
 2844TIP3    H1 8538   0.900   3.053   3.963
 2844TIP3    H2 8539   0.981   2.985   3.855
 2845TIP3   OH2 8540   6.145   1.446   4.019
 2845TIP3    H1 8541   6.201   1.522   4.038
 2845TIP3    H2 8542   6.163   1.425   3.927
 2846TIP3   OH2 8543   6.080   2.901   2.290
 2846TIP3    H1 8544   6.052   2.810   2.302
 2846TIP3    H2 8545   6.174   2.899   2.309
 2847TIP3   OH2 8546   5.376   2.884   3.722
 2847TIP3    H1 8547   5.354   2.915   3.634
 2847TIP3    H2 8548   5.355   2.791   3.721
 2848TIP3   OH2 8549   2.341   2.776   0.519
 2848TIP3    H1 8550   2.338   2.767   0.614
 2848TIP3    H2 8551   2.250   2.785   0.492
 2849TIP3   OH2 8552   5.068   0.026   4.583
 2849TIP3    H1 8553   5.113   0.104   4.553
 2849TIP3    H2 8554   5.020   0.055   4.662
 2850TIP3   OH2 8555   5.639   5.351   0.959
 2850TIP3    H1 8556   5.566   5.413   0.957
 2850TIP3    H2 8557   5.652   5.331   1.051
 2851TIP3   OH2 8558   3.449   4.333   3.685
 2851TIP3    H1 8559   3.459   4.415   3.637
 2851TIP3    H2 8560   3.533   4.288   3.673
 2852TIP3   OH2 8561   0.830   1.297   1.006
 2852TIP3    H1 8562   0.861   1.314   0.917
 2852TIP3    H2 8563   0.907   1.314   1.061
 2853TIP3   OH2 8564   1.487   1.913   1.520
 2853TIP3    H1 8565   1.491   1.970   1.597
 2853TIP3    H2 8566   1.548   1.842   1.540
 2854TIP3   OH2 8567   3.318   2.454   0.493
 2854TIP3    H1 8568   3.248   2.435   0.554
 2854TIP3    H2 8569   3.282   2.432   0.407
 2855TIP3   OH2 8570   4.282   3.669   1.294
 2855TIP3    H1 8571   4.228   3.596   1.324
 2855TIP3    H2 8572   4.362   3.629   1.261
 2856TIP3   OH2 8573   3.665   4.095   1.358
 2856TIP3    H1 8574   3.756   4.099   1.387
 2856TIP3    H2 8575   3.658   4.010   1.313
 2857TIP3   OH2 8576   1.271   0.625   4.964
 2857TIP3    H1 8577   1.222   0.687   5.017
 2857TIP3    H2 8578   1.206   0.562   4.934
 2858TIP3   OH2 8579   5.377   1.261   1.530
 2858TIP3    H1 8580   5.321   1.313   1.472
 2858TIP3    H2 8581   5.359   1.294   1.617
 2859TIP3   OH2 8582   3.769   2.360   2.771
 2859TIP3    H1 8583   3.684   2.402   2.757
 2859TIP3    H2 8584   3.748   2.272   2.802
 2860TIP3   OH2 8585   5.203   0.759   4.329
 2860TIP3    H1 8586   5.258   0.812   4.272
 2860TIP3    H2 8587   5.127   0.737   4.276
 2861TIP3   OH2 8588   1.995   0.483   3.962
 2861TIP3    H1 8589   1.932   0.414   3.941
 2861TIP3    H2 8590   1.992   0.489   4.058
 2862TIP3   OH2 8591   2.310   3.540   0.524
 2862TIP3    H1 8592   2.333   3.490   0.446
 2862TIP3    H2 8593   2.237   3.493   0.563
 2863TIP3   OH2 8594   1.502   5.832   0.472
 2863TIP3    H1 8595   1.437   5.890   0.433
 2863TIP3    H2 8596   1.453   5.774   0.530
 2864TIP3   OH2 8597   2.617   3.295   2.587
 2864TIP3    H1 8598   2.532   3.251   2.601
 2864TIP3    H2 8599   2.627   3.351   2.663
 2865TIP3   OH2 8600   5.224   5.262   3.900
 2865TIP3    H1 8601   5.224   5.349   3.860
 2865TIP3    H2 8602   5.248   5.203   3.828
 2866TIP3   OH2 8603   0.402   3.427   1.476
 2866TIP3    H1 8604   0.497   3.443   1.479
 2866TIP3    H2 8605   0.381   3.395   1.564
 2867TIP3   OH2 8606   2.768   2.747   4.531
 2867TIP3    H1 8607   2.850   2.704   4.506
 2867TIP3    H2 8608   2.754   2.719   4.622
 2868TIP3   OH2 8609   2.062   4.341   5.082
 2868TIP3    H1 8610   2.069   4.430   5.049
 2868TIP3    H2 8611   2.126   4.291   5.031
 2869TIP3   OH2 8612   3.040   0.399   1.048
 2869TIP3    H1 8613   3.098   0.324   1.035
 2869TIP3    H2 8614   2.998   0.412   0.963
 2870TIP3   OH2 8615   1.139   3.455   0.610
 2870TIP3    H1 8616   1.160   3.545   0.635
 2870TIP3    H2 8617   1.071   3.428   0.672
 2871TIP3   OH2 8618   3.461   5.754   3.999
 2871TIP3    H1 8619   3.546   5.749   4.043
 2871TIP3    H2 8620   3.447   5.848   3.986
 2872TIP3   OH2 8621   2.495   0.896   4.870
 2872TIP3    H1 8622   2.434   0.862   4.934
 2872TIP3    H2 8623   2.565   0.935   4.922
 2873TIP3   OH2 8624   0.425   3.678   4.617
 2873TIP3    H1 8625   0.331   3.662   4.628
 2873TIP3    H2 8626   0.433   3.773   4.613
 2874TIP3   OH2 8627   0.515   3.758   3.271
 2874TIP3    H1 8628   0.551   3.830   3.219
 2874TIP3    H2 8629   0.561   3.764   3.355
 2875TIP3   OH2 8630   5.637   2.009   3.663
 2875TIP3    H1 8631   5.594   1.962   3.734
 2875TIP3    H2 8632   5.624   1.955   3.585
 2876TIP3   OH2 8633   5.020   0.708   4.103
 2876TIP3    H1 8634   4.953   0.645   4.132
 2876TIP3    H2 8635   5.055   0.670   4.022
 2877TIP3   OH2 8636   4.254   5.887   4.968
 2877TIP3    H1 8637   4.240   5.825   5.040
 2877TIP3    H2 8638   4.170   5.934   4.961
 2878TIP3   OH2 8639   3.932   3.268   4.978
 2878TIP3    H1 8640   3.851   3.293   4.935
 2878TIP3    H2 8641   3.992   3.247   4.906
 2879TIP3   OH2 8642   2.454   1.782   2.112
 2879TIP3    H1 8643   2.434   1.776   2.018
 2879TIP3    H2 8644   2.383   1.733   2.154
 2880TIP3   OH2 8645   4.264   2.440   2.678
 2880TIP3    H1 8646   4.268   2.353   2.637
 2880TIP3    H2 8647   4.341   2.443   2.735
 2881TIP3   OH2 8648   3.889   0.613   4.195
 2881TIP3    H1 8649   3.794   0.613   4.211
 2881TIP3    H2 8650   3.901   0.680   4.127
 2882TIP3   OH2 8651   3.983   0.809   4.001
 2882TIP3    H1 8652   3.932   0.862   3.940
 2882TIP3    H2 8653   3.991   0.863   4.079
 2883TIP3   OH2 8654   0.874   3.525   2.514
 2883TIP3    H1 8655   0.954   3.480   2.488
 2883TIP3    H2 8656   0.804   3.463   2.495
 2884TIP3   OH2 8657   5.340   4.640   5.121
 2884TIP3    H1 8658   5.342   4.554   5.164
 2884TIP3    H2 8659   5.247   4.656   5.105
 2885TIP3   OH2 8660   2.374   2.402   4.664
 2885TIP3    H1 8661   2.357   2.488   4.702
 2885TIP3    H2 8662   2.292   2.354   4.678
 2886TIP3   OH2 8663   2.083   3.164   1.000
 2886TIP3    H1 8664   2.132   3.181   1.081
 2886TIP3    H2 8665   2.015   3.102   1.026
 2887TIP3   OH2 8666   1.005   5.520   2.009
 2887TIP3    H1 8667   1.033   5.527   1.918
 2887TIP3    H2 8668   0.923   5.470   2.006
 2888TIP3   OH2 8669   4.525   0.591   4.350
 2888TIP3    H1 8670   4.543   0.538   4.428
 2888TIP3    H2 8671   4.500   0.676   4.385
 2889TIP3   OH2 8672   6.114   4.560   0.255
 2889TIP3    H1 8673   6.086   4.519   0.173
 2889TIP3    H2 8674   6.043   4.544   0.316
 2890TIP3   OH2 8675   1.437   0.669   4.751
 2890TIP3    H1 8676   1.448   0.763   4.767
 2890TIP3    H2 8677   1.353   0.647   4.790
 2891TIP3   OH2 8678   5.811   2.109   0.078
 2891TIP3    H1 8679   5.840   2.195   0.046
 2891TIP3    H2 8680   5.873   2.087   0.147
 2892TIP3   OH2 8681   0.634   4.470   0.662
 2892TIP3    H1 8682   0.578   4.392   0.655
 2892TIP3    H2 8683   0.609   4.524   0.588
 2893TIP3   OH2 8684   1.215   1.798   1.624
 2893TIP3    H1 8685   1.163   1.746   1.685
 2893TIP3    H2 8686   1.281   1.840   1.678
 2894TIP3   OH2 8687   3.687   5.717   2.123
 2894TIP3    H1 8688   3.727   5.718   2.036
 2894TIP3    H2 8689   3.758   5.690   2.182
 2895TIP3   OH2 8690   5.649   2.266   3.550
 2895TIP3    H1 8691   5.605   2.204   3.491
 2895TIP3    H2 8692   5.673   2.213   3.626
 2896TIP3   OH2 8693   1.738   3.983   4.573
 2896TIP3    H1 8694   1.760   3.958   4.662
 2896TIP3    H2 8695   1.725   4.078   4.577
 2897TIP3   OH2 8696   0.220   3.861   0.878
 2897TIP3    H1 8697   0.243   3.804   0.805
 2897TIP3    H2 8698   0.288   3.929   0.878
 2898TIP3   OH2 8699   4.868   1.162   0.605
 2898TIP3    H1 8700   4.890   1.233   0.665
 2898TIP3    H2 8701   4.939   1.162   0.541
 2899TIP3   OH2 8702   4.047   4.663   1.057
 2899TIP3    H1 8703   4.053   4.621   0.971
 2899TIP3    H2 8704   4.007   4.748   1.039
 2900TIP3   OH2 8705   4.871   3.256   1.065
 2900TIP3    H1 8706   4.938   3.188   1.071
 2900TIP3    H2 8707   4.793   3.216   1.103
 2901TIP3   OH2 8708   1.177   2.878   3.271
 2901TIP3    H1 8709   1.185   2.967   3.307
 2901TIP3    H2 8710   1.157   2.824   3.348
 2902TIP3   OH2 8711   0.453   1.382   3.437
 2902TIP3    H1 8712   0.370   1.383   3.485
 2902TIP3    H2 8713   0.475   1.474   3.425
 2903TIP3   OH2 8714   2.733   3.442   2.018
 2903TIP3    H1 8715   2.638   3.453   2.017
 2903TIP3    H2 8716   2.747   3.353   2.051
 2904TIP3   OH2 8717   4.446   0.205   4.398
 2904TIP3    H1 8718   4.440   0.119   4.355
 2904TIP3    H2 8719   4.400   0.264   4.339
 2905TIP3   OH2 8720   1.312   5.555   1.531
 2905TIP3    H1 8721   1.363   5.602   1.596
 2905TIP3    H2 8722   1.250   5.620   1.497
 2906TIP3   OH2 8723   2.113   3.796   5.022
 2906TIP3    H1 8724   2.099   3.796   4.927
 2906TIP3    H2 8725   2.127   3.704   5.044
 2907TIP3   OH2 8726   0.321   5.325   3.022
 2907TIP3    H1 8727   0.376   5.246   3.030
 2907TIP3    H2 8728   0.260   5.319   3.095
 2908TIP3   OH2 8729   2.597   3.384   0.405
 2908TIP3    H1 8730   2.612   3.479   0.406
 2908TIP3    H2 8731   2.623   3.355   0.492
 2909TIP3   OH2 8732   5.755   1.476   1.289
 2909TIP3    H1 8733   5.662   1.499   1.296
 2909TIP3    H2 8734   5.792   1.495   1.375
 2910TIP3   OH2 8735   2.062   2.223   2.038
 2910TIP3    H1 8736   2.144   2.191   1.998
 2910TIP3    H2 8737   2.054   2.313   2.007
 2911TIP3   OH2 8738   4.643   0.839   1.865
 2911TIP3    H1 8739   4.710   0.815   1.801
 2911TIP3    H2 8740   4.562   0.804   1.828
 2912TIP3   OH2 8741   5.853   2.600   2.148
 2912TIP3    H1 8742   5.852   2.663   2.220
 2912TIP3    H2 8743   5.879   2.652   2.071
 2913TIP3   OH2 8744   2.904   5.354   4.326
 2913TIP3    H1 8745   2.860   5.325   4.407
 2913TIP3    H2 8746   2.995   5.330   4.338
 2914TIP3   OH2 8747   5.048   4.414   2.974
 2914TIP3    H1 8748   5.124   4.434   2.920
 2914TIP3    H2 8749   5.064   4.459   3.057
 2915TIP3   OH2 8750   1.696   3.672   2.962
 2915TIP3    H1 8751   1.685   3.662   2.868
 2915TIP3    H2 8752   1.624   3.622   3.000
 2916TIP3   OH2 8753   1.863   1.223   4.611
 2916TIP3    H1 8754   1.789   1.209   4.670
 2916TIP3    H2 8755   1.936   1.177   4.652
 2917TIP3   OH2 8756   4.314   5.857   4.708
 2917TIP3    H1 8757   4.408   5.872   4.714
 2917TIP3    H2 8758   4.282   5.863   4.798
 2918TIP3   OH2 8759   6.247   4.127   0.001
 2918TIP3    H1 8760   6.251   4.098  -0.090
 2918TIP3    H2 8761   6.325   4.088   0.042
 2919TIP3   OH2 8762   2.577   1.438   1.314
 2919TIP3    H1 8763   2.560   1.454   1.407
 2919TIP3    H2 8764   2.498   1.393   1.283
 2920TIP3   OH2 8765   5.854   3.337   3.369
 2920TIP3    H1 8766   5.863   3.433   3.366
 2920TIP3    H2 8767   5.940   3.306   3.399
 2921TIP3   OH2 8768   0.350   4.771   1.856
 2921TIP3    H1 8769   0.385   4.703   1.913
 2921TIP3    H2 8770   0.329   4.727   1.774
 2922TIP3   OH2 8771   0.976   3.432   2.230
 2922TIP3    H1 8772   0.915   3.506   2.239
 2922TIP3    H2 8773   1.060   3.473   2.210
 2923TIP3   OH2 8774   0.699   2.962   1.057
 2923TIP3    H1 8775   0.723   3.054   1.047
 2923TIP3    H2 8776   0.779   2.913   1.038
 2924TIP3   OH2 8777   6.189   1.727   1.936
 2924TIP3    H1 8778   6.276   1.714   1.899
 2924TIP3    H2 8779   6.172   1.649   1.988
 2925TIP3   OH2 8780   0.419   2.665   1.690
 2925TIP3    H1 8781   0.465   2.653   1.607
 2925TIP3    H2 8782   0.430   2.581   1.735
 2926TIP3   OH2 8783   1.696   0.448   3.618
 2926TIP3    H1 8784   1.692   0.405   3.533
 2926TIP3    H2 8785   1.782   0.490   3.620
 2927TIP3   OH2 8786   3.537   0.960   3.304
 2927TIP3    H1 8787   3.588   0.917   3.236
 2927TIP3    H2 8788   3.448   0.924   3.293
 2928TIP3   OH2 8789   3.954   2.532   4.254
 2928TIP3    H1 8790   4.031   2.573   4.295
 2928TIP3    H2 8791   3.989   2.455   4.210
 2929TIP3   OH2 8792   2.372   2.638   3.906
 2929TIP3    H1 8793   2.429   2.715   3.918
 2929TIP3    H2 8794   2.322   2.633   3.988
 2930TIP3   OH2 8795   0.449   5.232   3.559
 2930TIP3    H1 8796   0.359   5.217   3.530
 2930TIP3    H2 8797   0.442   5.297   3.629
 2931TIP3   OH2 8798   5.473   1.700   2.274
 2931TIP3    H1 8799   5.427   1.706   2.190
 2931TIP3    H2 8800   5.427   1.631   2.321
 2932TIP3   OH2 8801   2.661   5.443   0.536
 2932TIP3    H1 8802   2.700   5.431   0.623
 2932TIP3    H2 8803   2.607   5.521   0.544
 2933TIP3   OH2 8804   0.583   2.826   3.295
 2933TIP3    H1 8805   0.546   2.855   3.378
 2933TIP3    H2 8806   0.672   2.860   3.296
 2934TIP3   OH2 8807   2.090   3.835   1.954
 2934TIP3    H1 8808   2.047   3.897   1.894
 2934TIP3    H2 8809   2.024   3.770   1.973
 2935TIP3   OH2 8810   3.219   1.314   1.038
 2935TIP3    H1 8811   3.151   1.359   1.088
 2935TIP3    H2 8812   3.206   1.344   0.948
 2936TIP3   OH2 8813   1.611   1.202   4.435
 2936TIP3    H1 8814   1.570   1.125   4.474
 2936TIP3    H2 8815   1.702   1.176   4.420
 2937TIP3   OH2 8816   5.381   1.017   3.395
 2937TIP3    H1 8817   5.452   0.979   3.343
 2937TIP3    H2 8818   5.398   1.111   3.393
 2938TIP3   OH2 8819   4.510   1.006   3.693
 2938TIP3    H1 8820   4.545   0.980   3.779
 2938TIP3    H2 8821   4.417   0.988   3.699
 2939TIP3   OH2 8822   4.964   5.452   4.532
 2939TIP3    H1 8823   5.035   5.395   4.561
 2939TIP3    H2 8824   4.963   5.523   4.597
 2940TIP3   OH2 8825   3.435   5.447   2.471
 2940TIP3    H1 8826   3.357   5.422   2.422
 2940TIP3    H2 8827   3.479   5.512   2.416
 2941TIP3   OH2 8828   0.174   2.603   1.212
 2941TIP3    H1 8829   0.081   2.586   1.227
 2941TIP3    H2 8830   0.216   2.582   1.296
 2942TIP3   OH2 8831   3.791   5.031   0.394
 2942TIP3    H1 8832   3.845   4.986   0.328
 2942TIP3    H2 8833   3.735   4.962   0.429
 2943TIP3   OH2 8834   3.379   2.156   1.756
 2943TIP3    H1 8835   3.430   2.237   1.754
 2943TIP3    H2 8836   3.444   2.086   1.749
 2944TIP3   OH2 8837   4.673   1.189   3.442
 2944TIP3    H1 8838   4.676   1.284   3.447
 2944TIP3    H2 8839   4.579   1.168   3.440
 2945TIP3   OH2 8840   4.362   3.384   2.711
 2945TIP3    H1 8841   4.429   3.379   2.642
 2945TIP3    H2 8842   4.295   3.441   2.676
 2946TIP3   OH2 8843   1.801   5.692   4.032
 2946TIP3    H1 8844   1.780   5.783   4.049
 2946TIP3    H2 8845   1.721   5.644   4.054
 2947TIP3   OH2 8846   5.648   1.657   0.540
 2947TIP3    H1 8847   5.727   1.621   0.500
 2947TIP3    H2 8848   5.680   1.729   0.594
 2948TIP3   OH2 8849   5.788   4.604   4.505
 2948TIP3    H1 8850   5.697   4.620   4.528
 2948TIP3    H2 8851   5.789   4.513   4.475
 2949TIP3   OH2 8852   5.420   0.504   0.736
 2949TIP3    H1 8853   5.363   0.518   0.660
 2949TIP3    H2 8854   5.360   0.492   0.809
 2950TIP3   OH2 8855   1.284   3.187   4.377
 2950TIP3    H1 8856   1.298   3.231   4.293
 2950TIP3    H2 8857   1.372   3.165   4.408
 2951TIP3   OH2 8858   1.222   0.364   2.467
 2951TIP3    H1 8859   1.196   0.421   2.394
 2951TIP3    H2 8860   1.157   0.381   2.535
 2952TIP3   OH2 8861   4.756   2.203   2.690
 2952TIP3    H1 8862   4.708   2.250   2.622
 2952TIP3    H2 8863   4.759   2.113   2.659
 2953TIP3   OH2 8864   4.709   0.559   3.454
 2953TIP3    H1 8865   4.642   0.626   3.461
 2953TIP3    H2 8866   4.693   0.518   3.368
 2954TIP3   OH2 8867   5.623   3.856   3.638
 2954TIP3    H1 8868   5.675   3.857   3.718
 2954TIP3    H2 8869   5.686   3.840   3.568
 2955TIP3   OH2 8870   4.569   0.786   3.495
 2955TIP3    H1 8871   4.540   0.820   3.411
 2955TIP3    H2 8872   4.575   0.863   3.552
 2956TIP3   OH2 8873   1.145   2.112   0.720
 2956TIP3    H1 8874   1.150   2.059   0.640
 2956TIP3    H2 8875   1.230   2.099   0.762
 2957TIP3   OH2 8876   4.630   5.655   2.608
 2957TIP3    H1 8877   4.718   5.672   2.575
 2957TIP3    H2 8878   4.644   5.598   2.684
 2958TIP3   OH2 8879   5.319   1.001   1.516
 2958TIP3    H1 8880   5.353   1.085   1.545
 2958TIP3    H2 8881   5.397   0.946   1.505
 2959TIP3   OH2 8882   1.494   2.969   5.064
 2959TIP3    H1 8883   1.564   2.964   4.999
 2959TIP3    H2 8884   1.419   2.928   5.022
 2960TIP3   OH2 8885   3.107   2.326   2.103
 2960TIP3    H1 8886   3.182   2.364   2.058
 2960TIP3    H2 8887   3.141   2.296   2.187
 2961TIP3   OH2 8888   0.918   0.115   3.245
 2961TIP3    H1 8889   0.879   0.037   3.284
 2961TIP3    H2 8890   0.934   0.091   3.154
 2962TIP3   OH2 8891   0.495   2.651   2.643
 2962TIP3    H1 8892   0.455   2.703   2.573
 2962TIP3    H2 8893   0.501   2.563   2.606
 2963TIP3   OH2 8894   0.955  -0.008   2.602
 2963TIP3    H1 8895   1.005  -0.036   2.678
 2963TIP3    H2 8896   0.891   0.054   2.636
 2964TIP3   OH2 8897   6.308   5.629   0.592
 2964TIP3    H1 8898   6.375   5.600   0.655
 2964TIP3    H2 8899   6.279   5.548   0.550
 2965TIP3   OH2 8900   3.812   5.357   4.764
 2965TIP3    H1 8901   3.740   5.297   4.744
 2965TIP3    H2 8902   3.770   5.436   4.795
 2966TIP3   OH2 8903   2.462   3.880   2.153
 2966TIP3    H1 8904   2.451   3.836   2.069
 2966TIP3    H2 8905   2.493   3.812   2.213
 2967TIP3   OH2 8906   3.746   3.304   2.311
 2967TIP3    H1 8907   3.729   3.242   2.241
 2967TIP3    H2 8908   3.793   3.253   2.377
 2968TIP3   OH2 8909   2.420   3.429   2.367
 2968TIP3    H1 8910   2.338   3.460   2.330
 2968TIP3    H2 8911   2.394   3.372   2.439
 2969TIP3   OH2 8912   3.531   0.414   3.094
 2969TIP3    H1 8913   3.573   0.364   3.163
 2969TIP3    H2 8914   3.512   0.349   3.026
 2970TIP3   OH2 8915   6.179   4.483   1.465
 2970TIP3    H1 8916   6.229   4.459   1.387
 2970TIP3    H2 8917   6.140   4.400   1.495
 2971TIP3   OH2 8918   0.219   4.552   1.100
 2971TIP3    H1 8919   0.132   4.586   1.119
 2971TIP3    H2 8920   0.278   4.605   1.155
 2972TIP3   OH2 8921   1.470   3.241   2.337
 2972TIP3    H1 8922   1.443   3.197   2.256
 2972TIP3    H2 8923   1.556   3.203   2.358
 2973TIP3   OH2 8924   0.296   1.526   2.834
 2973TIP3    H1 8925   0.342   1.551   2.754
 2973TIP3    H2 8926   0.366   1.510   2.897
 2974TIP3   OH2 8927   0.088   5.802   2.547
 2974TIP3    H1 8928   0.095   5.848   2.631
 2974TIP3    H2 8929   0.146   5.851   2.489
 2975TIP3   OH2 8930   0.757   4.640   4.233
 2975TIP3    H1 8931   0.801   4.721   4.260
 2975TIP3    H2 8932   0.772   4.635   4.138
 2976TIP3   OH2 8933   3.331   0.097   1.317
 2976TIP3    H1 8934   3.423   0.105   1.291
 2976TIP3    H2 8935   3.287   0.168   1.271
 2977TIP3   OH2 8936   2.652   1.510   4.079
 2977TIP3    H1 8937   2.567   1.516   4.121
 2977TIP3    H2 8938   2.665   1.596   4.039
 2978TIP3   OH2 8939   5.051   0.252   2.455
 2978TIP3    H1 8940   5.060   0.173   2.509
 2978TIP3    H2 8941   5.120   0.310   2.488
 2979TIP3   OH2 8942   3.120   2.513   4.041
 2979TIP3    H1 8943   3.033   2.473   4.043
 2979TIP3    H2 8944   3.179   2.445   4.075
 2980TIP3   OH2 8945   4.048   3.138   0.440
 2980TIP3    H1 8946   4.093   3.220   0.419
 2980TIP3    H2 8947   3.990   3.161   0.513
 2981TIP3   OH2 8948   3.072   3.455   4.461
 2981TIP3    H1 8949   3.071   3.543   4.497
 2981TIP3    H2 8950   2.986   3.419   4.480
 2982TIP3   OH2 8951   1.846   0.279   1.886
 2982TIP3    H1 8952   1.935   0.277   1.921
 2982TIP3    H2 8953   1.797   0.332   1.948
 2983TIP3   OH2 8954   1.175   5.499   3.860
 2983TIP3    H1 8955   1.087   5.522   3.830
 2983TIP3    H2 8956   1.192   5.558   3.934
 2984TIP3   OH2 8957   4.295   3.306   2.410
 2984TIP3    H1 8958   4.235   3.291   2.483
 2984TIP3    H2 8959   4.261   3.385   2.367
 2985TIP3   OH2 8960   5.905   2.139   2.922
 2985TIP3    H1 8961   5.878   2.120   3.012
 2985TIP3    H2 8962   5.994   2.105   2.916
 2986TIP3   OH2 8963   1.500   2.197   2.439
 2986TIP3    H1 8964   1.493   2.106   2.410
 2986TIP3    H2 8965   1.435   2.205   2.509
 2987TIP3   OH2 8966   0.740   2.304   2.142
 2987TIP3    H1 8967   0.777   2.219   2.164
 2987TIP3    H2 8968   0.656   2.283   2.099
 2988TIP3   OH2 8969   5.668   5.437   3.163
 2988TIP3    H1 8970   5.626   5.470   3.084
 2988TIP3    H2 8971   5.642   5.345   3.167
 2989TIP3   OH2 8972   5.630   5.452   3.432
 2989TIP3    H1 8973   5.657   5.364   3.459
 2989TIP3    H2 8974   5.662   5.460   3.342
 2990TIP3   OH2 8975   2.764   5.084   4.164
 2990TIP3    H1 8976   2.847   5.103   4.120
 2990TIP3    H2 8977   2.767   4.989   4.179
 2991TIP3   OH2 8978   6.213   1.745   5.038
 2991TIP3    H1 8979   6.182   1.769   5.126
 2991TIP3    H2 8980   6.177   1.813   4.981
 2992TIP3   OH2 8981   1.630   1.903   0.940
 2992TIP3    H1 8982   1.655   1.818   0.977
 2992TIP3    H2 8983   1.657   1.967   1.006
 2993TIP3   OH2 8984   4.205   1.929   0.700
 2993TIP3    H1 8985   4.130   1.922   0.758
 2993TIP3    H2 8986   4.258   1.851   0.720
 2994TIP3   OH2 8987   2.764   4.083   3.132
 2994TIP3    H1 8988   2.853   4.049   3.126
 2994TIP3    H2 8989   2.708   4.007   3.119
 2995TIP3   OH2 8990   0.317   0.653   3.279
 2995TIP3    H1 8991   0.398   0.644   3.230
 2995TIP3    H2 8992   0.259   0.703   3.221
 2996TIP3   OH2 8993   1.081   3.585   4.017
 2996TIP3    H1 8994   1.077   3.597   4.112
 2996TIP3    H2 8995   1.011   3.639   3.983
 2997TIP3   OH2 8996   2.418   0.253   3.000
 2997TIP3    H1 8997   2.400   0.196   3.074
 2997TIP3    H2 8998   2.341   0.244   2.944
 2998TIP3   OH2 8999   6.111   4.767   2.303
 2998TIP3    H1 9000   6.065   4.798   2.381
 2998TIP3    H2 9001   6.146   4.846   2.262
 2999TIP3   OH2 9002   2.271   1.771   0.827
 2999TIP3    H1 9003   2.293   1.833   0.758
 2999TIP3    H2 9004   2.282   1.821   0.908
 3000TIP3   OH2 9005   1.979   3.271   0.487
 3000TIP3    H1 9006   2.008   3.189   0.447
 3000TIP3    H2 9007   2.009   3.265   0.578
 3001TIP3   OH2 9008   1.356   4.915   1.296
 3001TIP3    H1 9009   1.273   4.963   1.300
 3001TIP3    H2 9010   1.411   4.957   1.362
 3002TIP3   OH2 9011   6.266   2.524   2.241
 3002TIP3    H1 9012   6.198   2.591   2.231
 3002TIP3    H2 9013   6.332   2.565   2.296
 3003TIP3   OH2 9014   6.034   1.775   1.367
 3003TIP3    H1 9015   5.971   1.771   1.439
 3003TIP3    H2 9016   5.984   1.811   1.294
 3004TIP3   OH2 9017   3.932   1.573   1.746
 3004TIP3    H1 9018   3.978   1.557   1.663
 3004TIP3    H2 9019   3.848   1.530   1.735
 3005TIP3   OH2 9020   4.248   2.709   4.715
 3005TIP3    H1 9021   4.178   2.729   4.652
 3005TIP3    H2 9022   4.213   2.636   4.767
 3006TIP3   OH2 9023   4.408   5.734   3.913
 3006TIP3    H1 9024   4.341   5.672   3.883
 3006TIP3    H2 9025   4.438   5.699   3.996
 3007TIP3   OH2 9026   5.343   3.800   4.593
 3007TIP3    H1 9027   5.313   3.714   4.564
 3007TIP3    H2 9028   5.320   3.804   4.685
 3008TIP3   OH2 9029   6.166   4.457   3.013
 3008TIP3    H1 9030   6.227   4.420   3.077
 3008TIP3    H2 9031   6.184   4.551   3.014
 3009TIP3   OH2 9032   4.736   4.616   0.596
 3009TIP3    H1 9033   4.804   4.682   0.608
 3009TIP3    H2 9034   4.705   4.630   0.507
 3010TIP3   OH2 9035   5.094   4.721   3.626
 3010TIP3    H1 9036   5.027   4.782   3.593
 3010TIP3    H2 9037   5.064   4.635   3.598
 3011TIP3   OH2 9038   0.315   1.199   0.321
 3011TIP3    H1 9039   0.294   1.147   0.398
 3011TIP3    H2 9040   0.398   1.163   0.290
 3012TIP3   OH2 9041  -0.014   3.623   3.860
 3012TIP3    H1 9042   0.063   3.680   3.861
 3012TIP3    H2 9043  -0.052   3.632   3.947
 3013TIP3   OH2 9044   3.551   5.097   2.189
 3013TIP3    H1 9045   3.599   5.086   2.106
 3013TIP3    H2 9046   3.580   5.023   2.243
 3014TIP3   OH2 9047   0.760   2.075   0.859
 3014TIP3    H1 9048   0.671   2.074   0.893
 3014TIP3    H2 9049   0.759   2.012   0.787
 3015TIP3   OH2 9050   2.691   0.803   1.696
 3015TIP3    H1 9051   2.636   0.880   1.680
 3015TIP3    H2 9052   2.644   0.731   1.653
 3016TIP3   OH2 9053   4.729   2.540   4.047
 3016TIP3    H1 9054   4.673   2.469   4.077
 3016TIP3    H2 9055   4.702   2.555   3.956
 3017TIP3   OH2 9056   2.808   3.178   4.586
 3017TIP3    H1 9057   2.732   3.230   4.560
 3017TIP3    H2 9058   2.834   3.133   4.505
 3018TIP3   OH2 9059   2.804   5.564   3.784
 3018TIP3    H1 9060   2.741   5.582   3.715
 3018TIP3    H2 9061   2.817   5.648   3.828
 3019TIP3   OH2 9062   6.122   5.489   3.741
 3019TIP3    H1 9063   6.088   5.527   3.660
 3019TIP3    H2 9064   6.045   5.467   3.792
 3020TIP3   OH2 9065   2.934   3.149   0.082
 3020TIP3    H1 9066   2.999   3.086   0.114
 3020TIP3    H2 9067   2.865   3.096   0.044
 3021TIP3   OH2 9068   2.248   1.416   2.900
 3021TIP3    H1 9069   2.178   1.373   2.851
 3021TIP3    H2 9070   2.293   1.345   2.945
 3022TIP3   OH2 9071   3.913   2.382   4.845
 3022TIP3    H1 9072   3.866   2.460   4.817
 3022TIP3    H2 9073   3.921   2.391   4.940
 3023TIP3   OH2 9074   1.478   2.710   3.882
 3023TIP3    H1 9075   1.546   2.674   3.825
 3023TIP3    H2 9076   1.397   2.670   3.852
 3024TIP3   OH2 9077   1.817   5.696   4.725
 3024TIP3    H1 9078   1.887   5.642   4.762
 3024TIP3    H2 9079   1.858   5.744   4.653
 3025TIP3   OH2 9080   2.743   5.145   3.510
 3025TIP3    H1 9081   2.722   5.114   3.422
 3025TIP3    H2 9082   2.811   5.084   3.540
 3026TIP3   OH2 9083   5.633   4.500   0.589
 3026TIP3    H1 9084   5.668   4.589   0.597
 3026TIP3    H2 9085   5.580   4.487   0.667
 3027TIP3   OH2 9086   4.432   1.455   2.975
 3027TIP3    H1 9087   4.446   1.443   3.068
 3027TIP3    H2 9088   4.510   1.501   2.944
 3028TIP3   OH2 9089   5.510   0.226   1.511
 3028TIP3    H1 9090   5.543   0.303   1.465
 3028TIP3    H2 9091   5.586   0.168   1.519
 3029TIP3   OH2 9092   6.000   2.463   2.849
 3029TIP3    H1 9093   6.039   2.543   2.885
 3029TIP3    H2 9094   5.958   2.421   2.923
 3030TIP3   OH2 9095   0.439   1.778   1.872
 3030TIP3    H1 9096   0.350   1.813   1.878
 3030TIP3    H2 9097   0.474   1.788   1.960
 3031TIP3   OH2 9098   4.647   5.400   4.072
 3031TIP3    H1 9099   4.691   5.324   4.110
 3031TIP3    H2 9100   4.609   5.367   3.991
 3032TIP3   OH2 9101   0.582   4.186   1.413
 3032TIP3    H1 9102   0.630   4.177   1.496
 3032TIP3    H2 9103   0.610   4.271   1.378
 3033TIP3   OH2 9104   2.874   1.411   2.820
 3033TIP3    H1 9105   2.899   1.503   2.819
 3033TIP3    H2 9106   2.865   1.389   2.912
 3034TIP3   OH2 9107   1.306   0.484   3.207
 3034TIP3    H1 9108   1.267   0.398   3.190
 3034TIP3    H2 9109   1.364   0.500   3.132
 3035TIP3   OH2 9110   5.914   3.990   4.968
 3035TIP3    H1 9111   5.939   3.904   5.001
 3035TIP3    H2 9112   5.819   3.987   4.960
 3036TIP3   OH2 9113   4.459   2.284   4.511
 3036TIP3    H1 9114   4.403   2.258   4.584
 3036TIP3    H2 9115   4.536   2.228   4.520
 3037TIP3   OH2 9116   2.438   5.142   5.011
 3037TIP3    H1 9117   2.376   5.080   4.973
 3037TIP3    H2 9118   2.466   5.101   5.092
 3038TIP3   OH2 9119   2.513   3.412   1.686
 3038TIP3    H1 9120   2.482   3.429   1.775
 3038TIP3    H2 9121   2.528   3.318   1.683
 3039TIP3   OH2 9122   4.859   0.819   4.389
 3039TIP3    H1 9123   4.898   0.731   4.385
 3039TIP3    H2 9124   4.885   0.860   4.306
 3040TIP3   OH2 9125   5.191   2.076   3.365
 3040TIP3    H1 9126   5.148   2.047   3.446
 3040TIP3    H2 9127   5.120   2.110   3.311
 3041TIP3   OH2 9128   5.705   0.075   3.093
 3041TIP3    H1 9129   5.715   0.115   3.007
 3041TIP3    H2 9130   5.617   0.099   3.121
 3042TIP3   OH2 9131   0.263   4.846   3.369
 3042TIP3    H1 9132   0.307   4.890   3.297
 3042TIP3    H2 9133   0.218   4.916   3.416
 3043TIP3   OH2 9134   5.777   0.155   3.802
 3043TIP3    H1 9135   5.790   0.116   3.716
 3043TIP3    H2 9136   5.683   0.172   3.807
 3044TIP3   OH2 9137   2.762   2.640   1.951
 3044TIP3    H1 9138   2.792   2.675   2.035
 3044TIP3    H2 9139   2.836   2.589   1.918
 3045TIP3   OH2 9140   2.926   4.583   3.614
 3045TIP3    H1 9141   2.914   4.519   3.544
 3045TIP3    H2 9142   2.863   4.557   3.682
 3046TIP3   OH2 9143   5.768   1.647   4.848
 3046TIP3    H1 9144   5.731   1.670   4.763
 3046TIP3    H2 9145   5.854   1.689   4.849
 3047TIP3   OH2 9146   3.972   1.873   3.921
 3047TIP3    H1 9147   3.976   1.968   3.916
 3047TIP3    H2 9148   4.062   1.846   3.940
 3048TIP3   OH2 9149   5.088   5.182   2.625
 3048TIP3    H1 9150   5.181   5.199   2.641
 3048TIP3    H2 9151   5.079   5.088   2.635
 3049TIP3   OH2 9152   0.593   0.601   3.203
 3049TIP3    H1 9153   0.645   0.521   3.203
 3049TIP3    H2 9154   0.656   0.670   3.223
 3050TIP3   OH2 9155   0.552   0.439   3.790
 3050TIP3    H1 9156   0.562   0.351   3.828
 3050TIP3    H2 9157   0.465   0.437   3.749
 3051TIP3   OH2 9158   4.020   1.686   4.272
 3051TIP3    H1 9159   4.021   1.590   4.275
 3051TIP3    H2 9160   3.927   1.709   4.262
 3052TIP3   OH2 9161   2.714   4.969   0.390
 3052TIP3    H1 9162   2.655   5.033   0.430
 3052TIP3    H2 9163   2.789   5.021   0.362
 3053TIP3   OH2 9164   3.184   1.045   2.604
 3053TIP3    H1 9165   3.185   0.965   2.657
 3053TIP3    H2 9166   3.185   1.116   2.668
 3054TIP3   OH2 9167   1.410   1.429   3.359
 3054TIP3    H1 9168   1.363   1.398   3.282
 3054TIP3    H2 9169   1.480   1.365   3.372
 3055TIP3   OH2 9170   4.780   5.617   1.235
 3055TIP3    H1 9171   4.685   5.625   1.245
 3055TIP3    H2 9172   4.816   5.651   1.317
 3056TIP3   OH2 9173   1.984   0.713   3.327
 3056TIP3    H1 9174   2.050   0.738   3.263
 3056TIP3    H2 9175   1.900   0.726   3.283
 3057TIP3   OH2 9176   1.964   3.973   4.413
 3057TIP3    H1 9177   1.994   3.885   4.393
 3057TIP3    H2 9178   1.900   3.961   4.484
 3058TIP3   OH2 9179   5.686   5.375   4.429
 3058TIP3    H1 9180   5.675   5.281   4.447
 3058TIP3    H2 9181   5.771   5.396   4.467
 3059TIP3   OH2 9182   5.323   0.689   0.292
 3059TIP3    H1 9183   5.301   0.667   0.382
 3059TIP3    H2 9184   5.411   0.727   0.298
 3060TIP3   OH2 9185   4.410   5.624   1.042
 3060TIP3    H1 9186   4.465   5.699   1.020
 3060TIP3    H2 9187   4.422   5.612   1.136
 3061TIP3   OH2 9188   1.828   1.782   2.558
 3061TIP3    H1 9189   1.758   1.758   2.497
 3061TIP3    H2 9190   1.856   1.869   2.528
 3062TIP3   OH2 9191   3.594   2.078   0.256
 3062TIP3    H1 9192   3.625   1.990   0.279
 3062TIP3    H2 9193   3.605   2.082   0.161
 3063TIP3   OH2 9194   5.602   4.193   1.155
 3063TIP3    H1 9195   5.674   4.165   1.212
 3063TIP3    H2 9196   5.547   4.115   1.146
 3064TIP3   OH2 9197   4.513   4.605   3.436
 3064TIP3    H1 9198   4.590   4.550   3.419
 3064TIP3    H2 9199   4.475   4.568   3.516
 3065TIP3   OH2 9200   5.613   3.510   3.443
 3065TIP3    H1 9201   5.658   3.542   3.521
 3065TIP3    H2 9202   5.669   3.439   3.410
 3066TIP3   OH2 9203   1.907   5.821   0.951
 3066TIP3    H1 9204   1.954   5.755   1.002
 3066TIP3    H2 9205   1.968   5.895   0.945
 3067TIP3   OH2 9206   3.554   3.359   0.540
 3067TIP3    H1 9207   3.607   3.433   0.512
 3067TIP3    H2 9208   3.613   3.284   0.535
 3068TIP3   OH2 9209   3.331   1.317   4.635
 3068TIP3    H1 9210   3.324   1.302   4.729
 3068TIP3    H2 9211   3.292   1.240   4.596
 3069TIP3   OH2 9212   1.823   0.941   0.689
 3069TIP3    H1 9213   1.757   0.951   0.620
 3069TIP3    H2 9214   1.905   0.966   0.648
 3070TIP3   OH2 9215   2.458   2.915   4.755
 3070TIP3    H1 9216   2.536   2.872   4.721
 3070TIP3    H2 9217   2.412   2.946   4.676
 3071TIP3   OH2 9218   5.806   5.044   3.851
 3071TIP3    H1 9219   5.724   5.026   3.897
 3071TIP3    H2 9220   5.798   5.135   3.822
 3072TIP3   OH2 9221   1.089   5.057   3.605
 3072TIP3    H1 9222   1.118   5.144   3.630
 3072TIP3    H2 9223   1.007   5.071   3.557
 3073TIP3   OH2 9224   1.024   3.301   4.938
 3073TIP3    H1 9225   1.027   3.207   4.918
 3073TIP3    H2 9226   0.937   3.329   4.910
 3074TIP3   OH2 9227   5.876   5.429   2.483
 3074TIP3    H1 9228   5.957   5.477   2.468
 3074TIP3    H2 9229   5.821   5.453   2.408
 3075TIP3   OH2 9230   2.079   2.802   0.051
 3075TIP3    H1 9231   2.008   2.858   0.081
 3075TIP3    H2 9232   2.036   2.725   0.013
 3076TIP3   OH2 9233   3.799   0.155   3.836
 3076TIP3    H1 9234   3.884   0.187   3.809
 3076TIP3    H2 9235   3.764   0.110   3.759
 3077TIP3   OH2 9236   3.374   3.846   3.986
 3077TIP3    H1 9237   3.459   3.883   3.964
 3077TIP3    H2 9238   3.321   3.920   4.015
 3078TIP3   OH2 9239   6.335   2.822   5.096
 3078TIP3    H1 9240   6.411   2.865   5.137
 3078TIP3    H2 9241   6.261   2.879   5.118
 3079TIP3   OH2 9242   0.947   5.181   4.430
 3079TIP3    H1 9243   0.856   5.156   4.450
 3079TIP3    H2 9244   0.969   5.131   4.352
 3080TIP3   OH2 9245   2.993   0.356   3.772
 3080TIP3    H1 9246   2.987   0.397   3.686
 3080TIP3    H2 9247   3.043   0.418   3.825
 3081TIP3   OH2 9248   2.734   5.754   3.009
 3081TIP3    H1 9249   2.645   5.721   3.021
 3081TIP3    H2 9250   2.754   5.800   3.090
 3082TIP3   OH2 9251   3.331   3.461   0.115
 3082TIP3    H1 9252   3.384   3.531   0.154
 3082TIP3    H2 9253   3.363   3.381   0.158
 3083TIP3   OH2 9254   1.408   2.071   3.646
 3083TIP3    H1 9255   1.373   2.008   3.583
 3083TIP3    H2 9256   1.332   2.102   3.694
 3084TIP3   OH2 9257   2.255   4.494   4.497
 3084TIP3    H1 9258   2.197   4.495   4.573
 3084TIP3    H2 9259   2.256   4.403   4.468
 3085TIP3   OH2 9260   3.803   1.611   4.831
 3085TIP3    H1 9261   3.891   1.649   4.827
 3085TIP3    H2 9262   3.748   1.681   4.865
 3086TIP3   OH2 9263   0.989   4.864   1.087
 3086TIP3    H1 9264   0.916   4.881   1.027
 3086TIP3    H2 9265   1.066   4.896   1.040
 3087TIP3   OH2 9266   4.496   0.214   0.408
 3087TIP3    H1 9267   4.427   0.279   0.391
 3087TIP3    H2 9268   4.576   0.265   0.416
 3088TIP3   OH2 9269   4.894   5.536   2.566
 3088TIP3    H1 9270   4.902   5.623   2.527
 3088TIP3    H2 9271   4.824   5.493   2.516
 3089TIP3   OH2 9272   3.773   1.429   2.254
 3089TIP3    H1 9273   3.803   1.365   2.189
 3089TIP3    H2 9274   3.747   1.505   2.201
 3090TIP3   OH2 9275   6.060   1.320   3.399
 3090TIP3    H1 9276   6.028   1.231   3.382
 3090TIP3    H2 9277   6.132   1.331   3.337
 3091TIP3   OH2 9278   5.356   2.644   5.115
 3091TIP3    H1 9279   5.345   2.584   5.041
 3091TIP3    H2 9280   5.272   2.690   5.122
 3092TIP3   OH2 9281   2.374   0.498   3.138
 3092TIP3    H1 9282   2.387   0.448   3.057
 3092TIP3    H2 9283   2.306   0.451   3.185
 3093TIP3   OH2 9284   2.425   5.005   1.234
 3093TIP3    H1 9285   2.390   4.931   1.284
 3093TIP3    H2 9286   2.423   4.975   1.143
 3094TIP3   OH2 9287   3.472   3.994   4.962
 3094TIP3    H1 9288   3.410   4.055   4.922
 3094TIP3    H2 9289   3.555   4.010   4.917
 3095TIP3   OH2 9290   6.158   4.269   1.034
 3095TIP3    H1 9291   6.184   4.331   0.966
 3095TIP3    H2 9292   6.066   4.289   1.051
 3096TIP3   OH2 9293   0.729   5.123   1.205
 3096TIP3    H1 9294   0.690   5.167   1.281
 3096TIP3    H2 9295   0.819   5.154   1.204
 3097TIP3   OH2 9296   0.703   1.976   4.433
 3097TIP3    H1 9297   0.665   2.018   4.510
 3097TIP3    H2 9298   0.793   2.010   4.430
 3098TIP3   OH2 9299   5.420   5.559   3.561
 3098TIP3    H1 9300   5.464   5.615   3.625
 3098TIP3    H2 9301   5.491   5.513   3.515
 3099TIP3   OH2 9302   2.090   1.671   3.315
 3099TIP3    H1 9303   2.128   1.620   3.243
 3099TIP3    H2 9304   2.053   1.748   3.273
 3100TIP3   OH2 9305   4.778   2.263   1.332
 3100TIP3    H1 9306   4.727   2.231   1.407
 3100TIP3    H2 9307   4.758   2.357   1.328
 3101TIP3   OH2 9308   1.109   0.089   2.406
 3101TIP3    H1 9309   1.064   0.071   2.489
 3101TIP3    H2 9310   1.144   0.177   2.417
 3102TIP3   OH2 9311   4.046   0.039   3.169
 3102TIP3    H1 9312   3.993   0.003   3.241
 3102TIP3    H2 9313   3.998   0.117   3.142
 3103TIP3   OH2 9314   3.004   2.793   1.599
 3103TIP3    H1 9315   3.066   2.773   1.669
 3103TIP3    H2 9316   2.989   2.888   1.608
 3104TIP3   OH2 9317   0.373   2.988   2.192
 3104TIP3    H1 9318   0.382   2.914   2.132
 3104TIP3    H2 9319   0.281   3.013   2.186
 3105TIP3   OH2 9320   2.581   0.747   4.166
 3105TIP3    H1 9321   2.621   0.796   4.238
 3105TIP3    H2 9322   2.488   0.742   4.188
 3106TIP3   OH2 9323   4.565   3.683   4.679
 3106TIP3    H1 9324   4.576   3.760   4.623
 3106TIP3    H2 9325   4.539   3.614   4.619
 3107TIP3   OH2 9326   4.017   1.392   0.830
 3107TIP3    H1 9327   3.968   1.432   0.901
 3107TIP3    H2 9328   4.063   1.465   0.788
 3108TIP3   OH2 9329   1.639   4.573   2.512
 3108TIP3    H1 9330   1.568   4.518   2.482
 3108TIP3    H2 9331   1.704   4.512   2.547
 3109TIP3   OH2 9332   1.626   6.003   2.732
 3109TIP3    H1 9333   1.688   5.961   2.672
 3109TIP3    H2 9334   1.680   6.063   2.783
 3110TIP3   OH2 9335   5.488   5.091   1.135
 3110TIP3    H1 9336   5.448   5.049   1.059
 3110TIP3    H2 9337   5.578   5.058   1.136
 3111TIP3   OH2 9338   4.225   4.383   3.829
 3111TIP3    H1 9339   4.291   4.315   3.844
 3111TIP3    H2 9340   4.149   4.354   3.880
 3112TIP3   OH2 9341   5.151   1.340   5.034
 3112TIP3    H1 9342   5.113   1.262   4.993
 3112TIP3    H2 9343   5.202   1.381   4.964
 3113TIP3   OH2 9344   0.696   1.661   1.779
 3113TIP3    H1 9345   0.758   1.615   1.722
 3113TIP3    H2 9346   0.668   1.737   1.727
 3114TIP3   OH2 9347   4.339   5.425   5.056
 3114TIP3    H1 9348   4.276   5.382   5.113
 3114TIP3    H2 9349   4.412   5.448   5.114
 3115TIP3   OH2 9350   1.743   1.723   4.909
 3115TIP3    H1 9351   1.820   1.747   4.857
 3115TIP3    H2 9352   1.711   1.806   4.944
 3116TIP3   OH2 9353   5.422   1.768   0.819
 3116TIP3    H1 9354   5.517   1.781   0.822
 3116TIP3    H2 9355   5.388   1.846   0.775
 3117TIP3   OH2 9356   0.961   5.833   4.619
 3117TIP3    H1 9357   0.969   5.848   4.713
 3117TIP3    H2 9358   1.050   5.839   4.585
 3118TIP3   OH2 9359   4.284   4.035   1.068
 3118TIP3    H1 9360   4.374   4.059   1.092
 3118TIP3    H2 9361   4.261   4.098   0.999
 3119TIP3   OH2 9362   1.577   3.460   0.933
 3119TIP3    H1 9363   1.627   3.390   0.974
 3119TIP3    H2 9364   1.538   3.419   0.856
 3120TIP3   OH2 9365   3.066   1.627   2.851
 3120TIP3    H1 9366   3.005   1.701   2.854
 3120TIP3    H2 9367   3.147   1.664   2.817
 3121TIP3   OH2 9368   0.167  -0.040   2.297
 3121TIP3    H1 9369   0.185  -0.068   2.208
 3121TIP3    H2 9370   0.160   0.056   2.291
 3122TIP3   OH2 9371   5.884   3.567   4.577
 3122TIP3    H1 9372   5.922   3.513   4.646
 3122TIP3    H2 9373   5.957   3.619   4.544
 3123TIP3   OH2 9374   3.292   1.758   1.624
 3123TIP3    H1 9375   3.372   1.723   1.664
 3123TIP3    H2 9376   3.229   1.763   1.697
 3124TIP3   OH2 9377   4.568   0.204   2.874
 3124TIP3    H1 9378   4.621   0.183   2.797
 3124TIP3    H2 9379   4.481   0.225   2.838
 3125TIP3   OH2 9380   0.180   4.378   1.482
 3125TIP3    H1 9381   0.246   4.312   1.504
 3125TIP3    H2 9382   0.109   4.362   1.544
 3126TIP3   OH2 9383   5.248   0.378   0.292
 3126TIP3    H1 9384   5.308   0.314   0.329
 3126TIP3    H2 9385   5.246   0.448   0.357
 3127TIP3   OH2 9386   4.926   3.743   1.646
 3127TIP3    H1 9387   4.990   3.712   1.583
 3127TIP3    H2 9388   4.903   3.665   1.697
 3128TIP3   OH2 9389   1.151   3.288   0.376
 3128TIP3    H1 9390   1.156   3.359   0.440
 3128TIP3    H2 9391   1.213   3.222   0.408
 3129TIP3   OH2 9392   2.700   1.494   0.996
 3129TIP3    H1 9393   2.653   1.535   1.069
 3129TIP3    H2 9394   2.773   1.554   0.978
 3130TIP3   OH2 9395   4.320   1.381   4.570
 3130TIP3    H1 9396   4.268   1.461   4.573
 3130TIP3    H2 9397   4.405   1.406   4.607
 3131TIP3   OH2 9398   0.393   4.220   4.358
 3131TIP3    H1 9399   0.469   4.272   4.383
 3131TIP3    H2 9400   0.319   4.262   4.404
 3132TIP3   OH2 9401   3.131   5.292   2.598
 3132TIP3    H1 9402   3.107   5.354   2.668
 3132TIP3    H2 9403   3.050   5.244   2.581
 3133TIP3   OH2 9404   1.614   3.128   3.681
 3133TIP3    H1 9405   1.587   3.066   3.614
 3133TIP3    H2 9406   1.556   3.111   3.755
 3134TIP3   OH2 9407   2.745   5.716   2.005
 3134TIP3    H1 9408   2.751   5.793   1.948
 3134TIP3    H2 9409   2.827   5.668   1.990
 3135TIP3   OH2 9410   4.521   1.748   1.560
 3135TIP3    H1 9411   4.466   1.822   1.587
 3135TIP3    H2 9412   4.559   1.716   1.642
 3136TIP3   OH2 9413   1.168   2.795   1.125
 3136TIP3    H1 9414   1.182   2.759   1.037
 3136TIP3    H2 9415   1.074   2.811   1.129
 3137TIP3   OH2 9416   2.785   4.157   1.898
 3137TIP3    H1 9417   2.706   4.208   1.921
 3137TIP3    H2 9418   2.786   4.086   1.962
 3138TIP3   OH2 9419   5.316   4.827   2.273
 3138TIP3    H1 9420   5.288   4.794   2.358
 3138TIP3    H2 9421   5.284   4.762   2.210
 3139TIP3   OH2 9422   3.173   5.981   0.378
 3139TIP3    H1 9423   3.232   5.933   0.436
 3139TIP3    H2 9424   3.090   5.934   0.385
 3140TIP3   OH2 9425   4.708   5.916   0.236
 3140TIP3    H1 9426   4.634   5.893   0.292
 3140TIP3    H2 9427   4.774   5.849   0.254
 3141TIP3   OH2 9428   0.376   2.773   2.867
 3141TIP3    H1 9429   0.421   2.732   2.792
 3141TIP3    H2 9430   0.393   2.713   2.940
 3142TIP3   OH2 9431   1.342   1.223   1.065
 3142TIP3    H1 9432   1.300   1.261   0.988
 3142TIP3    H2 9433   1.341   1.293   1.130
 3143TIP3   OH2 9434   4.994   0.244   1.926
 3143TIP3    H1 9435   4.978   0.336   1.905
 3143TIP3    H2 9436   5.078   0.245   1.972
 3144TIP3   OH2 9437   1.031   2.236   4.568
 3144TIP3    H1 9438   0.975   2.309   4.594
 3144TIP3    H2 9439   1.117   2.258   4.603
 3145TIP3   OH2 9440   0.681   5.768   3.246
 3145TIP3    H1 9441   0.763   5.788   3.201
 3145TIP3    H2 9442   0.642   5.854   3.265
 3146TIP3   OH2 9443   5.232   4.591   1.490
 3146TIP3    H1 9444   5.316   4.588   1.537
 3146TIP3    H2 9445   5.179   4.523   1.531
 3147TIP3   OH2 9446   3.562   0.253   2.703
 3147TIP3    H1 9447   3.619   0.323   2.736
 3147TIP3    H2 9448   3.608   0.172   2.726
 3148TIP3   OH2 9449   2.797   0.488   2.389
 3148TIP3    H1 9450   2.876   0.542   2.392
 3148TIP3    H2 9451   2.739   0.532   2.328
 3149TIP3   OH2 9452   2.324   5.003   4.807
 3149TIP3    H1 9453   2.367   4.927   4.847
 3149TIP3    H2 9454   2.350   5.000   4.715
 3150TIP3   OH2 9455   4.251   0.120   2.210
 3150TIP3    H1 9456   4.200   0.178   2.154
 3150TIP3    H2 9457   4.256   0.037   2.161
 3151TIP3   OH2 9458   3.712   1.896   4.057
 3151TIP3    H1 9459   3.736   1.887   3.965
 3151TIP3    H2 9460   3.658   1.975   4.060
 3152TIP3   OH2 9461   4.072   4.326   0.083
 3152TIP3    H1 9462   4.101   4.416   0.068
 3152TIP3    H2 9463   4.003   4.334   0.150
 3153TIP3   OH2 9464   0.294   3.112   4.698
 3153TIP3    H1 9465   0.353   3.048   4.659
 3153TIP3    H2 9466   0.209   3.067   4.701
 3154TIP3   OH2 9467   6.080   1.321   4.397
 3154TIP3    H1 9468   6.045   1.232   4.391
 3154TIP3    H2 9469   6.065   1.347   4.488
 3155TIP3   OH2 9470   4.270   2.147   2.652
 3155TIP3    H1 9471   4.327   2.125   2.726
 3155TIP3    H2 9472   4.307   2.098   2.578
 3156TIP3   OH2 9473   0.891   1.686   0.629
 3156TIP3    H1 9474   0.918   1.659   0.541
 3156TIP3    H2 9475   0.973   1.696   0.678
 3157TIP3   OH2 9476   2.342   3.625   0.001
 3157TIP3    H1 9477   2.407   3.690   0.028
 3157TIP3    H2 9478   2.393   3.546  -0.016
 3158TIP3   OH2 9479   5.251   3.838   4.851
 3158TIP3    H1 9480   5.165   3.844   4.809
 3158TIP3    H2 9481   5.235   3.786   4.931
 3159TIP3   OH2 9482   1.956   2.139   2.295
 3159TIP3    H1 9483   1.992   2.157   2.208
 3159TIP3    H2 9484   1.869   2.179   2.293
 3160TIP3   OH2 9485   3.535   2.633   1.398
 3160TIP3    H1 9486   3.598   2.587   1.452
 3160TIP3    H2 9487   3.569   2.625   1.309
 3161TIP3   OH2 9488   0.711   0.027   5.045
 3161TIP3    H1 9489   0.626   0.039   5.087
 3161TIP3    H2 9490   0.716   0.099   4.982
 3162TIP3   OH2 9491   6.330   0.279   1.182
 3162TIP3    H1 9492   6.320   0.228   1.263
 3162TIP3    H2 9493   6.276   0.232   1.118
 3163TIP3   OH2 9494   4.871   2.124   1.696
 3163TIP3    H1 9495   4.875   2.199   1.637
 3163TIP3    H2 9496   4.813   2.062   1.651
 3164TIP3   OH2 9497   5.333   1.796   3.835
 3164TIP3    H1 9498   5.238   1.786   3.843
 3164TIP3    H2 9499   5.357   1.858   3.904
 3165TIP3   OH2 9500   5.535   5.789   4.433
 3165TIP3    H1 9501   5.469   5.721   4.440
 3165TIP3    H2 9502   5.564   5.786   4.342
 3166TIP3   OH2 9503   2.086   5.137   4.728
 3166TIP3    H1 9504   2.171   5.099   4.751
 3166TIP3    H2 9505   2.102   5.181   4.645
 3167TIP3   OH2 9506   3.115   2.754   4.424
 3167TIP3    H1 9507   3.094   2.788   4.511
 3167TIP3    H2 9508   3.096   2.661   4.429
 3168TIP3   OH2 9509   1.290   3.344   3.559
 3168TIP3    H1 9510   1.275   3.403   3.484
 3168TIP3    H2 9511   1.366   3.381   3.603
 3169TIP3   OH2 9512   5.823   5.730   4.345
 3169TIP3    H1 9513   5.916   5.708   4.338
 3169TIP3    H2 9514   5.795   5.688   4.426
 3170TIP3   OH2 9515   3.450   4.564   3.524
 3170TIP3    H1 9516   3.499   4.646   3.526
 3170TIP3    H2 9517   3.358   4.591   3.534
 3171TIP3   OH2 9518   1.108   4.315   3.087
 3171TIP3    H1 9519   1.100   4.320   2.991
 3171TIP3    H2 9520   1.198   4.341   3.105
 3172TIP3   OH2 9521   5.052   2.593   1.473
 3172TIP3    H1 9522   4.981   2.648   1.508
 3172TIP3    H2 9523   5.084   2.641   1.397
 3173TIP3   OH2 9524   2.575   2.860   3.012
 3173TIP3    H1 9525   2.654   2.826   2.971
 3173TIP3    H2 9526   2.520   2.782   3.026
 3174TIP3   OH2 9527   4.488   5.988   3.923
 3174TIP3    H1 9528   4.483   5.895   3.900
 3174TIP3    H2 9529   4.440   5.994   4.006
 3175TIP3   OH2 9530   0.429   1.860   3.935
 3175TIP3    H1 9531   0.503   1.887   3.990
 3175TIP3    H2 9532   0.398   1.778   3.975
 3176TIP3   OH2 9533   6.158   0.071   3.953
 3176TIP3    H1 9534   6.209   0.151   3.946
 3176TIP3    H2 9535   6.111   0.066   3.870
 3177TIP3   OH2 9536   6.121   3.764   1.113
 3177TIP3    H1 9537   6.102   3.695   1.176
 3177TIP3    H2 9538   6.216   3.774   1.117
 3178TIP3   OH2 9539   5.310   5.622   3.040
 3178TIP3    H1 9540   5.215   5.629   3.052
 3178TIP3    H2 9541   5.347   5.679   3.108
 3179TIP3   OH2 9542   0.115   5.499   0.809
 3179TIP3    H1 9543   0.145   5.552   0.883
 3179TIP3    H2 9544   0.178   5.427   0.804
 3180TIP3   OH2 9545   5.115   4.979   1.109
 3180TIP3    H1 9546   5.091   5.068   1.134
 3180TIP3    H2 9547   5.101   4.927   1.188
 3181TIP3   OH2 9548   2.959   3.486   5.055
 3181TIP3    H1 9549   2.883   3.526   5.098
 3181TIP3    H2 9550   2.934   3.481   4.963
 3182TIP3   OH2 9551   5.625   4.300   4.454
 3182TIP3    H1 9552   5.551   4.346   4.411
 3182TIP3    H2 9553   5.584   4.249   4.523
 3183TIP3   OH2 9554   0.104   4.611   1.769
 3183TIP3    H1 9555   0.019   4.567   1.763
 3183TIP3    H2 9556   0.161   4.547   1.810
 3184TIP3   OH2 9557   0.814   4.201   5.114
 3184TIP3    H1 9558   0.829   4.265   5.183
 3184TIP3    H2 9559   0.780   4.252   5.041
 3185TIP3   OH2 9560   5.845   4.669   3.612
 3185TIP3    H1 9561   5.757   4.706   3.621
 3185TIP3    H2 9562   5.830   4.577   3.589
 3186TIP3   OH2 9563   3.569   3.593   5.074
 3186TIP3    H1 9564   3.627   3.641   5.016
 3186TIP3    H2 9565   3.613   3.593   5.159
 3187TIP3   OH2 9566   3.299   2.995   0.505
 3187TIP3    H1 9567   3.297   3.090   0.490
 3187TIP3    H2 9568   3.383   2.967   0.468
 3188TIP3   OH2 9569   5.533   3.881   0.111
 3188TIP3    H1 9570   5.586   3.801   0.114
 3188TIP3    H2 9571   5.585   3.946   0.157
 3189TIP3   OH2 9572   0.934   1.904   0.426
 3189TIP3    H1 9573   1.012   1.943   0.464
 3189TIP3    H2 9574   0.965   1.824   0.383
 3190TIP3   OH2 9575   1.937   2.695   1.345
 3190TIP3    H1 9576   1.963   2.605   1.360
 3190TIP3    H2 9577   1.984   2.745   1.412
 3191TIP3   OH2 9578   1.799   1.585   0.733
 3191TIP3    H1 9579   1.884   1.630   0.731
 3191TIP3    H2 9580   1.770   1.584   0.642
 3192TIP3   OH2 9581   4.866   1.572   3.992
 3192TIP3    H1 9582   4.831   1.616   4.069
 3192TIP3    H2 9583   4.852   1.479   4.009
 3193TIP3   OH2 9584   5.940   5.189   1.493
 3193TIP3    H1 9585   5.953   5.250   1.421
 3193TIP3    H2 9586   5.848   5.163   1.487
 3194TIP3   OH2 9587   1.828   0.546   3.027
 3194TIP3    H1 9588   1.797   0.619   3.082
 3194TIP3    H2 9589   1.778   0.555   2.946
 3195TIP3   OH2 9590   3.247   4.898   0.095
 3195TIP3    H1 9591   3.334   4.933   0.114
 3195TIP3    H2 9592   3.215   4.950   0.022
 3196TIP3   OH2 9593   4.652   4.346   3.547
 3196TIP3    H1 9594   4.708   4.289   3.494
 3196TIP3    H2 9595   4.572   4.295   3.561
 3197TIP3   OH2 9596   0.263   2.186   0.541
 3197TIP3    H1 9597   0.356   2.164   0.540
 3197TIP3    H2 9598   0.257   2.259   0.603
 3198TIP3   OH2 9599   3.119   1.600   2.101
 3198TIP3    H1 9600   3.038   1.642   2.130
 3198TIP3    H2 9601   3.099   1.506   2.102
 3199TIP3   OH2 9602   5.748   4.340   5.110
 3199TIP3    H1 9603   5.805   4.301   5.177
 3199TIP3    H2 9604   5.680   4.274   5.097
 3200TIP3   OH2 9605   0.147   3.439   3.209
 3200TIP3    H1 9606   0.080   3.444   3.141
 3200TIP3    H2 9607   0.150   3.347   3.233
 3201TIP3   OH2 9608   4.054   1.048   2.925
 3201TIP3    H1 9609   4.123   1.054   2.859
 3201TIP3    H2 9610   4.039   0.954   2.935
 3202TIP3   OH2 9611   0.784   0.378   3.150
 3202TIP3    H1 9612   0.819   0.292   3.173
 3202TIP3    H2 9613   0.737   0.364   3.068
 3203TIP3   OH2 9614   5.601   0.708   3.006
 3203TIP3    H1 9615   5.681   0.741   2.966
 3203TIP3    H2 9616   5.540   0.700   2.933
 3204TIP3   OH2 9617   2.267   5.969   4.710
 3204TIP3    H1 9618   2.270   6.060   4.679
 3204TIP3    H2 9619   2.194   5.969   4.773
 3205TIP3   OH2 9620   3.788   5.532   0.906
 3205TIP3    H1 9621   3.736   5.610   0.926
 3205TIP3    H2 9622   3.830   5.510   0.989
 3206TIP3   OH2 9623   5.514   3.622   0.355
 3206TIP3    H1 9624   5.429   3.666   0.353
 3206TIP3    H2 9625   5.573   3.685   0.397
 3207TIP3   OH2 9626   0.334   0.587   3.547
 3207TIP3    H1 9627   0.337   0.667   3.600
 3207TIP3    H2 9628   0.309   0.617   3.460
 3208TIP3   OH2 9629   1.991   4.262   4.529
 3208TIP3    H1 9630   1.994   4.357   4.539
 3208TIP3    H2 9631   1.962   4.247   4.439
 3209TIP3   OH2 9632   4.942   5.284   4.155
 3209TIP3    H1 9633   4.888   5.221   4.202
 3209TIP3    H2 9634   5.031   5.252   4.166
 3210TIP3   OH2 9635   0.423   2.168   1.665
 3210TIP3    H1 9636   0.422   2.259   1.633
 3210TIP3    H2 9637   0.509   2.135   1.642
 3211TIP3   OH2 9638   2.422   2.175   3.329
 3211TIP3    H1 9639   2.512   2.144   3.327
 3211TIP3    H2 9640   2.405   2.195   3.421
 3212TIP3   OH2 9641   5.415   5.890   0.680
 3212TIP3    H1 9642   5.453   5.803   0.675
 3212TIP3    H2 9643   5.398   5.914   0.588
 3213TIP3   OH2 9644   4.070   1.736   1.006
 3213TIP3    H1 9645   4.145   1.684   0.978
 3213TIP3    H2 9646   3.999   1.709   0.948
 3214TIP3   OH2 9647   4.633   1.412   4.592
 3214TIP3    H1 9648   4.660   1.346   4.528
 3214TIP3    H2 9649   4.715   1.450   4.624
 3215TIP3   OH2 9650   1.646   1.851   1.844
 3215TIP3    H1 9651   1.577   1.837   1.909
 3215TIP3    H2 9652   1.619   1.800   1.768
 3216TIP3   OH2 9653   4.015   3.662   0.205
 3216TIP3    H1 9654   3.946   3.606   0.242
 3216TIP3    H2 9655   4.019   3.636   0.113
 3217TIP3   OH2 9656   0.240   1.763   2.130
 3217TIP3    H1 9657   0.189   1.844   2.126
 3217TIP3    H2 9658   0.200   1.706   2.063
 3218TIP3   OH2 9659   2.054   4.406   0.083
 3218TIP3    H1 9660   2.097   4.356   0.013
 3218TIP3    H2 9661   2.126   4.451   0.128
 3219TIP3   OH2 9662   0.743   2.724   4.552
 3219TIP3    H1 9663   0.799   2.670   4.497
 3219TIP3    H2 9664   0.690   2.662   4.602
 3220TIP3   OH2 9665   6.165   1.143   2.156
 3220TIP3    H1 9666   6.112   1.183   2.088
 3220TIP3    H2 9667   6.251   1.131   2.116
 3221TIP3   OH2 9668   2.797   0.316   1.231
 3221TIP3    H1 9669   2.850   0.305   1.151
 3221TIP3    H2 9670   2.803   0.410   1.250
 3222TIP3   OH2 9671   4.331   3.795   1.832
 3222TIP3    H1 9672   4.392   3.856   1.874
 3222TIP3    H2 9673   4.334   3.818   1.739
 3223TIP3   OH2 9674   1.315   4.052   0.924
 3223TIP3    H1 9675   1.308   3.958   0.941
 3223TIP3    H2 9676   1.232   4.088   0.957
 3224TIP3   OH2 9677   0.889   4.755   1.791
 3224TIP3    H1 9678   0.895   4.848   1.814
 3224TIP3    H2 9679   0.874   4.710   1.874
 3225TIP3   OH2 9680   4.354   5.277   3.431
 3225TIP3    H1 9681   4.288   5.289   3.362
 3225TIP3    H2 9682   4.399   5.196   3.407
 3226TIP3   OH2 9683   3.694   5.517   0.600
 3226TIP3    H1 9684   3.766   5.455   0.608
 3226TIP3    H2 9685   3.638   5.498   0.676
 3227TIP3   OH2 9686   1.928   5.526   0.687
 3227TIP3    H1 9687   1.995   5.515   0.755
 3227TIP3    H2 9688   1.928   5.443   0.640
 3228TIP3   OH2 9689   1.870   3.910   2.531
 3228TIP3    H1 9690   1.841   3.958   2.608
 3228TIP3    H2 9691   1.881   3.977   2.464
 3229TIP3   OH2 9692   1.167   0.879   3.415
 3229TIP3    H1 9693   1.198   0.903   3.503
 3229TIP3    H2 9694   1.185   0.785   3.408
 3230TIP3   OH2 9695   0.722   0.610   4.652
 3230TIP3    H1 9696   0.682   0.640   4.734
 3230TIP3    H2 9697   0.658   0.632   4.585
 3231TIP3   OH2 9698   3.737   2.472   1.524
 3231TIP3    H1 9699   3.754   2.404   1.589
 3231TIP3    H2 9700   3.727   2.424   1.442
 3232TIP3   OH2 9701   3.150   1.555   0.359
 3232TIP3    H1 9702   3.167   1.505   0.279
 3232TIP3    H2 9703   3.227   1.610   0.370
 3233TIP3   OH2 9704   6.166   3.335   5.191
 3233TIP3    H1 9705   6.141   3.425   5.171
 3233TIP3    H2 9706   6.099   3.282   5.149
 3234TIP3   OH2 9707   0.781   1.484   4.643
 3234TIP3    H1 9708   0.855   1.427   4.622
 3234TIP3    H2 9709   0.759   1.527   4.560
 3235TIP3   OH2 9710   4.373   4.876   4.942
 3235TIP3    H1 9711   4.402   4.963   4.967
 3235TIP3    H2 9712   4.368   4.880   4.846
 3236TIP3   OH2 9713   1.794   3.802   3.848
 3236TIP3    H1 9714   1.829   3.798   3.937
 3236TIP3    H2 9715   1.755   3.889   3.841
 3237TIP3   OH2 9716   3.378   2.881   4.872
 3237TIP3    H1 9717   3.397   2.969   4.840
 3237TIP3    H2 9718   3.367   2.892   4.966
 3238TIP3   OH2 9719   4.731   4.016   0.722
 3238TIP3    H1 9720   4.651   4.053   0.761
 3238TIP3    H2 9721   4.793   4.011   0.795
 3239TIP3   OH2 9722   4.239   3.368   0.329
 3239TIP3    H1 9723   4.244   3.455   0.369
 3239TIP3    H2 9724   4.253   3.384   0.236
 3240TIP3   OH2 9725   3.387   2.484   2.491
 3240TIP3    H1 9726   3.337   2.562   2.515
 3240TIP3    H2 9727   3.449   2.515   2.425
 3241TIP3   OH2 9728   2.547   1.069   3.516
 3241TIP3    H1 9729   2.470   1.096   3.566
 3241TIP3    H2 9730   2.512   1.015   3.445
 3242TIP3   OH2 9731   4.535   3.543   2.874
 3242TIP3    H1 9732   4.476   3.498   2.813
 3242TIP3    H2 9733   4.477   3.583   2.938
 3243TIP3   OH2 9734   0.104   5.303   3.906
 3243TIP3    H1 9735   0.175   5.244   3.883
 3243TIP3    H2 9736   0.146   5.370   3.960
 3244TIP3   OH2 9737   5.876   1.942   1.192
 3244TIP3    H1 9738   5.871   1.853   1.157
 3244TIP3    H2 9739   5.787   1.960   1.224
 3245TIP3   OH2 9740   4.585   3.143   0.246
 3245TIP3    H1 9741   4.569   3.202   0.172
 3245TIP3    H2 9742   4.587   3.055   0.207
 3246TIP3   OH2 9743   1.134   3.125   3.422
 3246TIP3    H1 9744   1.176   3.174   3.493
 3246TIP3    H2 9745   1.046   3.161   3.416
 3247TIP3   OH2 9746   2.846   2.610   1.142
 3247TIP3    H1 9747   2.880   2.603   1.232
 3247TIP3    H2 9748   2.919   2.582   1.087
 3248TIP3   OH2 9749   5.284   5.227   3.386
 3248TIP3    H1 9750   5.338   5.305   3.375
 3248TIP3    H2 9751   5.199   5.260   3.415
 3249TIP3   OH2 9752   5.159   3.172   0.767
 3249TIP3    H1 9753   5.237   3.199   0.718
 3249TIP3    H2 9754   5.154   3.234   0.840
 3250TIP3   OH2 9755   5.781   2.748   4.313
 3250TIP3    H1 9756   5.715   2.813   4.290
 3250TIP3    H2 9757   5.778   2.684   4.243
 3251TIP3   OH2 9758   1.442   1.117   3.458
 3251TIP3    H1 9759   1.401   1.142   3.375
 3251TIP3    H2 9760   1.388   1.046   3.491
 3252TIP3   OH2 9761   1.301   2.852   4.917
 3252TIP3    H1 9762   1.228   2.792   4.929
 3252TIP3    H2 9763   1.329   2.838   4.826
 3253TIP3   OH2 9764   6.331   1.099   3.591
 3253TIP3    H1 9765   6.262   1.033   3.591
 3253TIP3    H2 9766   6.285   1.182   3.576
 3254TIP3   OH2 9767   0.107   0.487   0.437
 3254TIP3    H1 9768   0.200   0.509   0.430
 3254TIP3    H2 9769   0.076   0.537   0.512
 3255TIP3   OH2 9770   6.344   1.169   0.431
 3255TIP3    H1 9771   6.375   1.121   0.354
 3255TIP3    H2 9772   6.262   1.209   0.402
 3256TIP3   OH2 9773   0.553   3.620   5.123
 3256TIP3    H1 9774   0.517   3.580   5.044
 3256TIP3    H2 9775   0.648   3.621   5.109
 3257TIP3   OH2 9776   2.717   2.240   4.250
 3257TIP3    H1 9777   2.800   2.193   4.241
 3257TIP3    H2 9778   2.654   2.172   4.275
 3258TIP3   OH2 9779   0.131   3.341   5.062
 3258TIP3    H1 9780   0.041   3.355   5.091
 3258TIP3    H2 9781   0.158   3.425   5.025
 3259TIP3   OH2 9782   2.830   0.850   4.067
 3259TIP3    H1 9783   2.866   0.763   4.081
 3259TIP3    H2 9784   2.738   0.843   4.094
 3260TIP3   OH2 9785   1.520   1.599   4.726
 3260TIP3    H1 9786   1.454   1.668   4.735
 3260TIP3    H2 9787   1.539   1.572   4.816
 3261TIP3   OH2 9788   3.220   4.070   4.819
 3261TIP3    H1 9789   3.192   4.162   4.815
 3261TIP3    H2 9790   3.151   4.026   4.869
 3262TIP3   OH2 9791   1.821   2.975   5.067
 3262TIP3    H1 9792   1.793   2.921   5.141
 3262TIP3    H2 9793   1.779   3.060   5.082
 3263TIP3   OH2 9794   0.526   1.536   0.075
 3263TIP3    H1 9795   0.499   1.580   0.156
 3263TIP3    H2 9796   0.508   1.443   0.091
 3264TIP3   OH2 9797   2.391   4.370   5.060
 3264TIP3    H1 9798   2.340   4.440   5.019
 3264TIP3    H2 9799   2.404   4.400   5.150
 3265TIP3   OH2 9800   3.200   4.677   0.570
 3265TIP3    H1 9801   3.138   4.606   0.587
 3265TIP3    H2 9802   3.170   4.715   0.487
 3266TIP3   OH2 9803   2.591   1.498   4.864
 3266TIP3    H1 9804   2.668   1.451   4.896
 3266TIP3    H2 9805   2.616   1.526   4.775
 3267TIP3   OH2 9806   1.730   3.887   3.173
 3267TIP3    H1 9807   1.726   3.806   3.123
 3267TIP3    H2 9808   1.718   3.860   3.264
 3268TIP3   OH2 9809   0.385   1.737   4.565
 3268TIP3    H1 9810   0.340   1.656   4.589
 3268TIP3    H2 9811   0.316   1.802   4.554
 3269TIP3   OH2 9812   0.963   5.010   0.133
 3269TIP3    H1 9813   1.056   5.010   0.112
 3269TIP3    H2 9814   0.953   5.080   0.198
 3270TIP3   OH2 9815   3.621   2.520   4.004
 3270TIP3    H1 9816   3.606   2.488   4.094
 3270TIP3    H2 9817   3.628   2.615   4.013
 3271TIP3   OH2 9818   5.103   5.574   0.946
 3271TIP3    H1 9819   5.040   5.503   0.957
 3271TIP3    H2 9820   5.054   5.643   0.901
 3272TIP3   OH2 9821   1.757   4.785   1.791
 3272TIP3    H1 9822   1.815   4.789   1.866
 3272TIP3    H2 9823   1.761   4.693   1.763
 3273TIP3   OH2 9824   0.266   5.477   4.482
 3273TIP3    H1 9825   0.325   5.494   4.409
 3273TIP3    H2 9826   0.228   5.391   4.464
 3274TIP3   OH2 9827   4.785   1.467   3.334
 3274TIP3    H1 9828   4.857   1.524   3.365
 3274TIP3    H2 9829   4.742   1.519   3.267
 3275TIP3   OH2 9830   1.699   2.459   0.013
 3275TIP3    H1 9831   1.696   2.398  -0.061
 3275TIP3    H2 9832   1.615   2.449   0.056
 3276TIP3   OH2 9833   2.139   4.822   2.150
 3276TIP3    H1 9834   2.130   4.899   2.094
 3276TIP3    H2 9835   2.155   4.750   2.089
 3277TIP3   OH2 9836   5.471   1.161   0.759
 3277TIP3    H1 9837   5.466   1.091   0.693
 3277TIP3    H2 9838   5.451   1.241   0.710
 3278TIP3   OH2 9839   4.263   4.926   1.330
 3278TIP3    H1 9840   4.303   4.889   1.251
 3278TIP3    H2 9841   4.213   4.853   1.367
 3279TIP3   OH2 9842   5.001   4.430   0.151
 3279TIP3    H1 9843   4.952   4.365   0.202
 3279TIP3    H2 9844   5.093   4.404   0.161
 3280TIP3   OH2 9845   1.757   0.430   2.104
 3280TIP3    H1 9846   1.758   0.525   2.115
 3280TIP3    H2 9847   1.849   0.406   2.097
 3281TIP3   OH2 9848   1.077   5.428   0.115
 3281TIP3    H1 9849   1.077   5.524   0.110
 3281TIP3    H2 9850   1.118   5.400   0.033
 3282TIP3   OH2 9851   2.756   5.918   4.425
 3282TIP3    H1 9852   2.843   5.931   4.462
 3282TIP3    H2 9853   2.698   5.970   4.481
 3283TIP3   OH2 9854   1.466   4.777   0.710
 3283TIP3    H1 9855   1.479   4.752   0.618
 3283TIP3    H2 9856   1.408   4.709   0.744
 3284TIP3   OH2 9857   5.170   2.926   4.629
 3284TIP3    H1 9858   5.116   2.960   4.558
 3284TIP3    H2 9859   5.254   2.971   4.620
 3285TIP3   OH2 9860   4.791   2.630   1.910
 3285TIP3    H1 9861   4.759   2.564   1.971
 3285TIP3    H2 9862   4.719   2.694   1.906
 3286TIP3   OH2 9863   0.559   1.150   1.755
 3286TIP3    H1 9864   0.549   1.245   1.766
 3286TIP3    H2 9865   0.494   1.112   1.814
 3287TIP3   OH2 9866   2.095   3.806   4.755
 3287TIP3    H1 9867   2.115   3.890   4.714
 3287TIP3    H2 9868   2.139   3.741   4.701
 3288TIP3   OH2 9869   3.045   2.897   1.327
 3288TIP3    H1 9870   3.102   2.957   1.375
 3288TIP3    H2 9871   3.019   2.831   1.391
 3289TIP3   OH2 9872   6.241   5.816   2.342
 3289TIP3    H1 9873   6.281   5.793   2.258
 3289TIP3    H2 9874   6.305   5.789   2.407
 3290TIP3   OH2 9875   5.641   1.353   4.103
 3290TIP3    H1 9876   5.706   1.402   4.053
 3290TIP3    H2 9877   5.562   1.407   4.099
 3291TIP3   OH2 9878   5.068   4.662   3.890
 3291TIP3    H1 9879   4.992   4.705   3.851
 3291TIP3    H2 9880   5.130   4.653   3.817
 3292TIP3   OH2 9881   0.340   5.874   3.455
 3292TIP3    H1 9882   0.252   5.838   3.454
 3292TIP3    H2 9883   0.331   5.957   3.501
 3293TIP3   OH2 9884   5.215   5.217   0.844
 3293TIP3    H1 9885   5.188   5.168   0.766
 3293TIP3    H2 9886   5.135   5.226   0.896
 3294TIP3   OH2 9887   6.139   1.264   1.908
 3294TIP3    H1 9888   6.106   1.328   1.845
 3294TIP3    H2 9889   6.099   1.181   1.880
 3295TIP3   OH2 9890   0.186   3.726   0.378
 3295TIP3    H1 9891   0.233   3.738   0.296
 3295TIP3    H2 9892   0.094   3.719   0.353
 3296TIP3   OH2 9893   6.041   1.711   4.830
 3296TIP3    H1 9894   6.070   1.796   4.799
 3296TIP3    H2 9895   6.104   1.687   4.899
 3297TIP3   OH2 9896   3.465   1.570   4.713
 3297TIP3    H1 9897   3.413   1.490   4.721
 3297TIP3    H2 9898   3.474   1.602   4.803
 3298TIP3   OH2 9899   4.436   4.454   0.391
 3298TIP3    H1 9900   4.420   4.476   0.300
 3298TIP3    H2 9901   4.513   4.397   0.389
 3299TIP3   OH2 9902   2.614   4.271   2.308
 3299TIP3    H1 9903   2.632   4.179   2.325
 3299TIP3    H2 9904   2.524   4.272   2.276
 3300TIP3   OH2 9905   0.077   1.453   1.519
 3300TIP3    H1 9906  -0.006   1.418   1.489
 3300TIP3    H2 9907   0.059   1.544   1.541
 3301TIP3   OH2 9908   4.714   3.250   0.463
 3301TIP3    H1 9909   4.673   3.218   0.383
 3301TIP3    H2 9910   4.678   3.338   0.475
 3302TIP3   OH2 9911   1.134   0.066   2.106
 3302TIP3    H1 9912   1.065   0.024   2.157
 3302TIP3    H2 9913   1.175   0.127   2.167
 3303TIP3   OH2 9914   4.405   1.963   4.884
 3303TIP3    H1 9915   4.500   1.951   4.877
 3303TIP3    H2 9916   4.387   2.038   4.827
 3304TIP3   OH2 9917   5.581   5.630   4.175
 3304TIP3    H1 9918   5.513   5.591   4.229
 3304TIP3    H2 9919   5.541   5.709   4.138
 3305TIP3   OH2 9920   2.388  -0.041   2.388
 3305TIP3    H1 9921   2.475  -0.004   2.404
 3305TIP3    H2 9922   2.330   0.035   2.381
 3306TIP3   OH2 9923   2.477   0.648   4.747
 3306TIP3    H1 9924   2.499   0.733   4.785
 3306TIP3    H2 9925   2.486   0.661   4.652
 3307TIP3   OH2 9926   4.205   2.754   2.901
 3307TIP3    H1 9927   4.184   2.739   2.993
 3307TIP3    H2 9928   4.137   2.813   2.870
 3308TIP3   OH2 9929   5.021   5.609   3.070
 3308TIP3    H1 9930   4.953   5.629   3.005
 3308TIP3    H2 9931   4.974   5.568   3.142
 3309TIP3   OH2 9932   5.776   3.075   1.366
 3309TIP3    H1 9933   5.754   3.148   1.309
 3309TIP3    H2 9934   5.693   3.052   1.409
 3310TIP3   OH2 9935   0.494   1.730   0.779
 3310TIP3    H1 9936   0.530   1.812   0.743
 3310TIP3    H2 9937   0.449   1.690   0.705
 3311TIP3   OH2 9938   0.699   2.873   1.769
 3311TIP3    H1 9939   0.791   2.899   1.760
 3311TIP3    H2 9940   0.658   2.899   1.687
 3312TIP3   OH2 9941   2.459   0.876   0.094
 3312TIP3    H1 9942   2.392   0.818   0.056
 3312TIP3    H2 9943   2.469   0.845   0.184
 3313TIP3   OH2 9944   5.447   4.846   3.142
 3313TIP3    H1 9945   5.532   4.806   3.159
 3313TIP3    H2 9946   5.428   4.823   3.051
 3314TIP3   OH2 9947   5.526   2.419   4.967
 3314TIP3    H1 9948   5.617   2.434   4.996
 3314TIP3    H2 9949   5.528   2.332   4.926
 3315TIP3   OH2 9950   4.845   2.517   2.723
 3315TIP3    H1 9951   4.822   2.549   2.636
 3315TIP3    H2 9952   4.908   2.447   2.707
 3316TIP3   OH2 9953   1.692   0.482   4.149
 3316TIP3    H1 9954   1.768   0.519   4.193
 3316TIP3    H2 9955   1.727   0.437   4.072
 3317TIP3   OH2 9956   5.810   4.374   4.834
 3317TIP3    H1 9957   5.775   4.371   4.923
 3317TIP3    H2 9958   5.844   4.462   4.825
 3318TIP3   OH2 9959   1.812   4.377   3.021
 3318TIP3    H1 9960   1.769   4.301   2.981
 3318TIP3    H2 9961   1.765   4.391   3.103
 3319TIP3   OH2 9962   3.179   4.571   1.030
 3319TIP3    H1 9963   3.267   4.548   1.002
 3319TIP3    H2 9964   3.125   4.496   1.007
 3320TIP3   OH2 9965   3.594   5.315   0.815
 3320TIP3    H1 9966   3.521   5.321   0.877
 3320TIP3    H2 9967   3.672   5.327   0.869
 3321TIP3   OH2 9968   1.231   1.156   2.742
 3321TIP3    H1 9969   1.214   1.131   2.651
 3321TIP3    H2 9970   1.250   1.074   2.787
 3322TIP3   OH2 9971   0.792   4.986   3.631
 3322TIP3    H1 9972   0.727   4.977   3.561
 3322TIP3    H2 9973   0.750   5.041   3.696
 3323TIP3   OH2 9974   6.072   3.200   2.508
 3323TIP3    H1 9975   6.005   3.209   2.576
 3323TIP3    H2 9976   6.037   3.133   2.449
 3324TIP3   OH2 9977   2.557   4.367   1.070
 3324TIP3    H1 9978   2.568   4.332   1.159
 3324TIP3    H2 9979   2.483   4.319   1.034
 3325TIP3   OH2 9980   6.111   1.328   3.752
 3325TIP3    H1 9981   6.016   1.318   3.757
 3325TIP3    H2 9982   6.125   1.404   3.696
 3326TIP3   OH2 9983   4.635   0.788   0.920
 3326TIP3    H1 9984   4.672   0.701   0.938
 3326TIP3    H2 9985   4.559   0.770   0.865
 3327TIP3   OH2 9986   3.675   1.396   4.342
 3327TIP3    H1 9987   3.681   1.301   4.331
 3327TIP3    H2 9988   3.675   1.409   4.437
 3328TIP3   OH2 9989   0.267   3.037   0.068
 3328TIP3    H1 9990   0.267   2.941   0.064
 3328TIP3    H2 9991   0.209   3.058   0.141
 3329TIP3   OH2 9992   4.403   4.944   2.741
 3329TIP3    H1 9993   4.404   4.945   2.646
 3329TIP3    H2 9994   4.316   4.912   2.764
 3330TIP3   OH2 9995   4.940   2.297   4.070
 3330TIP3    H1 9996   4.902   2.253   3.994
 3330TIP3    H2 9997   4.923   2.390   4.055
 3331TIP3   OH2 9998   5.854   1.269   3.742
 3331TIP3    H1 9999   5.849   1.176   3.763
 3331TIP3    H210000   5.772   1.287   3.696
 3332TIP3   OH210001   1.138   1.995   1.435
 3332TIP3    H110002   1.160   2.087   1.446
 3332TIP3    H210003   1.172   1.953   1.515
 3333TIP3   OH210004   0.776   4.672   3.969
 3333TIP3    H110005   0.743   4.623   3.894
 3333TIP3    H210006   0.714   4.744   3.981
 3334TIP3   OH210007   1.720   0.164   1.659
 3334TIP3    H110008   1.638   0.121   1.682
 3334TIP3    H210009   1.764   0.179   1.744
 3335TIP3   OH210010   5.955   3.555   2.724
 3335TIP3    H110011   5.939   3.526   2.634
 3335TIP3    H210012   6.004   3.636   2.715
 3336TIP3   OH210013   1.140   1.680   1.875
 3336TIP3    H110014   1.206   1.749   1.876
 3336TIP3    H210015   1.082   1.701   1.949
 3337TIP3   OH210016   5.782   3.312   3.738
 3337TIP3    H110017   5.760   3.386   3.681
 3337TIP3    H210018   5.850   3.347   3.797
 3338TIP3   OH210019   2.237   2.236   3.870
 3338TIP3    H110020   2.198   2.174   3.931
 3338TIP3    H210021   2.198   2.321   3.893
 3339TIP3   OH210022   1.145   5.414   1.379
 3339TIP3    H110023   1.197   5.462   1.443
 3339TIP3    H210024   1.069   5.471   1.363
 3340TIP3   OH210025   0.990   2.569   4.083
 3340TIP3    H110026   0.909   2.525   4.059
 3340TIP3    H210027   1.014   2.619   4.004
 3341TIP3   OH210028   4.286   3.127   4.491
 3341TIP3    H110029   4.314   3.152   4.579
 3341TIP3    H210030   4.247   3.207   4.455
 3342TIP3   OH210031   0.136   0.202   2.940
 3342TIP3    H110032   0.064   0.156   2.896
 3342TIP3    H210033   0.210   0.193   2.880
 3343TIP3   OH210034   1.455   0.051   4.355
 3343TIP3    H110035   1.412   0.112   4.415
 3343TIP3    H210036   1.466  -0.029   4.407
 3344TIP3   OH210037   2.485   2.369   0.319
 3344TIP3    H110038   2.482   2.464   0.309
 3344TIP3    H210039   2.576   2.346   0.299
 3345TIP3   OH210040   2.250   5.316   4.534
 3345TIP3    H110041   2.275   5.392   4.585
 3345TIP3    H210042   2.258   5.345   4.443
 3346TIP3   OH210043   0.442   5.024   5.146
 3346TIP3    H110044   0.355   4.997   5.176
 3346TIP3    H210045   0.467   4.959   5.081
 3347TIP3   OH210046   0.253   1.991   3.196
 3347TIP3    H110047   0.168   2.015   3.233
 3347TIP3    H210048   0.260   2.042   3.115
 3348TIP3   OH210049   0.957   3.750   2.645
 3348TIP3    H110050   0.915   3.699   2.576
 3348TIP3    H210051   1.039   3.705   2.662
 3349TIP3   OH210052   1.689   3.951  -0.019
 3349TIP3    H110053   1.643   4.028  -0.052
 3349TIP3    H210054   1.749   3.985   0.047
 3350TIP3   OH210055   3.139   5.527   3.829
 3350TIP3    H110056   3.094   5.611   3.829
 3350TIP3    H210057   3.071   5.463   3.807
 3351TIP3   OH210058   0.280   0.681   2.508
 3351TIP3    H110059   0.358   0.638   2.543
 3351TIP3    H210060   0.226   0.698   2.585
 3352TIP3   OH210061   2.197   2.945   4.614
 3352TIP3    H110062   2.124   2.897   4.576
 3352TIP3    H210063   2.256   2.962   4.541
 3353TIP3   OH210064   2.623   2.761   5.062
 3353TIP3    H110065   2.635   2.698   5.132
 3353TIP3    H210066   2.529   2.781   5.062
 3354TIP3   OH210067   4.344   1.637   2.124
 3354TIP3    H110068   4.310   1.713   2.172
 3354TIP3    H210069   4.436   1.659   2.107
 3355TIP3   OH210070   3.236   5.424   2.177
 3355TIP3    H110071   3.308   5.429   2.115
 3355TIP3    H210072   3.201   5.513   2.181
 3356TIP3   OH210073   5.721   1.060   3.608
 3356TIP3    H110074   5.745   0.988   3.549
 3356TIP3    H210075   5.638   1.032   3.646
 3357TIP3   OH210076   0.684   5.128   4.442
 3357TIP3    H110077   0.590   5.119   4.429
 3357TIP3    H210078   0.692   5.162   4.531
 3358TIP3   OH210079   6.134   3.208   0.387
 3358TIP3    H110080   6.167   3.290   0.423
 3358TIP3    H210081   6.212   3.157   0.368
 3359TIP3   OH210082   1.917   2.156   4.378
 3359TIP3    H110083   1.841   2.155   4.436
 3359TIP3    H210084   1.992   2.168   4.436
 3360TIP3   OH210085   5.193   0.784   5.107
 3360TIP3    H110086   5.160   0.858   5.158
 3360TIP3    H210087   5.262   0.822   5.052
 3361TIP3   OH210088   4.619   2.857   3.808
 3361TIP3    H110089   4.678   2.908   3.865
 3361TIP3    H210090   4.622   2.902   3.724
 3362TIP3   OH210091   0.702   4.817   1.232
 3362TIP3    H110092   0.782   4.776   1.198
 3362TIP3    H210093   0.712   4.909   1.210
 3363TIP3   OH210094   2.932   0.799   1.484
 3363TIP3    H110095   2.870   0.770   1.417
 3363TIP3    H210096   2.897   0.764   1.566
 3364TIP3   OH210097   3.172   1.390   2.988
 3364TIP3    H110098   3.089   1.346   3.004
 3364TIP3    H210099   3.147   1.478   2.958
 3365TIP3   OH210100   3.045   3.145   3.571
 3365TIP3    H110101   2.975   3.096   3.529
 3365TIP3    H210102   3.119   3.085   3.575
 3366TIP3   OH210103   6.102   0.563   5.116
 3366TIP3    H110104   6.024   0.544   5.063
 3366TIP3    H210105   6.172   0.512   5.075
 3367TIP3   OH210106   0.329   1.863   0.372
 3367TIP3    H110107   0.237   1.887   0.367
 3367TIP3    H210108   0.374   1.945   0.394
 3368TIP3   OH210109   2.857   5.502   2.979
 3368TIP3    H110110   2.852   5.467   3.068
 3368TIP3    H210111   2.799   5.578   2.980
 3369TIP3   OH210112   3.234   3.751   4.281
 3369TIP3    H110113   3.241   3.656   4.280
 3369TIP3    H210114   3.291   3.780   4.209
 3370TIP3   OH210115   2.822   4.302   4.306
 3370TIP3    H110116   2.783   4.288   4.392
 3370TIP3    H210117   2.747   4.302   4.246
 3371TIP3   OH210118   0.496   1.948   3.381
 3371TIP3    H110119   0.469   1.928   3.471
 3371TIP3    H210120   0.592   1.946   3.384
 3372TIP3   OH210121   0.551   3.187   2.692
 3372TIP3    H110122   0.607   3.110   2.690
 3372TIP3    H210123   0.519   3.191   2.782
 3373TIP3   OH210124   5.217   0.302   2.229
 3373TIP3    H110125   5.182   0.238   2.290
 3373TIP3    H210126   5.142   0.357   2.206
 3374TIP3   OH210127   2.842   4.468   4.635
 3374TIP3    H110128   2.785   4.411   4.687
 3374TIP3    H210129   2.926   4.467   4.680
 3375TIP3   OH210130   5.229   2.810   1.838
 3375TIP3    H110131   5.236   2.741   1.905
 3375TIP3    H210132   5.275   2.885   1.877
 3376TIP3   OH210133   3.967   0.390   1.750
 3376TIP3    H110134   4.016   0.461   1.792
 3376TIP3    H210135   4.025   0.314   1.756
 3377TIP3   OH210136   1.849   5.146   3.373
 3377TIP3    H110137   1.798   5.226   3.384
 3377TIP3    H210138   1.864   5.140   3.279
 3378TIP3   OH210139   4.446   2.052   1.289
 3378TIP3    H110140   4.539   2.033   1.296
 3378TIP3    H210141   4.408   2.016   1.370
 3379TIP3   OH210142   4.878   5.076   2.072
 3379TIP3    H110143   4.962   5.085   2.117
 3379TIP3    H210144   4.846   5.166   2.063
 3380TIP3   OH210145   2.665   0.124   4.655
 3380TIP3    H110146   2.602   0.176   4.605
 3380TIP3    H210147   2.736   0.106   4.593
 3381TIP3   OH210148   1.030   5.058   1.589
 3381TIP3    H110149   0.952   5.112   1.602
 3381TIP3    H210150   0.997   4.977   1.549
 3382TIP3   OH210151   4.439   2.622   4.044
 3382TIP3    H110152   4.473   2.591   4.128
 3382TIP3    H210153   4.445   2.718   4.049
 3383TIP3   OH210154   2.003   0.143   3.935
 3383TIP3    H110155   1.918   0.112   3.902
 3383TIP3    H210156   2.042   0.190   3.860
 3384TIP3   OH210157   1.198   1.237   0.165
 3384TIP3    H110158   1.270   1.193   0.119
 3384TIP3    H210159   1.122   1.182   0.149
 3385TIP3   OH210160   4.967   2.042   0.886
 3385TIP3    H110161   4.876   2.073   0.892
 3385TIP3    H210162   5.009   2.079   0.963
 3386TIP3   OH210163   5.439   1.403   4.978
 3386TIP3    H110164   5.438   1.469   4.909
 3386TIP3    H210165   5.513   1.346   4.957
 3387TIP3   OH210166   0.426   5.813   3.015
 3387TIP3    H110167   0.461   5.866   3.087
 3387TIP3    H210168   0.390   5.876   2.953
 3388TIP3   OH210169   2.857   4.169   1.291
 3388TIP3    H110170   2.859   4.107   1.363
 3388TIP3    H210171   2.893   4.120   1.216
 3389TIP3   OH210172   6.333   1.643   1.254
 3389TIP3    H110173   6.332   1.547   1.251
 3389TIP3    H210174   6.254   1.666   1.303
 3390TIP3   OH210175   2.313   4.076   1.816
 3390TIP3    H110176   2.236   4.107   1.767
 3390TIP3    H210177   2.356   4.015   1.756
 3391TIP3   OH210178   3.481   4.218   0.906
 3391TIP3    H110179   3.515   4.142   0.859
 3391TIP3    H210180   3.558   4.262   0.942
 3392TIP3   OH210181   2.502   5.224   2.449
 3392TIP3    H110182   2.456   5.233   2.533
 3392TIP3    H210183   2.439   5.255   2.384
 3393TIP3   OH210184   1.285   5.110   4.714
 3393TIP3    H110185   1.240   5.111   4.630
 3393TIP3    H210186   1.320   5.021   4.722
 3394TIP3   OH210187   3.369   1.890   0.403
 3394TIP3    H110188   3.406   1.829   0.467
 3394TIP3    H210189   3.417   1.873   0.322
 3395TIP3   OH210190   4.549   0.650   2.956
 3395TIP3    H110191   4.473   0.638   2.899
 3395TIP3    H210192   4.596   0.566   2.951
 3396TIP3   OH210193   2.427   5.378   0.879
 3396TIP3    H110194   2.377   5.342   0.806
 3396TIP3    H210195   2.397   5.468   0.887
 3397TIP3   OH210196   1.235   4.215   4.108
 3397TIP3    H110197   1.311   4.273   4.110
 3397TIP3    H210198   1.205   4.217   4.017
 3398TIP3   OH210199   4.096   3.991   2.517
 3398TIP3    H110200   4.126   3.953   2.435
 3398TIP3    H210201   4.075   4.082   2.496
 3399TIP3   OH210202   5.561   2.885   2.559
 3399TIP3    H110203   5.573   2.878   2.654
 3399TIP3    H210204   5.560   2.979   2.542
 3400TIP3   OH210205   5.958   0.403   2.742
 3400TIP3    H110206   5.935   0.424   2.833
 3400TIP3    H210207   5.876   0.371   2.704
 3401TIP3   OH210208   4.111   4.684   0.378
 3401TIP3    H110209   4.030   4.716   0.338
 3401TIP3    H210210   4.158   4.641   0.306
 3402TIP3   OH210211   3.555   1.944   4.382
 3402TIP3    H110212   3.554   1.936   4.477
 3402TIP3    H210213   3.629   1.889   4.354
 3403TIP3   OH210214   4.266   2.679   0.213
 3403TIP3    H110215   4.236   2.748   0.272
 3403TIP3    H210216   4.265   2.719   0.126
 3404TIP3   OH210217   3.155   4.522   4.243
 3404TIP3    H110218   3.155   4.595   4.182
 3404TIP3    H210219   3.093   4.547   4.311
 3405TIP3   OH210220   4.199   5.228   1.281
 3405TIP3    H110221   4.266   5.164   1.305
 3405TIP3    H210222   4.123   5.204   1.335
 3406TIP3   OH210223   4.108   3.878   1.996
 3406TIP3    H110224   4.105   3.965   1.956
 3406TIP3    H210225   4.180   3.833   1.952
 3407TIP3   OH210226   4.397   5.261   0.369
 3407TIP3    H110227   4.388   5.353   0.343
 3407TIP3    H210228   4.353   5.257   0.454
 3408TIP3   OH210229   5.720   2.740   0.934
 3408TIP3    H110230   5.634   2.746   0.974
 3408TIP3    H210231   5.718   2.659   0.883
 3409TIP3   OH210232   1.782   3.421   1.773
 3409TIP3    H110233   1.873   3.445   1.753
 3409TIP3    H210234   1.733   3.450   1.697
 3410TIP3   OH210235   5.358   3.138   1.493
 3410TIP3    H110236   5.273   3.120   1.533
 3410TIP3    H210237   5.338   3.157   1.402
 3411TIP3   OH210238   0.352   2.959   0.515
 3411TIP3    H110239   0.273   3.005   0.542
 3411TIP3    H210240   0.382   3.004   0.437
 3412TIP3   OH210241   1.979   3.256   2.169
 3412TIP3    H110242   1.982   3.341   2.126
 3412TIP3    H210243   2.032   3.199   2.113
 3413TIP3   OH210244  -0.025   2.946   0.944
 3413TIP3    H110245   0.060   2.904   0.957
 3413TIP3    H210246  -0.016   2.994   0.861
 3414TIP3   OH210247   0.925   3.684   3.495
 3414TIP3    H110248   0.834   3.695   3.521
 3414TIP3    H210249   0.940   3.751   3.429
 3415TIP3   OH210250   2.568   5.475   3.208
 3415TIP3    H110251   2.618   5.395   3.192
 3415TIP3    H210252   2.535   5.500   3.122
 3416TIP3   OH210253   1.090   5.902   1.704
 3416TIP3    H110254   1.105   5.995   1.689
 3416TIP3    H210255   1.162   5.874   1.760
 3417TIP3   OH210256   1.257   4.887   5.018
 3417TIP3    H110257   1.206   4.841   4.951
 3417TIP3    H210258   1.226   4.850   5.101
 3418TIP3   OH210259   0.301   0.413   2.011
 3418TIP3    H110260   0.338   0.397   1.924
 3418TIP3    H210261   0.251   0.494   2.002
 3419TIP3   OH210262   1.397   3.532   1.933
 3419TIP3    H110263   1.410   3.602   1.869
 3419TIP3    H210264   1.337   3.471   1.890
 3420TIP3   OH210265   4.773   0.764   1.622
 3420TIP3    H110266   4.733   0.767   1.535
 3420TIP3    H210267   4.825   0.683   1.622
 3421TIP3   OH210268   0.183   4.175   0.173
 3421TIP3    H110269   0.169   4.232   0.249
 3421TIP3    H210270   0.133   4.095   0.193
 3422TIP3   OH210271   5.543   2.701   0.659
 3422TIP3    H110272   5.594   2.746   0.591
 3422TIP3    H210273   5.561   2.608   0.644
 3423TIP3   OH210274   3.413   0.707   1.290
 3423TIP3    H110275   3.358   0.766   1.237
 3423TIP3    H210276   3.495   0.755   1.301
 3424TIP3   OH210277   2.664   2.270   2.591
 3424TIP3    H110278   2.656   2.213   2.667
 3424TIP3    H210279   2.745   2.242   2.548
 3425TIP3   OH210280   1.817   2.054   1.886
 3425TIP3    H110281   1.761   1.977   1.879
 3425TIP3    H210282   1.833   2.063   1.980
 3426TIP3   OH210283   2.581   2.988   2.129
 3426TIP3    H110284   2.601   2.967   2.220
 3426TIP3    H210285   2.652   3.046   2.101
 3427TIP3   OH210286   5.296   2.887   0.009
 3427TIP3    H110287   5.207   2.881   0.044
 3427TIP3    H210288   5.324   2.976   0.030
 3428TIP3   OH210289   5.579   5.951   3.431
 3428TIP3    H110290   5.540   6.038   3.427
 3428TIP3    H210291   5.665   5.961   3.392
 3429TIP3   OH210292   1.525   4.961   5.012
 3429TIP3    H110293   1.534   5.008   5.095
 3429TIP3    H210294   1.435   4.929   5.012
 3430TIP3   OH210295   1.012   5.175   4.836
 3430TIP3    H110296   1.097   5.133   4.820
 3430TIP3    H210297   0.991   5.218   4.754
 3431TIP3   OH210298   3.151   0.617   4.340
 3431TIP3    H110299   3.207   0.583   4.409
 3431TIP3    H210300   3.066   0.631   4.382
 3432TIP3   OH210301   2.381   4.185   3.946
 3432TIP3    H110302   2.441   4.227   4.009
 3432TIP3    H210303   2.412   4.095   3.940
 3433TIP3   OH210304   2.928   5.598   1.639
 3433TIP3    H110305   2.955   5.565   1.725
 3433TIP3    H210306   2.988   5.671   1.622
 3434TIP3   OH210307   3.206   4.667   3.563
 3434TIP3    H110308   3.218   4.740   3.624
 3434TIP3    H210309   3.120   4.631   3.585
 3435TIP3   OH210310   3.598   5.519   1.776
 3435TIP3    H110311   3.686   5.558   1.777
 3435TIP3    H210312   3.613   5.428   1.800
 3436TIP3   OH210313   1.593   1.675   1.639
 3436TIP3    H110314   1.581   1.629   1.556
 3436TIP3    H210315   1.682   1.651   1.666
 3437TIP3   OH210316   2.719   3.753   4.608
 3437TIP3    H110317   2.652   3.770   4.674
 3437TIP3    H210318   2.777   3.830   4.613
 3438TIP3   OH210319   6.140   5.949   0.655
 3438TIP3    H110320   6.096   5.992   0.582
 3438TIP3    H210321   6.176   6.020   0.707
 3439TIP3   OH210322   0.070   0.111   1.813
 3439TIP3    H110323   0.008   0.183   1.800
 3439TIP3    H210324   0.156   0.152   1.804
 3440TIP3   OH210325   0.488   3.540   4.876
 3440TIP3    H110326   0.465   3.597   4.802
 3440TIP3    H210327   0.426   3.467   4.870
 3441TIP3   OH210328   0.944   1.136   4.435
 3441TIP3    H110329   0.943   1.072   4.364
 3441TIP3    H210330   0.871   1.109   4.492
 3442TIP3   OH210331   4.597   4.743   3.795
 3442TIP3    H110332   4.628   4.709   3.711
 3442TIP3    H210333   4.642   4.827   3.804
 3443TIP3   OH210334   4.677   2.595   3.750
 3443TIP3    H110335   4.670   2.598   3.655
 3443TIP3    H210336   4.643   2.679   3.779
 3444TIP3   OH210337   5.742   2.704   4.897
 3444TIP3    H110338   5.728   2.609   4.890
 3444TIP3    H210339   5.794   2.714   4.977
 3445TIP3   OH210340   2.187   3.181   4.744
 3445TIP3    H110341   2.094   3.200   4.750
 3445TIP3    H210342   2.192   3.088   4.720
 3446TIP3   OH210343   5.711   1.119   5.032
 3446TIP3    H110344   5.643   1.095   5.096
 3446TIP3    H210345   5.702   1.213   5.021
 3447TIP3   OH210346   4.412   3.636   2.038
 3447TIP3    H110347   4.373   3.690   1.969
 3447TIP3    H210348   4.340   3.580   2.068
 3448TIP3   OH210349   0.297   2.372   1.396
 3448TIP3    H110350   0.278   2.282   1.371
 3448TIP3    H210351   0.374   2.366   1.453
 3449TIP3   OH210352   1.954   5.317   0.477
 3449TIP3    H110353   1.895   5.365   0.419
 3449TIP3    H210354   2.041   5.331   0.440
 3450TIP3   OH210355   3.867   4.863   1.188
 3450TIP3    H110356   3.817   4.825   1.115
 3450TIP3    H210357   3.945   4.900   1.147
 3451TIP3   OH210358   1.789   0.995   1.519
 3451TIP3    H110359   1.734   1.024   1.592
 3451TIP3    H210360   1.780   0.900   1.518
 3452TIP3   OH210361   5.460   3.021   0.583
 3452TIP3    H110362   5.469   3.115   0.566
 3452TIP3    H210363   5.513   3.005   0.661
 3453TIP3   OH210364   2.762   2.151   2.862
 3453TIP3    H110365   2.823   2.206   2.911
 3453TIP3    H210366   2.686   2.142   2.921
 3454TIP3   OH210367   4.138   1.228   1.968
 3454TIP3    H110368   4.162   1.267   1.884
 3454TIP3    H210369   4.213   1.244   2.025
 3455TIP3   OH210370   1.435   1.193   4.713
 3455TIP3    H110371   1.382   1.256   4.664
 3455TIP3    H210372   1.499   1.247   4.759
 3456TIP3   OH210373   5.409   5.832   4.878
 3456TIP3    H110374   5.328   5.881   4.891
 3456TIP3    H210375   5.383   5.740   4.890
 3457TIP3   OH210376   5.911   2.759   2.769
 3457TIP3    H110377   5.838   2.704   2.742
 3457TIP3    H210378   5.989   2.712   2.738
 3458TIP3   OH210379   3.474   1.850   1.380
 3458TIP3    H110380   3.411   1.808   1.322
 3458TIP3    H210381   3.428   1.857   1.464
 3459TIP3   OH210382   5.644   0.289   4.023
 3459TIP3    H110383   5.588   0.365   4.039
 3459TIP3    H210384   5.725   0.326   3.989
 3460TIP3   OH210385   0.983   5.472   4.273
 3460TIP3    H110386   1.045   5.536   4.308
 3460TIP3    H210387   1.013   5.388   4.309
 3461TIP3   OH210388   3.630   5.745   1.504
 3461TIP3    H110389   3.607   5.788   1.587
 3461TIP3    H210390   3.552   5.695   1.480
 3462TIP3   OH210391   4.808   1.203   3.681
 3462TIP3    H110392   4.744   1.240   3.742
 3462TIP3    H210393   4.755   1.155   3.617
 3463TIP3   OH210394   1.717   5.881   1.973
 3463TIP3    H110395   1.687   5.895   1.883
 3463TIP3    H210396   1.811   5.865   1.965
 3464TIP3   OH210397   6.102   2.250   2.681
 3464TIP3    H110398   6.075   2.171   2.728
 3464TIP3    H210399   6.052   2.321   2.721
 3465TIP3   OH210400   5.786   0.710   4.813
 3465TIP3    H110401   5.747   0.793   4.786
 3465TIP3    H210402   5.879   0.719   4.793
 3466TIP3   OH210403   3.967   0.562   5.174
 3466TIP3    H110404   3.938   0.473   5.197
 3466TIP3    H210405   4.058   0.566   5.203
 3467TIP3   OH210406   1.818   1.557   3.454
 3467TIP3    H110407   1.874   1.634   3.454
 3467TIP3    H210408   1.729   1.591   3.462
 3468TIP3   OH210409   4.714   4.375   0.415
 3468TIP3    H110410   4.789   4.401   0.469
 3468TIP3    H210411   4.736   4.288   0.384
 3469TIP3   OH210412   2.055   2.560   3.128
 3469TIP3    H110413   1.990   2.598   3.068
 3469TIP3    H210414   2.010   2.558   3.213
 3470TIP3   OH210415   0.736   5.165   3.171
 3470TIP3    H110416   0.709   5.256   3.170
 3470TIP3    H210417   0.683   5.124   3.102
 3471TIP3   OH210418   1.782   1.124   0.314
 3471TIP3    H110419   1.739   1.085   0.238
 3471TIP3    H210420   1.867   1.152   0.281
 3472TIP3   OH210421   1.240   5.253   1.981
 3472TIP3    H110422   1.170   5.188   1.974
 3472TIP3    H210423   1.209   5.327   1.927
 3473TIP3   OH210424   0.152   2.701   3.605
 3473TIP3    H110425   0.065   2.665   3.621
 3473TIP3    H210426   0.212   2.637   3.645
 3474TIP3   OH210427   2.807   1.746   4.358
 3474TIP3    H110428   2.871   1.769   4.426
 3474TIP3    H210429   2.859   1.730   4.280
 3475TIP3   OH210430   0.825   5.096   2.312
 3475TIP3    H110431   0.780   5.040   2.248
 3475TIP3    H210432   0.767   5.170   2.325
 3476TIP3   OH210433   4.160   0.861   3.734
 3476TIP3    H110434   4.066   0.865   3.752
 3476TIP3    H210435   4.186   0.953   3.724
 3477TIP3   OH210436   3.856   0.245   1.259
 3477TIP3    H110437   3.925   0.178   1.258
 3477TIP3    H210438   3.856   0.281   1.171
 3478TIP3   OH210439   3.537   1.017   3.915
 3478TIP3    H110440   3.571   1.033   3.826
 3478TIP3    H210441   3.460   0.961   3.901
 3479TIP3   OH210442   1.744   0.783   1.255
 3479TIP3    H110443   1.824   0.750   1.296
 3479TIP3    H210444   1.675   0.767   1.319
 3480TIP3   OH210445   1.390   5.840   2.619
 3480TIP3    H110446   1.353   5.856   2.706
 3480TIP3    H210447   1.476   5.882   2.622
 3481TIP3   OH210448   3.411   1.141   0.820
 3481TIP3    H110449   3.364   1.123   0.901
 3481TIP3    H210450   3.500   1.110   0.837
 3482TIP3   OH210451   4.186   3.890   5.224
 3482TIP3    H110452   4.190   3.964   5.162
 3482TIP3    H210453   4.140   3.821   5.176
 3483TIP3   OH210454   0.683   3.425   1.567
 3483TIP3    H110455   0.705   3.338   1.532
 3483TIP3    H210456   0.756   3.446   1.625
 3484TIP3   OH210457   0.742   1.060   1.109
 3484TIP3    H110458   0.767   1.139   1.063
 3484TIP3    H210459   0.646   1.064   1.114
 3485TIP3   OH210460   4.960   0.813   3.548
 3485TIP3    H110461   4.959   0.867   3.627
 3485TIP3    H210462   5.051   0.812   3.520
 3486TIP3   OH210463   5.190   5.949   3.964
 3486TIP3    H110464   5.228   5.959   3.877
 3486TIP3    H210465   5.134   5.872   3.957
 3487TIP3   OH210466   1.077   1.173   2.464
 3487TIP3    H110467   0.984   1.190   2.447
 3487TIP3    H210468   1.120   1.186   2.380
 3488TIP3   OH210469   1.204   3.871   5.148
 3488TIP3    H110470   1.183   3.957   5.186
 3488TIP3    H210471   1.118   3.832   5.129
 3489TIP3   OH210472   0.407   5.833   1.455
 3489TIP3    H110473   0.486   5.789   1.489
 3489TIP3    H210474   0.438   5.884   1.380
 3490TIP3   OH210475   0.975   3.106   0.590
 3490TIP3    H110476   1.022   3.074   0.513
 3490TIP3    H210477   0.909   3.166   0.555
 3491TIP3   OH210478   5.610   4.024   0.730
 3491TIP3    H110479   5.651   4.091   0.674
 3491TIP3    H210480   5.521   4.055   0.743
 3492TIP3   OH210481   5.113   5.109   0.304
 3492TIP3    H110482   5.163   5.184   0.336
 3492TIP3    H210483   5.027   5.145   0.283
 3493TIP3   OH210484   5.068   5.585   1.721
 3493TIP3    H110485   5.076   5.495   1.754
 3493TIP3    H210486   5.050   5.638   1.799
 3494TIP3   OH210487   3.087   0.819   3.483
 3494TIP3    H110488   3.083   0.800   3.577
 3494TIP3    H210489   2.998   0.844   3.460
 3495TIP3   OH210490   2.373   1.533   4.160
 3495TIP3    H110491   2.401   1.557   4.248
 3495TIP3    H210492   2.361   1.616   4.114
 3496TIP3   OH210493   4.469   2.040   0.957
 3496TIP3    H110494   4.397   2.019   0.897
 3496TIP3    H210495   4.426   2.074   1.035
 3497TIP3   OH210496   3.457   1.241   3.305
 3497TIP3    H110497   3.487   1.161   3.348
 3497TIP3    H210498   3.375   1.263   3.349
 3498TIP3   OH210499   4.947   3.259   2.153
 3498TIP3    H110500   4.964   3.175   2.111
 3498TIP3    H210501   4.951   3.241   2.247
 3499TIP3   OH210502   1.409   0.919   0.289
 3499TIP3    H110503   1.470   0.854   0.323
 3499TIP3    H210504   1.404   0.901   0.195
 3500TIP3   OH210505   5.637   3.681   4.396
 3500TIP3    H110506   5.700   3.651   4.462
 3500TIP3    H210507   5.600   3.761   4.432
 3501TIP3   OH210508   5.706   1.855   4.197
 3501TIP3    H110509   5.795   1.870   4.165
 3501TIP3    H210510   5.717   1.801   4.275
 3502TIP3   OH210511   3.961   0.956   2.651
 3502TIP3    H110512   3.944   0.967   2.557
 3502TIP3    H210513   3.888   1.000   2.694
 3503TIP3   OH210514   5.979   4.261   0.738
 3503TIP3    H110515   6.025   4.254   0.654
 3503TIP3    H210516   5.911   4.327   0.723
 3504TIP3   OH210517   5.477   4.039   3.770
 3504TIP3    H110518   5.533   3.984   3.716
 3504TIP3    H210519   5.435   4.099   3.709
 3505TIP3   OH210520   5.209   0.403   0.885
 3505TIP3    H110521   5.179   0.334   0.944
 3505TIP3    H210522   5.178   0.485   0.925
 3506TIP3   OH210523   5.625   0.776   1.557
 3506TIP3    H110524   5.697   0.819   1.602
 3506TIP3    H210525   5.636   0.799   1.465
 3507TIP3   OH210526   2.474   4.667   3.613
 3507TIP3    H110527   2.510   4.748   3.648
 3507TIP3    H210528   2.546   4.628   3.564
 3508TIP3   OH210529   4.858   1.031   0.175
 3508TIP3    H110530   4.844   0.991   0.261
 3508TIP3    H210531   4.892   1.118   0.195
 3509TIP3   OH210532   4.894   3.546   3.770
 3509TIP3    H110533   4.861   3.618   3.824
 3509TIP3    H210534   4.984   3.573   3.747
 3510TIP3   OH210535   4.667   5.483   3.088
 3510TIP3    H110536   4.696   5.528   3.009
 3510TIP3    H210537   4.620   5.406   3.057
 3511TIP3   OH210538   4.556   3.110   2.080
 3511TIP3    H110539   4.637   3.119   2.130
 3511TIP3    H210540   4.533   3.199   2.054
 3512TIP3   OH210541   4.489   4.125   2.469
 3512TIP3    H110542   4.496   4.107   2.375
 3512TIP3    H210543   4.402   4.163   2.480
 3513TIP3   OH210544   2.856   5.071   0.974
 3513TIP3    H110545   2.766   5.104   0.985
 3513TIP3    H210546   2.850   5.009   0.901
 3514TIP3   OH210547   1.982   3.060   3.366
 3514TIP3    H110548   1.962   3.118   3.439
 3514TIP3    H210549   1.989   3.117   3.290
 3515TIP3   OH210550   3.637   5.273   1.335
 3515TIP3    H110551   3.582   5.315   1.402
 3515TIP3    H210552   3.695   5.215   1.384
 3516TIP3   OH210553   2.787   5.153   3.825
 3516TIP3    H110554   2.724   5.223   3.841
 3516TIP3    H210555   2.805   5.159   3.731
 3517TIP3   OH210556   5.520   2.207   0.469
 3517TIP3    H110557   5.600   2.166   0.502
 3517TIP3    H210558   5.519   2.184   0.376
 3518TIP3   OH210559   3.283   4.382   3.175
 3518TIP3    H110560   3.205   4.329   3.188
 3518TIP3    H210561   3.255   4.454   3.118
 3519TIP3   OH210562   0.566   1.180   0.709
 3519TIP3    H110563   0.513   1.205   0.785
 3519TIP3    H210564   0.613   1.259   0.685
 3520TIP3   OH210565   0.521   1.726   1.108
 3520TIP3    H110566   0.580   1.723   1.033
 3520TIP3    H210567   0.436   1.750   1.070
 3521TIP3   OH210568   1.224   2.723   0.852
 3521TIP3    H110569   1.285   2.650   0.846
 3521TIP3    H210570   1.175   2.720   0.770
 3522TIP3   OH210571   4.377   0.645   0.231
 3522TIP3    H110572   4.424   0.701   0.169
 3522TIP3    H210573   4.324   0.706   0.283
 3523TIP3   OH210574   2.376   1.913   0.626
 3523TIP3    H110575   2.446   1.914   0.561
 3523TIP3    H210576   2.332   1.997   0.615
 3524TIP3   OH210577   2.696   4.480   3.785
 3524TIP3    H110578   2.601   4.470   3.778
 3524TIP3    H210579   2.731   4.391   3.772
 3525TIP3   OH210580   4.817   5.350   1.240
 3525TIP3    H110581   4.802   5.343   1.334
 3525TIP3    H210582   4.811   5.444   1.222
 3526TIP3   OH210583   2.012   3.274   0.761
 3526TIP3    H110584   1.919   3.287   0.778
 3526TIP3    H210585   2.045   3.231   0.840
 3527TIP3   OH210586   4.656   1.445   5.126
 3527TIP3    H110587   4.669   1.440   5.032
 3527TIP3    H210588   4.714   1.378   5.162
 3528TIP3   OH210589   1.285   2.372   1.094
 3528TIP3    H110590   1.232   2.401   1.168
 3528TIP3    H210591   1.282   2.276   1.098
 3529TIP3   OH210592   2.030   5.922   4.835
 3529TIP3    H110593   2.038   5.950   4.926
 3529TIP3    H210594   1.996   5.833   4.840
 3530TIP3   OH210595   2.435   0.203   0.399
 3530TIP3    H110596   2.523   0.163   0.400
 3530TIP3    H210597   2.449   0.290   0.362
 3531TIP3   OH210598   0.077   1.974   2.033
 3531TIP3    H110599   0.030   2.003   1.955
 3531TIP3    H210600   0.103   2.055   2.078
 3532TIP3   OH210601   5.923   0.316   1.020
 3532TIP3    H110602   5.901   0.289   1.109
 3532TIP3    H210603   6.016   0.296   1.011
 3533TIP3   OH210604   5.657   4.257   1.602
 3533TIP3    H110605   5.600   4.219   1.668
 3533TIP3    H210606   5.694   4.335   1.643
 3534TIP3   OH210607   2.786   4.301   2.604
 3534TIP3    H110608   2.757   4.248   2.677
 3534TIP3    H210609   2.709   4.350   2.577
 3535TIP3   OH210610   4.910   5.254   0.507
 3535TIP3    H110611   4.903   5.300   0.424
 3535TIP3    H210612   4.826   5.271   0.551
 3536TIP3   OH210613   3.751   4.000   3.648
 3536TIP3    H110614   3.825   4.029   3.700
 3536TIP3    H210615   3.751   4.057   3.571
 3537TIP3   OH210616   1.292   5.677   3.049
 3537TIP3    H110617   1.316   5.599   2.998
 3537TIP3    H210618   1.246   5.642   3.125
 3538TIP3   OH210619   1.906   5.199   0.222
 3538TIP3    H110620   1.893   5.271   0.160
 3538TIP3    H210621   1.858   5.126   0.184
 3539TIP3   OH210622   5.965   5.349   0.630
 3539TIP3    H110623   5.889   5.404   0.645
 3539TIP3    H210624   6.019   5.360   0.708
 3540TIP3   OH210625   3.631   3.562   1.226
 3540TIP3    H110626   3.537   3.571   1.212
 3540TIP3    H210627   3.649   3.619   1.301
 3541TIP3   OH210628   0.913   5.313   3.970
 3541TIP3    H110629   0.898   5.336   4.062
 3541TIP3    H210630   0.925   5.397   3.926
 3542TIP3   OH210631   3.599   1.700   0.532
 3542TIP3    H110632   3.643   1.721   0.615
 3542TIP3    H210633   3.558   1.615   0.547
 3543TIP3   OH210634   1.894   1.896   0.653
 3543TIP3    H110635   1.899   1.986   0.685
 3543TIP3    H210636   1.948   1.846   0.713
 3544TIP3   OH210637   3.226   4.630   5.142
 3544TIP3    H110638   3.303   4.669   5.099
 3544TIP3    H210639   3.262   4.587   5.220
 3545TIP3   OH210640   4.174   2.352   3.707
 3545TIP3    H110641   4.211   2.342   3.620
 3545TIP3    H210642   4.241   2.398   3.758
 3546TIP3   OH210643   4.030   0.942   0.953
 3546TIP3    H110644   4.062   0.864   0.997
 3546TIP3    H210645   4.087   0.951   0.876
 3547TIP3   OH210646   4.630   1.215   0.901
 3547TIP3    H110647   4.661   1.142   0.954
 3547TIP3    H210648   4.673   1.292   0.940
 3548TIP3   OH210649   1.422   2.904   2.334
 3548TIP3    H110650   1.361   2.836   2.305
 3548TIP3    H210651   1.401   2.981   2.282
 3549TIP3   OH210652   4.600   5.511   1.596
 3549TIP3    H110653   4.688   5.488   1.566
 3549TIP3    H210654   4.548   5.516   1.515
 3550TIP3   OH210655   2.657   0.691   0.760
 3550TIP3    H110656   2.687   0.751   0.692
 3550TIP3    H210657   2.637   0.610   0.713
 3551TIP3   OH210658   1.385   1.652   3.120
 3551TIP3    H110659   1.321   1.679   3.185
 3551TIP3    H210660   1.376   1.716   3.049
 3552TIP3   OH210661   0.914   0.935   4.218
 3552TIP3    H110662   0.999   0.951   4.176
 3552TIP3    H210663   0.851   0.940   4.146
 3553TIP3   OH210664   2.299   4.121   2.869
 3553TIP3    H110665   2.265   4.081   2.949
 3553TIP3    H210666   2.345   4.051   2.824
 3554TIP3   OH210667   0.247   1.439   0.176
 3554TIP3    H110668   0.226   1.522   0.220
 3554TIP3    H210669   0.294   1.389   0.242
 3555TIP3   OH210670   3.353   1.046   4.402
 3555TIP3    H110671   3.346   0.959   4.440
 3555TIP3    H210672   3.272   1.090   4.428
 3556TIP3   OH210673   3.557   2.592   3.703
 3556TIP3    H110674   3.523   2.681   3.691
 3556TIP3    H210675   3.570   2.585   3.798
 3557TIP3   OH210676   2.935   5.421   1.960
 3557TIP3    H110677   2.944   5.425   2.055
 3557TIP3    H210678   2.954   5.509   1.929
 3558TIP3   OH210679   4.998   2.744   4.014
 3558TIP3    H110680   5.028   2.785   3.933
 3558TIP3    H210681   4.976   2.655   3.989
 3559TIP3   OH210682   4.024   1.517   3.222
 3559TIP3    H110683   3.934   1.503   3.252
 3559TIP3    H210684   4.078   1.490   3.296
 3560TIP3   OH210685   3.842   0.248   2.869
 3560TIP3    H110686   3.809   0.325   2.822
 3560TIP3    H210687   3.927   0.275   2.903
 3561TIP3   OH210688  -0.025   1.979   2.739
 3561TIP3    H110689   0.055   1.929   2.757
 3561TIP3    H210690  -0.046   1.958   2.648
 3562TIP3   OH210691   5.469   4.280   2.819
 3562TIP3    H110692   5.494   4.197   2.861
 3562TIP3    H210693   5.549   4.308   2.774
 3563TIP3   OH210694   2.745   0.068   3.329
 3563TIP3    H110695   2.731   0.157   3.296
 3563TIP3    H210696   2.687   0.061   3.405
 3564TIP3   OH210697   4.899   0.487   1.796
 3564TIP3    H110698   4.832   0.466   1.731
 3564TIP3    H210699   4.851   0.536   1.864
 3565TIP3   OH210700   5.493   4.425   0.269
 3565TIP3    H110701   5.553   4.473   0.326
 3565TIP3    H210702   5.407   4.462   0.287
 3566TIP3   OH210703   0.689   4.363   2.958
 3566TIP3    H110704   0.706   4.269   2.955
 3566TIP3    H210705   0.604   4.374   2.917
 3567TIP3   OH210706   3.049   1.783   1.133
 3567TIP3    H110707   3.077   1.869   1.102
 3567TIP3    H210708   3.047   1.791   1.228
 3568TIP3   OH210709   1.518   5.250   2.334
 3568TIP3    H110710   1.582   5.194   2.377
 3568TIP3    H210711   1.439   5.196   2.328
 3569TIP3   OH210712   5.985   5.713   4.778
 3569TIP3    H110713   5.985   5.796   4.730
 3569TIP3    H210714   5.910   5.719   4.836
 3570TIP3   OH210715   0.741   2.334   0.507
 3570TIP3    H110716   0.826   2.290   0.499
 3570TIP3    H210717   0.683   2.266   0.542
 3571TIP3   OH210718   2.081   2.351   1.533
 3571TIP3    H110719   2.175   2.333   1.535
 3571TIP3    H210720   2.043   2.284   1.589
 3572TIP3   OH210721   3.635   2.538   5.083
 3572TIP3    H110722   3.561   2.491   5.119
 3572TIP3    H210723   3.711   2.503   5.130
 3573TIP3   OH210724   3.352   2.866   4.524
 3573TIP3    H110725   3.291   2.852   4.452
 3573TIP3    H210726   3.303   2.840   4.602
 3574TIP3   OH210727   0.527   5.398   0.999
 3574TIP3    H110728   0.515   5.476   1.054
 3574TIP3    H210729   0.455   5.339   1.025
 3575TIP3   OH210730   4.978   1.649   2.288
 3575TIP3    H110731   5.046   1.713   2.269
 3575TIP3    H210732   5.020   1.564   2.276
 3576TIP3   OH210733   5.548   1.152   3.926
 3576TIP3    H110734   5.545   1.190   3.838
 3576TIP3    H210735   5.573   1.225   3.982
 3577TIP3   OH210736   0.534   0.084   2.951
 3577TIP3    H110737   0.563   0.024   2.882
 3577TIP3    H210738   0.609   0.141   2.965
 3578TIP3   OH210739   4.132   2.803   3.165
 3578TIP3    H110740   4.128   2.852   3.247
 3578TIP3    H210741   4.045   2.763   3.157
 3579TIP3   OH210742   2.755   1.949   5.136
 3579TIP3    H110743   2.682   1.888   5.145
 3579TIP3    H210744   2.823   1.899   5.091
 3580TIP3   OH210745   2.955   5.820   2.353
 3580TIP3    H110746   2.963   5.882   2.426
 3580TIP3    H210747   2.935   5.736   2.395
 3581TIP3   OH210748   4.340   1.494   4.105
 3581TIP3    H110749   4.261   1.476   4.054
 3581TIP3    H210750   4.379   1.570   4.063
 3582TIP3   OH210751   6.090   5.140   0.893
 3582TIP3    H110752   6.068   5.154   0.985
 3582TIP3    H210753   6.104   5.228   0.858
 3583TIP3   OH210754   1.620   0.745   1.811
 3583TIP3    H110755   1.552   0.759   1.877
 3583TIP3    H210756   1.631   0.650   1.808
 3584TIP3   OH210757   3.823   1.677   0.001
 3584TIP3    H110758   3.885   1.635   0.061
 3584TIP3    H210759   3.847   1.770   0.004
 3585TIP3   OH210760   4.949   0.958   3.769
 3585TIP3    H110761   4.888   0.904   3.819
 3585TIP3    H210762   4.909   1.045   3.768
 3586TIP3   OH210763   0.647   5.776   2.287
 3586TIP3    H110764   0.722   5.743   2.237
 3586TIP3    H210765   0.685   5.804   2.370
 3587TIP3   OH210766   4.276   4.107   5.098
 3587TIP3    H110767   4.351   4.057   5.065
 3587TIP3    H210768   4.272   4.184   5.041
 3588TIP3   OH210769   2.487   2.875   3.906
 3588TIP3    H110770   2.576   2.843   3.920
 3588TIP3    H210771   2.489   2.967   3.932
 3589TIP3   OH210772   4.922   5.377   0.989
 3589TIP3    H110773   4.847   5.330   0.954
 3589TIP3    H210774   4.915   5.367   1.084
 3590TIP3   OH210775   5.262   0.281   3.325
 3590TIP3    H110776   5.258   0.227   3.404
 3590TIP3    H210777   5.205   0.355   3.345
 3591TIP3   OH210778   3.546   3.794   1.865
 3591TIP3    H110779   3.480   3.790   1.796
 3591TIP3    H210780   3.512   3.738   1.935
 3592TIP3   OH210781   0.451   1.628   0.327
 3592TIP3    H110782   0.473   1.589   0.412
 3592TIP3    H210783   0.409   1.711   0.348
 3593TIP3   OH210784   0.784   2.800   4.089
 3593TIP3    H110785   0.764   2.862   4.158
 3593TIP3    H210786   0.833   2.851   4.024
 3594TIP3   OH210787   0.475   0.199   3.955
 3594TIP3    H110788   0.535   0.168   4.023
 3594TIP3    H210789   0.416   0.125   3.939
 3595TIP3   OH210790   5.876   3.551   2.446
 3595TIP3    H110791   5.922   3.564   2.363
 3595TIP3    H210792   5.804   3.492   2.425
 3596TIP3   OH210793   2.759   0.752   1.017
 3596TIP3    H110794   2.740   0.776   0.926
 3596TIP3    H210795   2.720   0.665   1.027
 3597TIP3   OH210796   4.127   3.009   3.938
 3597TIP3    H110797   4.079   2.976   4.015
 3597TIP3    H210798   4.068   2.992   3.864
 3598TIP3   OH210799   5.600   0.458   0.394
 3598TIP3    H110800   5.638   0.441   0.480
 3598TIP3    H210801   5.547   0.381   0.375
 3599TIP3   OH210802   6.238   3.667   3.573
 3599TIP3    H110803   6.240   3.585   3.524
 3599TIP3    H210804   6.249   3.640   3.665
 3600TIP3   OH210805   0.362   4.236   3.099
 3600TIP3    H110806   0.309   4.156   3.102
 3600TIP3    H210807   0.323   4.289   3.030
 3601TIP3   OH210808   5.191   0.180   1.389
 3601TIP3    H110809   5.272   0.220   1.420
 3601TIP3    H210810   5.140   0.162   1.468
 3602TIP3   OH210811   4.110   1.274   0.405
 3602TIP3    H110812   4.025   1.238   0.430
 3602TIP3    H210813   4.118   1.256   0.311
 3603TIP3   OH210814   5.512   1.461   1.050
 3603TIP3    H110815   5.479   1.462   0.960
 3603TIP3    H210816   5.605   1.481   1.042
 3604TIP3   OH210817   5.238   4.281   2.061
 3604TIP3    H110818   5.160   4.322   2.098
 3604TIP3    H210819   5.294   4.262   2.136
 3605TIP3   OH210820   2.483   3.626   2.626
 3605TIP3    H110821   2.403   3.576   2.638
 3605TIP3    H210822   2.553   3.564   2.645
 3606TIP3   OH210823   4.781   4.925   0.319
 3606TIP3    H110824   4.743   4.965   0.397
 3606TIP3    H210825   4.860   4.880   0.351
 3607TIP3   OH210826   1.378   4.669   3.555
 3607TIP3    H110827   1.322   4.707   3.623
 3607TIP3    H210828   1.358   4.576   3.557
 3608TIP3   OH210829   5.126   0.785   4.639
 3608TIP3    H110830   5.076   0.793   4.558
 3608TIP3    H210831   5.122   0.692   4.660
 3609TIP3   OH210832   2.561   4.466   2.621
 3609TIP3    H110833   2.503   4.457   2.696
 3609TIP3    H210834   2.512   4.518   2.558
 3610TIP3   OH210835   5.484   0.095   5.101
 3610TIP3    H110836   5.528   0.176   5.125
 3610TIP3    H210837   5.483   0.096   5.005
 3611TIP3   OH210838   0.482   2.693   1.416
 3611TIP3    H110839   0.526   2.776   1.435
 3611TIP3    H210840   0.545   2.645   1.362
 3612TIP3   OH210841   1.230   1.883   3.227
 3612TIP3    H110842   1.247   1.909   3.317
 3612TIP3    H210843   1.264   1.955   3.174
 3613TIP3   OH210844   2.651   5.578   4.168
 3613TIP3    H110845   2.609   5.593   4.083
 3613TIP3    H210846   2.593   5.621   4.231
 3614TIP3   OH210847   0.799   4.518   0.873
 3614TIP3    H110848   0.726   4.528   0.933
 3614TIP3    H210849   0.761   4.475   0.796
 3615TIP3   OH210850   5.678   2.978   3.936
 3615TIP3    H110851   5.672   2.896   3.888
 3615TIP3    H210852   5.593   3.020   3.922
 3616TIP3   OH210853   0.812   5.985   2.759
 3616TIP3    H110854   0.834   5.892   2.747
 3616TIP3    H210855   0.717   5.985   2.774
 3617TIP3   OH210856   5.814   0.501   1.315
 3617TIP3    H110857   5.866   0.432   1.357
 3617TIP3    H210858   5.726   0.488   1.349
 3618TIP3   OH210859   3.306   3.264   3.414
 3618TIP3    H110860   3.349   3.349   3.420
 3618TIP3    H210861   3.267   3.251   3.501
 3619TIP3   OH210862   4.780   3.097   1.409
 3619TIP3    H110863   4.720   3.126   1.341
 3619TIP3    H210864   4.812   3.178   1.449
 3620TIP3   OH210865   2.871   2.929   3.645
 3620TIP3    H110866   2.831   2.909   3.561
 3620TIP3    H210867   2.923   2.852   3.666
 3621TIP3   OH210868   1.853   5.203   1.662
 3621TIP3    H110869   1.839   5.171   1.752
 3621TIP3    H210870   1.813   5.136   1.607
 3622TIP3   OH210871   0.667   2.195   1.829
 3622TIP3    H110872   0.635   2.248   1.902
 3622TIP3    H210873   0.720   2.256   1.777
 3623TIP3   OH210874   4.336   5.528   3.558
 3623TIP3    H110875   4.430   5.533   3.573
 3623TIP3    H210876   4.322   5.442   3.519
 3624TIP3   OH210877   4.265   2.235   1.361
 3624TIP3    H110878   4.332   2.183   1.316
 3624TIP3    H210879   4.211   2.169   1.407
 3625TIP3   OH210880   2.226   5.350   0.668
 3625TIP3    H110881   2.213   5.384   0.579
 3625TIP3    H210882   2.169   5.274   0.673
 3626TIP3   OH210883  -0.025   0.281   0.576
 3626TIP3    H110884   0.037   0.275   0.503
 3626TIP3    H210885  -0.028   0.375   0.597
 3627TIP3   OH210886   6.157   4.547   0.940
 3627TIP3    H110887   6.103   4.581   0.869
 3627TIP3    H210888   6.241   4.527   0.900
 3628TIP3   OH210889   5.383   2.501   1.234
 3628TIP3    H110890   5.406   2.594   1.245
 3628TIP3    H210891   5.293   2.503   1.200
 3629TIP3   OH210892   2.979   5.334   3.679
 3629TIP3    H110893   2.928   5.356   3.601
 3629TIP3    H210894   2.915   5.335   3.750
 3630TIP3   OH210895   6.056   0.931   1.111
 3630TIP3    H110896   6.015   0.905   1.028
 3630TIP3    H210897   6.025   0.867   1.175
 3631TIP3   OH210898   6.179   2.695   1.476
 3631TIP3    H110899   6.220   2.765   1.528
 3631TIP3    H210900   6.194   2.721   1.385
 3632TIP3   OH210901   5.633   4.973   0.418
 3632TIP3    H110902   5.556   5.010   0.461
 3632TIP3    H210903   5.707   5.015   0.463
 3633TIP3   OH210904   3.350   3.577   1.659
 3633TIP3    H110905   3.302   3.660   1.658
 3633TIP3    H210906   3.351   3.549   1.568
 3634TIP3   OH210907   4.488   1.428   1.883
 3634TIP3    H110908   4.570   1.471   1.908
 3634TIP3    H210909   4.493   1.420   1.788
 3635TIP3   OH210910   0.578   3.452   2.611
 3635TIP3    H110911   0.516   3.428   2.542
 3635TIP3    H210912   0.612   3.369   2.643
 3636TIP3   OH210913   3.414   0.458   2.016
 3636TIP3    H110914   3.374   0.392   2.072
 3636TIP3    H210915   3.488   0.414   1.974
 3637TIP3   OH210916   2.315   0.766   2.466
 3637TIP3    H110917   2.403   0.728   2.468
 3637TIP3    H210918   2.321   0.844   2.520
 3638TIP3   OH210919   0.995   5.101   1.935
 3638TIP3    H110920   0.922   5.104   1.874
 3638TIP3    H210921   0.977   5.026   1.991
 3639TIP3   OH210922   0.229   3.998   0.473
 3639TIP3    H110923   0.238   3.909   0.439
 3639TIP3    H210924   0.140   4.023   0.448
 3640TIP3   OH210925  -0.038   1.044   3.127
 3640TIP3    H110926  -0.091   1.007   3.056
 3640TIP3    H210927   0.037   1.084   3.083
 3641TIP3   OH210928   1.280   5.302   3.990
 3641TIP3    H110929   1.226   5.360   3.938
 3641TIP3    H210930   1.350   5.359   4.024
 3642TIP3   OH210931   6.086   0.762   3.209
 3642TIP3    H110932   6.171   0.745   3.248
 3642TIP3    H210933   6.038   0.680   3.220
 3643TIP3   OH210934   2.671   5.807   1.338
 3643TIP3    H110935   2.759   5.774   1.353
 3643TIP3    H210936   2.670   5.830   1.245
 3644TIP3   OH210937   2.366   4.672   3.267
 3644TIP3    H110938   2.357   4.622   3.348
 3644TIP3    H210939   2.392   4.760   3.296
 3645TIP3   OH210940   1.369   5.812   1.083
 3645TIP3    H110941   1.365   5.793   1.177
 3645TIP3    H210942   1.461   5.832   1.067
 3646TIP3   OH210943   2.480   4.471   0.719
 3646TIP3    H110944   2.451   4.426   0.799
 3646TIP3    H210945   2.408   4.529   0.696
 3647TIP3   OH210946   5.478   1.583   3.206
 3647TIP3    H110947   5.455   1.673   3.227
 3647TIP3    H210948   5.407   1.552   3.150
 3648TIP3   OH210949   3.220   1.013   3.969
 3648TIP3    H110950   3.226   1.102   3.935
 3648TIP3    H210951   3.160   1.019   4.043
 3649TIP3   OH210952   2.018   0.160   0.353
 3649TIP3    H110953   1.926   0.133   0.358
 3649TIP3    H210954   2.060   0.093   0.300
 3650TIP3   OH210955   3.558   4.400   0.602
 3650TIP3    H110956   3.638   4.449   0.580
 3650TIP3    H210957   3.506   4.462   0.654
 3651TIP3   OH210958   1.228   0.620   1.202
 3651TIP3    H110959   1.191   0.699   1.241
 3651TIP3    H210960   1.265   0.649   1.119
 3652TIP3   OH210961   4.824   3.730   3.992
 3652TIP3    H110962   4.809   3.824   3.996
 3652TIP3    H210963   4.919   3.720   4.000
 3653TIP3   OH210964   4.126   3.992   3.279
 3653TIP3    H110965   4.216   3.977   3.247
 3653TIP3    H210966   4.128   4.080   3.316
 3654TIP3   OH210967   1.801   5.644   3.760
 3654TIP3    H110968   1.783   5.657   3.853
 3654TIP3    H210969   1.881   5.591   3.758
 3655TIP3   OH210970   4.899   5.665   1.499
 3655TIP3    H110971   4.967   5.626   1.554
 3655TIP3    H210972   4.946   5.725   1.442
 3656TIP3   OH210973   5.365   5.069   5.031
 3656TIP3    H110974   5.426   5.023   4.974
 3656TIP3    H210975   5.403   5.060   5.119
 3657TIP3   OH210976   5.403   3.286   0.697
 3657TIP3    H110977   5.385   3.367   0.744
 3657TIP3    H210978   5.497   3.272   0.708
 3658TIP3   OH210979   5.324   1.426   2.127
 3658TIP3    H110980   5.366   1.461   2.206
 3658TIP3    H210981   5.240   1.392   2.159
 3659TIP3   OH210982   3.112   0.203   2.086
 3659TIP3    H110983   3.107   0.228   1.994
 3659TIP3    H210984   3.022   0.179   2.109
 3660TIP3   OH210985   1.221   1.184   1.887
 3660TIP3    H110986   1.212   1.279   1.877
 3660TIP3    H210987   1.299   1.173   1.942
 3661TIP3   OH210988   4.469   3.788   3.899
 3661TIP3    H110989   4.450   3.811   3.990
 3661TIP3    H210990   4.383   3.782   3.857
 3662TIP3   OH210991   5.169   0.081   3.631
 3662TIP3    H110992   5.161   0.031   3.712
 3662TIP3    H210993   5.238   0.145   3.649
 3663TIP3   OH210994   1.838   0.298   2.741
 3663TIP3    H110995   1.762   0.354   2.727
 3663TIP3    H210996   1.913   0.356   2.727
 3664TIP3   OH210997   2.074   5.168   0.800
 3664TIP3    H110998   1.980   5.184   0.791
 3664TIP3    H210999   2.087   5.152   0.894
 3665TIP3   OH211000   0.270   3.111   1.582
 3665TIP3    H111001   0.295   3.049   1.651
 3665TIP3    H211002   0.175   3.104   1.576
 3666TIP3   OH211003   1.693   2.792   4.204
 3666TIP3    H111004   1.788   2.797   4.198
 3666TIP3    H211005   1.673   2.699   4.203
 3667TIP3   OH211006   1.272   0.515   0.219
 3667TIP3    H111007   1.180   0.520   0.196
 3667TIP3    H211008   1.275   0.543   0.311
 3668TIP3   OH211009   3.940   4.795   4.522
 3668TIP3    H111010   3.969   4.878   4.562
 3668TIP3    H211011   3.929   4.736   4.597
 3669TIP3   OH211012   2.509   0.167   1.049
 3669TIP3    H111013   2.526   0.257   1.022
 3669TIP3    H211014   2.561   0.113   0.989
 3670TIP3   OH211015   5.326   3.353   3.265
 3670TIP3    H111016   5.365   3.289   3.326
 3670TIP3    H211017   5.240   3.317   3.245
 3671TIP3   OH211018   0.061   0.670   2.332
 3671TIP3    H111019   0.022   0.758   2.334
 3671TIP3    H211020   0.138   0.677   2.389
 3672TIP3   OH211021  -0.021   0.641   4.805
 3672TIP3    H111022   0.047   0.581   4.774
 3672TIP3    H211023  -0.010   0.640   4.901
 3673TIP3   OH211024   3.946   4.221   1.052
 3673TIP3    H111025   3.947   4.199   0.959
 3673TIP3    H211026   3.946   4.136   1.097
 3674TIP3   OH211027   5.488   0.281   2.212
 3674TIP3    H111028   5.511   0.335   2.136
 3674TIP3    H211029   5.394   0.294   2.223
 3675TIP3   OH211030   3.328   1.078   1.660
 3675TIP3    H111031   3.267   1.005   1.657
 3675TIP3    H211032   3.382   1.068   1.582
 3676TIP3   OH211033   2.391   3.222   4.197
 3676TIP3    H111034   2.378   3.195   4.106
 3676TIP3    H211035   2.478   3.262   4.198
 3677TIP3   OH211036   2.947   3.801   3.463
 3677TIP3    H111037   2.925   3.858   3.537
 3677TIP3    H211038   3.034   3.768   3.485
 3678TIP3   OH211039   0.898   3.695   1.004
 3678TIP3    H111040   0.888   3.602   0.987
 3678TIP3    H211041   0.935   3.700   1.093
 3679TIP3   OH211042   3.015   2.253   3.011
 3679TIP3    H111043   3.061   2.271   2.929
 3679TIP3    H211044   3.048   2.168   3.040
 3680TIP3   OH211045   3.620   4.074   1.911
 3680TIP3    H111046   3.592   4.097   1.822
 3680TIP3    H211047   3.631   3.979   1.908
 3681TIP3   OH211048   3.924   4.803   4.977
 3681TIP3    H111049   3.921   4.708   4.980
 3681TIP3    H211050   3.835   4.830   4.953
 3682TIP3   OH211051   5.512   2.109   1.461
 3682TIP3    H111052   5.455   2.155   1.400
 3682TIP3    H211053   5.453   2.060   1.517
 3683TIP3   OH211054   3.031   4.512   0.733
 3683TIP3    H111055   2.937   4.496   0.737
 3683TIP3    H211056   3.070   4.425   0.741
 3684TIP3   OH211057   5.206   1.576   1.901
 3684TIP3    H111058   5.258   1.614   1.831
 3684TIP3    H211059   5.270   1.535   1.959
 3685TIP3   OH211060   6.198   5.364   2.067
 3685TIP3    H111061   6.214   5.451   2.104
 3685TIP3    H211062   6.252   5.361   1.989
 3686TIP3   OH211063   5.196   0.174   1.107
 3686TIP3    H111064   5.278   0.126   1.100
 3686TIP3    H211065   5.165   0.155   1.196
 3687TIP3   OH211066   2.143   4.210   1.287
 3687TIP3    H111067   2.120   4.127   1.244
 3687TIP3    H211068   2.126   4.277   1.221
 3688TIP3   OH211069   2.791   0.324   0.642
 3688TIP3    H111070   2.802   0.326   0.737
 3688TIP3    H211071   2.818   0.235   0.617
 3689TIP3   OH211072   6.046   0.994   2.602
 3689TIP3    H111073   6.084   1.059   2.544
 3689TIP3    H211074   6.029   1.041   2.683
 3690TIP3   OH211075   3.801   1.192   1.280
 3690TIP3    H111076   3.760   1.275   1.255
 3690TIP3    H211077   3.728   1.134   1.301
 3691TIP3   OH211078   2.666   1.854   0.154
 3691TIP3    H111079   2.694   1.763   0.153
 3691TIP3    H211080   2.741   1.902   0.189
 3692TIP3   OH211081   5.207   0.966   2.509
 3692TIP3    H111082   5.258   0.972   2.590
 3692TIP3    H211083   5.141   1.034   2.516
 3693TIP3   OH211084   5.093   0.763   1.951
 3693TIP3    H111085   5.004   0.729   1.953
 3693TIP3    H211086   5.098   0.816   1.872
 3694TIP3   OH211087   4.519   2.586   0.212
 3694TIP3    H111088   4.517   2.590   0.307
 3694TIP3    H211089   4.436   2.625   0.184
 3695TIP3   OH211090   0.390   1.956   3.653
 3695TIP3    H111091   0.379   2.040   3.698
 3695TIP3    H211092   0.437   1.901   3.715
 3696TIP3   OH211093   1.220   0.678   4.511
 3696TIP3    H111094   1.190   0.636   4.592
 3696TIP3    H211095   1.304   0.636   4.493
 3697TIP3   OH211096   4.708   2.401   4.842
 3697TIP3    H111097   4.778   2.435   4.787
 3697TIP3    H211098   4.695   2.311   4.810
 3698TIP3   OH211099   1.155   4.389   4.340
 3698TIP3    H111100   1.232   4.441   4.363
 3698TIP3    H211101   1.173   4.357   4.251
 3699TIP3   OH211102   2.697   0.927   3.014
 3699TIP3    H111103   2.746   0.975   2.947
 3699TIP3    H211104   2.763   0.875   3.060
 3700TIP3   OH211105   4.490   1.383   1.599
 3700TIP3    H111106   4.501   1.405   1.507
 3700TIP3    H211107   4.464   1.291   1.598
 3701TIP3   OH211108   2.367   4.853   1.010
 3701TIP3    H111109   2.279   4.832   1.042
 3701TIP3    H211110   2.420   4.777   1.036
 3702TIP3   OH211111   0.115   4.940   2.850
 3702TIP3    H111112   0.029   4.924   2.889
 3702TIP3    H211113   0.103   5.020   2.798
 3703TIP3   OH211114   1.288   5.694   2.263
 3703TIP3    H111115   1.338   5.706   2.182
 3703TIP3    H211116   1.241   5.777   2.275
 3704TIP3   OH211117   6.232   4.109   0.686
 3704TIP3    H111118   6.171   4.129   0.757
 3704TIP3    H211119   6.310   4.075   0.731
 3705TIP3   OH211120   0.710   0.068   4.619
 3705TIP3    H111121   0.793   0.048   4.661
 3705TIP3    H211122   0.666  -0.016   4.612
 3706TIP3   OH211123   4.560   3.872   3.447
 3706TIP3    H111124   4.620   3.814   3.493
 3706TIP3    H211125   4.536   3.938   3.513
 3707TIP3   OH211126   0.362   0.044   4.913
 3707TIP3    H111127   0.418   0.119   4.894
 3707TIP3    H211128   0.273   0.081   4.919
 3708TIP3   OH211129   2.852   2.007   4.634
 3708TIP3    H111130   2.859   2.007   4.729
 3708TIP3    H211131   2.904   1.932   4.606
 3709TIP3   OH211132   4.265   5.594   4.275
 3709TIP3    H111133   4.201   5.656   4.242
 3709TIP3    H211134   4.344   5.609   4.222
 3710TIP3   OH211135   3.746   5.154   3.414
 3710TIP3    H111136   3.739   5.120   3.325
 3710TIP3    H211137   3.688   5.099   3.465
 3711TIP3   OH211138   1.773   3.811   0.647
 3711TIP3    H111139   1.684   3.829   0.677
 3711TIP3    H211140   1.773   3.718   0.626
 3712TIP3   OH211141   1.306   3.678   2.830
 3712TIP3    H111142   1.269   3.634   2.906
 3712TIP3    H211143   1.352   3.609   2.783
 3713TIP3   OH211144   2.002   3.312   4.237
 3713TIP3    H111145   2.037   3.237   4.189
 3713TIP3    H211146   2.080   3.362   4.263
 3714TIP3   OH211147   5.114   3.809   2.089
 3714TIP3    H111148   5.095   3.849   2.004
 3714TIP3    H211149   5.081   3.872   2.153
 3715TIP3   OH211150   6.223   4.883   4.562
 3715TIP3    H111151   6.313   4.904   4.585
 3715TIP3    H211152   6.203   4.939   4.487
 3716TIP3   OH211153   6.083   2.152   1.659
 3716TIP3    H111154   6.123   2.238   1.642
 3716TIP3    H211155   6.054   2.122   1.573
 3717TIP3   OH211156   2.083   1.644   0.652
 3717TIP3    H111157   2.096   1.667   0.560
 3717TIP3    H211158   2.146   1.698   0.700
 3718TIP3   OH211159   2.827   5.276   4.642
 3718TIP3    H111160   2.753   5.258   4.700
 3718TIP3    H211161   2.891   5.207   4.663
 3719TIP3   OH211162   2.003   5.195   1.270
 3719TIP3    H111163   2.080   5.213   1.217
 3719TIP3    H211164   1.961   5.280   1.281
 3720TIP3   OH211165   4.460   3.496   3.890
 3720TIP3    H111166   4.458   3.586   3.856
 3720TIP3    H211167   4.371   3.479   3.918
 3721TIP3   OH211168   4.169   4.823   2.847
 3721TIP3    H111169   4.092   4.812   2.791
 3721TIP3    H211170   4.145   4.896   2.905
 3722TIP3   OH211171   2.589   4.003   0.937
 3722TIP3    H111172   2.526   4.039   1.000
 3722TIP3    H211173   2.628   3.928   0.983
 3723TIP3   OH211174   0.385   1.117   4.355
 3723TIP3    H111175   0.411   1.208   4.369
 3723TIP3    H211176   0.445   1.066   4.410
 3724TIP3   OH211177   6.228   0.696   0.416
 3724TIP3    H111178   6.312   0.668   0.379
 3724TIP3    H211179   6.215   0.785   0.383
 3725TIP3   OH211180   4.349   2.727   2.666
 3725TIP3    H111181   4.311   2.639   2.659
 3725TIP3    H211182   4.321   2.758   2.752
 3726TIP3   OH211183   5.170   5.785   2.009
 3726TIP3    H111184   5.239   5.806   1.946
 3726TIP3    H211185   5.216   5.767   2.091
 3727TIP3   OH211186   4.508   4.173   4.688
 3727TIP3    H111187   4.584   4.182   4.630
 3727TIP3    H211188   4.436   4.213   4.639
 3728TIP3   OH211189   0.876   0.343   2.069
 3728TIP3    H111190   0.967   0.355   2.041
 3728TIP3    H211191   0.881   0.331   2.163
 3729TIP3   OH211192   3.883   3.809   1.834
 3729TIP3    H111193   3.943   3.884   1.837
 3729TIP3    H211194   3.941   3.733   1.837
 3730TIP3   OH211195   0.022   4.054   3.336
 3730TIP3    H111196   0.068   4.125   3.382
 3730TIP3    H211197  -0.061   4.093   3.309
 3731TIP3   OH211198   1.870   5.390   2.930
 3731TIP3    H111199   1.906   5.428   3.010
 3731TIP3    H211200   1.933   5.322   2.906
 3732TIP3   OH211201   2.849   2.363   5.159
 3732TIP3    H111202   2.822   2.289   5.214
 3732TIP3    H211203   2.769   2.388   5.112
 3733TIP3   OH211204   2.232   2.209   3.024
 3733TIP3    H111205   2.175   2.141   3.060
 3733TIP3    H211206   2.307   2.213   3.085
 3734TIP3   OH211207   4.144   4.150   1.343
 3734TIP3    H111208   4.157   4.179   1.252
 3734TIP3    H211209   4.190   4.066   1.348
 3735TIP3   OH211210   0.017   0.467   5.050
 3735TIP3    H111211   0.084   0.526   5.085
 3735TIP3    H211212   0.038   0.382   5.088
 3736TIP3   OH211213   3.981   4.727   2.378
 3736TIP3    H111214   4.043   4.677   2.325
 3736TIP3    H211215   4.035   4.788   2.428
 3737TIP3   OH211216   1.225   4.372   3.821
 3737TIP3    H111217   1.235   4.330   3.736
 3737TIP3    H211218   1.134   4.400   3.824
 3738TIP3   OH211219   3.085   4.380   4.018
 3738TIP3    H111220   2.998   4.420   4.012
 3738TIP3    H211221   3.105   4.382   4.111
 3739TIP3   OH211222   3.803   2.927   2.972
 3739TIP3    H111223   3.711   2.901   2.962
 3739TIP3    H211224   3.839   2.863   3.033
 3740TIP3   OH211225   3.230   0.587   2.352
 3740TIP3    H111226   3.146   0.614   2.389
 3740TIP3    H211227   3.249   0.503   2.394
 3741TIP3   OH211228   6.043  -0.046   4.645
 3741TIP3    H111229   6.052   0.010   4.568
 3741TIP3    H211230   6.090  -0.127   4.621
 3742TIP3   OH211231   1.246   4.523   0.962
 3742TIP3    H111232   1.254   4.599   1.019
 3742TIP3    H211233   1.335   4.506   0.932
 3743TIP3   OH211234   5.931   1.231   0.137
 3743TIP3    H111235   5.903   1.192   0.054
 3743TIP3    H211236   6.022   1.206   0.147
 3744TIP3   OH211237   5.151   3.340   3.840
 3744TIP3    H111238   5.068   3.349   3.887
 3744TIP3    H211239   5.126   3.309   3.753
 3745TIP3   OH211240   2.666   3.830   1.359
 3745TIP3    H111241   2.760   3.820   1.368
 3745TIP3    H211242   2.629   3.786   1.435
 3746TIP3   OH211243   5.701   2.266   1.197
 3746TIP3    H111244   5.661   2.230   1.119
 3746TIP3    H211245   5.634   2.257   1.265
 3747TIP3   OH211246   2.397   5.122   1.866
 3747TIP3    H111247   2.449   5.200   1.884
 3747TIP3    H211248   2.461   5.051   1.860
 3748TIP3   OH211249   4.741   5.665   4.336
 3748TIP3    H111250   4.830   5.631   4.328
 3748TIP3    H211251   4.751   5.760   4.326
 3749TIP3   OH211252   5.112   5.887   0.558
 3749TIP3    H111253   5.143   5.973   0.586
 3749TIP3    H211254   5.177   5.858   0.494
 3750TIP3   OH211255   4.481   4.518   4.839
 3750TIP3    H111256   4.428   4.574   4.896
 3750TIP3    H211257   4.429   4.509   4.759
 3751TIP3   OH211258   1.525   5.026   0.809
 3751TIP3    H111259   1.491   4.965   0.744
 3751TIP3    H211260   1.476   5.107   0.794
 3752TIP3   OH211261   1.815   5.678   2.864
 3752TIP3    H111262   1.857   5.605   2.909
 3752TIP3    H211263   1.838   5.665   2.772
 3753TIP3   OH211264   4.775   1.557   3.717
 3753TIP3    H111265   4.757   1.543   3.810
 3753TIP3    H211266   4.868   1.536   3.707
 3754TIP3   OH211267   3.998   1.323   1.467
 3754TIP3    H111268   4.042   1.346   1.385
 3754TIP3    H211269   3.911   1.294   1.439
 3755TIP3   OH211270   3.311   2.654   3.881
 3755TIP3    H111271   3.268   2.619   3.959
 3755TIP3    H211272   3.346   2.576   3.836
 3756TIP3   OH211273   1.379   3.217   2.890
 3756TIP3    H111274   1.386   3.294   2.833
 3756TIP3    H211275   1.459   3.167   2.872
 3757TIP3   OH211276   3.257   3.963   2.786
 3757TIP3    H111277   3.218   4.051   2.779
 3757TIP3    H211278   3.259   3.930   2.696
 3758TIP3   OH211279   3.584   3.745   2.546
 3758TIP3    H111280   3.655   3.760   2.485
 3758TIP3    H211281   3.626   3.707   2.623
 3759TIP3   OH211282   2.199   4.065   3.752
 3759TIP3    H111283   2.277   4.043   3.702
 3759TIP3    H211284   2.230   4.116   3.826
 3760TIP3   OH211285   5.069   1.917   4.215
 3760TIP3    H111286   5.112   1.914   4.130
 3760TIP3    H211287   5.064   2.010   4.236
 3761TIP3   OH211288   1.780   4.351   2.612
 3761TIP3    H111289   1.747   4.272   2.656
 3761TIP3    H211290   1.866   4.326   2.578
 3762TIP3   OH211291   2.396   5.266   1.287
 3762TIP3    H111292   2.416   5.272   1.380
 3762TIP3    H211293   2.422   5.177   1.263
 3763TIP3   OH211294   1.882   4.716   4.181
 3763TIP3    H111295   1.940   4.640   4.172
 3763TIP3    H211296   1.877   4.732   4.275
 3764TIP3   OH211297   2.420   0.013   4.303
 3764TIP3    H111298   2.383  -0.042   4.233
 3764TIP3    H211299   2.343   0.045   4.350
 3765TIP3   OH211300   1.275   0.988   3.668
 3765TIP3    H111301   1.273   1.070   3.719
 3765TIP3    H211302   1.360   0.949   3.688
 3766TIP3   OH211303   1.617   1.143   1.196
 3766TIP3    H111304   1.543   1.107   1.245
 3766TIP3    H211305   1.578   1.189   1.122
 3767TIP3   OH211306   3.767   0.674   3.507
 3767TIP3    H111307   3.771   0.767   3.527
 3767TIP3    H211308   3.842   0.636   3.553
 3768TIP3   OH211309   2.490   1.229   2.147
 3768TIP3    H111310   2.575   1.185   2.147
 3768TIP3    H211311   2.490   1.280   2.228
 3769TIP3   OH211312   1.424   1.685   0.574
 3769TIP3    H111313   1.438   1.720   0.486
 3769TIP3    H211314   1.346   1.630   0.566
 3770TIP3   OH211315   4.572   5.803   0.964
 3770TIP3    H111316   4.571   5.828   0.871
 3770TIP3    H211317   4.512   5.864   1.005
 3771TIP3   OH211318   4.498   4.738   5.173
 3771TIP3    H111319   4.465   4.728   5.263
 3771TIP3    H211320   4.424   4.776   5.125
 3772TIP3   OH211321   2.003   1.491   1.194
 3772TIP3    H111322   2.017   1.455   1.281
 3772TIP3    H211323   2.028   1.421   1.134
 3773TIP3   OH211324   6.162   4.945   2.009
 3773TIP3    H111325   6.252   4.919   1.995
 3773TIP3    H211326   6.110   4.875   1.972
 3774TIP3   OH211327   1.151   2.388   2.615
 3774TIP3    H111328   1.238   2.368   2.650
 3774TIP3    H211329   1.124   2.467   2.661
 3775TIP3   OH211330   2.173   0.901   1.160
 3775TIP3    H111331   2.210   0.964   1.098
 3775TIP3    H211332   2.091   0.941   1.189
 3776TIP3   OH211333   0.186   3.296   3.597
 3776TIP3    H111334   0.094   3.323   3.598
 3776TIP3    H211335   0.183   3.203   3.578
 3777TIP3   OH211336   3.240   4.424   0.375
 3777TIP3    H111337   3.148   4.449   0.382
 3777TIP3    H211338   3.260   4.380   0.457
 3778TIP3   OH211339   3.483   2.203   0.540
 3778TIP3    H111340   3.395   2.164   0.545
 3778TIP3    H211341   3.516   2.173   0.455
 3779TIP3   OH211342   5.340   0.577   5.216
 3779TIP3    H111343   5.272   0.639   5.191
 3779TIP3    H211344   5.405   0.583   5.146
 3780TIP3   OH211345   4.315   0.413   4.279
 3780TIP3    H111346   4.245   0.471   4.308
 3780TIP3    H211347   4.390   0.470   4.264
 3781TIP3   OH211348   0.198  -0.012   1.125
 3781TIP3    H111349   0.178   0.079   1.147
 3781TIP3    H211350   0.128  -0.063   1.167
 3782TIP3   OH211351   4.064   3.336   2.868
 3782TIP3    H111352   3.992   3.318   2.929
 3782TIP3    H211353   4.051   3.427   2.842
 3783TIP3   OH211354   3.259   5.392   1.419
 3783TIP3    H111355   3.223   5.397   1.508
 3783TIP3    H211356   3.349   5.422   1.427
 3784TIP3   OH211357   0.843   4.598   2.913
 3784TIP3    H111358   0.786   4.521   2.920
 3784TIP3    H211359   0.927   4.569   2.947
 3785TIP3   OH211360   0.296   4.009   2.544
 3785TIP3    H111361   0.204   3.984   2.540
 3785TIP3    H211362   0.343   3.934   2.508
 3786TIP3   OH211363   4.183   1.451   3.435
 3786TIP3    H111364   4.270   1.425   3.405
 3786TIP3    H211365   4.145   1.371   3.471
 3787TIP3   OH211366   2.327   5.694   1.878
 3787TIP3    H111367   2.324   5.767   1.817
 3787TIP3    H211368   2.236   5.669   1.891
 3788TIP3   OH211369   1.140   3.731   0.627
 3788TIP3    H111370   1.203   3.772   0.568
 3788TIP3    H211371   1.103   3.804   0.677
 3789TIP3   OH211372   1.817   1.153   2.022
 3789TIP3    H111373   1.903   1.165   2.061
 3789TIP3    H211374   1.757   1.198   2.081
 3790TIP3   OH211375   3.277   2.903   3.220
 3790TIP3    H111376   3.344   2.844   3.257
 3790TIP3    H211377   3.195   2.855   3.230
 3791TIP3   OH211378   1.460   1.438   5.005
 3791TIP3    H111379   1.436   1.413   5.094
 3791TIP3    H211380   1.386   1.409   4.951
 3792TIP3   OH211381   4.207   5.029   4.469
 3792TIP3    H111382   4.120   5.050   4.504
 3792TIP3    H211383   4.231   5.106   4.418
 3793TIP3   OH211384   5.423   0.909   1.090
 3793TIP3    H111385   5.390   0.998   1.081
 3793TIP3    H211386   5.512   0.913   1.053
 3794TIP3   OH211387   4.467   0.330   1.976
 3794TIP3    H111388   4.561   0.332   1.997
 3794TIP3    H211389   4.463   0.292   1.888
 3795TIP3   OH211390   1.875   1.021   2.308
 3795TIP3    H111391   1.953   1.041   2.257
 3795TIP3    H211392   1.893   0.936   2.348
 3796TIP3   OH211393   2.501   2.564   3.285
 3796TIP3    H111394   2.596   2.566   3.297
 3796TIP3    H211395   2.466   2.549   3.373
 3797TIP3   OH211396   1.286   3.864   3.327
 3797TIP3    H111397   1.241   3.869   3.411
 3797TIP3    H211398   1.243   3.930   3.273
 3798TIP3   OH211399   1.611   3.896   1.270
 3798TIP3    H111400   1.665   3.948   1.211
 3798TIP3    H211401   1.524   3.936   1.264
 3799TIP3   OH211402   3.193   5.289   4.065
 3799TIP3    H111403   3.172   5.300   4.157
 3799TIP3    H211404   3.152   5.206   4.041
 3800TIP3   OH211405   2.557   1.106   0.007
 3800TIP3    H111406   2.505   1.136  -0.067
 3800TIP3    H211407   2.536   1.013   0.016
 3801TIP3   OH211408   3.873   1.624   3.871
 3801TIP3    H111409   3.792   1.623   3.820
 3801TIP3    H211410   3.879   1.713   3.906
 3802TIP3   OH211411   5.407   2.224   1.223
 3802TIP3    H111412   5.334   2.201   1.165
 3802TIP3    H211413   5.388   2.314   1.250
 3803TIP3   OH211414   6.248   5.771   4.089
 3803TIP3    H111415   6.223   5.697   4.144
 3803TIP3    H211416   6.229   5.849   4.142
 3804TIP3   OH211417   4.473   5.858   2.556
 3804TIP3    H111418   4.457   5.875   2.463
 3804TIP3    H211419   4.525   5.778   2.558
 3805TIP3   OH211420   5.205   5.945   1.492
 3805TIP3    H111421   5.257   6.007   1.441
 3805TIP3    H211422   5.151   5.899   1.426
 3806TIP3   OH211423   2.204   0.242   4.608
 3806TIP3    H111424   2.168   0.240   4.696
 3806TIP3    H211425   2.259   0.164   4.602
 3807TIP3   OH211426   5.481   2.310   3.182
 3807TIP3    H111427   5.563   2.355   3.201
 3807TIP3    H211428   5.414   2.378   3.187
 3808TIP3   OH211429   1.327   2.161   3.315
 3808TIP3    H111430   1.273   2.205   3.381
 3808TIP3    H211431   1.278   2.173   3.233
 3809TIP3   OH211432   2.339   4.538   3.049
 3809TIP3    H111433   2.373   4.579   3.128
 3809TIP3    H211434   2.244   4.541   3.060
 3810TIP3   OH211435   5.735   1.643   2.383
 3810TIP3    H111436   5.747   1.557   2.424
 3810TIP3    H211437   5.640   1.654   2.379
 3811TIP3   OH211438   5.528   0.109   4.850
 3811TIP3    H111439   5.444   0.085   4.812
 3811TIP3    H211440   5.590   0.048   4.810
 3812TIP3   OH211441   3.665   0.974   2.345
 3812TIP3    H111442   3.665   0.894   2.397
 3812TIP3    H211443   3.599   1.030   2.386
 3813TIP3   OH211444   5.765   3.426   0.516
 3813TIP3    H111445   5.691   3.487   0.513
 3813TIP3    H211446   5.833   3.467   0.463
 3814TIP3   OH211447   6.329   2.610   4.940
 3814TIP3    H111448   6.322   2.673   5.011
 3814TIP3    H211449   6.316   2.662   4.861
 3815TIP3   OH211450   0.478   0.297   1.126
 3815TIP3    H111451   0.468   0.269   1.035
 3815TIP3    H211452   0.415   0.369   1.136
 3816TIP3   OH211453   3.997   0.554   3.600
 3816TIP3    H111454   4.081   0.598   3.589
 3816TIP3    H211455   4.001   0.477   3.543
 3817TIP3   OH211456   5.693   0.858   1.273
 3817TIP3    H111457   5.786   0.845   1.291
 3817TIP3    H211458   5.686   0.856   1.178
 3818TIP3   OH211459   2.131   0.355   1.567
 3818TIP3    H111460   2.038   0.352   1.545
 3818TIP3    H211461   2.176   0.355   1.483
 3819TIP3   OH211462   1.624   3.568   0.563
 3819TIP3    H111463   1.587   3.481   0.581
 3819TIP3    H211464   1.641   3.567   0.469
 3820TIP3   OH211465   3.503   5.518   2.724
 3820TIP3    H111466   3.469   5.606   2.708
 3820TIP3    H211467   3.483   5.469   2.644
 3821TIP3   OH211468   1.275   3.017   1.257
 3821TIP3    H111469   1.241   3.087   1.201
 3821TIP3    H211470   1.250   2.936   1.214
 3822TIP3   OH211471   4.630   3.394   1.438
 3822TIP3    H111472   4.647   3.480   1.398
 3822TIP3    H211473   4.610   3.337   1.363
 3823TIP3   OH211474   1.495   3.518   3.082
 3823TIP3    H111475   1.401   3.503   3.096
 3823TIP3    H211476   1.533   3.430   3.085
 3824TIP3   OH211477   0.428   3.630   2.054
 3824TIP3    H111478   0.436   3.690   1.979
 3824TIP3    H211479   0.416   3.544   2.014
 3825TIP3   OH211480   5.032   3.522   1.093
 3825TIP3    H111481   5.065   3.534   1.182
 3825TIP3    H211482   4.972   3.448   1.099
 3826TIP3   OH211483   4.220   3.240   4.050
 3826TIP3    H111484   4.291   3.240   4.115
 3826TIP3    H211485   4.210   3.148   4.026
 3827TIP3   OH211486   0.003   1.307   0.663
 3827TIP3    H111487   0.087   1.351   0.648
 3827TIP3    H211488  -0.015   1.260   0.581
 3828TIP3   OH211489   1.592   2.053   3.243
 3828TIP3    H111490   1.500   2.070   3.259
 3828TIP3    H211491   1.611   1.974   3.294
 3829TIP3   OH211492   1.948   5.935   2.869
 3829TIP3    H111493   1.958   5.947   2.963
 3829TIP3    H211494   1.900   5.853   2.860
 3830TIP3   OH211495   2.646   4.470   2.961
 3830TIP3    H111496   2.656   4.381   2.994
 3830TIP3    H211497   2.646   4.461   2.866
 3831TIP3   OH211498   3.324   5.104   2.980
 3831TIP3    H111499   3.407   5.148   2.999
 3831TIP3    H211500   3.336   5.065   2.894
 3832TIP3   OH211501   6.060   0.176   4.452
 3832TIP3    H111502   5.983   0.194   4.398
 3832TIP3    H211503   6.118   0.124   4.396
 3833TIP3   OH211504   1.130   5.304   3.134
 3833TIP3    H111505   1.054   5.262   3.093
 3833TIP3    H211506   1.156   5.243   3.203
 3834TIP3   OH211507   1.524   3.412   3.685
 3834TIP3    H111508   1.589   3.355   3.643
 3834TIP3    H211509   1.506   3.371   3.769
 3835TIP3   OH211510   3.312   2.697   0.388
 3835TIP3    H111511   3.261   2.665   0.313
 3835TIP3    H211512   3.315   2.623   0.449
 3836TIP3   OH211513   5.987   1.800   0.809
 3836TIP3    H111514   6.056   1.861   0.834
 3836TIP3    H211515   6.029   1.714   0.811
 3837TIP3   OH211516   5.651   1.185   3.350
 3837TIP3    H111517   5.725   1.216   3.403
 3837TIP3    H211518   5.574   1.210   3.401
 3838TIP3   OH211519   3.813   3.095   0.306
 3838TIP3    H111520   3.892   3.087   0.359
 3838TIP3    H211521   3.840   3.067   0.218
 3839TIP3   OH211522   0.918   0.891   1.618
 3839TIP3    H111523   0.929   0.980   1.652
 3839TIP3    H211524   1.000   0.847   1.637
 3840TIP3   OH211525   2.890   1.041   2.766
 3840TIP3    H111526   2.954   1.078   2.705
 3840TIP3    H211527   2.835   1.115   2.792
 3841TIP3   OH211528   2.852   5.168   2.599
 3841TIP3    H111529   2.822   5.242   2.547
 3841TIP3    H211530   2.784   5.102   2.590
 3842TIP3   OH211531   0.401   2.401   0.142
 3842TIP3    H111532   0.422   2.446   0.223
 3842TIP3    H211533   0.307   2.416   0.129
 3843TIP3   OH211534   5.621   3.306   2.890
 3843TIP3    H111535   5.597   3.387   2.845
 3843TIP3    H211536   5.626   3.330   2.982
 3844TIP3   OH211537   3.161   5.755   1.498
 3844TIP3    H111538   3.211   5.804   1.432
 3844TIP3    H211539   3.222   5.744   1.571
 3845TIP3   OH211540   1.291   2.665   0.179
 3845TIP3    H111541   1.227   2.599   0.154
 3845TIP3    H211542   1.320   2.703   0.095
 3846TIP3   OH211543   5.808   4.842   4.120
 3846TIP3    H111544   5.873   4.815   4.185
 3846TIP3    H211545   5.812   4.774   4.052
 3847TIP3   OH211546   0.873   3.295   3.695
 3847TIP3    H111547   0.881   3.249   3.611
 3847TIP3    H211548   0.920   3.377   3.682
 3848TIP3   OH211549   1.792   2.931   4.494
 3848TIP3    H111550   1.853   3.004   4.499
 3848TIP3    H211551   1.847   2.853   4.492
 3849TIP3   OH211552   2.012   5.161   4.320
 3849TIP3    H111553   1.929   5.209   4.319
 3849TIP3    H211554   1.998   5.091   4.385
 3850TIP3   OH211555   4.532   3.133   5.124
 3850TIP3    H111556   4.438   3.119   5.119
 3850TIP3    H211557   4.544   3.198   5.192
 3851TIP3   OH211558   2.844   5.418   4.041
 3851TIP3    H111559   2.901   5.457   3.974
 3851TIP3    H211560   2.767   5.389   3.993
 3852TIP3   OH211561   0.956   3.498   1.495
 3852TIP3    H111562   1.035   3.451   1.472
 3852TIP3    H211563   0.953   3.495   1.591
 3853TIP3   OH211564   2.225   4.603   5.009
 3853TIP3    H111565   2.274   4.669   4.959
 3853TIP3    H211566   2.241   4.625   5.101
 3854TIP3   OH211567   4.912   5.386   3.218
 3854TIP3    H111568   4.942   5.351   3.134
 3854TIP3    H211569   4.823   5.416   3.201
 3855TIP3   OH211570   4.396   1.135   1.678
 3855TIP3    H111571   4.318   1.191   1.683
 3855TIP3    H211572   4.441   1.150   1.760
 3856TIP3   OH211573   0.237   0.454   1.155
 3856TIP3    H111574   0.208   0.479   1.243
 3856TIP3    H211575   0.162   0.410   1.116
 3857TIP3   OH211576   4.191   0.575   1.783
 3857TIP3    H111577   4.117   0.630   1.804
 3857TIP3    H211578   4.220   0.540   1.867
 3858TIP3   OH211579   3.734   0.586   0.094
 3858TIP3    H111580   3.825   0.572   0.120
 3858TIP3    H211581   3.730   0.678   0.068
 3859TIP3   OH211582   5.181   3.987   1.080
 3859TIP3    H111583   5.124   4.065   1.082
 3859TIP3    H211584   5.146   3.930   1.148
 3860TIP3   OH211585   4.522   3.257   0.902
 3860TIP3    H111586   4.533   3.241   0.996
 3860TIP3    H211587   4.529   3.170   0.862
 3861TIP3   OH211588   2.288   4.259   4.348
 3861TIP3    H111589   2.357   4.262   4.282
 3861TIP3    H211590   2.214   4.217   4.304
 3862TIP3   OH211591   3.243   1.377   0.777
 3862TIP3    H111592   3.304   1.303   0.779
 3862TIP3    H211593   3.189   1.361   0.700
 3863TIP3   OH211594   4.967   2.232   3.697
 3863TIP3    H111595   4.927   2.154   3.659
 3863TIP3    H211596   5.052   2.201   3.731
 3864TIP3   OH211597   4.725   0.309   3.600
 3864TIP3    H111598   4.705   0.400   3.577
 3864TIP3    H211599   4.782   0.278   3.530
 3865TIP3   OH211600   3.671   1.067   0.874
 3865TIP3    H111601   3.755   1.109   0.890
 3865TIP3    H211602   3.678   0.982   0.918
 3866TIP3   OH211603   1.665   4.694   0.073
 3866TIP3    H111604   1.711   4.633   0.015
 3866TIP3    H211605   1.662   4.649   0.157
 3867TIP3   OH211606   5.433   0.831   4.884
 3867TIP3    H111607   5.461   0.913   4.925
 3867TIP3    H211608   5.457   0.763   4.947
 3868TIP3   OH211609   4.697   5.397   4.468
 3868TIP3    H111610   4.665   5.465   4.410
 3868TIP3    H211611   4.787   5.422   4.487
 3869TIP3   OH211612   6.108   5.073   3.564
 3869TIP3    H111613   6.042   5.141   3.546
 3869TIP3    H211614   6.166   5.074   3.488
 3870TIP3   OH211615   3.016   0.094   3.252
 3870TIP3    H111616   2.977   0.072   3.337
 3870TIP3    H211617   2.992   0.021   3.195
 3871TIP3   OH211618   0.218   2.277   3.773
 3871TIP3    H111619   0.125   2.302   3.776
 3871TIP3    H211620   0.223   2.199   3.828
 3872TIP3   OH211621   3.445   2.358   5.132
 3872TIP3    H111622   3.367   2.378   5.184
 3872TIP3    H211623   3.440   2.263   5.118
 3873TIP3   OH211624   3.283   2.289   4.125
 3873TIP3    H111625   3.251   2.260   4.210
 3873TIP3    H211626   3.366   2.242   4.113
 3874TIP3   OH211627   4.524   4.798   4.128
 3874TIP3    H111628   4.552   4.858   4.059
 3874TIP3    H211629   4.483   4.854   4.194
 3875TIP3   OH211630   5.522   1.189   4.420
 3875TIP3    H111631   5.429   1.166   4.433
 3875TIP3    H211632   5.552   1.129   4.352
 3876TIP3   OH211633   0.928   2.451   1.989
 3876TIP3    H111634   1.014   2.439   2.030
 3876TIP3    H211635   0.865   2.424   2.056
 3877TIP3   OH211636   1.628   0.549   4.923
 3877TIP3    H111637   1.565   0.592   4.866
 3877TIP3    H211638   1.581   0.535   5.005
 3878TIP3   OH211639   5.746   0.791   0.578
 3878TIP3    H111640   5.723   0.738   0.655
 3878TIP3    H211641   5.828   0.753   0.546
 3879TIP3   OH211642   1.305   0.158   1.569
 3879TIP3    H111643   1.243   0.126   1.635
 3879TIP3    H211644   1.292   0.253   1.570
 3880TIP3   OH211645   3.784   2.897   4.651
 3880TIP3    H111646   3.877   2.908   4.630
 3880TIP3    H211647   3.772   2.942   4.734
 3881TIP3   OH211648   5.710   0.946   0.985
 3881TIP3    H111649   5.703   1.006   0.911
 3881TIP3    H211650   5.745   1.000   1.056
 3882TIP3   OH211651   1.561   5.697   4.863
 3882TIP3    H111652   1.647   5.683   4.822
 3882TIP3    H211653   1.581   5.722   4.953
 3883TIP3   OH211654   4.390   2.559   1.702
 3883TIP3    H111655   4.444   2.480   1.702
 3883TIP3    H211656   4.347   2.559   1.616
 3884TIP3   OH211657   1.784   2.183   1.570
 3884TIP3    H111658   1.847   2.201   1.640
 3884TIP3    H211659   1.808   2.096   1.537
 3885TIP3   OH211660   0.982   3.982   1.977
 3885TIP3    H111661   0.946   3.904   1.934
 3885TIP3    H211662   0.975   3.964   2.071
 3886TIP3   OH211663   6.124   1.960   4.864
 3886TIP3    H111664   6.169   2.002   4.938
 3886TIP3    H211665   6.052   2.019   4.843
 3887TIP3   OH211666   3.158   0.561   3.848
 3887TIP3    H111667   3.130   0.643   3.806
 3887TIP3    H211668   3.179   0.587   3.937
 3888TIP3   OH211669   0.733   0.236   0.018
 3888TIP3    H111670   0.718   0.141   0.020
 3888TIP3    H211671   0.688   0.266  -0.060
 3889TIP3   OH211672   3.590   5.905   1.732
 3889TIP3    H111673   3.640   5.832   1.768
 3889TIP3    H211674   3.566   5.958   1.808
 3890TIP3   OH211675   4.306   3.184   3.728
 3890TIP3    H111676   4.239   3.120   3.752
 3890TIP3    H211677   4.259   3.267   3.725
 3891TIP3   OH211678   5.843   3.838   1.136
 3891TIP3    H111679   5.921   3.790   1.109
 3891TIP3    H211680   5.818   3.889   1.059
 3892TIP3   OH211681   4.196   2.559   1.181
 3892TIP3    H111682   4.224   2.616   1.253
 3892TIP3    H211683   4.193   2.617   1.105
 3893TIP3   OH211684   0.483   1.284   4.963
 3893TIP3    H111685   0.398   1.273   4.921
 3893TIP3    H211686   0.531   1.345   4.907
 3894TIP3   OH211687   0.744   5.038   1.856
 3894TIP3    H111688   0.716   5.082   1.936
 3894TIP3    H211689   0.664   5.027   1.805
 3895TIP3   OH211690   1.740   4.960   0.172
 3895TIP3    H111691   1.700   4.979   0.257
 3895TIP3    H211692   1.694   4.882   0.141
 3896TIP3   OH211693   1.926   4.580   0.992
 3896TIP3    H111694   1.845   4.627   0.973
 3896TIP3    H211695   1.962   4.557   0.906
 3897TIP3   OH211696   3.768   5.863   0.091
 3897TIP3    H111697   3.735   5.889   0.177
 3897TIP3    H211698   3.695   5.882   0.031
 3898TIP3   OH211699   1.405   2.180   4.961
 3898TIP3    H111700   1.494   2.145   4.967
 3898TIP3    H211701   1.362   2.126   4.895
 3899TIP3   OH211702   2.502   2.460   2.240
 3899TIP3    H111703   2.575   2.408   2.206
 3899TIP3    H211704   2.525   2.475   2.332
 3900TIP3   OH211705   4.066   4.614   3.715
 3900TIP3    H111706   4.093   4.534   3.760
 3900TIP3    H211707   3.970   4.610   3.715
 3901TIP3   OH211708   3.448   1.322   1.767
 3901TIP3    H111709   3.419   1.236   1.739
 3901TIP3    H211710   3.371   1.362   1.806
 3902TIP3   OH211711   0.456   3.792   4.361
 3902TIP3    H111712   0.466   3.698   4.369
 3902TIP3    H211713   0.524   3.829   4.419
 3903TIP3   OH211714   2.186   5.487   1.276
 3903TIP3    H111715   2.238   5.408   1.265
 3903TIP3    H211716   2.213   5.522   1.361
 3904TIP3   OH211717   3.280   0.008   0.107
 3904TIP3    H111718   3.284  -0.076   0.153
 3904TIP3    H211719   3.311  -0.012   0.019
 3905TIP3   OH211720   2.707   4.718   2.450
 3905TIP3    H111721   2.743   4.696   2.364
 3905TIP3    H211722   2.615   4.691   2.446
 3906TIP3   OH211723   4.816   1.302   2.115
 3906TIP3    H111724   4.794   1.209   2.103
 3906TIP3    H211725   4.738   1.339   2.156
 3907TIP3   OH211726   0.051   5.748   0.932
 3907TIP3    H111727  -0.007   5.721   1.003
 3907TIP3    H211728   0.077   5.837   0.954
 3908TIP3   OH211729   6.030   1.503   5.114
 3908TIP3    H111730   6.104   1.474   5.167
 3908TIP3    H211731   6.061   1.498   5.024
 3909TIP3   OH211732   6.251   0.388   4.558
 3909TIP3    H111733   6.185   0.333   4.516
 3909TIP3    H211734   6.328   0.331   4.568
 3910TIP3   OH211735   0.759   0.692   3.798
 3910TIP3    H111736   0.695   0.621   3.788
 3910TIP3    H211737   0.823   0.676   3.729
 3911TIP3   OH211738   4.190   3.369   3.204
 3911TIP3    H111739   4.137   3.429   3.152
 3911TIP3    H211740   4.251   3.330   3.142
 3912TIP3   OH211741   0.748   3.072   0.004
 3912TIP3    H111742   0.749   2.976   0.006
 3912TIP3    H211743   0.837   3.097   0.030
 3913TIP3   OH211744   3.085   1.855   4.235
 3913TIP3    H111745   3.178   1.875   4.229
 3913TIP3    H211746   3.063   1.816   4.150
 3914TIP3   OH211747   0.097   1.268   2.998
 3914TIP3    H111748   0.090   1.260   2.903
 3914TIP3    H211749   0.159   1.339   3.012
 3915TIP3   OH211750   6.093   1.194   2.416
 3915TIP3    H111751   6.118   1.172   2.326
 3915TIP3    H211752   6.165   1.247   2.449
 3916TIP3   OH211753   5.104   1.278   2.749
 3916TIP3    H111754   5.050   1.303   2.674
 3916TIP3    H211755   5.045   1.224   2.802
 3917TIP3   OH211756   4.471   2.174   2.327
 3917TIP3    H111757   4.424   2.244   2.281
 3917TIP3    H211758   4.555   2.166   2.280
 3918TIP3   OH211759   3.428   1.390   0.512
 3918TIP3    H111760   3.517   1.365   0.537
 3918TIP3    H211761   3.436   1.421   0.422
 3919TIP3   OH211762   1.879   4.101   1.192
 3919TIP3    H111763   1.918   4.140   1.113
 3919TIP3    H211764   1.858   4.011   1.166
 3920TIP3   OH211765   4.196   0.398   2.018
 3920TIP3    H111766   4.289   0.407   1.998
 3920TIP3    H211767   4.175   0.477   2.070
 3921TIP3   OH211768   3.608   1.510   2.833
 3921TIP3    H111769   3.622   1.541   2.922
 3921TIP3    H211770   3.581   1.589   2.785
 3922TIP3   OH211771   5.379   3.409   3.962
 3922TIP3    H111772   5.285   3.403   3.944
 3922TIP3    H211773   5.414   3.324   3.937
 3923TIP3   OH211774   6.053   0.701   4.725
 3923TIP3    H111775   6.143   0.695   4.756
 3923TIP3    H211776   6.033   0.613   4.693
 3924TIP3   OH211777   2.266   5.109   3.435
 3924TIP3    H111778   2.335   5.159   3.479
 3924TIP3    H211779   2.185   5.136   3.478
 3925TIP3   OH211780   4.134   1.218   3.118
 3925TIP3    H111781   4.125   1.146   3.056
 3925TIP3    H211782   4.052   1.267   3.109
 3926TIP3   OH211783   2.357   0.418   0.106
 3926TIP3    H111784   2.336   0.485   0.041
 3926TIP3    H211785   2.283   0.420   0.167
 3927TIP3   OH211786   3.310   2.046   3.274
 3927TIP3    H111787   3.347   1.963   3.302
 3927TIP3    H211788   3.289   2.092   3.355
 3928TIP3   OH211789   4.055   4.289   1.585
 3928TIP3    H111790   3.965   4.309   1.558
 3928TIP3    H211791   4.094   4.247   1.508
 3929TIP3   OH211792   1.179   3.692   1.782
 3929TIP3    H111793   1.103   3.642   1.811
 3929TIP3    H211794   1.153   3.783   1.794
 3930TIP3   OH211795   2.939   3.942   3.811
 3930TIP3    H111796   3.005   4.000   3.773
 3930TIP3    H211797   2.945   3.957   3.905
 3931TIP3   OH211798   5.313   0.592   0.045
 3931TIP3    H111799   5.337   0.629   0.130
 3931TIP3    H211800   5.393   0.548   0.015
 3932TIP3   OH211801   0.053   3.893   2.681
 3932TIP3    H111802   0.000   3.838   2.624
 3932TIP3    H211803  -0.004   3.912   2.756
 3933TIP3   OH211804   4.173   6.026   2.719
 3933TIP3    H111805   4.203   5.943   2.680
 3933TIP3    H211806   4.078   6.019   2.720
 3934TIP3   OH211807   4.532   2.433   2.713
 3934TIP3    H111808   4.538   2.490   2.789
 3934TIP3    H211809   4.622   2.429   2.679
 3935TIP3   OH211810   3.789   4.522   4.000
 3935TIP3    H111811   3.749   4.437   4.017
 3935TIP3    H211812   3.715   4.583   3.996
 3936TIP3   OH211813   5.848   4.998   0.851
 3936TIP3    H111814   5.938   5.030   0.852
 3936TIP3    H211815   5.813   5.021   0.937
 3937TIP3   OH211816   3.365   0.041   0.891
 3937TIP3    H111817   3.328   0.109   0.947
 3937TIP3    H211818   3.402  -0.023   0.951
 3938TIP3   OH211819   4.579   0.168   3.175
 3938TIP3    H111820   4.496   0.121   3.184
 3938TIP3    H211821   4.602   0.160   3.083
 3939TIP3   OH211822   0.624   4.385   2.426
 3939TIP3    H111823   0.683   4.452   2.460
 3939TIP3    H211824   0.540   4.404   2.466
 3940TIP3   OH211825   0.242   0.187   3.303
 3940TIP3    H111826   0.302   0.183   3.378
 3940TIP3    H211827   0.295   0.223   3.232
 3941TIP3   OH211828   4.519   3.344   1.719
 3941TIP3    H111829   4.603   3.301   1.701
 3941TIP3    H211830   4.504   3.401   1.644
 3942TIP3   OH211831   3.880   2.113   1.005
 3942TIP3    H111832   3.929   2.057   1.065
 3942TIP3    H211833   3.791   2.078   1.006
 3943TIP3   OH211834   3.731   0.992   5.104
 3943TIP3    H111835   3.674   1.030   5.037
 3943TIP3    H211836   3.727   0.897   5.088
 3944TIP3   OH211837   2.816   3.388   4.395
 3944TIP3    H111838   2.743   3.382   4.457
 3944TIP3    H211839   2.828   3.482   4.381
 3945TIP3   OH211840   2.638   2.203   1.292
 3945TIP3    H111841   2.543   2.200   1.294
 3945TIP3    H211842   2.662   2.187   1.201
 3946TIP3   OH211843   5.617   1.880   3.932
 3946TIP3    H111844   5.532   1.912   3.962
 3946TIP3    H211845   5.664   1.858   4.012
 3947TIP3   OH211846   6.317   5.927   4.532
 3947TIP3    H111847   6.323   5.841   4.490
 3947TIP3    H211848   6.369   5.918   4.612
 3948TIP3   OH211849   4.303   3.487   4.906
 3948TIP3    H111850   4.255   3.536   4.839
 3948TIP3    H211851   4.240   3.476   4.977
 3949TIP3   OH211852   4.041   5.084   1.477
 3949TIP3    H111853   4.096   5.054   1.549
 3949TIP3    H211854   4.013   5.003   1.433
 3950TIP3   OH211855   4.657   0.442   0.423
 3950TIP3    H111856   4.733   0.385   0.437
 3950TIP3    H211857   4.672   0.479   0.336
 3951TIP3   OH211858   3.150   1.261   2.025
 3951TIP3    H111859   3.062   1.274   2.059
 3951TIP3    H211860   3.138   1.206   1.947
 3952TIP3   OH211861   4.686   2.349   2.440
 3952TIP3    H111862   4.775   2.333   2.408
 3952TIP3    H211863   4.631   2.289   2.391
 3953TIP3   OH211864   3.913   0.892   1.670
 3953TIP3    H111865   3.929   0.903   1.576
 3953TIP3    H211866   3.905   0.981   1.703
 3954TIP3   OH211867   2.939   4.395   2.907
 3954TIP3    H111868   3.012   4.455   2.921
 3954TIP3    H211869   2.900   4.423   2.824
 3955TIP3   OH211870   0.138   0.741   0.680
 3955TIP3    H111871   0.045   0.759   0.669
 3955TIP3    H211872   0.146   0.711   0.771
 3956TIP3   OH211873   5.197   2.695   2.621
 3956TIP3    H111874   5.224   2.651   2.701
 3956TIP3    H211875   5.249   2.654   2.552
 3957TIP3   OH211876   3.934   0.988   2.381
 3957TIP3    H111877   3.917   1.066   2.329
 3957TIP3    H211878   3.853   0.937   2.375
 3958TIP3   OH211879   2.341   2.470   4.187
 3958TIP3    H111880   2.407   2.540   4.194
 3958TIP3    H211881   2.392   2.390   4.183
 3959TIP3   OH211882   5.309   0.444   1.746
 3959TIP3    H111883   5.236   0.405   1.698
 3959TIP3    H211884   5.317   0.533   1.711
 3960TIP3   OH211885   2.761   0.134   2.509
 3960TIP3    H111886   2.704   0.199   2.468
 3960TIP3    H211887   2.812   0.099   2.436
 3961TIP3   OH211888   1.458   3.964   4.880
 3961TIP3    H111889   1.431   3.876   4.910
 3961TIP3    H211890   1.472   3.954   4.786
 3962TIP3   OH211891   2.907   5.295   5.009
 3962TIP3    H111892   2.927   5.222   4.951
 3962TIP3    H211893   2.814   5.311   4.998
 3963TIP3   OH211894   6.154   2.697   3.864
 3963TIP3    H111895   6.183   2.788   3.873
 3963TIP3    H211896   6.111   2.694   3.779
 3964TIP3   OH211897   0.115   3.029   2.134
 3964TIP3    H111898   0.062   2.973   2.191
 3964TIP3    H211899   0.076   3.019   2.047
 3965TIP3   OH211900   4.174   5.835   2.461
 3965TIP3    H111901   4.239   5.867   2.398
 3965TIP3    H211902   4.196   5.743   2.474
 3966TIP3   OH211903   2.737   0.454   4.639
 3966TIP3    H111904   2.747   0.387   4.706
 3966TIP3    H211905   2.653   0.433   4.598
 3967TIP3   OH211906   0.025   2.935   0.438
 3967TIP3    H111907   0.057   2.987   0.512
 3967TIP3    H211908   0.033   2.993   0.363
 3968TIP3   OH211909   2.380   3.597   1.283
 3968TIP3    H111910   2.286   3.585   1.297
 3968TIP3    H211911   2.398   3.555   1.199
 3969TIP3   OH211912   4.874   1.006   0.858
 3969TIP3    H111913   4.879   1.068   0.785
 3969TIP3    H211914   4.818   0.935   0.826
 3970TIP3   OH211915   4.034   4.873   3.636
 3970TIP3    H111916   4.034   4.781   3.661
 3970TIP3    H211917   4.096   4.877   3.563
 3971TIP3   OH211918   4.631   2.747   0.473
 3971TIP3    H111919   4.585   2.830   0.468
 3971TIP3    H211920   4.700   2.762   0.538
 3972TIP3   OH211921   1.474   1.148   4.078
 3972TIP3    H111922   1.520   1.209   4.135
 3972TIP3    H211923   1.498   1.062   4.112
 3973TIP3   OH211924   0.593   0.698   4.112
 3973TIP3    H111925   0.525   0.645   4.069
 3973TIP3    H211926   0.673   0.646   4.104
 3974TIP3   OH211927   2.448   4.220   3.156
 3974TIP3    H111928   2.457   4.295   3.214
 3974TIP3    H211929   2.354   4.199   3.159
 3975TIP3   OH211930   1.626   2.350   4.713
 3975TIP3    H111931   1.576   2.432   4.712
 3975TIP3    H211932   1.706   2.371   4.664
 3976TIP3   OH211933   4.428   1.136   2.423
 3976TIP3    H111934   4.358   1.124   2.359
 3976TIP3    H211935   4.409   1.071   2.491
 3977TIP3   OH211936   5.647   0.156   1.899
 3977TIP3    H111937   5.680   0.196   1.980
 3977TIP3    H211938   5.581   0.218   1.866
 3978TIP3   OH211939   5.384   2.847   0.315
 3978TIP3    H111940   5.438   2.769   0.301
 3978TIP3    H211941   5.329   2.853   0.237
 3979TIP3   OH211942   1.435   5.921   1.517
 3979TIP3    H111943   1.361   5.933   1.457
 3979TIP3    H211944   1.490   5.856   1.474
 3980TIP3   OH211945   4.559   0.907   0.203
 3980TIP3    H111946   4.530   0.858   0.126
 3980TIP3    H211947   4.649   0.933   0.182
 3981TIP3   OH211948   0.758   0.142   1.607
 3981TIP3    H111949   0.815   0.096   1.545
 3981TIP3    H211950   0.818   0.179   1.671
 3982TIP3   OH211951   1.041   6.016   2.895
 3982TIP3    H111952   1.086   5.943   2.853
 3982TIP3    H211953   0.953   6.014   2.858
 3983TIP3   OH211954   1.161   4.781   4.269
 3983TIP3    H111955   1.097   4.818   4.209
 3983TIP3    H211956   1.244   4.784   4.222
 3984TIP3   OH211957   1.704   0.282   0.767
 3984TIP3    H111958   1.616   0.276   0.731
 3984TIP3    H211959   1.747   0.348   0.713
 3985TIP3   OH211960   4.039   3.585   1.854
 3985TIP3    H111961   3.991   3.502   1.850
 3985TIP3    H211962   4.106   3.571   1.920
 3986TIP3   OH211963   2.106   3.328   2.467
 3986TIP3    H111964   2.051   3.395   2.425
 3986TIP3    H211965   2.137   3.370   2.547
 3987TIP3   OH211966   0.052   5.183   0.632
 3987TIP3    H111967   0.004   5.175   0.714
 3987TIP3    H211968   0.029   5.104   0.583
 3988TIP3   OH211969   2.591   1.041   0.988
 3988TIP3    H111970   2.632   1.109   0.934
 3988TIP3    H211971   2.544   0.986   0.925
 3989TIP3   OH211972   2.248   4.838   1.359
 3989TIP3    H111973   2.210   4.920   1.389
 3989TIP3    H211974   2.188   4.807   1.290
 3990TIP3   OH211975   2.538   2.494   2.506
 3990TIP3    H111976   2.561   2.405   2.533
 3990TIP3    H211977   2.490   2.530   2.581
 3991TIP3   OH211978   0.673   2.558   4.149
 3991TIP3    H111979   0.704   2.485   4.095
 3991TIP3    H211980   0.726   2.633   4.121
 3992TIP3   OH211981   5.653   3.843   3.200
 3992TIP3    H111982   5.718   3.852   3.270
 3992TIP3    H211983   5.692   3.781   3.139
 3993TIP3   OH211984   0.197   4.948   4.277
 3993TIP3    H111985   0.124   4.934   4.217
 3993TIP3    H211986   0.161   4.932   4.363
 3994TIP3   OH211987   1.979   1.395   4.430
 3994TIP3    H111988   2.043   1.347   4.378
 3994TIP3    H211989   1.943   1.330   4.490
 3995TIP3   OH211990   5.692   5.457   2.086
 3995TIP3    H111991   5.709   5.543   2.048
 3995TIP3    H211992   5.597   5.445   2.080
 3996TIP3   OH211993   0.927   1.876   1.676
 3996TIP3    H111994   0.887   1.831   1.602
 3996TIP3    H211995   1.018   1.848   1.675
 3997TIP3   OH211996   5.061   5.210   2.321
 3997TIP3    H111997   4.997   5.139   2.311
 3997TIP3    H211998   5.087   5.205   2.413
 3998TIP3   OH211999   3.955   1.693   3.599
 3998TIP3    H112000   3.983   1.645   3.676
 3998TIP3    H212001   3.859   1.685   3.599
 3999TIP3   OH212002   1.015   4.554   4.987
 3999TIP3    H112003   1.058   4.495   4.926
 3999TIP3    H212004   1.027   4.641   4.949
 4000TIP3   OH212005   3.838   1.951   3.227
 4000TIP3    H112006   3.897   2.008   3.179
 4000TIP3    H212007   3.757   1.950   3.175
 4001TIP3   OH212008   3.892   3.086   1.125
 4001TIP3    H112009   3.881   2.995   1.096
 4001TIP3    H212010   3.969   3.117   1.077
 4002TIP3   OH212011   5.764   1.435   2.803
 4002TIP3    H112012   5.848   1.476   2.823
 4002TIP3    H212013   5.740   1.389   2.883
 4003TIP3   OH212014   5.819   4.281   3.813
 4003TIP3    H112015   5.738   4.272   3.864
 4003TIP3    H212016   5.829   4.197   3.769
 4004TIP3   OH212017   0.111   2.905   4.661
 4004TIP3    H112018   0.196   2.861   4.660
 4004TIP3    H212019   0.049   2.834   4.678
 4005TIP3   OH212020   0.449   4.553   1.991
 4005TIP3    H112021   0.390   4.523   2.060
 4005TIP3    H212022   0.437   4.489   1.921
 4006TIP3   OH212023   0.191   4.857   0.429
 4006TIP3    H112024   0.122   4.895   0.375
 4006TIP3    H212025   0.144   4.815   0.502
 4007TIP3   OH212026   5.145   0.433   2.808
 4007TIP3    H112027   5.174   0.366   2.746
 4007TIP3    H212028   5.133   0.512   2.755
 4008TIP3   OH212029   4.562   1.059   4.010
 4008TIP3    H112030   4.591   1.042   4.099
 4008TIP3    H212031   4.468   1.076   4.018
 4009TIP3   OH212032   3.321   5.579   1.900
 4009TIP3    H112033   3.370   5.625   1.831
 4009TIP3    H212034   3.389   5.536   1.952
 4010TIP3   OH212035   5.535   1.262  -0.013
 4010TIP3    H112036   5.460   1.321  -0.010
 4010TIP3    H212037   5.608   1.318  -0.041
 4011TIP3   OH212038   6.020   4.036   0.146
 4011TIP3    H112039   5.956   4.021   0.076
 4011TIP3    H212040   6.098   4.066   0.100
 4012TIP3   OH212041   2.734   0.330   3.928
 4012TIP3    H112042   2.764   0.255   3.978
 4012TIP3    H212043   2.809   0.356   3.875
 4013TIP3   OH212044   3.737   0.513   4.573
 4013TIP3    H112045   3.703   0.602   4.571
 4013TIP3    H212046   3.698   0.470   4.497
 4014TIP3   OH212047   2.104   3.555   1.383
 4014TIP3    H112048   2.087   3.466   1.414
 4014TIP3    H212049   2.114   3.606   1.463
 4015TIP3   OH212050   0.153   2.221   2.683
 4015TIP3    H112051   0.226   2.233   2.743
 4015TIP3    H212052   0.105   2.145   2.717
 4016TIP3   OH212053   2.639   4.958   0.062
 4016TIP3    H112054   2.677   4.968   0.149
 4016TIP3    H212055   2.668   4.872   0.033
 4017TIP3   OH212056   4.525   4.784   2.077
 4017TIP3    H112057   4.441   4.794   2.120
 4017TIP3    H212058   4.589   4.819   2.140
 4018TIP3   OH212059   2.582   4.916   3.730
 4018TIP3    H112060   2.598   4.888   3.820
 4018TIP3    H212061   2.669   4.915   3.689
 4019TIP3   OH212062   5.658   3.746   1.445
 4019TIP3    H112063   5.609   3.758   1.526
 4019TIP3    H212064   5.727   3.812   1.448
 4020TIP3   OH212065   1.664   1.821   4.588
 4020TIP3    H112066   1.718   1.861   4.656
 4020TIP3    H212067   1.633   1.739   4.627
 4021TIP3   OH212068   3.659   3.685   3.320
 4021TIP3    H112069   3.623   3.767   3.353
 4021TIP3    H212070   3.749   3.684   3.353
 4022TIP3   OH212071   5.715   1.801   2.085
 4022TIP3    H112072   5.735   1.895   2.086
 4022TIP3    H212073   5.674   1.785   2.170
 4023TIP3   OH212074   4.812   4.001   1.584
 4023TIP3    H112075   4.904   4.020   1.565
 4023TIP3    H212076   4.814   3.915   1.625
 4024TIP3   OH212077   0.276   0.702   4.526
 4024TIP3    H112078   0.304   0.772   4.468
 4024TIP3    H212079   0.326   0.716   4.607
 4025TIP3   OH212080   1.646   5.335   5.151
 4025TIP3    H112081   1.666   5.327   5.057
 4025TIP3    H212082   1.699   5.409   5.180
 4026TIP3   OH212083   3.339   4.994   4.572
 4026TIP3    H112084   3.351   5.074   4.624
 4026TIP3    H212085   3.267   5.015   4.513
 4027TIP3   OH212086   5.538   3.088   2.325
 4027TIP3    H112087   5.552   3.178   2.355
 4027TIP3    H212088   5.621   3.063   2.285
 4028TIP3   OH212089   1.061   1.925   2.040
 4028TIP3    H112090   1.105   2.008   2.021
 4028TIP3    H212091   0.977   1.932   1.996
 4029TIP3   OH212092   1.890   1.737   4.382
 4029TIP3    H112093   1.843   1.797   4.440
 4029TIP3    H212094   1.959   1.790   4.342
 4030TIP3   OH212095   4.667   5.259   0.909
 4030TIP3    H112096   4.608   5.204   0.857
 4030TIP3    H212097   4.622   5.270   0.992
 4031TIP3   OH212098   0.701   4.119   2.480
 4031TIP3    H112099   0.683   4.210   2.458
 4031TIP3    H212100   0.639   4.069   2.426
 4032TIP3   OH212101   3.054   4.292   0.963
 4032TIP3    H112102   3.063   4.241   0.883
 4032TIP3    H212103   2.959   4.302   0.975
 4033TIP3   OH212104   5.845   5.120   0.554
 4033TIP3    H112105   5.856   5.072   0.636
 4033TIP3    H212106   5.891   5.202   0.568
 4034TIP3   OH212107   2.331   1.495   1.675
 4034TIP3    H112108   2.259   1.509   1.737
 4034TIP3    H212109   2.308   1.414   1.629
 4035TIP3   OH212110   0.296   4.998   2.020
 4035TIP3    H112111   0.215   4.962   2.056
 4035TIP3    H212112   0.328   4.930   1.961
 4036TIP3   OH212113   2.771   3.943   2.068
 4036TIP3    H112114   2.735   3.944   2.157
 4036TIP3    H212115   2.817   3.860   2.061
 4037TIP3   OH212116   1.336   2.888   2.717
 4037TIP3    H112117   1.333   2.833   2.639
 4037TIP3    H212118   1.342   2.826   2.790
 4038TIP3   OH212119   1.027   3.012   4.947
 4038TIP3    H112120   0.983   2.940   4.903
 4038TIP3    H212121   1.111   3.020   4.902
 4039TIP3   OH212122   4.204   5.003   0.826
 4039TIP3    H112123   4.145   4.933   0.852
 4039TIP3    H212124   4.146   5.076   0.804
 4040TIP3   OH212125   3.811   1.207   3.932
 4040TIP3    H112126   3.757   1.285   3.946
 4040TIP3    H212127   3.778   1.143   3.995
 4041TIP3   OH212128   6.325   4.154   0.430
 4041TIP3    H112129   6.358   4.243   0.424
 4041TIP3    H212130   6.305   4.142   0.523
 4042TIP3   OH212131   2.001   2.179   1.735
 4042TIP3    H112132   2.087   2.185   1.777
 4042TIP3    H212133   1.947   2.132   1.798
 4043TIP3   OH212134   2.167   0.920   4.780
 4043TIP3    H112135   2.123   0.835   4.785
 4043TIP3    H212136   2.211   0.930   4.864
 4044TIP3   OH212137   4.983   2.946   1.323
 4044TIP3    H112138   5.051   2.991   1.373
 4044TIP3    H212139   4.907   3.003   1.330
 4045TIP3   OH212140   3.575   4.156   1.615
 4045TIP3    H112141   3.556   4.133   1.524
 4045TIP3    H212142   3.630   4.234   1.609
 4046TIP3   OH212143   3.655   3.301   1.456
 4046TIP3    H112144   3.689   3.217   1.488
 4046TIP3    H212145   3.724   3.333   1.398
 4047TIP3   OH212146   4.539   2.921   2.931
 4047TIP3    H112147   4.539   3.013   2.903
 4047TIP3    H212148   4.599   2.878   2.870
 4048TIP3   OH212149   6.321   2.319   1.567
 4048TIP3    H112150   6.233   2.334   1.531
 4048TIP3    H212151   6.360   2.407   1.570
 4049TIP3   OH212152   2.098   4.101   4.212
 4049TIP3    H112153   2.050   4.052   4.279
 4049TIP3    H212154   2.031   4.157   4.171
 4050TIP3   OH212155   5.968   5.315   3.459
 4050TIP3    H112156   5.936   5.405   3.456
 4050TIP3    H212157   5.897   5.263   3.422
 4051TIP3   OH212158   6.052   3.777   4.484
 4051TIP3    H112159   6.141   3.751   4.461
 4051TIP3    H212160   6.058   3.871   4.501
 4052TIP3   OH212161   0.895   4.351   3.562
 4052TIP3    H112162   0.913   4.371   3.470
 4052TIP3    H212163   0.866   4.260   3.561
 4053TIP3   OH212164   1.719   0.733   3.220
 4053TIP3    H112165   1.654   0.762   3.284
 4053TIP3    H212166   1.677   0.748   3.135
 4054TIP3   OH212167   1.591   3.778   5.154
 4054TIP3    H112168   1.622   3.787   5.244
 4054TIP3    H212169   1.520   3.841   5.147
 4055TIP3   OH212170   4.635   2.864   1.920
 4055TIP3    H112171   4.652   2.921   1.845
 4055TIP3    H212172   4.617   2.924   1.992
 4056TIP3   OH212173   0.424   4.049   4.875
 4056TIP3    H112174   0.465   4.088   4.953
 4056TIP3    H212175   0.447   4.108   4.804
 4057TIP3   OH212176   5.986   2.953   0.328
 4057TIP3    H112177   6.032   3.026   0.369
 4057TIP3    H212178   5.954   2.989   0.245
 4058TIP3   OH212179   2.118   0.262   1.304
 4058TIP3    H112180   2.031   0.299   1.293
 4058TIP3    H212181   2.107   0.169   1.281
 4059TIP3   OH212182   3.566   5.541   1.185
 4059TIP3    H112183   3.501   5.488   1.138
 4059TIP3    H212184   3.615   5.478   1.237
 4060TIP3   OH212185   3.704   2.282   3.124
 4060TIP3    H112186   3.642   2.274   3.052
 4060TIP3    H212187   3.770   2.215   3.107
 4061TIP3   OH212188   5.895   3.070   3.572
 4061TIP3    H112189   5.894   3.142   3.635
 4061TIP3    H212190   5.961   3.009   3.605
 4062TIP3   OH212191   5.426   3.166   4.184
 4062TIP3    H112192   5.332   3.174   4.202
 4062TIP3    H212193   5.432   3.162   4.089
 4063TIP3   OH212194   3.637   5.171   4.604
 4063TIP3    H112195   3.638   5.222   4.523
 4063TIP3    H212196   3.653   5.081   4.576
 4064TIP3   OH212197   0.382   2.866   4.608
 4064TIP3    H112198   0.355   2.876   4.516
 4064TIP3    H212199   0.371   2.773   4.625
 4065TIP3   OH212200   4.263   0.222   3.186
 4065TIP3    H112201   4.265   0.230   3.281
 4065TIP3    H212202   4.245   0.130   3.169
 4066TIP3   OH212203   0.631   3.024   3.497
 4066TIP3    H112204   0.636   3.040   3.591
 4066TIP3    H212205   0.695   3.085   3.459
 4067TIP3   OH212206   2.023   5.228   2.134
 4067TIP3    H112207   1.936   5.190   2.124
 4067TIP3    H212208   2.082   5.167   2.089
 4068TIP3   OH212209   4.670   3.311   2.256
 4068TIP3    H112210   4.712   3.381   2.306
 4068TIP3    H212211   4.659   3.347   2.168
 4069TIP3   OH212212   6.076   2.503   1.016
 4069TIP3    H112213   6.010   2.539   1.074
 4069TIP3    H212214   6.028   2.481   0.936
 4070TIP3   OH212215   0.991   0.324   0.053
 4070TIP3    H112216   0.908   0.289   0.087
 4070TIP3    H212217   0.965   0.377  -0.022
 4071TIP3   OH212218   0.403   3.749   0.213
 4071TIP3    H112219   0.464   3.746   0.139
 4071TIP3    H212220   0.459   3.752   0.291
 4072TIP3   OH212221   1.617   4.460   1.367
 4072TIP3    H112222   1.653   4.547   1.351
 4072TIP3    H212223   1.522   4.473   1.362
 4073TIP3   OH212224   5.668   0.526   0.136
 4073TIP3    H112225   5.599   0.525   0.070
 4073TIP3    H212226   5.625   0.497   0.216
 4074TIP3   OH212227   2.342   5.528   4.717
 4074TIP3    H112228   2.425   5.567   4.745
 4074TIP3    H212229   2.306   5.489   4.796
 4075TIP3   OH212230   3.112   2.554   2.327
 4075TIP3    H112231   3.159   2.471   2.324
 4075TIP3    H212232   3.123   2.585   2.417
 4076TIP3   OH212233   4.860   0.612   1.259
 4076TIP3    H112234   4.768   0.607   1.235
 4076TIP3    H212235   4.887   0.700   1.231
 4077TIP3   OH212236   2.485   3.469   3.102
 4077TIP3    H112237   2.507   3.523   3.177
 4077TIP3    H212238   2.569   3.448   3.061
 4078TIP3   OH212239   3.622   1.333   2.470
 4078TIP3    H112240   3.570   1.414   2.468
 4078TIP3    H212241   3.682   1.341   2.396
 4079TIP3   OH212242   5.782   4.538   1.973
 4079TIP3    H112243   5.736   4.568   2.052
 4079TIP3    H212244   5.720   4.478   1.930
 4080TIP3   OH212245   2.539   0.152   5.132
 4080TIP3    H112246   2.539   0.063   5.168
 4080TIP3    H212247   2.547   0.140   5.038
 4081TIP3   OH212248   3.683   5.688   4.143
 4081TIP3    H112249   3.715   5.710   4.230
 4081TIP3    H212250   3.733   5.610   4.118
 4082TIP3   OH212251   3.751   2.752   4.301
 4082TIP3    H112252   3.825   2.703   4.338
 4082TIP3    H212253   3.692   2.767   4.375
 4083TIP3   OH212254   5.572   3.469   1.453
 4083TIP3    H112255   5.611   3.557   1.454
 4083TIP3    H212256   5.485   3.482   1.415
 4084TIP3   OH212257   2.384   5.628   2.177
 4084TIP3    H112258   2.330   5.588   2.108
 4084TIP3    H212259   2.472   5.631   2.139
 4085TIP3   OH212260   4.595   2.489   2.098
 4085TIP3    H112261   4.663   2.422   2.101
 4085TIP3    H212262   4.555   2.486   2.185
 4086TIP3   OH212263   2.226   3.516   4.344
 4086TIP3    H112264   2.310   3.530   4.300
 4086TIP3    H212265   2.242   3.443   4.404
 4087TIP3   OH212266   3.760   1.825   5.035
 4087TIP3    H112267   3.853   1.818   5.056
 4087TIP3    H212268   3.717   1.831   5.120
 4088TIP3   OH212269   3.032   4.152   2.753
 4088TIP3    H112270   3.001   4.217   2.816
 4088TIP3    H212271   2.963   4.147   2.687
 4089TIP3   OH212272   5.861   0.845   4.426
 4089TIP3    H112273   5.884   0.860   4.334
 4089TIP3    H212274   5.922   0.778   4.455
 4090TIP3   OH212275   0.801   0.217   0.823
 4090TIP3    H112276   0.801   0.131   0.865
 4090TIP3    H212277   0.753   0.273   0.884
 4091TIP3   OH212278   2.040   5.557   4.103
 4091TIP3    H112279   1.951   5.588   4.120
 4091TIP3    H212280   2.029   5.468   4.069
 4092TIP3   OH212281   1.084   3.642   0.349
 4092TIP3    H112282   1.077   3.600   0.434
 4092TIP3    H212283   1.178   3.645   0.331
 4093TIP3   OH212284   1.843   4.712   0.527
 4093TIP3    H112285   1.885   4.787   0.568
 4093TIP3    H212286   1.902   4.639   0.543
 4094TIP3   OH212287   1.412   5.437   2.107
 4094TIP3    H112288   1.448   5.395   2.185
 4094TIP3    H212289   1.353   5.373   2.069
 4095TIP3   OH212290   3.482   3.153   4.754
 4095TIP3    H112291   3.432   3.165   4.673
 4095TIP3    H212292   3.427   3.192   4.822
 4096TIP3   OH212293   4.344   3.282   3.004
 4096TIP3    H112294   4.326   3.189   2.988
 4096TIP3    H212295   4.303   3.328   2.931
 4097TIP3   OH212296   1.514   1.593   0.810
 4097TIP3    H112297   1.470   1.643   0.742
 4097TIP3    H212298   1.603   1.579   0.777
 4098TIP3   OH212299   4.323   4.326   4.561
 4098TIP3    H112300   4.258   4.335   4.631
 4098TIP3    H212301   4.335   4.415   4.528
 4099TIP3   OH212302   0.338   5.423   4.176
 4099TIP3    H112303   0.359   5.331   4.161
 4099TIP3    H212304   0.424   5.467   4.177
 4100TIP3   OH212305   3.427   1.547   2.346
 4100TIP3    H112306   3.391   1.479   2.289
 4100TIP3    H212307   3.487   1.596   2.290
 4101TIP3   OH212308   6.178   1.440   1.392
 4101TIP3    H112309   6.182   1.404   1.303
 4101TIP3    H212310   6.089   1.420   1.421
 4102TIP3   OH212311   2.193   2.148   0.527
 4102TIP3    H112312   2.115   2.168   0.476
 4102TIP3    H212313   2.255   2.111   0.464
 4103TIP3   OH212314   4.310   2.737   1.394
 4103TIP3    H112315   4.398   2.766   1.421
 4103TIP3    H212316   4.308   2.644   1.417
 4104TIP3   OH212317   3.897   1.369   4.973
 4104TIP3    H112318   3.967   1.330   4.920
 4104TIP3    H212319   3.879   1.453   4.929
 4105TIP3   OH212320   0.829   3.465   4.267
 4105TIP3    H112321   0.826   3.465   4.172
 4105TIP3    H212322   0.882   3.388   4.289
 4106TIP3   OH212323   1.920   3.383   5.027
 4106TIP3    H112324   1.858   3.452   5.003
 4106TIP3    H212325   1.865   3.314   5.065
 4107TIP3   OH212326   2.564   1.375   1.798
 4107TIP3    H112327   2.596   1.407   1.883
 4107TIP3    H212328   2.480   1.420   1.785
 4108TIP3   OH212329   6.295   1.368   2.533
 4108TIP3    H112330   6.389   1.348   2.532
 4108TIP3    H212331   6.270   1.363   2.625
 4109TIP3   OH212332   6.196   5.426   1.368
 4109TIP3    H112333   6.101   5.429   1.353
 4109TIP3    H212334   6.212   5.494   1.433
 4110TIP3   OH212335   3.375   1.672   4.962
 4110TIP3    H112336   3.394   1.664   5.056
 4110TIP3    H212337   3.301   1.732   4.957
 4111TIP3   OH212338   0.454   0.022   3.663
 4111TIP3    H112339   0.455  -0.058   3.610
 4111TIP3    H212340   0.545   0.049   3.667
 4112TIP3   OH212341   4.973   5.033   3.833
 4112TIP3    H112342   4.963   4.990   3.917
 4112TIP3    H212343   5.063   5.064   3.832
 4113TIP3   OH212344   2.162   0.853   1.615
 4113TIP3    H112345   2.203   0.790   1.556
 4113TIP3    H212346   2.090   0.804   1.655
 4114TIP3   OH212347   0.110   3.356   2.636
 4114TIP3    H112348   0.178   3.307   2.590
 4114TIP3    H212349   0.072   3.292   2.697
 4115TIP3   OH212350   5.321   1.267   3.695
 4115TIP3    H112351   5.320   1.338   3.760
 4115TIP3    H212352   5.268   1.198   3.734
 4116TIP3   OH212353   4.466   2.876   1.089
 4116TIP3    H112354   4.502   2.918   1.011
 4116TIP3    H212355   4.490   2.784   1.081
 4117TIP3   OH212356   4.873   4.511   1.226
 4117TIP3    H112357   4.968   4.494   1.225
 4117TIP3    H212358   4.861   4.574   1.296
 4118TIP3   OH212359   6.066   4.927   1.667
 4118TIP3    H112360   6.065   5.021   1.684
 4118TIP3    H212361   6.042   4.887   1.751
 4119TIP3   OH212362   1.822   5.891   3.650
 4119TIP3    H112363   1.825   5.797   3.667
 4119TIP3    H212364   1.729   5.910   3.641
 4120TIP3   OH212365   0.549   4.734   3.228
 4120TIP3    H112366   0.610   4.752   3.300
 4120TIP3    H212367   0.508   4.651   3.252
 4121TIP3   OH212368   5.276   4.644   4.563
 4121TIP3    H112369   5.265   4.734   4.594
 4121TIP3    H212370   5.187   4.610   4.556
 4122TIP3   OH212371   5.082   0.009   2.593
 4122TIP3    H112372   5.017  -0.020   2.656
 4122TIP3    H212373   5.144   0.062   2.644
 4123TIP3   OH212374   4.928   2.182   0.419
 4123TIP3    H112375   5.006   2.211   0.373
 4123TIP3    H212376   4.877   2.135   0.353
 4124TIP3   OH212377   4.296   1.229   2.870
 4124TIP3    H112378   4.380   1.205   2.830
 4124TIP3    H212379   4.317   1.298   2.932
 4125TIP3   OH212380   2.549   5.146   4.313
 4125TIP3    H112381   2.551   5.241   4.325
 4125TIP3    H212382   2.635   5.124   4.278
 4126TIP3   OH212383   5.204   1.538   4.141
 4126TIP3    H112384   5.155   1.606   4.188
 4126TIP3    H212385   5.227   1.475   4.210
 4127TIP3   OH212386   2.915   5.678   0.093
 4127TIP3    H112387   2.911   5.647   0.003
 4127TIP3    H212388   2.833   5.725   0.106
 4128TIP3   OH212389   2.602   0.933   2.455
 4128TIP3    H112390   2.594   0.849   2.501
 4128TIP3    H212391   2.617   0.908   2.364
 4129TIP3   OH212392   4.751   5.813   1.697
 4129TIP3    H112393   4.775   5.756   1.624
 4129TIP3    H212394   4.765   5.759   1.775
 4130TIP3   OH212395   2.715   3.378   3.379
 4130TIP3    H112396   2.625   3.391   3.409
 4130TIP3    H212397   2.709   3.304   3.318
 4131TIP3   OH212398   3.696   0.739   3.961
 4131TIP3    H112399   3.756   0.695   3.900
 4131TIP3    H212400   3.639   0.792   3.905
 4132TIP3   OH212401   3.509   3.890   3.438
 4132TIP3    H112402   3.425   3.929   3.414
 4132TIP3    H212403   3.508   3.888   3.534
 4133TIP3   OH212404   1.201   4.582   3.020
 4133TIP3    H112405   1.206   4.585   3.116
 4133TIP3    H212406   1.239   4.665   2.992
 4134TIP3   OH212407   3.078   2.601   0.241
 4134TIP3    H112408   3.056   2.620   0.150
 4134TIP3    H212409   2.994   2.584   0.283
 4135TIP3   OH212410   1.302   3.519   1.097
 4135TIP3    H112411   1.279   3.426   1.092
 4135TIP3    H212412   1.313   3.546   1.006
 4136TIP3   OH212413   1.499   4.363   1.948
 4136TIP3    H112414   1.435   4.381   2.018
 4136TIP3    H212415   1.446   4.328   1.876
 4137TIP3   OH212416   4.368   0.277   4.637
 4137TIP3    H112417   4.396   0.257   4.547
 4137TIP3    H212418   4.283   0.322   4.625
 4138TIP3   OH212419   6.011   4.922   2.606
 4138TIP3    H112420   6.022   4.977   2.529
 4138TIP3    H212421   6.049   4.973   2.677
 4139TIP3   OH212422   4.428   1.505   2.350
 4139TIP3    H112423   4.348   1.510   2.402
 4139TIP3    H212424   4.408   1.556   2.272
 4140TIP3   OH212425   4.866   4.397   2.688
 4140TIP3    H112426   4.791   4.438   2.732
 4140TIP3    H212427   4.826   4.336   2.626
 4141TIP3   OH212428   6.054   0.820   0.180
 4141TIP3    H112429   6.072   0.866   0.262
 4141TIP3    H212430   6.081   0.881   0.112
 4142TIP3   OH212431   2.475   3.218   2.794
 4142TIP3    H112432   2.413   3.240   2.865
 4142TIP3    H212433   2.555   3.193   2.840
 4143TIP3   OH212434   2.027   0.389   2.082
 4143TIP3    H112435   2.035   0.294   2.068
 4143TIP3    H212436   2.114   0.423   2.062
 4144TIP3   OH212437   3.772   2.666   2.676
 4144TIP3    H112438   3.737   2.614   2.605
 4144TIP3    H212439   3.722   2.638   2.753
 4145TIP3   OH212440   0.242   5.573   2.081
 4145TIP3    H112441   0.298   5.502   2.051
 4145TIP3    H212442   0.297   5.622   2.143
 4146TIP3   OH212443   2.378   0.375   2.212
 4146TIP3    H112444   2.380   0.303   2.149
 4146TIP3    H212445   2.326   0.443   2.168
 4147TIP3   OH212446   2.227   1.642   4.417
 4147TIP3    H112447   2.204   1.591   4.340
 4147TIP3    H212448   2.274   1.718   4.383
 4148TIP3   OH212449   0.384   5.671   1.792
 4148TIP3    H112450   0.345   5.595   1.748
 4148TIP3    H212451   0.472   5.643   1.816
 4149TIP3   OH212452   2.994   2.794   4.923
 4149TIP3    H112453   2.903   2.791   4.893
 4149TIP3    H212454   3.046   2.781   4.844
 4150TIP3   OH212455   0.734   0.126   3.597
 4150TIP3    H112456   0.720   0.219   3.581
 4150TIP3    H212457   0.804   0.122   3.662
 4151TIP3   OH212458   5.960   1.302   1.217
 4151TIP3    H112459   5.996   1.362   1.152
 4151TIP3    H212460   5.901   1.356   1.270
 4152TIP3   OH212461   1.449   2.157   0.485
 4152TIP3    H112462   1.404   2.230   0.526
 4152TIP3    H212463   1.489   2.110   0.559
 4153TIP3   OH212464   5.163   3.093   4.240
 4153TIP3    H112465   5.153   3.037   4.163
 4153TIP3    H212466   5.218   3.042   4.300
 4154TIP3   OH212467   4.552   4.748   2.869
 4154TIP3    H112468   4.527   4.826   2.820
 4154TIP3    H212469   4.482   4.738   2.934
 4155TIP3   OH212470   1.687   0.738   1.544
 4155TIP3    H112471   1.637   0.756   1.624
 4155TIP3    H212472   1.704   0.644   1.547
 4156TIP3   OH212473   3.195   2.719   4.721
 4156TIP3    H112474   3.250   2.756   4.790
 4156TIP3    H212475   3.242   2.640   4.693
 4157TIP3   OH212476   0.271   3.249   2.099
 4157TIP3    H112477   0.221   3.173   2.131
 4157TIP3    H212478   0.354   3.244   2.146
 4158TIP3   OH212479   6.003   2.066   4.220
 4158TIP3    H112480   5.993   1.980   4.181
 4158TIP3    H212481   5.993   2.052   4.314
 4159TIP3   OH212482   0.827   5.733   5.002
 4159TIP3    H112483   0.779   5.672   4.947
 4159TIP3    H212484   0.806   5.708   5.092
 4160TIP3   OH212485   6.185   5.006   2.922
 4160TIP3    H112486   6.182   5.048   2.836
 4160TIP3    H212487   6.158   5.074   2.983
 4161TIP3   OH212488   2.911   4.431   2.026
 4161TIP3    H112489   2.950   4.351   1.989
 4161TIP3    H212490   2.943   4.434   2.116
 4162TIP3   OH212491   2.521   5.876   4.776
 4162TIP3    H112492   2.545   5.950   4.721
 4162TIP3    H212493   2.425   5.875   4.774
 4163TIP3   OH212494   2.050   4.610   1.373
 4163TIP3    H112495   2.123   4.617   1.433
 4163TIP3    H212496   1.984   4.669   1.408
 4164TIP3   OH212497   1.473   0.788   1.311
 4164TIP3    H112498   1.461   0.883   1.322
 4164TIP3    H212499   1.385   0.752   1.315
 4165TIP3   OH212500   3.335   4.010   4.388
 4165TIP3    H112501   3.313   3.918   4.381
 4165TIP3    H212502   3.332   4.043   4.299
 4166TIP3   OH212503   6.112   4.021   0.925
 4166TIP3    H112504   6.118   4.112   0.953
 4166TIP3    H212505   6.030   3.990   0.962
 4167TIP3   OH212506   2.959   4.922   2.369
 4167TIP3    H112507   2.915   4.997   2.328
 4167TIP3    H212508   2.906   4.847   2.343
 4168TIP3   OH212509   0.261   5.981   0.654
 4168TIP3    H112510   0.182   5.958   0.604
 4168TIP3    H212511   0.240   6.067   0.692
 4169TIP3   OH212512   1.480   5.399   0.501
 4169TIP3    H112513   1.480   5.419   0.594
 4169TIP3    H212514   1.403   5.445   0.466
 4170TIP3   OH212515   0.180   3.974   4.928
 4170TIP3    H112516   0.195   3.902   4.990
 4170TIP3    H212517   0.267   4.004   4.904
 4171TIP3   OH212518   3.038   2.900   5.170
 4171TIP3    H112519   3.043   2.889   5.075
 4171TIP3    H212520   2.944   2.896   5.190
 4172TIP3   OH212521   1.280   4.544   3.280
 4172TIP3    H112522   1.252   4.511   3.366
 4172TIP3    H212523   1.328   4.471   3.241
 4173TIP3   OH212524   3.238   2.050   0.572
 4173TIP3    H112525   3.276   1.999   0.643
 4173TIP3    H212526   3.260   2.001   0.493
 4174TIP3   OH212527   1.202   0.401   2.067
 4174TIP3    H112528   1.270   0.457   2.029
 4174TIP3    H212529   1.250   0.329   2.108
 4175TIP3   OH212530   4.094   3.260   2.590
 4175TIP3    H112531   4.093   3.247   2.685
 4175TIP3    H212532   4.004   3.240   2.562
 4176TIP3   OH212533   2.775   2.632   2.951
 4176TIP3    H112534   2.860   2.630   2.995
 4176TIP3    H212535   2.793   2.608   2.861
 4177TIP3   OH212536   3.691   4.246   3.515
 4177TIP3    H112537   3.610   4.269   3.470
 4177TIP3    H212538   3.760   4.266   3.451
 4178TIP3   OH212539   0.903   0.958   0.443
 4178TIP3    H112540   0.835   0.893   0.429
 4178TIP3    H212541   0.971   0.912   0.491
 4179TIP3   OH212542   1.452   4.942   2.098
 4179TIP3    H112543   1.419   5.012   2.155
 4179TIP3    H212544   1.396   4.867   2.118
 4180TIP3   OH212545   5.658   3.041   4.510
 4180TIP3    H112546   5.698   3.017   4.593
 4180TIP3    H212547   5.657   2.960   4.459
 4181TIP3   OH212548   4.543   3.222   2.484
 4181TIP3    H112549   4.461   3.270   2.491
 4181TIP3    H212550   4.573   3.236   2.394
 4182TIP3   OH212551   3.710   5.818   3.009
 4182TIP3    H112552   3.676   5.903   3.037
 4182TIP3    H212553   3.798   5.838   2.976
 4183TIP3   OH212554   0.162   0.808   3.041
 4183TIP3    H112555   0.241   0.858   3.022
 4183TIP3    H212556   0.092   0.872   3.040
 4184TIP3   OH212557   1.057   2.819   2.550
 4184TIP3    H112558   0.997   2.751   2.580
 4184TIP3    H212559   1.140   2.772   2.534
 4185TIP3   OH212560   3.861   5.441   0.306
 4185TIP3    H112561   3.781   5.493   0.299
 4185TIP3    H212562   3.931   5.506   0.308
 4186TIP3   OH212563   4.223   1.543   2.799
 4186TIP3    H112564   4.296   1.523   2.857
 4186TIP3    H212565   4.226   1.639   2.789
 4187TIP3   OH212566   4.124   1.519   3.931
 4187TIP3    H112567   4.179   1.548   3.857
 4187TIP3    H212568   4.036   1.551   3.909
 4188TIP3   OH212569   5.081   0.372   1.605
 4188TIP3    H112570   5.045   0.423   1.532
 4188TIP3    H212571   5.046   0.414   1.683
 4189TIP3   OH212572   2.085   5.458   3.373
 4189TIP3    H112573   2.088   5.554   3.380
 4189TIP3    H212574   2.131   5.427   3.451
 4190TIP3   OH212575   3.982   0.911   0.276
 4190TIP3    H112576   3.923   0.858   0.330
 4190TIP3    H212577   3.948   1.000   0.284
 4191TIP3   OH212578   0.364   1.263   3.220
 4191TIP3    H112579   0.433   1.278   3.283
 4191TIP3    H212580   0.330   1.176   3.241
 4192TIP3   OH212581   1.080   5.501   2.277
 4192TIP3    H112582   1.155   5.559   2.265
 4192TIP3    H212583   1.033   5.506   2.195
 4193TIP3   OH212584   3.217   4.874   2.365
 4193TIP3    H112585   3.121   4.869   2.368
 4193TIP3    H212586   3.237   4.962   2.397
 4194TIP3   OH212587   0.119   5.751   5.115
 4194TIP3    H112588   0.115   5.672   5.060
 4194TIP3    H212589   0.148   5.820   5.055
 4195TIP3   OH212590   1.873   0.428   4.853
 4195TIP3    H112591   1.787   0.458   4.883
 4195TIP3    H212592   1.857   0.390   4.767
 4196TIP3   OH212593   2.266   2.008   2.129
 4196TIP3    H112594   2.195   1.953   2.094
 4196TIP3    H212595   2.344   1.953   2.122
 4197TIP3   OH212596   0.339   5.014   2.991
 4197TIP3    H112597   0.395   4.948   2.951
 4197TIP3    H212598   0.250   4.990   2.964
 4198TIP3   OH212599   2.180   0.220   5.154
 4198TIP3    H112600   2.095   0.251   5.184
 4198TIP3    H212601   2.198   0.144   5.210
 4199TIP3   OH212602   3.253   0.237   4.620
 4199TIP3    H112603   3.166   0.210   4.649
 4199TIP3    H212604   3.291   0.283   4.695
 4200TIP3   OH212605   3.498   3.920   3.698
 4200TIP3    H112606   3.453   3.987   3.748
 4200TIP3    H212607   3.587   3.954   3.685
 4201TIP3   OH212608   3.838   0.231   2.101
 4201TIP3    H112609   3.904   0.199   2.162
 4201TIP3    H212610   3.877   0.217   2.014
 4202TIP3   OH212611   5.062   4.459   3.509
 4202TIP3    H112612   5.033   4.370   3.492
 4202TIP3    H212613   5.144   4.449   3.558
 4203TIP3   OH212614   5.599   4.793   2.083
 4203TIP3    H112615   5.567   4.726   2.143
 4203TIP3    H212616   5.629   4.864   2.140
 4204TIP3   OH212617   5.658   1.182   1.911
 4204TIP3    H112618   5.664   1.268   1.954
 4204TIP3    H212619   5.574   1.185   1.864
 4205TIP3   OH212620   2.489   0.284   3.810
 4205TIP3    H112621   2.577   0.290   3.848
 4205TIP3    H212622   2.479   0.191   3.788
 4206TIP3   OH212623   0.428   0.434   5.144
 4206TIP3    H112624   0.412   0.363   5.206
 4206TIP3    H212625   0.505   0.480   5.178
 4207TIP3   OH212626   0.688   3.000   2.409
 4207TIP3    H112627   0.657   2.953   2.486
 4207TIP3    H212628   0.719   2.932   2.350
 4208TIP3   OH212629   0.888   5.039   3.911
 4208TIP3    H112630   0.921   5.027   3.822
 4208TIP3    H212631   0.906   5.131   3.931
 4209TIP3   OH212632   2.128   1.229   1.261
 4209TIP3    H112633   2.152   1.162   1.326
 4209TIP3    H212634   2.048   1.195   1.221
 4210TIP3   OH212635   3.532   5.005   0.836
 4210TIP3    H112636   3.452   5.021   0.886
 4210TIP3    H212637   3.503   5.004   0.744
 4211TIP3   OH212638   5.462   4.766   1.847
 4211TIP3    H112639   5.532   4.779   1.911
 4211TIP3    H212640   5.385   4.745   1.900
 4212TIP3   OH212641   2.773   4.229   3.856
 4212TIP3    H112642   2.739   4.249   3.943
 4212TIP3    H212643   2.822   4.147   3.869
 4213TIP3   OH212644   0.884   5.321   1.536
 4213TIP3    H112645   0.914   5.383   1.469
 4213TIP3    H212646   0.805   5.283   1.499
 4214TIP3   OH212647   4.555   2.082   3.389
 4214TIP3    H112648   4.630   2.085   3.448
 4214TIP3    H212649   4.500   2.012   3.424
 4215TIP3   OH212650   3.260   0.871   3.251
 4215TIP3    H112651   3.196   0.858   3.321
 4215TIP3    H212652   3.287   0.782   3.227
 4216TIP3   OH212653   5.958   0.744   1.306
 4216TIP3    H112654   6.042   0.760   1.349
 4216TIP3    H212655   5.943   0.650   1.317
 4217TIP3   OH212656   5.652   2.725   3.806
 4217TIP3    H112657   5.558   2.728   3.824
 4217TIP3    H212658   5.670   2.632   3.791
 4218TIP3   OH212659   2.215   2.574   2.149
 4218TIP3    H112660   2.141   2.587   2.208
 4218TIP3    H212661   2.177   2.574   2.061
 4219TIP3   OH212662   0.911   0.370   4.610
 4219TIP3    H112663   0.833   0.422   4.630
 4219TIP3    H212664   0.926   0.383   4.517
 4220TIP3   OH212665   6.164   3.442   0.543
 4220TIP3    H112666   6.248   3.474   0.576
 4220TIP3    H212667   6.109   3.434   0.620
 4221TIP3   OH212668   2.751   1.129   2.115
 4221TIP3    H112669   2.810   1.188   2.162
 4221TIP3    H212670   2.761   1.153   2.023
 4222TIP3   OH212671   1.982   4.784   3.115
 4222TIP3    H112672   1.901   4.793   3.164
 4222TIP3    H212673   2.050   4.818   3.174
 4223TIP3   OH212674   5.161   5.185   2.031
 4223TIP3    H112675   5.119   5.206   2.114
 4223TIP3    H212676   5.231   5.125   2.054
 4224TIP3   OH212677   1.192   0.320   0.958
 4224TIP3    H112678   1.228   0.292   1.042
 4224TIP3    H212679   1.216   0.250   0.897
 4225TIP3   OH212680   6.134   2.405   0.189
 4225TIP3    H112681   6.044   2.391   0.219
 4225TIP3    H212682   6.178   2.444   0.264
 4226TIP3   OH212683   3.216   2.076   1.275
 4226TIP3    H112684   3.202   2.161   1.316
 4226TIP3    H212685   3.242   2.018   1.347
 4227TIP3   OH212686   5.829   3.038   2.248
 4227TIP3    H112687   5.806   3.030   2.155
 4227TIP3    H212688   5.921   3.013   2.252
 4228TIP3   OH212689   3.819   0.052   4.978
 4228TIP3    H112690   3.797  -0.028   5.027
 4228TIP3    H212691   3.914   0.048   4.968
 4229TIP3   OH212692   1.485   5.520   0.749
 4229TIP3    H112693   1.548   5.592   0.751
 4229TIP3    H212694   1.404   5.557   0.782
 4230TIP3   OH212695   4.974   4.660   1.732
 4230TIP3    H112696   4.962   4.647   1.638
 4230TIP3    H212697   4.893   4.628   1.771
 4231TIP3   OH212698   1.080   1.222   3.494
 4231TIP3    H112699   1.169   1.217   3.458
 4231TIP3    H212700   1.031   1.156   3.445
 4232TIP3   OH212701   4.985   0.869   1.206
 4232TIP3    H112702   5.032   0.951   1.224
 4232TIP3    H212703   5.017   0.842   1.120
 4233TIP3   OH212704   1.734   0.689   2.146
 4233TIP3    H112705   1.644   0.718   2.131
 4233TIP3    H212706   1.788   0.751   2.098
 4234TIP3   OH212707   3.790   1.989   2.562
 4234TIP3    H112708   3.871   2.034   2.585
 4234TIP3    H212709   3.804   1.899   2.591
 4235TIP3   OH212710   3.674   5.418   3.213
 4235TIP3    H112711   3.660   5.488   3.149
 4235TIP3    H212712   3.641   5.454   3.295
 4236TIP3   OH212713   2.786   5.448   3.489
 4236TIP3    H112714   2.729   5.522   3.510
 4236TIP3    H212715   2.727   5.378   3.463
 4237TIP3   OH212716   0.195   3.427   0.604
 4237TIP3    H112717   0.235   3.395   0.685
 4237TIP3    H212718   0.122   3.481   0.634
 4238TIP3   OH212719   3.891   0.973   3.791
 4238TIP3    H112720   3.856   1.051   3.836
 4238TIP3    H212721   3.848   0.974   3.705
 4239TIP3   OH212722   3.176   5.761   2.648
 4239TIP3    H112723   3.164   5.729   2.737
 4239TIP3    H212724   3.121   5.703   2.594
 4240TIP3   OH212725   0.887   1.175   1.346
 4240TIP3    H112726   0.814   1.236   1.359
 4240TIP3    H212727   0.850   1.107   1.289
 4241TIP3   OH212728   0.154   3.107   0.626
 4241TIP3    H112729   0.207   3.179   0.662
 4241TIP3    H212730   0.071   3.114   0.673
 4242TIP3   OH212731   5.367   1.482   0.087
 4242TIP3    H112732   5.282   1.494   0.045
 4242TIP3    H212733   5.348   1.435   0.168
 4243TIP3   OH212734   2.874   0.052   4.494
 4243TIP3    H112735   2.928  -0.023   4.521
 4243TIP3    H212736   2.934   0.107   4.444
 4244TIP3   OH212737   2.793   5.938   3.195
 4244TIP3    H112738   2.778   6.030   3.172
 4244TIP3    H212739   2.845   5.942   3.276
 4245TIP3   OH212740   6.261   0.706   0.897
 4245TIP3    H112741   6.182   0.750   0.866
 4245TIP3    H212742   6.316   0.776   0.932
 4246TIP3   OH212743   2.157   1.313   4.953
 4246TIP3    H112744   2.090   1.368   4.994
 4246TIP3    H212745   2.107   1.252   4.898
 4247TIP3   OH212746   4.557   0.413   1.354
 4247TIP3    H112747   4.471   0.388   1.387
 4247TIP3    H212748   4.599   0.330   1.330
 4248TIP3   OH212749   6.137   5.072   2.382
 4248TIP3    H112750   6.212   5.131   2.388
 4248TIP3    H212751   6.106   5.081   2.292
 4249TIP3   OH212752   3.134   5.917   3.245
 4249TIP3    H112753   3.083   5.903   3.165
 4249TIP3    H212754   3.070   5.947   3.309
 4250TIP3   OH212755   2.656   5.564   0.993
 4250TIP3    H112756   2.663   5.486   0.939
 4250TIP3    H212757   2.568   5.597   0.977
 4251TIP3   OH212758   3.522   2.654   1.814
 4251TIP3    H112759   3.500   2.746   1.827
 4251TIP3    H212760   3.609   2.644   1.852
 4252TIP3   OH212761   5.084   5.318   1.819
 4252TIP3    H112762   4.989   5.303   1.815
 4252TIP3    H212763   5.113   5.268   1.894
 4253TIP3   OH212764   5.565   5.505   4.652
 4253TIP3    H112765   5.603   5.486   4.566
 4253TIP3    H212766   5.602   5.590   4.676
 4254TIP3   OH212767   4.046   2.121   2.325
 4254TIP3    H112768   4.035   2.184   2.396
 4254TIP3    H212769   3.959   2.084   2.311
 4255TIP3   OH212770   1.217   3.195   0.781
 4255TIP3    H112771   1.147   3.175   0.719
 4255TIP3    H212772   1.175   3.185   0.867
 4256TIP3   OH212773   2.596   1.188   5.220
 4256TIP3    H112774   2.539   1.254   5.179
 4256TIP3    H212775   2.656   1.161   5.151
 4257TIP3   OH212776   4.638   5.281   0.567
 4257TIP3    H112777   4.626   5.350   0.632
 4257TIP3    H212778   4.554   5.277   0.521
 4258TIP3   OH212779   2.477   2.512   2.757
 4258TIP3    H112780   2.457   2.421   2.779
 4258TIP3    H212781   2.495   2.554   2.841
 4259TIP3   OH212782   0.625   0.215   2.014
 4259TIP3    H112783   0.703   0.269   2.033
 4259TIP3    H212784   0.592   0.250   1.931
 4260TIP3   OH212785   0.326   0.627   0.974
 4260TIP3    H112786   0.324   0.579   1.057
 4260TIP3    H212787   0.383   0.702   0.990
 4261TIP3   OH212788   0.369   4.380   1.793
 4261TIP3    H112789   0.402   4.316   1.730
 4261TIP3    H212790   0.298   4.335   1.839
 4262TIP3   OH212791   5.981   1.602   2.802
 4262TIP3    H112792   5.977   1.583   2.709
 4262TIP3    H212793   5.965   1.696   2.809
 4263TIP3   OH212794   1.291   1.787   1.293
 4263TIP3    H112795   1.232   1.833   1.352
 4263TIP3    H212796   1.309   1.704   1.336
 4264TIP3   OH212797   5.457   3.741   4.128
 4264TIP3    H112798   5.407   3.747   4.047
 4264TIP3    H212799   5.430   3.657   4.166
 4265TIP3   OH212800   1.920   0.519   2.408
 4265TIP3    H112801   1.946   0.609   2.430
 4265TIP3    H212802   1.960   0.502   2.323
 4266TIP3   OH212803   3.786   5.949   0.364
 4266TIP3    H112804   3.769   5.863   0.401
 4266TIP3    H212805   3.731   6.008   0.415
 4267TIP3   OH212806   3.301   0.165   3.282
 4267TIP3    H112807   3.335   0.080   3.309
 4267TIP3    H212808   3.209   0.163   3.307
 4268TIP3   OH212809   4.157   5.544   4.878
 4268TIP3    H112810   4.234   5.514   4.925
 4268TIP3    H212811   4.095   5.568   4.946
 4269TIP3   OH212812   3.179   2.184   4.372
 4269TIP3    H112813   3.275   2.184   4.376
 4269TIP3    H212814   3.151   2.198   4.462
 4270TIP3   OH212815   1.638   2.727   1.335
 4270TIP3    H112816   1.659   2.673   1.411
 4270TIP3    H212817   1.721   2.771   1.314
 4271TIP3   OH212818   2.838   2.520   2.711
 4271TIP3    H112819   2.932   2.504   2.725
 4271TIP3    H212820   2.801   2.433   2.694
 4272TIP3   OH212821   2.023   1.552   2.080
 4272TIP3    H112822   2.118   1.542   2.091
 4272TIP3    H212823   2.000   1.490   2.011
 4273TIP3   OH212824   5.919   2.270   4.443
 4273TIP3    H112825   5.986   2.229   4.498
 4273TIP3    H212826   5.854   2.303   4.505
 4274TIP3   OH212827   5.487   4.575   1.611
 4274TIP3    H112828   5.493   4.566   1.706
 4274TIP3    H212829   5.536   4.655   1.591
 4275TIP3   OH212830   3.207   3.341   3.124
 4275TIP3    H112831   3.275   3.286   3.162
 4275TIP3    H212832   3.239   3.430   3.133
 4276TIP3   OH212833   4.451   0.397   2.686
 4276TIP3    H112834   4.525   0.447   2.652
 4276TIP3    H212835   4.382   0.408   2.620
 4277TIP3   OH212836   5.087   1.808   3.200
 4277TIP3    H112837   5.169   1.855   3.180
 4277TIP3    H212838   5.019   1.874   3.188
 4278TIP3   OH212839   5.650   0.467   3.161
 4278TIP3    H112840   5.632   0.558   3.139
 4278TIP3    H212841   5.735   0.448   3.121
 4279TIP3   OH212842   2.071   1.225   2.105
 4279TIP3    H112843   2.135   1.161   2.075
 4279TIP3    H212844   2.117   1.275   2.172
 4280TIP3   OH212845   2.792   3.825   0.157
 4280TIP3    H112846   2.814   3.900   0.212
 4280TIP3    H212847   2.833   3.844   0.073
 4281TIP3   OH212848   4.522   5.250   2.987
 4281TIP3    H112849   4.475   5.220   3.064
 4281TIP3    H212850   4.603   5.200   2.987
 4282TIP3   OH212851   3.369   4.188   1.382
 4282TIP3    H112852   3.328   4.233   1.307
 4282TIP3    H212853   3.448   4.149   1.345
 4283TIP3   OH212854   3.974   2.121   3.652
 4283TIP3    H112855   3.904   2.180   3.624
 4283TIP3    H212856   3.930   2.038   3.671
 4284TIP3   OH212857   4.306   0.973   0.661
 4284TIP3    H112858   4.262   1.057   0.677
 4284TIP3    H212859   4.379   0.995   0.603
 4285TIP3   OH212860   4.138   5.733   2.082
 4285TIP3    H112861   4.145   5.685   1.999
 4285TIP3    H212862   4.121   5.823   2.056
 4286TIP3   OH212863   4.670   5.568   1.859
 4286TIP3    H112864   4.587   5.598   1.898
 4286TIP3    H212865   4.647   5.548   1.768
 4287TIP3   OH212866   2.948   4.003   1.075
 4287TIP3    H112867   2.891   3.981   1.001
 4287TIP3    H212868   3.035   4.014   1.036
 4288TIP3   OH212869   2.548   0.405   0.729
 4288TIP3    H112870   2.633   0.381   0.692
 4288TIP3    H212871   2.491   0.331   0.708
 4289TIP3   OH212872   1.415   3.109   2.106
 4289TIP3    H112873   1.330   3.139   2.073
 4289TIP3    H212874   1.431   3.028   2.058
 4290TIP3   OH212875   5.891   0.504   2.997
 4290TIP3    H112876   5.917   0.538   3.082
 4290TIP3    H212877   5.873   0.581   2.944
 4291TIP3   OH212878   4.817   0.649   4.774
 4291TIP3    H112879   4.875   0.629   4.700
 4291TIP3    H212880   4.737   0.682   4.734
 4292TIP3   OH212881   1.669   0.488   1.656
 4292TIP3    H112882   1.759   0.474   1.627
 4292TIP3    H212883   1.649   0.413   1.712
 4293TIP3   OH212884   6.079   2.317   0.727
 4293TIP3    H112885   6.099   2.400   0.682
 4293TIP3    H212886   6.151   2.304   0.788
 4294TIP3   OH212887   1.067   4.592   3.604
 4294TIP3    H112888   1.093   4.555   3.519
 4294TIP3    H212889   1.006   4.528   3.640
 4295TIP3   OH212890   0.063   0.865   4.670
 4295TIP3    H112891   0.017   0.935   4.716
 4295TIP3    H212892   0.043   0.786   4.720
 4296TIP3   OH212893   2.128   5.069   1.485
 4296TIP3    H112894   2.071   5.106   1.418
 4296TIP3    H212895   2.183   5.143   1.513
 4297TIP3   OH212896   3.094   4.196   4.286
 4297TIP3    H112897   3.006   4.225   4.311
 4297TIP3    H212898   3.134   4.169   4.368
 4298TIP3   OH212899   3.957   5.816   3.642
 4298TIP3    H112900   4.025   5.876   3.673
 4298TIP3    H212901   3.905   5.796   3.719
 4299TIP3   OH212902   0.711   1.185   3.353
 4299TIP3    H112903   0.708   1.182   3.257
 4299TIP3    H212904   0.787   1.131   3.376
 4300TIP3   OH212905   4.483   2.202   3.730
 4300TIP3    H112906   4.408   2.144   3.748
 4300TIP3    H212907   4.450   2.289   3.750
 4301TIP3   OH212908   0.273   1.891   4.937
 4301TIP3    H112909   0.350   1.834   4.944
 4301TIP3    H212910   0.248   1.909   5.028
 4302TIP3   OH212911   5.338   4.399   1.844
 4302TIP3    H112912   5.307   4.362   1.927
 4302TIP3    H212913   5.313   4.491   1.848
 4303TIP3   OH212914   2.511   5.654   0.603
 4303TIP3    H112915   2.475   5.649   0.691
 4303TIP3    H212916   2.470   5.732   0.565
 4304TIP3   OH212917   0.805   4.838   4.934
 4304TIP3    H112918   0.803   4.873   5.023
 4304TIP3    H212919   0.870   4.890   4.888
 4305TIP3   OH212920   4.304   3.441   4.433
 4305TIP3    H112921   4.359   3.457   4.510
 4305TIP3    H212922   4.367   3.421   4.364
 4306TIP3   OH212923   1.222   4.342   1.932
 4306TIP3    H112924   1.167   4.319   1.857
 4306TIP3    H212925   1.163   4.333   2.008
 4307TIP3   OH212926   0.549   2.406   1.974
 4307TIP3    H112927   0.461   2.441   1.962
 4307TIP3    H212928   0.607   2.481   1.962
 4308TIP3   OH212929   3.452   4.595   2.720
 4308TIP3    H112930   3.529   4.555   2.759
 4308TIP3    H212931   3.378   4.544   2.754
 4309TIP3   OH212932   3.926   4.822   0.834
 4309TIP3    H112933   3.907   4.908   0.797
 4309TIP3    H212934   3.982   4.779   0.769
 4310TIP3   OH212935   1.621   4.208   1.228
 4310TIP3    H112936   1.546   4.180   1.281
 4310TIP3    H212937   1.583   4.224   1.141
 4311TIP3   OH212938   5.574   3.774   1.723
 4311TIP3    H112939   5.664   3.754   1.697
 4311TIP3    H212940   5.540   3.692   1.760
 4312TIP3   OH212941   4.607   4.105   0.295
 4312TIP3    H112942   4.601   4.125   0.201
 4312TIP3    H212943   4.669   4.033   0.300
 4313TIP3   OH212944   2.161   4.028   1.083
 4313TIP3    H112945   2.206   3.966   1.025
 4313TIP3    H212946   2.119   4.090   1.024
 4314TIP3   OH212947   3.658   4.721   4.262
 4314TIP3    H112948   3.602   4.673   4.201
 4314TIP3    H212949   3.679   4.658   4.331
 4315TIP3   OH212950   6.036   0.143   0.561
 4315TIP3    H112951   5.965   0.162   0.499
 4315TIP3    H212952   6.096   0.216   0.552
 4316TIP3   OH212953   4.662   3.697   4.239
 4316TIP3    H112954   4.680   3.736   4.154
 4316TIP3    H212955   4.743   3.652   4.263
 4317TIP3   OH212956   4.474   0.266   0.117
 4317TIP3    H112957   4.460   0.287   0.025
 4317TIP3    H212958   4.518   0.343   0.153
 4318TIP3   OH212959   1.013   1.044   4.732
 4318TIP3    H112960   1.095   1.043   4.683
 4318TIP3    H212961   0.982   0.954   4.728
 4319TIP3   OH212962   0.796   3.721   2.339
 4319TIP3    H112963   0.792   3.629   2.365
 4319TIP3    H212964   0.733   3.729   2.268
 4320TIP3   OH212965   3.034   1.834   4.524
 4320TIP3    H112966   3.119   1.794   4.542
 4320TIP3    H212967   3.050   1.892   4.449
 4321TIP3   OH212968   5.567   4.459   3.917
 4321TIP3    H112969   5.572   4.460   3.822
 4321TIP3    H212970   5.558   4.366   3.940
 4322TIP3   OH212971   4.438   2.121   2.876
 4322TIP3    H112972   4.408   2.208   2.902
 4322TIP3    H212973   4.451   2.073   2.958
 4323TIP3   OH212974   0.352   4.308   1.244
 4323TIP3    H112975   0.325   4.332   1.332
 4323TIP3    H212976   0.310   4.373   1.187
 4324TIP3   OH212977   1.352   2.825   4.281
 4324TIP3    H112978   1.385   2.902   4.235
 4324TIP3    H212979   1.261   2.847   4.302
 4325TIP3   OH212980   4.005   2.233   1.912
 4325TIP3    H112981   4.064   2.294   1.869
 4325TIP3    H212982   3.955   2.287   1.973
 4326TIP3   OH212983   5.606   0.386   4.884
 4326TIP3    H112984   5.611   0.291   4.898
 4326TIP3    H212985   5.568   0.395   4.797
 4327TIP3   OH212986   3.071   1.415   4.516
 4327TIP3    H112987   3.089   1.471   4.440
 4327TIP3    H212988   3.153   1.414   4.565
 4328TIP3   OH212989   3.208   5.956   1.975
 4328TIP3    H112990   3.202   6.052   1.968
 4328TIP3    H212991   3.299   5.940   1.996
 4329TIP3   OH212992   2.880   1.824   2.628
 4329TIP3    H112993   2.888   1.799   2.720
 4329TIP3    H212994   2.945   1.893   2.616
 4330TIP3   OH212995   4.642   3.049   3.322
 4330TIP3    H112996   4.565   3.040   3.379
 4330TIP3    H212997   4.622   3.124   3.267
 4331TIP3   OH212998   3.851   3.256   3.019
 4331TIP3    H112999   3.860   3.163   3.043
 4331TIP3    H213000   3.774   3.285   3.068
 4332TIP3   OH213001   1.440   0.950   4.839
 4332TIP3    H113002   1.482   0.984   4.918
 4332TIP3    H213003   1.420   1.028   4.787
 4333TIP3   OH213004   3.609   2.313   3.829
 4333TIP3    H113005   3.581   2.244   3.888
 4333TIP3    H213006   3.606   2.393   3.882
 4334TIP3   OH213007   5.292   4.480   0.469
 4334TIP3    H113008   5.312   4.573   0.477
 4334TIP3    H213009   5.240   4.459   0.546
 4335TIP3   OH213010   4.011   0.730   4.929
 4335TIP3    H113011   3.963   0.685   4.860
 4335TIP3    H213012   3.975   0.693   5.010
 4336TIP3   OH213013   1.153   4.497   1.456
 4336TIP3    H113014   1.115   4.581   1.430
 4336TIP3    H213015   1.113   4.478   1.541
 4337TIP3   OH213016   1.788   5.178   0.801
 4337TIP3    H113017   1.722   5.135   0.856
 4337TIP3    H213018   1.773   5.141   0.714
 4338TIP3   OH213019   2.862   1.171   0.263
 4338TIP3    H113020   2.944   1.149   0.306
 4338TIP3    H213021   2.834   1.089   0.221
 4339TIP3   OH213022   5.366   1.289   2.620
 4339TIP3    H113023   5.274   1.318   2.617
 4339TIP3    H213024   5.370   1.230   2.695
 4340TIP3   OH213025   5.255   4.956   2.907
 4340TIP3    H113026   5.269   4.869   2.870
 4340TIP3    H213027   5.269   5.016   2.833
 4341TIP3   OH213028   2.594   1.578   3.764
 4341TIP3    H113029   2.656   1.639   3.804
 4341TIP3    H213030   2.509   1.621   3.771
 4342TIP3   OH213031   1.931   2.430   3.837
 4342TIP3    H113032   1.891   2.488   3.901
 4342TIP3    H213033   2.020   2.462   3.826
 4343TIP3   OH213034   6.196   2.963   3.596
 4343TIP3    H113035   6.201   2.996   3.506
 4343TIP3    H213036   6.199   3.041   3.651
 4344TIP3   OH213037   3.300   4.807   1.291
 4344TIP3    H113038   3.217   4.788   1.246
 4344TIP3    H213039   3.282   4.887   1.340
 4345TIP3   OH213040   6.186   1.495   1.731
 4345TIP3    H113041   6.154   1.584   1.747
 4345TIP3    H213042   6.218   1.497   1.641
 4346TIP3   OH213043   2.986   4.241   4.786
 4346TIP3    H113044   2.891   4.252   4.783
 4346TIP3    H213045   3.002   4.187   4.863
 4347TIP3   OH213046   2.725   1.265   3.404
 4347TIP3    H113047   2.692   1.201   3.467
 4347TIP3    H213048   2.797   1.221   3.360
 4348TIP3   OH213049   5.774   1.125   2.464
 4348TIP3    H113050   5.838   1.189   2.432
 4348TIP3    H213051   5.826   1.047   2.485
 4349TIP3   OH213052   1.154   4.824   4.532
 4349TIP3    H113053   1.242   4.844   4.564
 4349TIP3    H213054   1.168   4.797   4.441
 4350TIP3   OH213055   4.488   5.868   1.660
 4350TIP3    H113056   4.578   5.840   1.676
 4350TIP3    H213057   4.434   5.795   1.689
 4351TIP3   OH213058   4.813   1.640   1.448
 4351TIP3    H113059   4.781   1.592   1.525
 4351TIP3    H213060   4.865   1.575   1.400
 4352TIP3   OH213061   5.566   3.963   4.497
 4352TIP3    H113062   5.653   3.957   4.537
 4352TIP3    H213063   5.506   3.937   4.566
 4353TIP3   OH213064   0.494   1.723   4.933
 4353TIP3    H113065   0.527   1.774   4.859
 4353TIP3    H213066   0.507   1.632   4.907
 4354TIP3   OH213067   5.416   4.231   4.786
 4354TIP3    H113068   5.348   4.170   4.817
 4354TIP3    H213069   5.372   4.315   4.780
 4355TIP3   OH213070   5.814   3.903   3.454
 4355TIP3    H113071   5.902   3.866   3.469
 4355TIP3    H213072   5.807   3.974   3.517
 4356TIP3   OH213073   6.210   1.293   2.780
 4356TIP3    H113074   6.122   1.259   2.769
 4356TIP3    H213075   6.200   1.372   2.832
 4357TIP3   OH213076   5.023   2.460   1.182
 4357TIP3    H113077   5.065   2.545   1.190
 4357TIP3    H213078   4.935   2.480   1.148
 4358TIP3   OH213079   5.541   5.304   0.469
 4358TIP3    H113080   5.621   5.252   0.459
 4358TIP3    H213081   5.560   5.385   0.421
 4359TIP3   OH213082   4.626   4.816   1.603
 4359TIP3    H113083   4.571   4.885   1.566
 4359TIP3    H213084   4.634   4.751   1.533
 4360TIP3   OH213085   5.949   2.760   3.385
 4360TIP3    H113086   5.901   2.735   3.306
 4360TIP3    H213087   6.030   2.710   3.380
 4361TIP3   OH213088   0.822   5.927   1.480
 4361TIP3    H113089   0.807   6.017   1.508
 4361TIP3    H213090   0.851   5.935   1.389
 4362TIP3   OH213091   3.333   1.639   0.909
 4362TIP3    H113092   3.292   1.586   0.840
 4362TIP3    H213093   3.325   1.729   0.879
 4363TIP3   OH213094   1.343   4.799   0.384
 4363TIP3    H113095   1.300   4.879   0.414
 4363TIP3    H213096   1.436   4.818   0.390
 4364TIP3   OH213097   3.084   5.443   4.594
 4364TIP3    H113098   3.072   5.406   4.506
 4364TIP3    H213099   3.074   5.538   4.581
 4365TIP3   OH213100   1.041   1.361   4.636
 4365TIP3    H113101   1.008   1.293   4.578
 4365TIP3    H213102   1.136   1.356   4.629
 4366TIP3   OH213103   4.205   2.899   3.684
 4366TIP3    H113104   4.217   2.880   3.777
 4366TIP3    H213105   4.245   2.825   3.639
 4367TIP3   OH213106   6.140   1.983   0.592
 4367TIP3    H113107   6.159   2.014   0.681
 4367TIP3    H213108   6.160   2.058   0.536
 4368TIP3   OH213109   4.164   3.668   4.749
 4368TIP3    H113110   4.094   3.640   4.690
 4368TIP3    H213111   4.213   3.733   4.698
 4369TIP3   OH213112   2.287   5.725   4.534
 4369TIP3    H113113   2.282   5.794   4.599
 4369TIP3    H213114   2.300   5.645   4.584
 4370TIP3   OH213115   2.231   0.785   3.781
 4370TIP3    H113116   2.235   0.696   3.746
 4370TIP3    H213117   2.195   0.837   3.709
 4371TIP3   OH213118   0.077   0.541   1.349
 4371TIP3    H113119   0.031   0.477   1.403
 4371TIP3    H213120   0.008   0.583   1.297
 4372TIP3   OH213121   5.367   3.196   4.952
 4372TIP3    H113122   5.364   3.290   4.933
 4372TIP3    H213123   5.275   3.168   4.946
 4373TIP3   OH213124   3.602   1.964   1.810
 4373TIP3    H113125   3.693   1.953   1.837
 4373TIP3    H213126   3.575   1.878   1.780
 4374TIP3   OH213127   5.907   2.120   5.084
 4374TIP3    H113128   5.954   2.196   5.118
 4374TIP3    H213129   5.886   2.067   5.162
 4375TIP3   OH213130   1.306   0.924   2.879
 4375TIP3    H113131   1.386   0.970   2.902
 4375TIP3    H213132   1.335   0.840   2.843
 4376TIP3   OH213133   2.447   4.224   4.595
 4376TIP3    H113134   2.392   4.232   4.517
 4376TIP3    H213135   2.519   4.166   4.568
 4377TIP3   OH213136   0.523   3.899   2.389
 4377TIP3    H113137   0.589   3.882   2.322
 4377TIP3    H213138   0.552   3.849   2.466
 4378TIP3   OH213139   4.669   0.819   5.097
 4378TIP3    H113140   4.634   0.907   5.083
 4378TIP3    H213141   4.593   0.768   5.126
 4379TIP3   OH213142   1.508   2.673   3.535
 4379TIP3    H113143   1.513   2.620   3.456
 4379TIP3    H213144   1.553   2.622   3.602
 4380TIP3   OH213145   2.289   0.535   0.581
 4380TIP3    H113146   2.200   0.499   0.581
 4380TIP3    H213147   2.291   0.593   0.657
 4381TIP3   OH213148   3.956   5.881   2.845
 4381TIP3    H113149   3.963   5.973   2.871
 4381TIP3    H213150   4.026   5.837   2.893
 4382TIP3   OH213151   2.839   3.636   0.630
 4382TIP3    H113152   2.746   3.624   0.651
 4382TIP3    H213153   2.881   3.556   0.663
 4383TIP3   OH213154   2.662   3.287   4.206
 4383TIP3    H113155   2.728   3.311   4.271
 4383TIP3    H213156   2.705   3.302   4.121
 4384TIP3   OH213157   4.359   5.870   3.245
 4384TIP3    H113158   4.378   5.963   3.256
 4384TIP3    H213159   4.442   5.826   3.262
 4385TIP3   OH213160   1.990   4.932   0.678
 4385TIP3    H113161   1.929   4.994   0.638
 4385TIP3    H213162   2.054   4.988   0.723
 4386TIP3   OH213163   5.048   0.686   0.184
 4386TIP3    H113164   5.139   0.686   0.212
 4386TIP3    H213165   5.004   0.624   0.242
 4387TIP3   OH213166   1.433   5.066   1.535
 4387TIP3    H113167   1.473   4.981   1.552
 4387TIP3    H213168   1.434   5.110   1.620
 4388TIP3   OH213169   5.002   3.595   0.826
 4388TIP3    H113170   4.942   3.529   0.792
 4388TIP3    H213171   5.012   3.574   0.919
 4389TIP3   OH213172   0.581   3.965   1.249
 4389TIP3    H113173   0.581   4.028   1.321
 4389TIP3    H213174   0.502   3.986   1.199
 4390TIP3   OH213175   3.508   4.935   3.371
 4390TIP3    H113176   3.439   4.879   3.335
 4390TIP3    H213177   3.475   5.024   3.360
 4391TIP3   OH213178   5.547   0.513   4.102
 4391TIP3    H113179   5.498   0.561   4.170
 4391TIP3    H213180   5.544   0.571   4.026
 4392TIP3   OH213181   1.625   5.090   2.547
 4392TIP3    H113182   1.641   5.089   2.641
 4392TIP3    H213183   1.588   5.004   2.527
 4393TIP3   OH213184   0.227   3.176   0.984
 4393TIP3    H113185   0.208   3.093   1.028
 4393TIP3    H213186   0.304   3.210   1.029
 4394TIP3   OH213187   3.148   3.450   2.502
 4394TIP3    H113188   3.190   3.365   2.485
 4394TIP3    H213189   3.220   3.513   2.500
 4395TIP3   OH213190   2.745   4.533   0.709
 4395TIP3    H113191   2.651   4.518   0.703
 4395TIP3    H213192   2.759   4.617   0.665
 4396TIP3   OH213193   3.980   5.902   0.704
 4396TIP3    H113194   3.966   5.983   0.655
 4396TIP3    H213195   3.894   5.861   0.708
 4397TIP3   OH213196   2.156   1.319   0.453
 4397TIP3    H113197   2.220   1.347   0.387
 4397TIP3    H213198   2.189   1.355   0.535
 4398TIP3   OH213199   3.903   4.386   3.642
 4398TIP3    H113200   3.872   4.457   3.699
 4398TIP3    H213201   3.824   4.355   3.598
 4399TIP3   OH213202   4.763   1.595   0.763
 4399TIP3    H113203   4.707   1.638   0.829
 4399TIP3    H213204   4.737   1.634   0.680
 4400TIP3   OH213205   5.191   1.247   4.492
 4400TIP3    H113206   5.225   1.196   4.566
 4400TIP3    H213207   5.135   1.186   4.444
 4401TIP3   OH213208   3.941   0.935   4.232
 4401TIP3    H113209   3.999   1.002   4.270
 4401TIP3    H213210   3.960   0.856   4.282
 4402TIP3   OH213211   6.054   2.515   1.792
 4402TIP3    H113212   5.984   2.492   1.731
 4402TIP3    H213213   6.032   2.604   1.820
 4403TIP3   OH213214   6.280   2.464   3.792
 4403TIP3    H113215   6.238   2.546   3.815
 4403TIP3    H213216   6.209   2.407   3.764
 4404TIP3   OH213217   3.471   2.922   1.909
 4404TIP3    H113218   3.385   2.949   1.876
 4404TIP3    H213219   3.531   2.936   1.837
 4405TIP3   OH213220   2.129   5.505   0.858
 4405TIP3    H113221   2.189   5.579   0.873
 4405TIP3    H213222   2.183   5.439   0.815
 4406TIP3   OH213223   3.330   3.615   0.617
 4406TIP3    H113224   3.393   3.648   0.553
 4406TIP3    H213225   3.353   3.660   0.699
 4407TIP3   OH213226   5.309   3.341   2.946
 4407TIP3    H113227   5.365   3.280   2.995
 4407TIP3    H213228   5.220   3.319   2.973
 4408TIP3   OH213229   4.033   4.051   1.776
 4408TIP3    H113230   3.977   4.076   1.703
 4408TIP3    H213231   4.114   4.099   1.762
 4409TIP3   OH213232   0.815   4.680   0.145
 4409TIP3    H113233   0.820   4.585   0.129
 4409TIP3    H213234   0.818   4.719   0.058
 4410TIP3   OH213235   1.186   1.713   2.182
 4410TIP3    H113236   1.150   1.649   2.243
 4410TIP3    H213237   1.255   1.666   2.136
 4411TIP3   OH213238   0.320   2.154   5.175
 4411TIP3    H113239   0.389   2.094   5.204
 4411TIP3    H213240   0.360   2.201   5.102
 4412TIP3   OH213241   0.955   0.324   3.449
 4412TIP3    H113242   0.862   0.341   3.437
 4412TIP3    H213243   0.974   0.251   3.390
 4413TIP3   OH213244   1.982   5.873   2.091
 4413TIP3    H113245   2.029   5.798   2.055
 4413TIP3    H213246   1.922   5.834   2.155
 4414TIP3   OH213247   3.438   5.042   0.405
 4414TIP3    H113248   3.359   5.023   0.354
 4414TIP3    H213249   3.494   5.093   0.345
 4415TIP3   OH213250   1.159   5.372   4.481
 4415TIP3    H113251   1.242   5.341   4.446
 4415TIP3    H213252   1.101   5.295   4.478
 4416TIP3   OH213253   6.192   1.999   1.329
 4416TIP3    H113254   6.139   1.929   1.367
 4416TIP3    H213255   6.214   1.967   1.241
 4417TIP3   OH213256   5.652   4.566   2.954
 4417TIP3    H113257   5.709   4.489   2.965
 4417TIP3    H213258   5.653   4.609   3.039
 4418TIP3   OH213259   2.239   1.335   2.305
 4418TIP3    H113260   2.192   1.347   2.388
 4418TIP3    H213261   2.329   1.317   2.331
 4419TIP3   OH213262   4.449   0.211   5.000
 4419TIP3    H113263   4.368   0.260   4.985
 4419TIP3    H213264   4.428   0.150   5.071
 4420TIP3   OH213265   5.911   3.082   4.324
 4420TIP3    H113266   5.894   3.101   4.232
 4420TIP3    H213267   5.918   2.987   4.329
 4421TIP3   OH213268   1.800   3.897   1.013
 4421TIP3    H113269   1.733   3.831   0.997
 4421TIP3    H213270   1.872   3.872   0.955
 4422TIP3   OH213271   3.678   1.003   4.152
 4422TIP3    H113272   3.652   0.933   4.092
 4422TIP3    H213273   3.772   0.991   4.163
 4423TIP3   OH213274   1.276   1.782   1.034
 4423TIP3    H113275   1.266   1.793   1.129
 4423TIP3    H213276   1.371   1.783   1.020
 4424TIP3   OH213277   3.601   5.857   3.343
 4424TIP3    H113278   3.561   5.914   3.278
 4424TIP3    H213279   3.561   5.772   3.330
 4425TIP3   OH213280   4.416   0.221   1.730
 4425TIP3    H113281   4.498   0.196   1.687
 4425TIP3    H213282   4.348   0.179   1.677
 4426TIP3   OH213283   1.533   3.027   4.158
 4426TIP3    H113284   1.600   2.959   4.169
 4426TIP3    H213285   1.578   3.098   4.113
 4427TIP3   OH213286   5.726   5.419   4.159
 4427TIP3    H113287   5.690   5.505   4.138
 4427TIP3    H213288   5.684   5.395   4.242
 4428TIP3   OH213289   1.290   2.333   3.569
 4428TIP3    H113290   1.216   2.385   3.537
 4428TIP3    H213291   1.278   2.329   3.664
 4429TIP3   OH213292   1.911   0.956   2.986
 4429TIP3    H113293   1.872   1.031   2.942
 4429TIP3    H213294   1.875   0.958   3.075
 4430TIP3   OH213295   4.107   2.326   4.521
 4430TIP3    H113296   4.147   2.252   4.475
 4430TIP3    H213297   4.022   2.294   4.550
 4431TIP3   OH213298   4.014   3.017   1.409
 4431TIP3    H113299   4.065   2.994   1.331
 4431TIP3    H213300   3.928   3.041   1.375
 4432TIP3   OH213301   2.923   1.985   3.256
 4432TIP3    H113302   3.003   1.987   3.310
 4432TIP3    H213303   2.906   1.892   3.243
 4433TIP3   OH213304   5.115   2.807   0.949
 4433TIP3    H113305   5.200   2.785   0.913
 4433TIP3    H213306   5.069   2.851   0.877
 4434TIP3   OH213307   2.015   3.430   0.255
 4434TIP3    H113308   2.107   3.423   0.281
 4434TIP3    H213309   1.966   3.418   0.337
 4435TIP3   OH213310   1.732   1.856   0.418
 4435TIP3    H113311   1.798   1.870   0.485
 4435TIP3    H213312   1.700   1.943   0.396
 4436TIP3   OH213313   6.139   4.208   3.245
 4436TIP3    H113314   6.195   4.279   3.215
 4436TIP3    H213315   6.096   4.242   3.324
 4437TIP3   OH213316   4.034   0.280   3.781
 4437TIP3    H113317   4.090   0.330   3.721
 4437TIP3    H213318   4.009   0.343   3.849
 4438TIP3   OH213319   2.810   4.980   4.484
 4438TIP3    H113320   2.793   5.065   4.523
 4438TIP3    H213321   2.845   4.927   4.556
 4439TIP3   OH213322   0.180   5.285   3.266
 4439TIP3    H113323   0.213   5.342   3.335
 4439TIP3    H213324   0.092   5.261   3.294
 4440TIP3   OH213325   5.004   5.832   1.335
 4440TIP3    H113326   4.960   5.909   1.298
 4440TIP3    H213327   5.047   5.790   1.260
 4441TIP3   OH213328   5.167   3.542   4.517
 4441TIP3    H113329   5.105   3.522   4.587
 4441TIP3    H213330   5.215   3.460   4.503
 4442TIP3   OH213331   0.298   2.410   1.038
 4442TIP3    H113332   0.247   2.472   1.090
 4442TIP3    H213333   0.380   2.399   1.088
 4443TIP3   OH213334   0.298   1.224   2.312
 4443TIP3    H113335   0.361   1.177   2.256
 4443TIP3    H213336   0.266   1.157   2.372
 4444TIP3   OH213337   6.006   1.640   2.506
 4444TIP3    H113338   5.926   1.668   2.460
 4444TIP3    H213339   6.039   1.567   2.453
 4445TIP3   OH213340   5.292   0.607   2.047
 4445TIP3    H113341   5.249   0.578   2.128
 4445TIP3    H213342   5.220   0.637   1.991
 4446TIP3   OH213343   1.890   1.911   4.729
 4446TIP3    H113344   1.916   1.979   4.790
 4446TIP3    H213345   1.970   1.889   4.681
 4447TIP3   OH213346   6.205   3.454   2.553
 4447TIP3    H113347   6.173   3.367   2.530
 4447TIP3    H213348   6.291   3.437   2.593
 4448TIP3   OH213349   3.109   3.751   4.992
 4448TIP3    H113350   3.114   3.655   5.000
 4448TIP3    H213351   3.131   3.768   4.900
 4449TIP3   OH213352   0.845   2.904   3.251
 4449TIP3    H113353   0.928   2.935   3.216
 4449TIP3    H213354   0.779   2.956   3.205
 4450TIP3   OH213355   3.056   5.533   2.774
 4450TIP3    H113356   3.128   5.484   2.812
 4450TIP3    H213357   2.989   5.535   2.842
 4451TIP3   OH213358  -0.002   1.191   1.301
 4451TIP3    H113359   0.050   1.208   1.380
 4451TIP3    H213360   0.011   1.269   1.246
 4452TIP3   OH213361   1.473   4.067   3.151
 4452TIP3    H113362   1.520   4.020   3.082
 4452TIP3    H213363   1.480   4.012   3.228
 4453TIP3   OH213364   4.584   5.071   2.288
 4453TIP3    H113365   4.533   5.117   2.222
 4453TIP3    H213366   4.673   5.103   2.277
 4454TIP3   OH213367   3.561   2.970   0.392
 4454TIP3    H113368   3.562   2.879   0.362
 4454TIP3    H213369   3.638   3.009   0.351
 4455TIP3   OH213370   3.727   4.003   4.556
 4455TIP3    H113371   3.638   4.034   4.539
 4455TIP3    H213372   3.724   3.910   4.534
 4456TIP3   OH213373   4.966   5.544   4.271
 4456TIP3    H113374   4.949   5.461   4.227
 4456TIP3    H213375   4.984   5.519   4.362
 4457TIP3   OH213376   0.026   3.187   4.383
 4457TIP3    H113377   0.042   3.093   4.393
 4457TIP3    H213378  -0.001   3.198   4.292
 4458TIP3   OH213379   4.244   3.179   5.095
 4458TIP3    H113380   4.204   3.246   5.150
 4458TIP3    H213381   4.188   3.102   5.106
 4459TIP3   OH213382   1.311   1.570   1.496
 4459TIP3    H113383   1.274   1.650   1.535
 4459TIP3    H213384   1.405   1.575   1.515
 4460TIP3   OH213385   1.979   0.004   4.278
 4460TIP3    H113386   1.931   0.083   4.255
 4460TIP3    H213387   2.000   0.015   4.371
 4461TIP3   OH213388   1.759   2.230   3.890
 4461TIP3    H113389   1.750   2.264   3.980
 4461TIP3    H213390   1.834   2.277   3.854
 4462TIP3   OH213391   3.443   0.334   5.028
 4462TIP3    H113392   3.436   0.266   4.961
 4462TIP3    H213393   3.526   0.378   5.009
 4463TIP3   OH213394   6.359   5.916   4.789
 4463TIP3    H113395   6.292   5.975   4.823
 4463TIP3    H213396   6.321   5.829   4.800
 4464TIP3   OH213397   6.104   5.596   4.290
 4464TIP3    H113398   6.171   5.533   4.264
 4464TIP3    H213399   6.085   5.575   4.381
 4465TIP3   OH213400   4.683   1.011   1.073
 4465TIP3    H113401   4.672   0.930   1.024
 4465TIP3    H213402   4.755   0.993   1.134
 4466TIP3   OH213403   5.507   4.494   3.489
 4466TIP3    H113404   5.416   4.466   3.490
 4466TIP3    H213405   5.552   4.429   3.434
 4467TIP3   OH213406   1.250   2.508   4.995
 4467TIP3    H113407   1.320   2.525   4.933
 4467TIP3    H213408   1.294   2.497   5.079
 4468TIP3   OH213409   1.244   4.543   2.753
 4468TIP3    H113410   1.239   4.530   2.848
 4468TIP3    H213411   1.227   4.457   2.716
 4469TIP3   OH213412   2.719   4.637   1.518
 4469TIP3    H113413   2.774   4.597   1.451
 4469TIP3    H213414   2.781   4.682   1.576
 4470TIP3   OH213415   5.344   1.986   5.032
 4470TIP3    H113416   5.355   2.064   5.086
 4470TIP3    H213417   5.398   1.919   5.075
 4471TIP3   OH213418   2.220   5.257   1.074
 4471TIP3    H113419   2.295   5.267   1.133
 4471TIP3    H213420   2.236   5.320   1.004
 4472TIP3   OH213421   5.037   2.526   0.779
 4472TIP3    H113422   5.023   2.438   0.744
 4472TIP3    H213423   4.982   2.529   0.858
 4473TIP3   OH213424   5.296   5.069   3.688
 4473TIP3    H113425   5.277   5.059   3.595
 4473TIP3    H213426   5.372   5.128   3.690
 4474TIP3   OH213427   3.074   3.974   1.441
 4474TIP3    H113428   3.083   4.067   1.462
 4474TIP3    H213429   3.052   3.933   1.524
 4475TIP3   OH213430   3.126   5.903   0.699
 4475TIP3    H113431   3.191   5.861   0.643
 4475TIP3    H213432   3.153   5.995   0.702
 4476TIP3   OH213433   5.310   5.227   4.379
 4476TIP3    H113434   5.289   5.214   4.287
 4476TIP3    H213435   5.395   5.186   4.390
 4477TIP3   OH213436   5.327   1.942   4.782
 4477TIP3    H113437   5.366   2.016   4.735
 4477TIP3    H213438   5.338   1.964   4.875
 4478TIP3   OH213439   4.687   0.111   4.579
 4478TIP3    H113440   4.676   0.186   4.637
 4478TIP3    H213441   4.622   0.123   4.511
 4479TIP3   OH213442   2.784   3.405   4.003
 4479TIP3    H113443   2.810   3.397   3.911
 4479TIP3    H213444   2.806   3.496   4.026
 4480TIP3   OH213445   3.815   2.317   0.163
 4480TIP3    H113446   3.732   2.328   0.115
 4480TIP3    H213447   3.879   2.296   0.096
 4481TIP3   OH213448   0.392   5.749   2.232
 4481TIP3    H113449   0.486   5.758   2.248
 4481TIP3    H213450   0.352   5.814   2.290
 4482TIP3   OH213451   1.299   0.633   3.431
 4482TIP3    H113452   1.393   0.651   3.437
 4482TIP3    H213453   1.291   0.575   3.355
 4483TIP3   OH213454   3.245   3.742   0.203
 4483TIP3    H113455   3.262   3.772   0.113
 4483TIP3    H213456   3.172   3.681   0.195
 4484TIP3   OH213457   4.417   1.670   4.406
 4484TIP3    H113458   4.427   1.732   4.479
 4484TIP3    H213459   4.323   1.669   4.388
 4485TIP3   OH213460   3.925   4.296   4.974
 4485TIP3    H113461   3.855   4.346   4.932
 4485TIP3    H213462   3.911   4.310   5.068
 4486TIP3   OH213463   4.482   2.054   5.158
 4486TIP3    H113464   4.447   2.130   5.206
 4486TIP3    H213465   4.440   2.058   5.073
 4487TIP3   OH213466   1.977   1.830   2.041
 4487TIP3    H113467   1.930   1.878   2.109
 4487TIP3    H213468   2.002   1.748   2.082
 4488TIP3   OH213469   0.831   3.256   0.944
 4488TIP3    H113470   0.892   3.230   1.013
 4488TIP3    H213471   0.751   3.278   0.990
 4489TIP3   OH213472   1.824   1.743   3.723
 4489TIP3    H113473   1.841   1.823   3.674
 4489TIP3    H213474   1.872   1.754   3.805
 4490TIP3   OH213475   4.553   2.585   2.936
 4490TIP3    H113476   4.544   2.674   2.970
 4490TIP3    H213477   4.633   2.552   2.976
 4491TIP3   OH213478   0.075   1.663   2.717
 4491TIP3    H113479   0.150   1.605   2.732
 4491TIP3    H213480   0.071   1.672   2.622
 4492TIP3   OH213481   0.789   4.869   2.512
 4492TIP3    H113482   0.770   4.934   2.444
 4492TIP3    H213483   0.797   4.920   2.592
 4493TIP3   OH213484   5.808   2.236   4.126
 4493TIP3    H113485   5.748   2.221   4.198
 4493TIP3    H213486   5.890   2.195   4.154
 4494TIP3   OH213487   3.499   4.290   4.864
 4494TIP3    H113488   3.537   4.372   4.897
 4494TIP3    H213489   3.575   4.235   4.844
 4495TIP3   OH213490   1.561   5.467   0.103
 4495TIP3    H113491   1.619   5.512   0.165
 4495TIP3    H213492   1.481   5.519   0.102
 4496TIP3   OH213493   0.364   2.516   2.355
 4496TIP3    H113494   0.454   2.515   2.321
 4496TIP3    H213495   0.364   2.446   2.421
 4497TIP3   OH213496   5.342   3.913   0.309
 4497TIP3    H113497   5.375   3.890   0.222
 4497TIP3    H213498   5.389   3.993   0.332
 4498TIP3   OH213499   0.169   4.403   2.974
 4498TIP3    H113500   0.121   4.405   3.057
 4498TIP3    H213501   0.153   4.489   2.936
 4499TIP3   OH213502   2.013   3.016   0.267
 4499TIP3    H113503   1.949   2.948   0.287
 4499TIP3    H213504   2.075   3.011   0.340
 4500TIP3   OH213505   5.093   4.208   2.740
 4500TIP3    H113506   5.018   4.200   2.798
 4500TIP3    H213507   5.065   4.269   2.671
 4501TIP3   OH213508   2.501   0.319   4.514
 4501TIP3    H113509   2.501   0.394   4.454
 4501TIP3    H213510   2.416   0.323   4.558
 4502TIP3   OH213511   0.960   0.708   4.387
 4502TIP3    H113512   1.045   0.681   4.423
 4502TIP3    H213513   0.980   0.784   4.333
 4503TIP3   OH213514   6.233   1.539   2.922
 4503TIP3    H113515   6.167   1.571   2.861
 4503TIP3    H213516   6.308   1.597   2.909
 4504TIP3   OH213517   1.993   5.581   1.082
 4504TIP3    H113518   2.057   5.560   1.149
 4504TIP3    H213519   2.031   5.546   1.001
 4505TIP3   OH213520   2.843   4.531   4.016
 4505TIP3    H113521   2.766   4.493   4.059
 4505TIP3    H213522   2.824   4.525   3.923
 4506TIP3   OH213523   5.419   2.746   1.340
 4506TIP3    H113524   5.488   2.794   1.386
 4506TIP3    H213525   5.346   2.742   1.402
 4507TIP3   OH213526   0.372   5.711   4.640
 4507TIP3    H113527   0.448   5.653   4.640
 4507TIP3    H213528   0.330   5.695   4.555
 4508TIP3   OH213529   5.216   4.919   4.051
 4508TIP3    H113530   5.159   4.860   4.100
 4508TIP3    H213531   5.278   4.861   4.007
 4509TIP3   OH213532   4.120   3.077   2.342
 4509TIP3    H113533   4.094   3.047   2.429
 4509TIP3    H213534   4.184   3.147   2.359
 4510TIP3   OH213535   2.978   3.208   0.652
 4510TIP3    H113536   2.990   3.251   0.737
 4510TIP3    H213537   3.008   3.273   0.588
 4511TIP3   OH213538   0.302   3.766   5.151
 4511TIP3    H113539   0.255   3.698   5.102
 4511TIP3    H213540   0.393   3.736   5.151
 4512TIP3   OH213541   0.031   2.508   3.374
 4512TIP3    H113542   0.094   2.478   3.309
 4512TIP3    H213543   0.011   2.430   3.426
 4513TIP3   OH213544   5.916   0.552   3.268
 4513TIP3    H113545   5.959   0.473   3.301
 4513TIP3    H213546   5.849   0.573   3.334
 4514TIP3   OH213547   3.053   5.771   4.935
 4514TIP3    H113548   2.966   5.773   4.896
 4514TIP3    H213549   3.041   5.732   5.021
 4515TIP3   OH213550   2.626   2.907   4.396
 4515TIP3    H113551   2.687   2.920   4.323
 4515TIP3    H213552   2.677   2.859   4.461
 4516TIP3   OH213553   1.528   0.689   0.406
 4516TIP3    H113554   1.565   0.718   0.490
 4516TIP3    H213555   1.437   0.670   0.426
 4517TIP3   OH213556   5.171   3.847   1.322
 4517TIP3    H113557   5.115   3.778   1.359
 4517TIP3    H213558   5.240   3.858   1.387
 4518TIP3   OH213559   1.134   3.718   4.252
 4518TIP3    H113560   1.158   3.797   4.205
 4518TIP3    H213561   1.039   3.725   4.266
 4519TIP3   OH213562   5.770   3.585   3.661
 4519TIP3    H113563   5.791   3.624   3.746
 4519TIP3    H213564   5.841   3.611   3.603
 4520TIP3   OH213565   3.427   1.465   4.263
 4520TIP3    H113566   3.509   1.421   4.283
 4520TIP3    H213567   3.401   1.508   4.345
 4521TIP3   OH213568   0.543   1.385   4.028
 4521TIP3    H113569   0.533   1.293   4.006
 4521TIP3    H213570   0.565   1.386   4.121
 4522TIP3   OH213571   0.023   4.175   5.068
 4522TIP3    H113572   0.050   4.255   5.024
 4522TIP3    H213573   0.071   4.105   5.024
 4523TIP3   OH213574   1.097   1.368   3.956
 4523TIP3    H113575   1.151   1.304   3.910
 4523TIP3    H213576   1.160   1.422   4.004
 4524TIP3   OH213577   4.241   4.568   4.709
 4524TIP3    H113578   4.269   4.644   4.658
 4524TIP3    H213579   4.214   4.605   4.793
 4525TIP3   OH213580   4.386   3.710   5.130
 4525TIP3    H113581   4.321   3.755   5.183
 4525TIP3    H213582   4.369   3.738   5.041
 4526TIP3   OH213583   5.313   5.597   4.672
 4526TIP3    H113584   5.294   5.597   4.766
 4526TIP3    H213585   5.400   5.557   4.666
 4527TIP3   OH213586   2.942   3.058   1.670
 4527TIP3    H113587   2.893   3.084   1.591
 4527TIP3    H213588   2.912   3.118   1.738
 4528TIP3   OH213589   4.209   2.451   3.410
 4528TIP3    H113590   4.241   2.362   3.424
 4528TIP3    H213591   4.200   2.460   3.316
 4529TIP3   OH213592   1.064   2.303   1.424
 4529TIP3    H113593   1.022   2.249   1.357
 4529TIP3    H213594   0.995   2.320   1.488
 4530TIP3   OH213595   0.469   0.748   4.747
 4530TIP3    H113596   0.443   0.822   4.803
 4530TIP3    H213597   0.440   0.671   4.794
 4531TIP3   OH213598   1.436   0.700   5.173
 4531TIP3    H113599   1.386   0.673   5.096
 4531TIP3    H213600   1.422   0.794   5.179
 4532TIP3   OH213601   4.739   4.871   0.863
 4532TIP3    H113602   4.652   4.839   0.887
 4532TIP3    H213603   4.726   4.918   0.781
 4533TIP3   OH213604   3.872   1.147   0.718
 4533TIP3    H113605   3.935   1.076   0.731
 4533TIP3    H213606   3.913   1.223   0.760
 4534TIP3   OH213607   4.923   4.852   0.610
 4534TIP3    H113608   4.843   4.905   0.618
 4534TIP3    H213609   4.959   4.851   0.699
 4535TIP3   OH213610   2.980   4.807   4.631
 4535TIP3    H113611   3.024   4.724   4.648
 4535TIP3    H213612   3.041   4.856   4.575
 4536TIP3   OH213613   3.541   1.691   1.738
 4536TIP3    H113614   3.522   1.616   1.795
 4536TIP3    H213615   3.596   1.655   1.669
 4537TIP3   OH213616   0.689   3.067   3.761
 4537TIP3    H113617   0.725   3.155   3.775
 4537TIP3    H213618   0.747   3.009   3.810
 4538TIP3   OH213619   0.931   5.705   0.167
 4538TIP3    H113620   0.912   5.768   0.098
 4538TIP3    H213621   0.862   5.639   0.159
 4539TIP3   OH213622   3.499   0.643   2.792
 4539TIP3    H113623   3.490   0.726   2.747
 4539TIP3    H213624   3.432   0.586   2.752
 4540TIP3   OH213625   1.812   2.934   1.889
 4540TIP3    H113626   1.815   2.939   1.794
 4540TIP3    H213627   1.803   3.026   1.918
 4541TIP3   OH213628   4.693   3.245   4.815
 4541TIP3    H113629   4.657   3.320   4.863
 4541TIP3    H213630   4.681   3.171   4.874
 4542TIP3   OH213631   3.504   0.757   3.763
 4542TIP3    H113632   3.493   0.668   3.799
 4542TIP3    H213633   3.435   0.765   3.697
 4543TIP3   OH213634   2.651   1.983   4.325
 4543TIP3    H113635   2.686   1.899   4.354
 4543TIP3    H213636   2.602   2.016   4.401
 4544TIP3   OH213637   1.845   3.074   2.601
 4544TIP3    H113638   1.934   3.044   2.586
 4544TIP3    H213639   1.802   3.066   2.515
 4545TIP3   OH213640   4.665   1.785   4.444
 4545TIP3    H113641   4.601   1.719   4.417
 4545TIP3    H213642   4.733   1.735   4.489
 4546TIP3   OH213643   5.937   4.810   1.881
 4546TIP3    H113644   5.901   4.753   1.949
 4546TIP3    H213645   5.860   4.847   1.837
 4547TIP3   OH213646   5.979   5.599   1.878
 4547TIP3    H113647   6.016   5.510   1.879
 4547TIP3    H213648   6.054   5.656   1.861
 4548TIP3   OH213649   4.994   1.770   0.987
 4548TIP3    H113650   5.069   1.726   0.946
 4548TIP3    H213651   4.969   1.837   0.924
 4549TIP3   OH213652   2.392   4.370   2.829
 4549TIP3    H113653   2.410   4.413   2.913
 4549TIP3    H213654   2.396   4.276   2.848
 4550TIP3   OH213655   3.481   5.437   0.046
 4550TIP3    H113656   3.425   5.450   0.123
 4550TIP3    H213657   3.567   5.416   0.081
 4551TIP3   OH213658   5.243   1.420   1.359
 4551TIP3    H113659   5.154   1.397   1.387
 4551TIP3    H213660   5.244   1.406   1.265
 4552TIP3   OH213661   3.372   4.888   0.623
 4552TIP3    H113662   3.308   4.832   0.579
 4552TIP3    H213663   3.402   4.949   0.556
 4553TIP3   OH213664   5.062   1.367   2.221
 4553TIP3    H113665   5.062   1.313   2.300
 4553TIP3    H213666   4.988   1.335   2.170
 4554TIP3   OH213667   3.216   3.026   1.754
 4554TIP3    H113668   3.124   3.051   1.742
 4554TIP3    H213669   3.258   3.104   1.787
 4555TIP3   OH213670   6.049   0.742   2.462
 4555TIP3    H113671   6.048   0.801   2.387
 4555TIP3    H213672   6.089   0.793   2.532
 4556TIP3   OH213673   0.972   1.643   0.342
 4556TIP3    H113674   0.901   1.594   0.300
 4556TIP3    H213675   1.051   1.595   0.320
 4557TIP3   OH213676   3.261   4.785   1.908
 4557TIP3    H113677   3.263   4.798   2.003
 4557TIP3    H213678   3.185   4.729   1.893
 4558TIP3   OH213679   0.797   0.949   3.922
 4558TIP3    H113680   0.890   0.968   3.907
 4558TIP3    H213681   0.790   0.854   3.910
 4559TIP3   OH213682   0.531  -0.038   4.305
 4559TIP3    H113683   0.559  -0.005   4.220
 4559TIP3    H213684   0.449   0.007   4.323
 4560TIP3   OH213685   3.865   1.143   0.420
 4560TIP3    H113686   3.853   1.139   0.515
 4560TIP3    H213687   3.778   1.127   0.384
 4561TIP3   OH213688   2.583   3.310   3.707
 4561TIP3    H113689   2.605   3.228   3.751
 4561TIP3    H213690   2.553   3.283   3.620
 4562TIP3   OH213691   1.428   2.546   3.175
 4562TIP3    H113692   1.462   2.635   3.184
 4562TIP3    H213693   1.440   2.506   3.261
 4563TIP3   OH213694   5.071   0.406   3.785
 4563TIP3    H113695   5.007   0.465   3.745
 4563TIP3    H213696   5.019   0.330   3.812
 4564TIP3   OH213697   2.063   3.761   3.153
 4564TIP3    H113698   2.044   3.715   3.071
 4564TIP3    H213699   2.016   3.710   3.220
 4565TIP3   OH213700   1.467   1.875   3.971
 4565TIP3    H113701   1.415   1.946   3.933
 4565TIP3    H213702   1.517   1.917   4.041
 4566TIP3   OH213703   5.440   5.079   4.702
 4566TIP3    H113704   5.484   5.022   4.765
 4566TIP3    H213705   5.474   5.167   4.721
 4567TIP3   OH213706   4.170   5.716   3.406
 4567TIP3    H113707   4.226   5.664   3.463
 4567TIP3    H213708   4.232   5.765   3.351
 4568TIP3   OH213709   4.313   3.714   0.763
 4568TIP3    H113710   4.403   3.690   0.739
 4568TIP3    H213711   4.315   3.715   0.859
 4569TIP3   OH213712   2.431   3.701   0.843
 4569TIP3    H113713   2.487   3.725   0.917
 4569TIP3    H213714   2.492   3.664   0.778
 4570TIP3   OH213715   2.219   3.016   4.239
 4570TIP3    H113716   2.267   2.934   4.253
 4570TIP3    H213717   2.284   3.085   4.252
 4571TIP3   OH213718   4.027   4.482   1.274
 4571TIP3    H113719   4.001   4.391   1.259
 4571TIP3    H213720   4.024   4.522   1.187
 4572TIP3   OH213721   1.039   0.733   3.706
 4572TIP3    H113722   1.126   0.693   3.696
 4572TIP3    H213723   0.987   0.697   3.634
 4573TIP3   OH213724   2.516   4.173   1.985
 4573TIP3    H113725   2.550   4.100   2.037
 4573TIP3    H213726   2.436   4.139   1.946
 4574TIP3   OH213727   1.917   2.720   3.628
 4574TIP3    H113728   1.979   2.668   3.577
 4574TIP3    H213729   1.880   2.657   3.690
 4575TIP3   OH213730   1.827   4.818   1.354
 4575TIP3    H113731   1.854   4.889   1.297
 4575TIP3    H213732   1.761   4.770   1.303
 4576TIP3   OH213733   1.755   0.636   0.772
 4576TIP3    H113734   1.799   0.715   0.804
 4576TIP3    H213735   1.664   0.663   0.759
 4577TIP3   OH213736   4.332   0.721   1.360
 4577TIP3    H113737   4.263   0.724   1.294
 4577TIP3    H213738   4.300   0.659   1.426
 4578TIP3   OH213739   0.822   3.732   0.253
 4578TIP3    H113740   0.824   3.736   0.158
 4578TIP3    H213741   0.911   3.706   0.278
 4579TIP3   OH213742   6.240   3.238   0.049
 4579TIP3    H113743   6.268   3.290  -0.026
 4579TIP3    H213744   6.153   3.271   0.070
 4580TIP3   OH213745   4.557   0.740   4.757
 4580TIP3    H113746   4.500   0.786   4.694
 4580TIP3    H213747   4.613   0.809   4.793
 4581TIP3   OH213748   0.536   1.020   0.297
 4581TIP3    H113749   0.583   0.953   0.345
 4581TIP3    H213750   0.475   0.972   0.241
 4582TIP3   OH213751   4.535   1.419   1.305
 4582TIP3    H113752   4.608   1.451   1.252
 4582TIP3    H213753   4.533   1.325   1.289
 4583TIP3   OH213754   5.774   0.890   0.283
 4583TIP3    H113755   5.752   0.976   0.319
 4583TIP3    H213756   5.700   0.834   0.307
 4584TIP3   OH213757   3.916   5.251   1.064
 4584TIP3    H113758   3.906   5.341   1.095
 4584TIP3    H213759   3.833   5.209   1.084
 4585TIP3   OH213760   4.065   2.163   3.995
 4585TIP3    H113761   4.146   2.201   4.030
 4585TIP3    H213762   3.995   2.212   4.038
 4586TIP3   OH213763   2.601   5.151   4.793
 4586TIP3    H113764   2.617   5.062   4.763
 4586TIP3    H213765   2.520   5.146   4.843
 4587TIP3   OH213766   3.070   5.560   1.013
 4587TIP3    H113767   3.026   5.595   0.935
 4587TIP3    H213768   3.034   5.472   1.023
 4588TIP3   OH213769   6.075   5.685   0.825
 4588TIP3    H113770   6.116   5.741   0.759
 4588TIP3    H213771   6.056   5.744   0.898
 4589TIP3   OH213772   4.037   5.707   0.264
 4589TIP3    H113773   4.023   5.795   0.301
 4589TIP3    H213774   4.096   5.664   0.326
 4590TIP3   OH213775   5.557   3.214   1.940
 4590TIP3    H113776   5.579   3.254   1.856
 4590TIP3    H213777   5.497   3.276   1.982
 4591TIP3   OH213778   0.957   2.475   4.725
 4591TIP3    H113779   0.993   2.443   4.808
 4591TIP3    H213780   0.866   2.495   4.745
 4592TIP3   OH213781   5.958   1.103   4.485
 4592TIP3    H113782   5.907   1.029   4.455
 4592TIP3    H213783   6.010   1.068   4.558
 4593TIP3   OH213784   0.124   1.826   4.210
 4593TIP3    H113785   0.125   1.920   4.228
 4593TIP3    H213786   0.215   1.803   4.192
 4594TIP3   OH213787   0.687   4.311   1.641
 4594TIP3    H113788   0.677   4.395   1.595
 4594TIP3    H213789   0.731   4.334   1.723
 4595TIP3   OH213790   2.240   1.627   3.065
 4595TIP3    H113791   2.152   1.666   3.062
 4595TIP3    H213792   2.230   1.544   3.018
 4596TIP3   OH213793   1.906   4.050   3.033
 4596TIP3    H113794   1.836   4.113   3.016
 4596TIP3    H213795   1.861   3.972   3.065
 4597TIP3   OH213796   5.566   3.134   3.672
 4597TIP3    H113797   5.603   3.051   3.644
 4597TIP3    H213798   5.641   3.184   3.705
 4598TIP3   OH213799   0.445   4.414   2.814
 4598TIP3    H113800   0.449   4.390   2.721
 4598TIP3    H213801   0.352   4.416   2.835
 4599TIP3   OH213802   0.502   5.867   0.546
 4599TIP3    H113803   0.527   5.886   0.456
 4599TIP3    H213804   0.423   5.920   0.560
 4600TIP3   OH213805   4.945   2.719   2.502
 4600TIP3    H113806   5.031   2.706   2.543
 4600TIP3    H213807   4.938   2.814   2.492
 4601TIP3   OH213808   1.822   4.877   3.327
 4601TIP3    H113809   1.821   4.962   3.370
 4601TIP3    H213810   1.774   4.819   3.387
 4602TIP3   OH213811   0.073   4.847   2.129
 4602TIP3    H113812   0.014   4.772   2.144
 4602TIP3    H213813   0.135   4.842   2.201
 4603TIP3   OH213814   2.997   0.691   2.432
 4603TIP3    H113815   2.978   0.707   2.524
 4603TIP3    H213816   2.954   0.764   2.386
 4604TIP3   OH213817   2.811   1.730   0.992
 4604TIP3    H113818   2.782   1.816   0.964
 4604TIP3    H213819   2.895   1.746   1.036
 4605TIP3   OH213820   1.225   2.742   2.981
 4605TIP3    H113821   1.316   2.769   2.994
 4605TIP3    H213822   1.180   2.768   3.061
 4606TIP3   OH213823   1.376   1.365   2.314
 4606TIP3    H113824   1.355   1.387   2.405
 4606TIP3    H213825   1.305   1.308   2.286
 4607TIP3   OH213826   4.390   5.215   4.880
 4607TIP3    H113827   4.340   5.282   4.926
 4607TIP3    H213828   4.451   5.264   4.825
 4608TIP3   OH213829   3.157   3.202   4.318
 4608TIP3    H113830   3.095   3.272   4.339
 4608TIP3    H213831   3.210   3.237   4.246
 4609TIP3   OH213832   0.266   3.712   1.488
 4609TIP3    H113833   0.260   3.677   1.398
 4609TIP3    H213834   0.353   3.752   1.491
 4610TIP3   OH213835   1.254   0.313   0.013
 4610TIP3    H113836   1.273   0.385   0.073
 4610TIP3    H213837   1.164   0.287   0.034
 4611TIP3   OH213838   5.339   3.354   4.605
 4611TIP3    H113839   5.313   3.378   4.694
 4611TIP3    H213840   5.431   3.377   4.599
 4612TIP3   OH213841   4.426   4.094   1.960
 4612TIP3    H113842   4.399   4.120   1.872
 4612TIP3    H213843   4.481   4.017   1.946
 4613TIP3   OH213844   0.457   0.065   1.558
 4613TIP3    H113845   0.518   0.113   1.501
 4613TIP3    H213846   0.514   0.009   1.611
 4614TIP3   OH213847   0.709   2.453   0.213
 4614TIP3    H113848   0.668   2.385   0.265
 4614TIP3    H213849   0.702   2.532   0.266
 4615TIP3   OH213850   2.371   0.902   0.852
 4615TIP3    H113851   2.324   0.892   0.769
 4615TIP3    H213852   2.388   0.813   0.880
 4616TIP3   OH213853   2.725   3.988   2.341
 4616TIP3    H113854   2.649   3.931   2.352
 4616TIP3    H213855   2.760   3.998   2.429
 4617TIP3   OH213856   5.134   3.516   2.108
 4617TIP3    H113857   5.090   3.474   2.182
 4617TIP3    H213858   5.078   3.590   2.086
 4618TIP3   OH213859   2.207   3.124   2.300
 4618TIP3    H113860   2.290   3.169   2.292
 4618TIP3    H213861   2.159   3.174   2.366
 4619TIP3   OH213862   2.673   4.151   2.842
 4619TIP3    H113863   2.615   4.076   2.830
 4619TIP3    H213864   2.706   4.142   2.932
 4620TIP3   OH213865   4.625   1.318   3.183
 4620TIP3    H113866   4.705   1.332   3.233
 4620TIP3    H213867   4.614   1.223   3.180
 4621TIP3   OH213868   2.262   2.765   4.367
 4621TIP3    H113869   2.188   2.728   4.417
 4621TIP3    H213870   2.311   2.688   4.338
 4622TIP3   OH213871   2.568   3.373   5.199
 4622TIP3    H113872   2.490   3.324   5.173
 4622TIP3    H213873   2.641   3.317   5.173
 4623TIP3   OH213874   4.077   2.794   1.604
 4623TIP3    H113875   4.077   2.856   1.531
 4623TIP3    H213876   4.169   2.786   1.630
 4624TIP3   OH213877   3.273   3.955   1.824
 4624TIP3    H113878   3.335   4.015   1.865
 4624TIP3    H213879   3.196   3.957   1.880
 4625TIP3   OH213880   5.362   2.466   0.489
 4625TIP3    H113881   5.424   2.497   0.422
 4625TIP3    H213882   5.393   2.379   0.512
 4626TIP3   OH213883   4.185   2.517   4.000
 4626TIP3    H113884   4.212   2.445   4.057
 4626TIP3    H213885   4.262   2.574   3.996
 4627TIP3   OH213886   4.321   2.417   2.966
 4627TIP3    H113887   4.370   2.498   2.948
 4627TIP3    H213888   4.359   2.383   3.047
 4628TIP3   OH213889   2.414   5.908   3.014
 4628TIP3    H113890   2.402   5.951   2.930
 4628TIP3    H213891   2.325   5.895   3.048
 4629TIP3   OH213892   0.578   1.361   4.301
 4629TIP3    H113893   0.558   1.454   4.298
 4629TIP3    H213894   0.587   1.341   4.395
 4630TIP3   OH213895   3.763   4.548   0.519
 4630TIP3    H113896   3.791   4.632   0.555
 4630TIP3    H213897   3.768   4.559   0.424
 4631TIP3   OH213898   0.493   0.981   1.326
 4631TIP3    H113899   0.455   0.945   1.406
 4631TIP3    H213900   0.485   1.076   1.336
 4632TIP3   OH213901   3.661   4.808   0.540
 4632TIP3    H113902   3.630   4.760   0.617
 4632TIP3    H213903   3.603   4.779   0.469
 4633TIP3   OH213904   0.026   1.818   3.334
 4633TIP3    H113905   0.067   1.843   3.417
 4633TIP3    H213906  -0.056   1.777   3.360
 4634TIP3   OH213907   3.315   5.642   4.913
 4634TIP3    H113908   3.245   5.703   4.890
 4634TIP3    H213909   3.347   5.671   4.998
 4635TIP3   OH213910   0.387   3.278   0.740
 4635TIP3    H113911   0.396   3.215   0.811
 4635TIP3    H213912   0.475   3.284   0.702
 4636TIP3   OH213913   3.312   0.008   4.462
 4636TIP3    H113914   3.299   0.090   4.511
 4636TIP3    H213915   3.401   0.014   4.428
 4637TIP3   OH213916   2.935   5.540   5.134
 4637TIP3    H113917   2.897   5.520   5.221
 4637TIP3    H213918   2.934   5.455   5.089
 4638TIP3   OH213919   3.360   0.565   4.502
 4638TIP3    H113920   3.420   0.519   4.444
 4638TIP3    H213921   3.353   0.509   4.579
 4639TIP3   OH213922   4.113   3.438   1.371
 4639TIP3    H113923   4.172   3.363   1.373
 4639TIP3    H213924   4.027   3.401   1.349
 4640TIP3   OH213925   4.779   3.255   1.809
 4640TIP3    H113926   4.747   3.171   1.777
 4640TIP3    H213927   4.843   3.233   1.877
 4641TIP3   OH213928   4.788   5.354   4.841
 4641TIP3    H113929   4.883   5.340   4.838
 4641TIP3    H213930   4.752   5.266   4.848
 4642TIP3   OH213931   0.532   4.138   3.295
 4642TIP3    H113932   0.464   4.180   3.243
 4642TIP3    H213933   0.559   4.062   3.242
 4643TIP3   OH213934   6.179   2.013   4.481
 4643TIP3    H113935   6.168   2.095   4.529
 4643TIP3    H213936   6.090   1.979   4.472
 4644TIP3   OH213937   0.137   0.837   1.050
 4644TIP3    H113938   0.139   0.876   1.137
 4644TIP3    H213939   0.171   0.749   1.062
 4645TIP3   OH213940   1.048   2.361   0.757
 4645TIP3    H113941   1.112   2.432   0.767
 4645TIP3    H213942   1.100   2.281   0.767
 4646TIP3   OH213943   3.275   2.328   0.240
 4646TIP3    H113944   3.307   2.411   0.204
 4646TIP3    H213945   3.225   2.288   0.169
 4647TIP3   OH213946   4.516   5.316   1.131
 4647TIP3    H113947   4.430   5.288   1.163
 4647TIP3    H213948   4.525   5.406   1.163
 4648TIP3   OH213949   5.612   3.465   4.592
 4648TIP3    H113950   5.612   3.491   4.500
 4648TIP3    H213951   5.659   3.381   4.593
 4649TIP3   OH213952   0.408   0.843   2.324
 4649TIP3    H113953   0.482   0.782   2.316
 4649TIP3    H213954   0.354   0.806   2.394
 4650TIP3   OH213955   6.002   4.032   1.639
 4650TIP3    H113956   5.971   3.951   1.599
 4650TIP3    H213957   6.096   4.018   1.652
 4651TIP3   OH213958   2.013   5.824   1.429
 4651TIP3    H113959   1.990   5.867   1.347
 4651TIP3    H213960   1.955   5.748   1.433
 4652TIP3   OH213961   1.456   3.503   2.415
 4652TIP3    H113962   1.450   3.411   2.389
 4652TIP3    H213963   1.475   3.549   2.334
 4653TIP3   OH213964   4.097   4.896   3.260
 4653TIP3    H113965   4.006   4.877   3.285
 4653TIP3    H213966   4.149   4.837   3.314
 4654TIP3   OH213967   0.750   0.415   0.252
 4654TIP3    H113968   0.748   0.345   0.316
 4654TIP3    H213969   0.743   0.370   0.167
 4655TIP3   OH213970   4.106   4.783   0.632
 4655TIP3    H113971   4.198   4.810   0.629
 4655TIP3    H213972   4.089   4.747   0.545
 4656TIP3   OH213973   5.097   2.871   5.122
 4656TIP3    H113974   5.130   2.890   5.034
 4656TIP3    H213975   5.007   2.842   5.108
 4657TIP3   OH213976   5.358   4.261   4.209
 4657TIP3    H113977   5.372   4.323   4.280
 4657TIP3    H213978   5.438   4.208   4.207
 4658TIP3   OH213979   1.652   3.117   4.830
 4658TIP3    H113980   1.631   3.132   4.738
 4658TIP3    H213981   1.708   3.040   4.830
 4659TIP3   OH213982   2.809   3.151   2.083
 4659TIP3    H113983   2.849   3.070   2.049
 4659TIP3    H213984   2.871   3.183   2.148
 4660TIP3   OH213985   2.838   3.680   4.333
 4660TIP3    H113986   2.778   3.719   4.269
 4660TIP3    H213987   2.824   3.730   4.413
 4661TIP3   OH213988   3.947   5.258   2.762
 4661TIP3    H113989   3.882   5.326   2.777
 4661TIP3    H213990   3.982   5.277   2.675
 4662TIP3   OH213991   3.634   0.079   3.086
 4662TIP3    H113992   3.552   0.104   3.045
 4662TIP3    H213993   3.664   0.003   3.037
 4663TIP3   OH213994   3.568   2.671   4.846
 4663TIP3    H113995   3.511   2.743   4.873
 4663TIP3    H213996   3.599   2.633   4.928
 4664TIP3   OH213997   2.143   5.706   0.286
 4664TIP3    H113998   2.084   5.717   0.360
 4664TIP3    H213999   2.210   5.774   0.298
 4665TIP3   OH214000   0.223   2.724   0.065
 4665TIP3    H114001   0.275   2.718  -0.015
 4665TIP3    H214002   0.288   2.732   0.135
 4666TIP3   OH214003   6.259   3.679   4.792
 4666TIP3    H114004   6.220   3.600   4.756
 4666TIP3    H214005   6.296   3.724   4.716
 4667TIP3   OH214006   5.753  -0.045   5.022
 4667TIP3    H114007   5.731  -0.023   4.931
 4667TIP3    H214008   5.805   0.029   5.053
 4668TIP3   OH214009   0.472   5.742   4.889
 4668TIP3    H114010   0.428   5.728   4.805
 4668TIP3    H214011   0.526   5.664   4.901
 4669TIP3   OH214012   5.337   3.485   4.238
 4669TIP3    H114013   5.399   3.440   4.296
 4669TIP3    H214014   5.353   3.445   4.152
 4670TIP3   OH214015   3.465   5.209   3.317
 4670TIP3    H114016   3.551   5.213   3.274
 4670TIP3    H214017   3.412   5.275   3.270
 4671TIP3   OH214018   3.850   3.819   2.508
 4671TIP3    H114019   3.941   3.839   2.529
 4671TIP3    H214020   3.850   3.726   2.484
 4672TIP3   OH214021   5.497   2.350   2.027
 4672TIP3    H114022   5.495   2.352   1.931
 4672TIP3    H214023   5.498   2.257   2.049
 4673TIP3   OH214024   3.287   3.744   0.875
 4673TIP3    H114025   3.192   3.730   0.882
 4673TIP3    H214026   3.323   3.705   0.954
 4674TIP3   OH214027   4.660   4.420   5.119
 4674TIP3    H114028   4.654   4.336   5.075
 4674TIP3    H214029   4.593   4.474   5.079
 4675TIP3   OH214030   1.854   4.831   2.562
 4675TIP3    H114031   1.933   4.823   2.616
 4675TIP3    H214032   1.782   4.820   2.624
 4676TIP3   OH214033   4.096   1.972   0.271
 4676TIP3    H114034   4.041   1.943   0.343
 4676TIP3    H214035   4.082   2.067   0.267
 4677TIP3   OH214036   0.733   4.089   0.390
 4677TIP3    H114037   0.693   4.025   0.331
 4677TIP3    H214038   0.663   4.152   0.408
 4678TIP3   OH214039   4.160   0.645   4.325
 4678TIP3    H114040   4.068   0.664   4.305
 4678TIP3    H214041   4.205   0.727   4.306
 4679TIP3   OH214042   5.314   2.494   0.853
 4679TIP3    H114043   5.222   2.503   0.827
 4679TIP3    H214044   5.348   2.584   0.850
 4680TIP3   OH214045   0.326   2.723   3.208
 4680TIP3    H114046   0.397   2.782   3.233
 4680TIP3    H214047   0.246   2.770   3.231
 4681TIP3   OH214048   2.235   5.773   3.698
 4681TIP3    H114049   2.205   5.840   3.759
 4681TIP3    H214050   2.259   5.822   3.619
 4682TIP3   OH214051   5.189   4.006   3.612
 4682TIP3    H114052   5.239   3.925   3.625
 4682TIP3    H214053   5.138   4.016   3.693
 4683TIP3   OH214054   4.265   4.329   4.937
 4683TIP3    H114055   4.251   4.422   4.953
 4683TIP3    H214056   4.196   4.305   4.875
 4684TIP3   OH214057   3.687   0.641   0.823
 4684TIP3    H114058   3.599   0.638   0.787
 4684TIP3    H214059   3.733   0.568   0.782
 4685TIP3   OH214060   4.059   2.655   5.124
 4685TIP3    H114061   3.993   2.601   5.167
 4685TIP3    H214062   4.012   2.698   5.053
 4686TIP3   OH214063   5.335   5.183   0.097
 4686TIP3    H114064   5.256   5.182   0.151
 4686TIP3    H214065   5.407   5.167   0.158
 4687TIP3   OH214066   1.617   1.972   4.161
 4687TIP3    H114067   1.618   2.059   4.200
 4687TIP3    H214068   1.604   1.913   4.236
 4688TIP3   OH214069   3.363   4.511   1.549
 4688TIP3    H114070   3.280   4.537   1.510
 4688TIP3    H214071   3.417   4.484   1.475
 4689TIP3   OH214072   0.674   2.500   2.317
 4689TIP3    H114073   0.712   2.442   2.383
 4689TIP3    H214074   0.676   2.449   2.236
 4690TIP3   OH214075   1.481   1.850   2.075
 4690TIP3    H114076   1.448   1.766   2.107
 4690TIP3    H214077   1.486   1.905   2.153
 4691TIP3   OH214078   1.510   3.111   1.535
 4691TIP3    H114079   1.468   3.027   1.518
 4691TIP3    H214080   1.586   3.112   1.477
 4692TIP3   OH214081   2.524   3.715   3.263
 4692TIP3    H114082   2.619   3.730   3.262
 4692TIP3    H214083   2.486   3.796   3.229
 4693TIP3   OH214084   1.113   1.656   3.785
 4693TIP3    H114085   1.049   1.595   3.750
 4693TIP3    H214086   1.184   1.600   3.817
 4694TIP3   OH214087   4.616   1.895   4.163
 4694TIP3    H114088   4.654   1.948   4.093
 4694TIP3    H214089   4.685   1.888   4.229
 4695TIP3   OH214090   4.895   0.940   4.149
 4695TIP3    H114091   4.953   0.864   4.151
 4695TIP3    H214092   4.882   0.957   4.056
 4696TIP3   OH214093   4.178   2.603   0.707
 4696TIP3    H114094   4.142   2.557   0.631
 4696TIP3    H214095   4.239   2.667   0.670
 4697TIP3   OH214096   0.827   1.717   4.435
 4697TIP3    H114097   0.805   1.808   4.414
 4697TIP3    H214098   0.922   1.713   4.424
 4698TIP3   OH214099   2.508   5.583   1.378
 4698TIP3    H114100   2.552   5.667   1.382
 4698TIP3    H214101   2.494   5.557   1.469
 4699TIP3   OH214102   2.023   1.474   1.504
 4699TIP3    H114103   1.952   1.455   1.565
 4699TIP3    H214104   2.092   1.412   1.529
 4700TIP3   OH214105   5.555   1.626   3.786
 4700TIP3    H114106   5.616   1.685   3.829
 4700TIP3    H214107   5.476   1.678   3.771
 4701TIP3   OH214108   2.143   1.031   2.604
 4701TIP3    H114109   2.091   0.952   2.619
 4701TIP3    H214110   2.078   1.101   2.599
 4702TIP3   OH214111   6.154   0.632   2.767
 4702TIP3    H114112   6.224   0.596   2.713
 4702TIP3    H214113   6.089   0.561   2.772
 4703TIP3   OH214114   0.315   0.092   2.735
 4703TIP3    H114115   0.278   0.023   2.680
 4703TIP3    H214116   0.385   0.049   2.784
 4704TIP3   OH214117   3.932   0.436   0.461
 4704TIP3    H114118   3.993   0.382   0.411
 4704TIP3    H214119   3.846   0.395   0.448
 4705TIP3   OH214120   3.593   2.373   3.367
 4705TIP3    H114121   3.628   2.355   3.279
 4705TIP3    H214122   3.633   2.456   3.392
 4706TIP3   OH214123   3.604   3.871   4.217
 4706TIP3    H114124   3.581   3.834   4.302
 4706TIP3    H214125   3.661   3.945   4.237
 4707TIP3   OH214126   6.275   4.821   3.288
 4707TIP3    H114127   6.198   4.813   3.344
 4707TIP3    H214128   6.271   4.910   3.254
 4708TIP3   OH214129   1.114   0.383   0.453
 4708TIP3    H114130   1.176   0.435   0.504
 4708TIP3    H214131   1.043   0.444   0.434
 4709TIP3   OH214132   0.713   5.835   0.726
 4709TIP3    H114133   0.697   5.748   0.761
 4709TIP3    H214134   0.654   5.843   0.651
 4710TIP3   OH214135   3.253   4.343   4.816
 4710TIP3    H114136   3.237   4.376   4.904
 4710TIP3    H214137   3.346   4.320   4.815
 4711TIP3   OH214138   1.938   5.099   3.094
 4711TIP3    H114139   2.015   5.047   3.116
 4711TIP3    H214140   1.955   5.132   3.006
 4712TIP3   OH214141   5.997   4.724   3.861
 4712TIP3    H114142   5.941   4.717   3.783
 4712TIP3    H214143   5.947   4.678   3.929
 4713TIP3   OH214144   5.264   0.522   3.085
 4713TIP3    H114145   5.257   0.480   2.999
 4713TIP3    H214146   5.266   0.449   3.147
 4714TIP3   OH214147   0.068  -0.052   0.035
 4714TIP3    H114148   0.030   0.024  -0.008
 4714TIP3    H214149   0.019  -0.061   0.117
 4715TIP3   OH214150   5.794   5.675   2.863
 4715TIP3    H114151   5.702   5.653   2.875
 4715TIP3    H214152   5.805   5.683   2.769
 4716TIP3   OH214153   6.203   4.467   1.799
 4716TIP3    H114154   6.122   4.443   1.843
 4716TIP3    H214155   6.175   4.495   1.712
 4717TIP3   OH214156   1.989   1.941   1.008
 4717TIP3    H114157   1.934   1.863   1.014
 4717TIP3    H214158   2.076   1.910   1.035
 4718TIP3   OH214159   0.795   1.387   1.652
 4718TIP3    H114160   0.742   1.308   1.659
 4718TIP3    H214161   0.804   1.402   1.558
 4719TIP3   OH214162   1.698   5.354   3.417
 4719TIP3    H114163   1.671   5.434   3.462
 4719TIP3    H214164   1.623   5.296   3.424
 4720TIP3   OH214165   0.273   6.002   4.654
 4720TIP3    H114166   0.359   6.015   4.694
 4720TIP3    H214167   0.265   5.907   4.647
 4721TIP3   OH214168   3.216   1.292   2.437
 4721TIP3    H114169   3.216   1.371   2.492
 4721TIP3    H214170   3.161   1.230   2.484
 4722TIP3   OH214171   5.130   2.712   1.235
 4722TIP3    H114172   5.149   2.740   1.146
 4722TIP3    H214173   5.055   2.766   1.262
 4723TIP3   OH214174   2.228   0.409   2.438
 4723TIP3    H114175   2.296   0.420   2.371
 4723TIP3    H214176   2.251   0.474   2.505
 4724TIP3   OH214177   5.282   0.021   4.817
 4724TIP3    H114178   5.205   0.075   4.801
 4724TIP3    H214179   5.248  -0.063   4.847
 4725TIP3   OH214180   5.105   3.882   1.809
 4725TIP3    H114181   5.185   3.865   1.758
 4725TIP3    H214182   5.038   3.827   1.768
 4726TIP3   OH214183   1.212   2.029   2.266
 4726TIP3    H114184   1.303   2.027   2.295
 4726TIP3    H214185   1.175   2.107   2.307
 4727TIP3   OH214186   0.123   4.625   3.238
 4727TIP3    H114187   0.066   4.701   3.251
 4727TIP3    H214188   0.211   4.657   3.258
 4728TIP3   OH214189   2.592   5.656   4.607
 4728TIP3    H114190   2.552   5.718   4.669
 4728TIP3    H214191   2.682   5.645   4.638
 4729TIP3   OH214192   1.645   3.014   0.746
 4729TIP3    H114193   1.693   2.972   0.817
 4729TIP3    H214194   1.553   2.991   0.762
 4730TIP3   OH214195   4.700   1.426   4.843
 4730TIP3    H114196   4.718   1.344   4.798
 4730TIP3    H214197   4.786   1.467   4.854
 4731TIP3   OH214198   5.971   3.378   1.352
 4731TIP3    H114199   6.008   3.295   1.322
 4731TIP3    H214200   5.884   3.381   1.313
 4732TIP3   OH214201   1.886   2.146   0.822
 4732TIP3    H114202   1.943   2.220   0.800
 4732TIP3    H214203   1.940   2.092   0.880
 4733TIP3   OH214204   0.935   3.125   3.135
 4733TIP3    H114205   0.999   3.070   3.090
 4733TIP3    H214206   0.911   3.191   3.070
 4734TIP3   OH214207   3.966   4.808   3.953
 4734TIP3    H114208   3.916   4.788   3.874
 4734TIP3    H214209   3.913   4.772   4.025
 4735TIP3   OH214210   2.809   2.410   3.534
 4735TIP3    H114211   2.839   2.494   3.567
 4735TIP3    H214212   2.881   2.378   3.481
 4736TIP3   OH214213   0.685   0.632   4.965
 4736TIP3    H114214   0.627   0.574   5.014
 4736TIP3    H214215   0.710   0.700   5.028
 4737TIP3   OH214216   4.729   2.116   3.605
 4737TIP3    H114217   4.650   2.150   3.647
 4737TIP3    H214218   4.766   2.190   3.558
 4738TIP3   OH214219   5.501   1.416   0.494
 4738TIP3    H114220   5.578   1.401   0.439
 4738TIP3    H214221   5.514   1.504   0.530
 4739TIP3   OH214222   2.101   0.492   4.479
 4739TIP3    H114223   2.126   0.399   4.482
 4739TIP3    H214224   2.103   0.520   4.571
 4740TIP3   OH214225   5.413   2.658   2.461
 4740TIP3    H114226   5.492   2.702   2.493
 4740TIP3    H214227   5.439   2.567   2.451
 4741TIP3   OH214228   1.791   1.589   2.742
 4741TIP3    H114229   1.797   1.654   2.672
 4741TIP3    H214230   1.873   1.598   2.790
 4742TIP3   OH214231   6.357   4.621   4.146
 4742TIP3    H114232   6.373   4.713   4.128
 4742TIP3    H214233   6.269   4.604   4.111
 4743TIP3   OH214234   1.602   4.084   0.569
 4743TIP3    H114235   1.534   4.148   0.547
 4743TIP3    H214236   1.650   4.072   0.487
 4744TIP3   OH214237   4.266   0.985   1.416
 4744TIP3    H114238   4.276   0.966   1.509
 4744TIP3    H214239   4.278   0.901   1.372
 4745TIP3   OH214240   3.508   0.500   0.219
 4745TIP3    H114241   3.579   0.494   0.155
 4745TIP3    H214242   3.440   0.441   0.186
 4746TIP3   OH214243   0.146   2.994   2.531
 4746TIP3    H114244   0.148   2.982   2.626
 4746TIP3    H214245   0.180   3.082   2.517
 4747TIP3   OH214246   6.163   3.573   1.312
 4747TIP3    H114247   6.087   3.516   1.326
 4747TIP3    H214248   6.237   3.513   1.308
 4748TIP3   OH214249   2.357   3.477   1.006
 4748TIP3    H114250   2.359   3.565   0.969
 4748TIP3    H214251   2.280   3.476   1.062
 4749TIP3   OH214252   5.985   0.321   4.168
 4749TIP3    H114253   6.049   0.391   4.154
 4749TIP3    H214254   5.946   0.307   4.082
 4750TIP3   OH214255   4.421   0.445   3.468
 4750TIP3    H114256   4.481   0.429   3.396
 4750TIP3    H214257   4.415   0.541   3.473
 4751TIP3   OH214258   5.465   2.088   3.336
 4751TIP3    H114259   5.371   2.069   3.334
 4751TIP3    H214260   5.475   2.168   3.284
 4752TIP3   OH214261   4.842   4.831   2.899
 4752TIP3    H114262   4.865   4.891   2.969
 4752TIP3    H214263   4.748   4.816   2.910
 4753TIP3   OH214264   1.524   4.671   1.843
 4753TIP3    H114265   1.553   4.597   1.791
 4753TIP3    H214266   1.525   4.745   1.782
 4754TIP3   OH214267   3.719   4.632   0.233
 4754TIP3    H114268   3.640   4.683   0.215
 4754TIP3    H214269   3.745   4.596   0.148
 4755TIP3   OH214270   0.280   4.582   0.142
 4755TIP3    H114271   0.323   4.508   0.100
 4755TIP3    H214272   0.204   4.600   0.087
 4756TIP3   OH214273   2.492   5.240   3.560
 4756TIP3    H114274   2.584   5.217   3.551
 4756TIP3    H214275   2.468   5.213   3.648
 4757TIP3   OH214276   2.640   0.637   2.212
 4757TIP3    H114277   2.623   0.583   2.134
 4757TIP3    H214278   2.702   0.703   2.181
 4758TIP3   OH214279   4.051   3.456   3.437
 4758TIP3    H114280   3.991   3.522   3.403
 4758TIP3    H214281   4.117   3.446   3.368
 4759TIP3   OH214282   0.062   4.023   4.659
 4759TIP3    H114283   0.127   3.996   4.595
 4759TIP3    H214284   0.091   3.984   4.741
 4760TIP3   OH214285   0.611   2.368   1.075
 4760TIP3    H114286   0.576   2.298   1.131
 4760TIP3    H214287   0.666   2.322   1.011
 4761TIP3   OH214288   5.610   4.909   4.547
 4761TIP3    H114289   5.588   4.816   4.541
 4761TIP3    H214290   5.539   4.947   4.599
 4762TIP3   OH214291   3.699   0.807   2.977
 4762TIP3    H114292   3.661   0.731   2.933
 4762TIP3    H214293   3.643   0.880   2.951
 4763TIP3   OH214294   1.218   0.167   0.283
 4763TIP3    H114295   1.194   0.248   0.328
 4763TIP3    H214296   1.136   0.118   0.277
 4764TIP3   OH214297   1.646   5.113   1.346
 4764TIP3    H114298   1.559   5.128   1.383
 4764TIP3    H214299   1.697   5.077   1.418
 4765TIP3   OH214300   2.207   5.465   0.396
 4765TIP3    H114301   2.195   5.545   0.345
 4765TIP3    H214302   2.269   5.414   0.345
 4766TIP3   OH214303   3.879   3.128   3.554
 4766TIP3    H114304   3.901   3.154   3.465
 4766TIP3    H214305   3.819   3.197   3.584
 4767TIP3   OH214306   2.646   4.643   3.170
 4767TIP3    H114307   2.552   4.631   3.185
 4767TIP3    H214308   2.670   4.572   3.110
 4768TIP3   OH214309   1.124   1.782   0.748
 4768TIP3    H114310   1.177   1.836   0.689
 4768TIP3    H214311   1.164   1.796   0.834
 4769TIP3   OH214312   6.233   5.666   4.811
 4769TIP3    H114313   6.244   5.579   4.849
 4769TIP3    H214314   6.138   5.677   4.803
 4770TIP3   OH214315   5.818   0.114   2.533
 4770TIP3    H114316   5.900   0.134   2.488
 4770TIP3    H214317   5.810   0.019   2.529
 4771TIP3   OH214318   4.441   1.861   0.039
 4771TIP3    H114319   4.468   1.797  -0.026
 4771TIP3    H214320   4.346   1.858   0.039
 4772TIP3   OH214321   0.032   5.441   3.000
 4772TIP3    H114322   0.031   5.501   2.926
 4772TIP3    H214323   0.106   5.469   3.053
 4773TIP3   OH214324   4.534   1.124   1.949
 4773TIP3    H114325   4.567   1.039   1.980
 4773TIP3    H214326   4.473   1.152   2.017
 4774TIP3   OH214327   2.875   3.907   2.922
 4774TIP3    H114328   2.940   3.921   2.991
 4774TIP3    H214329   2.904   3.963   2.850
 4775TIP3   OH214330   1.813   3.885   1.452
 4775TIP3    H114331   1.876   3.849   1.390
 4775TIP3    H214332   1.728   3.875   1.409
 4776TIP3   OH214333   4.183   1.177   0.801
 4776TIP3    H114334   4.113   1.241   0.813
 4776TIP3    H214335   4.216   1.160   0.889
 4777TIP3   OH214336   5.818   5.949   3.267
 4777TIP3    H114337   5.797   6.038   3.241
 4777TIP3    H214338   5.816   5.899   3.186
 4778TIP3   OH214339   5.388   2.707   4.166
 4778TIP3    H114340   5.423   2.629   4.124
 4778TIP3    H214341   5.362   2.677   4.253
 4779TIP3   OH214342   3.852   3.166   2.521
 4779TIP3    H114343   3.862   3.080   2.561
 4779TIP3    H214344   3.800   3.215   2.584
 4780TIP3   OH214345   2.355   4.815   4.354
 4780TIP3    H114346   2.413   4.739   4.356
 4780TIP3    H214347   2.288   4.793   4.288
 4781TIP3   OH214348   5.603   4.386   3.228
 4781TIP3    H114349   5.535   4.428   3.175
 4781TIP3    H214350   5.580   4.293   3.228
 4782TIP3   OH214351   1.769   2.110   0.209
 4782TIP3    H114352   1.757   2.183   0.270
 4782TIP3    H214353   1.738   2.144   0.125
 4783TIP3   OH214354   2.422   4.495   0.307
 4783TIP3    H114355   2.454   4.585   0.317
 4783TIP3    H214356   2.413   4.483   0.213
 4784TIP3   OH214357   0.450   4.988   4.472
 4784TIP3    H114358   0.482   4.899   4.454
 4784TIP3    H214359   0.387   5.005   4.401
 4785TIP3   OH214360   2.532   1.187   0.555
 4785TIP3    H114361   2.541   1.267   0.503
 4785TIP3    H214362   2.597   1.197   0.626
 4786TIP3   OH214363   4.449   5.429   0.839
 4786TIP3    H114364   4.433   5.505   0.895
 4786TIP3    H214365   4.528   5.389   0.876
 4787TIP3   OH214366   1.977   0.102   3.048
 4787TIP3    H114367   2.028   0.029   3.084
 4787TIP3    H214368   1.959   0.158   3.123
 4788TIP3   OH214369   4.909   1.107   1.909
 4788TIP3    H114370   4.858   1.148   1.839
 4788TIP3    H214371   4.920   1.176   1.974
 4789TIP3   OH214372   3.881   4.703   1.679
 4789TIP3    H114373   3.889   4.792   1.645
 4789TIP3    H214374   3.796   4.673   1.648
 4790TIP3   OH214375   3.537   0.807   1.769
 4790TIP3    H114376   3.573   0.895   1.761
 4790TIP3    H214377   3.551   0.784   1.861
 4791TIP3   OH214378   1.005   4.471   0.700
 4791TIP3    H114379   0.954   4.488   0.621
 4791TIP3    H214380   0.956   4.514   0.770
 4792TIP3   OH214381   1.830   4.336   0.397
 4792TIP3    H114382   1.891   4.392   0.445
 4792TIP3    H214383   1.878   4.255   0.382
 4793TIP3   OH214384   2.175   4.457   1.655
 4793TIP3    H114385   2.227   4.399   1.599
 4793TIP3    H214386   2.239   4.513   1.698
 4794TIP3   OH214387   5.390   3.906   3.287
 4794TIP3    H114388   5.466   3.867   3.244
 4794TIP3    H214389   5.356   3.837   3.344
 4795TIP3   OH214390   4.582   2.224   0.580
 4795TIP3    H114391   4.492   2.190   0.576
 4795TIP3    H214392   4.573   2.317   0.560
 4796TIP3   OH214393   4.801   0.224   0.512
 4796TIP3    H114394   4.878   0.230   0.569
 4796TIP3    H214395   4.791   0.131   0.495
 4797TIP3   OH214396   2.493   4.561   4.388
 4797TIP3    H114397   2.513   4.493   4.323
 4797TIP3    H214398   2.413   4.530   4.430
 4798TIP3   OH214399   1.864   3.532   0.972
 4798TIP3    H114400   1.792   3.516   0.911
 4798TIP3    H214401   1.925   3.587   0.924
 4799TIP3   OH214402   2.003   2.000   2.537
 4799TIP3    H114403   1.983   2.065   2.604
 4799TIP3    H214404   2.011   2.050   2.456
 4800TIP3   OH214405   3.950   4.767   3.023
 4800TIP3    H114406   4.039   4.734   3.011
 4800TIP3    H214407   3.904   4.740   2.943
 4801TIP3   OH214408   3.293   1.710   4.573
 4801TIP3    H114409   3.347   1.752   4.506
 4801TIP3    H214410   3.352   1.647   4.615
 4802TIP3   OH214411   5.290   3.830   0.878
 4802TIP3    H114412   5.252   3.905   0.924
 4802TIP3    H214413   5.301   3.763   0.946
 4803TIP3   OH214414   4.327   5.388   1.654
 4803TIP3    H114415   4.300   5.321   1.717
 4803TIP3    H214416   4.423   5.390   1.661
 4804TIP3   OH214417   1.842   3.533   3.155
 4804TIP3    H114418   1.815   3.586   3.081
 4804TIP3    H214419   1.789   3.453   3.148
 4805TIP3   OH214420   3.552   0.506   2.386
 4805TIP3    H114421   3.458   0.518   2.371
 4805TIP3    H214422   3.569   0.416   2.358
 4806TIP3   OH214423   0.814   1.413   3.889
 4806TIP3    H114424   0.755   1.366   3.947
 4806TIP3    H214425   0.901   1.396   3.925
 4807TIP3   OH214426   3.476   4.862   3.669
 4807TIP3    H114427   3.383   4.866   3.691
 4807TIP3    H214428   3.485   4.921   3.593
 4808TIP3   OH214429   0.958   2.574   2.336
 4808TIP3    H114430   0.872   2.598   2.302
 4808TIP3    H214431   0.954   2.599   2.429
 4809TIP3   OH214432   5.179   1.569   2.634
 4809TIP3    H114433   5.169   1.663   2.647
 4809TIP3    H214434   5.093   1.533   2.654
 4810TIP3   OH214435   4.220   2.503   4.334
 4810TIP3    H114436   4.316   2.505   4.335
 4810TIP3    H214437   4.196   2.453   4.412
 4811TIP3   OH214438   0.137   3.590   1.711
 4811TIP3    H114439   0.169   3.612   1.623
 4811TIP3    H214440   0.162   3.499   1.723
 4812TIP3   OH214441   3.109   5.539   0.545
 4812TIP3    H114442   3.065   5.459   0.516
 4812TIP3    H214443   3.094   5.602   0.475
 4813TIP3   OH214444   4.117   4.231   3.522
 4813TIP3    H114445   4.056   4.261   3.589
 4813TIP3    H214446   4.132   4.139   3.542
 4814TIP3   OH214447   4.712   2.585   3.253
 4814TIP3    H114448   4.676   2.666   3.218
 4814TIP3    H214449   4.777   2.558   3.187
 4815TIP3   OH214450   5.897   3.914   1.397
 4815TIP3    H114451   5.882   3.879   1.309
 4815TIP3    H214452   5.861   4.002   1.394
 4816TIP3   OH214453   2.248   3.438   4.051
 4816TIP3    H114454   2.319   3.383   4.083
 4816TIP3    H214455   2.270   3.456   3.960
 4817TIP3   OH214456   3.906   0.383   4.024
 4817TIP3    H114457   3.880   0.448   4.090
 4817TIP3    H214458   3.857   0.407   3.946
 4818TIP3   OH214459   1.474   0.268   1.384
 4818TIP3    H114460   1.436   0.196   1.434
 4818TIP3    H214461   1.556   0.234   1.350
 4819TIP3   OH214462   3.034   1.701   4.024
 4819TIP3    H114463   3.049   1.607   4.012
 4819TIP3    H214464   3.050   1.738   3.937
 4820TIP3   OH214465   0.512   2.221   3.343
 4820TIP3    H114466   0.439   2.269   3.382
 4820TIP3    H214467   0.502   2.131   3.374
 4821TIP3   OH214468   4.243   0.401   3.664
 4821TIP3    H114469   4.294   0.407   3.583
 4821TIP3    H214470   4.300   0.437   3.732
 4822TIP3   OH214471   5.507   0.885   0.710
 4822TIP3    H114472   5.521   0.861   0.802
 4822TIP3    H214473   5.567   0.828   0.661
 4823TIP3   OH214474   2.694   4.105   4.507
 4823TIP3    H114475   2.651   4.093   4.422
 4823TIP3    H214476   2.759   4.035   4.510
 4824TIP3   OH214477   6.189   2.781   0.604
 4824TIP3    H114478   6.255   2.822   0.548
 4824TIP3    H214479   6.137   2.854   0.637
 4825TIP3   OH214480   0.594   3.713   1.119
 4825TIP3    H114481   0.621   3.745   1.033
 4825TIP3    H214482   0.604   3.788   1.178
 4826TIP3   OH214483   4.616   3.023   1.682
 4826TIP3    H114484   4.682   2.989   1.621
 4826TIP3    H214485   4.534   3.019   1.633
 4827TIP3   OH214486   0.978   1.048   3.296
 4827TIP3    H114487   0.990   1.064   3.202
 4827TIP3    H214488   1.048   0.987   3.319
 4828TIP3   OH214489   0.993  -0.018   3.684
 4828TIP3    H114490   1.009   0.062   3.634
 4828TIP3    H214491   1.080  -0.053   3.701
 4829TIP3   OH214492   4.238   3.655   0.358
 4829TIP3    H114493   4.153   3.657   0.313
 4829TIP3    H214494   4.286   3.729   0.320
 4830TIP3   OH214495   3.066   3.172   1.001
 4830TIP3    H114496   3.017   3.253   0.985
 4830TIP3    H214497   3.148   3.183   0.953
 4831TIP3   OH214498   6.181   4.057   4.475
 4831TIP3    H114499   6.233   4.045   4.554
 4831TIP3    H214500   6.172   4.152   4.466
 4832TIP3   OH214501   4.501   4.093   0.836
 4832TIP3    H114502   4.451   4.012   0.848
 4832TIP3    H214503   4.438   4.162   0.856
 4833TIP3   OH214504   5.857   1.017   0.690
 4833TIP3    H114505   5.804   0.945   0.655
 4833TIP3    H214506   5.878   1.070   0.614
 4834TIP3   OH214507   1.402   1.365   0.456
 4834TIP3    H114508   1.420   1.336   0.367
 4834TIP3    H214509   1.487   1.362   0.500
 4835TIP3   OH214510   2.817   1.131   2.431
 4835TIP3    H114511   2.736   1.080   2.431
 4835TIP3    H214512   2.787   1.222   2.423
 4836TIP3   OH214513   0.509   5.188   0.049
 4836TIP3    H114514   0.481   5.100   0.023
 4836TIP3    H214515   0.446   5.247   0.008
 4837TIP3   OH214516   3.871   0.257   2.504
 4837TIP3    H114517   3.931   0.240   2.576
 4837TIP3    H214518   3.804   0.315   2.540
 4838TIP3   OH214519   0.820   2.138   3.852
 4838TIP3    H114520   0.877   2.063   3.835
 4838TIP3    H214521   0.845   2.202   3.786
 4839TIP3   OH214522   5.657   5.768   4.687
 4839TIP3    H114523   5.607   5.811   4.756
 4839TIP3    H214524   5.618   5.800   4.606
 4840TIP3   OH214525   3.565   3.155   2.552
 4840TIP3    H114526   3.607   3.200   2.625
 4840TIP3    H214527   3.583   3.062   2.568
 4841TIP3   OH214528   1.195   4.130   2.442
 4841TIP3    H114529   1.252   4.064   2.402
 4841TIP3    H214530   1.124   4.081   2.482
 4842TIP3   OH214531   2.304   5.721   1.187
 4842TIP3    H114532   2.258   5.639   1.204
 4842TIP3    H214533   2.355   5.703   1.107
 4843TIP3   OH214534   4.025   2.915   2.547
 4843TIP3    H114535   3.936   2.891   2.519
 4843TIP3    H214536   4.071   2.832   2.553
 4844TIP3   OH214537   3.217   5.073   1.360
 4844TIP3    H114538   3.131   5.079   1.317
 4844TIP3    H214539   3.248   5.164   1.363
 4845TIP3   OH214540   2.067   5.550   3.745
 4845TIP3    H114541   2.131   5.619   3.764
 4845TIP3    H214542   2.114   5.487   3.692
 4846TIP3   OH214543   3.301   5.443   0.287
 4846TIP3    H114544   3.215   5.478   0.263
 4846TIP3    H214545   3.282   5.361   0.331
 4847TIP3   OH214546   1.599   2.156   4.341
 4847TIP3    H114547   1.548   2.234   4.361
 4847TIP3    H214548   1.594   2.103   4.420
 4848TIP3   OH214549   5.253   1.049   4.691
 4848TIP3    H114550   5.189   1.088   4.750
 4848TIP3    H214551   5.218   0.963   4.670
 4849TIP3   OH214552   2.896   4.886   2.826
 4849TIP3    H114553   2.948   4.853   2.752
 4849TIP3    H214554   2.887   4.811   2.884
 4850TIP3   OH214555   1.036   4.343   2.806
 4850TIP3    H114556   0.998   4.380   2.727
 4850TIP3    H214557   1.036   4.248   2.790
 4851TIP3   OH214558   1.641   2.517   3.774
 4851TIP3    H114559   1.681   2.434   3.749
 4851TIP3    H214560   1.586   2.495   3.850
 4852TIP3   OH214561   6.282   3.160   1.477
 4852TIP3    H114562   6.305   3.250   1.456
 4852TIP3    H214563   6.208   3.140   1.419
 4853TIP3   OH214564   1.354   4.448   0.296
 4853TIP3    H114565   1.332   4.539   0.317
 4853TIP3    H214566   1.276   4.415   0.251
 4854TIP3   OH214567   4.498   5.340   2.195
 4854TIP3    H114568   4.460   5.308   2.113
 4854TIP3    H214569   4.452   5.423   2.211
 4855TIP3   OH214570   3.648   0.018   1.776
 4855TIP3    H114571   3.578  -0.043   1.798
 4855TIP3    H214572   3.672  -0.004   1.686
 4856TIP3   OH214573   3.901   2.117   2.999
 4856TIP3    H114574   3.989   2.137   2.966
 4856TIP3    H214575   3.854   2.083   2.924
 4857TIP3   OH214576   5.134   0.628   2.626
 4857TIP3    H114577   5.118   0.613   2.533
 4857TIP3    H214578   5.177   0.713   2.630
 4858TIP3   OH214579   3.860   1.186   0.101
 4858TIP3    H114580   3.945   1.209   0.062
 4858TIP3    H214581   3.865   1.220   0.190
 4859TIP3   OH214582   2.494   0.391   2.730
 4859TIP3    H114583   2.401   0.411   2.734
 4859TIP3    H214584   2.537   0.473   2.755
 4860TIP3   OH214585   5.743   5.369   2.815
 4860TIP3    H114586   5.737   5.359   2.720
 4860TIP3    H214587   5.743   5.463   2.830
 4861TIP3   OH214588   2.653   1.644   0.474
 4861TIP3    H114589   2.655   1.739   0.465
 4861TIP3    H214590   2.584   1.627   0.538
 4862TIP3   OH214591   4.039   5.791   3.112
 4862TIP3    H114592   4.097   5.865   3.131
 4862TIP3    H214593   4.089   5.714   3.139
 4863TIP3   OH214594   0.521   4.897   2.769
 4863TIP3    H114595   0.488   4.852   2.691
 4863TIP3    H214596   0.546   4.826   2.829
 4864TIP3   OH214597   3.907   4.013   4.983
 4864TIP3    H114598   3.967   4.088   4.993
 4864TIP3    H214599   3.965   3.938   4.969
 4865TIP3   OH214600   4.664   1.890   4.786
 4865TIP3    H114601   4.701   1.845   4.862
 4865TIP3    H214602   4.700   1.844   4.711
 4866TIP3   OH214603   5.997   3.188   3.039
 4866TIP3    H114604   5.903   3.175   3.025
 4866TIP3    H214605   6.015   3.141   3.121
 4867TIP3   OH214606   0.818   1.536   0.115
 4867TIP3    H114607   0.727   1.534   0.085
 4867TIP3    H214608   0.840   1.444   0.131
 4868TIP3   OH214609   4.233   0.716   3.196
 4868TIP3    H114610   4.169   0.684   3.258
 4868TIP3    H214611   4.276   0.637   3.163
 4869TIP3   OH214612   5.542   0.454   1.995
 4869TIP3    H114613   5.562   0.466   1.902
 4869TIP3    H214614   5.462   0.504   2.009
 4870TIP3   OH214615   0.922   5.546   1.303
 4870TIP3    H114616   0.928   5.636   1.272
 4870TIP3    H214617   0.828   5.527   1.303
 4871TIP3   OH214618   4.773   2.031   0.247
 4871TIP3    H114619   4.726   2.084   0.183
 4871TIP3    H214620   4.709   2.015   0.317
 4872TIP3   OH214621   0.001   2.452   0.376
 4872TIP3    H114622   0.040   2.538   0.392
 4872TIP3    H214623   0.017   2.403   0.456
 4873TIP3   OH214624   4.695   4.924   1.918
 4873TIP3    H114625   4.614   4.899   1.963
 4873TIP3    H214626   4.742   4.978   1.982
 4874TIP3   OH214627   4.837   2.752   1.597
 4874TIP3    H114628   4.810   2.676   1.649
 4874TIP3    H214629   4.870   2.814   1.662
 4875TIP3   OH214630   4.569   3.421   4.546
 4875TIP3    H114631   4.607   3.394   4.462
 4875TIP3    H214632   4.636   3.397   4.611
 4876TIP3   OH214633   1.734   0.873   2.609
 4876TIP3    H114634   1.646   0.908   2.593
 4876TIP3    H214635   1.753   0.820   2.532
 4877TIP3   OH214636   2.969   0.233   3.016
 4877TIP3    H114637   2.980   0.179   3.094
 4877TIP3    H214638   3.059   0.248   2.984
 4878TIP3   OH214639   3.689   0.145   0.178
 4878TIP3    H114640   3.665   0.056   0.151
 4878TIP3    H214641   3.608   0.182   0.214
 4879TIP3   OH214642   3.467   3.994  -0.020
 4879TIP3    H114643   3.510   4.013   0.063
 4879TIP3    H214644   3.459   4.079  -0.063
 4880TIP3   OH214645   5.081   1.454   3.483
 4880TIP3    H114646   5.162   1.404   3.466
 4880TIP3    H214647   5.058   1.432   3.573
 4881TIP3   OH214648   2.340   5.413   2.699
 4881TIP3    H114649   2.308   5.490   2.746
 4881TIP3    H214650   2.307   5.424   2.610
 4882TIP3   OH214651   3.669   0.793   1.273
 4882TIP3    H114652   3.742   0.746   1.315
 4882TIP3    H214653   3.693   0.796   1.181
 4883TIP3   OH214654   0.459   4.901   3.750
 4883TIP3    H114655   0.534   4.912   3.808
 4883TIP3    H214656   0.494   4.854   3.674
 4884TIP3   OH214657   0.678   5.665   2.559
 4884TIP3    H114658   0.716   5.601   2.499
 4884TIP3    H214659   0.740   5.670   2.632
 4885TIP3   OH214660   3.804   3.556   2.448
 4885TIP3    H114661   3.778   3.591   2.364
 4885TIP3    H214662   3.752   3.476   2.458
 4886TIP3   OH214663   3.324   3.310   4.152
 4886TIP3    H114664   3.319   3.394   4.107
 4886TIP3    H214665   3.377   3.255   4.094
 4887TIP3   OH214666   2.806   2.343   3.162
 4887TIP3    H114667   2.891   2.339   3.119
 4887TIP3    H214668   2.790   2.437   3.172
 4888TIP3   OH214669   5.341   3.442   3.661
 4888TIP3    H114670   5.425   3.421   3.703
 4888TIP3    H214671   5.277   3.430   3.731
 4889TIP3   OH214672   5.471   1.143   2.821
 4889TIP3    H114673   5.564   1.120   2.824
 4889TIP3    H214674   5.427   1.059   2.812
 4890TIP3   OH214675   4.697   2.093   0.792
 4890TIP3    H114676   4.640   2.100   0.868
 4890TIP3    H214677   4.647   2.132   0.720
 4891TIP3   OH214678   4.188   1.858   2.232
 4891TIP3    H114679   4.157   1.948   2.225
 4891TIP3    H214680   4.109   1.806   2.241
 4892TIP3   OH214681   2.155   2.236   1.063
 4892TIP3    H114682   2.120   2.155   1.100
 4892TIP3    H214683   2.179   2.212   0.973
 4893TIP3   OH214684   0.396   4.692   0.729
 4893TIP3    H114685   0.445   4.619   0.766
 4893TIP3    H214686   0.419   4.767   0.784
 4894TIP3   OH214687   1.938   4.154   3.617
 4894TIP3    H114688   1.927   4.101   3.537
 4894TIP3    H214689   2.028   4.136   3.645
 4895TIP3   OH214690   2.034   1.868   1.785
 4895TIP3    H114691   2.014   1.859   1.878
 4895TIP3    H214692   1.992   1.950   1.759
 4896TIP3   OH214693   2.466   2.104   1.513
 4896TIP3    H114694   2.437   2.038   1.575
 4896TIP3    H214695   2.562   2.100   1.518
 4897TIP3   OH214696   6.081   2.914   3.152
 4897TIP3    H114697   6.036   2.963   3.220
 4897TIP3    H214698   6.047   2.825   3.158
 4898TIP3   OH214699   3.332   4.737   4.735
 4898TIP3    H114700   3.316   4.823   4.697
 4898TIP3    H214701   3.416   4.710   4.699
 4899TIP3   OH214702   3.574   3.273   4.405
 4899TIP3    H114703   3.578   3.204   4.339
 4899TIP3    H214704   3.486   3.266   4.443
 4900TIP3   OH214705   4.159   5.967   3.716
 4900TIP3    H114706   4.203   6.042   3.675
 4900TIP3    H214707   4.221   5.936   3.782
 4901TIP3   OH214708   2.041   0.167   0.822
 4901TIP3    H114709   2.093   0.219   0.761
 4901TIP3    H214710   2.106   0.128   0.881
 4902TIP3   OH214711   2.631   5.237   1.025
 4902TIP3    H114712   2.556   5.262   0.972
 4902TIP3    H214713   2.619   5.284   1.108
 4903TIP3   OH214714   2.291   3.294   1.974
 4903TIP3    H114715   2.294   3.200   1.954
 4903TIP3    H214716   2.203   3.321   1.947
 4904TIP3   OH214717   3.797   2.848   2.329
 4904TIP3    H114718   3.871   2.871   2.273
 4904TIP3    H214719   3.733   2.810   2.269
 4905TIP3   OH214720   2.793   5.413   0.798
 4905TIP3    H114721   2.860   5.478   0.818
 4905TIP3    H214722   2.789   5.358   0.876
 4906TIP3   OH214723   3.934   2.203   1.461
 4906TIP3    H114724   3.913   2.237   1.374
 4906TIP3    H214725   4.004   2.139   1.446
 4907TIP3   OH214726   3.064   2.375   0.588
 4907TIP3    H114727   3.075   2.415   0.674
 4907TIP3    H214728   3.053   2.282   0.605
 4908TIP3   OH214729   5.757   3.994   2.727
 4908TIP3    H114730   5.705   3.995   2.808
 4908TIP3    H214731   5.736   3.909   2.687
 4909TIP3   OH214732   3.662   3.288   3.531
 4909TIP3    H114733   3.708   3.357   3.579
 4909TIP3    H214734   3.580   3.330   3.502
 4910TIP3   OH214735   2.881   4.437   1.305
 4910TIP3    H114736   2.882   4.345   1.330
 4910TIP3    H214737   2.876   4.435   1.209
 4911TIP3   OH214738   5.149   2.121   1.991
 4911TIP3    H114739   5.222   2.088   1.939
 4911TIP3    H214740   5.169   2.213   2.005
 4912TIP3   OH214741   1.540   4.218   0.920
 4912TIP3    H114742   1.614   4.170   0.884
 4912TIP3    H214743   1.466   4.157   0.912
 4913TIP3   OH214744   3.974   1.428   4.351
 4913TIP3    H114745   4.030   1.365   4.396
 4913TIP3    H214746   3.888   1.387   4.350
 4914TIP3   OH214747   3.622   1.906   3.032
 4914TIP3    H114748   3.561   1.885   2.961
 4914TIP3    H214749   3.678   1.828   3.038
 4915TIP3   OH214750   0.138   0.905   3.927
 4915TIP3    H114751   0.121   0.899   4.021
 4915TIP3    H214752   0.105   0.992   3.903
 4916TIP3   OH214753   5.912   2.332   0.379
 4916TIP3    H114754   5.984   2.283   0.418
 4916TIP3    H214755   5.863   2.366   0.454
 4917TIP3   OH214756   1.614   3.875   1.884
 4917TIP3    H114757   1.674   3.949   1.892
 4917TIP3    H214758   1.617   3.851   1.792
 4918TIP3   OH214759   0.082   2.577   4.148
 4918TIP3    H114760   0.116   2.489   4.163
 4918TIP3    H214761   0.011   2.586   4.211
 4919TIP3   OH214762   3.956   3.240   1.583
 4919TIP3    H114763   4.008   3.317   1.556
 4919TIP3    H214764   3.985   3.170   1.524
 4920TIP3   OH214765   2.736   2.806   0.946
 4920TIP3    H114766   2.758   2.730   1.001
 4920TIP3    H214767   2.787   2.878   0.983
 4921TIP3   OH214768   2.810   2.578   1.418
 4921TIP3    H114769   2.787   2.499   1.468
 4921TIP3    H214770   2.896   2.603   1.450
 4922TIP3   OH214771   1.397   5.269   0.810
 4922TIP3    H114772   1.447   5.345   0.779
 4922TIP3    H214773   1.378   5.289   0.902
 4923TIP3   OH214774   5.076   0.635   4.886
 4923TIP3    H114775   5.112   0.683   4.961
 4923TIP3    H214776   4.993   0.678   4.868
 4924TIP3   OH214777   3.968   2.485   3.538
 4924TIP3    H114778   3.968   2.412   3.599
 4924TIP3    H214779   4.051   2.477   3.491
 4925TIP3   OH214780   6.165   0.571   1.166
 4925TIP3    H114781   6.174   0.480   1.137
 4925TIP3    H214782   6.188   0.623   1.090
 4926TIP3   OH214783   6.194   1.180   0.201
 4926TIP3    H114784   6.218   1.088   0.189
 4926TIP3    H214785   6.263   1.229   0.155
 4927TIP3   OH214786   4.675   4.557   4.154
 4927TIP3    H114787   4.680   4.544   4.059
 4927TIP3    H214788   4.600   4.616   4.166
 4928TIP3   OH214789   3.942   3.282   4.031
 4928TIP3    H114790   3.932   3.342   4.105
 4928TIP3    H214791   4.036   3.265   4.027
 4929TIP3   OH214792   6.272   2.042   3.655
 4929TIP3    H114793   6.191   1.999   3.626
 4929TIP3    H214794   6.255   2.067   3.746
 4930TIP3   OH214795   3.570   4.494   1.918
 4930TIP3    H114796   3.504   4.429   1.894
 4930TIP3    H214797   3.608   4.521   1.834
 4931TIP3   OH214798   1.898   0.309   3.193
 4931TIP3    H114799   1.866   0.363   3.121
 4931TIP3    H214800   1.976   0.356   3.224
 4932TIP3   OH214801   3.011   5.637   3.463
 4932TIP3    H114802   3.031   5.567   3.401
 4932TIP3    H214803   2.958   5.595   3.531
 4933TIP3   OH214804   5.286   3.027   2.914
 4933TIP3    H114805   5.212   2.969   2.899
 4933TIP3    H214806   5.257   3.112   2.881
 4934TIP3   OH214807   1.979   5.756   0.514
 4934TIP3    H114808   1.952   5.684   0.571
 4934TIP3    H214809   1.916   5.826   0.530
 4935TIP3   OH214810   3.613   5.321   3.855
 4935TIP3    H114811   3.591   5.407   3.892
 4935TIP3    H214812   3.532   5.290   3.815
 4936TIP3   OH214813   4.963   4.266   4.914
 4936TIP3    H114814   4.948   4.358   4.937
 4936TIP3    H214815   4.938   4.218   4.993
 4937TIP3   OH214816   1.202   4.087   4.939
 4937TIP3    H114817   1.246   4.150   4.995
 4937TIP3    H214818   1.262   4.013   4.933
 4938TIP3   OH214819   1.320   1.391   4.583
 4938TIP3    H114820   1.361   1.466   4.627
 4938TIP3    H214821   1.305   1.421   4.494
 4939TIP3   OH214822   4.752   4.184   2.540
 4939TIP3    H114823   4.673   4.175   2.487
 4939TIP3    H214824   4.747   4.114   2.605
 4940TIP3   OH214825   6.236   3.113   0.733
 4940TIP3    H114826   6.182   3.109   0.654
 4940TIP3    H214827   6.191   3.175   0.790
 4941TIP3   OH214828   0.547   5.072   2.053
 4941TIP3    H114829   0.555   5.116   2.138
 4941TIP3    H214830   0.454   5.056   2.042
 4942TIP3   OH214831   0.811   5.503   2.406
 4942TIP3    H114832   0.892   5.492   2.356
 4942TIP3    H214833   0.749   5.445   2.363
 4943TIP3   OH214834   5.340   3.757   3.626
 4943TIP3    H114835   5.325   3.668   3.594
 4943TIP3    H214836   5.434   3.771   3.614
 4944TIP3   OH214837   3.575   2.717   0.317
 4944TIP3    H114838   3.609   2.639   0.273
 4944TIP3    H214839   3.482   2.698   0.330
 4945TIP3   OH214840   5.609   4.015   2.978
 4945TIP3    H114841   5.636   3.943   3.036
 4945TIP3    H214842   5.516   3.999   2.962
 4946TIP3   OH214843   5.650   3.593   0.071
 4946TIP3    H114844   5.676   3.538   0.144
 4946TIP3    H214845   5.556   3.581   0.063
 4947TIP3   OH214846   3.267   5.558   1.191
 4947TIP3    H114847   3.206   5.548   1.118
 4947TIP3    H214848   3.236   5.495   1.256
 4948TIP3   OH214849   5.919   5.423   3.933
 4948TIP3    H114850   6.002   5.412   3.980
 4948TIP3    H214851   5.853   5.427   4.002
 4949TIP3   OH214852   3.407   5.559   0.678
 4949TIP3    H114853   3.410   5.490   0.612
 4949TIP3    H214854   3.346   5.528   0.744
 4950TIP3   OH214855   4.411   0.611   2.412
 4950TIP3    H114856   4.444   0.590   2.324
 4950TIP3    H214857   4.346   0.543   2.429
 4951TIP3   OH214858   1.717   1.441   3.675
 4951TIP3    H114859   1.799   1.478   3.642
 4951TIP3    H214860   1.705   1.361   3.624
 4952TIP3   OH214861   6.320   4.626   0.081
 4952TIP3    H114862   6.335   4.535   0.057
 4952TIP3    H214863   6.268   4.622   0.161
 4953TIP3   OH214864   0.826   0.812   1.347
 4953TIP3    H114865   0.736   0.844   1.353
 4953TIP3    H214866   0.856   0.808   1.437
 4954TIP3   OH214867   5.274   0.387   2.549
 4954TIP3    H114868   5.357   0.342   2.566
 4954TIP3    H214869   5.294   0.449   2.478
 4955TIP3   OH214870   0.545   0.278   4.518
 4955TIP3    H114871   0.606   0.206   4.536
 4955TIP3    H214872   0.574   0.314   4.434
 4956TIP3   OH214873   6.121   3.247   3.718
 4956TIP3    H114874   6.144   3.323   3.770
 4956TIP3    H214875   6.090   3.182   3.781
 4957TIP3   OH214876   3.470   5.998   2.186
 4957TIP3    H114877   3.565   6.000   2.174
 4957TIP3    H214878   3.446   6.090   2.198
 4958TIP3   OH214879   4.725   4.996   2.619
 4958TIP3    H114880   4.660   5.065   2.627
 4958TIP3    H214881   4.673   4.916   2.607
 4959TIP3   OH214882   2.181   5.054   1.994
 4959TIP3    H114883   2.144   5.015   1.915
 4959TIP3    H214884   2.271   5.076   1.969
 4960TIP3   OH214885   1.136   0.762   0.954
 4960TIP3    H114886   1.071   0.692   0.951
 4960TIP3    H214887   1.108   0.818   1.026
 4961TIP3   OH214888   6.240   3.674   4.133
 4961TIP3    H114889   6.292   3.746   4.169
 4961TIP3    H214890   6.256   3.601   4.193
 4962TIP3   OH214891   5.522   4.533   2.603
 4962TIP3    H114892   5.568   4.599   2.551
 4962TIP3    H214893   5.575   4.524   2.682
 4963TIP3   OH214894   4.341   4.424   3.590
 4963TIP3    H114895   4.329   4.335   3.557
 4963TIP3    H214896   4.288   4.427   3.669
 4964TIP3   OH214897   0.567   3.797   1.531
 4964TIP3    H114898   0.660   3.784   1.514
 4964TIP3    H214899   0.561   3.884   1.571
 4965TIP3   OH214900   2.256   5.446   4.959
 4965TIP3    H114901   2.316   5.386   5.001
 4965TIP3    H214902   2.169   5.416   4.985
 4966TIP3   OH214903   0.497   4.950   1.715
 4966TIP3    H114904   0.429   5.010   1.685
 4966TIP3    H214905   0.450   4.873   1.746
 4967TIP3   OH214906   6.219   2.571   4.430
 4967TIP3    H114907   6.312   2.585   4.448
 4967TIP3    H214908   6.195   2.494   4.480
 4968TIP3   OH214909   1.230   5.519   2.716
 4968TIP3    H114910   1.242   5.481   2.804
 4968TIP3    H214911   1.204   5.445   2.661
 4969TIP3   OH214912   6.036   1.188   0.851
 4969TIP3    H114913   6.001   1.109   0.808
 4969TIP3    H214914   6.093   1.154   0.920
 4970TIP3   OH214915  -0.015   4.484   2.031
 4970TIP3    H114916  -0.075   4.510   1.961
 4970TIP3    H214917   0.030   4.407   1.996
 4971TIP3   OH214918   5.793   5.796   0.758
 4971TIP3    H114919   5.730   5.861   0.728
 4971TIP3    H214920   5.857   5.788   0.687
 4972TIP3   OH214921   3.833   5.990   2.185
 4972TIP3    H114922   3.799   5.902   2.173
 4972TIP3    H214923   3.877   5.987   2.270
 4973TIP3   OH214924   5.984   3.119   4.743
 4973TIP3    H114925   5.934   3.039   4.727
 4973TIP3    H214926   5.978   3.167   4.661
 4974TIP3   OH214927   0.920   1.232   0.474
 4974TIP3    H114928   0.900   1.145   0.439
 4974TIP3    H214929   1.013   1.227   0.498
 4975TIP3   OH214930   2.902   4.821   4.032
 4975TIP3    H114931   2.864   4.826   4.120
 4975TIP3    H214932   2.877   4.734   4.000
 4976TIP3   OH214933   1.183   2.943   3.799
 4976TIP3    H114934   1.172   3.036   3.777
 4976TIP3    H214935   1.241   2.943   3.874
 4977TIP3   OH214936   2.590   5.536   2.575
 4977TIP3    H114937   2.509   5.491   2.602
 4977TIP3    H214938   2.568   5.629   2.580
 4978TIP3   OH214939   6.115   0.837   0.710
 4978TIP3    H114940   6.028   0.875   0.724
 4978TIP3    H214941   6.173   0.913   0.701
 4979TIP3   OH214942   5.735   0.919   1.945
 4979TIP3    H114943   5.714   1.012   1.937
 4979TIP3    H214944   5.651   0.875   1.937
 4980TIP3   OH214945   2.244   5.002   0.246
 4980TIP3    H114946   2.157   4.996   0.287
 4980TIP3    H214947   2.304   5.019   0.319
 4981TIP3   OH214948   5.206   5.167   4.144
 4981TIP3    H114949   5.218   5.212   4.060
 4981TIP3    H214950   5.227   5.076   4.126
 4982TIP3   OH214951   4.259   4.261   0.872
 4982TIP3    H114952   4.231   4.253   0.781
 4982TIP3    H214953   4.224   4.345   0.901
 4983TIP3   OH214954   0.907   2.196   3.415
 4983TIP3    H114955   0.870   2.245   3.489
 4983TIP3    H214956   0.985   2.154   3.451
 4984TIP3   OH214957   4.185   4.164   4.366
 4984TIP3    H114958   4.238   4.212   4.429
 4984TIP3    H214959   4.179   4.075   4.403
 4985TIP3   OH214960   1.156   3.058   2.899
 4985TIP3    H114961   1.210   2.978   2.901
 4985TIP3    H214962   1.218   3.128   2.877
 4986TIP3   OH214963   2.241   4.144   0.407
 4986TIP3    H114964   2.239   4.193   0.325
 4986TIP3    H214965   2.152   4.109   0.417
 4987TIP3   OH214966   4.740   1.065   1.365
 4987TIP3    H114967   4.684   0.987   1.371
 4987TIP3    H214968   4.780   1.072   1.451
 4988TIP3   OH214969   0.271   2.560   3.822
 4988TIP3    H114970   0.242   2.469   3.817
 4988TIP3    H214971   0.259   2.584   3.914
 4989TIP3   OH214972   6.275   3.992   1.668
 4989TIP3    H114973   6.245   3.908   1.634
 4989TIP3    H214974   6.370   3.988   1.662
 4990TIP3   OH214975   4.715   5.809   5.080
 4990TIP3    H114976   4.667   5.728   5.059
 4990TIP3    H214977   4.671   5.876   5.028
 4991TIP3   OH214978   2.749   3.036   3.861
 4991TIP3    H114979   2.800   3.000   3.933
 4991TIP3    H214980   2.788   2.997   3.782
 4992TIP3   OH214981   1.363   4.614   5.144
 4992TIP3    H114982   1.361   4.662   5.061
 4992TIP3    H214983   1.281   4.565   5.146
 4993TIP3   OH214984   0.462   5.098   0.314
 4993TIP3    H114985   0.366   5.100   0.314
 4993TIP3    H214986   0.487   5.125   0.225
 4994TIP3   OH214987   5.869   5.899   0.195
 4994TIP3    H114988   5.796   5.912   0.134
 4994TIP3    H214989   5.934   5.963   0.169
 4995TIP3   OH214990   2.112   3.273   1.522
 4995TIP3    H114991   2.201   3.251   1.548
 4995TIP3    H214992   2.076   3.190   1.488
 4996TIP3   OH214993   6.217   1.339   3.169
 4996TIP3    H114994   6.286   1.382   3.219
 4996TIP3    H214995   6.263   1.296   3.097
 4997TIP3   OH214996   2.560   0.665   2.473
 4997TIP3    H114997   2.571   0.630   2.385
 4997TIP3    H214998   2.617   0.610   2.528
 4998TIP3   OH214999   2.209   1.057   2.980
 4998TIP3    H115000   2.287   1.035   2.930
 4998TIP3    H215001   2.140   1.003   2.940
 4999TIP3   OH215002   3.749   5.446   2.795
 4999TIP3    H115003   3.776   5.509   2.862
 4999TIP3    H215004   3.661   5.475   2.769
 5000TIP3   OH215005   6.249   5.061   4.321
 5000TIP3    H115006   6.232   5.033   4.231
 5000TIP3    H215007   6.171   5.110   4.347
 5001TIP3   OH215008   5.304   0.206   0.693
 5001TIP3    H115009   5.365   0.235   0.625
 5001TIP3    H215010   5.313   0.270   0.763
 5002TIP3   OH215011   0.935   5.660   1.623
 5002TIP3    H115012   0.973   5.731   1.674
 5002TIP3    H215013   0.900   5.703   1.545
 5003TIP3   OH215014   3.499   5.811   0.736
 5003TIP3    H115015   3.533   5.796   0.824
 5003TIP3    H215016   3.444   5.735   0.718
 5004TIP3   OH215017   0.268   0.182   0.415
 5004TIP3    H115018   0.332   0.222   0.356
 5004TIP3    H215019   0.319   0.157   0.492
 5005TIP3   OH215020   5.839   2.235   3.335
 5005TIP3    H115021   5.879   2.165   3.387
 5005TIP3    H215022   5.783   2.282   3.397
 5006TIP3   OH215023   0.830   2.265   2.459
 5006TIP3    H115024   0.797   2.197   2.401
 5006TIP3    H215025   0.808   2.233   2.547
 5007TIP3   OH215026   6.327   4.176   2.195
 5007TIP3    H115027   6.389   4.112   2.228
 5007TIP3    H215028   6.248   4.126   2.175
 5008TIP3   OH215029   3.643   2.044   1.328
 5008TIP3    H115030   3.580   1.978   1.356
 5008TIP3    H215031   3.710   2.045   1.397
 5009TIP3   OH215032   4.909   5.800   0.380
 5009TIP3    H115033   4.871   5.760   0.458
 5009TIP3    H215034   4.986   5.847   0.412
 5010TIP3   OH215035   5.017   4.830   0.900
 5010TIP3    H115036   5.043   4.882   0.976
 5010TIP3    H215037   4.922   4.822   0.908
 5011TIP3   OH215038   4.964   3.581   4.747
 5011TIP3    H115039   4.977   3.516   4.817
 5011TIP3    H215040   4.928   3.530   4.675
 5012TIP3   OH215041   0.474   2.501   0.405
 5012TIP3    H115042   0.541   2.462   0.461
 5012TIP3    H215043   0.422   2.556   0.464
 5013TIP3   OH215044   2.374   2.081   2.716
 5013TIP3    H115045   2.425   2.008   2.681
 5013TIP3    H215046   2.419   2.105   2.797
 5014TIP3   OH215047   1.457   3.437   2.734
 5014TIP3    H115048   1.439   3.425   2.641
 5014TIP3    H215049   1.552   3.442   2.740
 5015TIP3   OH215050   3.701   5.436   2.265
 5015TIP3    H115051   3.699   5.390   2.349
 5015TIP3    H215052   3.643   5.511   2.277
 5016TIP3   OH215053   4.355   0.011   0.295
 5016TIP3    H115054   4.397   0.096   0.290
 5016TIP3    H215055   4.283   0.023   0.357
 5017TIP3   OH215056   3.508   3.074   3.661
 5017TIP3    H115057   3.523   3.035   3.747
 5017TIP3    H215058   3.590   3.119   3.641
 5018TIP3   OH215059   0.346   3.862   2.822
 5018TIP3    H115060   0.269   3.916   2.841
 5018TIP3    H215061   0.313   3.793   2.765
 5019TIP3   OH215062   0.665   3.064   4.151
 5019TIP3    H115063   0.748   3.100   4.120
 5019TIP3    H215064   0.598   3.126   4.121
 5020TIP3   OH215065   1.986   1.317   3.639
 5020TIP3    H115066   1.963   1.303   3.547
 5020TIP3    H215067   2.075   1.350   3.638
 5021TIP3   OH215068   4.576   2.385   5.089
 5021TIP3    H115069   4.625   2.389   5.008
 5021TIP3    H215070   4.513   2.457   5.082
 5022TIP3   OH215071   3.228   3.928   0.596
 5022TIP3    H115072   3.314   3.892   0.574
 5022TIP3    H215073   3.166   3.872   0.549
 5023TIP3   OH215074   3.233   3.805   4.744
 5023TIP3    H115075   3.293   3.732   4.723
 5023TIP3    H215076   3.290   3.870   4.785
 5024TIP3   OH215077   3.640   4.987   1.869
 5024TIP3    H115078   3.615   4.908   1.917
 5024TIP3    H215079   3.574   4.996   1.801
 5025TIP3   OH215080   3.787   0.998   3.163
 5025TIP3    H115081   3.767   0.938   3.092
 5025TIP3    H215082   3.783   1.085   3.123
 5026TIP3   OH215083   4.954   3.952   2.281
 5026TIP3    H115084   5.009   4.025   2.309
 5026TIP3    H215085   4.967   3.885   2.347
 5027TIP3   OH215086   2.234   3.247   1.228
 5027TIP3    H115087   2.303   3.275   1.288
 5027TIP3    H215088   2.184   3.182   1.279
 5028TIP3   OH215089   4.992   4.190   1.084
 5028TIP3    H115090   4.983   4.228   1.171
 5028TIP3    H215091   4.916   4.223   1.036
 5029TIP3   OH215092   2.569   5.443   0.066
 5029TIP3    H115093   2.562   5.410  -0.024
 5029TIP3    H215094   2.546   5.536   0.059
 5030TIP3   OH215095   0.880   2.244   1.226
 5030TIP3    H115096   0.871   2.339   1.232
 5030TIP3    H215097   0.846   2.222   1.140
 5031TIP3   OH215098   1.185   5.607   5.125
 5031TIP3    H115099   1.135   5.536   5.165
 5031TIP3    H215100   1.134   5.686   5.143
 5032TIP3   OH215101   1.539   2.333   2.998
 5032TIP3    H115102   1.581   2.381   2.928
 5032TIP3    H215103   1.485   2.398   3.043
 5033TIP3   OH215104   1.777   2.278   4.153
 5033TIP3    H115105   1.724   2.247   4.227
 5033TIP3    H215106   1.865   2.288   4.189
 5034TIP3   OH215107   5.937   4.641   2.545
 5034TIP3    H115108   5.961   4.719   2.594
 5034TIP3    H215109   6.017   4.588   2.541
 5035TIP3   OH215110   0.628   2.775   2.155
 5035TIP3    H115111   0.601   2.787   2.064
 5035TIP3    H215112   0.650   2.682   2.162
 5036TIP3   OH215113   4.460   1.773   3.702
 5036TIP3    H115114   4.528   1.714   3.668
 5036TIP3    H215115   4.484   1.786   3.793
 5037TIP3   OH215116   3.561   5.821   2.734
 5037TIP3    H115117   3.580   5.824   2.827
 5037TIP3    H215118   3.641   5.786   2.695
 5038TIP3   OH215119   0.641   4.866   0.286
 5038TIP3    H115120   0.704   4.807   0.246
 5038TIP3    H215121   0.564   4.863   0.229
 5039TIP3   OH215122   2.978   0.495   1.558
 5039TIP3    H115123   2.886   0.515   1.541
 5039TIP3    H215124   3.006   0.562   1.620
 5040TIP3   OH215125   1.095   3.336   2.608
 5040TIP3    H115126   1.168   3.274   2.602
 5040TIP3    H215127   1.027   3.287   2.654
 5041TIP3   OH215128   4.814   2.511   0.964
 5041TIP3    H115129   4.730   2.555   0.980
 5041TIP3    H215130   4.792   2.418   0.962
 5042TIP3   OH215131   1.804   2.352   1.361
 5042TIP3    H115132   1.884   2.319   1.322
 5042TIP3    H215133   1.788   2.296   1.437
 5043TIP3   OH215134   3.051   4.388   2.567
 5043TIP3    H115135   3.066   4.448   2.494
 5043TIP3    H215136   2.956   4.386   2.577
 5044TIP3   OH215137   1.017   0.383   3.988
 5044TIP3    H115138   1.002   0.325   4.062
 5044TIP3    H215139   0.949   0.450   3.996
 5045TIP3   OH215140   4.937   4.219   3.456
 5045TIP3    H115141   4.880   4.173   3.517
 5045TIP3    H215142   4.975   4.150   3.402
 5046TIP3   OH215143   3.868   5.219   4.984
 5046TIP3    H115144   3.857   5.271   4.905
 5046TIP3    H215145   3.952   5.174   4.973
 5047TIP3   OH215146   0.888   5.851   3.082
 5047TIP3    H115147   0.863   5.833   2.992
 5047TIP3    H215148   0.984   5.855   3.080
 5048TIP3   OH215149   2.646   3.985   3.416
 5048TIP3    H115150   2.623   4.072   3.449
 5048TIP3    H215151   2.704   4.003   3.341
 5049TIP3   OH215152   5.797   0.713   5.091
 5049TIP3    H115153   5.830   0.798   5.119
 5049TIP3    H215154   5.814   0.711   4.997
 5050TIP3   OH215155   6.225   2.232   2.430
 5050TIP3    H115156   6.178   2.243   2.513
 5050TIP3    H215157   6.260   2.319   2.411
 5051TIP3   OH215158   3.658   3.518   4.584
 5051TIP3    H115159   3.587   3.530   4.647
 5051TIP3    H215160   3.623   3.455   4.521
 5052TIP3   OH215161   5.848   4.432   3.121
 5052TIP3    H115162   5.916   4.457   3.183
 5052TIP3    H215163   5.773   4.406   3.175
 5053TIP3   OH215164   2.108   0.780   2.102
 5053TIP3    H115165   2.202   0.789   2.087
 5053TIP3    H215166   2.087   0.692   2.072
 5054TIP3   OH215167   1.546   5.077   4.269
 5054TIP3    H115168   1.582   5.117   4.190
 5054TIP3    H215169   1.578   4.987   4.267
 5055TIP3   OH215170   4.271   5.634   1.594
 5055TIP3    H115171   4.279   5.544   1.628
 5055TIP3    H215172   4.317   5.632   1.510
 5056TIP3   OH215173   0.371   5.072   3.260
 5056TIP3    H115174   0.337   5.158   3.285
 5056TIP3    H215175   0.351   5.065   3.167
 5057TIP3   OH215176   1.281   1.454   1.800
 5057TIP3    H115177   1.222   1.514   1.846
 5057TIP3    H215178   1.369   1.486   1.821
 5058TIP3   OH215179   4.852   4.682   1.443
 5058TIP3    H115180   4.804   4.723   1.514
 5058TIP3    H215181   4.917   4.747   1.417
 5059TIP3   OH215182   3.391   3.136   3.197
 5059TIP3    H115183   3.354   3.182   3.272
 5059TIP3    H215184   3.363   3.045   3.207
 5060TIP3   OH215185   5.961   4.264   4.645
 5060TIP3    H115186   5.996   4.201   4.708
 5060TIP3    H215187   5.891   4.309   4.692
 5061TIP3   OH215188   4.860   4.933   4.939
 5061TIP3    H115189   4.922   5.006   4.940
 5061TIP3    H215190   4.776   4.973   4.959
 5062TIP3   OH215191   6.245   0.828   1.419
 5062TIP3    H115192   6.257   0.906   1.474
 5062TIP3    H215193   6.314   0.834   1.353
 5063TIP3   OH215194   3.331   1.250   3.721
 5063TIP3    H115195   3.359   1.270   3.811
 5063TIP3    H215196   3.236   1.260   3.723
 5064TIP3   OH215197   4.297   3.369   1.033
 5064TIP3    H115198   4.294   3.453   1.080
 5064TIP3    H215199   4.390   3.354   1.017
 5065TIP3   OH215200   4.685   2.363   3.460
 5065TIP3    H115201   4.662   2.448   3.422
 5065TIP3    H215202   4.607   2.337   3.509
 5066TIP3   OH215203   5.216   1.554   3.118
 5066TIP3    H115204   5.236   1.579   3.027
 5066TIP3    H215205   5.179   1.633   3.157
 5067TIP3   OH215206   1.562   3.078   2.740
 5067TIP3    H115207   1.641   3.037   2.705
 5067TIP3    H215208   1.492   3.014   2.724
 5068TIP3   OH215209   1.527   5.464   1.371
 5068TIP3    H115210   1.565   5.449   1.458
 5068TIP3    H215211   1.433   5.466   1.387
 5069TIP3   OH215212   3.456   0.051   0.351
 5069TIP3    H115213   3.408   0.096   0.421
 5069TIP3    H215214   3.400   0.063   0.273
 5070TIP3   OH215215   4.080   4.533   0.798
 5070TIP3    H115216   4.134   4.606   0.767
 5070TIP3    H215217   4.094   4.464   0.732
 5071TIP3   OH215218   3.047   4.213   0.108
 5071TIP3    H115219   2.959   4.178   0.096
 5071TIP3    H215220   3.082   4.165   0.183
 5072TIP3   OH215221   1.749   2.570   1.515
 5072TIP3    H115222   1.721   2.501   1.454
 5072TIP3    H215223   1.799   2.523   1.582
 5073TIP3   OH215224   4.153   5.493   1.261
 5073TIP3    H115225   4.152   5.400   1.285
 5073TIP3    H215226   4.243   5.522   1.279
 5074TIP3   OH215227   1.512   0.346   1.050
 5074TIP3    H115228   1.545   0.435   1.037
 5074TIP3    H215229   1.580   0.290   1.012
 5075TIP3   OH215230   0.714   0.197   0.417
 5075TIP3    H115231   0.787   0.201   0.479
 5075TIP3    H215232   0.639   0.172   0.470
 5076TIP3   OH215233   1.002   3.095   0.093
 5076TIP3    H115234   1.089   3.092   0.052
 5076TIP3    H215235   0.983   3.189   0.102
 5077TIP3   OH215236   3.910   2.879   2.058
 5077TIP3    H115237   3.949   2.840   1.980
 5077TIP3    H215238   3.944   2.968   2.061
 5078TIP3   OH215239   0.408   0.400   1.460
 5078TIP3    H115240   0.470   0.473   1.463
 5078TIP3    H215241   0.456   0.330   1.417
 5079TIP3   OH215242   0.074   0.137   4.547
 5079TIP3    H115243   0.032   0.084   4.479
 5079TIP3    H215244   0.101   0.074   4.614
 5080TIP3   OH215245   2.535   1.642   4.378
 5080TIP3    H115246   2.630   1.651   4.368
 5080TIP3    H215247   2.520   1.648   4.472
 5081TIP3   OH215248   4.968   0.065   4.199
 5081TIP3    H115249   4.918   0.049   4.279
 5081TIP3    H215250   4.930   0.005   4.135
 5082TIP3   OH215251   2.796   5.764   5.164
 5082TIP3    H115252   2.848   5.685   5.147
 5082TIP3    H215253   2.708   5.731   5.184
 5083TIP3   OH215254   4.103   1.257   4.051
 5083TIP3    H115255   4.029   1.226   3.999
 5083TIP3    H215256   4.100   1.352   4.042
 5084TIP3   OH215257   0.149   2.162   0.122
 5084TIP3    H115258   0.215   2.108   0.080
 5084TIP3    H215259   0.182   2.251   0.115
 5085TIP3   OH215260   2.128   1.939   1.518
 5085TIP3    H115261   2.202   1.917   1.576
 5085TIP3    H215262   2.140   1.881   1.443
 5086TIP3   OH215263   4.405   1.812   4.647
 5086TIP3    H115264   4.437   1.846   4.730
 5086TIP3    H215265   4.317   1.849   4.638
 5087TIP3   OH215266   4.841   3.949   1.092
 5087TIP3    H115267   4.815   3.924   1.180
 5087TIP3    H215268   4.806   4.037   1.080
 5088TIP3   OH215269   3.903   2.924   3.771
 5088TIP3    H115270   3.850   2.968   3.837
 5088TIP3    H215271   3.882   2.971   3.689
 5089TIP3   OH215272   1.867   2.737   2.516
 5089TIP3    H115273   1.805   2.673   2.552
 5089TIP3    H215274   1.813   2.794   2.461
 5090TIP3   OH215275   5.130   3.174   3.186
 5090TIP3    H115276   5.043   3.206   3.162
 5090TIP3    H215277   5.120   3.079   3.193
 5091TIP3   OH215278   3.395   4.654   0.264
 5091TIP3    H115279   3.325   4.715   0.240
 5091TIP3    H215280   3.355   4.594   0.327
 5092TIP3   OH215281   4.404   3.234   4.262
 5092TIP3    H115282   4.388   3.170   4.332
 5092TIP3    H215283   4.498   3.254   4.270
 5093TIP3   OH215284   4.786   4.379   2.335
 5093TIP3    H115285   4.778   4.343   2.423
 5093TIP3    H215286   4.880   4.387   2.320
 5094TIP3   OH215287   2.429   3.069   2.532
 5094TIP3    H115288   2.364   3.084   2.600
 5094TIP3    H215289   2.416   2.978   2.506
 5095TIP3   OH215290   2.415   4.426   2.061
 5095TIP3    H115291   2.493   4.478   2.042
 5095TIP3    H215292   2.427   4.346   2.010
 5096TIP3   OH215293   2.974   5.794   0.423
 5096TIP3    H115294   2.925   5.782   0.341
 5096TIP3    H215295   2.909   5.829   0.484
 5097TIP3   OH215296   4.206   5.261   2.851
 5097TIP3    H115297   4.236   5.182   2.896
 5097TIP3    H215298   4.112   5.250   2.842
 5098TIP3   OH215299   0.591   1.174   2.509
 5098TIP3    H115300   0.637   1.256   2.528
 5098TIP3    H215301   0.591   1.167   2.414
 5099TIP3   OH215302   4.820   3.567   0.227
 5099TIP3    H115303   4.870   3.489   0.204
 5099TIP3    H215304   4.841   3.583   0.319
 5100TIP3   OH215305   3.617   3.125   1.051
 5100TIP3    H115306   3.712   3.113   1.059
 5100TIP3    H215307   3.580   3.061   1.112
 5101TIP3   OH215308   1.641   5.917   0.991
 5101TIP3    H115309   1.717   5.929   0.934
 5101TIP3    H215310   1.662   5.840   1.044
 5102TIP3   OH215311   0.398   4.327   0.704
 5102TIP3    H115312   0.416   4.387   0.777
 5102TIP3    H215313   0.359   4.251   0.745
 5103TIP3   OH215314   2.305   3.285   3.001
 5103TIP3    H115315   2.228   3.330   3.035
 5103TIP3    H215316   2.379   3.337   3.034
 5104TIP3   OH215317   2.466   1.637   1.096
 5104TIP3    H115318   2.380   1.607   1.069
 5104TIP3    H215319   2.476   1.605   1.186
 5105TIP3   OH215320   0.607   3.431   0.123
 5105TIP3    H115321   0.581   3.481   0.046
 5105TIP3    H215322   0.583   3.340   0.103
 5106TIP3   OH215323   2.666   5.889   0.451
 5106TIP3    H115324   2.581   5.932   0.464
 5106TIP3    H215325   2.689   5.856   0.538
 5107TIP3   OH215326   5.772   2.453   1.651
 5107TIP3    H115327   5.782   2.476   1.558
 5107TIP3    H215328   5.773   2.357   1.652
 5108TIP3   OH215329   6.309   5.036   1.205
 5108TIP3    H115330   6.363   4.997   1.137
 5108TIP3    H215331   6.366   5.100   1.248
 5109TIP3   OH215332   2.879   0.976   3.816
 5109TIP3    H115333   2.792   0.958   3.782
 5109TIP3    H215334   2.877   0.944   3.906
 5110TIP3   OH215335   4.003   4.367   0.556
 5110TIP3    H115336   3.943   4.297   0.528
 5110TIP3    H215337   4.000   4.431   0.485
 5111TIP3   OH215338   1.243   0.128   5.093
 5111TIP3    H115339   1.254   0.039   5.060
 5111TIP3    H215340   1.185   0.118   5.169
 5112TIP3   OH215341   5.820   1.168   4.174
 5112TIP3    H115342   5.765   1.245   4.161
 5112TIP3    H215343   5.760   1.100   4.203
 5113TIP3   OH215344   0.495   5.640   3.472
 5113TIP3    H115345   0.480   5.734   3.472
 5113TIP3    H215346   0.408   5.601   3.470
 5114TIP3   OH215347   1.492   4.914   0.026
 5114TIP3    H115348   1.565   4.856   0.006
 5114TIP3    H215349   1.445   4.924  -0.057
 5115TIP3   OH215350   1.981   5.832   4.559
 5115TIP3    H115351   2.017   5.900   4.502
 5115TIP3    H215352   2.002   5.861   4.648
 5116TIP3   OH215353   2.990   4.013   4.982
 5116TIP3    H115354   2.895   4.001   4.976
 5116TIP3    H215355   3.025   3.924   4.990
 5117TIP3   OH215356   4.606   3.780   0.902
 5117TIP3    H115357   4.657   3.856   0.931
 5117TIP3    H215358   4.611   3.719   0.975
 5118TIP3   OH215359   2.735   3.635   3.527
 5118TIP3    H115360   2.716   3.577   3.454
 5118TIP3    H215361   2.818   3.676   3.504
 5119TIP3   OH215362   2.525   5.795   2.606
 5119TIP3    H115363   2.547   5.878   2.563
 5119TIP3    H215364   2.437   5.773   2.573
 5120TIP3   OH215365   1.594   1.559   1.402
 5120TIP3    H115366   1.667   1.608   1.364
 5120TIP3    H215367   1.625   1.468   1.401
 5121TIP3   OH215368   0.252   2.997   1.169
 5121TIP3    H115369   0.307   2.921   1.147
 5121TIP3    H215370   0.307   3.051   1.225
 5122TIP3   OH215371   0.324   4.047   1.145
 5122TIP3    H115372   0.261   3.997   1.197
 5122TIP3    H215373   0.317   4.136   1.178
 5123TIP3   OH215374   0.107   4.746   2.610
 5123TIP3    H115375   0.028   4.699   2.635
 5123TIP3    H215376   0.133   4.794   2.689
 5124TIP3   OH215377   2.714   0.305   0.140
 5124TIP3    H115378   2.667   0.375   0.094
 5124TIP3    H215379   2.763   0.351   0.208
 5125TIP3   OH215380   0.915   0.807   4.663
 5125TIP3    H115381   0.865   0.729   4.688
 5125TIP3    H215382   0.946   0.787   4.575
 5126TIP3   OH215383   0.000   4.382   1.276
 5126TIP3    H115384   0.075   4.373   1.335
 5126TIP3    H215385  -0.036   4.294   1.270
 5127TIP3   OH215386   4.016   2.484   2.872
 5127TIP3    H115387   3.940   2.427   2.861
 5127TIP3    H215388   4.072   2.463   2.797
 5128TIP3   OH215389   0.170   3.990   3.094
 5128TIP3    H115390   0.212   3.906   3.075
 5128TIP3    H215391   0.084   3.966   3.130
 5129TIP3   OH215392   3.132   5.029   5.161
 5129TIP3    H115393   3.126   4.998   5.071
 5129TIP3    H215394   3.168   5.118   5.154
 5130TIP3   OH215395   6.134   3.049   1.723
 5130TIP3    H115396   6.046   3.082   1.745
 5130TIP3    H215397   6.155   3.092   1.640
 5131TIP3   OH215398   2.114   1.722   1.329
 5131TIP3    H115399   2.106   1.667   1.408
 5131TIP3    H215400   2.068   1.674   1.261
 5132TIP3   OH215401   1.876   0.452   1.486
 5132TIP3    H115402   1.917   0.521   1.435
 5132TIP3    H215403   1.819   0.406   1.424
 5133TIP3   OH215404   0.217   4.880   1.522
 5133TIP3    H115405   0.262   4.795   1.522
 5133TIP3    H215406   0.228   4.913   1.433
 5134TIP3   OH215407   1.462   5.897   0.055
 5134TIP3    H115408   1.404   5.916  -0.020
 5134TIP3    H215409   1.449   5.804   0.072
 5135TIP3   OH215410   3.099   2.828   3.870
 5135TIP3    H115411   3.143   2.913   3.865
 5135TIP3    H215412   3.169   2.764   3.866
 5136TIP3   OH215413   3.865   4.624   2.755
 5136TIP3    H115414   3.817   4.693   2.709
 5136TIP3    H215415   3.797   4.575   2.801
 5137TIP3   OH215416   0.543   1.483   4.777
 5137TIP3    H115417   0.468   1.479   4.718
 5137TIP3    H215418   0.619   1.478   4.720
 5138TIP3   OH215419   2.024   1.372   3.937
 5138TIP3    H115420   1.981   1.362   3.852
 5138TIP3    H215421   2.033   1.282   3.969
 5139TIP3   OH215422   5.775   4.478   0.021
 5139TIP3    H115423   5.870   4.472   0.009
 5139TIP3    H215424   5.764   4.542   0.091
 5140TIP3   OH215425   3.016   1.958   1.556
 5140TIP3    H115426   2.989   1.929   1.643
 5140TIP3    H215427   3.052   1.879   1.515
 5141TIP3   OH215428   0.567   1.270   4.571
 5141TIP3    H115429   0.637   1.208   4.592
 5141TIP3    H215430   0.493   1.241   4.625
 5142TIP3   OH215431   1.466   2.363   0.066
 5142TIP3    H115432   1.460   2.331  -0.024
 5142TIP3    H215433   1.420   2.298   0.119
 5143TIP3   OH215434   3.805   5.823   2.593
 5143TIP3    H115435   3.860   5.848   2.667
 5143TIP3    H215436   3.840   5.738   2.565
 5144TIP3   OH215437   3.046   4.231   0.688
 5144TIP3    H115438   2.979   4.178   0.646
 5144TIP3    H215439   3.124   4.220   0.633
 5145TIP3   OH215440   0.213   5.471   1.641
 5145TIP3    H115441   0.120   5.483   1.661
 5145TIP3    H215442   0.233   5.383   1.673
 5146TIP3   OH215443   5.611   5.097   3.111
 5146TIP3    H115444   5.539   5.035   3.101
 5146TIP3    H215445   5.687   5.052   3.074
 5147TIP3   OH215446   5.199   0.478   1.242
 5147TIP3    H115447   5.178   0.534   1.167
 5147TIP3    H215448   5.276   0.428   1.214
 5148TIP3   OH215449   2.715   0.770   1.284
 5148TIP3    H115450   2.730   0.775   1.190
 5148TIP3    H215451   2.622   0.789   1.295
 5149TIP3   OH215452   5.568   2.774   2.122
 5149TIP3    H115453   5.611   2.772   2.036
 5149TIP3    H215454   5.619   2.713   2.175
 5150TIP3   OH215455   0.611   1.286   0.375
 5150TIP3    H115456   0.599   1.192   0.358
 5150TIP3    H215457   0.691   1.291   0.427
 5151TIP3   OH215458   2.302   3.385   0.280
 5151TIP3    H115459   2.361   3.352   0.213
 5151TIP3    H215460   2.298   3.315   0.345
 5152TIP3   OH215461   1.860   3.786   4.106
 5152TIP3    H115462   1.809   3.762   4.183
 5152TIP3    H215463   1.948   3.754   4.124
 5153TIP3   OH215464   3.511   2.864   3.871
 5153TIP3    H115465   3.557   2.859   3.954
 5153TIP3    H215466   3.441   2.800   3.878
 5154TIP3   OH215467   6.006   4.741   0.789
 5154TIP3    H115468   6.014   4.762   0.882
 5154TIP3    H215469   6.029   4.822   0.743
 5155TIP3   OH215470   4.705   3.801   4.492
 5155TIP3    H115471   4.693   3.751   4.411
 5155TIP3    H215472   4.773   3.755   4.539
 5156TIP3   OH215473   2.380   0.790   2.084
 5156TIP3    H115474   2.389   0.785   2.179
 5156TIP3    H215475   2.466   0.819   2.053
 5157TIP3   OH215476   1.979   3.460   3.484
 5157TIP3    H115477   1.954   3.376   3.523
 5157TIP3    H215478   2.069   3.474   3.512
 5158TIP3   OH215479   4.931   2.006   2.362
 5158TIP3    H115480   4.983   2.081   2.391
 5158TIP3    H215481   4.995   1.941   2.333
 5159TIP3   OH215482   4.839   5.105   1.657
 5159TIP3    H115483   4.893   5.025   1.654
 5159TIP3    H215484   4.754   5.075   1.687
 5160TIP3   OH215485   3.450   5.531   4.691
 5160TIP3    H115486   3.519   5.597   4.701
 5160TIP3    H215487   3.385   5.556   4.758
 5161TIP3   OH215488   5.689   5.084   1.444
 5161TIP3    H115489   5.637   5.008   1.471
 5161TIP3    H215490   5.625   5.151   1.422
 5162TIP3   OH215491   5.240   2.276   4.752
 5162TIP3    H115492   5.202   2.211   4.693
 5162TIP3    H215493   5.256   2.352   4.695
 5163TIP3   OH215494   1.603   2.315   0.328
 5163TIP3    H115495   1.554   2.264   0.393
 5163TIP3    H215496   1.549   2.310   0.249
 5164TIP3   OH215497   3.897   2.121   4.382
 5164TIP3    H115498   3.875   2.127   4.475
 5164TIP3    H215499   3.970   2.060   4.378
 5165TIP3   OH215500   3.079   2.629   2.980
 5165TIP3    H115501   3.083   2.564   2.910
 5165TIP3    H215502   3.143   2.598   3.045
 5166TIP3   OH215503   3.182   0.882   1.478
 5166TIP3    H115504   3.215   0.882   1.388
 5166TIP3    H215505   3.094   0.845   1.471
 5167TIP3   OH215506   1.870   2.904   2.281
 5167TIP3    H115507   1.799   2.859   2.236
 5167TIP3    H215508   1.948   2.883   2.229
 5168TIP3   OH215509   2.405   1.275   0.165
 5168TIP3    H115510   2.418   1.180   0.165
 5168TIP3    H215511   2.445   1.305   0.084
 5169TIP3   OH215512   5.574   0.577   4.661
 5169TIP3    H115513   5.638   0.604   4.728
 5169TIP3    H215514   5.529   0.658   4.637
 5170TIP3   OH215515   0.611   0.953   1.961
 5170TIP3    H115516   0.706   0.951   1.951
 5170TIP3    H215517   0.586   0.861   1.971
 5171TIP3   OH215518   3.584   1.742   2.717
 5171TIP3    H115519   3.664   1.793   2.728
 5171TIP3    H215520   3.539   1.783   2.643
 5172TIP3   OH215521   3.258   4.040   3.402
 5172TIP3    H115522   3.231   4.125   3.367
 5172TIP3    H215523   3.210   4.032   3.485
 5173TIP3   OH215524   0.379   1.936   1.380
 5173TIP3    H115525   0.407   1.858   1.428
 5173TIP3    H215526   0.434   2.007   1.415
 5174TIP3   OH215527   2.281   3.903   4.212
 5174TIP3    H115528   2.211   3.968   4.215
 5174TIP3    H215529   2.358   3.952   4.182
 5175TIP3   OH215530   1.125   2.407   2.171
 5175TIP3    H115531   1.089   2.469   2.234
 5175TIP3    H215532   1.116   2.322   2.213
 5176TIP3   OH215533   3.293   4.795   3.290
 5176TIP3    H115534   3.322   4.765   3.204
 5176TIP3    H215535   3.256   4.717   3.331
 5177TIP3   OH215536   0.113   5.323   1.346
 5177TIP3    H115537   0.155   5.409   1.351
 5177TIP3    H215538   0.027   5.337   1.385
 5178TIP3   OH215539   2.880   4.188   3.578
 5178TIP3    H115540   2.894   4.194   3.672
 5178TIP3    H215541   2.788   4.211   3.566
 5179TIP3   OH215542   2.930   1.773   5.045
 5179TIP3    H115543   2.994   1.794   4.978
 5179TIP3    H215544   2.909   1.680   5.032
 5180TIP3   OH215545   4.142   1.626   0.627
 5180TIP3    H115546   4.168   1.538   0.602
 5180TIP3    H215547   4.223   1.676   0.631
 5181TIP3   OH215548   2.466   2.332   0.840
 5181TIP3    H115549   2.544   2.341   0.896
 5181TIP3    H215550   2.452   2.420   0.805
 5182TIP3   OH215551   3.806   2.746   1.548
 5182TIP3    H115552   3.767   2.662   1.571
 5182TIP3    H215553   3.901   2.730   1.548
 5183TIP3   OH215554   4.645   5.508   5.055
 5183TIP3    H115555   4.727   5.481   5.096
 5183TIP3    H215556   4.651   5.478   4.965
 5184TIP3   OH215557   5.703   4.147   2.037
 5184TIP3    H115558   5.746   4.067   2.006
 5184TIP3    H215559   5.773   4.197   2.079
 5185TIP3   OH215560   3.070   5.808   1.117
 5185TIP3    H115561   3.102   5.719   1.100
 5185TIP3    H215562   3.140   5.865   1.086
 5186TIP3   OH215563   4.809   3.289   3.630
 5186TIP3    H115564   4.789   3.217   3.689
 5186TIP3    H215565   4.867   3.346   3.680
 5187TIP3   OH215566   1.728   1.603   2.280
 5187TIP3    H115567   1.742   1.612   2.185
 5187TIP3    H215568   1.693   1.688   2.307
 5188TIP3   OH215569   3.433   5.747   0.254
 5188TIP3    H115570   3.479   5.664   0.247
 5188TIP3    H215571   3.363   5.741   0.188
 5189TIP3   OH215572   5.914   2.407   3.135
 5189TIP3    H115573   5.890   2.345   3.204
 5189TIP3    H215574   5.995   2.448   3.168
 5190TIP3   OH215575   2.576   0.918   0.430
 5190TIP3    H115576   2.605   0.998   0.473
 5190TIP3    H215577   2.635   0.909   0.355
 5191TIP3   OH215578   3.282   4.746   4.414
 5191TIP3    H115579   3.252   4.731   4.324
 5191TIP3    H215580   3.315   4.836   4.413
 5192TIP3   OH215581   3.383   2.090   0.089
 5192TIP3    H115582   3.407   1.998   0.104
 5192TIP3    H215583   3.363   2.124   0.176
 5193TIP3   OH215584   2.837   5.176   0.611
 5193TIP3    H115585   2.932   5.188   0.610
 5193TIP3    H215586   2.803   5.253   0.658
 5194TIP3   OH215587   0.588   1.862   4.714
 5194TIP3    H115588   0.555   1.950   4.728
 5194TIP3    H215589   0.528   1.825   4.648
 5195TIP3   OH215590   0.984   2.000   1.227
 5195TIP3    H115591   0.939   2.080   1.254
 5195TIP3    H215592   1.020   1.964   1.308
 5196TIP3   OH215593   1.312   4.942   3.463
 5196TIP3    H115594   1.246   4.964   3.530
 5196TIP3    H215595   1.347   4.858   3.492
 5197TIP3   OH215596   0.282   0.380   4.507
 5197TIP3    H115597   0.370   0.345   4.490
 5197TIP3    H215598   0.286   0.471   4.476
 5198TIP3   OH215599   5.838   2.742   3.088
 5198TIP3    H115600   5.803   2.829   3.070
 5198TIP3    H215601   5.804   2.688   3.016
 5199TIP3   OH215602   4.814   5.768   0.707
 5199TIP3    H115603   4.805   5.676   0.733
 5199TIP3    H215604   4.835   5.814   0.788
 5200TIP3   OH215605   2.234   1.677   3.580
 5200TIP3    H115606   2.176   1.639   3.514
 5200TIP3    H215607   2.238   1.770   3.557
 5201TIP3   OH215608   4.761   0.583   4.205
 5201TIP3    H115609   4.720   0.591   4.119
 5201TIP3    H215610   4.689   0.589   4.267
 5202TIP3   OH215611   1.010   5.496   0.499
 5202TIP3    H115612   0.922   5.514   0.467
 5202TIP3    H215613   1.021   5.555   0.574
 5203TIP3   OH215614   0.151   4.122   0.754
 5203TIP3    H115615   0.180   4.078   0.674
 5203TIP3    H215616   0.227   4.121   0.812
 5204TIP3   OH215617   1.284   3.375   0.133
 5204TIP3    H115618   1.246   3.323   0.204
 5204TIP3    H215619   1.218   3.441   0.113
 5205TIP3   OH215620   4.159   2.130   0.960
 5205TIP3    H115621   4.093   2.064   0.977
 5205TIP3    H215622   4.145   2.197   1.027
 5206TIP3   OH215623   3.927   0.521   4.766
 5206TIP3    H115624   3.861   0.535   4.698
 5206TIP3    H215625   3.902   0.439   4.808
 5207TIP3   OH215626   0.627   4.691   3.525
 5207TIP3    H115627   0.710   4.704   3.480
 5207TIP3    H215628   0.621   4.596   3.538
 5208TIP3   OH215629   3.830   1.893   1.517
 5208TIP3    H115630   3.816   1.946   1.595
 5208TIP3    H215631   3.916   1.852   1.529
 5209TIP3   OH215632   5.784   2.786   2.401
 5209TIP3    H115633   5.812   2.875   2.380
 5209TIP3    H215634   5.713   2.797   2.464
 5210TIP3   OH215635   4.317   5.247   4.323
 5210TIP3    H115636   4.331   5.283   4.236
 5210TIP3    H215637   4.297   5.323   4.378
 5211TIP3   OH215638   1.911   2.336   4.978
 5211TIP3    H115639   1.981   2.402   4.982
 5211TIP3    H215640   1.840   2.374   5.029
 5212TIP3   OH215641   3.500   1.186   4.221
 5212TIP3    H115642   3.556   1.112   4.198
 5212TIP3    H215643   3.437   1.150   4.284
 5213TIP3   OH215644   0.073   3.511   4.295
 5213TIP3    H115645   0.067   3.425   4.254
 5213TIP3    H215646   0.162   3.540   4.277
 5214TIP3   OH215647   0.143   0.943   1.304
 5214TIP3    H115648   0.117   1.035   1.296
 5214TIP3    H215649   0.177   0.936   1.393
 5215TIP3   OH215650   0.236   4.859   4.870
 5215TIP3    H115651   0.301   4.795   4.898
 5215TIP3    H215652   0.173   4.863   4.942
 5216TIP3   OH215653   1.671   1.541   3.941
 5216TIP3    H115654   1.704   1.539   3.851
 5216TIP3    H215655   1.689   1.453   3.975
 5217TIP3   OH215656   1.409   1.277   2.920
 5217TIP3    H115657   1.450   1.352   2.878
 5217TIP3    H215658   1.361   1.233   2.850
 5218TIP3   OH215659   4.976   2.386   3.392
 5218TIP3    H115660   4.887   2.362   3.418
 5218TIP3    H215661   4.986   2.352   3.304
 5219TIP3   OH215662   0.919   3.664   5.024
 5219TIP3    H115663   0.980   3.631   5.090
 5219TIP3    H215664   0.870   3.586   4.997
 5220TIP3   OH215665   5.004   2.957   0.744
 5220TIP3    H115666   5.055   3.035   0.764
 5220TIP3    H215667   4.915   2.979   0.771
 5221TIP3   OH215668   3.632   4.565   3.126
 5221TIP3    H115669   3.590   4.516   3.197
 5221TIP3    H215670   3.703   4.613   3.169
 5222TIP3   OH215671   0.136   5.853   1.466
 5222TIP3    H115672   0.130   5.834   1.372
 5222TIP3    H215673   0.229   5.865   1.482
 5223TIP3   OH215674   4.982   3.856   3.494
 5223TIP3    H115675   4.920   3.895   3.556
 5223TIP3    H215676   5.056   3.917   3.493
 5224TIP3   OH215677   4.866   5.387   3.873
 5224TIP3    H115678   4.814   5.411   3.949
 5224TIP3    H215679   4.910   5.306   3.899
 5225TIP3   OH215680   4.880   2.856   0.377
 5225TIP3    H115681   4.925   2.883   0.457
 5225TIP3    H215682   4.889   2.760   0.377
 5226TIP3   OH215683   4.055   2.981   2.816
 5226TIP3    H115684   4.040   2.967   2.722
 5226TIP3    H215685   3.968   2.991   2.853
 5227TIP3   OH215686   6.323   1.045   2.725
 5227TIP3    H115687   6.265   0.987   2.774
 5227TIP3    H215688   6.298   1.133   2.752
 5228TIP3   OH215689   4.686   1.739   3.526
 5228TIP3    H115690   4.725   1.733   3.439
 5228TIP3    H215691   4.712   1.659   3.570
 5229TIP3   OH215692   4.073   0.659   1.062
 5229TIP3    H115693   4.167   0.646   1.052
 5229TIP3    H215694   4.057   0.646   1.156
 5230TIP3   OH215695   2.216   5.510   0.097
 5230TIP3    H115696   2.271   5.547   0.028
 5230TIP3    H215697   2.203   5.582   0.159
 5231TIP3   OH215698   2.277   1.053   1.727
 5231TIP3    H115699   2.247   0.971   1.688
 5231TIP3    H215700   2.200   1.090   1.770
 5232TIP3   OH215701   4.348   1.289   2.100
 5232TIP3    H115702   4.359   1.365   2.043
 5232TIP3    H215703   4.353   1.324   2.189
 5233TIP3   OH215704   0.037   2.909   4.384
 5233TIP3    H115705   0.063   2.906   4.476
 5233TIP3    H215706   0.117   2.890   4.336
 5234TIP3   OH215707   2.916   3.647   1.186
 5234TIP3    H115708   2.911   3.556   1.215
 5234TIP3    H215709   2.929   3.697   1.266
 5235TIP3   OH215710   2.214   5.653   1.508
 5235TIP3    H115711   2.280   5.699   1.560
 5235TIP3    H215712   2.188   5.717   1.441
 5236TIP3   OH215713   4.713   3.897   1.332
 5236TIP3    H115714   4.628   3.939   1.339
 5236TIP3    H215715   4.769   3.943   1.395
 5237TIP3   OH215716   0.123   1.200   0.086
 5237TIP3    H115717   0.125   1.284   0.041
 5237TIP3    H215718   0.166   1.216   0.170
 5238TIP3   OH215719   6.108   4.849   0.331
 5238TIP3    H115720   6.096   4.756   0.315
 5238TIP3    H215721   6.043   4.892   0.276
 5239TIP3   OH215722   2.503   5.727   5.029
 5239TIP3    H115723   2.504   5.803   4.971
 5239TIP3    H215724   2.520   5.652   4.971
 5240TIP3   OH215725   2.915   1.449   1.938
 5240TIP3    H115726   2.836   1.484   1.978
 5240TIP3    H215727   2.886   1.372   1.889
 5241TIP3   OH215728   4.998   5.727   2.769
 5241TIP3    H115729   5.011   5.719   2.674
 5241TIP3    H215730   5.050   5.655   2.806
 5242TIP3   OH215731   1.514   4.211   2.417
 5242TIP3    H115732   1.577   4.193   2.347
 5242TIP3    H215733   1.524   4.305   2.434
 5243TIP3   OH215734   4.992   4.925   2.689
 5243TIP3    H115735   4.978   4.895   2.779
 5243TIP3    H215736   4.904   4.945   2.656
 5244TIP3   OH215737   2.440   4.886   2.663
 5244TIP3    H115738   2.468   4.816   2.721
 5244TIP3    H215739   2.514   4.900   2.604
 5245TIP3   OH215740   1.709   4.175   1.740
 5245TIP3    H115741   1.732   4.257   1.785
 5245TIP3    H215742   1.614   4.169   1.748
 5246TIP3   OH215743   1.391   0.530   1.398
 5246TIP3    H115744   1.435   0.446   1.386
 5246TIP3    H215745   1.319   0.528   1.334
 5247TIP3   OH215746   1.632   2.531   0.775
 5247TIP3    H115747   1.690   2.580   0.834
 5247TIP3    H215748   1.586   2.598   0.725
 5248TIP3   OH215749   1.773   5.848   4.319
 5248TIP3    H115750   1.860   5.866   4.354
 5248TIP3    H215751   1.741   5.933   4.289
 5249TIP3   OH215752   2.478   2.643   0.293
 5249TIP3    H115753   2.428   2.699   0.352
 5249TIP3    H215754   2.449   2.669   0.205
 5250TIP3   OH215755   5.323   4.780   3.741
 5250TIP3    H115756   5.239   4.748   3.706
 5250TIP3    H215757   5.314   4.875   3.739
 5251TIP3   OH215758   4.176   1.037   4.304
 5251TIP3    H115759   4.248   0.997   4.352
 5251TIP3    H215760   4.207   1.125   4.283
 5252TIP3   OH215761   4.505   1.425   0.023
 5252TIP3    H115762   4.442   1.354   0.038
 5252TIP3    H215763   4.580   1.401   0.077
 5253TIP3   OH215764   5.337   0.826   4.093
 5253TIP3    H115765   5.301   0.744   4.059
 5253TIP3    H215766   5.428   0.827   4.064
 5254TIP3   OH215767   3.103   4.130   4.556
 5254TIP3    H115768   3.168   4.076   4.601
 5254TIP3    H215769   3.104   4.214   4.603
 5255TIP3   OH215770   4.197   0.037   0.511
 5255TIP3    H115771   4.221   0.115   0.562
 5255TIP3    H215772   4.210  -0.036   0.571
 5256TIP3   OH215773   5.835   5.924   4.140
 5256TIP3    H115774   5.758   5.951   4.190
 5256TIP3    H215775   5.874   5.854   4.191
 5257TIP3   OH215776   6.153   4.952   3.869
 5257TIP3    H115777   6.084   4.886   3.864
 5257TIP3    H215778   6.127   5.018   3.805
 5258TIP3   OH215779   1.344   4.298   1.527
 5258TIP3    H115780   1.275   4.245   1.565
 5258TIP3    H215781   1.306   4.332   1.446
 5259TIP3   OH215782   6.040   4.363   0.080
 5259TIP3    H115783   6.128   4.326   0.083
 5259TIP3    H215784   6.024   4.379  -0.014
 5260TIP3   OH215785   1.990   4.541   1.854
 5260TIP3    H115786   2.055   4.578   1.914
 5260TIP3    H215787   2.035   4.535   1.770
 5261TIP3   OH215788   1.578   4.318   0.050
 5261TIP3    H115789   1.600   4.347  -0.038
 5261TIP3    H215790   1.483   4.303   0.047
 5262TIP3   OH215791   1.445   4.163   1.752
 5262TIP3    H115792   1.424   4.213   1.673
 5262TIP3    H215793   1.361   4.156   1.798
 5263TIP3   OH215794   2.627   1.499   2.034
 5263TIP3    H115795   2.643   1.592   2.015
 5263TIP3    H215796   2.615   1.496   2.129
 5264TIP3   OH215797   0.076   5.692   2.870
 5264TIP3    H115798   0.096   5.685   2.963
 5264TIP3    H215799   0.031   5.777   2.862
 5265TIP3   OH215800   6.347   1.072   4.190
 5265TIP3    H115801   6.252   1.080   4.198
 5265TIP3    H215802   6.374   1.023   4.267
 5266TIP3   OH215803   1.393   4.056   1.308
 5266TIP3    H115804   1.348   4.030   1.389
 5266TIP3    H215805   1.332   4.116   1.266
 5267TIP3   OH215806   1.789   3.432   4.406
 5267TIP3    H115807   1.814   3.469   4.491
 5267TIP3    H215808   1.872   3.402   4.368
 5268TIP3   OH215809   0.960   1.960   3.085
 5268TIP3    H115810   0.932   2.050   3.069
 5268TIP3    H215811   1.044   1.969   3.129
 5269TIP3   OH215812   4.207   3.475   2.123
 5269TIP3    H115813   4.113   3.476   2.140
 5269TIP3    H215814   4.218   3.408   2.056
 5270TIP3   OH215815   1.847   0.677   0.354
 5270TIP3    H115816   1.866   0.771   0.360
 5270TIP3    H215817   1.764   0.672   0.307
 5271TIP3   OH215818   3.312   3.500   4.390
 5271TIP3    H115819   3.226   3.462   4.410
 5271TIP3    H215820   3.355   3.435   4.335
 5272TIP3   OH215821   4.532   4.040   1.543
 5272TIP3    H115822   4.514   4.132   1.563
 5272TIP3    H215823   4.620   4.024   1.577
 5273TIP3   OH215824   1.759   3.808   2.276
 5273TIP3    H115825   1.787   3.840   2.362
 5273TIP3    H215826   1.837   3.768   2.238
 5274TIP3   OH215827   3.366   0.832   4.558
 5274TIP3    H115828   3.334   0.813   4.646
 5274TIP3    H215829   3.373   0.746   4.516
 5275TIP3   OH215830   2.266   0.811   2.759
 5275TIP3    H115831   2.287   0.904   2.758
 5275TIP3    H215832   2.170   0.808   2.750
 5276TIP3   OH215833   2.148   5.253   0.027
 5276TIP3    H115834   2.151   5.341   0.065
 5276TIP3    H215835   2.234   5.216   0.047
 5277TIP3   OH215836   3.410   4.305   2.318
 5277TIP3    H115837   3.426   4.392   2.355
 5277TIP3    H215838   3.388   4.322   2.227
 5278TIP3   OH215839   3.706   4.815   2.595
 5278TIP3    H115840   3.709   4.884   2.529
 5278TIP3    H215841   3.685   4.736   2.546
 5279TIP3   OH215842   5.839   0.404   2.345
 5279TIP3    H115843   5.915   0.438   2.393
 5279TIP3    H215844   5.806   0.480   2.296
 5280TIP3   OH215845   0.742   5.054   0.536
 5280TIP3    H115846   0.763   5.120   0.602
 5280TIP3    H215847   0.824   5.007   0.522
 5281TIP3   OH215848   4.538   3.373   1.993
 5281TIP3    H115849   4.471   3.438   2.011
 5281TIP3    H215850   4.539   3.365   1.898
 5282TIP3   OH215851   1.667   2.775   2.802
 5282TIP3    H115852   1.659   2.712   2.731
 5282TIP3    H215853   1.717   2.848   2.766
 5283TIP3   OH215854   4.993   5.452   0.301
 5283TIP3    H115855   4.934   5.518   0.265
 5283TIP3    H215856   5.080   5.490   0.292
 5284TIP3   OH215857   2.885   0.650   0.285
 5284TIP3    H115858   2.899   0.689   0.372
 5284TIP3    H215859   2.853   0.562   0.304
 5285TIP3   OH215860   5.390   4.901   0.950
 5285TIP3    H115861   5.351   4.813   0.951
 5285TIP3    H215862   5.319   4.958   0.921
 5286TIP3   OH215863   0.658   1.719   5.156
 5286TIP3    H115864   0.610   1.750   5.079
 5286TIP3    H215865   0.633   1.628   5.165
 5287TIP3   OH215866   5.633   4.198   0.124
 5287TIP3    H115867   5.655   4.208   0.032
 5287TIP3    H215868   5.560   4.257   0.139
 5288TIP3   OH215869   3.334   2.672   2.183
 5288TIP3    H115870   3.255   2.647   2.231
 5288TIP3    H215871   3.373   2.589   2.157
 5289TIP3   OH215872   2.033   1.070   1.451
 5289TIP3    H115873   2.089   1.015   1.507
 5289TIP3    H215874   1.944   1.046   1.474
 5290TIP3   OH215875   2.056   3.825   3.695
 5290TIP3    H115876   2.056   3.919   3.680
 5290TIP3    H215877   1.980   3.810   3.751
 5291TIP3   OH215878   4.576   2.876   2.498
 5291TIP3    H115879   4.510   2.815   2.531
 5291TIP3    H215880   4.629   2.824   2.437
 5292TIP3   OH215881   1.018   0.731   0.602
 5292TIP3    H115882   1.016   0.659   0.539
 5292TIP3    H215883   0.929   0.733   0.637
 5293TIP3   OH215884   3.565   3.372   1.715
 5293TIP3    H115885   3.504   3.440   1.685
 5293TIP3    H215886   3.596   3.331   1.634
 5294TIP3   OH215887   3.026   3.712   0.937
 5294TIP3    H115888   2.986   3.683   1.020
 5294TIP3    H215889   2.964   3.775   0.901
 5295TIP3   OH215890   2.120   4.878   3.331
 5295TIP3    H115891   2.046   4.909   3.383
 5295TIP3    H215892   2.184   4.949   3.335
 5296TIP3   OH215893   6.055   3.091   1.358
 5296TIP3    H115894   5.967   3.080   1.394
 5296TIP3    H215895   6.050   3.055   1.270
 5297TIP3   OH215896   2.953   4.712   5.030
 5297TIP3    H115897   2.895   4.642   5.000
 5297TIP3    H215898   3.015   4.669   5.088
 5298TIP3   OH215899   3.089   5.088   3.658
 5298TIP3    H115900   3.066   5.180   3.672
 5298TIP3    H215901   3.140   5.089   3.576
 5299TIP3   OH215902   5.399   5.440   2.128
 5299TIP3    H115903   5.410   5.531   2.156
 5299TIP3    H215904   5.311   5.416   2.158
 5300TIP3   OH215905   3.276   0.187   1.635
 5300TIP3    H115906   3.338   0.214   1.568
 5300TIP3    H215907   3.300   0.238   1.713
 5301TIP3   OH215908   0.807   3.164   1.762
 5301TIP3    H115909   0.760   3.151   1.679
 5301TIP3    H215910   0.738   3.163   1.829
 5302TIP3   OH215911   2.067   0.321   0.569
 5302TIP3    H115912   1.987   0.373   0.576
 5302TIP3    H215913   2.050   0.262   0.496
 5303TIP3   OH215914   3.783   4.987   3.139
 5303TIP3    H115915   3.823   4.902   3.121
 5303TIP3    H215916   3.754   5.018   3.053
 5304TIP3   OH215917   5.347   1.773   3.570
 5304TIP3    H115918   5.270   1.813   3.530
 5304TIP3    H215919   5.332   1.784   3.664
 5305TIP3   OH215920   5.828   5.530   1.670
 5305TIP3    H115921   5.834   5.457   1.732
 5305TIP3    H215922   5.890   5.595   1.703
 5306TIP3   OH215923   3.389   3.091   2.913
 5306TIP3    H115924   3.313   3.140   2.880
 5306TIP3    H215925   3.406   3.130   2.999
 5307TIP3   OH215926   3.422   5.797   5.114
 5307TIP3    H115927   3.509   5.819   5.080
 5307TIP3    H215928   3.381   5.881   5.133
 5308TIP3   OH215929   6.308   1.141   3.903
 5308TIP3    H115930   6.270   1.157   3.990
 5308TIP3    H215931   6.247   1.184   3.843
 5309TIP3   OH215932   5.327   4.927   1.660
 5309TIP3    H115933   5.382   4.885   1.726
 5309TIP3    H215934   5.375   4.916   1.578
 5310TIP3   OH215935   0.448   3.940   3.912
 5310TIP3    H115936   0.405   4.009   3.862
 5310TIP3    H215937   0.518   3.984   3.959
 5311TIP3   OH215938   4.173   5.273   5.228
 5311TIP3    H115939   4.226   5.271   5.308
 5311TIP3    H215940   4.191   5.189   5.186
 5312TIP3   OH215941   3.580   2.165   2.520
 5312TIP3    H115942   3.618   2.209   2.444
 5312TIP3    H215943   3.646   2.101   2.546
 5313TIP3   OH215944   0.682   3.454   1.121
 5313TIP3    H115945   0.763   3.481   1.165
 5313TIP3    H215946   0.640   3.536   1.096
 5314TIP3   OH215947   3.900   5.517   1.165
 5314TIP3    H115948   3.855   5.583   1.218
 5314TIP3    H215949   3.990   5.518   1.197
 5315TIP3   OH215950   5.555   0.840   3.236
 5315TIP3    H115951   5.598   0.822   3.153
 5315TIP3    H215952   5.494   0.768   3.249
 5316TIP3   OH215953   0.494   3.196   2.306
 5316TIP3    H115954   0.553   3.152   2.367
 5316TIP3    H215955   0.457   3.126   2.252
 5317TIP3   OH215956   2.265   2.211   4.923
 5317TIP3    H115957   2.258   2.238   5.015
 5317TIP3    H215958   2.358   2.199   4.908
 5318TIP3   OH215959   2.957   1.300   2.210
 5318TIP3    H115960   3.021   1.251   2.260
 5318TIP3    H215961   2.909   1.351   2.275
 5319TIP3   OH215962   4.262   4.252   2.389
 5319TIP3    H115963   4.167   4.255   2.397
 5319TIP3    H215964   4.278   4.249   2.294
 5320TIP3   OH215965   3.912   5.564   3.490
 5320TIP3    H115966   3.914   5.485   3.436
 5320TIP3    H215967   3.838   5.551   3.549
 5321TIP3   OH215968   1.797   3.248   1.394
 5321TIP3    H115969   1.871   3.270   1.337
 5321TIP3    H215970   1.777   3.331   1.438
 5322TIP3   OH215971   1.882   4.163   4.943
 5322TIP3    H115972   1.954   4.205   4.991
 5322TIP3    H215973   1.925   4.107   4.879
 5323TIP3   OH215974   4.038   1.953   4.216
 5323TIP3    H115975   4.037   1.861   4.191
 5323TIP3    H215976   3.989   1.998   4.147
 5324TIP3   OH215977   0.476   4.478   3.263
 5324TIP3    H115978   0.555   4.443   3.221
 5324TIP3    H215979   0.407   4.418   3.238
 5325TIP3   OH215980   3.707   2.330   1.298
 5325TIP3    H115981   3.684   2.238   1.280
 5325TIP3    H215982   3.741   2.363   1.215
 5326TIP3   OH215983   3.253   2.945   2.355
 5326TIP3    H115984   3.236   2.940   2.449
 5326TIP3    H215985   3.317   2.876   2.338
 5327TIP3   OH215986   2.671   2.037   2.145
 5327TIP3    H115987   2.765   2.025   2.159
 5327TIP3    H215988   2.630   1.997   2.222
 5328TIP3   OH215989   4.535   5.341   4.696
 5328TIP3    H115990   4.623   5.360   4.665
 5328TIP3    H215991   4.477   5.370   4.626
 5329TIP3   OH215992   2.745   3.445   3.049
 5329TIP3    H115993   2.731   3.352   3.034
 5329TIP3    H215994   2.826   3.450   3.100
 5330TIP3   OH215995   4.097   1.835   3.177
 5330TIP3    H115996   4.027   1.865   3.236
 5330TIP3    H215997   4.152   1.780   3.233
 5331TIP3   OH215998   2.986   2.538   1.822
 5331TIP3    H115999   2.983   2.501   1.734
 5331TIP3    H216000   3.047   2.611   1.815
 5332TIP3   OH216001   6.150   2.687   2.652
 5332TIP3    H116002   6.106   2.720   2.574
 5332TIP3    H216003   6.239   2.667   2.624
 5333TIP3   OH216004   3.086   0.216   4.383
 5333TIP3    H116005   3.149   0.230   4.454
 5333TIP3    H216006   3.044   0.301   4.372
 5334TIP3   OH216007   4.800   1.891   3.733
 5334TIP3    H116008   4.778   1.819   3.674
 5334TIP3    H216009   4.769   1.970   3.687
 5335TIP3   OH216010   1.819   5.618   1.463
 5335TIP3    H116011   1.746   5.579   1.511
 5335TIP3    H216012   1.875   5.544   1.441
 5336TIP3   OH216013   3.759   5.013   2.383
 5336TIP3    H116014   3.686   5.065   2.416
 5336TIP3    H216015   3.765   5.034   2.290
 5337TIP3   OH216016   5.674   5.299   5.202
 5337TIP3    H116017   5.619   5.223   5.215
 5337TIP3    H216018   5.736   5.273   5.133
 5338TIP3   OH216019   4.420   2.984   3.492
 5338TIP3    H116020   4.395   2.990   3.584
 5338TIP3    H216021   4.337   2.990   3.444
 5339TIP3   OH216022   4.870   4.991   1.348
 5339TIP3    H116023   4.871   5.051   1.422
 5339TIP3    H216024   4.962   4.967   1.335
 5340TIP3   OH216025   4.799   4.884   4.158
 5340TIP3    H116026   4.763   4.971   4.139
 5340TIP3    H216027   4.723   4.833   4.188
 5341TIP3   OH216028   2.623   0.188   4.210
 5341TIP3    H116029   2.701   0.139   4.183
 5341TIP3    H216030   2.568   0.122   4.252
 5342TIP3   OH216031   4.756   4.510   4.819
 5342TIP3    H116032   4.814   4.551   4.884
 5342TIP3    H216033   4.670   4.547   4.837
 5343TIP3   OH216034   4.959   1.214   3.391
 5343TIP3    H116035   4.885   1.181   3.443
 5343TIP3    H216036   4.967   1.306   3.417
 5344TIP3   OH216037   4.466   5.091   0.768
 5344TIP3    H116038   4.428   5.120   0.685
 5344TIP3    H216039   4.393   5.051   0.816
 5345TIP3   OH216040   3.585   4.247   2.983
 5345TIP3    H116041   3.578   4.162   2.939
 5345TIP3    H216042   3.569   4.227   3.075
 5346TIP3   OH216043   1.680   5.902   2.243
 5346TIP3    H116044   1.734   5.981   2.254
 5346TIP3    H216045   1.649   5.907   2.153
 5347TIP3   OH216046   3.858   1.981   0.409
 5347TIP3    H116047   3.818   2.068   0.411
 5347TIP3    H216048   3.833   1.946   0.323
 5348TIP3   OH216049   0.107   0.337   4.254
 5348TIP3    H116050   0.187   0.362   4.208
 5348TIP3    H216051   0.129   0.347   4.347
 5349TIP3   OH216052   0.297   3.639   4.211
 5349TIP3    H116053   0.376   3.586   4.208
 5349TIP3    H216054   0.323   3.719   4.256
 5350TIP3   OH216055   3.295   5.082   2.074
 5350TIP3    H116056   3.378   5.117   2.107
 5350TIP3    H216057   3.244   5.065   2.154
 5351TIP3   OH216058   2.433   3.609   5.118
 5351TIP3    H116059   2.491   3.534   5.107
 5351TIP3    H216060   2.368   3.579   5.182
 5352TIP3   OH216061   2.664   3.759   2.952
 5352TIP3    H116062   2.633   3.792   3.037
 5352TIP3    H216063   2.739   3.814   2.932
 5353TIP3   OH216064   4.178   5.562   3.130
 5353TIP3    H116065   4.162   5.497   3.199
 5353TIP3    H216066   4.273   5.563   3.119
 5354TIP3   OH216067   4.696   2.611   2.500
 5354TIP3    H116068   4.765   2.653   2.449
 5354TIP3    H216069   4.671   2.534   2.448
 5355TIP3   OH216070   0.338   4.515   0.409
 5355TIP3    H116071   0.333   4.553   0.321
 5355TIP3    H216072   0.411   4.561   0.451
 5356TIP3   OH216073   2.487   1.538   3.212
 5356TIP3    H116074   2.527   1.609   3.263
 5356TIP3    H216075   2.402   1.573   3.185
 5357TIP3   OH216076   1.765   5.309   4.346
 5357TIP3    H116077   1.684   5.270   4.313
 5357TIP3    H216078   1.763   5.399   4.313
 5358TIP3   OH216079   1.711   1.861   3.436
 5358TIP3    H116080   1.674   1.912   3.508
 5358TIP3    H216081   1.654   1.784   3.428
 5359TIP3   OH216082   4.105   4.255   2.790
 5359TIP3    H116083   4.084   4.332   2.738
 5359TIP3    H216084   4.021   4.223   2.821
 5360TIP3   OH216085   4.454   0.780   0.736
 5360TIP3    H116086   4.397   0.854   0.717
 5360TIP3    H216087   4.481   0.748   0.650
 5361TIP3   OH216088   4.760   5.588   0.133
 5361TIP3    H116089   4.684   5.642   0.158
 5361TIP3    H216090   4.734   5.499   0.156
 5362TIP3   OH216091   6.074   1.431   1.000
 5362TIP3    H116092   6.108   1.508   0.954
 5362TIP3    H216093   6.046   1.372   0.930
 5363TIP3   OH216094   3.259   4.459   2.076
 5363TIP3    H116095   3.272   4.442   1.983
 5363TIP3    H216096   3.315   4.535   2.094
 5364TIP3   OH216097   4.517   5.623   4.154
 5364TIP3    H116098   4.577   5.551   4.135
 5364TIP3    H216099   4.562   5.675   4.221
 5365TIP3   OH216100   3.205   0.708   1.959
 5365TIP3    H116101   3.190   0.627   2.009
 5365TIP3    H216102   3.143   0.771   1.997
 5366TIP3   OH216103   3.371   0.177   3.017
 5366TIP3    H116104   3.292   0.144   2.975
 5366TIP3    H216105   3.346   0.191   3.108
 5367TIP3   OH216106   3.084   0.514   2.129
 5367TIP3    H116107   3.131   0.540   2.208
 5367TIP3    H216108   3.127   0.434   2.100
 5368TIP3   OH216109   5.888   4.515   1.723
 5368TIP3    H116110   5.845   4.539   1.805
 5368TIP3    H216111   5.916   4.424   1.737
 5369TIP3   OH216112   0.852   5.563   3.305
 5369TIP3    H116113   0.793   5.636   3.284
 5369TIP3    H216114   0.804   5.485   3.277
 5370TIP3   OH216115   5.754   4.673   0.209
 5370TIP3    H116116   5.790   4.761   0.221
 5370TIP3    H216117   5.687   4.666   0.277
 5371TIP3   OH216118   0.037   0.280   3.593
 5371TIP3    H116119   0.123   0.262   3.632
 5371TIP3    H216120   0.054   0.347   3.526
 5372TIP3   OH216121   5.623   1.667   4.616
 5372TIP3    H116122   5.654   1.714   4.539
 5372TIP3    H216123   5.550   1.614   4.585
 5373TIP3   OH216124   2.556   4.653   1.070
 5373TIP3    H116125   2.537   4.567   1.107
 5373TIP3    H216126   2.652   4.659   1.071
 5374TIP3   OH216127   4.969   0.442   3.034
 5374TIP3    H116128   5.018   0.463   2.954
 5374TIP3    H216129   4.980   0.519   3.089
 5375TIP3   OH216130   6.156   5.338   4.737
 5375TIP3    H116131   6.181   5.312   4.826
 5375TIP3    H216132   6.122   5.258   4.698
 5376TIP3   OH216133   3.812   5.414   4.122
 5376TIP3    H116134   3.807   5.327   4.082
 5376TIP3    H216135   3.825   5.397   4.215
 5377TIP3   OH216136   5.853   3.240   1.721
 5377TIP3    H116137   5.761   3.248   1.697
 5377TIP3    H216138   5.898   3.302   1.664
 5378TIP3   OH216139   6.089   2.411   1.466
 5378TIP3    H116140   6.035   2.393   1.390
 5378TIP3    H216141   6.103   2.506   1.465
 5379TIP3   OH216142   4.569   3.880   1.958
 5379TIP3    H116143   4.578   3.791   1.993
 5379TIP3    H216144   4.657   3.918   1.968
 5380TIP3   OH216145   3.542   2.761   4.133
 5380TIP3    H116146   3.610   2.771   4.200
 5380TIP3    H216147   3.461   2.783   4.179
 5381TIP3   OH216148   5.272   3.509   2.701
 5381TIP3    H116149   5.228   3.591   2.724
 5381TIP3    H216150   5.288   3.466   2.785
 5382TIP3   OH216151   2.055   1.248   0.128
 5382TIP3    H116152   2.113   1.217   0.059
 5382TIP3    H216153   2.092   1.213   0.209
 5383TIP3   OH216154   1.744   1.509   4.542
 5383TIP3    H116155   1.680   1.569   4.580
 5383TIP3    H216156   1.721   1.424   4.578
 5384TIP3   OH216157   4.225   4.677   1.973
 5384TIP3    H116158   4.141   4.636   1.954
 5384TIP3    H216159   4.265   4.691   1.888
 5385TIP3   OH216160   2.855   4.909   3.620
 5385TIP3    H116161   2.875   4.827   3.574
 5385TIP3    H216162   2.935   4.929   3.669
 5386TIP3   OH216163   0.369   5.147   0.627
 5386TIP3    H116164   0.404   5.144   0.538
 5386TIP3    H216165   0.274   5.150   0.615
 5387TIP3   OH216166   6.098   0.486   2.422
 5387TIP3    H116167   6.129   0.481   2.513
 5387TIP3    H216168   6.072   0.577   2.411
 5388TIP3   OH216169   1.170   5.129   1.363
 5388TIP3    H116170   1.144   5.101   1.450
 5388TIP3    H216171   1.202   5.219   1.375
 5389TIP3   OH216172   5.708   3.429   1.028
 5389TIP3    H116173   5.780   3.492   1.033
 5389TIP3    H216174   5.633   3.477   1.063
 5390TIP3   OH216175   5.510   5.556   0.645
 5390TIP3    H116176   5.479   5.466   0.632
 5390TIP3    H216177   5.605   5.548   0.656
 5391TIP3   OH216178   0.392   0.152   0.900
 5391TIP3    H116179   0.331   0.180   0.832
 5391TIP3    H216180   0.344   0.084   0.949
 5392TIP3   OH216181   3.165   2.013   3.031
 5392TIP3    H116182   3.239   2.028   2.971
 5392TIP3    H216183   3.205   2.009   3.118
 5393TIP3   OH216184   0.964   4.853   2.882
 5393TIP3    H116185   0.930   4.763   2.879
 5393TIP3    H216186   1.053   4.842   2.915
 5394TIP3   OH216187   2.371   1.397   3.914
 5394TIP3    H116188   2.463   1.422   3.923
 5394TIP3    H216189   2.330   1.424   3.996
 5395TIP3   OH216190   0.377   4.127   0.901
 5395TIP3    H116191   0.363   4.096   0.990
 5395TIP3    H216192   0.471   4.139   0.894
 5396TIP3   OH216193   6.248   5.617   1.576
 5396TIP3    H116194   6.223   5.698   1.622
 5396TIP3    H216195   6.272   5.557   1.647
 5397TIP3   OH216196   3.854   0.972   2.071
 5397TIP3    H116197   3.820   0.974   1.981
 5397TIP3    H216198   3.804   0.903   2.114
 5398TIP3   OH216199   2.109   4.841   2.873
 5398TIP3    H116200   2.084   4.824   2.964
 5398TIP3    H216201   2.124   4.754   2.836
 5399TIP3   OH216202   2.296   1.934   3.494
 5399TIP3    H116203   2.240   2.006   3.523
 5399TIP3    H216204   2.384   1.959   3.523
 5400TIP3   OH216205   2.167   4.788   2.526
 5400TIP3    H116206   2.203   4.706   2.561
 5400TIP3    H216207   2.221   4.856   2.566
 5401TIP3   OH216208   3.668   3.322   3.888
 5401TIP3    H116209   3.633   3.405   3.921
 5401TIP3    H216210   3.762   3.327   3.904
 5402TIP3   OH216211   4.777   4.611   3.590
 5402TIP3    H116212   4.795   4.638   3.500
 5402TIP3    H216213   4.762   4.516   3.584
 5403TIP3   OH216214   2.921   3.279   3.794
 5403TIP3    H116215   2.899   3.214   3.862
 5403TIP3    H216216   2.960   3.227   3.723
 5404TIP3   OH216217   3.462   5.311   0.562
 5404TIP3    H116218   3.472   5.221   0.531
 5404TIP3    H216219   3.520   5.317   0.638
 5405TIP3   OH216220   6.407   4.408   0.345
 5405TIP3    H116221   6.490   4.456   0.336
 5405TIP3    H216222   6.341   4.476   0.359
 5406TIP3   OH216223   5.404   5.713   2.214
 5406TIP3    H116224   5.330   5.704   2.274
 5406TIP3    H216225   5.467   5.768   2.262
 5407TIP3   OH216226   3.670   3.125   3.231
 5407TIP3    H116227   3.676   3.194   3.297
 5407TIP3    H216228   3.581   3.130   3.198
 5408TIP3   OH216229   1.504   0.259   4.723
 5408TIP3    H116230   1.534   0.182   4.772
 5408TIP3    H216231   1.409   0.261   4.738
 5409TIP3   OH216232   3.398   1.547   2.013
 5409TIP3    H116233   3.326   1.530   2.074
 5409TIP3    H216234   3.461   1.477   2.031
 5410TIP3   OH216235   2.167   4.116   2.047
 5410TIP3    H116236   2.231   4.104   1.977
 5410TIP3    H216237   2.106   4.042   2.037
 5411TIP3   OH216238   1.811   5.098   0.542
 5411TIP3    H116239   1.740   5.108   0.479
 5411TIP3    H216240   1.869   5.172   0.525
 5412TIP3   OH216241   3.732   5.462   3.658
 5412TIP3    H116242   3.664   5.466   3.725
 5412TIP3    H216243   3.768   5.374   3.665
 5413TIP3   OH216244   0.546   0.084   0.604
 5413TIP3    H116245   0.548  -0.007   0.633
 5413TIP3    H216246   0.552   0.135   0.685
 5414TIP3   OH216247   4.004   0.870   4.701
 5414TIP3    H116248   4.026   0.831   4.785
 5414TIP3    H216249   3.936   0.935   4.722
 5415TIP3   OH216250   0.694   2.630   3.133
 5415TIP3    H116251   0.718   2.571   3.205
 5415TIP3    H216252   0.661   2.708   3.176
 5416TIP3   OH216253   1.330   0.102   0.838
 5416TIP3    H116254   1.264   0.067   0.778
 5416TIP3    H216255   1.342   0.034   0.904
 5417TIP3   OH216256   0.255   1.117   3.687
 5417TIP3    H116257   0.275   1.025   3.703
 5417TIP3    H216258   0.160   1.120   3.675
 5418TIP3   OH216259   0.131   2.755   0.722
 5418TIP3    H116260   0.148   2.668   0.686
 5418TIP3    H216261   0.200   2.769   0.786
 5419TIP3   OH216262   3.550   1.096   3.625
 5419TIP3    H116263   3.462   1.134   3.629
 5419TIP3    H216264   3.545   1.031   3.555
 5420TIP3   OH216265   5.279   2.633   4.417
 5420TIP3    H116266   5.272   2.670   4.506
 5420TIP3    H216267   5.291   2.539   4.431
 5421TIP3   OH216268   2.761   0.863   4.357
 5421TIP3    H116269   2.856   0.856   4.368
 5421TIP3    H216270   2.737   0.945   4.400
 5422TIP3   OH216271   5.098   5.001   4.402
 5422TIP3    H116272   5.150   4.961   4.472
 5422TIP3    H216273   5.156   5.065   4.362
 5423TIP3   OH216274   2.000   5.479   2.329
 5423TIP3    H116275   2.068   5.486   2.262
 5423TIP3    H216276   1.933   5.541   2.302
 5424TIP3   OH216277   1.640   0.077   4.857
 5424TIP3    H116278   1.620  -0.009   4.894
 5424TIP3    H216279   1.706   0.060   4.790
 5425TIP3   OH216280   0.667   5.524   4.949
 5425TIP3    H116281   0.729   5.452   4.962
 5425TIP3    H216282   0.603   5.514   5.020
 5426TIP3   OH216283   4.984   2.654   3.194
 5426TIP3    H116284   4.916   2.639   3.259
 5426TIP3    H216285   4.948   2.616   3.113
 5427TIP3   OH216286   2.087   1.758   4.625
 5427TIP3    H116287   2.046   1.683   4.670
 5427TIP3    H216288   2.125   1.720   4.545
 5428TIP3   OH216289   3.060   4.246   3.365
 5428TIP3    H116290   2.991   4.200   3.412
 5428TIP3    H216291   3.014   4.309   3.310
 5429TIP3   OH216292   5.903   2.391   2.429
 5429TIP3    H116293   5.848   2.422   2.357
 5429TIP3    H216294   5.926   2.301   2.404
 5430TIP3   OH216295   0.433   1.491   3.073
 5430TIP3    H116296   0.408   1.421   3.134
 5430TIP3    H216297   0.527   1.502   3.088
 5431TIP3   OH216298   4.616   1.456   1.030
 5431TIP3    H116299   4.559   1.491   0.962
 5431TIP3    H216300   4.683   1.523   1.043
 5432TIP3   OH216301   5.882   3.080   3.290
 5432TIP3    H116302   5.840   3.162   3.316
 5432TIP3    H216303   5.888   3.030   3.371
 5433TIP3   OH216304   2.437   5.122   3.817
 5433TIP3    H116305   2.443   5.108   3.911
 5433TIP3    H216306   2.486   5.049   3.778
 5434TIP3   OH216307   5.892   4.308   2.190
 5434TIP3    H116308   5.961   4.354   2.237
 5434TIP3    H216309   5.814   4.320   2.245
 5435TIP3   OH216310   5.429   4.720   3.991
 5435TIP3    H116311   5.457   4.636   4.027
 5435TIP3    H216312   5.401   4.700   3.902
 5436TIP3   OH216313   4.216   5.208   1.816
 5436TIP3    H116314   4.188   5.131   1.767
 5436TIP3    H216315   4.150   5.218   1.884
 5437TIP3   OH216316   2.554   4.875   1.920
 5437TIP3    H116317   2.645   4.860   1.893
 5437TIP3    H216318   2.504   4.810   1.871
 5438TIP3   OH216319   1.736   0.131   4.399
 5438TIP3    H116320   1.777   0.182   4.329
 5438TIP3    H216321   1.654   0.099   4.361
 5439TIP3   OH216322   3.352   3.289   1.042
 5439TIP3    H116323   3.358   3.323   0.953
 5439TIP3    H216324   3.442   3.265   1.065
 5440TIP3   OH216325   4.722   5.159   4.265
 5440TIP3    H116326   4.642   5.110   4.282
 5440TIP3    H216327   4.732   5.218   4.339
 5441TIP3   OH216328   3.518   2.880   1.190
 5441TIP3    H116329   3.424   2.864   1.188
 5441TIP3    H216330   3.558   2.794   1.201
 5442TIP3   OH216331   3.274   5.837   2.318
 5442TIP3    H116332   3.273   5.846   2.413
 5442TIP3    H216333   3.349   5.890   2.290
 5443TIP3   OH216334   3.963   3.230   3.324
 5443TIP3    H116335   3.976   3.266   3.237
 5443TIP3    H216336   3.965   3.307   3.382
 5444TIP3   OH216337   4.938   4.046   5.139
 5444TIP3    H116338   4.852   4.060   5.180
 5444TIP3    H216339   4.953   3.952   5.147
 5445TIP3   OH216340   1.035   3.508   3.701
 5445TIP3    H116341   1.116   3.543   3.738
 5445TIP3    H216342   1.004   3.576   3.641
 5446TIP3   OH216343   3.596   3.533   0.237
 5446TIP3    H116344   3.604   3.585   0.158
 5446TIP3    H216345   3.549   3.589   0.299
 5447TIP3   OH216346   0.172   5.211   2.787
 5447TIP3    H116347   0.169   5.264   2.866
 5447TIP3    H216348   0.113   5.255   2.726
 5448TIP3   OH216349   2.746   1.003   5.045
 5448TIP3    H116350   2.722   0.953   5.124
 5448TIP3    H216351   2.831   0.966   5.019
 5449TIP3   OH216352   4.581   0.426   0.983
 5449TIP3    H116353   4.542   0.338   0.980
 5449TIP3    H216354   4.562   0.463   0.896
 5450TIP3   OH216355   0.045   4.179   2.628
 5450TIP3    H116356   0.039   4.084   2.620
 5450TIP3    H216357   0.016   4.198   2.717
 5451TIP3   OH216358   0.555   4.179   4.026
 5451TIP3    H116359   0.618   4.202   3.958
 5451TIP3    H216360   0.470   4.195   3.985
 5452TIP3   OH216361   4.924   3.111   2.870
 5452TIP3    H116362   5.000   3.148   2.826
 5452TIP3    H216363   4.908   3.168   2.945
 5453TIP3   OH216364   4.846   1.324   1.262
 5453TIP3    H116365   4.895   1.341   1.342
 5453TIP3    H216366   4.796   1.244   1.282
 5454TIP3   OH216367   4.230   1.500   2.531
 5454TIP3    H116368   4.140   1.476   2.509
 5454TIP3    H216369   4.227   1.520   2.624
 5455TIP3   OH216370   4.370   0.921   2.155
 5455TIP3    H116371   4.332   0.924   2.243
 5455TIP3    H216372   4.296   0.930   2.096
 5456TIP3   OH216373   1.741   2.271   3.173
 5456TIP3    H116374   1.702   2.192   3.212
 5456TIP3    H216375   1.680   2.297   3.105
 5457TIP3   OH216376   2.867   3.312   1.793
 5457TIP3    H116377   2.953   3.338   1.828
 5457TIP3    H216378   2.805   3.335   1.862
 5458TIP3   OH216379   0.224   2.744   0.997
 5458TIP3    H116380   0.183   2.696   1.069
 5458TIP3    H216381   0.312   2.765   1.029
 5459TIP3   OH216382   2.558   4.703   2.815
 5459TIP3    H116383   2.540   4.647   2.889
 5459TIP3    H216384   2.632   4.662   2.770
 5460TIP3   OH216385   3.107   2.299   4.614
 5460TIP3    H116386   3.197   2.329   4.628
 5460TIP3    H216387   3.064   2.310   4.699
 5461TIP3   OH216388   5.547   0.614   5.032
 5461TIP3    H116389   5.634   0.647   5.052
 5461TIP3    H216390   5.563   0.537   4.976
 5462TIP3   OH216391   4.565   0.466   0.713
 5462TIP3    H116392   4.524   0.516   0.642
 5462TIP3    H216393   4.645   0.431   0.674
 5463TIP3   OH216394   3.723   0.757   2.500
 5463TIP3    H116395   3.778   0.723   2.571
 5463TIP3    H216396   3.681   0.679   2.463
 5464TIP3   OH216397   3.906   0.669   0.577
 5464TIP3    H116398   3.927   0.592   0.523
 5464TIP3    H216399   3.887   0.632   0.664
 5465TIP3   OH216400   5.405   4.453   4.394
 5465TIP3    H116401   5.373   4.494   4.313
 5465TIP3    H216402   5.379   4.514   4.463
 5466TIP3   OH216403   3.219   5.748   0.091
 5466TIP3    H116404   3.131   5.713   0.106
 5466TIP3    H216405   3.210   5.842   0.106
 5467TIP3   OH216406   1.757   1.186   2.922
 5467TIP3    H116407   1.705   1.249   2.873
 5467TIP3    H216408   1.805   1.239   2.986
 5468TIP3   OH216409   5.542   2.411   0.698
 5468TIP3    H116410   5.450   2.430   0.714
 5468TIP3    H216411   5.550   2.317   0.711
 5469TIP3   OH216412   2.396   0.353   4.127
 5469TIP3    H116413   2.372   0.375   4.217
 5469TIP3    H216414   2.452   0.277   4.135
 5470TIP3   OH216415   0.942   5.957   3.553
 5470TIP3    H116416   0.981   5.875   3.583
 5470TIP3    H216417   1.006   6.024   3.577
 5471TIP3   OH216418   1.500   4.401   5.008
 5471TIP3    H116419   1.583   4.359   4.987
 5471TIP3    H216420   1.523   4.492   5.027
 5472TIP3   OH216421   4.617   5.641   2.251
 5472TIP3    H116422   4.609   5.663   2.344
 5472TIP3    H216423   4.711   5.630   2.238
 5473TIP3   OH216424   0.623   0.911   3.658
 5473TIP3    H116425   0.703   0.963   3.645
 5473TIP3    H216426   0.644   0.854   3.732
 5474TIP3   OH216427   4.673   0.897   2.892
 5474TIP3    H116428   4.671   0.804   2.915
 5474TIP3    H216429   4.766   0.918   2.884
 5475TIP3   OH216430   1.035   1.004   3.836
 5475TIP3    H116431   1.105   1.065   3.859
 5475TIP3    H216432   1.078   0.936   3.785
 5476TIP3   OH216433   5.440   3.550   1.772
 5476TIP3    H116434   5.453   3.457   1.750
 5476TIP3    H216435   5.429   3.551   1.867
 5477TIP3   OH216436   3.033   0.493   4.851
 5477TIP3    H116437   3.119   0.452   4.840
 5477TIP3    H216438   2.971   0.426   4.823
 5478TIP3   OH216439   3.080   1.113   1.796
 5478TIP3    H116440   3.062   1.020   1.809
 5478TIP3    H216441   3.163   1.115   1.749
 5479TIP3   OH216442   5.944   2.169   1.020
 5479TIP3    H116443   5.952   2.077   1.045
 5479TIP3    H216444   5.854   2.176   0.987
 5480TIP3   OH216445   0.966   3.233   4.365
 5480TIP3    H116446   1.056   3.222   4.394
 5480TIP3    H216447   0.915   3.233   4.446
 5481TIP3   OH216448   1.694   2.671   3.229
 5481TIP3    H116449   1.731   2.592   3.269
 5481TIP3    H216450   1.731   2.743   3.279
 5482TIP3   OH216451   4.743   1.921   2.571
 5482TIP3    H116452   4.733   1.826   2.571
 5482TIP3    H216453   4.773   1.943   2.483
 5483TIP3   OH216454   2.712   2.357   3.820
 5483TIP3    H116455   2.758   2.356   3.736
 5483TIP3    H216456   2.620   2.370   3.797
 5484TIP3   OH216457   0.589   3.367   1.976
 5484TIP3    H116458   0.670   3.322   1.999
 5484TIP3    H216459   0.616   3.440   1.921
 5485TIP3   OH216460   5.156   2.888   3.205
 5485TIP3    H116461   5.104   2.840   3.269
 5485TIP3    H216462   5.231   2.831   3.187
 5486TIP3   OH216463   3.371   0.705   1.570
 5486TIP3    H116464   3.426   0.744   1.638
 5486TIP3    H216465   3.307   0.773   1.550
 5487TIP3   OH216466   2.201   0.141   2.385
 5487TIP3    H116467   2.203   0.235   2.400
 5487TIP3    H216468   2.124   0.110   2.433
 5488TIP3   OH216469   0.056   3.931   0.153
 5488TIP3    H116470  -0.009   3.889   0.210
 5488TIP3    H216471   0.051   3.882   0.071
 5489TIP3   OH216472   0.427   6.001   3.725
 5489TIP3    H116473   0.453   5.947   3.651
 5489TIP3    H216474   0.478   5.968   3.798
 5490TIP3   OH216475   3.517   3.006   4.322
 5490TIP3    H116476   3.504   2.974   4.411
 5490TIP3    H216477   3.442   2.971   4.273
 5491TIP3   OH216478   3.335   5.122   2.637
 5491TIP3    H116479   3.296   5.037   2.657
 5491TIP3    H216480   3.260   5.178   2.617
 5492TIP3   OH216481   2.399   5.538   3.817
 5492TIP3    H116482   2.358   5.600   3.757
 5492TIP3    H216483   2.328   5.481   3.845
 5493TIP3   OH216484   4.436   4.298   1.512
 5493TIP3    H116485   4.497   4.340   1.573
 5493TIP3    H216486   4.452   4.341   1.428
 5494TIP3   OH216487   6.190   4.438   3.482
 5494TIP3    H116488   6.154   4.355   3.512
 5494TIP3    H216489   6.284   4.430   3.495
 5495TIP3   OH216490   1.300   4.715   2.148
 5495TIP3    H116491   1.239   4.691   2.078
 5495TIP3    H216492   1.245   4.758   2.214
 5496TIP3   OH216493   1.634   0.974   0.506
 5496TIP3    H116494   1.547   0.999   0.474
 5496TIP3    H216495   1.695   1.014   0.444
 5497TIP3   OH216496   5.284   4.121   0.619
 5497TIP3    H116497   5.323   4.153   0.700
 5497TIP3    H216498   5.191   4.141   0.628
 5498TIP3   OH216499   0.633   3.080   3.129
 5498TIP3    H116500   0.575   3.106   3.057
 5498TIP3    H216501   0.705   3.143   3.125
 5499TIP3   OH216502   4.359   3.823   1.569
 5499TIP3    H116503   4.383   3.736   1.535
 5499TIP3    H216504   4.423   3.882   1.530
 5500TIP3   OH216505   6.125   5.180   5.189
 5500TIP3    H116506   6.201   5.234   5.207
 5500TIP3    H216507   6.145   5.137   5.105
 5501TIP3   OH216508   4.853   3.544   1.798
 5501TIP3    H116509   4.820   3.456   1.781
 5501TIP3    H216510   4.842   3.557   1.892
 5502TIP3   OH216511   4.451   2.453   1.100
 5502TIP3    H116512   4.401   2.450   1.019
 5502TIP3    H216513   4.388   2.480   1.167
 5503TIP3   OH216514   2.111   4.294   2.839
 5503TIP3    H116515   2.193   4.247   2.857
 5503TIP3    H216516   2.089   4.335   2.922
 5504TIP3   OH216517   5.835   3.155   4.065
 5504TIP3    H116518   5.766   3.222   4.067
 5504TIP3    H216519   5.802   3.088   4.006
 5505TIP3   OH216520   1.089   4.040   3.823
 5505TIP3    H116521   1.184   4.033   3.825
 5505TIP3    H216522   1.060   3.996   3.903
 5506TIP3   OH216523   3.687   4.905   4.541
 5506TIP3    H116524   3.780   4.886   4.541
 5506TIP3    H216525   3.644   4.820   4.532
 5507TIP3   OH216526   4.500   4.520   1.958
 5507TIP3    H116527   4.497   4.598   2.013
 5507TIP3    H216528   4.441   4.458   2.001
 5508TIP3   OH216529   0.323   5.415   4.749
 5508TIP3    H116530   0.278   5.464   4.679
 5508TIP3    H216531   0.410   5.399   4.714
 5509TIP3   OH216532   4.228   3.091   3.316
 5509TIP3    H116533   4.135   3.112   3.318
 5509TIP3    H216534   4.253   3.094   3.224
 5510TIP3   OH216535   3.473   4.426   0.092
 5510TIP3    H116536   3.504   4.407   0.181
 5510TIP3    H216537   3.447   4.517   0.095
 5511TIP3   OH216538   0.581   0.238   3.360
 5511TIP3    H116539   0.620   0.151   3.354
 5511TIP3    H216540   0.537   0.250   3.275
 5512TIP3   OH216541   0.111   3.943   2.287
 5512TIP3    H116542   0.018   3.922   2.292
 5512TIP3    H216543   0.153   3.863   2.256
 5513TIP3   OH216544   1.829   2.352   3.588
 5513TIP3    H116545   1.888   2.367   3.662
 5513TIP3    H216546   1.785   2.269   3.609
 5514TIP3   OH216547   2.211   0.001   2.777
 5514TIP3    H116548   2.305  -0.011   2.792
 5514TIP3    H216549   2.193   0.089   2.810
 5515TIP3   OH216550   0.644   3.766   2.135
 5515TIP3    H116551   0.635   3.833   2.066
 5515TIP3    H216552   0.567   3.711   2.126
 5516TIP3   OH216553   5.695   3.868   4.101
 5516TIP3    H116554   5.737   3.851   4.185
 5516TIP3    H216555   5.608   3.828   4.109
 5517TIP3   OH216556   1.990   0.076   2.586
 5517TIP3    H116557   2.068   0.044   2.631
 5517TIP3    H216558   1.923   0.010   2.603
 5518TIP3   OH216559   2.335   3.890   1.385
 5518TIP3    H116560   2.389   3.969   1.394
 5518TIP3    H216561   2.395   3.818   1.401
 5519TIP3   OH216562   3.798   3.041   4.352
 5519TIP3    H116563   3.802   3.008   4.442
 5519TIP3    H216564   3.706   3.029   4.327
 5520TIP3   OH216565   3.122   5.187   0.915
 5520TIP3    H116566   3.049   5.187   0.978
 5520TIP3    H216567   3.128   5.096   0.885
 5521TIP3   OH216568   5.050   4.100   1.954
 5521TIP3    H116569   5.087   4.026   1.906
 5521TIP3    H216570   5.120   4.166   1.957
 5522TIP3   OH216571   4.601   1.730   1.825
 5522TIP3    H116572   4.676   1.720   1.883
 5522TIP3    H216573   4.535   1.775   1.879
 5523TIP3   OH216574   4.141   1.578   1.558
 5523TIP3    H116575   4.091   1.503   1.528
 5523TIP3    H216576   4.206   1.592   1.490
 5524TIP3   OH216577   1.137   2.553   3.456
 5524TIP3    H116578   1.198   2.614   3.498
 5524TIP3    H216579   1.051   2.591   3.472
 5525TIP3   OH216580   3.882   0.501   2.242
 5525TIP3    H116581   3.829   0.424   2.221
 5525TIP3    H216582   3.852   0.569   2.181
 5526TIP3   OH216583   0.925   1.866   3.757
 5526TIP3    H116584   0.853   1.812   3.789
 5526TIP3    H216585   1.003   1.813   3.770
 5527TIP3   OH216586   0.533   5.038   2.334
 5527TIP3    H116587   0.551   5.118   2.385
 5527TIP3    H216588   0.439   5.027   2.339
 5528TIP3   OH216589   2.109   4.272   3.169
 5528TIP3    H116590   2.094   4.361   3.137
 5528TIP3    H216591   2.023   4.231   3.169
 5529TIP3   OH216592   3.370   0.890   5.027
 5529TIP3    H116593   3.315   0.968   5.019
 5529TIP3    H216594   3.390   0.884   5.120
 5530TIP3   OH216595   3.238   2.129   0.993
 5530TIP3    H116596   3.228   2.218   0.961
 5530TIP3    H216597   3.245   2.138   1.088
 5531TIP3   OH216598   3.180   3.427   4.801
 5531TIP3    H116599   3.107   3.366   4.788
 5531TIP3    H216600   3.229   3.390   4.875
 5532TIP3   OH216601   5.885   0.248   1.760
 5532TIP3    H116602   5.842   0.219   1.680
 5532TIP3    H216603   5.817   0.240   1.828
 5533TIP3   OH216604   1.632   4.513   0.278
 5533TIP3    H116605   1.696   4.455   0.318
 5533TIP3    H216606   1.590   4.460   0.210
 5534TIP3   OH216607   3.183   5.182   2.326
 5534TIP3    H116608   3.171   5.249   2.259
 5534TIP3    H216609   3.204   5.231   2.405
 5535TIP3   OH216610   1.219   2.632   1.532
 5535TIP3    H116611   1.194   2.555   1.583
 5535TIP3    H216612   1.305   2.657   1.567
 5536TIP3   OH216613   2.919   2.970   2.884
 5536TIP3    H116614   2.978   2.899   2.858
 5536TIP3    H216615   2.865   2.984   2.806
 5537TIP3   OH216616   4.208   2.048   4.394
 5537TIP3    H116617   4.297   2.072   4.368
 5537TIP3    H216618   4.160   2.041   4.312
 5538TIP3   OH216619   2.256   1.983   3.219
 5538TIP3    H116620   2.318   2.046   3.255
 5538TIP3    H216621   2.240   1.921   3.290
 5539TIP3   OH216622   6.248   1.798   2.239
 5539TIP3    H116623   6.268   1.831   2.152
 5539TIP3    H216624   6.153   1.792   2.242
 5540TIP3   OH216625   1.678   4.178   2.179
 5540TIP3    H116626   1.744   4.239   2.212
 5540TIP3    H216627   1.643   4.220   2.101
 5541TIP3   OH216628   3.354   0.048   3.913
 5541TIP3    H116629   3.416   0.009   3.975
 5541TIP3    H216630   3.345   0.139   3.943
 5542TIP3   OH216631   3.410   0.461   3.792
 5542TIP3    H116632   3.318   0.489   3.792
 5542TIP3    H216633   3.431   0.449   3.700
 5543TIP3   OH216634   2.764   0.557   2.828
 5543TIP3    H116635   2.836   0.620   2.830
 5543TIP3    H216636   2.796   0.485   2.773
 5544TIP3   OH216637   1.551   4.851   3.813
 5544TIP3    H116638   1.571   4.943   3.797
 5544TIP3    H216639   1.506   4.822   3.734
 5545TIP3   OH216640   4.621   4.625   0.838
 5545TIP3    H116641   4.699   4.618   0.893
 5545TIP3    H216642   4.656   4.635   0.749
 5546TIP3   OH216643   4.412   3.905   3.226
 5546TIP3    H116644   4.446   3.856   3.151
 5546TIP3    H216645   4.476   3.891   3.296
 5547TIP3   OH216646   1.269   5.525   0.400
 5547TIP3    H116647   1.254   5.619   0.392
 5547TIP3    H216648   1.181   5.486   0.394
 5548TIP3   OH216649   0.862   0.436   0.659
 5548TIP3    H116650   0.827   0.359   0.703
 5548TIP3    H216651   0.910   0.483   0.727
 5549TIP3   OH216652   0.643   4.639   4.732
 5549TIP3    H116653   0.610   4.581   4.801
 5549TIP3    H216654   0.719   4.681   4.770
 5550TIP3   OH216655   3.625   1.564   1.512
 5550TIP3    H116656   3.535   1.550   1.484
 5550TIP3    H216657   3.676   1.565   1.431
 5551TIP3   OH216658   5.829   1.902   3.351
 5551TIP3    H116659   5.847   1.906   3.258
 5551TIP3    H216660   5.759   1.837   3.360
 5552TIP3   OH216661   5.614   2.660   4.557
 5552TIP3    H116662   5.678   2.716   4.514
 5552TIP3    H216663   5.593   2.593   4.491
 5553TIP3   OH216664   2.267   1.754   1.884
 5553TIP3    H116665   2.193   1.797   1.840
 5553TIP3    H216666   2.235   1.667   1.905
 5554TIP3   OH216667   5.329   5.560   1.635
 5554TIP3    H116668   5.344   5.512   1.553
 5554TIP3    H216669   5.234   5.563   1.643
 5555TIP3   OH216670   5.808   2.415   4.998
 5555TIP3    H116671   5.816   2.378   5.086
 5555TIP3    H216672   5.897   2.437   4.972
 5556TIP3   OH216673   3.866   4.375   0.266
 5556TIP3    H116674   3.805   4.441   0.233
 5556TIP3    H216675   3.814   4.295   0.274
 5557TIP3   OH216676   6.025   4.178   3.486
 5557TIP3    H116677   5.983   4.190   3.571
 5557TIP3    H216678   6.076   4.098   3.496
 5558TIP3   OH216679   3.786   4.728   2.071
 5558TIP3    H116680   3.708   4.761   2.027
 5558TIP3    H216681   3.770   4.635   2.083
 5559TIP3   OH216682   6.059   5.609   3.470
 5559TIP3    H116683   5.999   5.682   3.484
 5559TIP3    H216684   6.125   5.642   3.409
 5560TIP3   OH216685   0.211   2.144   1.076
 5560TIP3    H116686   0.257   2.228   1.087
 5560TIP3    H216687   0.166   2.130   1.159
 5561TIP3   OH216688   6.138   0.344   3.727
 5561TIP3    H116689   6.203   0.320   3.661
 5561TIP3    H216690   6.180   0.324   3.810
 5562TIP3   OH216691   3.645   3.099   0.615
 5562TIP3    H116692   3.607   3.063   0.695
 5562TIP3    H216693   3.607   3.047   0.545
 5563TIP3   OH216694   4.943   1.404   0.749
 5563TIP3    H116695   4.939   1.392   0.844
 5563TIP3    H216696   4.878   1.472   0.731
 5564TIP3   OH216697   4.084   4.313   4.749
 5564TIP3    H116698   4.038   4.284   4.670
 5564TIP3    H216699   4.016   4.313   4.817
 5565TIP3   OH216700   6.198   0.583   3.552
 5565TIP3    H116701   6.132   0.517   3.567
 5565TIP3    H216702   6.279   0.534   3.540
 5566TIP3   OH216703   4.716   2.257   2.971
 5566TIP3    H116704   4.676   2.224   2.890
 5566TIP3    H216705   4.675   2.205   3.040
 5567TIP3   OH216706   3.929   3.966   1.156
 5567TIP3    H116707   3.987   3.892   1.141
 5567TIP3    H216708   3.842   3.928   1.163
 5568TIP3   OH216709   3.705   1.388   1.702
 5568TIP3    H116710   3.689   1.456   1.636
 5568TIP3    H216711   3.624   1.337   1.705
 5569TIP3   OH216712   3.638   1.056   1.852
 5569TIP3    H116713   3.619   1.123   1.917
 5569TIP3    H216714   3.725   1.078   1.818
 5570TIP3   OH216715   3.497   4.645   0.725
 5570TIP3    H116716   3.509   4.640   0.820
 5570TIP3    H216717   3.438   4.719   0.713
 5571TIP3   OH216718   1.438   2.981   3.909
 5571TIP3    H116719   1.466   2.892   3.887
 5571TIP3    H216720   1.462   2.991   4.001
 5572TIP3   OH216721   1.164   3.528   4.871
 5572TIP3    H116722   1.152   3.499   4.781
 5572TIP3    H216723   1.145   3.450   4.923
 5573TIP3   OH216724   6.063   3.297   2.096
 5573TIP3    H116725   5.968   3.308   2.085
 5573TIP3    H216726   6.084   3.343   2.177
 5574TIP3   OH216727   2.290   3.174   0.458
 5574TIP3    H116728   2.234   3.116   0.510
 5574TIP3    H216729   2.368   3.122   0.438
 5575TIP3   OH216730   4.344   1.115   4.663
 5575TIP3    H116731   4.392   1.047   4.614
 5575TIP3    H216732   4.335   1.187   4.601
 5576TIP3   OH216733   4.001   1.284   3.577
 5576TIP3    H116734   3.983   1.221   3.507
 5576TIP3    H216735   3.915   1.317   3.602
 5577TIP3   OH216736   5.956   4.803   4.386
 5577TIP3    H116737   5.899   4.735   4.421
 5577TIP3    H216738   5.947   4.876   4.448
 5578TIP3   OH216739   3.771   2.452   4.454
 5578TIP3    H116740   3.842   2.482   4.398
 5578TIP3    H216741   3.694   2.455   4.397
 5579TIP3   OH216742   3.935   3.433   2.141
 5579TIP3    H116743   3.877   3.385   2.200
 5579TIP3    H216744   3.876   3.487   2.088
 5580TIP3   OH216745   3.072   2.074   2.442
 5580TIP3    H116746   3.156   2.102   2.478
 5580TIP3    H216747   3.083   1.980   2.426
 5581TIP3   OH216748   4.339   1.614   1.363
 5581TIP3    H116749   4.402   1.650   1.425
 5581TIP3    H216750   4.390   1.552   1.311
 5582TIP3   OH216751   2.267   5.321   3.904
 5582TIP3    H116752   2.241   5.307   3.995
 5582TIP3    H216753   2.291   5.235   3.872
 5583TIP3   OH216754   4.215   3.975   0.641
 5583TIP3    H116755   4.231   3.890   0.682
 5583TIP3    H216756   4.298   3.998   0.600
 5584TIP3   OH216757   2.537   4.765   0.284
 5584TIP3    H116758   2.527   4.832   0.351
 5584TIP3    H216759   2.629   4.771   0.258
 5585TIP3   OH216760   1.019   0.714   0.134
 5585TIP3    H116761   1.101   0.704   0.085
 5585TIP3    H216762   0.950   0.708   0.067
 5586TIP3   OH216763   2.226   2.166   0.804
 5586TIP3    H116764   2.205   2.178   0.711
 5586TIP3    H216765   2.321   2.171   0.809
 5587TIP3   OH216766   4.516   4.116   1.200
 5587TIP3    H116767   4.609   4.131   1.216
 5587TIP3    H216768   4.472   4.190   1.241
 5588TIP3   OH216769   5.752   2.158   1.615
 5588TIP3    H116770   5.819   2.126   1.555
 5588TIP3    H216771   5.669   2.141   1.571
 5589TIP3   OH216772   1.897   0.945   1.098
 5589TIP3    H116773   1.837   0.886   1.143
 5589TIP3    H216774   1.853   1.030   1.101
 5590TIP3   OH216775   1.538   4.448   1.663
 5590TIP3    H116776   1.455   4.450   1.615
 5590TIP3    H216777   1.595   4.394   1.608
 5591TIP3   OH216778   6.277   2.545   0.831
 5591TIP3    H116779   6.212   2.560   0.900
 5591TIP3    H216780   6.308   2.633   0.809
 5592TIP3   OH216781   4.110   0.203   2.689
 5592TIP3    H116782   4.060   0.162   2.760
 5592TIP3    H216783   4.191   0.152   2.685
 5593TIP3   OH216784   0.999   1.540   4.262
 5593TIP3    H116785   0.955   1.610   4.213
 5593TIP3    H216786   0.947   1.462   4.244
 5594TIP3   OH216787   0.956   3.983   2.520
 5594TIP3    H116788   0.944   3.898   2.561
 5594TIP3    H216789   0.868   4.016   2.505
 5595TIP3   OH216790   1.429   3.197   3.376
 5595TIP3    H116791   1.369   3.248   3.430
 5595TIP3    H216792   1.440   3.115   3.423
 5596TIP3   OH216793   5.215   2.671   0.611
 5596TIP3    H116794   5.159   2.612   0.662
 5596TIP3    H216795   5.285   2.615   0.579
 5597TIP3   OH216796   0.526   1.375   2.728
 5597TIP3    H116797   0.522   1.308   2.796
 5597TIP3    H216798   0.443   1.364   2.680
 5598TIP3   OH216799   1.021   1.510   1.119
 5598TIP3    H116800   0.970   1.588   1.097
 5598TIP3    H216801   1.061   1.482   1.037
 5599TIP3   OH216802   6.059   2.515   4.059
 5599TIP3    H116803   6.118   2.577   4.016
 5599TIP3    H216804   6.114   2.469   4.122
 5600TIP3   OH216805   4.066   4.503   2.646
 5600TIP3    H116806   4.057   4.538   2.557
 5600TIP3    H216807   3.996   4.546   2.695
 5601TIP3   OH216808   5.782   3.367   2.146
 5601TIP3    H116809   5.781   3.319   2.229
 5601TIP3    H216810   5.699   3.416   2.146
 5602TIP3   OH216811   3.049   0.161   4.789
 5602TIP3    H116812   3.070   0.082   4.839
 5602TIP3    H216813   2.954   0.171   4.799
 5603TIP3   OH216814   1.896   5.066   3.827
 5603TIP3    H116815   1.987   5.046   3.852
 5603TIP3    H216816   1.843   5.026   3.896
 5604TIP3   OH216817   1.471   2.862   1.969
 5604TIP3    H116818   1.412   2.891   1.900
 5604TIP3    H216819   1.434   2.780   2.000
 5605TIP3   OH216820   5.768   5.720   2.063
 5605TIP3    H116821   5.840   5.696   2.005
 5605TIP3    H216822   5.731   5.799   2.024
 5606TIP3   OH216823   2.084   2.595   1.886
 5606TIP3    H116824   2.151   2.660   1.867
 5606TIP3    H216825   2.010   2.646   1.921
 5607TIP3   OH216826   3.076   0.323   0.435
 5607TIP3    H116827   3.054   0.230   0.447
 5607TIP3    H216828   3.105   0.329   0.344
 5608TIP3   OH216829   5.669   4.954   3.539
 5608TIP3    H116830   5.634   4.866   3.554
 5608TIP3    H216831   5.733   4.965   3.610
 5609TIP3   OH216832   1.922   4.301   4.245
 5609TIP3    H116833   1.834   4.321   4.213
 5609TIP3    H216834   1.976   4.374   4.213
 5610TIP3   OH216835   0.536   2.173   1.251
 5610TIP3    H116836   0.561   2.203   1.338
 5610TIP3    H216837   0.588   2.093   1.238
 5611TIP3   OH216838   2.957   1.887   2.898
 5611TIP3    H116839   3.034   1.934   2.928
 5611TIP3    H216840   2.884   1.926   2.946
 5612TIP3   OH216841   2.399   1.290   3.105
 5612TIP3    H116842   2.485   1.249   3.114
 5612TIP3    H216843   2.414   1.382   3.127
 5613TIP3   OH216844   0.384   3.323   1.723
 5613TIP3    H116845   0.446   3.268   1.772
 5613TIP3    H216846   0.322   3.261   1.686
 5614TIP3   OH216847   0.432   0.927   4.038
 5614TIP3    H116848   0.371   0.858   4.015
 5614TIP3    H216849   0.507   0.881   4.076
 5615TIP3   OH216850   1.309   0.990   2.081
 5615TIP3    H116851   1.325   1.008   2.174
 5615TIP3    H216852   1.369   0.919   2.060
 5616TIP3   OH216853   5.882   2.342   3.850
 5616TIP3    H116854   5.897   2.368   3.941
 5616TIP3    H216855   5.865   2.248   3.855
 5617TIP3   OH216856   5.896   5.007   4.851
 5617TIP3    H116857   5.864   5.089   4.888
 5617TIP3    H216858   5.836   4.940   4.884
 5618TIP3   OH216859  -0.012   1.385   1.109
 5618TIP3    H116860  -0.103   1.395   1.081
 5618TIP3    H216861   0.031   1.343   1.035
 5619TIP3   OH216862   1.174   5.139   5.179
 5619TIP3    H116863   1.223   5.126   5.260
 5619TIP3    H216864   1.219   5.084   5.115
 5620TIP3   OH216865   5.317   5.817   1.759
 5620TIP3    H116866   5.261   5.859   1.693
 5620TIP3    H216867   5.326   5.727   1.728
 5621TIP3   OH216868   5.304   4.343   3.351
 5621TIP3    H116869   5.357   4.310   3.278
 5621TIP3    H216870   5.262   4.422   3.316
 5622TIP3   OH216871   2.386   1.175   2.626
 5622TIP3    H116872   2.311   1.122   2.599
 5622TIP3    H216873   2.425   1.126   2.699
 5623TIP3   OH216874   1.992   1.037   1.802
 5623TIP3    H116875   1.956   1.064   1.718
 5623TIP3    H216876   1.919   0.995   1.847
 5624TIP3   OH216877   1.802   2.874   3.417
 5624TIP3    H116878   1.836   2.813   3.482
 5624TIP3    H216879   1.875   2.932   3.397
 5625TIP3   OH216880   2.485   3.188   4.811
 5625TIP3    H116881   2.395   3.204   4.781
 5625TIP3    H216882   2.491   3.092   4.817
 5626TIP3   OH216883   2.714   5.813   0.723
 5626TIP3    H116884   2.768   5.823   0.801
 5626TIP3    H216885   2.711   5.719   0.707
 5627TIP3   OH216886   2.895   1.233   0.958
 5627TIP3    H116887   2.891   1.198   1.048
 5627TIP3    H216888   2.943   1.315   0.967
 5628TIP3   OH216889   5.445   4.161   0.408
 5628TIP3    H116890   5.391   4.159   0.487
 5628TIP3    H216891   5.434   4.250   0.374
 5629TIP3   OH216892   4.941   4.779   2.034
 5629TIP3    H116893   4.916   4.871   2.040
 5629TIP3    H216894   4.868   4.738   1.986
 5630TIP3   OH216895   2.116   3.717   0.209
 5630TIP3    H116896   2.202   3.734   0.245
 5630TIP3    H216897   2.119   3.625   0.183
 5631TIP3   OH216898   3.757   4.353   1.441
 5631TIP3    H116899   3.771   4.440   1.404
 5631TIP3    H216900   3.754   4.295   1.365
 5632TIP3   OH216901   0.250   5.595   1.395
 5632TIP3    H116902   0.234   5.567   1.486
 5632TIP3    H216903   0.281   5.685   1.403
 5633TIP3   OH216904   5.970   1.798   4.116
 5633TIP3    H116905   6.023   1.781   4.039
 5633TIP3    H216906   5.984   1.721   4.172
 5634TIP3   OH216907   1.573   3.722   2.513
 5634TIP3    H116908   1.534   3.638   2.489
 5634TIP3    H216909   1.666   3.704   2.520
 5635TIP3   OH216910   2.303   5.941   1.329
 5635TIP3    H116911   2.215   5.957   1.294
 5635TIP3    H216912   2.337   5.869   1.277
 5636TIP3   OH216913   1.835   5.776   1.709
 5636TIP3    H116914   1.905   5.713   1.730
 5636TIP3    H216915   1.809   5.754   1.620
 5637TIP3   OH216916   0.471   1.204   2.930
 5637TIP3    H116917   0.414   1.157   2.869
 5637TIP3    H216918   0.426   1.198   3.014
 5638TIP3   OH216919   4.876   1.279   2.578
 5638TIP3    H116920   4.807   1.322   2.527
 5638TIP3    H216921   4.838   1.195   2.603
 5639TIP3   OH216922   6.022   4.055   2.148
 5639TIP3    H116923   6.016   4.144   2.185
 5639TIP3    H216924   5.965   4.057   2.072
 5640TIP3   OH216925   0.749   1.358   3.603
 5640TIP3    H116926   0.823   1.419   3.614
 5640TIP3    H216927   0.730   1.328   3.692
 5641TIP3   OH216928   0.429   4.633   2.323
 5641TIP3    H116929   0.523   4.648   2.331
 5641TIP3    H216930   0.423   4.549   2.276
 5642TIP3   OH216931   5.938   2.093   1.422
 5642TIP3    H116932   5.961   2.176   1.382
 5642TIP3    H216933   5.930   2.032   1.349
 5643TIP3   OH216934   4.975   2.693   4.624
 5643TIP3    H116935   5.024   2.725   4.548
 5643TIP3    H216936   4.996   2.755   4.694
 5644TIP3   OH216937   5.580   2.466   4.347
 5644TIP3    H116938   5.667   2.448   4.311
 5644TIP3    H216939   5.523   2.472   4.271
 5645TIP3   OH216940   4.907   2.394   0.189
 5645TIP3    H116941   4.948   2.335   0.126
 5645TIP3    H216942   4.824   2.352   0.210
 5646TIP3   OH216943   5.919   5.466   1.375
 5646TIP3    H116944   5.879   5.530   1.316
 5646TIP3    H216945   5.886   5.491   1.462
 5647TIP3   OH216946   4.240   1.548   0.948
 5647TIP3    H116947   4.322   1.560   0.900
 5647TIP3    H216948   4.238   1.455   0.971
 5648TIP3   OH216949   3.630   3.436   4.200
 5648TIP3    H116950   3.714   3.481   4.214
 5648TIP3    H216951   3.613   3.391   4.282
 5649TIP3   OH216952   1.119   1.050   3.044
 5649TIP3    H116953   1.040   1.038   2.992
 5649TIP3    H216954   1.185   0.997   2.999
 5650TIP3   OH216955   5.539   5.808   5.115
 5650TIP3    H116956   5.483   5.759   5.055
 5650TIP3    H216957   5.488   5.816   5.195
 5651TIP3   OH216958   0.953   1.633   5.123
 5651TIP3    H116959   0.949   1.588   5.208
 5651TIP3    H216960   0.912   1.572   5.062
 5652TIP3   OH216961   4.622   0.811   1.383
 5652TIP3    H116962   4.528   0.796   1.376
 5652TIP3    H216963   4.659   0.765   1.307
 5653TIP3   OH216964   4.726   2.262   1.074
 5653TIP3    H116965   4.643   2.213   1.077
 5653TIP3    H216966   4.749   2.276   1.166
 5654TIP3   OH216967   0.438   2.539   3.041
 5654TIP3    H116968   0.424   2.603   3.111
 5654TIP3    H216969   0.523   2.500   3.061
 5655TIP3   OH216970   2.702   3.948   0.531
 5655TIP3    H116971   2.690   3.969   0.438
 5655TIP3    H216972   2.740   4.028   0.568
 5656TIP3   OH216973   4.908   4.187   0.237
 5656TIP3    H116974   4.838   4.176   0.172
 5656TIP3    H216975   4.888   4.123   0.305
 5657TIP3   OH216976   0.024   1.655   0.790
 5657TIP3    H116977   0.050   1.726   0.733
 5657TIP3    H216978  -0.055   1.619   0.749
 5658TIP3   OH216979   5.323   1.788   4.315
 5658TIP3    H116980   5.234   1.816   4.295
 5658TIP3    H216981   5.379   1.855   4.276
 5659TIP3   OH216982   5.406   1.576   4.760
 5659TIP3    H116983   5.460   1.653   4.777
 5659TIP3    H216984   5.377   1.586   4.669
 5660TIP3   OH216985   0.213   4.242   4.091
 5660TIP3    H116986   0.167   4.158   4.087
 5660TIP3    H216987   0.250   4.245   4.179
 5661TIP3   OH216988   3.298   0.328   2.265
 5661TIP3    H116989   3.327   0.285   2.346
 5661TIP3    H216990   3.227   0.273   2.233
 5662TIP3   OH216991   1.426   3.968   2.372
 5662TIP3    H116992   1.455   4.058   2.389
 5662TIP3    H216993   1.489   3.913   2.420
 5663TIP3   OH216994   0.255   1.529   0.894
 5663TIP3    H116995   0.308   1.609   0.889
 5663TIP3    H216996   0.171   1.554   0.854
 5664TIP3   OH216997   0.713   2.234   5.127
 5664TIP3    H116998   0.738   2.318   5.164
 5664TIP3    H216999   0.617   2.234   5.130
 5665TIP3   OH217000   1.678   4.245   4.107
 5665TIP3    H117001   1.599   4.265   4.056
 5665TIP3    H217002   1.748   4.238   4.041
 5666TIP3   OH217003   2.688   3.383   2.354
 5666TIP3    H117004   2.600   3.411   2.327
 5666TIP3    H217005   2.678   3.359   2.447
 5667TIP3   OH217006   4.627   0.450   1.648
 5667TIP3    H117007   4.638   0.464   1.554
 5667TIP3    H217008   4.628   0.355   1.658
 5668TIP3   OH217009   3.712   5.024   3.817
 5668TIP3    H117010   3.710   4.946   3.762
 5668TIP3    H217011   3.643   5.080   3.781
 5669TIP3   OH217012   0.772   3.843   1.760
 5669TIP3    H117013   0.765   3.753   1.792
 5669TIP3    H217014   0.795   3.833   1.667
 5670TIP3   OH217015   4.006   5.665   1.531
 5670TIP3    H117016   3.973   5.577   1.517
 5670TIP3    H217017   4.100   5.653   1.546
 5671TIP3   OH217018   1.118   0.382   5.067
 5671TIP3    H117019   1.167   0.434   5.131
 5671TIP3    H217020   1.149   0.292   5.080
 5672TIP3   OH217021   0.271   3.956   4.494
 5672TIP3    H117022   0.283   4.050   4.478
 5672TIP3    H217023   0.341   3.914   4.445
 5673TIP3   OH217024   0.683   1.356   2.041
 5673TIP3    H117025   0.638   1.377   1.959
 5673TIP3    H217026   0.619   1.375   2.109
 5674TIP3   OH217027   1.268   2.101   1.151
 5674TIP3    H117028   1.186   2.054   1.168
 5674TIP3    H217029   1.297   2.070   1.066
 5675TIP3   OH217030   6.268   1.122   5.185
 5675TIP3    H117031   6.188   1.144   5.231
 5675TIP3    H217032   6.262   1.028   5.167
 5676TIP3   OH217033   3.357   1.330   2.200
 5676TIP3    H117034   3.309   1.303   2.122
 5676TIP3    H217035   3.313   1.285   2.272
 5677TIP3   OH217036   4.621   5.825   3.314
 5677TIP3    H117037   4.692   5.883   3.342
 5677TIP3    H217038   4.600   5.773   3.392
 5678TIP3   OH217039   5.455   5.807   3.185
 5678TIP3    H117040   5.375   5.847   3.217
 5678TIP3    H217041   5.519   5.820   3.256
 5679TIP3   OH217042   4.305   4.911   0.009
 5679TIP3    H117043   4.387   4.881   0.046
 5679TIP3    H217044   4.274   4.979   0.069
 5680TIP3   OH217045   4.270   3.274   1.923
 5680TIP3    H117046   4.259   3.183   1.950
 5680TIP3    H217047   4.300   3.269   1.832
 5681TIP3   OH217048   2.518   4.887   2.199
 5681TIP3    H117049   2.605   4.916   2.228
 5681TIP3    H217050   2.524   4.885   2.104
 5682TIP3   OH217051   1.360   2.632   2.043
 5682TIP3    H117052   1.272   2.668   2.058
 5682TIP3    H217053   1.345   2.537   2.033
 5683TIP3   OH217054   0.015   4.266   3.748
 5683TIP3    H117055  -0.075   4.288   3.773
 5683TIP3    H217056   0.067   4.341   3.778
 5684TIP3   OH217057   1.074   4.331   4.801
 5684TIP3    H117058   1.107   4.250   4.839
 5684TIP3    H217059   1.143   4.360   4.742
 5685TIP3   OH217060   5.415   3.134   3.895
 5685TIP3    H117061   5.444   3.122   3.804
 5685TIP3    H217062   5.374   3.050   3.918
 5686TIP3   OH217063   1.948   1.455   2.322
 5686TIP3    H117064   2.004   1.482   2.250
 5686TIP3    H217065   1.870   1.510   2.315
 5687TIP3   OH217066   0.577   3.336   4.585
 5687TIP3    H117067   0.494   3.348   4.632
 5687TIP3    H217068   0.592   3.242   4.587
 5688TIP3   OH217069   4.324   4.738   1.712
 5688TIP3    H117070   4.412   4.699   1.712
 5688TIP3    H217071   4.286   4.711   1.628
 5689TIP3   OH217072   5.808   1.446   0.876
 5689TIP3    H117073   5.815   1.461   0.781
 5689TIP3    H217074   5.797   1.352   0.884
 5690TIP3   OH217075   1.118   3.132   2.105
 5690TIP3    H117076   1.101   3.048   2.062
 5690TIP3    H217077   1.092   3.118   2.196
 5691TIP3   OH217078   4.868   2.459   4.515
 5691TIP3    H117079   4.848   2.499   4.431
 5691TIP3    H217080   4.919   2.525   4.562
 5692TIP3   OH217081   3.868   5.212   0.082
 5692TIP3    H117082   3.893   5.254   0.164
 5692TIP3    H217083   3.809   5.275   0.040
 5693TIP3   OH217084   0.012   2.366   0.638
 5693TIP3    H117085   0.096   2.342   0.677
 5693TIP3    H217086  -0.025   2.429   0.699
 5694TIP3   OH217087   2.297   3.940   5.169
 5694TIP3    H117088   2.234   3.902   5.108
 5694TIP3    H217089   2.263   4.027   5.189
 5695TIP3   OH217090   0.628   0.608   0.606
 5695TIP3    H117091   0.637   0.659   0.686
 5695TIP3    H217092   0.683   0.532   0.620
 5696TIP3   OH217093   1.731   2.102   4.588
 5696TIP3    H117094   1.777   2.067   4.664
 5696TIP3    H217095   1.672   2.168   4.623
 5697TIP3   OH217096   5.314   0.276   1.959
 5697TIP3    H117097   5.317   0.338   1.886
 5697TIP3    H217098   5.282   0.328   2.033
 5698TIP3   OH217099   6.113   5.595   5.136
 5698TIP3    H117100   6.198   5.554   5.123
 5698TIP3    H217101   6.125   5.686   5.111
 5699TIP3   OH217102   2.683   0.958   4.689
 5699TIP3    H117103   2.604   0.946   4.741
 5699TIP3    H217104   2.726   0.873   4.690
 5700TIP3   OH217105   3.912   4.556   4.660
 5700TIP3    H117106   3.986   4.497   4.676
 5700TIP3    H217107   3.858   4.548   4.738
 5701TIP3   OH217108   2.168   1.800   3.840
 5701TIP3    H117109   2.205   1.760   3.762
 5701TIP3    H217110   2.093   1.850   3.808
 5702TIP3   OH217111   1.568   5.584   3.604
 5702TIP3    H117112   1.655   5.618   3.626
 5702TIP3    H217113   1.547   5.523   3.674
 5703TIP3   OH217114   4.559   5.085   1.738
 5703TIP3    H117115   4.507   5.048   1.666
 5703TIP3    H217116   4.604   5.010   1.776
 5704TIP3   OH217117   0.118   2.466   0.133
 5704TIP3    H117118   0.080   2.458   0.221
 5704TIP3    H217119   0.147   2.557   0.128
 5705TIP3   OH217120   6.208   5.606   3.235
 5705TIP3    H117121   6.235   5.520   3.268
 5705TIP3    H217122   6.121   5.591   3.199
 5706TIP3   OH217123   1.156   5.836   3.679
 5706TIP3    H117124   1.236   5.812   3.632
 5706TIP3    H217125   1.186   5.873   3.761
 5707TIP3   OH217126   2.707   3.285   4.951
 5707TIP3    H117127   2.629   3.235   4.929
 5707TIP3    H217128   2.690   3.373   4.917
 5708TIP3   OH217129   6.001   5.966   4.633
 5708TIP3    H117130   5.981   6.011   4.551
 5708TIP3    H217131   6.097   5.960   4.635
 5709TIP3   OH217132   1.507   3.350   1.281
 5709TIP3    H117133   1.593   3.373   1.315
 5709TIP3    H217134   1.477   3.429   1.235
 5710TIP3   OH217135   0.867   3.748   3.928
 5710TIP3    H117136   0.806   3.793   3.987
 5710TIP3    H217137   0.867   3.800   3.848
 5711TIP3   OH217138   2.596   0.471   4.296
 5711TIP3    H117139   2.594   0.375   4.291
 5711TIP3    H217140   2.510   0.499   4.267
 5712TIP3   OH217141   2.328   2.069   4.108
 5712TIP3    H117142   2.234   2.058   4.095
 5712TIP3    H217143   2.337   2.101   4.197
 5713TIP3   OH217144   0.912   5.569   3.808
 5713TIP3    H117145   0.858   5.553   3.732
 5713TIP3    H217146   0.851   5.596   3.876
 5714TIP3   OH217147   2.588   5.891   4.147
 5714TIP3    H117148   2.590   5.880   4.242
 5714TIP3    H217149   2.531   5.820   4.116
 5715TIP3   OH217150   2.039   2.698   4.798
 5715TIP3    H117151   1.994   2.782   4.795
 5715TIP3    H217152   2.044   2.670   4.706
 5716TIP3   OH217153   2.115   2.938   2.133
 5716TIP3    H117154   2.122   2.983   2.049
 5716TIP3    H217155   2.124   3.009   2.198
 5717TIP3   OH217156   3.683   5.283   1.888
 5717TIP3    H117157   3.743   5.284   1.962
 5717TIP3    H217158   3.680   5.192   1.861
 5718TIP3   OH217159   0.844   2.573   0.557
 5718TIP3    H117160   0.881   2.606   0.475
 5718TIP3    H217161   0.807   2.488   0.534
 5719TIP3   OH217162   0.288   4.050   3.570
 5719TIP3    H117163   0.276   4.109   3.644
 5719TIP3    H217164   0.235   4.088   3.500
 5720TIP3   OH217165   4.736   4.660   1.882
 5720TIP3    H117166   4.657   4.611   1.902
 5720TIP3    H217167   4.710   4.752   1.886
 5721TIP3   OH217168   1.299   0.174   1.177
 5721TIP3    H117169   1.376   0.231   1.185
 5721TIP3    H217170   1.332   0.086   1.195
 5722TIP3   OH217171   2.835   1.524   3.402
 5722TIP3    H117172   2.813   1.447   3.454
 5722TIP3    H217173   2.920   1.504   3.364
 5723TIP3   OH217174   6.132   2.253   4.623
 5723TIP3    H117175   6.082   2.333   4.639
 5723TIP3    H217176   6.175   2.234   4.707
 5724TIP3   OH217177   3.814   5.883   3.853
 5724TIP3    H117178   3.790   5.956   3.910
 5724TIP3    H217179   3.799   5.805   3.907
 5725TIP3   OH217180   1.290   5.391   2.952
 5725TIP3    H117181   1.373   5.361   2.990
 5725TIP3    H217182   1.223   5.358   3.012
 5726TIP3   OH217183   4.584   4.877   4.520
 5726TIP3    H117184   4.667   4.921   4.536
 5726TIP3    H217185   4.606   4.784   4.518
 5727TIP3   OH217186   5.183   2.408   2.063
 5727TIP3    H117187   5.199   2.500   2.086
 5727TIP3    H217188   5.163   2.366   2.146
 5728TIP3   OH217189   1.490   5.319   1.124
 5728TIP3    H117190   1.498   5.371   1.204
 5728TIP3    H217191   1.559   5.353   1.067
 5729TIP3   OH217192   3.955   3.237   4.523
 5729TIP3    H117193   4.000   3.174   4.580
 5729TIP3    H217194   3.864   3.209   4.524
 5730TIP3   OH217195   0.210   0.665   1.563
 5730TIP3    H117196   0.153   0.625   1.498
 5730TIP3    H217197   0.295   0.671   1.520
 5731TIP3   OH217198   5.569   1.951   1.212
 5731TIP3    H117199   5.492   1.915   1.168
 5731TIP3    H217200   5.534   2.013   1.275
 5732TIP3   OH217201   1.609   4.784   0.391
 5732TIP3    H117202   1.683   4.760   0.446
 5732TIP3    H217203   1.586   4.704   0.345
 5733TIP3   OH217204   0.743   1.813   2.996
 5733TIP3    H117205   0.726   1.823   2.902
 5733TIP3    H217206   0.822   1.865   3.011
 5734TIP3   OH217207   1.284   0.238   4.485
 5734TIP3    H117208   1.346   0.293   4.533
 5734TIP3    H217209   1.240   0.187   4.553
 5735TIP3   OH217210   3.631   2.608   1.132
 5735TIP3    H117211   3.700   2.545   1.112
 5735TIP3    H217212   3.579   2.613   1.052
 5736TIP3   OH217213   4.402   2.052   1.949
 5736TIP3    H117214   4.439   1.972   1.986
 5736TIP3    H217215   4.333   2.077   2.011
 5737TIP3   OH217216   4.671   4.628   4.555
 5737TIP3    H117217   4.688   4.578   4.635
 5737TIP3    H217218   4.745   4.607   4.498
 5738TIP3   OH217219   3.020   2.766   3.251
 5738TIP3    H117220   2.946   2.713   3.282
 5738TIP3    H217221   3.035   2.735   3.162
 5739TIP3   OH217222   4.209   3.982   3.741
 5739TIP3    H117223   4.295   4.009   3.710
 5739TIP3    H217224   4.174   3.925   3.672
 5740TIP3   OH217225   4.243   0.252   1.270
 5740TIP3    H117226   4.188   0.297   1.333
 5740TIP3    H217227   4.311   0.208   1.322
 5741TIP3   OH217228   3.519   2.845   3.503
 5741TIP3    H117229   3.607   2.848   3.466
 5741TIP3    H217230   3.521   2.909   3.575
 5742TIP3   OH217231   2.008   2.451   4.237
 5742TIP3    H117232   2.010   2.511   4.311
 5742TIP3    H217233   2.099   2.440   4.212
 5743TIP3   OH217234   0.022   0.705   3.258
 5743TIP3    H117235   0.008   0.613   3.234
 5743TIP3    H217236   0.068   0.743   3.183
 5744TIP3   OH217237   2.216   3.571   4.687
 5744TIP3    H117238   2.288   3.587   4.748
 5744TIP3    H217239   2.256   3.524   4.613
 5745TIP3   OH217240   5.095   2.213   1.057
 5745TIP3    H117241   5.079   2.138   1.115
 5745TIP3    H217242   5.082   2.289   1.113
 5746TIP3   OH217243   5.238   0.981   0.675
 5746TIP3    H117244   5.329   0.951   0.685
 5746TIP3    H217245   5.217   1.020   0.760
 5747TIP3   OH217246   3.976   4.323   2.144
 5747TIP3    H117247   4.057   4.299   2.098
 5747TIP3    H217248   3.912   4.336   2.074
 5748TIP3   OH217249   5.655   2.717   1.607
 5748TIP3    H117250   5.573   2.676   1.582
 5748TIP3    H217251   5.709   2.646   1.641
 5749TIP3   OH217252   3.225   0.208   3.644
 5749TIP3    H117253   3.256   0.166   3.724
 5749TIP3    H217254   3.150   0.260   3.671
 5750TIP3   OH217255   4.138   0.446   4.604
 5750TIP3    H117256   4.059   0.469   4.653
 5750TIP3    H217257   4.166   0.528   4.564
 5751TIP3   OH217258   6.244   3.078   3.337
 5751TIP3    H117259   6.325   3.129   3.337
 5751TIP3    H217260   6.246   3.031   3.254
 5752TIP3   OH217261   4.456   3.930   4.379
 5752TIP3    H117262   4.478   3.994   4.312
 5752TIP3    H217263   4.535   3.876   4.387
 5753TIP3   OH217264   1.693   4.718   4.965
 5753TIP3    H117265   1.683   4.683   5.053
 5753TIP3    H217266   1.635   4.795   4.963
 5754TIP3   OH217267   1.547   0.570   0.158
 5754TIP3    H117268   1.543   0.632   0.231
 5754TIP3    H217269   1.489   0.499   0.183
 5755TIP3   OH217270   4.470   5.913   0.725
 5755TIP3    H117271   4.390   5.861   0.729
 5755TIP3    H217272   4.440   6.004   0.726
 5756TIP3   OH217273   4.978   3.737   2.505
 5756TIP3    H117274   5.035   3.798   2.550
 5756TIP3    H217275   4.890   3.771   2.520
 5757TIP3   OH217276   1.032   2.798   1.421
 5757TIP3    H117277   1.072   2.883   1.439
 5757TIP3    H217278   1.098   2.735   1.447
 5758TIP3   OH217279   1.470   3.330   0.690
 5758TIP3    H117280   1.417   3.357   0.615
 5758TIP3    H217281   1.424   3.255   0.726
 5759TIP3   OH217282   6.122   2.640  -0.040
 5759TIP3    H117283   6.168   2.693   0.025
 5759TIP3    H217284   6.147   2.550  -0.020
 5760TIP3   OH217285   0.759   3.514   2.830
 5760TIP3    H117286   0.687   3.478   2.778
 5760TIP3    H217287   0.720   3.589   2.876
 5761TIP3   OH217288   3.016   4.781   2.622
 5761TIP3    H117289   3.003   4.840   2.548
 5761TIP3    H217290   3.111   4.768   2.625
 5762TIP3   OH217291   6.292   1.967   2.457
 5762TIP3    H117292   6.288   1.918   2.375
 5762TIP3    H217293   6.283   2.059   2.431
 5763TIP3   OH217294   3.264   5.720   4.351
 5763TIP3    H117295   3.271   5.641   4.297
 5763TIP3    H217296   3.269   5.792   4.288
 5764TIP3   OH217297   4.128   4.525   2.301
 5764TIP3    H117298   4.196   4.474   2.347
 5764TIP3    H217299   4.090   4.463   2.239
 5765TIP3   OH217300   1.659   2.684   1.877
 5765TIP3    H117301   1.724   2.725   1.821
 5765TIP3    H217302   1.589   2.749   1.885
 5766TIP3   OH217303   6.128  -0.018   4.899
 5766TIP3    H117304   6.080  -0.047   4.822
 5766TIP3    H217305   6.113   0.077   4.902
 5767TIP3   OH217306   2.973   0.959   4.921
 5767TIP3    H117307   2.980   0.944   4.827
 5767TIP3    H217308   3.050   1.012   4.943
 5768TIP3   OH217309   1.220   4.008   1.870
 5768TIP3    H117310   1.146   4.013   1.931
 5768TIP3    H217311   1.296   3.992   1.925
 5769TIP3   OH217312   4.620   5.721   3.552
 5769TIP3    H117313   4.664   5.636   3.557
 5769TIP3    H217314   4.568   5.726   3.632
 5770TIP3   OH217315   3.949   5.595   2.532
 5770TIP3    H117316   4.021   5.567   2.588
 5770TIP3    H217317   3.907   5.513   2.504
 5771TIP3   OH217318   3.712   1.396   3.233
 5771TIP3    H117319   3.638   1.338   3.250
 5771TIP3    H217320   3.761   1.353   3.164
 5772TIP3   OH217321   2.720   4.065   4.974
 5772TIP3    H117322   2.733   4.132   5.041
 5772TIP3    H217323   2.662   4.001   5.014
 5773TIP3   OH217324   4.244   2.075   3.775
 5773TIP3    H117325   4.171   2.137   3.778
 5773TIP3    H217326   4.229   2.025   3.694
 5774TIP3   OH217327   3.333   3.934   3.055
 5774TIP3    H117328   3.346   3.955   2.962
 5774TIP3    H217329   3.417   3.953   3.096
 5775TIP3   OH217330   6.128   3.451   3.200
 5775TIP3    H117331   6.092   3.377   3.248
 5775TIP3    H217332   6.081   3.450   3.116
 5776TIP3   OH217333   2.808   0.849   3.477
 5776TIP3    H117334   2.751   0.791   3.426
 5776TIP3    H217335   2.813   0.808   3.563
 5777TIP3   OH217336   0.983   3.439   3.346
 5777TIP3    H117337   1.075   3.466   3.341
 5777TIP3    H217338   0.939   3.510   3.392
 5778TIP3   OH217339   4.430   5.002   0.426
 5778TIP3    H117340   4.445   4.954   0.345
 5778TIP3    H217341   4.430   5.094   0.400
 5779TIP3   OH217342   3.665   3.887   1.173
 5779TIP3    H117343   3.588   3.928   1.133
 5779TIP3    H217344   3.634   3.800   1.201
 5780TIP3   OH217345   1.974   5.340   3.936
 5780TIP3    H117346   1.980   5.410   3.870
 5780TIP3    H217347   2.035   5.273   3.905
 5781TIP3   OH217348   3.930   1.667   2.994
 5781TIP3    H117349   3.929   1.577   2.961
 5781TIP3    H217350   3.978   1.661   3.077
 5782TIP3   OH217351   2.036   3.025   1.691
 5782TIP3    H117352   2.118   3.064   1.660
 5782TIP3    H217353   2.022   2.951   1.632
 5783TIP3   OH217354   4.896   3.887   4.260
 5783TIP3    H117355   4.961   3.821   4.236
 5783TIP3    H217356   4.929   3.925   4.341
 5784TIP3   OH217357   0.589   3.880   0.887
 5784TIP3    H117358   0.551   3.859   0.802
 5784TIP3    H217359   0.682   3.858   0.878
 5785TIP3   OH217360   3.172   5.415   1.677
 5785TIP3    H117361   3.226   5.482   1.718
 5785TIP3    H217362   3.176   5.340   1.737
 5786TIP3   OH217363   5.915   0.792   0.935
 5786TIP3    H117364   5.888   0.702   0.951
 5786TIP3    H217365   5.832   0.840   0.923
 5787TIP3   OH217366   1.533   0.905   4.444
 5787TIP3    H117367   1.439   0.899   4.462
 5787TIP3    H217368   1.540   0.893   4.350
 5788TIP3   OH217369   1.431   3.659   0.191
 5788TIP3    H117370   1.526   3.655   0.182
 5788TIP3    H217371   1.398   3.629   0.107
 5789TIP3   OH217372   4.588   0.067   3.640
 5789TIP3    H117373   4.614   0.154   3.609
 5789TIP3    H217374   4.564   0.082   3.732
 5790TIP3   OH217375   0.332   4.081   1.881
 5790TIP3    H117376   0.405   4.053   1.826
 5790TIP3    H217377   0.312   4.004   1.934
 5791TIP3   OH217378   3.085   4.531   2.313
 5791TIP3    H117379   3.015   4.466   2.305
 5791TIP3    H217380   3.127   4.532   2.227
 5792TIP3   OH217381   5.522   2.452   1.478
 5792TIP3    H117382   5.466   2.459   1.400
 5792TIP3    H217383   5.611   2.461   1.444
 5793TIP3   OH217384   1.107   3.057   1.472
 5793TIP3    H117385   1.152   3.098   1.546
 5793TIP3    H217386   1.168   3.067   1.399
 5794TIP3   OH217387   4.416   2.494   4.710
 5794TIP3    H117388   4.377   2.579   4.690
 5794TIP3    H217389   4.508   2.504   4.683
 5795TIP3   OH217390   5.796   3.071   1.962
 5795TIP3    H117391   5.721   3.127   1.945
 5795TIP3    H217392   5.869   3.112   1.915
 5796TIP3   OH217393   1.587   0.898   4.169
 5796TIP3    H117394   1.652   0.901   4.098
 5796TIP3    H217395   1.550   0.810   4.162
 5797TIP3   OH217396   5.481   2.283   2.669
 5797TIP3    H117397   5.556   2.259   2.615
 5797TIP3    H217398   5.476   2.215   2.736
 5798TIP3   OH217399   0.898   5.321   0.973
 5798TIP3    H117400   0.965   5.270   1.018
 5798TIP3    H217401   0.818   5.271   0.985
 5799TIP3   OH217402   4.465   5.287   1.936
 5799TIP3    H117403   4.377   5.266   1.906
 5799TIP3    H217404   4.522   5.227   1.888
 5800TIP3   OH217405   5.111   3.627   3.049
 5800TIP3    H117406   5.066   3.585   3.123
 5800TIP3    H217407   5.074   3.715   3.046
 5801TIP3   OH217408   3.933   0.102   1.694
 5801TIP3    H117409   3.948   0.120   1.787
 5801TIP3    H217410   3.932   0.007   1.688
 5802TIP3   OH217411   3.579   0.447   3.587
 5802TIP3    H117412   3.536   0.416   3.508
 5802TIP3    H217413   3.632   0.521   3.558
 5803TIP3   OH217414   5.357   1.589   4.477
 5803TIP3    H117415   5.356   1.667   4.421
 5803TIP3    H217416   5.345   1.516   4.416
 5804TIP3   OH217417   1.162   5.761   0.303
 5804TIP3    H117418   1.126   5.816   0.373
 5804TIP3    H217419   1.085   5.731   0.254
 5805TIP3   OH217420   6.264   1.089   1.028
 5805TIP3    H117421   6.215   1.014   1.062
 5805TIP3    H217422   6.279   1.144   1.105
 5806TIP3   OH217423   5.987   3.540   1.920
 5806TIP3    H117424   6.080   3.532   1.896
 5806TIP3    H217425   5.952   3.452   1.906
 5807TIP3   OH217426   2.974   3.316   2.286
 5807TIP3    H117427   3.013   3.391   2.330
 5807TIP3    H217428   2.880   3.323   2.305
 5808TIP3   OH217429   4.905   3.113   3.982
 5808TIP3    H117430   4.935   3.204   3.986
 5808TIP3    H217431   4.927   3.085   3.893
 5809TIP3   OH217432   2.150   5.781   3.977
 5809TIP3    H117433   2.075   5.840   3.983
 5809TIP3    H217434   2.125   5.705   4.029
 5810TIP3   OH217435   6.056   5.794   2.675
 5810TIP3    H117436   6.115   5.743   2.730
 5810TIP3    H217437   6.019   5.860   2.734
 5811TIP3   OH217438   1.323   1.184   3.190
 5811TIP3    H117439   1.260   1.119   3.157
 5811TIP3    H217440   1.355   1.227   3.111
 5812TIP3   OH217441   2.634   3.043   0.730
 5812TIP3    H117442   2.679   2.976   0.781
 5812TIP3    H217443   2.546   3.047   0.767
 5813TIP3   OH217444   4.355   3.118   4.823
 5813TIP3    H117445   4.367   3.028   4.853
 5813TIP3    H217446   4.380   3.172   4.898
 5814TIP3   OH217447   2.952   1.817   3.782
 5814TIP3    H117448   2.929   1.796   3.691
 5814TIP3    H217449   3.006   1.895   3.776
 5815TIP3   OH217450   1.998   0.538   2.754
 5815TIP3    H117451   2.001   0.598   2.829
 5815TIP3    H217452   1.931   0.574   2.696
 5816TIP3   OH217453   5.459   2.332   1.733
 5816TIP3    H117454   5.512   2.371   1.664
 5816TIP3    H217455   5.370   2.362   1.714
 5817TIP3   OH217456   5.509   2.253   4.526
 5817TIP3    H117457   5.577   2.315   4.499
 5817TIP3    H217458   5.511   2.184   4.459
 5818TIP3   OH217459   4.739   1.262   2.900
 5818TIP3    H117460   4.826   1.235   2.929
 5818TIP3    H217461   4.709   1.323   2.968
 5819TIP3   OH217462   2.610   1.708   5.139
 5819TIP3    H117463   2.558   1.669   5.210
 5819TIP3    H217464   2.675   1.642   5.117
 5820TIP3   OH217465   2.565   5.426   1.618
 5820TIP3    H117466   2.579   5.482   1.694
 5820TIP3    H217467   2.653   5.404   1.587
 5821TIP3   OH217468   5.154   3.699   4.252
 5821TIP3    H117469   5.189   3.618   4.289
 5821TIP3    H217470   5.211   3.768   4.287
 5822TIP3   OH217471   4.128   0.954   2.053
 5822TIP3    H117472   4.037   0.938   2.075
 5822TIP3    H217473   4.129   1.043   2.017
 5823TIP3   OH217474   4.871   2.120   1.988
 5823TIP3    H117475   4.852   2.110   1.894
 5823TIP3    H217476   4.965   2.103   1.995
 5824TIP3   OH217477   0.577   0.683   0.168
 5824TIP3    H117478   0.555   0.591   0.157
 5824TIP3    H217479   0.494   0.725   0.190
 5825TIP3   OH217480   4.726   2.114   2.224
 5825TIP3    H117481   4.797   2.078   2.277
 5825TIP3    H217482   4.759   2.111   2.134
 5826TIP3   OH217483   3.551   2.796   5.172
 5826TIP3    H117484   3.573   2.722   5.115
 5826TIP3    H217485   3.474   2.835   5.132
 5827TIP3   OH217486   2.151   5.194   2.443
 5827TIP3    H117487   2.188   5.133   2.379
 5827TIP3    H217488   2.167   5.153   2.527
 5828TIP3   OH217489   0.904   4.943   5.170
 5828TIP3    H117490   0.955   4.865   5.190
 5828TIP3    H217491   0.969   5.010   5.151
 5829TIP3   OH217492   3.131   3.388   1.792
 5829TIP3    H117493   3.207   3.337   1.820
 5829TIP3    H217494   3.163   3.441   1.718
 5830TIP3   OH217495   3.341   5.241   3.828
 5830TIP3    H117496   3.296   5.284   3.901
 5830TIP3    H217497   3.320   5.295   3.752
 5831TIP3   OH217498   5.441   2.424   4.100
 5831TIP3    H117499   5.374   2.470   4.049
 5831TIP3    H217500   5.493   2.377   4.035
 5832TIP3   OH217501   1.679   3.255   1.063
 5832TIP3    H117502   1.752   3.215   1.109
 5832TIP3    H217503   1.601   3.212   1.098
 5833TIP3   OH217504   4.050   0.037   0.030
 5833TIP3    H117505   3.959   0.060   0.010
 5833TIP3    H217506   4.050   0.022   0.124
 5834TIP3   OH217507   1.347   5.286   0.075
 5834TIP3    H117508   1.423   5.333   0.110
 5834TIP3    H217509   1.273   5.343   0.093
 5835TIP3   OH217510   5.327   3.657   1.080
 5835TIP3    H117511   5.258   3.685   1.140
 5835TIP3    H217512   5.400   3.633   1.137
 5836TIP3   OH217513   1.203   4.791   3.725
 5836TIP3    H117514   1.136   4.731   3.692
 5836TIP3    H217515   1.163   4.877   3.720
 5837TIP3   OH217516   3.097   4.184   3.845
 5837TIP3    H117517   3.070   4.237   3.770
 5837TIP3    H217518   3.107   4.247   3.916
 5838TIP3   OH217519   5.626   0.730   4.365
 5838TIP3    H117520   5.581   0.705   4.445
 5838TIP3    H217521   5.719   0.730   4.388
 5839TIP3   OH217522   0.607   1.577   1.301
 5839TIP3    H117523   0.527   1.578   1.353
 5839TIP3    H217524   0.585   1.627   1.222
 5840TIP3   OH217525   2.039   4.505   4.126
 5840TIP3    H117526   2.135   4.506   4.118
 5840TIP3    H217527   2.008   4.502   4.035
 5841TIP3   OH217528   3.950   3.520   4.598
 5841TIP3    H117529   3.970   3.428   4.584
 5841TIP3    H217530   3.861   3.531   4.564
 5842TIP3   OH217531   2.750   5.030   2.181
 5842TIP3    H117532   2.706   5.087   2.117
 5842TIP3    H217533   2.810   4.977   2.128
 5843TIP3   OH217534   0.973   1.008   0.101
 5843TIP3    H117535   0.982   0.982   0.009
 5843TIP3    H217536   0.956   0.926   0.148
 5844TIP3   OH217537   5.461   2.752   4.812
 5844TIP3    H117538   5.550   2.774   4.837
 5844TIP3    H217539   5.470   2.703   4.730
 5845TIP3   OH217540   4.562   0.789   2.530
 5845TIP3    H117541   4.505   0.753   2.462
 5845TIP3    H217542   4.503   0.842   2.585
 5846TIP3   OH217543   2.210   2.321   2.706
 5846TIP3    H117544   2.276   2.251   2.702
 5846TIP3    H217545   2.189   2.340   2.615
 5847TIP3   OH217546   0.468   4.194   0.423
 5847TIP3    H117547   0.428   4.247   0.492
 5847TIP3    H217548   0.403   4.127   0.403
 5848TIP3   OH217549   1.741   1.005   4.746
 5848TIP3    H117550   1.757   0.935   4.810
 5848TIP3    H217551   1.648   1.025   4.755
 5849TIP3   OH217552   2.321   3.422   3.776
 5849TIP3    H117553   2.288   3.449   3.690
 5849TIP3    H217554   2.414   3.404   3.761
 5850TIP3   OH217555   5.059   5.820   3.281
 5850TIP3    H117556   5.046   5.776   3.196
 5850TIP3    H217557   5.122   5.765   3.327
 5851TIP3   OH217558   1.268   2.192   4.143
 5851TIP3    H117559   1.231   2.280   4.142
 5851TIP3    H217560   1.269   2.168   4.236
 5852TIP3   OH217561   0.307   0.281   2.466
 5852TIP3    H117562   0.213   0.265   2.461
 5852TIP3    H217563   0.330   0.316   2.380
 5853TIP3   OH217564   1.922   2.474   1.720
 5853TIP3    H117565   1.975   2.468   1.641
 5853TIP3    H217566   1.978   2.521   1.783
 5854TIP3   OH217567   3.831   2.261   1.708
 5854TIP3    H117568   3.878   2.240   1.627
 5854TIP3    H217569   3.889   2.233   1.778
 5855TIP3   OH217570   2.285   3.105   1.637
 5855TIP3    H117571   2.334   3.046   1.580
 5855TIP3    H217572   2.333   3.102   1.720
 5856TIP3   OH217573   4.220   0.401   2.526
 5856TIP3    H117574   4.170   0.340   2.580
 5856TIP3    H217575   4.156   0.466   2.497
 5857TIP3   OH217576   4.126   5.014   2.211
 5857TIP3    H117577   4.189   4.951   2.175
 5857TIP3    H217578   4.143   5.095   2.163
 5858TIP3   OH217579  -0.002   5.247   2.428
 5858TIP3    H117580   0.047   5.321   2.463
 5858TIP3    H217581   0.055   5.208   2.362
 5859TIP3   OH217582   4.698   1.642   2.252
 5859TIP3    H117583   4.641   1.650   2.328
 5859TIP3    H217584   4.786   1.643   2.288
 5860TIP3   OH217585   1.613   5.157   0.348
 5860TIP3    H117586   1.610   5.172   0.254
 5860TIP3    H217587   1.592   5.242   0.387
 5861TIP3   OH217588   4.362   3.568   3.335
 5861TIP3    H117589   4.452   3.581   3.364
 5861TIP3    H217590   4.340   3.479   3.362
 5862TIP3   OH217591   5.572   5.072   2.572
 5862TIP3    H117592   5.536   5.133   2.508
 5862TIP3    H217593   5.658   5.107   2.593
 5863TIP3   OH217594   3.773   2.627   1.906
 5863TIP3    H117595   3.799   2.553   1.962
 5863TIP3    H217596   3.855   2.662   1.872
 5864TIP3   OH217597   3.438   2.182   4.387
 5864TIP3    H117598   3.480   2.096   4.380
 5864TIP3    H217599   3.452   2.208   4.478
 5865TIP3   OH217600   0.046   3.717   4.554
 5865TIP3    H117601   0.069   3.625   4.539
 5865TIP3    H217602   0.056   3.759   4.469
 5866TIP3   OH217603   0.455   3.072   1.337
 5866TIP3    H117604   0.541   3.042   1.366
 5866TIP3    H217605   0.404   3.079   1.418
 5867TIP3   OH217606   4.509   5.053   3.443
 5867TIP3    H117607   4.502   4.995   3.367
 5867TIP3    H217608   4.577   5.013   3.497
 5868TIP3   OH217609   6.307   0.135   3.178
 5868TIP3    H117610   6.357   0.136   3.259
 5868TIP3    H217611   6.368   0.163   3.110
 5869TIP3   OH217612   5.782   2.510   0.799
 5869TIP3    H117613   5.711   2.457   0.761
 5869TIP3    H217614   5.861   2.480   0.755
 5870TIP3   OH217615   2.032   0.329   0.123
 5870TIP3    H117616   2.001   0.255   0.176
 5870TIP3    H217617   2.084   0.381   0.185
 5871TIP3   OH217618   0.806   2.361   4.015
 5871TIP3    H117619   0.811   2.299   3.943
 5871TIP3    H217620   0.817   2.307   4.094
 5872TIP3   OH217621   3.380   1.223   3.033
 5872TIP3    H117622   3.403   1.239   3.125
 5872TIP3    H217623   3.323   1.297   3.010
 5873TIP3   OH217624   4.752   5.853   4.691
 5873TIP3    H117625   4.703   5.893   4.763
 5873TIP3    H217626   4.687   5.836   4.624
 5874TIP3   OH217627   0.125   0.429   3.401
 5874TIP3    H117628   0.181   0.495   3.360
 5874TIP3    H217629   0.100   0.371   3.330
 5875TIP3   OH217630   1.212   3.624   4.504
 5875TIP3    H117631   1.122   3.601   4.524
 5875TIP3    H217632   1.208   3.660   4.415
 5876TIP3   OH217633   5.572   5.227   4.016
 5876TIP3    H117634   5.573   5.149   4.071
 5876TIP3    H217635   5.615   5.294   4.069
 5877TIP3   OH217636   5.279   1.004   1.978
 5877TIP3    H117637   5.362   1.050   1.961
 5877TIP3    H217638   5.292   0.962   2.063
 5878TIP3   OH217639   0.766   2.251   2.740
 5878TIP3    H117640   0.672   2.268   2.751
 5878TIP3    H217641   0.798   2.235   2.829
 5879TIP3   OH217642   2.021   3.929   0.625
 5879TIP3    H117643   1.941   3.884   0.652
 5879TIP3    H217644   2.079   3.923   0.701
 5880TIP3   OH217645   3.812   3.774   1.567
 5880TIP3    H117646   3.905   3.758   1.553
 5880TIP3    H217647   3.803   3.781   1.662
 5881TIP3   OH217648   5.048   3.229   5.165
 5881TIP3    H117649   4.972   3.208   5.219
 5881TIP3    H217650   5.079   3.144   5.133
 5882TIP3   OH217651   4.341   0.682   1.051
 5882TIP3    H117652   4.391   0.701   1.131
 5882TIP3    H217653   4.381   0.737   0.984
 5883TIP3   OH217654   3.559   4.575   0.985
 5883TIP3    H117655   3.620   4.502   0.978
 5883TIP3    H217656   3.613   4.650   1.007
 5884TIP3   OH217657   0.295   3.696   0.669
 5884TIP3    H117658   0.271   3.692   0.577
 5884TIP3    H217659   0.309   3.605   0.694
 5885TIP3   OH217660   6.236   1.769   4.354
 5885TIP3    H117661   6.328   1.789   4.334
 5885TIP3    H217662   6.203   1.850   4.393
 5886TIP3   OH217663   5.317   4.175   0.089
 5886TIP3    H117664   5.267   4.234   0.146
 5886TIP3    H217665   5.329   4.096   0.141
 5887TIP3   OH217666   4.491   4.717   1.333
 5887TIP3    H117667   4.542   4.761   1.264
 5887TIP3    H217668   4.411   4.688   1.289
 5888TIP3   OH217669   3.070   1.556   4.279
 5888TIP3    H117670   3.075   1.640   4.234
 5888TIP3    H217671   3.091   1.491   4.212
 5889TIP3   OH217672   0.665   5.555   0.785
 5889TIP3    H117673   0.599   5.542   0.854
 5889TIP3    H217674   0.672   5.470   0.742
 5890TIP3   OH217675   4.751   2.636   4.306
 5890TIP3    H117676   4.793   2.721   4.292
 5890TIP3    H217677   4.746   2.597   4.219
 5891TIP3   OH217678   1.372   2.022   4.743
 5891TIP3    H117679   1.288   1.988   4.711
 5891TIP3    H217680   1.418   1.945   4.776
 5892TIP3   OH217681   2.789   5.857   4.880
 5892TIP3    H117682   2.700   5.860   4.846
 5892TIP3    H217683   2.780   5.825   4.970
 5893TIP3   OH217684   1.111   4.768   4.812
 5893TIP3    H117685   1.097   4.829   4.739
 5893TIP3    H217686   1.192   4.722   4.789
 5894TIP3   OH217687   3.136   0.628   0.148
 5894TIP3    H117688   3.138   0.534   0.165
 5894TIP3    H217689   3.066   0.661   0.204
 5895TIP3   OH217690   2.531   1.863   1.318
 5895TIP3    H117691   2.598   1.815   1.269
 5895TIP3    H217692   2.478   1.795   1.360
 5896TIP3   OH217693   4.634   0.111   3.928
 5896TIP3    H117694   4.653   0.073   4.014
 5896TIP3    H217695   4.542   0.137   3.932
 5897TIP3   OH217696   0.255   3.594   2.811
 5897TIP3    H117697   0.224   3.537   2.740
 5897TIP3    H217698   0.308   3.537   2.866
 5898TIP3   OH217699   0.838   4.345   1.863
 5898TIP3    H117700   0.807   4.421   1.912
 5898TIP3    H217701   0.845   4.275   1.928
 5899TIP3   OH217702   1.560   3.302   4.366
 5899TIP3    H117703   1.629   3.365   4.388
 5899TIP3    H217704   1.527   3.331   4.281
 5900TIP3   OH217705   3.975   4.311   4.254
 5900TIP3    H117706   3.975   4.389   4.309
 5900TIP3    H217707   4.055   4.264   4.277
 5901TIP3   OH217708   0.701   0.798   0.410
 5901TIP3    H117709   0.671   0.767   0.495
 5901TIP3    H217710   0.671   0.732   0.348
 5902TIP3   OH217711   2.048   3.432   1.727
 5902TIP3    H117712   2.091   3.510   1.692
 5902TIP3    H217713   2.057   3.367   1.657
 5903TIP3   OH217714   5.308   2.883   2.338
 5903TIP3    H117715   5.376   2.947   2.361
 5903TIP3    H217716   5.346   2.798   2.361
 5904TIP3   OH217717   5.143   1.797   2.067
 5904TIP3    H117718   5.165   1.719   2.018
 5904TIP3    H217719   5.172   1.870   2.012
 5905TIP3   OH217720   1.726   5.468   0.396
 5905TIP3    H117721   1.646   5.435   0.436
 5905TIP3    H217722   1.697   5.539   0.339
 5906TIP3   OH217723   3.657   4.465   2.170
 5906TIP3    H117724   3.656   4.370   2.156
 5906TIP3    H217725   3.625   4.502   2.088
 5907TIP3   OH217726   6.305   4.938   0.847
 5907TIP3    H117727   6.222   4.984   0.861
 5907TIP3    H217728   6.293   4.890   0.765
 5908TIP3   OH217729   0.353   1.147   4.700
 5908TIP3    H117730   0.282   1.211   4.702
 5908TIP3    H217731   0.312   1.064   4.725
 5909TIP3   OH217732   0.906   3.656   1.960
 5909TIP3    H117733   0.985   3.672   2.011
 5909TIP3    H217734   0.835   3.656   2.025
 5910TIP3   OH217735   3.967   4.082   0.578
 5910TIP3    H117736   3.929   4.097   0.665
 5910TIP3    H217737   4.058   4.056   0.596
 5911TIP3   OH217738   2.197   2.398   3.503
 5911TIP3    H117739   2.286   2.431   3.505
 5911TIP3    H217740   2.147   2.462   3.453
 5912TIP3   OH217741   5.431   0.221   0.427
 5912TIP3    H117742   5.517   0.181   0.412
 5912TIP3    H217743   5.369   0.148   0.420
 5913TIP3   OH217744   0.705   3.049   4.892
 5913TIP3    H117745   0.728   2.956   4.887
 5913TIP3    H217746   0.707   3.069   4.985
 5914TIP3   OH217747   0.432   0.295   3.141
 5914TIP3    H117748   0.421   0.375   3.090
 5914TIP3    H217749   0.450   0.228   3.075
 5915TIP3   OH217750   3.797   1.688   1.323
 5915TIP3    H117751   3.884   1.652   1.305
 5915TIP3    H217752   3.815   1.763   1.380
 5916TIP3   OH217753   1.021   1.534   1.398
 5916TIP3    H117754   1.008   1.515   1.305
 5916TIP3    H217755   1.114   1.515   1.413
 5917TIP3   OH217756   0.353   5.345   2.396
 5917TIP3    H117757   0.308   5.275   2.348
 5917TIP3    H217758   0.432   5.362   2.345
 5918TIP3   OH217759   2.426   2.778   3.606
 5918TIP3    H117760   2.393   2.809   3.690
 5918TIP3    H217761   2.379   2.829   3.540
 5919TIP3   OH217762   4.388   1.601   0.448
 5919TIP3    H117763   4.320   1.563   0.392
 5919TIP3    H217764   4.434   1.663   0.392
 5920TIP3   OH217765   0.671   5.955   3.598
 5920TIP3    H117766   0.756   5.979   3.561
 5920TIP3    H217767   0.691   5.922   3.685
 5921TIP3   OH217768   4.299   0.947   3.418
 5921TIP3    H117769   4.313   1.021   3.359
 5921TIP3    H217770   4.279   0.987   3.503
 5922TIP3   OH217771   0.206   2.341   4.271
 5922TIP3    H117772   0.187   2.249   4.287
 5922TIP3    H217773   0.300   2.344   4.253
 5923TIP3   OH217774   1.248   1.517   0.921
 5923TIP3    H117775   1.330   1.540   0.879
 5923TIP3    H217776   1.223   1.594   0.971
 5924TIP3   OH217777   6.297   0.353   3.978
 5924TIP3    H117778   6.304   0.354   4.073
 5924TIP3    H217779   6.313   0.444   3.952
 5925TIP3   OH217780   3.242   4.932   0.871
 5925TIP3    H117781   3.274   4.897   0.788
 5925TIP3    H217782   3.164   4.881   0.890
 5926TIP3   OH217783   4.234   0.505   1.512
 5926TIP3    H117784   4.164   0.442   1.498
 5926TIP3    H217785   4.210   0.551   1.592
 5927TIP3   OH217786   2.380   2.939   1.019
 5927TIP3    H117787   2.378   3.006   0.951
 5927TIP3    H217788   2.292   2.900   1.017
 5928TIP3   OH217789   6.195   2.712   3.540
 5928TIP3    H117790   6.180   2.806   3.550
 5928TIP3    H217791   6.265   2.706   3.475
 5929TIP3   OH217792   2.281   4.171   0.130
 5929TIP3    H117793   2.304   4.256   0.094
 5929TIP3    H217794   2.193   4.153   0.096
 5930TIP3   OH217795   5.493   5.761   0.946
 5930TIP3    H117796   5.436   5.811   0.887
 5930TIP3    H217797   5.462   5.671   0.938
 5931TIP3   OH217798   3.900   4.821   0.256
 5931TIP3    H117799   3.943   4.839   0.172
 5931TIP3    H217800   3.836   4.753   0.236
 5932TIP3   OH217801   5.351   3.160   3.477
 5932TIP3    H117802   5.412   3.172   3.550
 5932TIP3    H217803   5.348   3.065   3.465
 5933TIP3   OH217804   2.249   0.240   1.790
 5933TIP3    H117805   2.241   0.295   1.712
 5933TIP3    H217806   2.198   0.162   1.771
 5934TIP3   OH217807   3.062   1.027   2.320
 5934TIP3    H117808   3.126   1.003   2.387
 5934TIP3    H217809   2.984   1.052   2.370
 5935TIP3   OH217810   4.215   0.616   0.637
 5935TIP3    H117811   4.243   0.637   0.548
 5935TIP3    H217812   4.282   0.656   0.693
 5936TIP3   OH217813   6.194   5.345   4.066
 5936TIP3    H117814   6.265   5.399   4.101
 5936TIP3    H217815   6.235   5.291   3.999
 5937TIP3   OH217816   3.029   4.631   1.900
 5937TIP3    H117817   2.969   4.559   1.919
 5937TIP3    H217818   3.019   4.646   1.805
 5938TIP3   OH217819   4.568   1.063   3.103
 5938TIP3    H117820   4.558   0.968   3.110
 5938TIP3    H217821   4.620   1.076   3.024
 5939TIP3   OH217822   4.120   5.545   2.744
 5939TIP3    H117823   4.154   5.467   2.787
 5939TIP3    H217824   4.137   5.617   2.805
 5940TIP3   OH217825   2.538   2.007   4.578
 5940TIP3    H117826   2.609   2.015   4.642
 5940TIP3    H217827   2.472   1.953   4.621
 5941TIP3   OH217828   6.172   5.418   0.821
 5941TIP3    H117829   6.143   5.506   0.849
 5941TIP3    H217830   6.258   5.433   0.782
 5942TIP3   OH217831   3.594   2.094   5.077
 5942TIP3    H117832   3.659   2.038   5.119
 5942TIP3    H217833   3.510   2.064   5.112
 5943TIP3   OH217834   5.814   2.792   1.383
 5943TIP3    H117835   5.762   2.758   1.456
 5943TIP3    H217836   5.802   2.887   1.387
 5944TIP3   OH217837   4.075   2.322   1.169
 5944TIP3    H117838   4.100   2.304   1.260
 5944TIP3    H217839   4.111   2.409   1.151
 5945TIP3   OH217840   3.036   0.415   4.124
 5945TIP3    H117841   2.945   0.444   4.129
 5945TIP3    H217842   3.083   0.477   4.180
 5946TIP3   OH217843   1.525   2.374   4.019
 5946TIP3    H117844   1.523   2.278   4.022
 5946TIP3    H217845   1.433   2.400   4.026
 5947TIP3   OH217846   3.831   1.976   2.131
 5947TIP3    H117847   3.850   1.887   2.159
 5947TIP3    H217848   3.891   1.991   2.058
 5948TIP3   OH217849   2.686   2.777   3.481
 5948TIP3    H117850   2.648   2.823   3.406
 5948TIP3    H217851   2.619   2.784   3.549
 5949TIP3   OH217852   0.825   2.798   4.880
 5949TIP3    H117853   0.800   2.722   4.828
 5949TIP3    H217854   0.887   2.763   4.945
 5950TIP3   OH217855   0.034   5.880   0.544
 5950TIP3    H117856   0.034   5.785   0.550
 5950TIP3    H217857  -0.051   5.906   0.582
 5951TIP3   OH217858   0.044   4.599   3.668
 5951TIP3    H117859  -0.036   4.650   3.659
 5951TIP3    H217860   0.113   4.658   3.635
 5952TIP3   OH217861   2.739   2.151   0.423
 5952TIP3    H117862   2.687   2.173   0.500
 5952TIP3    H217863   2.785   2.232   0.401
 5953TIP3   OH217864   4.422   0.515   3.945
 5953TIP3    H117865   4.368   0.594   3.946
 5953TIP3    H217866   4.389   0.463   4.018
 5954TIP3   OH217867   2.747   0.882   0.207
 5954TIP3    H117868   2.830   0.835   0.215
 5954TIP3    H217869   2.708   0.849   0.126
 5955TIP3   OH217870   0.140   0.440   4.733
 5955TIP3    H117871   0.196   0.405   4.664
 5955TIP3    H217872   0.090   0.364   4.764
 5956TIP3   OH217873   2.317   0.108   3.214
 5956TIP3    H117874   2.385   0.125   3.278
 5956TIP3    H217875   2.243   0.075   3.265
 5957TIP3   OH217876   2.428   2.531   3.543
 5957TIP3    H117877   2.424   2.624   3.565
 5957TIP3    H217878   2.473   2.491   3.618
 5958TIP3   OH217879   4.125   3.195   0.920
 5958TIP3    H117880   4.184   3.256   0.965
 5958TIP3    H217881   4.184   3.129   0.882
 5959TIP3   OH217882   3.301   3.215   2.490
 5959TIP3    H117883   3.270   3.136   2.444
 5959TIP3    H217884   3.392   3.195   2.513
 5960TIP3   OH217885   0.094   4.287   3.485
 5960TIP3    H117886   0.057   4.274   3.572
 5960TIP3    H217887   0.182   4.322   3.501
 5961TIP3   OH217888   3.077   2.615   1.374
 5961TIP3    H117889   3.140   2.632   1.444
 5961TIP3    H217890   3.099   2.678   1.306
 5962TIP3   OH217891   1.300   5.114   2.239
 5962TIP3    H117892   1.222   5.092   2.289
 5962TIP3    H217893   1.268   5.165   2.165
 5963TIP3   OH217894   2.273   1.055   2.055
 5963TIP3    H117895   2.362   1.071   2.089
 5963TIP3    H217896   2.280   0.973   2.007
 5964TIP3   OH217897   5.038   3.052   1.082
 5964TIP3    H117898   5.082   2.983   1.033
 5964TIP3    H217899   4.989   3.005   1.150
 5965TIP3   OH217900   2.109   2.689   3.416
 5965TIP3    H117901   2.150   2.675   3.331
 5965TIP3    H217902   2.152   2.768   3.450
 5966TIP3   OH217903   3.196   2.738   1.153
 5966TIP3    H117904   3.232   2.773   1.072
 5966TIP3    H217905   3.182   2.816   1.208
 5967TIP3   OH217906   1.773   1.599   0.009
 5967TIP3    H117907   1.711   1.596  -0.064
 5967TIP3    H217908   1.764   1.688   0.043
 5968TIP3   OH217909   4.870   1.945   3.116
 5968TIP3    H117910   4.796   2.006   3.117
 5968TIP3    H217911   4.895   1.939   3.024
 5969TIP3   OH217912   2.546   3.894   5.073
 5969TIP3    H117913   2.464   3.927   5.109
 5969TIP3    H217914   2.560   3.811   5.119
 5970TIP3   OH217915   6.026   1.386   0.498
 5970TIP3    H117916   6.109   1.419   0.464
 5970TIP3    H217917   5.964   1.400   0.426
 5971TIP3   OH217918   2.853   0.241   0.888
 5971TIP3    H117919   2.770   0.194   0.882
 5971TIP3    H217920   2.919   0.177   0.862
 5972TIP3   OH217921   3.189   0.528   1.383
 5972TIP3    H117922   3.136   0.522   1.462
 5972TIP3    H217923   3.126   0.534   1.312
 5973TIP3   OH217924   2.582   1.370   0.790
 5973TIP3    H117925   2.638   1.405   0.859
 5973TIP3    H217926   2.522   1.311   0.835
 5974TIP3   OH217927   6.225   5.795   1.784
 5974TIP3    H117928   6.267   5.867   1.738
 5974TIP3    H217929   6.265   5.795   1.871
 5975TIP3   OH217930   4.891   3.743   5.134
 5975TIP3    H117931   4.873   3.649   5.141
 5975TIP3    H217932   4.833   3.773   5.064
 5976TIP3   OH217933   2.696   5.123   1.339
 5976TIP3    H117934   2.631   5.192   1.326
 5976TIP3    H217935   2.657   5.045   1.298
 5977TIP3   OH217936   4.521   2.489   4.332
 5977TIP3    H117937   4.516   2.438   4.413
 5977TIP3    H217938   4.611   2.521   4.329
 5978TIP3   OH217939   5.750   3.993   0.275
 5978TIP3    H117940   5.841   4.023   0.283
 5978TIP3    H217941   5.705   4.065   0.230
 5979TIP3   OH217942   4.563   3.885   2.958
 5979TIP3    H117943   4.612   3.809   2.989
 5979TIP3    H217944   4.477   3.850   2.933
 5980TIP3   OH217945   5.423   4.706   2.883
 5980TIP3    H117946   5.495   4.648   2.908
 5980TIP3    H217947   5.452   4.747   2.802
 5981TIP3   OH217948   4.834   5.513   0.756
 5981TIP3    H117949   4.900   5.497   0.689
 5981TIP3    H217950   4.874   5.480   0.837
 5982TIP3   OH217951   0.257   5.557   4.971
 5982TIP3    H117952   0.338   5.608   4.981
 5982TIP3    H217953   0.274   5.499   4.898
 5983TIP3   OH217954   4.205   2.390   0.144
 5983TIP3    H117955   4.203   2.472   0.193
 5983TIP3    H217956   4.204   2.416   0.052
 5984TIP3   OH217957   1.016   4.491   1.707
 5984TIP3    H117958   1.003   4.583   1.729
 5984TIP3    H217959   0.964   4.443   1.772
 5985TIP3   OH217960   0.599   4.614   0.429
 5985TIP3    H117961   0.599   4.705   0.400
 5985TIP3    H217962   0.675   4.575   0.386
 5986TIP3   OH217963   2.368   1.159   4.507
 5986TIP3    H117964   2.414   1.080   4.478
 5986TIP3    H217965   2.411   1.183   4.589
 5987TIP3   OH217966   6.176   2.106   2.956
 5987TIP3    H117967   6.220   2.024   2.933
 5987TIP3    H217968   6.231   2.175   2.920
 5988TIP3   OH217969   3.510   1.649   4.088
 5988TIP3    H117970   3.483   1.571   4.136
 5988TIP3    H217971   3.588   1.680   4.134
 5989TIP3   OH217972   5.560   4.129   5.129
 5989TIP3    H117973   5.469   4.132   5.101
 5989TIP3    H217974   5.596   4.051   5.089
 5990TIP3   OH217975   0.240   5.735   4.162
 5990TIP3    H117976   0.204   5.807   4.110
 5990TIP3    H217977   0.179   5.726   4.235
 5991TIP3   OH217978   1.794   1.325   0.077
 5991TIP3    H117979   1.789   1.416   0.048
 5991TIP3    H217980   1.876   1.319   0.125
 5992TIP3   OH217981   1.217   2.032   3.919
 5992TIP3    H117982   1.168   1.957   3.951
 5992TIP3    H217983   1.228   2.088   3.995
 5993TIP3   OH217984   0.372   2.717   5.199
 5993TIP3    H117985   0.305   2.785   5.202
 5993TIP3    H217986   0.420   2.733   5.118
 5994TIP3   OH217987   0.956   4.889   2.076
 5994TIP3    H117988   0.893   4.817   2.081
 5994TIP3    H217989   1.022   4.866   2.142
 5995TIP3   OH217990   3.526   4.008   2.845
 5995TIP3    H117991   3.594   4.012   2.777
 5995TIP3    H217992   3.445   3.994   2.797
 5996TIP3   OH217993   4.319   5.520   2.487
 5996TIP3    H117994   4.404   5.479   2.472
 5996TIP3    H217995   4.285   5.476   2.566
 5997TIP3   OH217996   3.585   5.534   3.435
 5997TIP3    H117997   3.499   5.555   3.472
 5997TIP3    H217998   3.642   5.524   3.511
 5998TIP3   OH217999   5.399   5.039   0.575
 5998TIP3    H118000   5.314   5.082   0.570
 5998TIP3    H218001   5.426   5.049   0.667
 5999TIP3   OH218002   0.972   4.821   4.068
 5999TIP3    H118003   0.908   4.757   4.038
 5999TIP3    H218004   0.949   4.901   4.020
 6000TIP3   OH218005   4.413   1.711   5.075
 6000TIP3    H118006   4.492   1.764   5.085
 6000TIP3    H218007   4.442   1.633   5.028
 6001TIP3   OH218008   3.926   0.669   3.134
 6001TIP3    H118009   3.871   0.683   3.056
 6001TIP3    H218010   3.955   0.757   3.158
 6002TIP3   OH218011   0.492   1.182   1.090
 6002TIP3    H118012   0.429   1.153   1.024
 6002TIP3    H218013   0.532   1.260   1.052
 6003TIP3   OH218014   5.031   3.888   3.014
 6003TIP3    H118015   5.115   3.922   3.047
 6003TIP3    H218016   5.015   3.938   2.934
 6004TIP3   OH218017   2.085   4.509   0.486
 6004TIP3    H118018   2.147   4.477   0.419
 6004TIP3    H218019   2.100   4.603   0.490
 6005TIP3   OH218020   6.275   4.556   5.112
 6005TIP3    H118021   6.348   4.535   5.053
 6005TIP3    H218022   6.199   4.516   5.070
 6006TIP3   OH218023   2.833   1.217   1.801
 6006TIP3    H118024   2.918   1.174   1.805
 6006TIP3    H218025   2.780   1.160   1.745
 6007TIP3   OH218026   2.197   5.727   2.535
 6007TIP3    H118027   2.237   5.802   2.490
 6007TIP3    H218028   2.195   5.658   2.469
 6008TIP3   OH218029   6.107   2.304   1.994
 6008TIP3    H118030   6.094   2.389   1.951
 6008TIP3    H218031   6.037   2.249   1.958
 6009TIP3   OH218032   2.450   1.697   2.512
 6009TIP3    H118033   2.373   1.751   2.492
 6009TIP3    H218034   2.460   1.704   2.607
 6010TIP3   OH218035   2.462   2.997   1.463
 6010TIP3    H118036   2.456   2.930   1.395
 6010TIP3    H218037   2.498   3.074   1.418
 6011TIP3   OH218038   6.104   0.990   4.692
 6011TIP3    H118039   6.067   1.020   4.775
 6011TIP3    H218040   6.089   0.896   4.691
 6012TIP3   OH218041   0.919   5.034   3.327
 6012TIP3    H118042   0.900   5.102   3.263
 6012TIP3    H218043   0.834   5.009   3.363
 6013TIP3   OH218044   1.668   2.528   4.231
 6013TIP3    H118045   1.727   2.469   4.183
 6013TIP3    H218046   1.583   2.517   4.188
 6014TIP3   OH218047   3.333   5.814   1.730
 6014TIP3    H118048   3.300   5.869   1.801
 6014TIP3    H218049   3.421   5.848   1.712
 6015TIP3   OH218050   6.041   1.657   0.325
 6015TIP3    H118051   6.003   1.576   0.290
 6015TIP3    H218052   6.096   1.690   0.255
 6016TIP3   OH218053   4.564   2.675   3.488
 6016TIP3    H118054   4.658   2.686   3.473
 6016TIP3    H218055   4.525   2.679   3.401
 6017TIP3   OH218056   6.171   4.738   3.040
 6017TIP3    H118057   6.209   4.758   3.125
 6017TIP3    H218058   6.171   4.822   2.993
 6018TIP3   OH218059   2.658   0.059   0.835
 6018TIP3    H118060   2.643   0.017   0.751
 6018TIP3    H218061   2.706  -0.007   0.886
 6019TIP3   OH218062   6.068   4.940   0.609
 6019TIP3    H118063   6.104   4.891   0.535
 6019TIP3    H218064   6.003   4.998   0.569
 6020TIP3   OH218065   5.765   3.991   2.382
 6020TIP3    H118066   5.758   4.070   2.327
 6020TIP3    H218067   5.753   3.919   2.320
 6021TIP3   OH218068   2.062   3.126   1.934
 6021TIP3    H118069   2.065   3.087   1.847
 6021TIP3    H218070   1.982   3.179   1.935
 6022TIP3   OH218071   0.139   3.503   2.130
 6022TIP3    H118072   0.170   3.413   2.120
 6022TIP3    H218073   0.046   3.499   2.109
 6023TIP3   OH218074   5.855   4.202   1.065
 6023TIP3    H118075   5.760   4.204   1.073
 6023TIP3    H218076   5.872   4.149   0.988
 6024TIP3   OH218077   2.228   0.744   0.349
 6024TIP3    H118078   2.161   0.806   0.323
 6024TIP3    H218079   2.252   0.769   0.438
 6025TIP3   OH218080   1.643   2.420   5.122
 6025TIP3    H118081   1.676   2.486   5.062
 6025TIP3    H218082   1.556   2.398   5.089
 6026TIP3   OH218083   4.913   1.000   2.178
 6026TIP3    H118084   4.959   0.959   2.105
 6026TIP3    H218085   4.825   0.963   2.175
 6027TIP3   OH218086   1.464   4.175   3.446
 6027TIP3    H118087   1.451   4.087   3.481
 6027TIP3    H218088   1.552   4.200   3.476
 6028TIP3   OH218089   1.214   3.472   3.069
 6028TIP3    H118090   1.238   3.381   3.082
 6028TIP3    H218091   1.132   3.469   3.021
 6029TIP3   OH218092   3.668   0.123   0.740
 6029TIP3    H118093   3.619   0.045   0.765
 6029TIP3    H218094   3.735   0.133   0.808
 6030TIP3   OH218095   1.964   0.132   4.909
 6030TIP3    H118096   1.892   0.195   4.905
 6030TIP3    H218097   2.040   0.184   4.935
 6031TIP3   OH218098   4.609   4.499   2.739
 6031TIP3    H118099   4.540   4.435   2.721
 6031TIP3    H218100   4.561   4.581   2.755
 6032TIP3   OH218101   0.235   5.508   3.476
 6032TIP3    H118102   0.168   5.489   3.542
 6032TIP3    H218103   0.210   5.593   3.440
 6033TIP3   OH218104   0.209   5.189   4.872
 6033TIP3    H118105   0.233   5.273   4.832
 6033TIP3    H218106   0.290   5.138   4.868
 6034TIP3   OH218107   1.551   0.850   3.389
 6034TIP3    H118108   1.537   0.804   3.473
 6034TIP3    H218109   1.515   0.937   3.403
 6035TIP3   OH218110   3.786   3.668   4.930
 6035TIP3    H118111   3.773   3.662   4.835
 6035TIP3    H218112   3.880   3.687   4.940
 6036TIP3   OH218113   1.070   1.668   4.653
 6036TIP3    H118114   1.059   1.584   4.697
 6036TIP3    H218115   0.986   1.713   4.667
 6037TIP3   OH218116   0.543   0.556   2.339
 6037TIP3    H118117   0.506   0.480   2.294
 6037TIP3    H218118   0.534   0.535   2.432
 6038TIP3   OH218119   5.028   0.251   0.660
 6038TIP3    H118120   5.123   0.255   0.660
 6038TIP3    H218121   5.005   0.232   0.751
 6039TIP3   OH218122   2.314   5.845   2.335
 6039TIP3    H118123   2.334   5.929   2.294
 6039TIP3    H218124   2.334   5.780   2.267
 6040TIP3   OH218125   4.064   0.365   3.391
 6040TIP3    H118126   4.118   0.308   3.446
 6040TIP3    H218127   4.006   0.306   3.344
 6041TIP3   OH218128   1.843   3.921   4.842
 6041TIP3    H118129   1.773   3.867   4.808
 6041TIP3    H218130   1.917   3.861   4.852
 6042TIP3   OH218131   5.839   4.306   0.275
 6042TIP3    H118132   5.752   4.281   0.244
 6042TIP3    H218133   5.895   4.303   0.198
 6043TIP3   OH218134   3.643   2.924   1.698
 6043TIP3    H118135   3.627   2.909   1.605
 6043TIP3    H218136   3.739   2.918   1.707
 6044TIP3   OH218137   4.784   5.505   3.619
 6044TIP3    H118138   4.743   5.427   3.581
 6044TIP3    H218139   4.805   5.479   3.709
 6045TIP3   OH218140   0.572   4.438   4.937
 6045TIP3    H118141   0.652   4.408   4.894
 6045TIP3    H218142   0.525   4.358   4.959
 6046TIP3   OH218143   1.462   4.227   3.897
 6046TIP3    H118144   1.431   4.297   3.840
 6046TIP3    H218145   1.422   4.148   3.861
 6047TIP3   OH218146   3.654   1.246   2.741
 6047TIP3    H118147   3.654   1.275   2.650
 6047TIP3    H218148   3.614   1.318   2.790
 6048TIP3   OH218149   4.738   5.823   3.067
 6048TIP3    H118150   4.730   5.908   3.024
 6048TIP3    H218151   4.682   5.831   3.144
 6049TIP3   OH218152   0.677   3.979   2.723
 6049TIP3    H118153   0.642   3.896   2.690
 6049TIP3    H218154   0.680   4.036   2.646
 6050TIP3   OH218155   3.546   5.001   4.814
 6050TIP3    H118156   3.567   4.940   4.744
 6050TIP3    H218157   3.548   5.087   4.773
 6051TIP3   OH218158   2.560   2.148   3.026
 6051TIP3    H118159   2.548   2.066   3.074
 6051TIP3    H218160   2.552   2.216   3.094
 6052TIP3   OH218161   0.555   5.289   1.793
 6052TIP3    H118162   0.572   5.215   1.735
 6052TIP3    H218163   0.516   5.355   1.736
 6053TIP3   OH218164   2.411   1.925   1.703
 6053TIP3    H118165   2.360   1.867   1.760
 6053TIP3    H218166   2.464   1.977   1.764
 6054TIP3   OH218167   1.637   4.690   1.198
 6054TIP3    H118168   1.656   4.701   1.105
 6054TIP3    H218169   1.544   4.667   1.201
 6055TIP3   OH218170   3.232   0.369   2.885
 6055TIP3    H118171   3.259   0.351   2.795
 6055TIP3    H218172   3.310   0.351   2.938
 6056TIP3   OH218173   0.414   2.081   2.334
 6056TIP3    H118174   0.432   2.150   2.397
 6056TIP3    H218175   0.325   2.100   2.303
 6057TIP3   OH218176   4.689   2.650   4.631
 6057TIP3    H118177   4.782   2.671   4.632
 6057TIP3    H218178   4.672   2.621   4.541
 6058TIP3   OH218179   5.611   2.130   0.988
 6058TIP3    H118180   5.517   2.146   0.977
 6058TIP3    H218181   5.615   2.055   1.047
 6059TIP3   OH218182   1.115   2.642   4.542
 6059TIP3    H118183   1.053   2.649   4.469
 6059TIP3    H218184   1.077   2.577   4.600
 6060TIP3   OH218185   2.035   5.626   4.869
 6060TIP3    H118186   1.985   5.593   4.944
 6060TIP3    H218187   2.121   5.585   4.877
 6061TIP3   OH218188   3.798   5.353   2.501
 6061TIP3    H118189   3.753   5.300   2.567
 6061TIP3    H218190   3.873   5.301   2.474
 6062TIP3   OH218191   3.014   5.470   0.244
 6062TIP3    H118192   2.973   5.552   0.217
 6062TIP3    H218193   2.941   5.411   0.260
 6063TIP3   OH218194   0.225   2.296   0.810
 6063TIP3    H118195   0.291   2.227   0.809
 6063TIP3    H218196   0.246   2.348   0.888
 6064TIP3   OH218197   6.185   4.332   4.517
 6064TIP3    H118198   6.165   4.417   4.479
 6064TIP3    H218199   6.105   4.305   4.562
 6065TIP3   OH218200   2.866   1.579   1.370
 6065TIP3    H118201   2.894   1.609   1.456
 6065TIP3    H218202   2.791   1.522   1.388
 6066TIP3   OH218203   1.478   1.278   3.688
 6066TIP3    H118204   1.480   1.221   3.612
 6066TIP3    H218205   1.569   1.284   3.717
 6067TIP3   OH218206   2.696   2.855   1.802
 6067TIP3    H118207   2.771   2.909   1.775
 6067TIP3    H218208   2.731   2.798   1.870
 6068TIP3   OH218209   4.316   4.713   3.704
 6068TIP3    H118210   4.231   4.671   3.720
 6068TIP3    H218211   4.318   4.726   3.609
 6069TIP3   OH218212   4.839   4.203   4.177
 6069TIP3    H118213   4.904   4.219   4.245
 6069TIP3    H218214   4.838   4.284   4.126
 6070TIP3   OH218215   4.267   4.600   1.203
 6070TIP3    H118216   4.244   4.660   1.133
 6070TIP3    H218217   4.187   4.589   1.253
 6071TIP3   OH218218   0.407   1.956   2.876
 6071TIP3    H118219   0.428   2.048   2.890
 6071TIP3    H218220   0.345   1.956   2.803
 6072TIP3   OH218221   1.712   3.755   1.653
 6072TIP3    H118222   1.744   3.786   1.568
 6072TIP3    H218223   1.620   3.733   1.637
 6073TIP3   OH218224   5.784   0.901   3.367
 6073TIP3    H118225   5.702   0.869   3.328
 6073TIP3    H218226   5.836   0.930   3.292
 6074TIP3   OH218227   4.907   4.773   4.715
 6074TIP3    H118228   4.843   4.824   4.664
 6074TIP3    H218229   4.914   4.820   4.798
 6075TIP3   OH218230   2.813   2.154   4.889
 6075TIP3    H118231   2.738   2.197   4.848
 6075TIP3    H218232   2.782   2.132   4.977
 6076TIP3   OH218233   5.835   0.647   2.610
 6076TIP3    H118234   5.766   0.620   2.548
 6076TIP3    H218235   5.902   0.686   2.554
 6077TIP3   OH218236   3.205   3.049   0.798
 6077TIP3    H118237   3.110   3.057   0.796
 6077TIP3    H218238   3.232   3.050   0.706
 6078TIP3   OH218239   1.545   4.431   0.549
 6078TIP3    H118240   1.451   4.432   0.569
 6078TIP3    H218241   1.551   4.467   0.460
 6079TIP3   OH218242   3.847   3.998   3.233
 6079TIP3    H118243   3.812   4.084   3.255
 6079TIP3    H218244   3.940   4.004   3.255
 6080TIP3   OH218245   5.268   2.394   0.026
 6080TIP3    H118246   5.304   2.309   0.003
 6080TIP3    H218247   5.185   2.399  -0.021
 6081TIP3   OH218248   6.162   3.302   1.103
 6081TIP3    H118249   6.118   3.230   1.057
 6081TIP3    H218250   6.122   3.381   1.067
 6082TIP3   OH218251   5.788   4.734   0.622
 6082TIP3    H118252   5.871   4.719   0.666
 6082TIP3    H218253   5.763   4.823   0.648
 6083TIP3   OH218254   0.501   1.843   3.097
 6083TIP3    H118255   0.593   1.824   3.080
 6083TIP3    H218256   0.467   1.872   3.012
 6084TIP3   OH218257   0.081   0.279   0.235
 6084TIP3    H118258   0.159   0.226   0.218
 6084TIP3    H218259   0.106   0.336   0.308
 6085TIP3   OH218260   0.775   3.448   3.966
 6085TIP3    H118261   0.776   3.537   3.932
 6085TIP3    H218262   0.819   3.396   3.898
 6086TIP3   OH218263   3.166   3.955   3.654
 6086TIP3    H118264   3.259   3.974   3.665
 6086TIP3    H218265   3.154   3.870   3.697
 6087TIP3   OH218266   0.839   3.761   3.101
 6087TIP3    H118267   0.882   3.818   3.038
 6087TIP3    H218268   0.770   3.717   3.051
 6088TIP3   OH218269   4.201   3.948   4.039
 6088TIP3    H118270   4.220   3.950   3.945
 6088TIP3    H218271   4.182   4.039   4.062
 6089TIP3   OH218272   4.432   4.543   3.923
 6089TIP3    H118273   4.509   4.495   3.891
 6089TIP3    H218274   4.360   4.481   3.912
 6090TIP3   OH218275   2.435   3.636   4.854
 6090TIP3    H118276   2.465   3.724   4.832
 6090TIP3    H218277   2.438   3.633   4.950
 6091TIP3   OH218278   0.538   2.149   0.506
 6091TIP3    H118279   0.603   2.079   0.508
 6091TIP3    H218280   0.531   2.173   0.414
 6092TIP3   OH218281   5.031   5.650   3.635
 6092TIP3    H118282   4.997   5.713   3.699
 6092TIP3    H218283   4.962   5.585   3.626
 6093TIP3   OH218284   2.309   5.483   2.424
 6093TIP3    H118285   2.344   5.526   2.346
 6093TIP3    H218286   2.222   5.453   2.399
 6094TIP3   OH218287   1.329   5.630   0.118
 6094TIP3    H118288   1.284   5.670   0.192
 6094TIP3    H218289   1.265   5.632   0.047
 6095TIP3   OH218290   2.177   1.072   4.300
 6095TIP3    H118291   2.132   1.044   4.380
 6095TIP3    H218292   2.210   1.159   4.321
 6096TIP3   OH218293   1.370   5.819   4.662
 6096TIP3    H118294   1.432   5.753   4.693
 6096TIP3    H218295   1.314   5.772   4.601
 6097TIP3   OH218296   2.696   5.851   3.789
 6097TIP3    H118297   2.630   5.920   3.780
 6097TIP3    H218298   2.774   5.896   3.821
 6098TIP3   OH218299   1.783   1.358   0.882
 6098TIP3    H118300   1.730   1.284   0.852
 6098TIP3    H218301   1.787   1.417   0.807
 6099TIP3   OH218302   1.249   1.493   4.313
 6099TIP3    H118303   1.158   1.493   4.283
 6099TIP3    H218304   1.291   1.564   4.265
 6100TIP3   OH218305   5.011   0.194   3.152
 6100TIP3    H118306   5.085   0.147   3.115
 6100TIP3    H218307   4.995   0.267   3.091
 6101TIP3   OH218308   2.508   3.963   3.101
 6101TIP3    H118309   2.413   3.951   3.100
 6101TIP3    H218310   2.520   4.052   3.134
 6102TIP3   OH218311   1.806   5.059   1.891
 6102TIP3    H118312   1.793   5.092   1.980
 6102TIP3    H218313   1.754   4.979   1.886
 6103TIP3   OH218314   1.977   3.183   3.135
 6103TIP3    H118315   1.934   3.186   3.050
 6103TIP3    H218316   2.024   3.267   3.141
 6104TIP3   OH218317   6.173   1.526   3.569
 6104TIP3    H118318   6.130   1.463   3.511
 6104TIP3    H218319   6.168   1.609   3.522
 6105TIP3   OH218320   0.596   1.136   3.917
 6105TIP3    H118321   0.675   1.086   3.894
 6105TIP3    H218322   0.543   1.073   3.966
 6106TIP3   OH218323   6.258   3.149   2.731
 6106TIP3    H118324   6.233   3.071   2.781
 6106TIP3    H218325   6.187   3.161   2.667
 6107TIP3   OH218326   4.615   1.912   2.806
 6107TIP3    H118327   4.560   1.991   2.800
 6107TIP3    H218328   4.660   1.908   2.722
 6108TIP3   OH218329   2.561   2.913   3.289
 6108TIP3    H118330   2.515   2.998   3.286
 6108TIP3    H218331   2.572   2.888   3.198
 6109TIP3   OH218332   2.486   1.318   2.403
 6109TIP3    H118333   2.470   1.257   2.475
 6109TIP3    H218334   2.571   1.358   2.424
 6110TIP3   OH218335   3.484   0.193   3.503
 6110TIP3    H118336   3.400   0.220   3.542
 6110TIP3    H218337   3.463   0.173   3.412
 6111TIP3   OH218338   2.043   1.832   3.064
 6111TIP3    H118339   2.039   1.912   3.115
 6111TIP3    H218340   2.090   1.856   2.984
 6112TIP3   OH218341   2.981   4.742   1.607
 6112TIP3    H118342   3.017   4.718   1.521
 6112TIP3    H218343   3.011   4.831   1.622
 6113TIP3   OH218344   4.050   0.665   1.330
 6113TIP3    H118345   4.047   0.605   1.405
 6113TIP3    H218346   3.990   0.735   1.353
 6114TIP3   OH218347   6.286   5.503   0.151
 6114TIP3    H118348   6.255   5.561   0.082
 6114TIP3    H218349   6.220   5.511   0.221
 6115TIP3   OH218350   3.161   0.603   3.030
 6115TIP3    H118351   3.238   0.616   3.084
 6115TIP3    H218352   3.184   0.532   2.971
 6116TIP3   OH218353   4.908   2.967   3.422
 6116TIP3    H118354   4.981   3.028   3.423
 6116TIP3    H218355   4.838   3.015   3.378
 6117TIP3   OH218356   1.296   1.854   3.546
 6117TIP3    H118357   1.263   1.765   3.534
 6117TIP3    H218358   1.377   1.843   3.596
 6118TIP3   OH218359   3.417   3.474   1.428
 6118TIP3    H118360   3.482   3.405   1.414
 6118TIP3    H218361   3.457   3.552   1.387
 6119TIP3   OH218362   5.780   0.238   0.198
 6119TIP3    H118363   5.704   0.181   0.204
 6119TIP3    H218364   5.744   0.324   0.177
 6120TIP3   OH218365   5.451   1.747   2.018
 6120TIP3    H118366   5.542   1.715   2.019
 6120TIP3    H218367   5.459   1.842   2.015
 6121TIP3   OH218368   3.419   1.455   1.331
 6121TIP3    H118369   3.385   1.532   1.285
 6121TIP3    H218370   3.345   1.423   1.382
 6122TIP3   OH218371   2.302   0.272   0.709
 6122TIP3    H118372   2.242   0.285   0.635
 6122TIP3    H218373   2.330   0.360   0.733
 6123TIP3   OH218374   0.684   0.949   0.715
 6123TIP3    H118375   0.617   1.017   0.709
 6123TIP3    H218376   0.761   0.986   0.671
 6124TIP3   OH218377   0.271   1.594   3.914
 6124TIP3    H118378   0.237   1.621   3.829
 6124TIP3    H218379   0.291   1.501   3.905
 6125TIP3   OH218380   3.178   1.447   1.831
 6125TIP3    H118381   3.194   1.393   1.909
 6125TIP3    H218382   3.095   1.491   1.850
 6126TIP3   OH218383   5.257   0.011   4.225
 6126TIP3    H118384   5.168   0.017   4.191
 6126TIP3    H218385   5.274   0.098   4.262
 6127TIP3   OH218386   2.423   5.627   3.402
 6127TIP3    H118387   2.442   5.704   3.349
 6127TIP3    H218388   2.467   5.555   3.357
 6128TIP3   OH218389   2.065   5.149   3.587
 6128TIP3    H118390   2.039   5.212   3.520
 6128TIP3    H218391   1.989   5.143   3.646
 6129TIP3   OH218392   0.902   2.338   3.658
 6129TIP3    H118393   0.861   2.424   3.670
 6129TIP3    H218394   0.990   2.347   3.696
 6130TIP3   OH218395   1.076   4.638   1.225
 6130TIP3    H118396   1.056   4.556   1.180
 6130TIP3    H218397   1.047   4.706   1.164
 6131TIP3   OH218398   2.602   2.875   2.684
 6131TIP3    H118399   2.641   2.811   2.624
 6131TIP3    H218400   2.663   2.949   2.684
 6132TIP3   OH218401   1.088   2.034   3.527
 6132TIP3    H118402   1.159   1.970   3.531
 6132TIP3    H218403   1.020   1.998   3.584
 6133TIP3   OH218404   2.703   3.153   2.941
 6133TIP3    H118405   2.787   3.109   2.927
 6133TIP3    H218406   2.673   3.121   3.026
 6134TIP3   OH218407   1.821   4.225   0.133
 6134TIP3    H118408   1.750   4.268   0.087
 6134TIP3    H218409   1.849   4.289   0.199
 6135TIP3   OH218410   0.418   1.665   2.629
 6135TIP3    H118411   0.460   1.700   2.708
 6135TIP3    H218412   0.469   1.701   2.557
 6136TIP3   OH218413   4.812   3.740   3.042
 6136TIP3    H118414   4.883   3.803   3.038
 6136TIP3    H218415   4.784   3.740   3.133
 6137TIP3   OH218416   5.295   4.071   5.122
 6137TIP3    H118417   5.215   4.119   5.144
 6137TIP3    H218418   5.282   4.039   5.033
 6138TIP3   OH218419   2.752   5.351   2.430
 6138TIP3    H118420   2.693   5.297   2.378
 6138TIP3    H218421   2.695   5.397   2.492
 6139TIP3   OH218422   0.369   1.288   1.358
 6139TIP3    H118423   0.304   1.348   1.322
 6139TIP3    H218424   0.404   1.241   1.282
 6140TIP3   OH218425   0.847   0.574   4.171
 6140TIP3    H118426   0.888   0.633   4.107
 6140TIP3    H218427   0.914   0.562   4.239
 6141TIP3   OH218428   6.279   5.187   4.923
 6141TIP3    H118429   6.245   5.102   4.897
 6141TIP3    H218430   6.372   5.184   4.901
 6142TIP3   OH218431   3.850   3.447   0.549
 6142TIP3    H118432   3.862   3.360   0.587
 6142TIP3    H218433   3.934   3.492   0.565
 6143TIP3   OH218434   0.465   5.690   3.989
 6143TIP3    H118435   0.407   5.651   3.923
 6143TIP3    H218436   0.406   5.744   4.043
 6144TIP3   OH218437   5.631   1.166   0.302
 6144TIP3    H118438   5.567   1.113   0.349
 6144TIP3    H218439   5.603   1.164   0.211
 6145TIP3   OH218440   6.132   0.963   0.407
 6145TIP3    H118441   6.210   1.019   0.410
 6145TIP3    H218442   6.059   1.025   0.413
 6146TIP3   OH218443   5.218   5.703   1.156
 6146TIP3    H118444   5.179   5.653   1.085
 6146TIP3    H218445   5.294   5.746   1.117
 6147TIP3   OH218446   3.982   2.967   4.181
 6147TIP3    H118447   4.053   2.936   4.237
 6147TIP3    H218448   3.918   3.004   4.242
 6148TIP3   OH218449   0.673   3.918   4.872
 6148TIP3    H118450   0.579   3.925   4.888
 6148TIP3    H218451   0.684   3.939   4.780
 6149TIP3   OH218452   2.354   4.836   0.043
 6149TIP3    H118453   2.301   4.890   0.101
 6149TIP3    H218454   2.414   4.789   0.100
 6150TIP3   OH218455   1.334   4.334   4.811
 6150TIP3    H118456   1.399   4.328   4.881
 6150TIP3    H218457   1.353   4.260   4.754
 6151TIP3   OH218458   2.041   4.520   3.073
 6151TIP3    H118459   2.012   4.608   3.047
 6151TIP3    H218460   1.961   4.468   3.071
 6152TIP3   OH218461   4.745   3.558   2.349
 6152TIP3    H118462   4.709   3.531   2.433
 6152TIP3    H218463   4.737   3.654   2.349
 6153TIP3   OH218464   4.120   2.167   4.845
 6153TIP3    H118465   4.090   2.130   4.928
 6153TIP3    H218466   4.040   2.188   4.798
 6154TIP3   OH218467   3.087   1.780   1.809
 6154TIP3    H118468   3.028   1.851   1.836
 6154TIP3    H218469   3.136   1.759   1.889
 6155TIP3   OH218470   3.705   4.686   1.394
 6155TIP3    H118471   3.626   4.667   1.343
 6155TIP3    H218472   3.767   4.718   1.329
 6156TIP3   OH218473   0.902   2.833   2.107
 6156TIP3    H118474   0.812   2.858   2.126
 6156TIP3    H218475   0.918   2.862   2.018
 6157TIP3   OH218476   0.261   2.547   4.957
 6157TIP3    H118477   0.304   2.606   4.895
 6157TIP3    H218478   0.169   2.575   4.958
 6158TIP3   OH218479   0.034   4.424   2.303
 6158TIP3    H118480   0.010   4.467   2.221
 6158TIP3    H218481   0.015   4.331   2.288
 6159TIP3   OH218482   4.215   0.710   3.510
 6159TIP3    H118483   4.235   0.786   3.456
 6159TIP3    H218484   4.218   0.742   3.600
 6160TIP3   OH218485   5.682   5.626   2.339
 6160TIP3    H118486   5.731   5.611   2.258
 6160TIP3    H218487   5.634   5.707   2.323
 6161TIP3   OH218488   5.645   0.935   2.649
 6161TIP3    H118489   5.691   1.018   2.637
 6161TIP3    H218490   5.644   0.922   2.744
 6162TIP3   OH218491   5.018   0.383   4.371
 6162TIP3    H118492   5.083   0.319   4.399
 6162TIP3    H218493   5.010   0.370   4.277
 6163TIP3   OH218494   4.183   2.698   0.968
 6163TIP3    H118495   4.150   2.788   0.970
 6163TIP3    H218496   4.176   2.672   0.877
 6164TIP3   OH218497   1.048   0.192   2.927
 6164TIP3    H118498   1.045   0.249   2.851
 6164TIP3    H218499   0.964   0.146   2.926
 6165TIP3   OH218500   5.688   0.893   4.641
 6165TIP3    H118501   5.756   0.891   4.574
 6165TIP3    H218502   5.606   0.878   4.594
 6166TIP3   OH218503   5.657   4.225   0.561
 6166TIP3    H118504   5.604   4.200   0.486
 6166TIP3    H218505   5.660   4.321   0.558
 6167TIP3   OH218506   4.522   5.886   1.355
 6167TIP3    H118507   4.513   5.791   1.360
 6167TIP3    H218508   4.506   5.907   1.263
 6168TIP3   OH218509   6.054   5.174   4.516
 6168TIP3    H118510   5.995   5.103   4.539
 6168TIP3    H218511   6.010   5.220   4.444
 6169TIP3   OH218512   2.979   3.637   4.092
 6169TIP3    H118513   2.940   3.642   4.180
 6169TIP3    H218514   3.070   3.664   4.105
 6170TIP3   OH218515   1.246   2.043   4.414
 6170TIP3    H118516   1.243   1.948   4.403
 6170TIP3    H218517   1.232   2.057   4.508
 6171TIP3   OH218518   2.726   3.406   1.489
 6171TIP3    H118519   2.813   3.428   1.522
 6171TIP3    H218520   2.668   3.417   1.565
 6172TIP3   OH218521   3.677   1.684   4.352
 6172TIP3    H118522   3.738   1.706   4.422
 6172TIP3    H218523   3.681   1.589   4.345
 6173TIP3   OH218524   1.161   1.177   1.393
 6173TIP3    H118525   1.160   1.220   1.478
 6173TIP3    H218526   1.071   1.184   1.362
 6174TIP3   OH218527   1.925   2.641   0.599
 6174TIP3    H118528   1.885   2.704   0.658
 6174TIP3    H218529   1.900   2.556   0.633
 6175TIP3   OH218530   3.734   0.795   0.339
 6175TIP3    H118531   3.733   0.784   0.434
 6175TIP3    H218532   3.717   0.708   0.304
 6176TIP3   OH218533   4.055   2.667   2.626
 6176TIP3    H118534   4.111   2.596   2.658
 6176TIP3    H218535   3.977   2.663   2.681
 6177TIP3   OH218536   4.847   3.692   3.324
 6177TIP3    H118537   4.917   3.717   3.384
 6177TIP3    H218538   4.826   3.602   3.349
 6178TIP3   OH218539   4.669   1.678   2.933
 6178TIP3    H118540   4.759   1.646   2.940
 6178TIP3    H218541   4.676   1.756   2.877
 6179TIP3   OH218542   0.812   2.400   3.249
 6179TIP3    H118543   0.744   2.341   3.217
 6179TIP3    H218544   0.886   2.343   3.267
 6180TIP3   OH218545   0.777   5.573   0.400
 6180TIP3    H118546   0.683   5.557   0.404
 6180TIP3    H218547   0.800   5.553   0.309
 6181TIP3   OH218548   4.693   4.610   0.242
 6181TIP3    H118549   4.671   4.527   0.285
 6181TIP3    H218550   4.784   4.627   0.266
 6182TIP3   OH218551   1.401   3.718   0.464
 6182TIP3    H118552   1.482   3.675   0.493
 6182TIP3    H218553   1.406   3.719   0.369
 6183TIP3   OH218554   3.646   1.811   0.281
 6183TIP3    H118555   3.638   1.787   0.373
 6183TIP3    H218556   3.642   1.727   0.235
 6184TIP3   OH218557   2.376   3.138   3.938
 6184TIP3    H118558   2.309   3.082   3.900
 6184TIP3    H218559   2.391   3.206   3.872
 6185TIP3   OH218560   3.152   1.798   4.813
 6185TIP3    H118561   3.192   1.882   4.834
 6185TIP3    H218562   3.196   1.770   4.733
 6186TIP3   OH218563   4.134   4.971   1.726
 6186TIP3    H118564   4.216   4.927   1.746
 6186TIP3    H218565   4.079   4.956   1.803
 6187TIP3   OH218566   1.291   4.295   2.644
 6187TIP3    H118567   1.328   4.275   2.558
 6187TIP3    H218568   1.199   4.268   2.637
 6188TIP3   OH218569   0.213   0.775   0.417
 6188TIP3    H118570   0.194   0.804   0.506
 6188TIP3    H218571   0.271   0.700   0.428
 6189TIP3   OH218572   6.042   3.877   4.062
 6189TIP3    H118573   5.978   3.916   4.123
 6189TIP3    H218574   6.074   3.800   4.109
 6190TIP3   OH218575   3.592   5.738   0.974
 6190TIP3    H118576   3.587   5.656   1.024
 6190TIP3    H218577   3.628   5.801   1.036
 6191TIP3   OH218578   1.195   0.856   1.327
 6191TIP3    H118579   1.145   0.830   1.404
 6191TIP3    H218580   1.130   0.892   1.266
 6192TIP3   OH218581   2.374   2.838   5.065
 6192TIP3    H118582   2.291   2.855   5.109
 6192TIP3    H218583   2.356   2.853   4.972
 6193TIP3   OH218584   5.816   0.265   2.093
 6193TIP3    H118585   5.811   0.318   2.172
 6193TIP3    H218586   5.879   0.197   2.114
 6194TIP3   OH218587   4.906   4.191   2.954
 6194TIP3    H118588   4.956   4.272   2.961
 6194TIP3    H218589   4.831   4.205   3.013
 6195TIP3   OH218590   2.783   3.757   4.929
 6195TIP3    H118591   2.719   3.823   4.901
 6195TIP3    H218592   2.840   3.745   4.853
 6196TIP3   OH218593   1.650   1.846   0.114
 6196TIP3    H118594   1.692   1.929   0.138
 6196TIP3    H218595   1.596   1.868   0.039
 6197TIP3   OH218596   3.496   3.747   4.468
 6197TIP3    H118597   3.466   3.661   4.437
 6197TIP3    H218598   3.498   3.738   4.564
 6198TIP3   OH218599   3.846   2.445   1.074
 6198TIP3    H118600   3.937   2.419   1.085
 6198TIP3    H218601   3.825   2.420   0.984
 6199TIP3   OH218602   1.492   5.710   2.058
 6199TIP3    H118603   1.582   5.736   2.039
 6199TIP3    H218604   1.491   5.615   2.048
 6200TIP3   OH218605   5.825   1.415   1.721
 6200TIP3    H118606   5.739   1.390   1.688
 6200TIP3    H218607   5.806   1.470   1.797
 6201TIP3   OH218608   0.935   0.574   0.367
 6201TIP3    H118609   0.859   0.526   0.333
 6201TIP3    H218610   0.958   0.634   0.297
 6202TIP3   OH218611   5.790   1.681   4.397
 6202TIP3    H118612   5.760   1.599   4.436
 6202TIP3    H218613   5.866   1.657   4.345
 6203TIP3   OH218614   2.354   0.579   4.325
 6203TIP3    H118615   2.272   0.551   4.366
 6203TIP3    H218616   2.341   0.672   4.305
 6204TIP3   OH218617   2.971   2.340   1.308
 6204TIP3    H118618   3.006   2.416   1.353
 6204TIP3    H218619   2.940   2.282   1.377
 6205TIP3   OH218620   3.967   0.593   0.229
 6205TIP3    H118621   3.936   0.538   0.301
 6205TIP3    H218622   4.025   0.657   0.272
 6206TIP3   OH218623   1.523   3.383   0.012
 6206TIP3    H118624   1.527   3.473  -0.019
 6206TIP3    H218625   1.440   3.378   0.061
 6207TIP3   OH218626   2.503   5.628   2.974
 6207TIP3    H118627   2.443   5.703   2.969
 6207TIP3    H218628   2.492   5.583   2.889
 6208TIP3   OH218629   5.490   5.515   5.244
 6208TIP3    H118630   5.435   5.522   5.166
 6208TIP3    H218631   5.574   5.482   5.212
 6209TIP3   OH218632   4.284   2.369   0.888
 6209TIP3    H118633   4.234   2.423   0.826
 6209TIP3    H218634   4.245   2.282   0.880
 6210TIP3   OH218635   3.511   4.626   3.808
 6210TIP3    H118636   3.443   4.599   3.868
 6210TIP3    H218637   3.477   4.706   3.767
 6211TIP3   OH218638   4.206   5.786   1.260
 6211TIP3    H118639   4.144   5.717   1.235
 6211TIP3    H218640   4.276   5.739   1.306
 6212TIP3   OH218641   3.820   4.085   0.269
 6212TIP3    H118642   3.855   4.012   0.218
 6212TIP3    H218643   3.863   4.078   0.354
 6213TIP3   OH218644   5.932   5.307   4.297
 6213TIP3    H118645   5.933   5.237   4.231
 6213TIP3    H218646   5.874   5.373   4.260
 6214TIP3   OH218647   5.184   4.913   4.886
 6214TIP3    H118648   5.126   4.855   4.936
 6214TIP3    H218649   5.226   4.968   4.952
 6215TIP3   OH218650   5.938   3.599   3.419
 6215TIP3    H118651   6.027   3.590   3.385
 6215TIP3    H218652   5.910   3.686   3.390
 6216TIP3   OH218653   0.682   3.524   3.220
 6216TIP3    H118654   0.643   3.499   3.303
 6216TIP3    H218655   0.709   3.615   3.231
 6217TIP3   OH218656   3.829   2.606   4.703
 6217TIP3    H118657   3.749   2.636   4.747
 6217TIP3    H218658   3.802   2.589   4.613
 6218TIP3   OH218659   0.119   1.466   3.300
 6218TIP3    H118660   0.145   1.424   3.382
 6218TIP3    H218661   0.174   1.425   3.234
 6219TIP3   OH218662   5.310   3.910   4.342
 6219TIP3    H118663   5.376   3.848   4.312
 6219TIP3    H218664   5.328   3.920   4.436
 6220TIP3   OH218665   4.172   5.504   0.913
 6220TIP3    H118666   4.150   5.414   0.938
 6220TIP3    H218667   4.206   5.544   0.994
 6221TIP3   OH218668   1.350   2.503   0.403
 6221TIP3    H118669   1.290   2.436   0.435
 6221TIP3    H218670   1.296   2.559   0.346
 6222TIP3   OH218671   6.251   0.025   0.302
 6222TIP3    H118672   6.209   0.021   0.387
 6222TIP3    H218673   6.227   0.111   0.267
 6223TIP3   OH218674   6.363   0.534   2.628
 6223TIP3    H118675   6.365   0.593   2.552
 6223TIP3    H218676   6.378   0.447   2.590
 6224TIP3   OH218677   5.169   2.203   4.231
 6224TIP3    H118678   5.246   2.188   4.176
 6224TIP3    H218679   5.101   2.232   4.170
 6225TIP3   OH218680   6.069   0.313   3.223
 6225TIP3    H118681   6.135   0.244   3.223
 6225TIP3    H218682   6.099   0.376   3.158
 6226TIP3   OH218683   1.982   2.877   3.871
 6226TIP3    H118684   1.951   2.843   3.787
 6226TIP3    H218685   1.991   2.799   3.927
 6227TIP3   OH218686   0.506   1.486   0.568
 6227TIP3    H118687   0.575   1.479   0.634
 6227TIP3    H218688   0.546   1.455   0.487
 6228TIP3   OH218689   4.362   1.941   2.446
 6228TIP3    H118690   4.396   2.019   2.403
 6228TIP3    H218691   4.328   1.887   2.374
 6229TIP3   OH218692   3.983   0.357   4.345
 6229TIP3    H118693   4.034   0.384   4.421
 6229TIP3    H218694   3.948   0.439   4.309
 6230TIP3   OH218695   4.949   2.993   4.440
 6230TIP3    H118696   4.867   3.023   4.478
 6230TIP3    H218697   4.928   2.974   4.348
 6231TIP3   OH218698   0.854   1.287   4.182
 6231TIP3    H118699   0.901   1.241   4.253
 6231TIP3    H218700   0.763   1.287   4.211
 6232TIP3   OH218701   1.486   5.019   1.844
 6232TIP3    H118702   1.391   5.025   1.837
 6232TIP3    H218703   1.502   5.001   1.937
 6233TIP3   OH218704   2.363   1.758   2.847
 6233TIP3    H118705   2.293   1.804   2.802
 6233TIP3    H218706   2.319   1.707   2.914
 6234TIP3   OH218707   6.183   4.010   3.868
 6234TIP3    H118708   6.131   3.963   3.934
 6234TIP3    H218709   6.160   4.102   3.881
 6235TIP3   OH218710   4.480   3.503   1.181
 6235TIP3    H118711   4.496   3.410   1.193
 6235TIP3    H218712   4.564   3.545   1.201
 6236TIP3   OH218713   2.485   1.750   3.386
 6236TIP3    H118714   2.408   1.807   3.390
 6236TIP3    H218715   2.523   1.757   3.473
 6237TIP3   OH218716   5.077   1.863   2.600
 6237TIP3    H118717   5.139   1.930   2.629
 6237TIP3    H218718   5.108   1.839   2.512
 6238TIP3   OH218719   0.041   4.031   4.084
 6238TIP3    H118720   0.073   3.942   4.104
 6238TIP3    H218721  -0.014   4.020   4.007
 6239TIP3   OH218722   3.906   1.224   2.137
 6239TIP3    H118723   3.884   1.137   2.105
 6239TIP3    H218724   3.974   1.256   2.077
 6240TIP3   OH218725   5.948   4.393   1.231
 6240TIP3    H118726   5.902   4.316   1.199
 6240TIP3    H218727   6.014   4.358   1.291
 6241TIP3   OH218728   2.566   1.838   0.848
 6241TIP3    H118729   2.557   1.780   0.773
 6241TIP3    H218730   2.545   1.784   0.923
 6242TIP3   OH218731   2.345   2.148   2.348
 6242TIP3    H118732   2.306   2.115   2.267
 6242TIP3    H218733   2.306   2.234   2.360
 6243TIP3   OH218734   5.315   1.483   2.403
 6243TIP3    H118735   5.362   1.420   2.457
 6243TIP3    H218736   5.237   1.505   2.455
 6244TIP3   OH218737   4.697   3.492   4.030
 6244TIP3    H118738   4.622   3.503   3.971
 6244TIP3    H218739   4.748   3.572   4.019
 6245TIP3   OH218740   6.092   5.242   1.716
 6245TIP3    H118741   6.031   5.257   1.788
 6245TIP3    H218742   6.036   5.227   1.640
 6246TIP3   OH218743   4.774   4.038   3.625
 6246TIP3    H118744   4.685   4.070   3.613
 6246TIP3    H218745   4.777   4.007   3.716
 6247TIP3   OH218746   3.983   0.106   2.295
 6247TIP3    H118747   3.969   0.149   2.380
 6247TIP3    H218748   4.077   0.088   2.293
 6248TIP3   OH218749   5.598   3.618   0.705
 6248TIP3    H118750   5.631   3.691   0.653
 6248TIP3    H218751   5.503   3.626   0.700
 6249TIP3   OH218752   0.598   3.740   2.593
 6249TIP3    H118753   0.690   3.712   2.594
 6249TIP3    H218754   0.549   3.661   2.613
 6250TIP3   OH218755   6.355   2.868   1.824
 6250TIP3    H118756   6.312   2.948   1.854
 6250TIP3    H218757   6.352   2.873   1.729
 6251TIP3   OH218758   0.531   4.399   4.527
 6251TIP3    H118759   0.442   4.431   4.513
 6251TIP3    H218760   0.575   4.416   4.443
 6252TIP3   OH218761   3.498   0.723   2.055
 6252TIP3    H118762   3.459   0.641   2.026
 6252TIP3    H218763   3.441   0.753   2.127
 6253TIP3   OH218764   5.118   2.969   0.235
 6253TIP3    H118765   5.108   3.031   0.307
 6253TIP3    H218766   5.047   2.990   0.175
 6254TIP3   OH218767   2.076   0.915   3.515
 6254TIP3    H118768   2.115   0.850   3.456
 6254TIP3    H218769   2.100   0.999   3.477
 6255TIP3   OH218770   3.397   3.650   2.051
 6255TIP3    H118771   3.395   3.573   2.108
 6255TIP3    H218772   3.331   3.709   2.089
 6256TIP3   OH218773   4.197   2.161   2.114
 6256TIP3    H118774   4.157   2.161   2.200
 6256TIP3    H218775   4.154   2.232   2.067
 6257TIP3   OH218776   2.617   0.677   5.075
 6257TIP3    H118777   2.626   0.582   5.089
 6257TIP3    H218778   2.701   0.703   5.037
 6258TIP3   OH218779   3.662   0.810   4.546
 6258TIP3    H118780   3.575   0.846   4.528
 6258TIP3    H218781   3.665   0.799   4.641
 6259TIP3   OH218782   5.244   4.426   3.961
 6259TIP3    H118783   5.220   4.498   4.020
 6259TIP3    H218784   5.309   4.376   4.010
 6260TIP3   OH218785   0.632   0.584   1.422
 6260TIP3    H118786   0.665   0.551   1.338
 6260TIP3    H218787   0.707   0.575   1.482
 6261TIP3   OH218788   3.562   2.852   2.845
 6261TIP3    H118789   3.496   2.907   2.887
 6261TIP3    H218790   3.586   2.901   2.766
 6262TIP3   OH218791   2.936   2.024   1.799
 6262TIP3    H118792   2.847   2.025   1.763
 6262TIP3    H218793   2.948   2.112   1.836
 6263TIP3   OH218794   2.035   1.122   4.028
 6263TIP3    H118795   2.085   1.100   4.106
 6263TIP3    H218796   1.965   1.057   4.025
 6264TIP3   OH218797   5.517   0.400   4.472
 6264TIP3    H118798   5.584   0.410   4.404
 6264TIP3    H218799   5.552   0.448   4.547
 6265TIP3   OH218800   5.980   6.019   3.906
 6265TIP3    H118801   5.927   6.008   3.985
 6265TIP3    H218802   5.969   5.937   3.858
 6266TIP3   OH218803   3.557   3.740   1.427
 6266TIP3    H118804   3.492   3.769   1.492
 6266TIP3    H218805   3.641   3.748   1.473
 6267TIP3   OH218806   4.274   2.714   2.025
 6267TIP3    H118807   4.321   2.774   2.084
 6267TIP3    H218808   4.318   2.630   2.037
 6268TIP3   OH218809   1.959   0.574   3.606
 6268TIP3    H118810   1.954   0.622   3.523
 6268TIP3    H218811   2.048   0.540   3.609
 6269TIP3   OH218812   4.158   5.470   4.611
 6269TIP3    H118813   4.251   5.488   4.597
 6269TIP3    H218814   4.144   5.488   4.704
 6270TIP3   OH218815   4.403   0.200   0.877
 6270TIP3    H118816   4.490   0.161   0.882
 6270TIP3    H218817   4.381   0.199   0.784
 6271TIP3   OH218818   2.478   5.023   2.921
 6271TIP3    H118819   2.559   5.016   2.972
 6271TIP3    H218820   2.495   4.972   2.842
 6272TIP3   OH218821   4.563   4.633   2.479
 6272TIP3    H118822   4.578   4.574   2.553
 6272TIP3    H218823   4.542   4.575   2.406
 6273TIP3   OH218824   0.375   1.116   2.672
 6273TIP3    H118825   0.447   1.129   2.609
 6273TIP3    H218826   0.297   1.109   2.617
 6274TIP3   OH218827   2.345  -0.055   4.953
 6274TIP3    H118828   2.283  -0.066   4.881
 6274TIP3    H218829   2.430  -0.049   4.911
 6275TIP3   OH218830   4.120   5.040   3.028
 6275TIP3    H118831   4.029   5.066   3.015
 6275TIP3    H218832   4.121   5.002   3.116
 6276TIP3   OH218833   2.636   4.449  -0.015
 6276TIP3    H118834   2.647   4.384  -0.083
 6276TIP3    H218835   2.696   4.422   0.055
 6277TIP3   OH218836   1.517   2.403   3.380
 6277TIP3    H118837   1.529   2.317   3.341
 6277TIP3    H218838   1.443   2.392   3.440
 6278TIP3   OH218839   5.518   4.454   1.146
 6278TIP3    H118840   5.426   4.426   1.146
 6278TIP3    H218841   5.568   4.373   1.151
 6279TIP3   OH218842   0.284   5.300   0.848
 6279TIP3    H118843   0.293   5.244   0.925
 6279TIP3    H218844   0.341   5.260   0.782
 6280TIP3   OH218845   1.563   2.738   0.184
 6280TIP3    H118846   1.479   2.756   0.227
 6280TIP3    H218847   1.599   2.664   0.233
 6281TIP3   OH218848   0.199   3.952   1.615
 6281TIP3    H118849   0.182   3.875   1.561
 6281TIP3    H218850   0.201   3.919   1.705
 6282TIP3   OH218851   0.757   5.621   4.017
 6282TIP3    H118852   0.663   5.616   4.039
 6282TIP3    H218853   0.796   5.666   4.092
 6283TIP3   OH218854   1.681   1.500   3.052
 6283TIP3    H118855   1.676   1.427   3.114
 6283TIP3    H218856   1.601   1.551   3.068
 6284TIP3   OH218857   5.491   5.922   3.696
 6284TIP3    H118858   5.533   5.907   3.612
 6284TIP3    H218859   5.526   5.852   3.752
 6285TIP3   OH218860   3.295   3.261   0.485
 6285TIP3    H118861   3.382   3.294   0.504
 6285TIP3    H218862   3.238   3.338   0.491
 6286TIP3   OH218863   5.240   5.568   0.402
 6286TIP3    H118864   5.167   5.605   0.452
 6286TIP3    H218865   5.316   5.618   0.431
 6287TIP3   OH218866   2.221   0.036   1.036
 6287TIP3    H118867   2.170   0.063   1.112
 6287TIP3    H218868   2.309   0.070   1.053
 6288TIP3   OH218869   2.872   3.282   0.325
 6288TIP3    H118870   2.844   3.196   0.292
 6288TIP3    H218871   2.791   3.333   0.330
 6289TIP3   OH218872   3.809   5.054   0.765
 6289TIP3    H118873   3.785   5.008   0.685
 6289TIP3    H218874   3.728   5.096   0.794
 6290TIP3   OH218875   2.109   3.685   2.895
 6290TIP3    H118876   2.200   3.686   2.924
 6290TIP3    H218877   2.098   3.766   2.846
 6291TIP3   OH218878   1.000   4.466   3.338
 6291TIP3    H118879   1.019   4.427   3.253
 6291TIP3    H218880   0.934   4.533   3.319
 6292TIP3   OH218881   4.041   1.158   1.100
 6292TIP3    H118882   4.043   1.076   1.050
 6292TIP3    H218883   3.951   1.166   1.130
 6293TIP3   OH218884   3.078   1.496   3.269
 6293TIP3    H118885   3.109   1.442   3.197
 6293TIP3    H218886   3.086   1.586   3.237
 6294TIP3   OH218887   5.582   3.602   2.870
 6294TIP3    H118888   5.492   3.621   2.896
 6294TIP3    H218889   5.590   3.639   2.782
 6295TIP3   OH218890   3.381   2.276   3.172
 6295TIP3    H118891   3.327   2.201   3.197
 6295TIP3    H218892   3.446   2.283   3.241
 6296TIP3   OH218893   0.500   3.892   0.632
 6296TIP3    H118894   0.431   3.933   0.580
 6296TIP3    H218895   0.473   3.800   0.639
 6297TIP3   OH218896   5.525   2.075   2.082
 6297TIP3    H118897   5.495   2.050   2.169
 6297TIP3    H218898   5.620   2.068   2.086
 6298TIP3   OH218899   1.791   3.468   2.235
 6298TIP3    H118900   1.715   3.424   2.271
 6298TIP3    H218901   1.773   3.474   2.141
 6299TIP3   OH218902   4.619   3.762   0.638
 6299TIP3    H118903   4.629   3.779   0.732
 6299TIP3    H218904   4.708   3.767   0.603
 6300TIP3   OH218905   0.665   1.333   1.394
 6300TIP3    H118906   0.576   1.302   1.406
 6300TIP3    H218907   0.655   1.424   1.365
 6301TIP3   OH218908   1.986   0.829   2.760
 6301TIP3    H118909   1.948   0.874   2.835
 6301TIP3    H218910   1.916   0.829   2.694
 6302TIP3   OH218911   2.536   3.270   0.181
 6302TIP3    H118912   2.571   3.181   0.190
 6302TIP3    H218913   2.568   3.316   0.258
 6303TIP3   OH218914   2.738   1.400   2.359
 6303TIP3    H118915   2.699   1.469   2.305
 6303TIP3    H218916   2.747   1.440   2.446
 6304TIP3   OH218917   6.268   5.375   3.389
 6304TIP3    H118918   6.189   5.328   3.414
 6304TIP3    H218919   6.273   5.449   3.449
 6305TIP3   OH218920   2.410   1.079   1.224
 6305TIP3    H118921   2.374   1.152   1.173
 6305TIP3    H218922   2.466   1.032   1.162
 6306TIP3   OH218923   2.541   2.698   4.212
 6306TIP3    H118924   2.628   2.662   4.231
 6306TIP3    H218925   2.543   2.785   4.250
 6307TIP3   OH218926   0.357   2.339   3.552
 6307TIP3    H118927   0.311   2.291   3.622
 6307TIP3    H218928   0.371   2.426   3.588
 6308TIP3   OH218929   1.018   5.896   4.887
 6308TIP3    H118930   1.090   5.893   4.950
 6308TIP3    H218931   0.959   5.826   4.915
 6309TIP3   OH218932   1.398   5.773   3.525
 6309TIP3    H118933   1.384   5.794   3.433
 6309TIP3    H218934   1.457   5.698   3.523
 6310TIP3   OH218935   2.446   2.470   1.941
 6310TIP3    H118936   2.531   2.429   1.958
 6310TIP3    H218937   2.463   2.529   1.867
 6311TIP3   OH218938   0.269   5.856   1.975
 6311TIP3    H118939   0.303   5.787   1.917
 6311TIP3    H218940   0.294   5.828   2.063
 6312TIP3   OH218941   4.279   3.031   0.731
 6312TIP3    H118942   4.311   2.941   0.720
 6312TIP3    H218943   4.282   3.068   0.643
 6313TIP3   OH218944   6.024   5.721   0.376
 6313TIP3    H118945   5.947   5.672   0.404
 6313TIP3    H218946   6.078   5.729   0.455
 6314TIP3   OH218947   5.946   4.364   4.111
 6314TIP3    H118948   5.920   4.275   4.086
 6314TIP3    H218949   5.935   4.366   4.206
 6315TIP3   OH218950   4.443   2.480   2.367
 6315TIP3    H118951   4.370   2.540   2.380
 6315TIP3    H218952   4.458   2.441   2.453
 6316TIP3   OH218953   6.213   2.144   0.139
 6316TIP3    H118954   6.180   2.233   0.151
 6316TIP3    H218955   6.299   2.155   0.099
 6317TIP3   OH218956   3.719   1.422   1.157
 6317TIP3    H118957   3.745   1.510   1.186
 6317TIP3    H218958   3.660   1.437   1.083
 6318TIP3   OH218959   3.842   0.216   3.241
 6318TIP3    H118960   3.807   0.305   3.251
 6318TIP3    H218961   3.796   0.181   3.166
 6319TIP3   OH218962   3.150   5.287   4.355
 6319TIP3    H118963   3.168   5.198   4.385
 6319TIP3    H218964   3.235   5.331   4.357
 6320TIP3   OH218965   0.942   3.791   4.755
 6320TIP3    H118966   0.952   3.698   4.734
 6320TIP3    H218967   1.027   3.830   4.734
 6321TIP3   OH218968   1.022   3.900   0.419
 6321TIP3    H118969   1.043   3.808   0.402
 6321TIP3    H218970   0.933   3.899   0.454
 6322TIP3   OH218971   1.768   4.395   0.716
 6322TIP3    H118972   1.760   4.305   0.746
 6322TIP3    H218973   1.730   4.395   0.629
 6323TIP3   OH218974   6.286   2.020   5.084
 6323TIP3    H118975   6.280   1.954   5.153
 6323TIP3    H218976   6.308   2.100   5.130
 6324TIP3   OH218977   3.014   3.071   2.418
 6324TIP3    H118978   2.987   3.131   2.348
 6324TIP3    H218979   3.053   2.997   2.372
 6325TIP3   OH218980   1.434   1.825   5.147
 6325TIP3    H118981   1.387   1.887   5.204
 6325TIP3    H218982   1.521   1.864   5.137
 6326TIP3   OH218983   0.810   1.714   1.480
 6326TIP3    H118984   0.743   1.671   1.427
 6326TIP3    H218985   0.891   1.669   1.458
 6327TIP3   OH218986   3.421   0.764   0.887
 6327TIP3    H118987   3.362   0.725   0.951
 6327TIP3    H218988   3.374   0.759   0.804
 6328TIP3   OH218989   5.154   4.244   4.555
 6328TIP3    H118990   5.222   4.275   4.614
 6328TIP3    H218991   5.076   4.293   4.580
 6329TIP3   OH218992   6.151   2.324   4.252
 6329TIP3    H118993   6.095   2.381   4.305
 6329TIP3    H218994   6.121   2.235   4.272
 6330TIP3   OH218995   4.926   5.514   5.096
 6330TIP3    H118996   4.982   5.583   5.132
 6330TIP3    H218997   4.980   5.473   5.028
 6331TIP3   OH218998   2.171   2.147   3.630
 6331TIP3    H118999   2.216   2.172   3.711
 6331TIP3    H219000   2.157   2.230   3.584
 6332TIP3   OH219001   2.796   4.815   4.261
 6332TIP3    H119002   2.780   4.878   4.332
 6332TIP3    H219003   2.836   4.739   4.304
 6333TIP3   OH219004   4.346   3.308   3.468
 6333TIP3    H119005   4.322   3.263   3.388
 6333TIP3    H219006   4.323   3.247   3.538
 6334TIP3   OH219007   1.497   5.162   3.152
 6334TIP3    H119008   1.545   5.217   3.090
 6334TIP3    H219009   1.503   5.074   3.115
 6335TIP3   OH219010   4.261   4.543   4.188
 6335TIP3    H119011   4.324   4.614   4.184
 6335TIP3    H219012   4.313   4.464   4.199
 6336TIP3   OH219013   4.907   0.230   3.427
 6336TIP3    H119014   4.948   0.150   3.461
 6336TIP3    H219015   4.952   0.246   3.344
 6337TIP3   OH219016   1.084   1.588   2.411
 6337TIP3    H119017   1.028   1.611   2.485
 6337TIP3    H219018   1.133   1.511   2.440
 6338TIP3   OH219019   4.759   3.042   0.657
 6338TIP3    H119020   4.739   2.971   0.596
 6338TIP3    H219021   4.769   3.119   0.601
 6339TIP3   OH219022   5.701   3.312   0.762
 6339TIP3    H119023   5.750   3.369   0.703
 6339TIP3    H219024   5.715   3.351   0.849
 6340TIP3   OH219025   4.359   4.685   0.838
 6340TIP3    H119026   4.358   4.732   0.755
 6340TIP3    H219027   4.451   4.661   0.851
 6341TIP3   OH219028   2.282   4.041   2.280
 6341TIP3    H119029   2.342   3.973   2.250
 6341TIP3    H219030   2.232   4.065   2.202
 6342TIP3   OH219031   4.897   0.551   1.498
 6342TIP3    H119032   4.980   0.600   1.499
 6342TIP3    H219033   4.875   0.544   1.405
 6343TIP3   OH219034   2.051   2.326   4.702
 6343TIP3    H119035   1.977   2.379   4.675
 6343TIP3    H219036   2.038   2.313   4.796
 6344TIP3   OH219037   5.471   4.575   2.193
 6344TIP3    H119038   5.513   4.529   2.266
 6344TIP3    H219039   5.381   4.590   2.223
 6345TIP3   OH219040   4.690   5.341   0.245
 6345TIP3    H119041   4.599   5.312   0.252
 6345TIP3    H219042   4.737   5.265   0.210
 6346TIP3   OH219043   5.064   2.273   1.381
 6346TIP3    H119044   5.051   2.363   1.350
 6346TIP3    H219045   4.982   2.228   1.359
 6347TIP3   OH219046   5.092   0.612   1.016
 6347TIP3    H119047   5.005   0.576   0.997
 6347TIP3    H219048   5.093   0.697   0.971
 6348TIP3   OH219049   1.418   2.840   1.522
 6348TIP3    H119050   1.482   2.816   1.455
 6348TIP3    H219051   1.466   2.834   1.604
 6349TIP3   OH219052   3.842   3.800   2.084
 6349TIP3    H119053   3.931   3.832   2.070
 6349TIP3    H219054   3.807   3.786   1.996
 6350TIP3   OH219055   5.724   1.048   2.917
 6350TIP3    H119056   5.678   1.127   2.945
 6350TIP3    H219057   5.764   1.013   2.996
 6351TIP3   OH219058   4.050   1.729   4.854
 6351TIP3    H119059   4.086   1.643   4.876
 6351TIP3    H219060   4.102   1.791   4.906
 6352TIP3   OH219061   3.185   1.967   3.716
 6352TIP3    H119062   3.245   1.920   3.774
 6352TIP3    H219063   3.184   2.056   3.750
 6353TIP3   OH219064   3.759   4.507   4.420
 6353TIP3    H119065   3.818   4.553   4.479
 6353TIP3    H219066   3.720   4.438   4.474
 6354TIP3   OH219067   5.913   5.501   4.571
 6354TIP3    H119068   6.004   5.475   4.587
 6354TIP3    H219069   5.889   5.555   4.646
 6355TIP3   OH219070   5.604   2.010   2.641
 6355TIP3    H119071   5.687   2.057   2.645
 6355TIP3    H219072   5.621   1.927   2.686
 6356TIP3   OH219073   0.186   4.892   3.836
 6356TIP3    H119074   0.273   4.870   3.802
 6356TIP3    H219075   0.192   4.985   3.857
 6357TIP3   OH219076   5.407   4.934   1.388
 6357TIP3    H119077   5.419   4.852   1.339
 6357TIP3    H219078   5.427   5.003   1.324
 6358TIP3   OH219079   5.451   4.623   4.866
 6358TIP3    H119080   5.365   4.587   4.844
 6358TIP3    H219081   5.451   4.629   4.962
 6359TIP3   OH219082   5.546   0.111   4.406
 6359TIP3    H119083   5.473   0.050   4.415
 6359TIP3    H219084   5.515   0.192   4.445
 6360TIP3   OH219085   1.791   4.356   1.915
 6360TIP3    H119086   1.840   4.428   1.877
 6360TIP3    H219087   1.710   4.396   1.946
 6361TIP3   OH219088   1.397   2.144   1.381
 6361TIP3    H119089   1.345   2.121   1.304
 6361TIP3    H219090   1.416   2.061   1.423
 6362TIP3   OH219091   0.899   4.918   4.645
 6362TIP3    H119092   0.837   4.955   4.582
 6362TIP3    H219093   0.963   4.872   4.591
 6363TIP3   OH219094   1.551   5.575   4.068
 6363TIP3    H119095   1.497   5.537   4.138
 6363TIP3    H219096   1.500   5.650   4.037
 6364TIP3   OH219097   0.384   1.580   1.467
 6364TIP3    H119098   0.334   1.521   1.523
 6364TIP3    H219099   0.324   1.603   1.396
 6365TIP3   OH219100   4.037   3.368   4.308
 6365TIP3    H119101   4.009   3.313   4.382
 6365TIP3    H219102   4.113   3.415   4.342
 6366TIP3   OH219103   1.276   3.224   3.147
 6366TIP3    H119104   1.313   3.184   3.069
 6366TIP3    H219105   1.327   3.187   3.220
 6367TIP3   OH219106   5.399   4.154   3.505
 6367TIP3    H119107   5.355   4.219   3.450
 6367TIP3    H219108   5.329   4.119   3.560
 6368TIP3   OH219109   5.946   3.966   4.320
 6368TIP3    H119110   6.038   3.990   4.336
 6368TIP3    H219111   5.900   3.995   4.399
 6369TIP3   OH219112   5.116   1.278   3.991
 6369TIP3    H119113   5.162   1.362   3.988
 6369TIP3    H219114   5.179   1.218   4.031
 6370TIP3   OH219115   5.700   3.437   5.046
 6370TIP3    H119116   5.755   3.504   5.086
 6370TIP3    H219117   5.761   3.383   4.996
 6371TIP3   OH219118   5.114   4.853   0.199
 6371TIP3    H119119   5.027   4.855   0.160
 6371TIP3    H219120   5.123   4.938   0.242
 6372TIP3   OH219121   1.382   4.454   4.067
 6372TIP3    H119122   1.439   4.468   3.991
 6372TIP3    H219123   1.294   4.472   4.035
 6373TIP3   OH219124   3.051   0.257   1.834
 6373TIP3    H119125   2.976   0.315   1.823
 6373TIP3    H219126   3.099   0.263   1.751
 6374TIP3   OH219127   5.352  -0.039   4.540
 6374TIP3    H119128   5.275   0.009   4.511
 6374TIP3    H219129   5.349  -0.034   4.636
 6375TIP3   OH219130   5.834   3.990   4.579
 6375TIP3    H119131   5.779   4.062   4.610
 6375TIP3    H219132   5.833   3.927   4.651
 6376TIP3   OH219133   2.862   1.183   4.614
 6376TIP3    H119134   2.798   1.121   4.649
 6376TIP3    H219135   2.849   1.182   4.520
 6377TIP3   OH219136   5.955   3.453   2.977
 6377TIP3    H119137   5.945   3.464   2.882
 6377TIP3    H219138   5.929   3.363   2.994
 6378TIP3   OH219139   3.459   4.576   4.100
 6378TIP3    H119140   3.482   4.486   4.078
 6378TIP3    H219141   3.371   4.587   4.065
 6379TIP3   OH219142   2.023   0.302   3.707
 6379TIP3    H119143   2.104   0.336   3.668
 6379TIP3    H219144   1.980   0.379   3.743
 6380TIP3   OH219145   0.873   5.880   2.428
 6380TIP3    H119146   0.877   5.842   2.341
 6380TIP3    H219147   0.920   5.818   2.484
 6381TIP3   OH219148   1.767   5.928   0.537
 6381TIP3    H119149   1.676   5.904   0.550
 6381TIP3    H219150   1.767   6.023   0.537
 6382TIP3   OH219151   2.222   5.217   4.180
 6382TIP3    H119152   2.254   5.298   4.218
 6382TIP3    H219153   2.152   5.189   4.239
 6383TIP3   OH219154   1.703   3.305   3.160
 6383TIP3    H119155   1.777   3.244   3.162
 6383TIP3    H219156   1.646   3.276   3.232
 6384TIP3   OH219157   3.360   3.585   4.653
 6384TIP3    H119158   3.322   3.566   4.567
 6384TIP3    H219159   3.300   3.542   4.715
 6385TIP3   OH219160   4.859   1.715   4.225
 6385TIP3    H119161   4.865   1.686   4.316
 6385TIP3    H219162   4.893   1.805   4.226
 6386TIP3   OH219163   4.203   3.772   3.450
 6386TIP3    H119164   4.237   3.696   3.403
 6386TIP3    H219165   4.188   3.838   3.381
 6387TIP3   OH219166   5.022   4.306   1.365
 6387TIP3    H119167   5.052   4.228   1.412
 6387TIP3    H219168   4.961   4.349   1.425
 6388TIP3   OH219169   2.999   4.788   1.295
 6388TIP3    H119170   2.912   4.747   1.292
 6388TIP3    H219171   2.981   4.882   1.293
 6389TIP3   OH219172   3.237   3.664   3.151
 6389TIP3    H119173   3.173   3.690   3.085
 6389TIP3    H219174   3.286   3.744   3.169
 6390TIP3   OH219175   0.452   5.841   0.246
 6390TIP3    H119176   0.445   5.753   0.209
 6390TIP3    H219177   0.379   5.846   0.309
 6391TIP3   OH219178   3.601   1.103   0.360
 6391TIP3    H119179   3.587   1.073   0.450
 6391TIP3    H219180   3.513   1.104   0.321
 6392TIP3   OH219181   5.652   1.430   2.004
 6392TIP3    H119182   5.639   1.435   2.099
 6392TIP3    H219183   5.691   1.515   1.981
 6393TIP3   OH219184   0.582   5.431   2.877
 6393TIP3    H119185   0.580   5.409   2.783
 6393TIP3    H219186   0.675   5.450   2.894
 6394TIP3   OH219187   2.427   3.157   5.123
 6394TIP3    H119188   2.433   3.081   5.180
 6394TIP3    H219189   2.342   3.148   5.080
 6395TIP3   OH219190   4.840   5.046   2.354
 6395TIP3    H119191   4.844   4.956   2.320
 6395TIP3    H219192   4.812   5.036   2.445
 6396TIP3   OH219193   0.401   0.060   1.911
 6396TIP3    H119194   0.444  -0.009   1.861
 6396TIP3    H219195   0.471   0.122   1.932
 6397TIP3   OH219196   2.324   1.916   4.722
 6397TIP3    H119197   2.357   1.851   4.785
 6397TIP3    H219198   2.245   1.876   4.687
 6398TIP3   OH219199   2.209   3.614   3.581
 6398TIP3    H119200   2.293   3.659   3.579
 6398TIP3    H219201   2.151   3.676   3.626
 6399TIP3   OH219202   4.090   3.650   0.624
 6399TIP3    H119203   4.162   3.627   0.565
 6399TIP3    H219204   4.133   3.668   0.708
 6400TIP3   OH219205   2.984   2.402   1.573
 6400TIP3    H119206   3.072   2.370   1.555
 6400TIP3    H219207   2.927   2.327   1.559
 6401TIP3   OH219208   0.280   3.721   3.152
 6401TIP3    H119209   0.363   3.744   3.195
 6401TIP3    H219210   0.214   3.731   3.221
 6402TIP3   OH219211   2.455   4.177   4.898
 6402TIP3    H119212   2.434   4.201   4.808
 6402TIP3    H219213   2.447   4.259   4.947
 6403TIP3   OH219214   4.237   0.669   2.071
 6403TIP3    H119215   4.207   0.709   2.153
 6403TIP3    H219216   4.215   0.734   2.004
 6404TIP3   OH219217   4.832   1.597   1.107
 6404TIP3    H119218   4.879   1.671   1.069
 6404TIP3    H219219   4.886   1.520   1.086
 6405TIP3   OH219220   1.614   3.958   4.093
 6405TIP3    H119221   1.667   3.878   4.095
 6405TIP3    H219222   1.674   4.026   4.124
 6406TIP3   OH219223   3.333   2.049   2.823
 6406TIP3    H119224   3.318   1.963   2.782
 6406TIP3    H219225   3.307   2.112   2.756
 6407TIP3   OH219226   3.579   5.507   0.305
 6407TIP3    H119227   3.611   5.510   0.396
 6407TIP3    H219228   3.488   5.480   0.313
 6408TIP3   OH219229   2.709   2.791   1.324
 6408TIP3    H119230   2.726   2.779   1.231
 6408TIP3    H219231   2.754   2.718   1.366
 6409TIP3   OH219232   0.599   2.351   1.462
 6409TIP3    H119233   0.671   2.307   1.507
 6409TIP3    H219234   0.638   2.432   1.429
 6410TIP3   OH219235   5.859   2.084   0.657
 6410TIP3    H119236   5.934   2.043   0.613
 6410TIP3    H219237   5.898   2.133   0.730
 6411TIP3   OH219238   3.572   1.118   4.594
 6411TIP3    H119239   3.557   1.071   4.511
 6411TIP3    H219240   3.533   1.204   4.579
 6412TIP3   OH219241   0.365   3.478   3.032
 6412TIP3    H119242   0.337   3.565   3.061
 6412TIP3    H219243   0.340   3.420   3.104
 6413TIP3   OH219244   5.368   4.401   3.089
 6413TIP3    H119245   5.389   4.379   2.998
 6413TIP3    H219246   5.318   4.482   3.083
 6414TIP3   OH219247   5.728   3.709   2.647
 6414TIP3    H119248   5.782   3.666   2.713
 6414TIP3    H219249   5.744   3.659   2.566
 6415TIP3   OH219250   4.992   0.355   4.102
 6415TIP3    H119251   4.955   0.270   4.079
 6415TIP3    H219252   4.926   0.418   4.074
 6416TIP3   OH219253   2.481   1.643   0.683
 6416TIP3    H119254   2.450   1.554   0.701
 6416TIP3    H219255   2.408   1.699   0.710
 6417TIP3   OH219256   6.005   0.348   1.499
 6417TIP3    H119257   5.973   0.321   1.585
 6417TIP3    H219258   6.069   0.417   1.518
 6418TIP3   OH219259   3.184   4.029   0.272
 6418TIP3    H119260   3.187   3.935   0.255
 6418TIP3    H219261   3.276   4.055   0.283
 6419TIP3   OH219262   0.688   2.215   4.647
 6419TIP3    H119263   0.713   2.211   4.740
 6419TIP3    H219264   0.638   2.296   4.639
 6420TIP3   OH219265   2.926   2.908   2.021
 6420TIP3    H119266   3.017   2.884   2.038
 6420TIP3    H219267   2.876   2.853   2.081
 6421TIP3   OH219268   2.969   3.224   3.084
 6421TIP3    H119269   3.044   3.270   3.121
 6421TIP3    H219270   3.006   3.168   3.016
 6422TIP3   OH219271   4.667   3.336   4.272
 6422TIP3    H119272   4.662   3.377   4.185
 6422TIP3    H219273   4.753   3.294   4.273
 6423TIP3   OH219274   1.890   1.319   3.376
 6423TIP3    H119275   1.955   1.351   3.315
 6423TIP3    H219276   1.837   1.396   3.398
 6424TIP3   OH219277   0.385   4.973   0.855
 6424TIP3    H119278   0.447   5.020   0.912
 6424TIP3    H219279   0.380   5.028   0.776
 6425TIP3   OH219280   5.959   4.092   2.558
 6425TIP3    H119281   5.898   4.051   2.496
 6425TIP3    H219282   5.914   4.087   2.642
 6426TIP3   OH219283   0.206   5.556   0.207
 6426TIP3    H119284   0.224   5.534   0.299
 6426TIP3    H219285   0.120   5.518   0.190
 6427TIP3   OH219286   0.600   5.328   2.607
 6427TIP3    H119287   0.615   5.307   2.515
 6427TIP3    H219288   0.533   5.266   2.635
 6428TIP3   OH219289   2.816   0.414   1.806
 6428TIP3    H119290   2.798   0.412   1.712
 6428TIP3    H219291   2.754   0.351   1.844
 6429TIP3   OH219292   5.022   0.127   4.836
 6429TIP3    H119293   4.973   0.053   4.870
 6429TIP3    H219294   4.986   0.203   4.881
 6430TIP3   OH219295   3.323   5.394   3.163
 6430TIP3    H119296   3.240   5.397   3.117
 6430TIP3    H219297   3.379   5.457   3.117
 6431TIP3   OH219298   0.948   4.009   4.977
 6431TIP3    H119299   1.034   4.045   4.956
 6431TIP3    H219300   0.916   4.063   5.049
 6432TIP3   OH219301   3.635   1.720   1.062
 6432TIP3    H119302   3.645   1.805   1.105
 6432TIP3    H219303   3.577   1.670   1.118
 6433TIP3   OH219304   4.944   4.631   0.337
 6433TIP3    H119305   5.017   4.680   0.375
 6433TIP3    H219306   4.984   4.575   0.271
 6434TIP3   OH219307   3.206   4.191   2.424
 6434TIP3    H119308   3.268   4.243   2.372
 6434TIP3    H219309   3.153   4.256   2.470
 6435TIP3   OH219310   2.310   2.671   4.762
 6435TIP3    H119311   2.354   2.755   4.748
 6435TIP3    H219312   2.217   2.693   4.767
 6436TIP3   OH219313   6.183   5.109   3.288
 6436TIP3    H119314   6.107   5.121   3.232
 6436TIP3    H219315   6.224   5.195   3.292
 6437TIP3   OH219316   1.126   4.871   3.249
 6437TIP3    H119317   1.052   4.928   3.269
 6437TIP3    H219318   1.186   4.882   3.323
 6438TIP3   OH219319   3.130   4.618   3.052
 6438TIP3    H119320   3.193   4.675   3.009
 6438TIP3    H219321   3.047   4.667   3.049
 6439TIP3   OH219322   6.143   5.863   5.057
 6439TIP3    H119323   6.144   5.930   4.988
 6439TIP3    H219324   6.212   5.891   5.117
 6440TIP3   OH219325   4.609   0.500   4.617
 6440TIP3    H119326   4.572   0.577   4.661
 6440TIP3    H219327   4.677   0.469   4.677
 6441TIP3   OH219328   6.140   0.538   4.204
 6441TIP3    H119329   6.182   0.589   4.135
 6441TIP3    H219330   6.203   0.538   4.276
 6442TIP3   OH219331   0.242   5.059   2.357
 6442TIP3    H119332   0.278   5.067   2.445
 6442TIP3    H219333   0.222   4.966   2.347
 6443TIP3   OH219334   1.749   2.969   1.398
 6443TIP3    H119335   1.662   2.988   1.362
 6443TIP3    H219336   1.792   3.054   1.404
 6444TIP3   OH219337   0.319   0.825   3.724
 6444TIP3    H119338   0.406   0.834   3.762
 6444TIP3    H219339   0.260   0.824   3.799
 6445TIP3   OH219340   4.681   2.912   5.066
 6445TIP3    H119341   4.620   2.850   5.025
 6445TIP3    H219342   4.625   2.985   5.094
 6446TIP3   OH219343   2.701   2.701   3.935
 6446TIP3    H119344   2.649   2.621   3.946
 6446TIP3    H219345   2.727   2.724   4.024
 6447TIP3   OH219346   6.281   2.326   4.958
 6447TIP3    H119347   6.335   2.309   5.034
 6447TIP3    H219348   6.312   2.410   4.924
 6448TIP3   OH219349   3.316   1.622   3.627
 6448TIP3    H119350   3.233   1.591   3.662
 6448TIP3    H219351   3.329   1.708   3.667
 6449TIP3   OH219352   3.287   4.077   2.098
 6449TIP3    H119353   3.360   4.040   2.148
 6449TIP3    H219354   3.227   4.110   2.165
 6450TIP3   OH219355   5.508   2.851   1.107
 6450TIP3    H119356   5.492   2.787   1.176
 6450TIP3    H219357   5.497   2.936   1.149
 6451TIP3   OH219358   2.149   4.992   3.822
 6451TIP3    H119359   2.186   5.039   3.747
 6451TIP3    H219360   2.210   4.919   3.836
 6452TIP3   OH219361   3.834   5.738   1.322
 6452TIP3    H119362   3.905   5.747   1.385
 6452TIP3    H219363   3.755   5.736   1.375
 6453TIP3   OH219364   6.318   5.156   1.891
 6453TIP3    H119365   6.252   5.128   1.955
 6453TIP3    H219366   6.352   5.074   1.855
 6454TIP3   OH219367   5.914   1.122   1.451
 6454TIP3    H119368   5.902   1.161   1.364
 6454TIP3    H219369   5.830   1.135   1.495
 6455TIP3   OH219370   0.485   2.792   1.110
 6455TIP3    H119371   0.551   2.736   1.151
 6455TIP3    H219372   0.535   2.862   1.068
 6456TIP3   OH219373   4.695   1.246   1.758
 6456TIP3    H119374   4.698   1.170   1.699
 6456TIP3    H219375   4.648   1.215   1.835
 6457TIP3   OH219376   0.396   2.292   2.526
 6457TIP3    H119377   0.305   2.285   2.555
 6457TIP3    H219378   0.447   2.279   2.606
 6458TIP3   OH219379   4.856   4.021   0.466
 6458TIP3    H119380   4.925   3.957   0.483
 6458TIP3    H219381   4.807   4.026   0.549
 6459TIP3   OH219382   3.717   4.654   2.376
 6459TIP3    H119383   3.701   4.610   2.292
 6459TIP3    H219384   3.809   4.680   2.372
 6460TIP3   OH219385   6.276   4.849   5.106
 6460TIP3    H119386   6.284   4.755   5.121
 6460TIP3    H219387   6.243   4.857   5.017
 6461TIP3   OH219388   1.798   3.198   1.940
 6461TIP3    H119389   1.774   3.242   2.022
 6461TIP3    H219390   1.778   3.262   1.872
 6462TIP3   OH219391   5.113   5.500   2.227
 6462TIP3    H119392   5.070   5.520   2.144
 6462TIP3    H219393   5.069   5.421   2.257
 6463TIP3   OH219394   5.168   4.461   1.210
 6463TIP3    H119395   5.113   4.404   1.265
 6463TIP3    H219396   5.225   4.506   1.273
 6464TIP3   OH219397   2.815   0.296   4.868
 6464TIP3    H119398   2.818   0.352   4.946
 6464TIP3    H219399   2.745   0.233   4.886
 6465TIP3   OH219400   4.841   2.391   2.086
 6465TIP3    H119401   4.889   2.440   2.154
 6465TIP3    H219402   4.891   2.310   2.076
 6466TIP3   OH219403   0.017   2.872   2.342
 6466TIP3    H119404   0.065   2.927   2.403
 6466TIP3    H219405   0.031   2.783   2.374
 6467TIP3   OH219406   4.626   0.287   4.783
 6467TIP3    H119407   4.543   0.325   4.754
 6467TIP3    H219408   4.604   0.239   4.863
 6468TIP3   OH219409   3.747   2.583   3.399
 6468TIP3    H119410   3.775   2.675   3.400
 6468TIP3    H219411   3.828   2.534   3.412
 6469TIP3   OH219412   5.086   0.344   0.054
 6469TIP3    H119413   5.147   0.350  -0.019
 6469TIP3    H219414   5.137   0.371   0.131
 6470TIP3   OH219415   2.695   3.306   0.640
 6470TIP3    H119416   2.783   3.280   0.666
 6470TIP3    H219417   2.640   3.232   0.665
 6471TIP3   OH219418   1.687   0.689   2.426
 6471TIP3    H119419   1.672   0.698   2.332
 6471TIP3    H219420   1.742   0.611   2.434
 6472TIP3   OH219421   5.438   2.352   3.722
 6472TIP3    H119422   5.480   2.294   3.785
 6472TIP3    H219423   5.493   2.346   3.644
 6473TIP3   OH219424   5.041   0.478   3.366
 6473TIP3    H119425   5.035   0.551   3.304
 6473TIP3    H219426   4.981   0.501   3.436
 6474TIP3   OH219427   2.587   0.530   1.954
 6474TIP3    H119428   2.668   0.581   1.949
 6474TIP3    H219429   2.617   0.439   1.957
 6475TIP3   OH219430   1.682   0.144   5.142
 6475TIP3    H119431   1.684   0.126   5.048
 6475TIP3    H219432   1.589   0.149   5.164
 6476TIP3   OH219433   2.584   3.344   4.546
 6476TIP3    H119434   2.609   3.349   4.639
 6476TIP3    H219435   2.490   3.361   4.546
 6477TIP3   OH219436   5.915   3.166   0.560
 6477TIP3    H119437   5.841   3.223   0.580
 6477TIP3    H219438   5.948   3.197   0.476
 6478TIP3   OH219439   0.289   2.505   1.942
 6478TIP3    H119440   0.255   2.478   2.028
 6478TIP3    H219441   0.213   2.501   1.884
 6479TIP3   OH219442   3.726   2.908   2.567
 6479TIP3    H119443   3.745   2.893   2.475
 6479TIP3    H219444   3.711   2.821   2.603
 6480TIP3   OH219445   2.609   5.291   2.001
 6480TIP3    H119446   2.703   5.296   1.980
 6480TIP3    H219447   2.573   5.372   1.968
 6481TIP3   OH219448   1.990   3.564   2.376
 6481TIP3    H119449   2.071   3.569   2.327
 6481TIP3    H219450   1.923   3.545   2.310
 6482TIP3   OH219451   5.589   2.904   2.834
 6482TIP3    H119452   5.582   2.815   2.868
 6482TIP3    H219453   5.580   2.960   2.911
 6483TIP3   OH219454   3.505   0.880   2.666
 6483TIP3    H119455   3.473   0.952   2.612
 6483TIP3    H219456   3.588   0.855   2.627
 6484TIP3   OH219457   3.592   2.731   4.541
 6484TIP3    H119458   3.508   2.770   4.518
 6484TIP3    H219459   3.630   2.791   4.605
 6485TIP3   OH219460   1.214   1.734   5.009
 6485TIP3    H119461   1.291   1.740   5.065
 6485TIP3    H219462   1.141   1.717   5.069
 6486TIP3   OH219463   3.356   5.229   4.717
 6486TIP3    H119464   3.292   5.263   4.780
 6486TIP3    H219465   3.385   5.307   4.669
 6487TIP3   OH219466   2.341   5.248   1.591
 6487TIP3    H119467   2.395   5.324   1.609
 6487TIP3    H219468   2.345   5.195   1.671
 6488TIP3   OH219469   4.956   3.402   4.013
 6488TIP3    H119470   4.864   3.422   3.997
 6488TIP3    H219471   4.996   3.486   4.034
 6489TIP3   OH219472   2.870   1.432   3.751
 6489TIP3    H119473   2.796   1.371   3.754
 6489TIP3    H219474   2.830   1.516   3.727
 6490TIP3   OH219475   0.356   5.162   4.217
 6490TIP3    H119476   0.448   5.145   4.196
 6490TIP3    H219477   0.312   5.077   4.205
 6491TIP3   OH219478   3.731   3.331   4.765
 6491TIP3    H119479   3.723   3.415   4.719
 6491TIP3    H219480   3.649   3.285   4.745
 6492TIP3   OH219481   1.450   5.752   4.344
 6492TIP3    H119482   1.476   5.828   4.397
 6492TIP3    H219483   1.523   5.691   4.353
 6493TIP3   OH219484   5.167   1.132   0.913
 6493TIP3    H119485   5.088   1.185   0.926
 6493TIP3    H219486   5.232   1.174   0.969
 6494TIP3   OH219487   3.353   2.041   2.297
 6494TIP3    H119488   3.382   2.069   2.210
 6494TIP3    H219489   3.279   1.983   2.280
 6495TIP3   OH219490   4.742   2.475   0.637
 6495TIP3    H119491   4.651   2.495   0.659
 6495TIP3    H219492   4.757   2.386   0.670
 6496TIP3   OH219493   4.265   3.865   2.914
 6496TIP3    H119494   4.275   3.954   2.880
 6496TIP3    H219495   4.214   3.819   2.847
 6497TIP3   OH219496   3.929   3.711   3.419
 6497TIP3    H119497   3.935   3.677   3.509
 6497TIP3    H219498   3.995   3.780   3.415
 6498TIP3   OH219499   1.717   2.836   1.625
 6498TIP3    H119500   1.734   2.748   1.591
 6498TIP3    H219501   1.730   2.894   1.550
 6499TIP3   OH219502   5.141   3.199   2.729
 6499TIP3    H119503   5.159   3.122   2.675
 6499TIP3    H219504   5.141   3.272   2.667
 6500TIP3   OH219505   5.110   1.363   1.746
 6500TIP3    H119506   5.197   1.326   1.759
 6500TIP3    H219507   5.120   1.456   1.762
 6501TIP3   OH219508   1.059   1.347   0.824
 6501TIP3    H119509   1.107   1.279   0.777
 6501TIP3    H219510   1.122   1.420   0.831
 6502TIP3   OH219511   1.017   3.976   1.400
 6502TIP3    H119512   0.960   4.038   1.445
 6502TIP3    H219513   1.105   4.013   1.408
 6503TIP3   OH219514   1.504   0.152   0.437
 6503TIP3    H119515   1.527   0.221   0.499
 6503TIP3    H219516   1.420   0.181   0.399
 6504TIP3   OH219517   5.088   3.655   3.989
 6504TIP3    H119518   5.119   3.662   4.079
 6504TIP3    H219519   5.141   3.718   3.940
 6505TIP3   OH219520   2.611   0.979   3.777
 6505TIP3    H119521   2.592   0.996   3.685
 6505TIP3    H219522   2.578   1.057   3.823
 6506TIP3   OH219523   0.608   3.690   2.963
 6506TIP3    H119524   0.583   3.633   3.036
 6506TIP3    H219525   0.539   3.756   2.959
 6507TIP3   OH219526   5.107   0.982   1.780
 6507TIP3    H119527   5.045   1.034   1.830
 6507TIP3    H219528   5.186   0.979   1.834
 6508TIP3   OH219529   5.718   1.991   0.433
 6508TIP3    H119530   5.751   2.035   0.512
 6508TIP3    H219531   5.777   1.917   0.420
 6509TIP3   OH219532   0.982   1.367   1.971
 6509TIP3    H119533   0.903   1.383   2.023
 6509TIP3    H219534   0.962   1.402   1.884
 6510TIP3   OH219535   3.288   4.846   2.641
 6510TIP3    H119536   3.310   4.824   2.550
 6510TIP3    H219537   3.362   4.811   2.692
 6511TIP3   OH219538   5.651   3.905   5.000
 6511TIP3    H119539   5.646   3.847   5.076
 6511TIP3    H219540   5.629   3.850   4.925
 6512TIP3   OH219541   3.932   5.535   3.892
 6512TIP3    H119542   3.901   5.503   3.976
 6512TIP3    H219543   3.901   5.471   3.828
 6513TIP3   OH219544   5.565   2.904   4.268
 6513TIP3    H119545   5.547   2.982   4.215
 6513TIP3    H219546   5.500   2.840   4.240
 6514TIP3   OH219547   0.039   3.393   0.952
 6514TIP3    H119548  -0.029   3.375   1.017
 6514TIP3    H219549   0.107   3.329   0.971
 6515TIP3   OH219550   1.385   4.621   1.283
 6515TIP3    H119551   1.362   4.705   1.245
 6515TIP3    H219552   1.302   4.576   1.297
 6516TIP3   OH219553   6.142   2.557   3.236
 6516TIP3    H119554   6.183   2.596   3.159
 6516TIP3    H219555   6.215   2.535   3.294
 6517TIP3   OH219556   3.806   4.997   1.646
 6517TIP3    H119557   3.891   5.043   1.649
 6517TIP3    H219558   3.768   5.014   1.732
 6518TIP3   OH219559   5.504   0.052   4.024
 6518TIP3    H119560   5.556   0.126   4.056
 6518TIP3    H219561   5.443   0.033   4.096
 6519TIP3   OH219562   6.055   4.220   0.461
 6519TIP3    H119563   6.129   4.239   0.404
 6519TIP3    H219564   5.979   4.221   0.403
 6520TIP3   OH219565   5.002   3.199   0.391
 6520TIP3    H119566   4.909   3.211   0.407
 6520TIP3    H219567   5.045   3.261   0.450
 6521TIP3   OH219568   0.642   4.106   0.674
 6521TIP3    H119569   0.608   4.018   0.659
 6521TIP3    H219570   0.638   4.149   0.588
 6522TIP3   OH219571   4.939   4.472   5.090
 6522TIP3    H119572   4.843   4.479   5.093
 6522TIP3    H219573   4.970   4.562   5.101
 6523TIP3   OH219574   3.193   2.748   1.811
 6523TIP3    H119575   3.261   2.719   1.750
 6523TIP3    H219576   3.191   2.843   1.802
 6524TIP3   OH219577   2.382   2.067   1.232
 6524TIP3    H119578   2.450   2.002   1.251
 6524TIP3    H219579   2.344   2.087   1.318
 6525TIP3   OH219580   4.812   3.976   2.028
 6525TIP3    H119581   4.845   3.944   2.111
 6525TIP3    H219582   4.889   4.013   1.984
 6526TIP3   OH219583   5.509   1.161   2.407
 6526TIP3    H119584   5.471   1.152   2.494
 6526TIP3    H219585   5.602   1.140   2.418
 6527TIP3   OH219586   2.120   1.157   0.964
 6527TIP3    H119587   2.084   1.212   0.895
 6527TIP3    H219588   2.044   1.121   1.009
 6528TIP3   OH219589   1.634   0.115   3.617
 6528TIP3    H119590   1.568   0.163   3.667
 6528TIP3    H219591   1.657   0.173   3.544
 6529TIP3   OH219592   5.416   1.191   1.046
 6529TIP3    H119593   5.426   1.203   0.951
 6529TIP3    H219594   5.447   1.273   1.084
 6530TIP3   OH219595   1.220   4.851   2.972
 6530TIP3    H119596   1.204   4.870   3.064
 6530TIP3    H219597   1.243   4.935   2.933
 6531TIP3   OH219598   5.191   0.512   0.599
 6531TIP3    H119599   5.116   0.465   0.635
 6531TIP3    H219600   5.157   0.598   0.576
 6532TIP3   OH219601   4.541   0.682   0.492
 6532TIP3    H119602   4.504   0.714   0.410
 6532TIP3    H219603   4.579   0.597   0.470
 6533TIP3   OH219604   5.255   4.669   0.898
 6533TIP3    H119605   5.179   4.727   0.901
 6533TIP3    H219606   5.218   4.581   0.895
 6534TIP3   OH219607   2.891   5.220   1.799
 6534TIP3    H119608   2.855   5.248   1.715
 6534TIP3    H219609   2.910   5.301   1.846
 6535TIP3   OH219610   5.416   0.238   3.564
 6535TIP3    H119611   5.442   0.314   3.512
 6535TIP3    H219612   5.397   0.274   3.651
 6536TIP3   OH219613   2.840   0.369   2.639
 6536TIP3    H119614   2.814   0.404   2.554
 6536TIP3    H219615   2.812   0.278   2.638
 6537TIP3   OH219616   5.927   2.780   3.666
 6537TIP3    H119617   5.887   2.695   3.684
 6537TIP3    H219618   5.954   2.775   3.574
 6538TIP3   OH219619   1.508   6.003   4.476
 6538TIP3    H119620   1.478   5.963   4.558
 6538TIP3    H219621   1.594   6.040   4.498
 6539TIP3   OH219622   2.117   5.830   3.092
 6539TIP3    H119623   2.053   5.870   3.151
 6539TIP3    H219624   2.123   5.739   3.120
 6540TIP3   OH219625   6.336   2.146   1.834
 6540TIP3    H119626   6.260   2.182   1.879
 6540TIP3    H219627   6.315   2.154   1.741
 6541TIP3   OH219628   3.839   4.007   2.711
 6541TIP3    H119629   3.856   4.090   2.667
 6541TIP3    H219630   3.853   3.940   2.644
 6542TIP3   OH219631   2.242   1.497   0.981
 6542TIP3    H119632   2.183   1.443   0.928
 6542TIP3    H219633   2.209   1.586   0.972
 6543TIP3   OH219634   5.691   0.078   0.564
 6543TIP3    H119635   5.756   0.104   0.630
 6543TIP3    H219636   5.657  -0.005   0.596
 6544TIP3   OH219637   1.961   4.271   2.169
 6544TIP3    H119638   2.045   4.244   2.133
 6544TIP3    H219639   1.942   4.354   2.125
 6545TIP3   OH219640   3.690   0.931   0.094
 6545TIP3    H119641   3.738   1.014   0.086
 6545TIP3    H219642   3.699   0.908   0.186
 6546TIP3   OH219643   3.330   2.916   5.126
 6546TIP3    H119644   3.242   2.886   5.148
 6546TIP3    H219645   3.359   2.964   5.204
 6547TIP3   OH219646   1.274   3.891   2.658
 6547TIP3    H119647   1.251   3.862   2.570
 6547TIP3    H219648   1.264   3.813   2.712
 6548TIP3   OH219649   2.723   3.565   0.104
 6548TIP3    H119650   2.800   3.514   0.081
 6548TIP3    H219651   2.758   3.643   0.148
 6549TIP3   OH219652   4.024   3.228   0.102
 6549TIP3    H119653   3.957   3.214   0.036
 6549TIP3    H219654   3.984   3.287   0.165
 6550TIP3   OH219655   2.787   4.680   2.165
 6550TIP3    H119656   2.725   4.619   2.127
 6550TIP3    H219657   2.819   4.731   2.091
 6551TIP3   OH219658   2.165   0.454   0.324
 6551TIP3    H119659   2.177   0.392   0.397
 6551TIP3    H219660   2.173   0.541   0.365
 6552TIP3   OH219661   2.673   4.397   1.718
 6552TIP3    H119662   2.730   4.327   1.687
 6552TIP3    H219663   2.672   4.460   1.646
 6553TIP3   OH219664   3.240   4.384   2.777
 6553TIP3    H119665   3.186   4.398   2.700
 6553TIP3    H219666   3.197   4.312   2.824
 6554TIP3   OH219667   3.519   0.487   0.504
 6554TIP3    H119668   3.523   0.577   0.536
 6554TIP3    H219669   3.509   0.496   0.409
 6555TIP3   OH219670   1.187   5.816   1.415
 6555TIP3    H119671   1.182   5.904   1.377
 6555TIP3    H219672   1.152   5.827   1.504
 6556TIP3   OH219673   0.888   5.416   2.684
 6556TIP3    H119674   0.804   5.431   2.640
 6556TIP3    H219675   0.953   5.422   2.614
 6557TIP3   OH219676   6.342   3.345   2.957
 6557TIP3    H119677   6.292   3.297   2.890
 6557TIP3    H219678   6.331   3.437   2.932
 6558TIP3   OH219679   1.906   4.844   4.422
 6558TIP3    H119680   1.854   4.892   4.487
 6558TIP3    H219681   1.980   4.809   4.472
 6559TIP3   OH219682   5.133   1.185   0.499
 6559TIP3    H119683   5.146   1.150   0.587
 6559TIP3    H219684   5.181   1.126   0.441
 6560TIP3   OH219685   6.155   0.258   1.793
 6560TIP3    H119686   6.181   0.340   1.835
 6560TIP3    H219687   6.062   0.269   1.774
 6561TIP3   OH219688   5.511   1.126   4.790
 6561TIP3    H119689   5.438   1.073   4.758
 6561TIP3    H219690   5.588   1.071   4.774
 6562TIP3   OH219691   3.246   1.420   1.527
 6562TIP3    H119692   3.173   1.362   1.550
 6562TIP3    H219693   3.264   1.469   1.608
 6563TIP3   OH219694   1.724   5.385   4.663
 6563TIP3    H119695   1.709   5.479   4.662
 6563TIP3    H219696   1.776   5.368   4.584
 6564TIP3   OH219697   0.859   5.403   4.690
 6564TIP3    H119698   0.902   5.449   4.761
 6564TIP3    H219699   0.886   5.450   4.611
 6565TIP3   OH219700   3.892   1.135   1.823
 6565TIP3    H119701   3.872   1.214   1.774
 6565TIP3    H219702   3.981   1.147   1.855
 6566TIP3   OH219703   5.066   1.951   1.179
 6566TIP3    H119704   5.047   1.926   1.270
 6566TIP3    H219705   5.025   1.881   1.127
 6567TIP3   OH219706   4.963   3.367   4.938
 6567TIP3    H119707   4.969   3.284   4.890
 6567TIP3    H219708   4.977   3.344   5.029
 6568TIP3   OH219709   5.894   5.230   0.248
 6568TIP3    H119710   5.888   5.154   0.190
 6568TIP3    H219711   5.866   5.198   0.333
 6569TIP3   OH219712   0.576   4.432   4.265
 6569TIP3    H119713   0.524   4.407   4.189
 6569TIP3    H219714   0.628   4.507   4.236
 6570TIP3   OH219715   1.311   1.611   4.043
 6570TIP3    H119716   1.331   1.705   4.038
 6570TIP3    H219717   1.388   1.568   4.006
 6571TIP3   OH219718   2.249   0.257   4.889
 6571TIP3    H119719   2.227   0.242   4.981
 6571TIP3    H219720   2.299   0.180   4.863
 6572TIP3   OH219721   2.661   0.245   1.971
 6572TIP3    H119722   2.675   0.167   1.918
 6572TIP3    H219723   2.570   0.240   1.998
 6573TIP3   OH219724   1.190   5.622   4.586
 6573TIP3    H119725   1.197   5.535   4.547
 6573TIP3    H219726   1.142   5.608   4.667
 6574TIP3   OH219727   5.360   5.009   2.083
 6574TIP3    H119728   5.337   4.951   2.156
 6574TIP3    H219729   5.417   4.955   2.028
 6575TIP3   OH219730   2.098   2.843   2.655
 6575TIP3    H119731   2.020   2.806   2.615
 6575TIP3    H219732   2.158   2.858   2.582
 6576TIP3   OH219733   5.050   4.190   0.773
 6576TIP3    H119734   5.030   4.101   0.804
 6576TIP3    H219735   4.965   4.230   0.759
 6577TIP3   OH219736   2.672   4.076   1.516
 6577TIP3    H119737   2.687   4.075   1.610
 6577TIP3    H219738   2.700   3.989   1.487
 6578TIP3   OH219739   5.532   4.893   4.876
 6578TIP3    H119740   5.491   4.807   4.884
 6578TIP3    H219741   5.623   4.879   4.904
 6579TIP3   OH219742   3.351   3.636   1.136
 6579TIP3    H119743   3.300   3.557   1.122
 6579TIP3    H219744   3.287   3.701   1.166
 6580TIP3   OH219745   1.919   3.635   4.568
 6580TIP3    H119746   1.990   3.589   4.614
 6580TIP3    H219747   1.963   3.703   4.517
 6581TIP3   OH219748   5.782   5.703   2.583
 6581TIP3    H119749   5.865   5.740   2.554
 6581TIP3    H219750   5.760   5.639   2.516
 6582TIP3   OH219751   5.459   2.170   2.957
 6582TIP3    H119752   5.391   2.103   2.963
 6582TIP3    H219753   5.454   2.217   3.041
 6583TIP3   OH219754   4.185   3.451   3.688
 6583TIP3    H119755   4.227   3.537   3.690
 6583TIP3    H219756   4.147   3.445   3.600
 6584TIP3   OH219757   1.187   4.970   0.914
 6584TIP3    H119758   1.267   5.021   0.902
 6584TIP3    H219759   1.206   4.886   0.873
 6585TIP3   OH219760   6.381   0.245   2.549
 6585TIP3    H119761   6.339   0.207   2.472
 6585TIP3    H219762   6.365   0.183   2.619
 6586TIP3   OH219763   6.093   5.932   3.340
 6586TIP3    H119764   6.046   5.981   3.273
 6586TIP3    H219765   6.026   5.905   3.402
 6587TIP3   OH219766   2.976   4.082   0.454
 6587TIP3    H119767   3.046   4.058   0.393
 6587TIP3    H219768   2.947   4.000   0.492
 6588TIP3   OH219769   1.322   1.896   1.851
 6588TIP3    H119770   1.332   1.987   1.822
 6588TIP3    H219771   1.377   1.889   1.929
 6589TIP3   OH219772   5.168   1.889   2.318
 6589TIP3    H119773   5.158   1.863   2.227
 6589TIP3    H219774   5.259   1.919   2.324
 6590TIP3   OH219775   2.798   4.479   4.976
 6590TIP3    H119776   2.759   4.479   5.063
 6590TIP3    H219777   2.749   4.414   4.927
 6591TIP3   OH219778   4.944   4.395   3.953
 6591TIP3    H119779   4.988   4.479   3.961
 6591TIP3    H219780   5.015   4.331   3.946
 6592TIP3   OH219781   1.213   3.836   4.721
 6592TIP3    H119782   1.205   3.753   4.767
 6592TIP3    H219783   1.302   3.836   4.686
 6593TIP3   OH219784   1.177   5.237   0.558
 6593TIP3    H119785   1.137   5.324   0.552
 6593TIP3    H219786   1.245   5.247   0.625
 6594TIP3   OH219787   2.935   3.006   3.338
 6594TIP3    H119788   2.981   3.068   3.282
 6594TIP3    H219789   2.976   2.922   3.319
 6595TIP3   OH219790   1.488   0.579   4.475
 6595TIP3    H119791   1.580   0.589   4.448
 6595TIP3    H219792   1.480   0.635   4.552
 6596TIP3   OH219793   2.492   3.945   3.950
 6596TIP3    H119794   2.571   3.892   3.938
 6596TIP3    H219795   2.421   3.886   3.923
 6597TIP3   OH219796   0.960   4.432   3.846
 6597TIP3    H119797   0.999   4.493   3.909
 6597TIP3    H219798   0.871   4.464   3.833
 6598TIP3   OH219799   0.137   0.180   1.461
 6598TIP3    H119800   0.143   0.275   1.455
 6598TIP3    H219801   0.043   0.162   1.455
 6599TIP3   OH219802   3.384   0.848   2.310
 6599TIP3    H119803   3.456   0.879   2.367
 6599TIP3    H219804   3.339   0.782   2.363
 6600TIP3   OH219805   1.753   4.750   2.823
 6600TIP3    H119806   1.708   4.710   2.898
 6600TIP3    H219807   1.813   4.683   2.792
 6601TIP3   OH219808   4.086   2.877   4.544
 6601TIP3    H119809   4.125   2.957   4.578
 6601TIP3    H219810   4.119   2.871   4.454
 6602TIP3   OH219811   3.415   0.383   1.234
 6602TIP3    H119812   3.486   0.318   1.236
 6602TIP3    H219813   3.393   0.390   1.141
 6603TIP3   OH219814   4.155   5.945   1.616
 6603TIP3    H119815   4.177   5.852   1.623
 6603TIP3    H219816   4.194   5.985   1.694
 6604TIP3   OH219817   3.324   0.292   4.040
 6604TIP3    H119818   3.256   0.300   4.107
 6604TIP3    H219819   3.342   0.383   4.014
 6605TIP3   OH219820   2.207   3.973   3.084
 6605TIP3    H119821   2.118   4.002   3.061
 6605TIP3    H219822   2.196   3.883   3.113
 6606TIP3   OH219823   0.117   1.634   0.497
 6606TIP3    H119824   0.169   1.559   0.526
 6606TIP3    H219825   0.129   1.699   0.566
 6607TIP3   OH219826   5.335   5.195   2.700
 6607TIP3    H119827   5.380   5.226   2.779
 6607TIP3    H219828   5.401   5.144   2.654
 6608TIP3   OH219829   4.188   5.564   1.869
 6608TIP3    H119830   4.231   5.552   1.784
 6608TIP3    H219831   4.260   5.578   1.930
 6609TIP3   OH219832   4.983   1.518   0.185
 6609TIP3    H119833   4.919   1.573   0.231
 6609TIP3    H219834   4.986   1.553   0.097
 6610TIP3   OH219835   0.190   3.816   1.875
 6610TIP3    H119836   0.128   3.836   1.944
 6610TIP3    H219837   0.165   3.729   1.843
 6611TIP3   OH219838   3.469   3.410   2.241
 6611TIP3    H119839   3.552   3.402   2.289
 6611TIP3    H219840   3.463   3.329   2.190
 6612TIP3   OH219841   3.676   1.364   0.675
 6612TIP3    H119842   3.620   1.372   0.752
 6612TIP3    H219843   3.726   1.284   0.690
 6613TIP3   OH219844   1.171   3.210   1.688
 6613TIP3    H119845   1.126   3.247   1.764
 6613TIP3    H219846   1.242   3.271   1.670
 6614TIP3   OH219847   2.903   1.758   2.129
 6614TIP3    H119848   2.855   1.768   2.212
 6614TIP3    H219849   2.835   1.759   2.062
 6615TIP3   OH219850   4.095   2.958   5.123
 6615TIP3    H119851   4.101   2.890   5.056
 6615TIP3    H219852   4.073   2.911   5.203
 6616TIP3   OH219853   6.264   1.474   0.398
 6616TIP3    H119854   6.283   1.482   0.305
 6616TIP3    H219855   6.336   1.520   0.441
 6617TIP3   OH219856   2.278   0.505   1.991
 6617TIP3    H119857   2.259   0.521   1.899
 6617TIP3    H219858   2.363   0.548   2.006
 6618TIP3   OH219859   4.710   0.436   2.962
 6618TIP3    H119860   4.800   0.416   2.987
 6618TIP3    H219861   4.681   0.357   2.916
 6619TIP3   OH219862   3.107   4.967   1.609
 6619TIP3    H119863   3.117   5.040   1.671
 6619TIP3    H219864   3.131   5.004   1.524
 6620TIP3   OH219865   6.063   4.237   1.442
 6620TIP3    H119866   6.128   4.183   1.397
 6620TIP3    H219867   6.032   4.182   1.514
 6621TIP3   OH219868   5.683   4.931   2.328
 6621TIP3    H119869   5.747   4.999   2.306
 6621TIP3    H219870   5.613   4.978   2.374
 6622TIP3   OH219871   0.255   5.526   1.115
 6622TIP3    H119872   0.166   5.501   1.091
 6622TIP3    H219873   0.256   5.521   1.211
 6623TIP3   OH219874   1.530   0.948   3.774
 6623TIP3    H119875   1.569   0.863   3.755
 6623TIP3    H219876   1.597   0.996   3.823
 6624TIP3   OH219877   3.085   4.997   4.408
 6624TIP3    H119878   3.091   4.929   4.340
 6624TIP3    H219879   2.994   5.027   4.403
 6625TIP3   OH219880   2.585   3.138   1.672
 6625TIP3    H119881   2.550   3.055   1.639
 6625TIP3    H219882   2.680   3.125   1.670
 6626TIP3   OH219883   5.374   5.493   0.959
 6626TIP3    H119884   5.348   5.425   1.021
 6626TIP3    H219885   5.291   5.526   0.923
 6627TIP3   OH219886   3.573   2.318   4.629
 6627TIP3    H119887   3.651   2.373   4.615
 6627TIP3    H219888   3.575   2.297   4.723
 6628TIP3   OH219889   3.188   2.842   2.853
 6628TIP3    H119890   3.220   2.909   2.913
 6628TIP3    H219891   3.141   2.780   2.908
 6629TIP3   OH219892   2.012   0.674   4.845
 6629TIP3    H119893   1.941   0.609   4.844
 6629TIP3    H219894   2.092   0.622   4.847
 6630TIP3   OH219895   1.956   3.558   3.845
 6630TIP3    H119896   1.964   3.570   3.940
 6630TIP3    H219897   1.900   3.630   3.816
 6631TIP3   OH219898   0.773   4.732   0.640
 6631TIP3    H119899   0.743   4.641   0.639
 6631TIP3    H219900   0.826   4.741   0.560
 6632TIP3   OH219901   4.079   0.170   1.952
 6632TIP3    H119902   4.119   0.255   1.972
 6632TIP3    H219903   4.153   0.108   1.956
 6633TIP3   OH219904   0.345   5.809   0.863
 6633TIP3    H119905   0.274   5.806   0.926
 6633TIP3    H219906   0.312   5.866   0.793
 6634TIP3   OH219907   3.899   5.247   3.095
 6634TIP3    H119908   3.843   5.189   3.146
 6634TIP3    H219909   3.845   5.324   3.077
 6635TIP3   OH219910   1.111   1.828   4.040
 6635TIP3    H119911   1.102   1.733   4.027
 6635TIP3    H219912   1.021   1.860   4.043
 6636TIP3   OH219913   4.301   3.876   4.582
 6636TIP3    H119914   4.346   3.903   4.502
 6636TIP3    H219915   4.208   3.893   4.565
 6637TIP3   OH219916   2.520   3.929   2.723
 6637TIP3    H119917   2.528   3.984   2.646
 6637TIP3    H219918   2.570   3.850   2.702
 6638TIP3   OH219919   0.953   2.219   0.371
 6638TIP3    H119920   0.973   2.131   0.340
 6638TIP3    H219921   0.884   2.251   0.312
 6639TIP3   OH219922   3.568   4.993   4.247
 6639TIP3    H119923   3.587   5.031   4.333
 6639TIP3    H219924   3.586   4.900   4.257
 6640TIP3   OH219925   4.949   3.864   0.841
 6640TIP3    H119926   4.974   3.774   0.823
 6640TIP3    H219927   4.935   3.867   0.936
 6641TIP3   OH219928   0.116   3.269   1.833
 6641TIP3    H119929   0.204   3.274   1.870
 6641TIP3    H219930   0.072   3.201   1.884
 6642TIP3   OH219931   1.185   5.797   2.820
 6642TIP3    H119932   1.204   5.716   2.772
 6642TIP3    H219933   1.220   5.781   2.908
 6643TIP3   OH219934   0.800   0.440   1.243
 6643TIP3    H119935   0.807   0.354   1.200
 6643TIP3    H219936   0.888   0.458   1.275
 6644TIP3   OH219937  -0.006   4.776   0.621
 6644TIP3    H119938   0.042   4.700   0.654
 6644TIP3    H219939  -0.077   4.738   0.568
 6645TIP3   OH219940   6.097   3.265   4.177
 6645TIP3    H119941   6.170   3.203   4.174
 6645TIP3    H219942   6.022   3.216   4.143
   6.33715   5.97472   5.17427   0.00000   0.00000  -2.11239   0.00000  -2.11239  -2.98736
