Title t=  18.00000 step= 9000
44434
    1GLY      N    1   4.442   4.216   5.206
    1GLY    HT1    2   4.410   4.142   5.141
    1GLY    HT2    3   4.416   4.186   5.302
    1GLY    HT3    4   4.542   4.239   5.189
    1GLY     CA    5   4.355   4.335   5.150
    1GLY    HA1    6   4.374   4.336   5.044
    1GLY    HA2    7   4.385   4.425   5.200
    1GLY      C    8   4.209   4.307   5.154
    1GLY      O    9   4.177   4.186   5.145
    2PRO      N   10   4.118   4.401   5.170
    2PRO     CD   11   4.152   4.536   5.207
    2PRO    HD1   12   4.177   4.590   5.113
    2PRO    HD2   13   4.236   4.542   5.279
    2PRO     CA   14   3.975   4.383   5.153
    2PRO     HA   15   3.939   4.317   5.230
    2PRO     CB   16   3.928   4.531   5.170
    2PRO    HB1   17   3.819   4.524   5.195
    2PRO    HB2   18   3.938   4.579   5.070
    2PRO     CG   19   4.025   4.588   5.270
    2PRO    HG1   20   4.033   4.698   5.260
    2PRO    HG2   21   4.010   4.553   5.374
    2PRO      C   22   3.934   4.332   5.022
    2PRO      O   23   3.985   4.380   4.916
    3GLY      N   24   3.848   4.232   5.013
    3GLY     HN   25   3.808   4.194   5.096
    3GLY     CA   26   3.806   4.163   4.888
    3GLY    HA1   27   3.747   4.221   4.818
    3GLY    HA2   28   3.743   4.076   4.903
    3GLY      C   29   3.919   4.110   4.800
    3GLY      O   30   4.018   4.066   4.846
    4ASP      N   31   3.911   4.132   4.670
    4ASP     HN   32   3.829   4.169   4.627
    4ASP     CA   33   3.998   4.079   4.568
    4ASP     HA   34   4.003   3.972   4.582
    4ASP     CB   35   3.936   4.106   4.428
    4ASP    HB1   36   4.016   4.106   4.351
    4ASP    HB2   37   3.892   4.208   4.435
    4ASP     CG   38   3.835   3.999   4.397
    4ASP    OD1   39   3.855   3.879   4.412
    4ASP    OD2   40   3.727   4.032   4.342
    4ASP      C   41   4.140   4.133   4.574
    4ASP      O   42   4.158   4.253   4.585
    5PRO      N   43   4.243   4.047   4.566
    5PRO     CD   44   4.242   3.910   4.614
    5PRO    HD1   45   4.197   3.845   4.536
    5PRO    HD2   46   4.187   3.901   4.710
    5PRO     CA   47   4.384   4.083   4.536
    5PRO     HA   48   4.417   4.142   4.620
    5PRO     CB   49   4.456   3.947   4.526
    5PRO    HB1   50   4.565   3.943   4.547
    5PRO    HB2   51   4.438   3.897   4.429
    5PRO     CG   52   4.387   3.871   4.637
    5PRO    HG1   53   4.399   3.761   4.621
    5PRO    HG2   54   4.426   3.908   4.734
    5PRO      C   55   4.392   4.167   4.408
    5PRO      O   56   4.302   4.156   4.329
    6GLY      N   57   4.493   4.254   4.398
    6GLY     HN   58   4.564   4.262   4.467
    6GLY     CA   59   4.503   4.354   4.290
    6GLY    HA1   60   4.580   4.426   4.313
    6GLY    HA2   61   4.407   4.403   4.289
    6GLY      C   62   4.527   4.301   4.154
    6GLY      O   63   4.587   4.199   4.131
    7SER      N   64   4.463   4.360   4.051
    7SER     HN   65   4.412   4.446   4.056
    7SER     CA   66   4.453   4.309   3.914
    7SER     HA   67   4.409   4.210   3.922
    7SER     CB   68   4.358   4.401   3.833
    7SER    HB1   69   4.349   4.348   3.736
    7SER    HB2   70   4.402   4.503   3.828
    7SER     OG   71   4.237   4.418   3.903
    7SER    HG1   72   4.197   4.331   3.894
    7SER      C   73   4.587   4.302   3.849
    7SER      O   74   4.663   4.399   3.851
    8GLY      N   75   4.611   4.198   3.763
    8GLY     HN   76   4.550   4.120   3.772
    8GLY     CA   77   4.708   4.179   3.663
    8GLY    HA1   78   4.672   4.106   3.593
    8GLY    HA2   79   4.795   4.140   3.715
    8GLY      C   80   4.743   4.302   3.581
    8GLY      O   81   4.657   4.360   3.521
    9ASN      N   82   4.876   4.340   3.573
    9ASN     HN   83   4.941   4.276   3.615
    9ASN     CA   84   4.923   4.448   3.488
    9ASN     HA   85   4.849   4.527   3.483
    9ASN     CB   86   5.050   4.514   3.545
    9ASN    HB1   87   5.124   4.438   3.577
    9ASN    HB2   88   5.021   4.560   3.642
    9ASN     CG   89   5.117   4.611   3.454
    9ASN    OD1   90   5.201   4.580   3.372
    9ASN    ND2   91   5.071   4.739   3.456
    9ASN   HD21   92   5.119   4.799   3.391
    9ASN   HD22   93   4.989   4.772   3.504
    9ASN      C   94   4.949   4.396   3.342
    9ASN      O   95   5.029   4.303   3.329
   10PRO      N   96   4.900   4.455   3.229
   10PRO     CD   97   4.828   4.581   3.228
   10PRO    HD1   98   4.904   4.661   3.238
   10PRO    HD2   99   4.763   4.593   3.317
   10PRO     CA  100   4.897   4.392   3.097
   10PRO     HA  101   4.832   4.306   3.100
   10PRO     CB  102   4.840   4.496   3.005
   10PRO    HB1  103   4.778   4.435   2.935
   10PRO    HB2  104   4.920   4.551   2.953
   10PRO     CG  105   4.761   4.589   3.094
   10PRO    HG1  106   4.769   4.694   3.056
   10PRO    HG2  107   4.651   4.575   3.095
   10PRO      C  108   5.030   4.333   3.039
   10PRO      O  109   5.132   4.393   3.069
   11GLY      N  110   5.025   4.224   2.959
   11GLY     HN  111   4.941   4.183   2.924
   11GLY     CA  112   5.147   4.169   2.895
   11GLY    HA1  113   5.107   4.090   2.834
   11GLY    HA2  114   5.222   4.135   2.965
   11GLY      C  115   5.215   4.259   2.796
   11GLY      O  116   5.160   4.359   2.751
   12SER      N  117   5.345   4.226   2.767
   12SER     HN  118   5.379   4.136   2.792
   12SER     CA  119   5.426   4.298   2.671
   12SER     HA  120   5.421   4.398   2.710
   12SER     CB  121   5.573   4.268   2.653
   12SER    HB1  122   5.627   4.339   2.588
   12SER    HB2  123   5.591   4.168   2.609
   12SER     OG  124   5.649   4.281   2.774
   12SER    HG1  125   5.740   4.289   2.745
   12SER      C  126   5.368   4.304   2.530
   12SER      O  127   5.329   4.204   2.478
   13GLY      N  128   5.368   4.420   2.461
   13GLY     HN  129   5.381   4.505   2.512
   13GLY     CA  130   5.354   4.437   2.313
   13GLY    HA1  131   5.328   4.536   2.279
   13GLY    HA2  132   5.273   4.373   2.281
   13GLY      C  133   5.485   4.401   2.230
   13GLY      O  134   5.583   4.346   2.288
   14ASP      N  135   5.478   4.422   2.098
   14ASP     HN  136   5.405   4.459   2.042
   14ASP     CA  137   5.598   4.390   2.017
   14ASP     HA  138   5.616   4.283   2.022
   14ASP     CB  139   5.564   4.430   1.871
   14ASP    HB1  140   5.657   4.437   1.810
   14ASP    HB2  141   5.524   4.534   1.876
   14ASP     CG  142   5.468   4.336   1.801
   14ASP    OD1  143   5.450   4.222   1.849
   14ASP    OD2  144   5.414   4.378   1.693
   14ASP      C  145   5.728   4.452   2.073
   14ASP      O  146   5.738   4.570   2.095
   15PRO      N  147   5.836   4.379   2.072
   15PRO     CD  148   5.842   4.229   2.092
   15PRO    HD1  149   5.831   4.187   1.990
   15PRO    HD2  150   5.759   4.189   2.154
   15PRO     CA  151   5.965   4.443   2.084
   15PRO     HA  152   5.963   4.496   2.178
   15PRO     CB  153   6.060   4.322   2.081
   15PRO    HB1  154   6.164   4.348   2.113
   15PRO    HB2  155   6.071   4.295   1.974
   15PRO     CG  156   5.983   4.204   2.142
   15PRO    HG1  157   6.017   4.101   2.116
   15PRO    HG2  158   5.985   4.208   2.253
   15PRO      C  159   6.005   4.532   1.960
   15PRO    OT1  160   5.962   4.512   1.840
   15PRO    OT2  161   6.101   4.609   1.974
   16LIT    LIT  162   3.666   3.852   4.341
   17LIT    LIT  163   6.914   3.806   2.160
   18LIT    LIT  164   5.314   1.416   1.076
   19LIT    LIT  165   3.939   4.712   3.867
   20LIT    LIT  166   5.798   7.570   4.209
   21LIT    LIT  167   2.154   2.052   3.823
   22LIT    LIT  168   5.633   1.412   6.490
   23LIT    LIT  169   6.978   6.766   6.164
   24LIT    LIT  170   3.003   0.570   2.762
   25LIT    LIT  171   5.935   0.273   4.577
   26LIT    LIT  172   2.156   3.544   3.278
   27LIT    LIT  173   8.277   1.200   4.315
   28LIT    LIT  174   5.936   2.227   2.695
   29LIT    LIT  175   6.936   0.862   3.553
   30LIT    LIT  176   6.170   7.309   6.741
   31LIT    LIT  177   1.568   0.130   1.781
   32LIT    LIT  178   0.527   1.606   4.859
   33LIT    LIT  179   2.094   7.239   1.105
   34LIT    LIT  180   5.561   5.601   5.598
   35LIT    LIT  181   3.385   0.583   6.605
   36LIT    LIT  182   4.004   7.744   2.077
   37LIT    LIT  183   1.881   3.947   0.034
   38LIT    LIT  184   5.087   5.500   4.995
   39LIT    LIT  185   3.488   2.165   5.244
   40LIT    LIT  186   7.640   6.241   2.877
   41LIT    LIT  187   6.059   4.683   1.794
   42LIT    LIT  188   4.220   5.161   0.757
   43LIT    LIT  189   2.482   1.084   2.318
   44LIT    LIT  190   0.422   0.713   0.963
   45LIT    LIT  191   2.970   2.422   1.375
   46LIT    LIT  192   4.208   4.233   0.380
   47LIT    LIT  193   4.264   1.325   0.754
   48LIT    LIT  194   0.652   5.631   5.013
   49LIT    LIT  195   5.314   4.118   1.927
   50LIT    LIT  196   4.639   0.773   2.467
   51LIT    LIT  197   3.968   3.863   5.444
   52LIT    LIT  198   7.450   1.679   6.662
   53LIT    LIT  199   0.769   5.636   2.107
   54LIT    LIT  200   0.892   7.804   4.482
   55LIT    LIT  201   7.340   7.749   5.820
   56LIT    LIT  202   0.470   0.219   4.583
   57LIT    LIT  203   8.269   1.215   3.117
   58LIT    LIT  204   7.833   3.086   1.234
   59LIT    LIT  205   3.130   5.689   1.311
   60CLA    CLA  206   6.873   6.419   2.952
   61CLA    CLA  207   7.780   5.755   5.483
   62CLA    CLA  208   6.960   5.472   2.026
   63CLA    CLA  209   1.295   1.541   0.981
   64CLA    CLA  210   1.651   2.364   4.282
   65CLA    CLA  211   4.149   2.474   0.980
   66CLA    CLA  212   3.430   2.990   4.776
   67CLA    CLA  213   2.714   4.663   0.266
   68CLA    CLA  214   7.810   1.000   4.328
   69CLA    CLA  215   6.941   7.414   5.906
   70CLA    CLA  216   2.870   4.624   1.890
   71CLA    CLA  217   4.190   2.230   2.467
   72CLA    CLA  218   1.411   1.836   1.811
   73CLA    CLA  219   3.852   5.494   3.748
   74CLA    CLA  220   3.817   5.128   0.464
   75CLA    CLA  221   3.972   3.939   3.702
   76CLA    CLA  222   3.669   5.542   4.783
   77CLA    CLA  223   4.923   5.385   5.769
   78CLA    CLA  224   7.286   1.961   1.483
   79CLA    CLA  225   0.049   0.331   1.455
   80CLA    CLA  226   2.111   7.676   1.996
   81CLA    CLA  227   8.197   1.004   3.131
   82CLA    CLA  228   1.989   5.296   0.228
   83CLA    CLA  229   6.925   4.583   4.006
   84CLA    CLA  230   4.617   2.294   6.586
   85CLA    CLA  231   6.974   0.029   0.031
   86CLA    CLA  232   7.165   3.199   2.757
   87CLA    CLA  233   8.181   1.722   3.324
   88CLA    CLA  234   0.805   7.612   1.122
   89CLA    CLA  235   0.430   2.478   6.331
   90CLA    CLA  236   3.383   1.943   3.155
   91CLA    CLA  237   5.258   0.735   2.782
   92CLA    CLA  238   1.294   3.433   6.601
   93CLA    CLA  239   3.404   2.515   3.893
   94CLA    CLA  240   4.319   4.794   6.068
   95CLA    CLA  241   7.940   2.948   1.388
   96CLA    CLA  242   5.799   0.307   4.372
   97CLA    CLA  243   4.189   3.365   2.341
   98CLA    CLA  244   0.755   4.887   5.450
   99CLA    CLA  245   0.937   0.023   6.616
  100CLA    CLA  246   0.769   5.239   2.303
  101CLA    CLA  247   5.275   2.265   0.808
  102TIP3   OH2  248   3.213   2.986   1.713
  102TIP3    H1  249   3.179   3.029   1.792
  102TIP3    H2  250   3.156   2.910   1.701
  103TIP3   OH2  251   6.537   0.873   4.140
  103TIP3    H1  252   6.508   0.894   4.051
  103TIP3    H2  253   6.631   0.857   4.131
  104TIP3   OH2  254   6.687   1.929   6.779
  104TIP3    H1  255   6.767   1.885   6.752
  104TIP3    H2  256   6.655   1.973   6.699
  105TIP3   OH2  257   1.051   6.691   2.365
  105TIP3    H1  258   1.079   6.678   2.274
  105TIP3    H2  259   1.052   6.603   2.404
  106TIP3   OH2  260   5.424   1.050   0.249
  106TIP3    H1  261   5.445   1.000   0.170
  106TIP3    H2  262   5.333   1.026   0.269
  107TIP3   OH2  263   4.225   1.934   0.062
  107TIP3    H1  264   4.262   1.846   0.070
  107TIP3    H2  265   4.276   1.987   0.122
  108TIP3   OH2  266   1.584   6.278   5.141
  108TIP3    H1  267   1.612   6.227   5.065
  108TIP3    H2  268   1.497   6.243   5.162
  109TIP3   OH2  269   7.800   5.629   6.273
  109TIP3    H1  270   7.742   5.592   6.340
  109TIP3    H2  271   7.851   5.696   6.320
  110TIP3   OH2  272   6.289   2.451   2.563
  110TIP3    H1  273   6.239   2.477   2.486
  110TIP3    H2  274   6.291   2.355   2.558
  111TIP3   OH2  275   7.056   3.297   6.416
  111TIP3    H1  276   6.973   3.344   6.423
  111TIP3    H2  277   7.067   3.255   6.501
  112TIP3   OH2  278   0.770   5.426   4.055
  112TIP3    H1  279   0.855   5.467   4.072
  112TIP3    H2  280   0.764   5.356   4.120
  113TIP3   OH2  281   6.548   1.564   0.705
  113TIP3    H1  282   6.621   1.538   0.761
  113TIP3    H2  283   6.576   1.648   0.667
  114TIP3   OH2  284   7.169   2.074   3.823
  114TIP3    H1  285   7.239   2.056   3.886
  114TIP3    H2  286   7.097   2.017   3.851
  115TIP3   OH2  287   0.978   6.788   1.284
  115TIP3    H1  288   0.994   6.840   1.363
  115TIP3    H2  289   0.998   6.698   1.310
  116TIP3   OH2  290   3.384   3.668   1.948
  116TIP3    H1  291   3.448   3.626   2.006
  116TIP3    H2  292   3.374   3.607   1.875
  117TIP3   OH2  293   3.364   4.933   4.819
  117TIP3    H1  294   3.310   4.898   4.748
  117TIP3    H2  295   3.454   4.929   4.785
  118TIP3   OH2  296   1.456   3.680   1.005
  118TIP3    H1  297   1.431   3.622   0.933
  118TIP3    H2  298   1.489   3.759   0.962
  119TIP3   OH2  299   2.940   4.245   0.888
  119TIP3    H1  300   2.917   4.293   0.809
  119TIP3    H2  301   3.028   4.211   0.870
  120TIP3   OH2  302   2.429   2.767   5.348
  120TIP3    H1  303   2.441   2.794   5.440
  120TIP3    H2  304   2.355   2.820   5.318
  121TIP3   OH2  305   6.830   2.210   4.927
  121TIP3    H1  306   6.804   2.244   5.013
  121TIP3    H2  307   6.795   2.121   4.925
  122TIP3   OH2  308   0.642   5.978   1.758
  122TIP3    H1  309   0.601   5.892   1.775
  122TIP3    H2  310   0.611   6.001   1.670
  123TIP3   OH2  311   7.238   6.681   2.032
  123TIP3    H1  312   7.245   6.585   2.028
  123TIP3    H2  313   7.144   6.699   2.027
  124TIP3   OH2  314   0.815   6.478   2.509
  124TIP3    H1  315   0.724   6.459   2.488
  124TIP3    H2  316   0.865   6.415   2.456
  125TIP3   OH2  317   7.458   5.298   5.253
  125TIP3    H1  318   7.468   5.203   5.253
  125TIP3    H2  319   7.490   5.326   5.338
  126TIP3   OH2  320   0.045   6.834   5.099
  126TIP3    H1  321   0.065   6.776   5.173
  126TIP3    H2  322   0.081   6.919   5.124
  127TIP3   OH2  323   6.579   1.311   4.147
  127TIP3    H1  324   6.640   1.327   4.075
  127TIP3    H2  325   6.612   1.364   4.220
  128TIP3   OH2  326   3.838   7.385   2.228
  128TIP3    H1  327   3.834   7.481   2.231
  128TIP3    H2  328   3.863   7.359   2.316
  129TIP3   OH2  329   6.511   0.250   4.882
  129TIP3    H1  330   6.429   0.291   4.855
  129TIP3    H2  331   6.502   0.159   4.852
  130TIP3   OH2  332   7.419   1.439   0.831
  130TIP3    H1  333   7.420   1.408   0.740
  130TIP3    H2  334   7.504   1.480   0.843
  131TIP3   OH2  335   7.666   2.189   0.927
  131TIP3    H1  336   7.604   2.261   0.936
  131TIP3    H2  337   7.737   2.225   0.873
  132TIP3   OH2  338   1.776   5.592   5.692
  132TIP3    H1  339   1.692   5.630   5.665
  132TIP3    H2  340   1.833   5.604   5.617
  133TIP3   OH2  341   5.614   6.190   6.076
  133TIP3    H1  342   5.700   6.228   6.098
  133TIP3    H2  343   5.558   6.266   6.062
  134TIP3   OH2  344   6.387   3.424   3.886
  134TIP3    H1  345   6.375   3.392   3.796
  134TIP3    H2  346   6.309   3.392   3.932
  135TIP3   OH2  347   8.044   1.162   5.362
  135TIP3    H1  348   7.949   1.171   5.362
  135TIP3    H2  349   8.078   1.250   5.347
  136TIP3   OH2  350   3.992   6.142   3.619
  136TIP3    H1  351   4.060   6.078   3.642
  136TIP3    H2  352   3.981   6.194   3.699
  137TIP3   OH2  353   1.328   1.430   4.673
  137TIP3    H1  354   1.325   1.478   4.591
  137TIP3    H2  355   1.273   1.354   4.659
  138TIP3   OH2  356   5.871   0.019   4.917
  138TIP3    H1  357   5.875  -0.051   4.982
  138TIP3    H2  358   5.962   0.038   4.897
  139TIP3   OH2  359   5.256   4.994   5.376
  139TIP3    H1  360   5.197   5.003   5.451
  139TIP3    H2  361   5.304   4.913   5.392
  140TIP3   OH2  362   1.055   6.096   3.986
  140TIP3    H1  363   1.145   6.064   3.982
  140TIP3    H2  364   1.062   6.186   4.018
  141TIP3   OH2  365   4.366   7.289   1.104
  141TIP3    H1  366   4.443   7.263   1.053
  141TIP3    H2  367   4.341   7.375   1.069
  142TIP3   OH2  368   1.986   2.897   4.726
  142TIP3    H1  369   1.898   2.920   4.756
  142TIP3    H2  370   2.023   2.845   4.797
  143TIP3   OH2  371   5.771   1.900   2.213
  143TIP3    H1  372   5.782   1.810   2.181
  143TIP3    H2  373   5.852   1.945   2.187
  144TIP3   OH2  374   6.252   7.316   4.562
  144TIP3    H1  375   6.224   7.231   4.528
  144TIP3    H2  376   6.219   7.319   4.652
  145TIP3   OH2  377   3.827   4.682   0.786
  145TIP3    H1  378   3.768   4.660   0.715
  145TIP3    H2  379   3.836   4.777   0.783
  146TIP3   OH2  380   5.081   0.860   1.939
  146TIP3    H1  381   5.111   0.943   1.976
  146TIP3    H2  382   5.110   0.864   1.847
  147TIP3   OH2  383   3.706   0.502   3.162
  147TIP3    H1  384   3.777   0.565   3.150
  147TIP3    H2  385   3.746   0.429   3.209
  148TIP3   OH2  386   4.460   0.654   5.392
  148TIP3    H1  387   4.500   0.740   5.402
  148TIP3    H2  388   4.443   0.647   5.298
  149TIP3   OH2  389   1.512   1.089   5.614
  149TIP3    H1  390   1.454   1.014   5.630
  149TIP3    H2  391   1.600   1.052   5.614
  150TIP3   OH2  392   7.816   1.559   6.198
  150TIP3    H1  393   7.782   1.635   6.150
  150TIP3    H2  394   7.799   1.485   6.141
  151TIP3   OH2  395   5.580   6.249   2.256
  151TIP3    H1  396   5.671   6.219   2.252
  151TIP3    H2  397   5.572   6.312   2.185
  152TIP3   OH2  398   3.953   2.186   4.860
  152TIP3    H1  399   3.884   2.212   4.800
  152TIP3    H2  400   4.034   2.213   4.817
  153TIP3   OH2  401   8.293   4.384   2.207
  153TIP3    H1  402   8.295   4.456   2.270
  153TIP3    H2  403   8.218   4.331   2.234
  154TIP3   OH2  404   2.680   0.783   1.110
  154TIP3    H1  405   2.713   0.760   1.023
  154TIP3    H2  406   2.746   0.843   1.145
  155TIP3   OH2  407   4.710   0.287   1.680
  155TIP3    H1  408   4.793   0.310   1.721
  155TIP3    H2  409   4.644   0.308   1.747
  156TIP3   OH2  410   3.618   2.946   0.306
  156TIP3    H1  411   3.661   2.872   0.350
  156TIP3    H2  412   3.525   2.925   0.309
  157TIP3   OH2  413   7.634   6.013   0.892
  157TIP3    H1  414   7.622   6.066   0.814
  157TIP3    H2  415   7.615   6.072   0.965
  158TIP3   OH2  416   3.506   5.525   5.051
  158TIP3    H1  417   3.557   5.572   4.985
  158TIP3    H2  418   3.419   5.516   5.011
  159TIP3   OH2  419   0.115   4.287   4.257
  159TIP3    H1  420   0.148   4.313   4.171
  159TIP3    H2  421   0.181   4.318   4.318
  160TIP3   OH2  422   2.808   3.016   2.041
  160TIP3    H1  423   2.848   3.099   2.015
  160TIP3    H2  424   2.714   3.034   2.040
  161TIP3   OH2  425   0.783   6.583   6.248
  161TIP3    H1  426   0.731   6.641   6.304
  161TIP3    H2  427   0.837   6.642   6.196
  162TIP3   OH2  428   0.161   5.399   4.103
  162TIP3    H1  429   0.108   5.462   4.154
  162TIP3    H2  430   0.218   5.359   4.168
  163TIP3   OH2  431   4.068   2.354   1.920
  163TIP3    H1  432   3.981   2.382   1.947
  163TIP3    H2  433   4.125   2.381   1.992
  164TIP3   OH2  434   3.580   6.075   0.876
  164TIP3    H1  435   3.537   6.148   0.831
  164TIP3    H2  436   3.559   5.998   0.823
  165TIP3   OH2  437   4.461   1.293   1.534
  165TIP3    H1  438   4.478   1.340   1.616
  165TIP3    H2  439   4.386   1.237   1.554
  166TIP3   OH2  440   2.045   6.485   0.178
  166TIP3    H1  441   2.095   6.462   0.256
  166TIP3    H2  442   1.957   6.504   0.209
  167TIP3   OH2  443   0.688   0.006   1.581
  167TIP3    H1  444   0.701   0.054   1.662
  167TIP3    H2  445   0.642   0.067   1.523
  168TIP3   OH2  446   4.652   1.152   3.370
  168TIP3    H1  447   4.618   1.071   3.409
  168TIP3    H2  448   4.741   1.159   3.404
  169TIP3   OH2  449   3.898   7.222   6.274
  169TIP3    H1  450   3.839   7.147   6.286
  169TIP3    H2  451   3.941   7.231   6.359
  170TIP3   OH2  452   5.603   0.670   0.766
  170TIP3    H1  453   5.659   0.738   0.803
  170TIP3    H2  454   5.628   0.590   0.812
  171TIP3   OH2  455   7.461   5.087   0.723
  171TIP3    H1  456   7.382   5.127   0.760
  171TIP3    H2  457   7.435   4.997   0.706
  172TIP3   OH2  458   2.025   3.204   0.712
  172TIP3    H1  459   1.941   3.170   0.682
  172TIP3    H2  460   2.063   3.133   0.763
  173TIP3   OH2  461   1.597   1.263   2.250
  173TIP3    H1  462   1.542   1.271   2.328
  173TIP3    H2  463   1.658   1.191   2.271
  174TIP3   OH2  464   4.118   1.404   4.433
  174TIP3    H1  465   4.102   1.360   4.517
  174TIP3    H2  466   4.034   1.400   4.388
  175TIP3   OH2  467   4.197   0.917   5.129
  175TIP3    H1  468   4.269   0.912   5.067
  175TIP3    H2  469   4.128   0.862   5.091
  176TIP3   OH2  470   2.797   1.526   5.186
  176TIP3    H1  471   2.794   1.560   5.097
  176TIP3    H2  472   2.733   1.455   5.186
  177TIP3   OH2  473   4.036   7.569   4.018
  177TIP3    H1  474   4.089   7.492   4.042
  177TIP3    H2  475   3.971   7.535   3.957
  178TIP3   OH2  476   7.405   4.413   5.481
  178TIP3    H1  477   7.378   4.358   5.554
  178TIP3    H2  478   7.397   4.357   5.404
  179TIP3   OH2  479   3.389   5.630   3.201
  179TIP3    H1  480   3.366   5.633   3.294
  179TIP3    H2  481   3.354   5.712   3.165
  180TIP3   OH2  482   4.463   3.670   4.333
  180TIP3    H1  483   4.397   3.613   4.374
  180TIP3    H2  484   4.414   3.724   4.271
  181TIP3   OH2  485   2.487   4.874   3.255
  181TIP3    H1  486   2.497   4.969   3.247
  181TIP3    H2  487   2.572   4.839   3.229
  182TIP3   OH2  488   8.033   3.458   4.854
  182TIP3    H1  489   8.065   3.372   4.826
  182TIP3    H2  490   8.096   3.520   4.818
  183TIP3   OH2  491   6.408   3.846   3.737
  183TIP3    H1  492   6.352   3.923   3.749
  183TIP3    H2  493   6.350   3.772   3.752
  184TIP3   OH2  494   4.973   1.814   3.954
  184TIP3    H1  495   5.027   1.747   3.995
  184TIP3    H2  496   4.952   1.779   3.868
  185TIP3   OH2  497   4.435   6.093   6.209
  185TIP3    H1  498   4.358   6.036   6.209
  185TIP3    H2  499   4.506   6.036   6.237
  186TIP3   OH2  500   2.407   2.581   3.109
  186TIP3    H1  501   2.384   2.671   3.132
  186TIP3    H2  502   2.395   2.577   3.014
  187TIP3   OH2  503   0.069   5.446   2.015
  187TIP3    H1  504   0.006   5.482   1.951
  187TIP3    H2  505   0.020   5.444   2.097
  188TIP3   OH2  506   5.278   1.342   6.370
  188TIP3    H1  507   5.191   1.324   6.335
  188TIP3    H2  508   5.336   1.338   6.294
  189TIP3   OH2  509   3.938   1.557   0.449
  189TIP3    H1  510   3.983   1.616   0.389
  189TIP3    H2  511   3.880   1.613   0.500
  190TIP3   OH2  512   0.706   6.724   2.515
  190TIP3    H1  513   0.758   6.644   2.508
  190TIP3    H2  514   0.660   6.715   2.599
  191TIP3   OH2  515   1.580   1.741   4.830
  191TIP3    H1  516   1.550   1.699   4.910
  191TIP3    H2  517   1.508   1.729   4.768
  192TIP3   OH2  518   6.814   1.785   0.862
  192TIP3    H1  519   6.740   1.829   0.819
  192TIP3    H2  520   6.848   1.725   0.796
  193TIP3   OH2  521   8.280   6.475   5.929
  193TIP3    H1  522   8.285   6.516   5.843
  193TIP3    H2  523   8.318   6.539   5.989
  194TIP3   OH2  524   7.487   6.798   1.176
  194TIP3    H1  525   7.480   6.754   1.261
  194TIP3    H2  526   7.408   6.853   1.171
  195TIP3   OH2  527   7.418   7.397   4.723
  195TIP3    H1  528   7.461   7.442   4.650
  195TIP3    H2  529   7.339   7.448   4.739
  196TIP3   OH2  530   6.428   6.414   4.862
  196TIP3    H1  531   6.374   6.489   4.888
  196TIP3    H2  532   6.424   6.413   4.767
  197TIP3   OH2  533   6.193   5.504   1.650
  197TIP3    H1  534   6.239   5.565   1.594
  197TIP3    H2  535   6.217   5.418   1.618
  198TIP3   OH2  536   5.805   5.510   2.769
  198TIP3    H1  537   5.773   5.571   2.836
  198TIP3    H2  538   5.876   5.557   2.726
  199TIP3   OH2  539   0.919   6.728   2.853
  199TIP3    H1  540   0.954   6.737   2.941
  199TIP3    H2  541   0.828   6.703   2.865
  200TIP3   OH2  542   3.612   0.467   6.300
  200TIP3    H1  543   3.578   0.489   6.213
  200TIP3    H2  544   3.585   0.377   6.316
  201TIP3   OH2  545   0.896   6.779   3.296
  201TIP3    H1  546   0.861   6.691   3.310
  201TIP3    H2  547   0.825   6.838   3.322
  202TIP3   OH2  548   7.136   4.074   4.575
  202TIP3    H1  549   7.192   4.095   4.500
  202TIP3    H2  550   7.195   4.082   4.651
  203TIP3   OH2  551   7.720   0.560   4.322
  203TIP3    H1  552   7.710   0.467   4.340
  203TIP3    H2  553   7.637   0.587   4.283
  204TIP3   OH2  554   3.945   0.690   1.019
  204TIP3    H1  555   3.945   0.766   1.077
  204TIP3    H2  556   4.022   0.640   1.047
  205TIP3   OH2  557   4.062   3.205   3.480
  205TIP3    H1  558   4.019   3.122   3.461
  205TIP3    H2  559   4.022   3.235   3.562
  206TIP3   OH2  560   2.217   5.294   0.005
  206TIP3    H1  561   2.168   5.273   0.084
  206TIP3    H2  562   2.296   5.338   0.037
  207TIP3   OH2  563   4.963   1.485   5.559
  207TIP3    H1  564   4.906   1.547   5.604
  207TIP3    H2  565   4.936   1.399   5.592
  208TIP3   OH2  566   3.431   0.695   2.211
  208TIP3    H1  567   3.497   0.629   2.233
  208TIP3    H2  568   3.415   0.741   2.294
  209TIP3   OH2  569   3.611   5.721   5.228
  209TIP3    H1  570   3.558   5.650   5.191
  209TIP3    H2  571   3.687   5.725   5.170
  210TIP3   OH2  572   4.673   0.917   6.014
  210TIP3    H1  573   4.652   0.900   6.106
  210TIP3    H2  574   4.589   0.915   5.969
  211TIP3   OH2  575   2.289   2.140   4.293
  211TIP3    H1  576   2.195   2.158   4.287
  211TIP3    H2  577   2.298   2.086   4.372
  212TIP3   OH2  578   2.954   3.763   0.985
  212TIP3    H1  579   2.910   3.836   0.942
  212TIP3    H2  580   3.002   3.719   0.915
  213TIP3   OH2  581   7.714   1.148   2.961
  213TIP3    H1  582   7.805   1.130   2.937
  213TIP3    H2  583   7.716   1.157   3.057
  214TIP3   OH2  584   2.550   0.344   6.043
  214TIP3    H1  585   2.644   0.327   6.048
  214TIP3    H2  586   2.541   0.407   5.972
  215TIP3   OH2  587   5.699   7.186   6.046
  215TIP3    H1  588   5.726   7.233   6.125
  215TIP3    H2  589   5.714   7.249   5.975
  216TIP3   OH2  590   5.882   7.853   5.486
  216TIP3    H1  591   5.976   7.848   5.507
  216TIP3    H2  592   5.857   7.762   5.472
  217TIP3   OH2  593   6.807   5.118   5.276
  217TIP3    H1  594   6.858   5.189   5.238
  217TIP3    H2  595   6.739   5.162   5.327
  218TIP3   OH2  596   6.737   1.919   2.894
  218TIP3    H1  597   6.830   1.907   2.915
  218TIP3    H2  598   6.733   2.004   2.849
  219TIP3   OH2  599   1.514   6.750   4.112
  219TIP3    H1  600   1.608   6.752   4.128
  219TIP3    H2  601   1.502   6.677   4.051
  220TIP3   OH2  602   3.382   1.716   1.258
  220TIP3    H1  603   3.398   1.798   1.212
  220TIP3    H2  604   3.305   1.678   1.215
  221TIP3   OH2  605   6.063   2.419   4.477
  221TIP3    H1  606   6.135   2.413   4.413
  221TIP3    H2  607   6.059   2.512   4.499
  222TIP3   OH2  608   3.566   2.488   3.622
  222TIP3    H1  609   3.629   2.549   3.661
  222TIP3    H2  610   3.507   2.466   3.694
  223TIP3   OH2  611   1.427   0.753   1.307
  223TIP3    H1  612   1.360   0.807   1.349
  223TIP3    H2  613   1.391   0.732   1.221
  224TIP3   OH2  614   2.471   2.437   4.121
  224TIP3    H1  615   2.382   2.434   4.086
  224TIP3    H2  616   2.460   2.411   4.213
  225TIP3   OH2  617   6.538   0.911   0.231
  225TIP3    H1  618   6.464   0.851   0.223
  225TIP3    H2  619   6.577   0.913   0.143
  226TIP3   OH2  620   4.124   3.215   4.300
  226TIP3    H1  621   4.112   3.246   4.390
  226TIP3    H2  622   4.090   3.126   4.300
  227TIP3   OH2  623   8.145   6.640   0.491
  227TIP3    H1  624   8.066   6.602   0.529
  227TIP3    H2  625   8.192   6.566   0.454
  228TIP3   OH2  626   6.852   0.420   5.045
  228TIP3    H1  627   6.795   0.395   4.972
  228TIP3    H2  628   6.938   0.430   5.007
  229TIP3   OH2  629   6.376   1.524   4.654
  229TIP3    H1  630   6.282   1.532   4.671
  229TIP3    H2  631   6.382   1.485   4.567
  230TIP3   OH2  632   3.050   4.143   5.104
  230TIP3    H1  633   3.085   4.089   5.174
  230TIP3    H2  634   2.967   4.102   5.081
  231TIP3   OH2  635   4.791   0.753   1.918
  231TIP3    H1  636   4.795   0.675   1.973
  231TIP3    H2  637   4.881   0.785   1.914
  232TIP3   OH2  638   2.779   6.173   6.087
  232TIP3    H1  639   2.699   6.220   6.110
  232TIP3    H2  640   2.839   6.242   6.059
  233TIP3   OH2  641   8.060   4.917   4.792
  233TIP3    H1  642   8.089   4.843   4.845
  233TIP3    H2  643   8.025   4.877   4.712
  234TIP3   OH2  644   7.264   6.375   0.038
  234TIP3    H1  645   7.336   6.412   0.089
  234TIP3    H2  646   7.306   6.343  -0.042
  235TIP3   OH2  647   6.710   6.824   0.869
  235TIP3    H1  648   6.747   6.793   0.952
  235TIP3    H2  649   6.759   6.903   0.849
  236TIP3   OH2  650   5.848   0.057   5.907
  236TIP3    H1  651   5.933   0.029   5.941
  236TIP3    H2  652   5.869   0.130   5.849
  237TIP3   OH2  653   1.573   3.192   5.159
  237TIP3    H1  654   1.527   3.143   5.091
  237TIP3    H2  655   1.628   3.254   5.112
  238TIP3   OH2  656   7.781   0.306   1.971
  238TIP3    H1  657   7.789   0.349   1.885
  238TIP3    H2  658   7.801   0.375   2.034
  239TIP3   OH2  659   4.613   5.979   0.994
  239TIP3    H1  660   4.696   5.977   1.040
  239TIP3    H2  661   4.547   5.977   1.063
  240TIP3   OH2  662   4.391   3.172   5.716
  240TIP3    H1  663   4.397   3.240   5.784
  240TIP3    H2  664   4.432   3.095   5.756
  241TIP3   OH2  665   0.159   2.361   1.346
  241TIP3    H1  666   0.169   2.275   1.387
  241TIP3    H2  667   0.177   2.423   1.417
  242TIP3   OH2  668   8.254   3.302   2.001
  242TIP3    H1  669   8.273   3.210   1.987
  242TIP3    H2  670   8.236   3.337   1.914
  243TIP3   OH2  671   1.677   0.470   2.356
  243TIP3    H1  672   1.717   0.406   2.298
  243TIP3    H2  673   1.583   0.459   2.343
  244TIP3   OH2  674   4.746   6.259   5.463
  244TIP3    H1  675   4.764   6.186   5.404
  244TIP3    H2  676   4.777   6.336   5.415
  245TIP3   OH2  677   8.168   6.666   3.497
  245TIP3    H1  678   8.175   6.749   3.543
  245TIP3    H2  679   8.124   6.688   3.414
  246TIP3   OH2  680   1.662   0.356   4.393
  246TIP3    H1  681   1.638   0.444   4.423
  246TIP3    H2  682   1.584   0.303   4.410
  247TIP3   OH2  683   1.046   0.401   4.949
  247TIP3    H1  684   1.106   0.377   5.020
  247TIP3    H2  685   1.005   0.482   4.979
  248TIP3   OH2  686   2.339   4.515   4.157
  248TIP3    H1  687   2.413   4.538   4.213
  248TIP3    H2  688   2.340   4.420   4.154
  249TIP3   OH2  689   0.600   3.954   6.597
  249TIP3    H1  690   0.601   3.945   6.502
  249TIP3    H2  691   0.692   3.950   6.623
  250TIP3   OH2  692   0.672   6.245   3.479
  250TIP3    H1  693   0.683   6.150   3.483
  250TIP3    H2  694   0.747   6.280   3.527
  251TIP3   OH2  695   4.157   2.040   0.823
  251TIP3    H1  696   4.227   2.083   0.871
  251TIP3    H2  697   4.091   2.019   0.889
  252TIP3   OH2  698   0.949   7.350   1.063
  252TIP3    H1  699   0.894   7.337   0.986
  252TIP3    H2  700   0.925   7.436   1.096
  253TIP3   OH2  701   6.422   2.075   2.064
  253TIP3    H1  702   6.464   1.989   2.056
  253TIP3    H2  703   6.363   2.080   1.989
  254TIP3   OH2  704   7.330   6.634   2.975
  254TIP3    H1  705   7.343   6.618   2.881
  254TIP3    H2  706   7.293   6.723   2.978
  255TIP3   OH2  707   0.227   5.831   4.307
  255TIP3    H1  708   0.208   5.848   4.215
  255TIP3    H2  709   0.258   5.741   4.310
  256TIP3   OH2  710   7.162   0.878   4.156
  256TIP3    H1  711   7.098   0.944   4.126
  256TIP3    H2  712   7.245   0.908   4.120
  257TIP3   OH2  713   3.766   2.090   5.446
  257TIP3    H1  714   3.795   2.004   5.477
  257TIP3    H2  715   3.816   2.104   5.366
  258TIP3   OH2  716   3.185   4.712   2.398
  258TIP3    H1  717   3.238   4.722   2.319
  258TIP3    H2  718   3.233   4.647   2.451
  259TIP3   OH2  719   4.667   4.386   0.368
  259TIP3    H1  720   4.749   4.434   0.379
  259TIP3    H2  721   4.687   4.297   0.396
  260TIP3   OH2  722   1.889   1.054   1.567
  260TIP3    H1  723   1.898   1.149   1.575
  260TIP3    H2  724   1.805   1.034   1.607
  261TIP3   OH2  725   7.649   0.880   0.495
  261TIP3    H1  726   7.639   0.925   0.412
  261TIP3    H2  727   7.734   0.909   0.528
  262TIP3   OH2  728   2.221   6.887   0.661
  262TIP3    H1  729   2.259   6.922   0.580
  262TIP3    H2  730   2.209   6.794   0.643
  263TIP3   OH2  731   4.231   5.859   4.819
  263TIP3    H1  732   4.143   5.896   4.810
  263TIP3    H2  733   4.216   5.770   4.852
  264TIP3   OH2  734   4.927   2.424   4.298
  264TIP3    H1  735   5.022   2.431   4.300
  264TIP3    H2  736   4.908   2.377   4.217
  265TIP3   OH2  737   2.558   1.937   3.756
  265TIP3    H1  738   2.489   1.891   3.709
  265TIP3    H2  739   2.626   1.952   3.690
  266TIP3   OH2  740   6.124   0.986   2.443
  266TIP3    H1  741   6.034   0.951   2.440
  266TIP3    H2  742   6.173   0.931   2.382
  267TIP3   OH2  743   8.239   3.846   4.270
  267TIP3    H1  744   8.265   3.779   4.207
  267TIP3    H2  745   8.167   3.892   4.226
  268TIP3   OH2  746   0.535   6.592   5.318
  268TIP3    H1  747   0.479   6.519   5.345
  268TIP3    H2  748   0.560   6.570   5.228
  269TIP3   OH2  749   5.639   4.024   1.794
  269TIP3    H1  750   5.653   4.030   1.699
  269TIP3    H2  751   5.593   4.105   1.817
  270TIP3   OH2  752   5.072   1.979   0.101
  270TIP3    H1  753   5.083   1.917   0.173
  270TIP3    H2  754   5.160   2.008   0.079
  271TIP3   OH2  755   5.377   3.266   4.203
  271TIP3    H1  756   5.402   3.224   4.121
  271TIP3    H2  757   5.294   3.311   4.183
  272TIP3   OH2  758   4.556   0.376   5.745
  272TIP3    H1  759   4.498   0.420   5.683
  272TIP3    H2  760   4.537   0.417   5.829
  273TIP3   OH2  761   3.613   1.593   1.846
  273TIP3    H1  762   3.665   1.546   1.910
  273TIP3    H2  763   3.603   1.681   1.882
  274TIP3   OH2  764   1.838   5.268   0.529
  274TIP3    H1  765   1.872   5.256   0.440
  274TIP3    H2  766   1.913   5.249   0.586
  275TIP3   OH2  767   2.777   2.866   4.958
  275TIP3    H1  768   2.844   2.802   4.934
  275TIP3    H2  769   2.726   2.879   4.878
  276TIP3   OH2  770   3.876   0.346  -0.011
  276TIP3    H1  771   3.937   0.361   0.061
  276TIP3    H2  772   3.832   0.430  -0.023
  277TIP3   OH2  773   1.421   0.044   5.665
  277TIP3    H1  774   1.416   0.133   5.630
  277TIP3    H2  775   1.334   0.007   5.651
  278TIP3   OH2  776   1.667   4.672   6.361
  278TIP3    H1  777   1.665   4.717   6.276
  278TIP3    H2  778   1.635   4.584   6.342
  279TIP3   OH2  779   1.904   0.863   2.984
  279TIP3    H1  780   1.819   0.900   3.006
  279TIP3    H2  781   1.919   0.795   3.049
  280TIP3   OH2  782   2.499   0.986   5.393
  280TIP3    H1  783   2.417   0.981   5.442
  280TIP3    H2  784   2.564   1.013   5.458
  281TIP3   OH2  785   4.209   5.714   0.625
  281TIP3    H1  786   4.121   5.752   0.614
  281TIP3    H2  787   4.193   5.627   0.662
  282TIP3   OH2  788   4.581   0.473   2.252
  282TIP3    H1  789   4.526   0.435   2.183
  282TIP3    H2  790   4.658   0.415   2.255
  283TIP3   OH2  791   6.879   1.584   0.665
  283TIP3    H1  792   6.954   1.561   0.610
  283TIP3    H2  793   6.872   1.512   0.728
  284TIP3   OH2  794   7.979   6.299   2.185
  284TIP3    H1  795   7.970   6.385   2.225
  284TIP3    H2  796   7.922   6.302   2.108
  285TIP3   OH2  797   2.675   3.576   0.362
  285TIP3    H1  798   2.629   3.544   0.440
  285TIP3    H2  799   2.700   3.666   0.384
  286TIP3   OH2  800   6.412   6.846   2.224
  286TIP3    H1  801   6.387   6.938   2.216
  286TIP3    H2  802   6.469   6.830   2.149
  287TIP3   OH2  803   5.697   2.101   5.054
  287TIP3    H1  804   5.705   2.066   4.966
  287TIP3    H2  805   5.613   2.148   5.053
  288TIP3   OH2  806   6.937   6.034   4.206
  288TIP3    H1  807   6.991   6.050   4.128
  288TIP3    H2  808   6.922   6.121   4.243
  289TIP3   OH2  809   3.443   5.599   2.171
  289TIP3    H1  810   3.528   5.641   2.187
  289TIP3    H2  811   3.428   5.611   2.077
  290TIP3   OH2  812   5.725   5.868   3.462
  290TIP3    H1  813   5.743   5.962   3.457
  290TIP3    H2  814   5.807   5.830   3.496
  291TIP3   OH2  815   5.996   5.139   0.390
  291TIP3    H1  816   5.940   5.214   0.410
  291TIP3    H2  817   5.952   5.095   0.317
  292TIP3   OH2  818   3.098   7.758   2.383
  292TIP3    H1  819   3.131   7.736   2.296
  292TIP3    H2  820   3.145   7.838   2.407
  293TIP3   OH2  821   0.744   6.081   2.556
  293TIP3    H1  822   0.782   6.168   2.559
  293TIP3    H2  823   0.785   6.039   2.480
  294TIP3   OH2  824   5.957   1.305   6.117
  294TIP3    H1  825   5.932   1.287   6.208
  294TIP3    H2  826   5.875   1.320   6.071
  295TIP3   OH2  827   6.648   7.110   4.245
  295TIP3    H1  828   6.645   7.029   4.297
  295TIP3    H2  829   6.557   7.137   4.239
  296TIP3   OH2  830   5.908   0.062   5.556
  296TIP3    H1  831   5.962   0.120   5.610
  296TIP3    H2  832   5.962   0.045   5.478
  297TIP3   OH2  833   5.867   4.148   6.596
  297TIP3    H1  834   5.815   4.216   6.639
  297TIP3    H2  835   5.939   4.131   6.657
  298TIP3   OH2  836   2.955   4.339   0.257
  298TIP3    H1  837   2.866   4.352   0.226
  298TIP3    H2  838   2.955   4.253   0.297
  299TIP3   OH2  839   1.889   3.870   1.819
  299TIP3    H1  840   1.890   3.964   1.837
  299TIP3    H2  841   1.814   3.837   1.867
  300TIP3   OH2  842   6.115  -0.017   3.683
  300TIP3    H1  843   6.205  -0.048   3.676
  300TIP3    H2  844   6.096   0.020   3.596
  301TIP3   OH2  845   6.670   3.844   3.534
  301TIP3    H1  846   6.662   3.851   3.629
  301TIP3    H2  847   6.719   3.921   3.508
  302TIP3   OH2  848   5.244   0.660   3.615
  302TIP3    H1  849   5.266   0.596   3.547
  302TIP3    H2  850   5.148   0.665   3.612
  303TIP3   OH2  851   5.988   6.257   5.258
  303TIP3    H1  852   6.083   6.262   5.259
  303TIP3    H2  853   5.967   6.214   5.175
  304TIP3   OH2  854   4.527   3.878   0.722
  304TIP3    H1  855   4.479   3.800   0.749
  304TIP3    H2  856   4.533   3.931   0.801
  305TIP3   OH2  857   7.868   3.396   2.747
  305TIP3    H1  858   7.870   3.322   2.686
  305TIP3    H2  859   7.852   3.472   2.691
  306TIP3   OH2  860   3.964   7.744   0.239
  306TIP3    H1  861   3.960   7.651   0.218
  306TIP3    H2  862   4.050   7.772   0.208
  307TIP3   OH2  863   4.969   2.469   3.918
  307TIP3    H1  864   5.024   2.454   3.841
  307TIP3    H2  865   4.882   2.484   3.882
  308TIP3   OH2  866   6.540   3.989   6.382
  308TIP3    H1  867   6.584   3.961   6.302
  308TIP3    H2  868   6.602   3.969   6.452
  309TIP3   OH2  869   6.372   1.699   3.552
  309TIP3    H1  870   6.371   1.686   3.458
  309TIP3    H2  871   6.342   1.789   3.564
  310TIP3   OH2  872   6.372   7.055   1.562
  310TIP3    H1  873   6.352   6.994   1.491
  310TIP3    H2  874   6.383   7.140   1.519
  311TIP3   OH2  875   8.188   0.120   0.699
  311TIP3    H1  876   8.264   0.093   0.750
  311TIP3    H2  877   8.114   0.107   0.758
  312TIP3   OH2  878   4.640   7.651   0.548
  312TIP3    H1  879   4.556   7.646   0.504
  312TIP3    H2  880   4.667   7.559   0.558
  313TIP3   OH2  881   7.005   7.324   6.668
  313TIP3    H1  882   7.063   7.400   6.664
  313TIP3    H2  883   6.929   7.350   6.617
  314TIP3   OH2  884   8.141   6.040   0.424
  314TIP3    H1  885   8.076   6.109   0.413
  314TIP3    H2  886   8.095   5.970   0.468
  315TIP3   OH2  887   3.480   4.794   0.251
  315TIP3    H1  888   3.400   4.758   0.288
  315TIP3    H2  889   3.484   4.883   0.285
  316TIP3   OH2  890   5.386   0.350   2.164
  316TIP3    H1  891   5.377   0.258   2.140
  316TIP3    H2  892   5.463   0.380   2.118
  317TIP3   OH2  893   7.552   7.235   0.330
  317TIP3    H1  894   7.613   7.227   0.257
  317TIP3    H2  895   7.599   7.199   0.405
  318TIP3   OH2  896   1.204   0.863   4.385
  318TIP3    H1  897   1.191   0.768   4.380
  318TIP3    H2  898   1.280   0.873   4.443
  319TIP3   OH2  899   0.257   4.429   6.097
  319TIP3    H1  900   0.167   4.419   6.065
  319TIP3    H2  901   0.267   4.523   6.112
  320TIP3   OH2  902   2.385   2.116   1.572
  320TIP3    H1  903   2.382   2.138   1.665
  320TIP3    H2  904   2.411   2.024   1.570
  321TIP3   OH2  905   7.845   4.173   2.062
  321TIP3    H1  906   7.832   4.227   1.985
  321TIP3    H2  907   7.757   4.160   2.098
  322TIP3   OH2  908   4.473   1.194   4.978
  322TIP3    H1  909   4.420   1.214   4.901
  322TIP3    H2  910   4.463   1.100   4.990
  323TIP3   OH2  911   5.005   4.929   1.790
  323TIP3    H1  912   4.922   4.968   1.763
  323TIP3    H2  913   5.072   4.983   1.747
  324TIP3   OH2  914   1.959   2.124   0.579
  324TIP3    H1  915   1.995   2.123   0.490
  324TIP3    H2  916   1.892   2.192   0.577
  325TIP3   OH2  917   1.327   6.282   6.013
  325TIP3    H1  918   1.416   6.316   6.024
  325TIP3    H2  919   1.277   6.356   5.979
  326TIP3   OH2  920   5.921   2.447   2.203
  326TIP3    H1  921   5.910   2.539   2.227
  326TIP3    H2  922   5.845   2.404   2.242
  327TIP3   OH2  923   7.255   0.609   2.596
  327TIP3    H1  924   7.262   0.699   2.627
  327TIP3    H2  925   7.303   0.608   2.513
  328TIP3   OH2  926   0.494   0.594   2.325
  328TIP3    H1  927   0.562   0.538   2.288
  328TIP3    H2  928   0.541   0.669   2.360
  329TIP3   OH2  929   0.136   2.981   5.966
  329TIP3    H1  930   0.054   2.975   5.916
  329TIP3    H2  931   0.116   3.042   6.037
  330TIP3   OH2  932   5.859   3.482   3.095
  330TIP3    H1  933   5.946   3.463   3.060
  330TIP3    H2  934   5.869   3.564   3.143
  331TIP3   OH2  935   0.749   5.481   5.093
  331TIP3    H1  936   0.711   5.402   5.130
  331TIP3    H2  937   0.841   5.479   5.121
  332TIP3   OH2  938   8.064   5.765   1.885
  332TIP3    H1  939   8.066   5.851   1.843
  332TIP3    H2  940   8.024   5.782   1.971
  333TIP3   OH2  941   0.320   6.690   2.149
  333TIP3    H1  942   0.225   6.706   2.152
  333TIP3    H2  943   0.328   6.596   2.167
  334TIP3   OH2  944   1.035   7.570   3.892
  334TIP3    H1  945   0.995   7.551   3.807
  334TIP3    H2  946   1.115   7.518   3.893
  335TIP3   OH2  947   0.176   5.889   3.504
  335TIP3    H1  948   0.219   5.951   3.445
  335TIP3    H2  949   0.142   5.821   3.447
  336TIP3   OH2  950   6.023   2.004   6.223
  336TIP3    H1  951   5.978   2.072   6.275
  336TIP3    H2  952   5.965   1.990   6.148
  337TIP3   OH2  953   0.636   4.019   0.749
  337TIP3    H1  954   0.715   4.015   0.695
  337TIP3    H2  955   0.652   4.093   0.807
  338TIP3   OH2  956   0.495   6.409   2.775
  338TIP3    H1  957   0.522   6.399   2.684
  338TIP3    H2  958   0.401   6.422   2.771
  339TIP3   OH2  959   4.546   7.256   1.727
  339TIP3    H1  960   4.489   7.329   1.703
  339TIP3    H2  961   4.634   7.295   1.732
  340TIP3   OH2  962   5.978   3.659   5.276
  340TIP3    H1  963   6.027   3.687   5.354
  340TIP3    H2  964   5.893   3.701   5.286
  341TIP3   OH2  965   2.353   1.450   1.781
  341TIP3    H1  966   2.381   1.413   1.697
  341TIP3    H2  967   2.414   1.522   1.797
  342TIP3   OH2  968   4.928   2.447   1.735
  342TIP3    H1  969   4.841   2.408   1.731
  342TIP3    H2  970   4.958   2.427   1.824
  343TIP3   OH2  971   3.587   7.416   6.580
  343TIP3    H1  972   3.654   7.478   6.611
  343TIP3    H2  973   3.566   7.364   6.657
  344TIP3   OH2  974   3.923   3.236   3.011
  344TIP3    H1  975   3.990   3.177   2.975
  344TIP3    H2  976   3.876   3.268   2.934
  345TIP3   OH2  977   7.747   0.968   5.589
  345TIP3    H1  978   7.714   1.021   5.661
  345TIP3    H2  979   7.690   0.989   5.515
  346TIP3   OH2  980   6.313   5.403   0.547
  346TIP3    H1  981   6.402   5.417   0.580
  346TIP3    H2  982   6.260   5.470   0.591
  347TIP3   OH2  983   4.518   3.258   2.718
  347TIP3    H1  984   4.551   3.282   2.805
  347TIP3    H2  985   4.535   3.336   2.664
  348TIP3   OH2  986   4.874   7.478   4.704
  348TIP3    H1  987   4.807   7.428   4.656
  348TIP3    H2  988   4.933   7.412   4.739
  349TIP3   OH2  989   0.629   4.141   3.992
  349TIP3    H1  990   0.581   4.223   4.004
  349TIP3    H2  991   0.564   4.073   4.011
  350TIP3   OH2  992   1.509   0.917   5.235
  350TIP3    H1  993   1.528   0.961   5.152
  350TIP3    H2  994   1.539   0.978   5.302
  351TIP3   OH2  995   0.463   6.545   4.343
  351TIP3    H1  996   0.451   6.518   4.252
  351TIP3    H2  997   0.463   6.640   4.340
  352TIP3   OH2  998   3.490   6.348   6.372
  352TIP3    H1  999   3.477   6.432   6.418
  352TIP3    H2 1000   3.406   6.303   6.380
  353TIP3   OH2 1001   6.162   6.540   1.569
  353TIP3    H1 1002   6.152   6.542   1.474
  353TIP3    H2 1003   6.255   6.519   1.583
  354TIP3   OH2 1004   7.581   1.622   4.242
  354TIP3    H1 1005   7.496   1.586   4.269
  354TIP3    H2 1006   7.632   1.546   4.214
  355TIP3   OH2 1007   1.815   0.343   0.587
  355TIP3    H1 1008   1.892   0.300   0.625
  355TIP3    H2 1009   1.778   0.278   0.528
  356TIP3   OH2 1010   4.109   1.751   1.591
  356TIP3    H1 1011   4.080   1.707   1.670
  356TIP3    H2 1012   4.136   1.680   1.532
  357TIP3   OH2 1013   3.911   3.007   3.328
  357TIP3    H1 1014   3.870   2.940   3.381
  357TIP3    H2 1015   3.973   2.960   3.273
  358TIP3   OH2 1016   0.094   7.196   3.727
  358TIP3    H1 1017   0.089   7.289   3.707
  358TIP3    H2 1018   0.089   7.152   3.642
  359TIP3   OH2 1019   1.567   2.080   5.812
  359TIP3    H1 1020   1.552   2.035   5.895
  359TIP3    H2 1021   1.499   2.045   5.754
  360TIP3   OH2 1022   2.889   3.548   3.157
  360TIP3    H1 1023   2.962   3.511   3.207
  360TIP3    H2 1024   2.872   3.483   3.088
  361TIP3   OH2 1025   5.385   7.745   6.648
  361TIP3    H1 1026   5.421   7.823   6.604
  361TIP3    H2 1027   5.440   7.735   6.726
  362TIP3   OH2 1028   4.116   2.057   3.697
  362TIP3    H1 1029   4.027   2.085   3.674
  362TIP3    H2 1030   4.165   2.138   3.707
  363TIP3   OH2 1031   3.878   5.551   4.499
  363TIP3    H1 1032   3.954   5.545   4.556
  363TIP3    H2 1033   3.803   5.539   4.558
  364TIP3   OH2 1034   2.039   0.749   0.772
  364TIP3    H1 1035   2.085   0.746   0.856
  364TIP3    H2 1036   1.952   0.782   0.794
  365TIP3   OH2 1037   2.771   6.043   2.351
  365TIP3    H1 1038   2.744   5.974   2.412
  365TIP3    H2 1039   2.790   5.996   2.270
  366TIP3   OH2 1040   1.254   2.302   5.715
  366TIP3    H1 1041   1.191   2.269   5.651
  366TIP3    H2 1042   1.219   2.388   5.740
  367TIP3   OH2 1043   1.581   5.874   5.432
  367TIP3    H1 1044   1.516   5.893   5.364
  367TIP3    H2 1045   1.547   5.796   5.476
  368TIP3   OH2 1046   0.501   4.667   5.519
  368TIP3    H1 1047   0.573   4.729   5.507
  368TIP3    H2 1048   0.475   4.641   5.431
  369TIP3   OH2 1049   3.036   4.980   2.656
  369TIP3    H1 1050   2.966   5.046   2.653
  369TIP3    H2 1051   3.046   4.952   2.565
  370TIP3   OH2 1052   2.899   6.927   6.471
  370TIP3    H1 1053   2.910   6.936   6.376
  370TIP3    H2 1054   2.810   6.958   6.487
  371TIP3   OH2 1055   5.269   2.584   2.932
  371TIP3    H1 1056   5.212   2.661   2.925
  371TIP3    H2 1057   5.222   2.515   2.884
  372TIP3   OH2 1058   2.452   2.489   0.701
  372TIP3    H1 1059   2.543   2.495   0.670
  372TIP3    H2 1060   2.417   2.412   0.657
  373TIP3   OH2 1061   7.938   6.834   3.613
  373TIP3    H1 1062   7.851   6.861   3.584
  373TIP3    H2 1063   7.922   6.761   3.673
  374TIP3   OH2 1064   3.688   1.396   3.687
  374TIP3    H1 1065   3.684   1.404   3.591
  374TIP3    H2 1066   3.634   1.320   3.707
  375TIP3   OH2 1067   1.606   1.152   1.683
  375TIP3    H1 1068   1.603   1.157   1.778
  375TIP3    H2 1069   1.556   1.228   1.653
  376TIP3   OH2 1070   8.207   7.559   1.167
  376TIP3    H1 1071   8.283   7.593   1.214
  376TIP3    H2 1072   8.153   7.637   1.148
  377TIP3   OH2 1073   6.639   1.065   5.221
  377TIP3    H1 1074   6.713   1.011   5.248
  377TIP3    H2 1075   6.644   1.142   5.277
  378TIP3   OH2 1076   3.740   0.731   5.397
  378TIP3    H1 1077   3.758   0.702   5.308
  378TIP3    H2 1078   3.736   0.827   5.391
  379TIP3   OH2 1079   3.164   1.166   3.063
  379TIP3    H1 1080   3.229   1.227   3.027
  379TIP3    H2 1081   3.149   1.198   3.152
  380TIP3   OH2 1082   4.357   4.602   3.586
  380TIP3    H1 1083   4.342   4.664   3.515
  380TIP3    H2 1084   4.430   4.639   3.636
  381TIP3   OH2 1085   5.100   3.466   4.598
  381TIP3    H1 1086   5.156   3.532   4.557
  381TIP3    H2 1087   5.016   3.511   4.610
  382TIP3   OH2 1088   1.408   6.662   3.745
  382TIP3    H1 1089   1.383   6.713   3.668
  382TIP3    H2 1090   1.357   6.582   3.739
  383TIP3   OH2 1091   1.293   7.209   4.640
  383TIP3    H1 1092   1.302   7.287   4.694
  383TIP3    H2 1093   1.200   7.186   4.648
  384TIP3   OH2 1094   4.492   1.557   6.599
  384TIP3    H1 1095   4.554   1.604   6.543
  384TIP3    H2 1096   4.438   1.507   6.537
  385TIP3   OH2 1097   6.545   7.817   5.877
  385TIP3    H1 1098   6.626   7.767   5.888
  385TIP3    H2 1099   6.572   7.908   5.882
  386TIP3   OH2 1100   2.791   4.761   1.145
  386TIP3    H1 1101   2.823   4.692   1.087
  386TIP3    H2 1102   2.790   4.839   1.091
  387TIP3   OH2 1103   4.177   0.980   0.952
  387TIP3    H1 1104   4.209   0.906   0.899
  387TIP3    H2 1105   4.141   0.939   1.031
  388TIP3   OH2 1106   0.864   3.929   3.902
  388TIP3    H1 1107   0.907   4.011   3.880
  388TIP3    H2 1108   0.832   3.895   3.819
  389TIP3   OH2 1109   7.772   2.772   2.216
  389TIP3    H1 1110   7.678   2.756   2.222
  389TIP3    H2 1111   7.804   2.762   2.306
  390TIP3   OH2 1112   3.254   3.401   4.175
  390TIP3    H1 1113   3.286   3.398   4.265
  390TIP3    H2 1114   3.285   3.484   4.141
  391TIP3   OH2 1115   7.592   7.700   3.802
  391TIP3    H1 1116   7.546   7.753   3.737
  391TIP3    H2 1117   7.550   7.721   3.885
  392TIP3   OH2 1118   7.113   1.294   0.439
  392TIP3    H1 1119   7.108   1.389   0.451
  392TIP3    H2 1120   7.030   1.271   0.397
  393TIP3   OH2 1121   1.474   6.433   5.694
  393TIP3    H1 1122   1.517   6.498   5.750
  393TIP3    H2 1123   1.382   6.457   5.696
  394TIP3   OH2 1124   7.449   1.763   0.411
  394TIP3    H1 1125   7.542   1.779   0.424
  394TIP3    H2 1126   7.420   1.831   0.351
  395TIP3   OH2 1127   2.207   5.955   0.252
  395TIP3    H1 1128   2.157   6.035   0.236
  395TIP3    H2 1129   2.295   5.986   0.273
  396TIP3   OH2 1130   5.354   7.287   5.537
  396TIP3    H1 1131   5.278   7.278   5.480
  396TIP3    H2 1132   5.324   7.341   5.610
  397TIP3   OH2 1133   7.234   0.342   6.325
  397TIP3    H1 1134   7.326   0.316   6.326
  397TIP3    H2 1135   7.188   0.265   6.291
  398TIP3   OH2 1136   6.041   7.025   3.942
  398TIP3    H1 1137   5.957   7.011   3.900
  398TIP3    H2 1138   6.106   7.007   3.874
  399TIP3   OH2 1139   6.192   3.703   4.157
  399TIP3    H1 1140   6.140   3.683   4.079
  399TIP3    H2 1141   6.129   3.703   4.228
  400TIP3   OH2 1142   4.190   7.771   3.848
  400TIP3    H1 1143   4.114   7.726   3.810
  400TIP3    H2 1144   4.238   7.703   3.895
  401TIP3   OH2 1145   1.527   7.050   3.651
  401TIP3    H1 1146   1.475   6.978   3.686
  401TIP3    H2 1147   1.612   7.042   3.694
  402TIP3   OH2 1148   3.426   7.690   0.261
  402TIP3    H1 1149   3.444   7.666   0.170
  402TIP3    H2 1150   3.497   7.649   0.310
  403TIP3   OH2 1151   0.135   0.786   4.764
  403TIP3    H1 1152   0.199   0.815   4.829
  403TIP3    H2 1153   0.081   0.863   4.747
  404TIP3   OH2 1154   3.623   7.346   2.539
  404TIP3    H1 1155   3.584   7.297   2.612
  404TIP3    H2 1156   3.638   7.281   2.471
  405TIP3   OH2 1157   3.729   4.361   0.287
  405TIP3    H1 1158   3.697   4.449   0.307
  405TIP3    H2 1159   3.793   4.373   0.217
  406TIP3   OH2 1160   1.356   7.113   1.336
  406TIP3    H1 1161   1.413   7.045   1.300
  406TIP3    H2 1162   1.281   7.116   1.277
  407TIP3   OH2 1163   1.049   4.287   2.626
  407TIP3    H1 1164   1.135   4.248   2.614
  407TIP3    H2 1165   1.058   4.340   2.705
  408TIP3   OH2 1166   7.487   6.602   1.852
  408TIP3    H1 1167   7.406   6.610   1.902
  408TIP3    H2 1168   7.554   6.637   1.910
  409TIP3   OH2 1169   0.043   5.586   1.577
  409TIP3    H1 1170   0.036   5.498   1.540
  409TIP3    H2 1171   0.022   5.645   1.504
  410TIP3   OH2 1172   5.686   2.669   6.410
  410TIP3    H1 1173   5.666   2.584   6.371
  410TIP3    H2 1174   5.721   2.648   6.497
  411TIP3   OH2 1175   1.552   0.924   2.087
  411TIP3    H1 1176   1.623   0.925   2.023
  411TIP3    H2 1177   1.596   0.905   2.170
  412TIP3   OH2 1178   6.831   5.487   5.157
  412TIP3    H1 1179   6.881   5.435   5.093
  412TIP3    H2 1180   6.813   5.569   5.112
  413TIP3   OH2 1181   2.360   0.941   3.896
  413TIP3    H1 1182   2.273   0.922   3.860
  413TIP3    H2 1183   2.399   0.855   3.911
  414TIP3   OH2 1184   5.369   4.863   6.547
  414TIP3    H1 1185   5.371   4.913   6.466
  414TIP3    H2 1186   5.448   4.809   6.544
  415TIP3   OH2 1187   7.079   7.167   0.281
  415TIP3    H1 1188   6.985   7.151   0.295
  415TIP3    H2 1189   7.105   7.223   0.353
  416TIP3   OH2 1190   1.290   5.746   1.047
  416TIP3    H1 1191   1.305   5.793   0.965
  416TIP3    H2 1192   1.197   5.757   1.064
  417TIP3   OH2 1193   2.731   3.873   0.324
  417TIP3    H1 1194   2.669   3.922   0.271
  417TIP3    H2 1195   2.713   3.901   0.414
  418TIP3   OH2 1196   0.240   4.183   3.049
  418TIP3    H1 1197   0.258   4.089   3.058
  418TIP3    H2 1198   0.222   4.196   2.956
  419TIP3   OH2 1199   1.280   6.445   0.498
  419TIP3    H1 1200   1.208   6.495   0.461
  419TIP3    H2 1201   1.239   6.387   0.562
  420TIP3   OH2 1202   4.057   6.747   0.279
  420TIP3    H1 1203   4.042   6.753   0.185
  420TIP3    H2 1204   4.151   6.764   0.290
  421TIP3   OH2 1205   2.460   2.843   4.590
  421TIP3    H1 1206   2.379   2.888   4.615
  421TIP3    H2 1207   2.442   2.806   4.504
  422TIP3   OH2 1208   1.513   5.636   5.560
  422TIP3    H1 1209   1.445   5.667   5.620
  422TIP3    H2 1210   1.475   5.559   5.518
  423TIP3   OH2 1211   4.411   0.094   2.110
  423TIP3    H1 1212   4.330   0.058   2.074
  423TIP3    H2 1213   4.469   0.018   2.116
  424TIP3   OH2 1214   5.280   2.397   6.006
  424TIP3    H1 1215   5.338   2.337   5.959
  424TIP3    H2 1216   5.320   2.406   6.092
  425TIP3   OH2 1217   4.849   7.355   2.392
  425TIP3    H1 1218   4.910   7.331   2.462
  425TIP3    H2 1219   4.903   7.363   2.314
  426TIP3   OH2 1220   3.497   5.381   2.381
  426TIP3    H1 1221   3.505   5.442   2.454
  426TIP3    H2 1222   3.489   5.436   2.304
  427TIP3   OH2 1223   5.172   3.253   3.069
  427TIP3    H1 1224   5.231   3.297   3.007
  427TIP3    H2 1225   5.110   3.207   3.014
  428TIP3   OH2 1226   0.155   2.242   0.589
  428TIP3    H1 1227   0.140   2.330   0.555
  428TIP3    H2 1228   0.200   2.255   0.672
  429TIP3   OH2 1229   6.319   5.281   4.440
  429TIP3    H1 1230   6.295   5.279   4.533
  429TIP3    H2 1231   6.378   5.206   4.429
  430TIP3   OH2 1232   5.506   5.681   2.581
  430TIP3    H1 1233   5.497   5.737   2.658
  430TIP3    H2 1234   5.471   5.733   2.509
  431TIP3   OH2 1235   4.413   3.998   2.172
  431TIP3    H1 1236   4.416   4.079   2.121
  431TIP3    H2 1237   4.378   3.933   2.111
  432TIP3   OH2 1238   1.293   4.082   3.816
  432TIP3    H1 1239   1.197   4.081   3.816
  432TIP3    H2 1240   1.316   4.171   3.841
  433TIP3   OH2 1241   5.455   7.528   2.910
  433TIP3    H1 1242   5.387   7.479   2.957
  433TIP3    H2 1243   5.447   7.618   2.942
  434TIP3   OH2 1244   2.202   4.820   2.313
  434TIP3    H1 1245   2.115   4.812   2.273
  434TIP3    H2 1246   2.194   4.771   2.396
  435TIP3   OH2 1247   7.030   1.341   4.515
  435TIP3    H1 1248   6.995   1.387   4.592
  435TIP3    H2 1249   7.012   1.249   4.533
  436TIP3   OH2 1250   5.836   6.829   4.860
  436TIP3    H1 1251   5.880   6.860   4.939
  436TIP3    H2 1252   5.745   6.856   4.871
  437TIP3   OH2 1253   6.364   2.498   3.086
  437TIP3    H1 1254   6.397   2.449   3.010
  437TIP3    H2 1255   6.295   2.553   3.049
  438TIP3   OH2 1256   1.483   2.221   1.569
  438TIP3    H1 1257   1.549   2.153   1.584
  438TIP3    H2 1258   1.440   2.232   1.654
  439TIP3   OH2 1259   5.342   4.177   0.028
  439TIP3    H1 1260   5.361   4.266  -0.002
  439TIP3    H2 1261   5.350   4.181   0.123
  440TIP3   OH2 1262   7.396   5.815   1.188
  440TIP3    H1 1263   7.355   5.756   1.124
  440TIP3    H2 1264   7.338   5.814   1.263
  441TIP3   OH2 1265   6.330   3.317   0.185
  441TIP3    H1 1266   6.314   3.275   0.270
  441TIP3    H2 1267   6.400   3.379   0.201
  442TIP3   OH2 1268   7.745   0.045   2.002
  442TIP3    H1 1269   7.838   0.022   2.001
  442TIP3    H2 1270   7.742   0.135   1.970
  443TIP3   OH2 1271   2.999   3.296   3.377
  443TIP3    H1 1272   2.948   3.276   3.297
  443TIP3    H2 1273   3.090   3.280   3.352
  444TIP3   OH2 1274   6.523   6.987   1.799
  444TIP3    H1 1275   6.477   7.004   1.717
  444TIP3    H2 1276   6.541   7.074   1.835
  445TIP3   OH2 1277   3.084   7.595   2.605
  445TIP3    H1 1278   3.131   7.648   2.541
  445TIP3    H2 1279   3.022   7.544   2.553
  446TIP3   OH2 1280   5.083   2.451   5.344
  446TIP3    H1 1281   5.032   2.518   5.390
  446TIP3    H2 1282   5.168   2.492   5.329
  447TIP3   OH2 1283   7.131   7.172   3.714
  447TIP3    H1 1284   7.206   7.114   3.698
  447TIP3    H2 1285   7.111   7.160   3.807
  448TIP3   OH2 1286   0.856   0.361   2.825
  448TIP3    H1 1287   0.901   0.410   2.895
  448TIP3    H2 1288   0.765   0.390   2.830
  449TIP3   OH2 1289   5.024   6.552   5.835
  449TIP3    H1 1290   4.983   6.474   5.798
  449TIP3    H2 1291   4.950   6.609   5.857
  450TIP3   OH2 1292   7.057   0.699   1.177
  450TIP3    H1 1293   7.086   0.611   1.201
  450TIP3    H2 1294   6.976   0.685   1.127
  451TIP3   OH2 1295   1.733   2.151   6.380
  451TIP3    H1 1296   1.751   2.057   6.383
  451TIP3    H2 1297   1.713   2.175   6.470
  452TIP3   OH2 1298   6.183   3.376   3.645
  452TIP3    H1 1299   6.228   3.293   3.657
  452TIP3    H2 1300   6.160   3.379   3.552
  453TIP3   OH2 1301   1.800   4.091   3.800
  453TIP3    H1 1302   1.782   4.163   3.740
  453TIP3    H2 1303   1.714   4.055   3.821
  454TIP3   OH2 1304   2.345   7.255   6.401
  454TIP3    H1 1305   2.253   7.241   6.379
  454TIP3    H2 1306   2.381   7.301   6.325
  455TIP3   OH2 1307   3.539   5.278   5.210
  455TIP3    H1 1308   3.453   5.236   5.223
  455TIP3    H2 1309   3.525   5.338   5.137
  456TIP3   OH2 1310   6.462   6.398   5.517
  456TIP3    H1 1311   6.436   6.328   5.576
  456TIP3    H2 1312   6.558   6.398   5.520
  457TIP3   OH2 1313   7.374   7.303   2.593
  457TIP3    H1 1314   7.357   7.276   2.683
  457TIP3    H2 1315   7.329   7.238   2.540
  458TIP3   OH2 1316   6.415   2.774   6.215
  458TIP3    H1 1317   6.410   2.730   6.130
  458TIP3    H2 1318   6.446   2.707   6.275
  459TIP3   OH2 1319   7.801   5.719   1.727
  459TIP3    H1 1320   7.816   5.804   1.769
  459TIP3    H2 1321   7.878   5.667   1.748
  460TIP3   OH2 1322   4.738   6.885   0.163
  460TIP3    H1 1323   4.660   6.902   0.215
  460TIP3    H2 1324   4.802   6.852   0.227
  461TIP3   OH2 1325   6.322   3.159   3.597
  461TIP3    H1 1326   6.309   3.131   3.507
  461TIP3    H2 1327   6.388   3.229   3.591
  462TIP3   OH2 1328   6.416   2.147   3.765
  462TIP3    H1 1329   6.496   2.173   3.811
  462TIP3    H2 1330   6.362   2.226   3.767
  463TIP3   OH2 1331   3.209   1.929   4.416
  463TIP3    H1 1332   3.178   1.839   4.422
  463TIP3    H2 1333   3.252   1.945   4.500
  464TIP3   OH2 1334   5.318   1.106   5.842
  464TIP3    H1 1335   5.248   1.046   5.866
  464TIP3    H2 1336   5.273   1.188   5.822
  465TIP3   OH2 1337   3.736   2.141   2.693
  465TIP3    H1 1338   3.754   2.096   2.775
  465TIP3    H2 1339   3.707   2.072   2.633
  466TIP3   OH2 1340   5.587   1.739   0.185
  466TIP3    H1 1341   5.644   1.699   0.251
  466TIP3    H2 1342   5.648   1.772   0.119
  467TIP3   OH2 1343   0.533   2.553   0.393
  467TIP3    H1 1344   0.518   2.511   0.478
  467TIP3    H2 1345   0.590   2.492   0.345
  468TIP3   OH2 1346   2.635   2.182   4.859
  468TIP3    H1 1347   2.723   2.218   4.862
  468TIP3    H2 1348   2.599   2.198   4.946
  469TIP3   OH2 1349   0.256   3.323   6.023
  469TIP3    H1 1350   0.168   3.297   6.051
  469TIP3    H2 1351   0.242   3.374   5.943
  470TIP3   OH2 1352   4.348   5.293   3.652
  470TIP3    H1 1353   4.369   5.231   3.723
  470TIP3    H2 1354   4.354   5.379   3.694
  471TIP3   OH2 1355   8.008   6.856   0.677
  471TIP3    H1 1356   7.915   6.835   0.678
  471TIP3    H2 1357   8.051   6.772   0.662
  472TIP3   OH2 1358   5.193   6.417   6.056
  472TIP3    H1 1359   5.179   6.506   6.026
  472TIP3    H2 1360   5.118   6.368   6.024
  473TIP3   OH2 1361   3.319   2.378   2.373
  473TIP3    H1 1362   3.330   2.420   2.288
  473TIP3    H2 1363   3.377   2.302   2.370
  474TIP3   OH2 1364   4.634   6.359   2.716
  474TIP3    H1 1365   4.591   6.444   2.726
  474TIP3    H2 1366   4.696   6.372   2.644
  475TIP3   OH2 1367   1.495   2.891   1.015
  475TIP3    H1 1368   1.556   2.860   1.081
  475TIP3    H2 1369   1.430   2.942   1.064
  476TIP3   OH2 1370   4.275   0.135   0.147
  476TIP3    H1 1371   4.217   0.177   0.210
  476TIP3    H2 1372   4.253   0.042   0.152
  477TIP3   OH2 1373   1.063   2.646   0.610
  477TIP3    H1 1374   1.081   2.715   0.546
  477TIP3    H2 1375   1.049   2.692   0.692
  478TIP3   OH2 1376   6.348   6.407   1.214
  478TIP3    H1 1377   6.315   6.351   1.144
  478TIP3    H2 1378   6.405   6.350   1.266
  479TIP3   OH2 1379   1.499   0.304   1.707
  479TIP3    H1 1380   1.410   0.336   1.713
  479TIP3    H2 1381   1.550   0.378   1.674
  480TIP3   OH2 1382   2.468   0.152   3.244
  480TIP3    H1 1383   2.430   0.198   3.169
  480TIP3    H2 1384   2.562   0.166   3.236
  481TIP3   OH2 1385   5.603   4.090   3.793
  481TIP3    H1 1386   5.564   4.045   3.719
  481TIP3    H2 1387   5.608   4.024   3.863
  482TIP3   OH2 1388   5.692   5.465   5.578
  482TIP3    H1 1389   5.750   5.432   5.509
  482TIP3    H2 1390   5.681   5.391   5.638
  483TIP3   OH2 1391   5.237   5.199   0.438
  483TIP3    H1 1392   5.167   5.232   0.494
  483TIP3    H2 1393   5.318   5.222   0.485
  484TIP3   OH2 1394   4.247   1.253   2.759
  484TIP3    H1 1395   4.165   1.273   2.714
  484TIP3    H2 1396   4.234   1.165   2.793
  485TIP3   OH2 1397   6.495   5.169   3.261
  485TIP3    H1 1398   6.549   5.212   3.195
  485TIP3    H2 1399   6.416   5.144   3.214
  486TIP3   OH2 1400   2.416   7.507   4.635
  486TIP3    H1 1401   2.383   7.419   4.654
  486TIP3    H2 1402   2.510   7.496   4.622
  487TIP3   OH2 1403   4.046   4.324   2.762
  487TIP3    H1 1404   4.097   4.243   2.769
  487TIP3    H2 1405   4.081   4.368   2.685
  488TIP3   OH2 1406   0.440   7.788   4.306
  488TIP3    H1 1407   0.358   7.740   4.292
  488TIP3    H2 1408   0.464   7.770   4.397
  489TIP3   OH2 1409   8.306   4.460   3.175
  489TIP3    H1 1410   8.250   4.520   3.125
  489TIP3    H2 1411   8.377   4.438   3.114
  490TIP3   OH2 1412   0.115   4.263   3.463
  490TIP3    H1 1413   0.054   4.333   3.487
  490TIP3    H2 1414   0.160   4.297   3.386
  491TIP3   OH2 1415   5.435   0.727   0.962
  491TIP3    H1 1416   5.367   0.769   0.910
  491TIP3    H2 1417   5.491   0.683   0.898
  492TIP3   OH2 1418   0.691   5.343   6.671
  492TIP3    H1 1419   0.670   5.339   6.578
  492TIP3    H2 1420   0.774   5.295   6.679
  493TIP3   OH2 1421   2.761   5.248   4.757
  493TIP3    H1 1422   2.837   5.209   4.714
  493TIP3    H2 1423   2.798   5.297   4.831
  494TIP3   OH2 1424   4.080   2.559   4.045
  494TIP3    H1 1425   3.994   2.527   4.071
  494TIP3    H2 1426   4.091   2.640   4.095
  495TIP3   OH2 1427   2.573   0.517   2.282
  495TIP3    H1 1428   2.606   0.569   2.209
  495TIP3    H2 1429   2.487   0.487   2.254
  496TIP3   OH2 1430   4.157   2.160   5.775
  496TIP3    H1 1431   4.163   2.226   5.706
  496TIP3    H2 1432   4.157   2.077   5.728
  497TIP3   OH2 1433   3.094   4.895   3.034
  497TIP3    H1 1434   3.072   4.866   3.123
  497TIP3    H2 1435   3.091   4.991   3.038
  498TIP3   OH2 1436   4.614   3.137   4.894
  498TIP3    H1 1437   4.586   3.212   4.945
  498TIP3    H2 1438   4.565   3.063   4.929
  499TIP3   OH2 1439   2.406   5.370   0.897
  499TIP3    H1 1440   2.377   5.292   0.943
  499TIP3    H2 1441   2.502   5.366   0.902
  500TIP3   OH2 1442   6.464   7.739   1.475
  500TIP3    H1 1443   6.483   7.659   1.523
  500TIP3    H2 1444   6.383   7.772   1.513
  501TIP3   OH2 1445   0.186   7.661   4.076
  501TIP3    H1 1446   0.134   7.662   4.156
  501TIP3    H2 1447   0.262   7.606   4.097
  502TIP3   OH2 1448   7.601   3.538   3.585
  502TIP3    H1 1449   7.615   3.444   3.581
  502TIP3    H2 1450   7.671   3.575   3.531
  503TIP3   OH2 1451   0.231   0.651   0.118
  503TIP3    H1 1452   0.217   0.739   0.153
  503TIP3    H2 1453   0.148   0.628   0.076
  504TIP3   OH2 1454   3.838   1.809   3.884
  504TIP3    H1 1455   3.784   1.851   3.816
  504TIP3    H2 1456   3.823   1.715   3.871
  505TIP3   OH2 1457   2.911   4.758   5.257
  505TIP3    H1 1458   2.983   4.695   5.260
  505TIP3    H2 1459   2.849   4.728   5.324
  506TIP3   OH2 1460   2.382   7.004   5.335
  506TIP3    H1 1461   2.416   6.935   5.393
  506TIP3    H2 1462   2.349   7.071   5.394
  507TIP3   OH2 1463   4.247   3.369   5.079
  507TIP3    H1 1464   4.214   3.453   5.112
  507TIP3    H2 1465   4.225   3.306   5.147
  508TIP3   OH2 1466   1.801   5.731   0.649
  508TIP3    H1 1467   1.859   5.780   0.707
  508TIP3    H2 1468   1.857   5.702   0.577
  509TIP3   OH2 1469   3.054   0.894   4.767
  509TIP3    H1 1470   3.119   0.841   4.814
  509TIP3    H2 1471   2.972   0.880   4.815
  510TIP3   OH2 1472   5.766   3.307   0.273
  510TIP3    H1 1473   5.829   3.282   0.340
  510TIP3    H2 1474   5.735   3.223   0.237
  511TIP3   OH2 1475   3.254   3.015   6.466
  511TIP3    H1 1476   3.197   3.092   6.471
  511TIP3    H2 1477   3.289   3.006   6.555
  512TIP3   OH2 1478   7.919   4.508   2.794
  512TIP3    H1 1479   7.851   4.472   2.851
  512TIP3    H2 1480   7.894   4.600   2.784
  513TIP3   OH2 1481   8.030   3.887   2.289
  513TIP3    H1 1482   7.964   3.863   2.224
  513TIP3    H2 1483   8.106   3.834   2.266
  514TIP3   OH2 1484   4.985   4.678   1.205
  514TIP3    H1 1485   5.055   4.627   1.246
  514TIP3    H2 1486   4.981   4.645   1.115
  515TIP3   OH2 1487   7.331   5.081   5.400
  515TIP3    H1 1488   7.307   5.121   5.316
  515TIP3    H2 1489   7.394   5.013   5.376
  516TIP3   OH2 1490   5.371   0.416   6.525
  516TIP3    H1 1491   5.417   0.369   6.594
  516TIP3    H2 1492   5.332   0.348   6.471
  517TIP3   OH2 1493  -0.003   3.034   2.875
  517TIP3    H1 1494   0.064   2.967   2.872
  517TIP3    H2 1495   0.045   3.116   2.890
  518TIP3   OH2 1496   0.595   7.303   2.589
  518TIP3    H1 1497   0.599   7.298   2.493
  518TIP3    H2 1498   0.656   7.235   2.619
  519TIP3   OH2 1499   8.158   1.662   5.572
  519TIP3    H1 1500   8.203   1.598   5.517
  519TIP3    H2 1501   8.220   1.734   5.582
  520TIP3   OH2 1502   0.379   3.529   0.436
  520TIP3    H1 1503   0.321   3.457   0.462
  520TIP3    H2 1504   0.466   3.489   0.434
  521TIP3   OH2 1505   4.352   2.823   1.514
  521TIP3    H1 1506   4.351   2.784   1.426
  521TIP3    H2 1507   4.386   2.911   1.501
  522TIP3   OH2 1508   2.415   2.363   2.356
  522TIP3    H1 1509   2.407   2.426   2.284
  522TIP3    H2 1510   2.328   2.360   2.396
  523TIP3   OH2 1511   3.053   1.423   1.843
  523TIP3    H1 1512   3.114   1.356   1.875
  523TIP3    H2 1513   3.070   1.428   1.749
  524TIP3   OH2 1514   2.466   4.673   0.756
  524TIP3    H1 1515   2.508   4.597   0.798
  524TIP3    H2 1516   2.420   4.636   0.681
  525TIP3   OH2 1517   0.299   1.313   3.426
  525TIP3    H1 1518   0.254   1.379   3.374
  525TIP3    H2 1519   0.245   1.304   3.505
  526TIP3   OH2 1520   2.331   5.096   3.535
  526TIP3    H1 1521   2.297   5.084   3.623
  526TIP3    H2 1522   2.259   5.071   3.477
  527TIP3   OH2 1523   3.600   5.211   6.028
  527TIP3    H1 1524   3.509   5.199   6.055
  527TIP3    H2 1525   3.635   5.276   6.089
  528TIP3   OH2 1526   8.150   0.976   4.912
  528TIP3    H1 1527   8.127   0.889   4.946
  528TIP3    H2 1528   8.099   1.036   4.966
  529TIP3   OH2 1529   5.716   0.637   4.838
  529TIP3    H1 1530   5.699   0.723   4.876
  529TIP3    H2 1531   5.667   0.636   4.756
  530TIP3   OH2 1532   5.222   6.195   5.518
  530TIP3    H1 1533   5.247   6.264   5.455
  530TIP3    H2 1534   5.259   6.225   5.601
  531TIP3   OH2 1535   2.367   0.715   0.265
  531TIP3    H1 1536   2.428   0.642   0.267
  531TIP3    H2 1537   2.344   0.725   0.172
  532TIP3   OH2 1538   2.552   5.090   4.826
  532TIP3    H1 1539   2.515   5.107   4.912
  532TIP3    H2 1540   2.628   5.148   4.820
  533TIP3   OH2 1541   7.435   6.379   4.215
  533TIP3    H1 1542   7.477   6.427   4.287
  533TIP3    H2 1543   7.388   6.308   4.258
  534TIP3   OH2 1544   7.118   6.782   3.202
  534TIP3    H1 1545   7.081   6.789   3.114
  534TIP3    H2 1546   7.205   6.821   3.195
  535TIP3   OH2 1547   5.291   2.009   3.720
  535TIP3    H1 1548   5.202   1.998   3.687
  535TIP3    H2 1549   5.333   2.067   3.658
  536TIP3   OH2 1550   3.394   1.558   3.594
  536TIP3    H1 1551   3.382   1.652   3.583
  536TIP3    H2 1552   3.408   1.524   3.505
  537TIP3   OH2 1553   5.519   2.383   1.031
  537TIP3    H1 1554   5.461   2.364   0.958
  537TIP3    H2 1555   5.536   2.477   1.025
  538TIP3   OH2 1556   2.145   0.080   1.791
  538TIP3    H1 1557   2.158   0.042   1.703
  538TIP3    H2 1558   2.110   0.167   1.774
  539TIP3   OH2 1559   1.551   0.392   3.990
  539TIP3    H1 1560   1.616   0.336   4.033
  539TIP3    H2 1561   1.471   0.340   3.990
  540TIP3   OH2 1562   4.314   5.209   3.005
  540TIP3    H1 1563   4.247   5.187   2.940
  540TIP3    H2 1564   4.268   5.261   3.071
  541TIP3   OH2 1565   3.672   1.325   5.129
  541TIP3    H1 1566   3.719   1.244   5.107
  541TIP3    H2 1567   3.609   1.298   5.196
  542TIP3   OH2 1568   2.240   6.000   5.562
  542TIP3    H1 1569   2.254   5.988   5.468
  542TIP3    H2 1570   2.328   5.994   5.600
  543TIP3   OH2 1571   0.057   1.407   6.364
  543TIP3    H1 1572  -0.034   1.399   6.334
  543TIP3    H2 1573   0.050   1.455   6.446
  544TIP3   OH2 1574   5.128   0.462   5.210
  544TIP3    H1 1575   5.177   0.533   5.252
  544TIP3    H2 1576   5.037   0.491   5.214
  545TIP3   OH2 1577   3.697   7.187   3.273
  545TIP3    H1 1578   3.729   7.238   3.347
  545TIP3    H2 1579   3.774   7.136   3.244
  546TIP3   OH2 1580   7.750   2.097   4.585
  546TIP3    H1 1581   7.703   2.097   4.668
  546TIP3    H2 1582   7.713   2.024   4.535
  547TIP3   OH2 1583   7.093   5.779   5.752
  547TIP3    H1 1584   7.082   5.844   5.820
  547TIP3    H2 1585   7.148   5.821   5.687
  548TIP3   OH2 1586   2.039   6.756   6.573
  548TIP3    H1 1587   2.059   6.674   6.617
  548TIP3    H2 1588   2.054   6.739   6.480
  549TIP3   OH2 1589   2.595   2.073   4.461
  549TIP3    H1 1590   2.670   2.129   4.482
  549TIP3    H2 1591   2.545   2.069   4.543
  550TIP3   OH2 1592   7.865   4.523   3.760
  550TIP3    H1 1593   7.905   4.442   3.729
  550TIP3    H2 1594   7.839   4.505   3.850
  551TIP3   OH2 1595   7.782   3.368   5.604
  551TIP3    H1 1596   7.872   3.393   5.586
  551TIP3    H2 1597   7.742   3.446   5.642
  552TIP3   OH2 1598   1.157   2.575   4.435
  552TIP3    H1 1599   1.230   2.637   4.434
  552TIP3    H2 1600   1.187   2.503   4.491
  553TIP3   OH2 1601   3.907   1.409   1.593
  553TIP3    H1 1602   3.970   1.463   1.545
  553TIP3    H2 1603   3.960   1.361   1.657
  554TIP3   OH2 1604   6.220   5.658   6.129
  554TIP3    H1 1605   6.298   5.673   6.076
  554TIP3    H2 1606   6.170   5.593   6.080
  555TIP3   OH2 1607   2.375   0.861   1.937
  555TIP3    H1 1608   2.439   0.797   1.909
  555TIP3    H2 1609   2.292   0.814   1.937
  556TIP3   OH2 1610   7.660   1.498   0.121
  556TIP3    H1 1611   7.750   1.484   0.091
  556TIP3    H2 1612   7.669   1.546   0.203
  557TIP3   OH2 1613   2.795  -0.017   1.033
  557TIP3    H1 1614   2.747   0.056   0.995
  557TIP3    H2 1615   2.827   0.017   1.117
  558TIP3   OH2 1616   5.083   1.682   0.023
  558TIP3    H1 1617   5.119   1.593   0.017
  558TIP3    H2 1618   5.160   1.739   0.013
  559TIP3   OH2 1619   7.905   4.415   1.914
  559TIP3    H1 1620   7.861   4.482   1.966
  559TIP3    H2 1621   7.998   4.434   1.924
  560TIP3   OH2 1622   7.433   0.774   1.722
  560TIP3    H1 1623   7.436   0.702   1.660
  560TIP3    H2 1624   7.426   0.852   1.668
  561TIP3   OH2 1625   6.189   2.570   0.976
  561TIP3    H1 1626   6.280   2.568   0.946
  561TIP3    H2 1627   6.147   2.634   0.920
  562TIP3   OH2 1628   3.928   0.742   2.335
  562TIP3    H1 1629   3.849   0.786   2.366
  562TIP3    H2 1630   3.916   0.736   2.240
  563TIP3   OH2 1631   6.964   0.334   2.477
  563TIP3    H1 1632   6.988   0.425   2.461
  563TIP3    H2 1633   7.047   0.293   2.504
  564TIP3   OH2 1634   4.305   6.382   4.175
  564TIP3    H1 1635   4.340   6.368   4.263
  564TIP3    H2 1636   4.221   6.334   4.175
  565TIP3   OH2 1637   4.366   7.723   0.471
  565TIP3    H1 1638   4.403   7.810   0.454
  565TIP3    H2 1639   4.335   7.694   0.385
  566TIP3   OH2 1640   6.345   4.274   2.979
  566TIP3    H1 1641   6.439   4.289   2.988
  566TIP3    H2 1642   6.308   4.309   3.060
  567TIP3   OH2 1643   2.783   3.574   0.090
  567TIP3    H1 1644   2.819   3.659   0.065
  567TIP3    H2 1645   2.751   3.587   0.180
  568TIP3   OH2 1646   8.008   2.451   2.750
  568TIP3    H1 1647   7.923   2.495   2.745
  568TIP3    H2 1648   7.989   2.367   2.792
  569TIP3   OH2 1649   3.356   4.206   3.952
  569TIP3    H1 1650   3.357   4.150   3.875
  569TIP3    H2 1651   3.319   4.152   4.021
  570TIP3   OH2 1652   5.268   4.900   0.019
  570TIP3    H1 1653   5.239   4.840  -0.050
  570TIP3    H2 1654   5.217   4.875   0.096
  571TIP3   OH2 1655   8.238   1.901   6.438
  571TIP3    H1 1656   8.324   1.860   6.447
  571TIP3    H2 1657   8.217   1.932   6.526
  572TIP3   OH2 1658   3.574   7.697   1.331
  572TIP3    H1 1659   3.615   7.772   1.376
  572TIP3    H2 1660   3.553   7.731   1.244
  573TIP3   OH2 1661   3.712   1.899   3.177
  573TIP3    H1 1662   3.620   1.927   3.181
  573TIP3    H2 1663   3.739   1.892   3.268
  574TIP3   OH2 1664   4.315   3.034   3.630
  574TIP3    H1 1665   4.373   2.986   3.690
  574TIP3    H2 1666   4.278   2.966   3.573
  575TIP3   OH2 1667   1.016   1.985   1.345
  575TIP3    H1 1668   1.020   2.081   1.348
  575TIP3    H2 1669   1.070   1.961   1.270
  576TIP3   OH2 1670   2.193   7.177   3.235
  576TIP3    H1 1671   2.110   7.181   3.282
  576TIP3    H2 1672   2.225   7.088   3.251
  577TIP3   OH2 1673   5.286   2.426   2.282
  577TIP3    H1 1674   5.297   2.419   2.188
  577TIP3    H2 1675   5.366   2.389   2.319
  578TIP3   OH2 1676   7.759   0.586   3.218
  578TIP3    H1 1677   7.693   0.609   3.152
  578TIP3    H2 1678   7.821   0.658   3.216
  579TIP3   OH2 1679   3.940   3.614   1.300
  579TIP3    H1 1680   3.936   3.677   1.228
  579TIP3    H2 1681   3.895   3.657   1.373
  580TIP3   OH2 1682   5.374   0.332   0.113
  580TIP3    H1 1683   5.352   0.376   0.031
  580TIP3    H2 1684   5.290   0.310   0.152
  581TIP3   OH2 1685   5.842   0.223   1.587
  581TIP3    H1 1686   5.897   0.153   1.622
  581TIP3    H2 1687   5.848   0.213   1.492
  582TIP3   OH2 1688   7.054   5.058   1.829
  582TIP3    H1 1689   7.003   5.090   1.903
  582TIP3    H2 1690   7.007   4.980   1.800
  583TIP3   OH2 1691   1.728   7.692   5.764
  583TIP3    H1 1692   1.719   7.634   5.689
  583TIP3    H2 1693   1.732   7.780   5.726
  584TIP3   OH2 1694   7.787   4.249   0.443
  584TIP3    H1 1695   7.743   4.185   0.499
  584TIP3    H2 1696   7.808   4.201   0.363
  585TIP3   OH2 1697   4.754   0.259   1.103
  585TIP3    H1 1698   4.760   0.348   1.069
  585TIP3    H2 1699   4.797   0.264   1.189
  586TIP3   OH2 1700   1.861   1.114   0.989
  586TIP3    H1 1701   1.875   1.202   1.022
  586TIP3    H2 1702   1.944   1.069   1.003
  587TIP3   OH2 1703   0.866   7.057   0.565
  587TIP3    H1 1704   0.808   7.059   0.489
  587TIP3    H2 1705   0.920   7.134   0.556
  588TIP3   OH2 1706   3.927   0.672   4.000
  588TIP3    H1 1707   3.992   0.602   4.012
  588TIP3    H2 1708   3.894   0.659   3.911
  589TIP3   OH2 1709   6.565   1.292   2.133
  589TIP3    H1 1710   6.553   1.198   2.118
  589TIP3    H2 1711   6.476   1.327   2.142
  590TIP3   OH2 1712   8.040   4.074   0.610
  590TIP3    H1 1713   8.027   4.161   0.648
  590TIP3    H2 1714   8.094   4.089   0.532
  591TIP3   OH2 1715   5.932   5.531   4.234
  591TIP3    H1 1716   5.945   5.540   4.140
  591TIP3    H2 1717   6.019   5.513   4.269
  592TIP3   OH2 1718   5.341   2.724   6.374
  592TIP3    H1 1719   5.334   2.792   6.307
  592TIP3    H2 1720   5.397   2.763   6.442
  593TIP3   OH2 1721   4.944   3.374   1.877
  593TIP3    H1 1722   4.878   3.328   1.825
  593TIP3    H2 1723   5.021   3.317   1.875
  594TIP3   OH2 1724   5.771   0.645   1.590
  594TIP3    H1 1725   5.698   0.596   1.553
  594TIP3    H2 1726   5.795   0.708   1.522
  595TIP3   OH2 1727   7.586   4.648   1.452
  595TIP3    H1 1728   7.523   4.579   1.472
  595TIP3    H2 1729   7.556   4.723   1.502
  596TIP3   OH2 1730   7.999   2.137   0.059
  596TIP3    H1 1731   7.925   2.187   0.095
  596TIP3    H2 1732   8.068   2.202   0.047
  597TIP3   OH2 1733   7.359   0.407   0.449
  597TIP3    H1 1734   7.444   0.389   0.409
  597TIP3    H2 1735   7.376   0.479   0.510
  598TIP3   OH2 1736   2.945   1.654   5.383
  598TIP3    H1 1737   2.920   1.641   5.292
  598TIP3    H2 1738   2.980   1.744   5.386
  599TIP3   OH2 1739   0.029   3.555   3.320
  599TIP3    H1 1740   0.116   3.523   3.343
  599TIP3    H2 1741   0.044   3.615   3.247
  600TIP3   OH2 1742   3.859   6.524   5.204
  600TIP3    H1 1743   3.773   6.504   5.166
  600TIP3    H2 1744   3.838   6.570   5.286
  601TIP3   OH2 1745   1.222   1.560   3.822
  601TIP3    H1 1746   1.246   1.589   3.734
  601TIP3    H2 1747   1.306   1.551   3.868
  602TIP3   OH2 1748   1.915   4.132   1.862
  602TIP3    H1 1749   2.009   4.130   1.879
  602TIP3    H2 1750   1.904   4.205   1.801
  603TIP3   OH2 1751   3.123   7.466   3.005
  603TIP3    H1 1752   3.041   7.514   2.994
  603TIP3    H2 1753   3.155   7.451   2.916
  604TIP3   OH2 1754   0.692   6.595   6.682
  604TIP3    H1 1755   0.689   6.501   6.697
  604TIP3    H2 1756   0.770   6.609   6.629
  605TIP3   OH2 1757   6.214   2.687   4.977
  605TIP3    H1 1758   6.120   2.690   4.959
  605TIP3    H2 1759   6.228   2.757   5.040
  606TIP3   OH2 1760   7.867   7.107   5.229
  606TIP3    H1 1761   7.923   7.030   5.222
  606TIP3    H2 1762   7.785   7.074   5.265
  607TIP3   OH2 1763   4.623   1.488   1.677
  607TIP3    H1 1764   4.716   1.507   1.690
  607TIP3    H2 1765   4.605   1.513   1.586
  608TIP3   OH2 1766   7.909   2.722   2.473
  608TIP3    H1 1767   7.863   2.640   2.492
  608TIP3    H2 1768   7.897   2.774   2.552
  609TIP3   OH2 1769   0.503   4.650   0.118
  609TIP3    H1 1770   0.550   4.601   0.050
  609TIP3    H2 1771   0.447   4.711   0.069
  610TIP3   OH2 1772   5.106   3.357   2.348
  610TIP3    H1 1773   5.019   3.364   2.308
  610TIP3    H2 1774   5.148   3.286   2.299
  611TIP3   OH2 1775   3.038   1.890   5.812
  611TIP3    H1 1776   3.001   1.803   5.827
  611TIP3    H2 1777   2.995   1.921   5.733
  612TIP3   OH2 1778   2.058   1.752   2.435
  612TIP3    H1 1779   2.064   1.801   2.353
  612TIP3    H2 1780   2.066   1.818   2.504
  613TIP3   OH2 1781   2.267   0.459   1.805
  613TIP3    H1 1782   2.334   0.394   1.785
  613TIP3    H2 1783   2.201   0.449   1.737
  614TIP3   OH2 1784   3.687   7.379   5.531
  614TIP3    H1 1785   3.613   7.329   5.566
  614TIP3    H2 1786   3.701   7.342   5.444
  615TIP3   OH2 1787   0.646   1.026   3.273
  615TIP3    H1 1788   0.721   1.011   3.217
  615TIP3    H2 1789   0.583   0.958   3.247
  616TIP3   OH2 1790   7.204   6.710   4.231
  616TIP3    H1 1791   7.234   6.661   4.307
  616TIP3    H2 1792   7.282   6.717   4.175
  617TIP3   OH2 1793   4.426   1.988   0.682
  617TIP3    H1 1794   4.443   2.000   0.776
  617TIP3    H2 1795   4.511   2.004   0.641
  618TIP3   OH2 1796   1.728   2.817   6.186
  618TIP3    H1 1797   1.815   2.858   6.188
  618TIP3    H2 1798   1.739   2.736   6.235
  619TIP3   OH2 1799   4.910   7.768   0.599
  619TIP3    H1 1800   4.821   7.735   0.583
  619TIP3    H2 1801   4.966   7.715   0.542
  620TIP3   OH2 1802   7.817   0.861   4.874
  620TIP3    H1 1803   7.778   0.925   4.815
  620TIP3    H2 1804   7.871   0.806   4.817
  621TIP3   OH2 1805   8.168   4.689   4.996
  621TIP3    H1 1806   8.120   4.647   4.924
  621TIP3    H2 1807   8.100   4.712   5.059
  622TIP3   OH2 1808   0.303   7.493   1.089
  622TIP3    H1 1809   0.320   7.399   1.090
  622TIP3    H2 1810   0.268   7.512   1.176
  623TIP3   OH2 1811   3.455   3.292   6.726
  623TIP3    H1 1812   3.367   3.313   6.757
  623TIP3    H2 1813   3.484   3.372   6.681
  624TIP3   OH2 1814   2.493   4.098   0.507
  624TIP3    H1 1815   2.463   4.180   0.469
  624TIP3    H2 1816   2.413   4.055   0.539
  625TIP3   OH2 1817   2.803   7.217   0.844
  625TIP3    H1 1818   2.858   7.236   0.919
  625TIP3    H2 1819   2.721   7.184   0.881
  626TIP3   OH2 1820   1.131   7.650   5.676
  626TIP3    H1 1821   1.197   7.581   5.680
  626TIP3    H2 1822   1.064   7.623   5.739
  627TIP3   OH2 1823   1.828   1.929   1.803
  627TIP3    H1 1824   1.862   1.848   1.764
  627TIP3    H2 1825   1.903   1.988   1.804
  628TIP3   OH2 1826   1.106   7.186   1.537
  628TIP3    H1 1827   1.165   7.205   1.465
  628TIP3    H2 1828   1.151   7.119   1.589
  629TIP3   OH2 1829   5.445   1.253   2.948
  629TIP3    H1 1830   5.479   1.323   2.892
  629TIP3    H2 1831   5.462   1.173   2.898
  630TIP3   OH2 1832   4.826   1.686   3.016
  630TIP3    H1 1833   4.772   1.674   2.938
  630TIP3    H2 1834   4.875   1.766   2.999
  631TIP3   OH2 1835   4.160   2.602   5.349
  631TIP3    H1 1836   4.222   2.662   5.309
  631TIP3    H2 1837   4.137   2.643   5.433
  632TIP3   OH2 1838   7.700   7.283   5.636
  632TIP3    H1 1839   7.751   7.206   5.609
  632TIP3    H2 1840   7.630   7.247   5.690
  633TIP3   OH2 1841   2.432   3.474   0.227
  633TIP3    H1 1842   2.375   3.534   0.276
  633TIP3    H2 1843   2.521   3.504   0.246
  634TIP3   OH2 1844   3.913   5.993   4.204
  634TIP3    H1 1845   3.848   6.034   4.147
  634TIP3    H2 1846   3.894   5.900   4.199
  635TIP3   OH2 1847   3.483   6.444   4.873
  635TIP3    H1 1848   3.555   6.416   4.817
  635TIP3    H2 1849   3.525   6.467   4.956
  636TIP3   OH2 1850   2.643   2.192   3.527
  636TIP3    H1 1851   2.585   2.162   3.457
  636TIP3    H2 1852   2.711   2.125   3.532
  637TIP3   OH2 1853   8.144   2.068   5.757
  637TIP3    H1 1854   8.190   2.091   5.677
  637TIP3    H2 1855   8.081   2.000   5.731
  638TIP3   OH2 1856   4.737   6.011   2.540
  638TIP3    H1 1857   4.644   6.031   2.542
  638TIP3    H2 1858   4.758   5.982   2.629
  639TIP3   OH2 1859   7.795   6.994   2.164
  639TIP3    H1 1860   7.769   6.982   2.255
  639TIP3    H2 1861   7.713   7.014   2.118
  640TIP3   OH2 1862   4.615   4.686   4.192
  640TIP3    H1 1863   4.673   4.624   4.148
  640TIP3    H2 1864   4.582   4.742   4.122
  641TIP3   OH2 1865   7.211   0.019   1.264
  641TIP3    H1 1866   7.209   0.096   1.207
  641TIP3    H2 1867   7.219   0.054   1.352
  642TIP3   OH2 1868   3.758   3.835   1.481
  642TIP3    H1 1869   3.735   3.892   1.408
  642TIP3    H2 1870   3.675   3.802   1.514
  643TIP3   OH2 1871   4.757   1.019   4.423
  643TIP3    H1 1872   4.794   0.949   4.368
  643TIP3    H2 1873   4.783   1.100   4.379
  644TIP3   OH2 1874   4.956   6.092   4.886
  644TIP3    H1 1875   5.049   6.108   4.901
  644TIP3    H2 1876   4.954   6.010   4.835
  645TIP3   OH2 1877   4.489   0.047   5.398
  645TIP3    H1 1878   4.406   0.012   5.367
  645TIP3    H2 1879   4.556  -0.005   5.354
  646TIP3   OH2 1880   7.927   1.587   1.383
  646TIP3    H1 1881   7.834   1.565   1.386
  646TIP3    H2 1882   7.929   1.683   1.378
  647TIP3   OH2 1883   1.917   5.785   0.254
  647TIP3    H1 1884   1.990   5.841   0.228
  647TIP3    H2 1885   1.861   5.842   0.307
  648TIP3   OH2 1886   3.241   6.193   5.999
  648TIP3    H1 1887   3.329   6.209   6.033
  648TIP3    H2 1888   3.191   6.271   6.022
  649TIP3   OH2 1889   7.734   2.647   1.821
  649TIP3    H1 1890   7.645   2.678   1.841
  649TIP3    H2 1891   7.791   2.707   1.869
  650TIP3   OH2 1892   1.345   1.962   1.434
  650TIP3    H1 1893   1.314   1.872   1.449
  650TIP3    H2 1894   1.429   1.966   1.480
  651TIP3   OH2 1895   5.551   3.494   4.585
  651TIP3    H1 1896   5.560   3.400   4.605
  651TIP3    H2 1897   5.466   3.501   4.541
  652TIP3   OH2 1898   4.205   3.149  -0.001
  652TIP3    H1 1899   4.211   3.236  -0.040
  652TIP3    H2 1900   4.195   3.166   0.093
  653TIP3   OH2 1901   7.227   1.883   4.752
  653TIP3    H1 1902   7.268   1.969   4.749
  653TIP3    H2 1903   7.192   1.876   4.841
  654TIP3   OH2 1904   2.809   0.917   2.669
  654TIP3    H1 1905   2.873   0.937   2.737
  654TIP3    H2 1906   2.855   0.931   2.587
  655TIP3   OH2 1907   0.497   4.334   0.626
  655TIP3    H1 1908   0.567   4.300   0.571
  655TIP3    H2 1909   0.431   4.264   0.627
  656TIP3   OH2 1910   1.123   3.914   2.996
  656TIP3    H1 1911   1.077   3.977   2.940
  656TIP3    H2 1912   1.054   3.875   3.049
  657TIP3   OH2 1913   4.594   4.234   3.202
  657TIP3    H1 1914   4.525   4.206   3.262
  657TIP3    H2 1915   4.617   4.322   3.232
  658TIP3   OH2 1916   0.351   0.532   6.496
  658TIP3    H1 1917   0.280   0.555   6.437
  658TIP3    H2 1918   0.309   0.490   6.571
  659TIP3   OH2 1919   0.242   5.286   1.823
  659TIP3    H1 1920   0.262   5.216   1.886
  659TIP3    H2 1921   0.203   5.355   1.877
  660TIP3   OH2 1922   0.269   3.142   2.219
  660TIP3    H1 1923   0.208   3.210   2.247
  660TIP3    H2 1924   0.264   3.142   2.124
  661TIP3   OH2 1925   6.424   2.618   1.344
  661TIP3    H1 1926   6.476   2.688   1.305
  661TIP3    H2 1927   6.371   2.662   1.411
  662TIP3   OH2 1928   1.998   5.290   6.174
  662TIP3    H1 1929   1.949   5.295   6.093
  662TIP3    H2 1930   2.051   5.370   6.175
  663TIP3   OH2 1931   1.251   7.118   0.147
  663TIP3    H1 1932   1.183   7.074   0.096
  663TIP3    H2 1933   1.316   7.049   0.164
  664TIP3   OH2 1934   6.469   2.328   4.880
  664TIP3    H1 1935   6.485   2.362   4.968
  664TIP3    H2 1936   6.448   2.406   4.828
  665TIP3   OH2 1937   2.499   6.762   1.187
  665TIP3    H1 1938   2.513   6.721   1.101
  665TIP3    H2 1939   2.585   6.761   1.228
  666TIP3   OH2 1940   8.337   5.343   1.440
  666TIP3    H1 1941   8.384   5.352   1.357
  666TIP3    H2 1942   8.245   5.355   1.417
  667TIP3   OH2 1943   5.305   7.360   0.051
  667TIP3    H1 1944   5.289   7.358   0.145
  667TIP3    H2 1945   5.396   7.391   0.043
  668TIP3   OH2 1946   0.921   4.092   0.295
  668TIP3    H1 1947   0.924   4.008   0.248
  668TIP3    H2 1948   0.927   4.158   0.227
  669TIP3   OH2 1949   0.041   6.581   1.441
  669TIP3    H1 1950   0.136   6.576   1.452
  669TIP3    H2 1951   0.006   6.521   1.507
  670TIP3   OH2 1952   1.429   2.889   1.328
  670TIP3    H1 1953   1.521   2.914   1.338
  670TIP3    H2 1954   1.397   2.879   1.418
  671TIP3   OH2 1955   0.607   0.228   5.389
  671TIP3    H1 1956   0.679   0.291   5.393
  671TIP3    H2 1957   0.628   0.164   5.457
  672TIP3   OH2 1958   3.503   1.184   2.849
  672TIP3    H1 1959   3.570   1.245   2.881
  672TIP3    H2 1960   3.464   1.229   2.774
  673TIP3   OH2 1961   5.872   4.027   4.592
  673TIP3    H1 1962   5.923   3.994   4.666
  673TIP3    H2 1963   5.819   3.952   4.563
  674TIP3   OH2 1964   1.906   0.238   4.482
  674TIP3    H1 1965   1.825   0.278   4.450
  674TIP3    H2 1966   1.890   0.220   4.574
  675TIP3   OH2 1967   2.451   0.577   6.292
  675TIP3    H1 1968   2.508   0.591   6.216
  675TIP3    H2 1969   2.447   0.663   6.334
  676TIP3   OH2 1970   6.935   2.961   5.944
  676TIP3    H1 1971   6.952   3.046   5.904
  676TIP3    H2 1972   7.007   2.905   5.915
  677TIP3   OH2 1973   5.502   4.861   4.443
  677TIP3    H1 1974   5.561   4.786   4.434
  677TIP3    H2 1975   5.557   4.937   4.425
  678TIP3   OH2 1976   2.454   5.808   0.526
  678TIP3    H1 1977   2.395   5.883   0.534
  678TIP3    H2 1978   2.395   5.733   0.516
  679TIP3   OH2 1979   3.200   2.638   0.115
  679TIP3    H1 1980   3.273   2.685   0.155
  679TIP3    H2 1981   3.209   2.655   0.021
  680TIP3   OH2 1982   0.415   3.523   1.864
  680TIP3    H1 1983   0.322   3.536   1.881
  680TIP3    H2 1984   0.456   3.607   1.887
  681TIP3   OH2 1985   3.985   3.163   4.615
  681TIP3    H1 1986   4.057   3.201   4.666
  681TIP3    H2 1987   3.922   3.135   4.680
  682TIP3   OH2 1988   7.992   2.380   1.107
  682TIP3    H1 1989   7.966   2.468   1.079
  682TIP3    H2 1990   8.083   2.389   1.133
  683TIP3   OH2 1991   4.119   0.858   4.442
  683TIP3    H1 1992   4.103   0.938   4.392
  683TIP3    H2 1993   4.082   0.876   4.528
  684TIP3   OH2 1994   6.312   0.321   5.770
  684TIP3    H1 1995   6.327   0.347   5.861
  684TIP3    H2 1996   6.284   0.402   5.727
  685TIP3   OH2 1997   4.951   3.359   5.276
  685TIP3    H1 1998   4.865   3.368   5.236
  685TIP3    H2 1999   5.001   3.306   5.213
  686TIP3   OH2 2000   2.416   2.048   5.632
  686TIP3    H1 2001   2.466   1.970   5.655
  686TIP3    H2 2002   2.339   2.014   5.586
  687TIP3   OH2 2003   4.811   7.092   6.099
  687TIP3    H1 2004   4.790   7.061   6.011
  687TIP3    H2 2005   4.885   7.151   6.087
  688TIP3   OH2 2006   3.613   5.586   3.521
  688TIP3    H1 2007   3.682   5.554   3.579
  688TIP3    H2 2008   3.556   5.510   3.507
  689TIP3   OH2 2009   5.043   3.706   0.012
  689TIP3    H1 2010   5.038   3.728  -0.081
  689TIP3    H2 2011   5.135   3.683   0.025
  690TIP3   OH2 2012   1.276   4.640   6.624
  690TIP3    H1 2013   1.257   4.567   6.683
  690TIP3    H2 2014   1.327   4.701   6.677
  691TIP3   OH2 2015   1.724   6.135   4.913
  691TIP3    H1 2016   1.720   6.120   4.818
  691TIP3    H2 2017   1.816   6.124   4.935
  692TIP3   OH2 2018   8.024   3.860   4.110
  692TIP3    H1 2019   8.052   3.815   4.031
  692TIP3    H2 2020   7.933   3.833   4.122
  693TIP3   OH2 2021   2.099   6.821   2.914
  693TIP3    H1 2022   2.186   6.860   2.903
  693TIP3    H2 2023   2.039   6.887   2.880
  694TIP3   OH2 2024   6.942   4.228   1.232
  694TIP3    H1 2025   6.878   4.269   1.174
  694TIP3    H2 2026   6.945   4.137   1.205
  695TIP3   OH2 2027   6.389   5.254   6.238
  695TIP3    H1 2028   6.425   5.306   6.310
  695TIP3    H2 2029   6.332   5.190   6.281
  696TIP3   OH2 2030   6.045   5.097   5.810
  696TIP3    H1 2031   6.131   5.055   5.804
  696TIP3    H2 2032   5.983   5.025   5.805
  697TIP3   OH2 2033   6.299   7.454   6.324
  697TIP3    H1 2034   6.252   7.463   6.241
  697TIP3    H2 2035   6.274   7.367   6.356
  698TIP3   OH2 2036   1.929   3.235   2.337
  698TIP3    H1 2037   2.013   3.241   2.383
  698TIP3    H2 2038   1.920   3.142   2.317
  699TIP3   OH2 2039   2.474   6.016   0.136
  699TIP3    H1 2040   2.415   6.091   0.143
  699TIP3    H2 2041   2.518   6.028   0.052
  700TIP3   OH2 2042   6.597   6.927   5.708
  700TIP3    H1 2043   6.679   6.934   5.759
  700TIP3    H2 2044   6.594   6.836   5.680
  701TIP3   OH2 2045   2.143   2.959   3.918
  701TIP3    H1 2046   2.231   2.923   3.916
  701TIP3    H2 2047   2.150   3.043   3.872
  702TIP3   OH2 2048   2.273   4.483   1.897
  702TIP3    H1 2049   2.364   4.474   1.868
  702TIP3    H2 2050   2.279   4.515   1.986
  703TIP3   OH2 2051   0.144   6.803   6.292
  703TIP3    H1 2052   0.096   6.731   6.332
  703TIP3    H2 2053   0.141   6.873   6.357
  704TIP3   OH2 2054   8.024   0.562   2.343
  704TIP3    H1 2055   8.092   0.590   2.404
  704TIP3    H2 2056   8.067   0.561   2.258
  705TIP3   OH2 2057   1.515   0.255   2.829
  705TIP3    H1 2058   1.568   0.320   2.875
  705TIP3    H2 2059   1.480   0.302   2.754
  706TIP3   OH2 2060   6.183   3.301   1.615
  706TIP3    H1 2061   6.159   3.229   1.673
  706TIP3    H2 2062   6.267   3.332   1.649
  707TIP3   OH2 2063   3.992   1.593   2.994
  707TIP3    H1 2064   4.005   1.660   2.928
  707TIP3    H2 2065   3.896   1.585   3.001
  708TIP3   OH2 2066   1.159   7.241   1.207
  708TIP3    H1 2067   1.217   7.316   1.202
  708TIP3    H2 2068   1.077   7.272   1.169
  709TIP3   OH2 2069   2.796   1.409   1.881
  709TIP3    H1 2070   2.775   1.417   1.788
  709TIP3    H2 2071   2.888   1.433   1.887
  710TIP3   OH2 2072   0.817   0.260   6.209
  710TIP3    H1 2073   0.887   0.208   6.250
  710TIP3    H2 2074   0.740   0.242   6.263
  711TIP3   OH2 2075   5.665   3.228   3.401
  711TIP3    H1 2076   5.702   3.315   3.393
  711TIP3    H2 2077   5.626   3.210   3.315
  712TIP3   OH2 2078   8.164   1.681   1.607
  712TIP3    H1 2079   8.072   1.669   1.629
  712TIP3    H2 2080   8.205   1.596   1.625
  713TIP3   OH2 2081   6.175   7.479   2.521
  713TIP3    H1 2082   6.115   7.552   2.506
  713TIP3    H2 2083   6.176   7.467   2.616
  714TIP3   OH2 2084   4.686   6.256   0.883
  714TIP3    H1 2085   4.723   6.235   0.968
  714TIP3    H2 2086   4.746   6.322   0.846
  715TIP3   OH2 2087   6.174   6.538   3.202
  715TIP3    H1 2088   6.226   6.556   3.280
  715TIP3    H2 2089   6.212   6.594   3.134
  716TIP3   OH2 2090   2.809   2.741   2.450
  716TIP3    H1 2091   2.757   2.661   2.456
  716TIP3    H2 2092   2.750   2.804   2.409
  717TIP3   OH2 2093   1.184   2.559   3.111
  717TIP3    H1 2094   1.157   2.469   3.091
  717TIP3    H2 2095   1.274   2.565   3.078
  718TIP3   OH2 2096   6.706   5.787   1.327
  718TIP3    H1 2097   6.672   5.874   1.349
  718TIP3    H2 2098   6.663   5.728   1.390
  719TIP3   OH2 2099   2.770   0.433   1.275
  719TIP3    H1 2100   2.747   0.341   1.265
  719TIP3    H2 2101   2.848   0.445   1.221
  720TIP3   OH2 2102   1.899   1.032   5.170
  720TIP3    H1 2103   1.915   1.078   5.087
  720TIP3    H2 2104   1.888   0.941   5.145
  721TIP3   OH2 2105   7.560   4.465   4.723
  721TIP3    H1 2106   7.475   4.458   4.681
  721TIP3    H2 2107   7.578   4.377   4.755
  722TIP3   OH2 2108   0.076   3.561   6.014
  722TIP3    H1 2109   0.157   3.594   6.053
  722TIP3    H2 2110   0.027   3.639   5.990
  723TIP3   OH2 2111   0.299   5.999   2.909
  723TIP3    H1 2112   0.390   6.027   2.902
  723TIP3    H2 2113   0.303   5.904   2.901
  724TIP3   OH2 2114   4.008   3.314   0.291
  724TIP3    H1 2115   3.939   3.277   0.345
  724TIP3    H2 2116   4.079   3.251   0.296
  725TIP3   OH2 2117   7.644   4.061   5.616
  725TIP3    H1 2118   7.680   4.150   5.620
  725TIP3    H2 2119   7.697   4.018   5.549
  726TIP3   OH2 2120   1.752   1.352   2.513
  726TIP3    H1 2121   1.683   1.416   2.531
  726TIP3    H2 2122   1.741   1.285   2.580
  727TIP3   OH2 2123   1.754   5.746   4.644
  727TIP3    H1 2124   1.796   5.832   4.641
  727TIP3    H2 2125   1.809   5.695   4.704
  728TIP3   OH2 2126   1.547   6.261   0.744
  728TIP3    H1 2127   1.632   6.219   0.759
  728TIP3    H2 2128   1.483   6.196   0.771
  729TIP3   OH2 2129   1.520   2.319   3.761
  729TIP3    H1 2130   1.604   2.356   3.786
  729TIP3    H2 2131   1.476   2.389   3.712
  730TIP3   OH2 2132   5.750   7.318   1.488
  730TIP3    H1 2133   5.738   7.322   1.583
  730TIP3    H2 2134   5.807   7.392   1.468
  731TIP3   OH2 2135   1.375   7.573   5.819
  731TIP3    H1 2136   1.438   7.552   5.750
  731TIP3    H2 2137   1.386   7.667   5.833
  732TIP3   OH2 2138   3.891   5.355   1.000
  732TIP3    H1 2139   3.814   5.327   0.950
  732TIP3    H2 2140   3.956   5.378   0.933
  733TIP3   OH2 2141   0.231   2.686   3.406
  733TIP3    H1 2142   0.241   2.592   3.394
  733TIP3    H2 2143   0.301   2.724   3.352
  734TIP3   OH2 2144   7.255   5.269   1.950
  734TIP3    H1 2145   7.229   5.187   1.908
  734TIP3    H2 2146   7.172   5.313   1.968
  735TIP3   OH2 2147   5.957   0.464   6.629
  735TIP3    H1 2148   6.034   0.521   6.634
  735TIP3    H2 2149   5.980   0.397   6.566
  736TIP3   OH2 2150   7.763   7.134   3.075
  736TIP3    H1 2151   7.689   7.165   3.022
  736TIP3    H2 2152   7.785   7.049   3.037
  737TIP3   OH2 2153   2.348   1.119   4.526
  737TIP3    H1 2154   2.424   1.175   4.544
  737TIP3    H2 2155   2.274   1.171   4.557
  738TIP3   OH2 2156   4.201   4.621   6.488
  738TIP3    H1 2157   4.152   4.680   6.547
  738TIP3    H2 2158   4.292   4.632   6.514
  739TIP3   OH2 2159   4.096   4.384   6.257
  739TIP3    H1 2160   4.123   4.385   6.348
  739TIP3    H2 2161   4.059   4.471   6.242
  740TIP3   OH2 2162   1.988   7.799   5.567
  740TIP3    H1 2163   2.004   7.890   5.541
  740TIP3    H2 2164   1.940   7.806   5.650
  741TIP3   OH2 2165   6.017   1.537   0.292
  741TIP3    H1 2166   6.074   1.583   0.230
  741TIP3    H2 2167   6.060   1.549   0.377
  742TIP3   OH2 2168   3.036   1.260   6.598
  742TIP3    H1 2169   2.976   1.310   6.652
  742TIP3    H2 2170   3.037   1.173   6.638
  743TIP3   OH2 2171   2.964   1.308   3.864
  743TIP3    H1 2172   2.899   1.345   3.804
  743TIP3    H2 2173   3.047   1.323   3.821
  744TIP3   OH2 2174   2.497   5.552   1.864
  744TIP3    H1 2175   2.501   5.477   1.924
  744TIP3    H2 2176   2.403   5.568   1.853
  745TIP3   OH2 2177   5.205   7.670   3.178
  745TIP3    H1 2178   5.143   7.665   3.105
  745TIP3    H2 2179   5.153   7.697   3.253
  746TIP3   OH2 2180   5.403   2.538   6.689
  746TIP3    H1 2181   5.419   2.550   6.783
  746TIP3    H2 2182   5.491   2.535   6.650
  747TIP3   OH2 2183   6.031   2.536   0.677
  747TIP3    H1 2184   6.039   2.630   0.692
  747TIP3    H2 2185   6.109   2.513   0.627
  748TIP3   OH2 2186   2.400   3.660   1.843
  748TIP3    H1 2187   2.355   3.583   1.878
  748TIP3    H2 2188   2.414   3.716   1.919
  749TIP3   OH2 2189   4.529   5.522   3.516
  749TIP3    H1 2190   4.609   5.474   3.538
  749TIP3    H2 2191   4.478   5.461   3.463
  750TIP3   OH2 2192   7.672   5.445   6.473
  750TIP3    H1 2193   7.644   5.354   6.473
  750TIP3    H2 2194   7.723   5.455   6.553
  751TIP3   OH2 2195   6.596   4.022   2.894
  751TIP3    H1 2196   6.658   3.949   2.892
  751TIP3    H2 2197   6.518   3.987   2.935
  752TIP3   OH2 2198   3.438   7.516   1.707
  752TIP3    H1 2199   3.526   7.478   1.708
  752TIP3    H2 2200   3.413   7.515   1.615
  753TIP3   OH2 2201   4.921   3.928   3.478
  753TIP3    H1 2202   4.863   3.967   3.412
  753TIP3    H2 2203   4.879   3.845   3.501
  754TIP3   OH2 2204   8.177   0.578   2.588
  754TIP3    H1 2205   8.229   0.498   2.595
  754TIP3    H2 2206   8.090   0.554   2.617
  755TIP3   OH2 2207   3.621   1.377   1.261
  755TIP3    H1 2208   3.557   1.340   1.200
  755TIP3    H2 2209   3.606   1.330   1.343
  756TIP3   OH2 2210   6.031   4.404   1.150
  756TIP3    H1 2211   5.975   4.355   1.089
  756TIP3    H2 2212   6.093   4.450   1.093
  757TIP3   OH2 2213   4.613   7.231   0.967
  757TIP3    H1 2214   4.616   7.317   1.009
  757TIP3    H2 2215   4.685   7.233   0.904
  758TIP3   OH2 2216   7.573   1.020   5.381
  758TIP3    H1 2217   7.602   0.932   5.360
  758TIP3    H2 2218   7.498   1.007   5.439
  759TIP3   OH2 2219   3.281   3.682   6.471
  759TIP3    H1 2220   3.215   3.646   6.411
  759TIP3    H2 2221   3.350   3.715   6.414
  760TIP3   OH2 2222   7.235   2.954   1.609
  760TIP3    H1 2223   7.257   2.897   1.682
  760TIP3    H2 2224   7.270   3.040   1.633
  761TIP3   OH2 2225   6.052   0.513   1.740
  761TIP3    H1 2226   6.082   0.424   1.759
  761TIP3    H2 2227   6.020   0.508   1.650
  762TIP3   OH2 2228   7.099   1.548   0.843
  762TIP3    H1 2229   7.184   1.587   0.861
  762TIP3    H2 2230   7.036   1.607   0.886
  763TIP3   OH2 2231   3.253   2.449   5.645
  763TIP3    H1 2232   3.194   2.379   5.672
  763TIP3    H2 2233   3.324   2.446   5.709
  764TIP3   OH2 2234   4.165   1.151   4.564
  764TIP3    H1 2235   4.176   1.086   4.494
  764TIP3    H2 2236   4.241   1.138   4.621
  765TIP3   OH2 2237   1.214   5.345   6.413
  765TIP3    H1 2238   1.275   5.330   6.341
  765TIP3    H2 2239   1.259   5.409   6.469
  766TIP3   OH2 2240   1.544   4.422   1.091
  766TIP3    H1 2241   1.532   4.327   1.084
  766TIP3    H2 2242   1.456   4.458   1.077
  767TIP3   OH2 2243   7.869   5.018   6.393
  767TIP3    H1 2244   7.804   5.010   6.324
  767TIP3    H2 2245   7.899   5.109   6.389
  768TIP3   OH2 2246   1.188   5.623   0.332
  768TIP3    H1 2247   1.238   5.572   0.395
  768TIP3    H2 2248   1.203   5.715   0.357
  769TIP3   OH2 2249   6.836   3.912   1.409
  769TIP3    H1 2250   6.897   3.966   1.459
  769TIP3    H2 2251   6.841   3.945   1.320
  770TIP3   OH2 2252   5.788   2.312   4.411
  770TIP3    H1 2253   5.877   2.305   4.444
  770TIP3    H2 2254   5.777   2.236   4.353
  771TIP3   OH2 2255   5.205   5.089   0.843
  771TIP3    H1 2256   5.291   5.117   0.875
  771TIP3    H2 2257   5.145   5.111   0.914
  772TIP3   OH2 2258   3.403   3.145   3.798
  772TIP3    H1 2259   3.468   3.215   3.791
  772TIP3    H2 2260   3.423   3.086   3.725
  773TIP3   OH2 2261   5.475   1.794   0.574
  773TIP3    H1 2262   5.465   1.740   0.496
  773TIP3    H2 2263   5.392   1.843   0.581
  774TIP3   OH2 2264   1.306   7.288   3.478
  774TIP3    H1 2265   1.391   7.244   3.482
  774TIP3    H2 2266   1.262   7.261   3.559
  775TIP3   OH2 2267   2.842   1.951   5.282
  775TIP3    H1 2268   2.756   1.913   5.264
  775TIP3    H2 2269   2.831   2.045   5.269
  776TIP3   OH2 2270   2.568   3.603   6.531
  776TIP3    H1 2271   2.499   3.542   6.556
  776TIP3    H2 2272   2.646   3.548   6.522
  777TIP3   OH2 2273   4.398   6.044   4.197
  777TIP3    H1 2274   4.403   6.095   4.278
  777TIP3    H2 2275   4.328   5.982   4.212
  778TIP3   OH2 2276   6.318   5.521   3.925
  778TIP3    H1 2277   6.242   5.576   3.906
  778TIP3    H2 2278   6.330   5.530   4.020
  779TIP3   OH2 2279   3.379   7.535   6.410
  779TIP3    H1 2280   3.468   7.500   6.410
  779TIP3    H2 2281   3.323   7.460   6.431
  780TIP3   OH2 2282   5.287   2.602   4.575
  780TIP3    H1 2283   5.375   2.572   4.600
  780TIP3    H2 2284   5.248   2.632   4.657
  781TIP3   OH2 2285   7.097   7.173   1.233
  781TIP3    H1 2286   7.013   7.203   1.268
  781TIP3    H2 2287   7.124   7.242   1.172
  782TIP3   OH2 2288   6.313   2.462   5.154
  782TIP3    H1 2289   6.284   2.533   5.096
  782TIP3    H2 2290   6.241   2.452   5.217
  783TIP3   OH2 2291   1.243   1.796   2.919
  783TIP3    H1 2292   1.282   1.829   3.000
  783TIP3    H2 2293   1.316   1.754   2.873
  784TIP3   OH2 2294   7.454   0.098   1.926
  784TIP3    H1 2295   7.530   0.068   1.975
  784TIP3    H2 2296   7.379   0.060   1.972
  785TIP3   OH2 2297   7.521   4.666   1.177
  785TIP3    H1 2298   7.428   4.682   1.192
  785TIP3    H2 2299   7.556   4.645   1.263
  786TIP3   OH2 2300   0.947   5.161   5.149
  786TIP3    H1 2301   0.852   5.175   5.150
  786TIP3    H2 2302   0.976   5.202   5.067
  787TIP3   OH2 2303   0.262   1.712   5.662
  787TIP3    H1 2304   0.217   1.722   5.746
  787TIP3    H2 2305   0.224   1.633   5.624
  788TIP3   OH2 2306   4.238   5.364   6.096
  788TIP3    H1 2307   4.211   5.390   6.008
  788TIP3    H2 2308   4.258   5.271   6.089
  789TIP3   OH2 2309   7.014   4.237   0.255
  789TIP3    H1 2310   7.053   4.301   0.314
  789TIP3    H2 2311   7.089   4.190   0.217
  790TIP3   OH2 2312   3.934   1.735   4.314
  790TIP3    H1 2313   4.025   1.707   4.318
  790TIP3    H2 2314   3.938   1.831   4.313
  791TIP3   OH2 2315   0.178   7.773   5.926
  791TIP3    H1 2316   0.218   7.698   5.883
  791TIP3    H2 2317   0.114   7.735   5.987
  792TIP3   OH2 2318   1.601   4.125   4.293
  792TIP3    H1 2319   1.620   4.075   4.372
  792TIP3    H2 2320   1.677   4.182   4.281
  793TIP3   OH2 2321   5.668   0.740   6.429
  793TIP3    H1 2322   5.619   0.677   6.376
  793TIP3    H2 2323   5.680   0.696   6.513
  794TIP3   OH2 2324   7.735   4.350   5.848
  794TIP3    H1 2325   7.790   4.298   5.789
  794TIP3    H2 2326   7.655   4.366   5.799
  795TIP3   OH2 2327   1.577   0.912   4.129
  795TIP3    H1 2328   1.534   0.840   4.082
  795TIP3    H2 2329   1.554   0.898   4.220
  796TIP3   OH2 2330   0.287   2.059   5.537
  796TIP3    H1 2331   0.288   2.094   5.448
  796TIP3    H2 2332   0.378   2.036   5.555
  797TIP3   OH2 2333   1.272   7.475   4.481
  797TIP3    H1 2334   1.273   7.383   4.457
  797TIP3    H2 2335   1.210   7.515   4.420
  798TIP3   OH2 2336   4.809   6.634   2.113
  798TIP3    H1 2337   4.874   6.564   2.117
  798TIP3    H2 2338   4.724   6.589   2.120
  799TIP3   OH2 2339   8.070   1.393   6.319
  799TIP3    H1 2340   8.063   1.375   6.225
  799TIP3    H2 2341   8.024   1.476   6.331
  800TIP3   OH2 2342   2.694   3.717   5.568
  800TIP3    H1 2343   2.767   3.664   5.535
  800TIP3    H2 2344   2.705   3.717   5.663
  801TIP3   OH2 2345   3.549   0.215   6.046
  801TIP3    H1 2346   3.503   0.235   6.127
  801TIP3    H2 2347   3.494   0.150   6.003
  802TIP3   OH2 2348   2.545   0.431   5.222
  802TIP3    H1 2349   2.467   0.374   5.218
  802TIP3    H2 2350   2.514   0.509   5.268
  803TIP3   OH2 2351   2.313   5.780   1.349
  803TIP3    H1 2352   2.343   5.750   1.263
  803TIP3    H2 2353   2.386   5.761   1.408
  804TIP3   OH2 2354   2.574   0.952   5.697
  804TIP3    H1 2355   2.629   1.009   5.750
  804TIP3    H2 2356   2.503   0.926   5.755
  805TIP3   OH2 2357   1.960   7.583   5.104
  805TIP3    H1 2358   1.954   7.602   5.010
  805TIP3    H2 2359   1.890   7.635   5.144
  806TIP3   OH2 2360   8.262   5.463   6.658
  806TIP3    H1 2361   8.304   5.444   6.743
  806TIP3    H2 2362   8.335   5.485   6.600
  807TIP3   OH2 2363   1.403   0.172   3.155
  807TIP3    H1 2364   1.425   0.099   3.099
  807TIP3    H2 2365   1.325   0.211   3.114
  808TIP3   OH2 2366   5.071   3.064   2.213
  808TIP3    H1 2367   5.114   3.094   2.133
  808TIP3    H2 2368   5.133   3.003   2.253
  809TIP3   OH2 2369   7.320   4.839   2.435
  809TIP3    H1 2370   7.283   4.902   2.372
  809TIP3    H2 2371   7.243   4.798   2.475
  810TIP3   OH2 2372   2.802   1.052   3.736
  810TIP3    H1 2373   2.775   1.140   3.764
  810TIP3    H2 2374   2.754   0.993   3.795
  811TIP3   OH2 2375   7.446   2.654   3.676
  811TIP3    H1 2376   7.539   2.670   3.691
  811TIP3    H2 2377   7.402   2.715   3.736
  812TIP3   OH2 2378   4.991   1.924   0.998
  812TIP3    H1 2379   5.013   2.016   0.985
  812TIP3    H2 2380   5.042   1.898   1.075
  813TIP3   OH2 2381   2.823   3.022   6.194
  813TIP3    H1 2382   2.811   2.933   6.160
  813TIP3    H2 2383   2.911   3.021   6.231
  814TIP3   OH2 2384   0.338   6.830   4.344
  814TIP3    H1 2385   0.348   6.925   4.341
  814TIP3    H2 2386   0.245   6.817   4.361
  815TIP3   OH2 2387   4.850   5.931   3.251
  815TIP3    H1 2388   4.930   5.881   3.235
  815TIP3    H2 2389   4.786   5.866   3.278
  816TIP3   OH2 2390   6.734   1.117   1.925
  816TIP3    H1 2391   6.798   1.115   1.996
  816TIP3    H2 2392   6.778   1.073   1.852
  817TIP3   OH2 2393   3.095   3.313   4.882
  817TIP3    H1 2394   3.107   3.218   4.890
  817TIP3    H2 2395   3.177   3.350   4.915
  818TIP3   OH2 2396   7.251   3.593   2.270
  818TIP3    H1 2397   7.327   3.549   2.232
  818TIP3    H2 2398   7.251   3.566   2.362
  819TIP3   OH2 2399   3.806   6.103   4.498
  819TIP3    H1 2400   3.781   6.023   4.544
  819TIP3    H2 2401   3.891   6.084   4.459
  820TIP3   OH2 2402   7.927   5.168   2.324
  820TIP3    H1 2403   7.962   5.206   2.243
  820TIP3    H2 2404   7.872   5.096   2.294
  821TIP3   OH2 2405   5.627   5.405   4.157
  821TIP3    H1 2406   5.610   5.385   4.065
  821TIP3    H2 2407   5.643   5.499   4.158
  822TIP3   OH2 2408   1.919   3.586   6.018
  822TIP3    H1 2409   1.838   3.547   6.050
  822TIP3    H2 2410   1.904   3.598   5.924
  823TIP3   OH2 2411   5.556   0.757   3.963
  823TIP3    H1 2412   5.551   0.840   4.011
  823TIP3    H2 2413   5.528   0.779   3.874
  824TIP3   OH2 2414   1.798   6.463   4.255
  824TIP3    H1 2415   1.816   6.550   4.292
  824TIP3    H2 2416   1.808   6.475   4.160
  825TIP3   OH2 2417   7.174   4.150   6.441
  825TIP3    H1 2418   7.142   4.179   6.527
  825TIP3    H2 2419   7.217   4.227   6.405
  826TIP3   OH2 2420   5.650   5.123   4.381
  826TIP3    H1 2421   5.690   5.067   4.447
  826TIP3    H2 2422   5.705   5.201   4.377
  827TIP3   OH2 2423   7.263   1.461   4.869
  827TIP3    H1 2424   7.198   1.458   4.939
  827TIP3    H2 2425   7.339   1.413   4.904
  828TIP3   OH2 2426   3.495   0.826   2.449
  828TIP3    H1 2427   3.465   0.791   2.533
  828TIP3    H2 2428   3.492   0.921   2.460
  829TIP3   OH2 2429   1.698   2.184   0.494
  829TIP3    H1 2430   1.659   2.238   0.425
  829TIP3    H2 2431   1.702   2.096   0.457
  830TIP3   OH2 2432   6.159   0.606   4.344
  830TIP3    H1 2433   6.074   0.591   4.302
  830TIP3    H2 2434   6.190   0.689   4.307
  831TIP3   OH2 2435   3.908   2.266   6.226
  831TIP3    H1 2436   3.952   2.313   6.155
  831TIP3    H2 2437   3.978   2.249   6.290
  832TIP3   OH2 2438   7.078   2.945   2.899
  832TIP3    H1 2439   7.119   2.976   2.980
  832TIP3    H2 2440   7.101   3.011   2.834
  833TIP3   OH2 2441   6.976   3.188   2.499
  833TIP3    H1 2442   7.011   3.168   2.586
  833TIP3    H2 2443   6.891   3.143   2.496
  834TIP3   OH2 2444   1.217   3.309   5.506
  834TIP3    H1 2445   1.283   3.246   5.478
  834TIP3    H2 2446   1.263   3.392   5.512
  835TIP3   OH2 2447   6.921   5.132   0.455
  835TIP3    H1 2448   7.001   5.103   0.499
  835TIP3    H2 2449   6.942   5.127   0.362
  836TIP3   OH2 2450   1.687   0.744   2.387
  836TIP3    H1 2451   1.704   0.652   2.367
  836TIP3    H2 2452   1.764   0.773   2.435
  837TIP3   OH2 2453   0.657   5.530   3.214
  837TIP3    H1 2454   0.733   5.520   3.158
  837TIP3    H2 2455   0.647   5.625   3.225
  838TIP3   OH2 2456   3.882   3.667   5.877
  838TIP3    H1 2457   3.901   3.575   5.893
  838TIP3    H2 2458   3.950   3.715   5.925
  839TIP3   OH2 2459   4.938   6.484   1.603
  839TIP3    H1 2460   4.974   6.560   1.649
  839TIP3    H2 2461   4.902   6.428   1.673
  840TIP3   OH2 2462   1.610   6.862   5.831
  840TIP3    H1 2463   1.601   6.780   5.782
  840TIP3    H2 2464   1.672   6.841   5.901
  841TIP3   OH2 2465   7.870   7.399   3.627
  841TIP3    H1 2466   7.891   7.475   3.681
  841TIP3    H2 2467   7.794   7.427   3.576
  842TIP3   OH2 2468   1.603   6.148   6.078
  842TIP3    H1 2469   1.688   6.191   6.089
  842TIP3    H2 2470   1.578   6.167   5.988
  843TIP3   OH2 2471   7.299   4.933   4.937
  843TIP3    H1 2472   7.392   4.953   4.930
  843TIP3    H2 2473   7.290   4.848   4.893
  844TIP3   OH2 2474   6.657   5.068   0.176
  844TIP3    H1 2475   6.750   5.045   0.168
  844TIP3    H2 2476   6.612   5.006   0.118
  845TIP3   OH2 2477   3.405   4.582   3.383
  845TIP3    H1 2478   3.448   4.627   3.311
  845TIP3    H2 2479   3.465   4.594   3.457
  846TIP3   OH2 2480   3.571   7.739   3.430
  846TIP3    H1 2481   3.591   7.740   3.524
  846TIP3    H2 2482   3.630   7.803   3.391
  847TIP3   OH2 2483   6.184   1.676   3.005
  847TIP3    H1 2484   6.216   1.588   3.027
  847TIP3    H2 2485   6.201   1.728   3.084
  848TIP3   OH2 2486   0.536   3.194   0.803
  848TIP3    H1 2487   0.444   3.172   0.791
  848TIP3    H2 2488   0.584   3.120   0.765
  849TIP3   OH2 2489   7.210   7.573   1.853
  849TIP3    H1 2490   7.279   7.596   1.791
  849TIP3    H2 2491   7.240   7.492   1.894
  850TIP3   OH2 2492   4.601   2.814   2.208
  850TIP3    H1 2493   4.589   2.719   2.219
  850TIP3    H2 2494   4.560   2.852   2.286
  851TIP3   OH2 2495   5.472   1.907   4.344
  851TIP3    H1 2496   5.535   1.895   4.415
  851TIP3    H2 2497   5.522   1.949   4.274
  852TIP3   OH2 2498   1.331   1.293   5.546
  852TIP3    H1 2499   1.347   1.299   5.451
  852TIP3    H2 2500   1.393   1.227   5.576
  853TIP3   OH2 2501   2.149   5.156   3.117
  853TIP3    H1 2502   2.234   5.134   3.080
  853TIP3    H2 2503   2.149   5.251   3.124
  854TIP3   OH2 2504   5.486   1.311   1.888
  854TIP3    H1 2505   5.512   1.347   1.973
  854TIP3    H2 2506   5.399   1.275   1.903
  855TIP3   OH2 2507   2.148   4.041   1.083
  855TIP3    H1 2508   2.178   4.105   1.019
  855TIP3    H2 2509   2.084   4.088   1.136
  856TIP3   OH2 2510   2.001   6.083   5.044
  856TIP3    H1 2511   2.029   6.145   5.111
  856TIP3    H2 2512   2.072   6.019   5.040
  857TIP3   OH2 2513   5.997   0.645   4.782
  857TIP3    H1 2514   5.910   0.607   4.778
  857TIP3    H2 2515   6.045   0.590   4.844
  858TIP3   OH2 2516   8.178   1.745   5.044
  858TIP3    H1 2517   8.093   1.721   5.009
  858TIP3    H2 2518   8.162   1.760   5.137
  859TIP3   OH2 2519   6.904   7.164   2.337
  859TIP3    H1 2520   6.896   7.192   2.428
  859TIP3    H2 2521   6.814   7.141   2.311
  860TIP3   OH2 2522   5.474   1.044   3.608
  860TIP3    H1 2523   5.433   0.966   3.644
  860TIP3    H2 2524   5.406   1.086   3.556
  861TIP3   OH2 2525   2.407   0.316   6.406
  861TIP3    H1 2526   2.370   0.235   6.372
  861TIP3    H2 2527   2.384   0.382   6.342
  862TIP3   OH2 2528   0.352   5.456   0.901
  862TIP3    H1 2529   0.438   5.481   0.868
  862TIP3    H2 2530   0.338   5.513   0.978
  863TIP3   OH2 2531   4.508   7.364   2.105
  863TIP3    H1 2532   4.508   7.269   2.107
  863TIP3    H2 2533   4.454   7.387   2.029
  864TIP3   OH2 2534   3.031   3.697   2.300
  864TIP3    H1 2535   3.062   3.652   2.379
  864TIP3    H2 2536   3.060   3.642   2.227
  865TIP3   OH2 2537   6.052   0.121   3.448
  865TIP3    H1 2538   6.139   0.140   3.415
  865TIP3    H2 2539   6.010   0.206   3.457
  866TIP3   OH2 2540   0.327   2.730   5.341
  866TIP3    H1 2541   0.257   2.795   5.333
  866TIP3    H2 2542   0.387   2.751   5.269
  867TIP3   OH2 2543   1.208   3.006   3.073
  867TIP3    H1 2544   1.300   3.011   3.047
  867TIP3    H2 2545   1.163   2.978   2.993
  868TIP3   OH2 2546   3.468   7.754   1.801
  868TIP3    H1 2547   3.486   7.809   1.725
  868TIP3    H2 2548   3.461   7.665   1.766
  869TIP3   OH2 2549   5.027   0.447   2.523
  869TIP3    H1 2550   5.064   0.443   2.611
  869TIP3    H2 2551   5.009   0.356   2.501
  870TIP3   OH2 2552   6.776   2.735   1.230
  870TIP3    H1 2553   6.764   2.780   1.314
  870TIP3    H2 2554   6.763   2.643   1.250
  871TIP3   OH2 2555   1.664   7.203   4.520
  871TIP3    H1 2556   1.746   7.233   4.482
  871TIP3    H2 2557   1.670   7.226   4.612
  872TIP3   OH2 2558   1.100   7.659   3.544
  872TIP3    H1 2559   1.182   7.700   3.572
  872TIP3    H2 2560   1.032   7.709   3.589
  873TIP3   OH2 2561   5.179   5.569   3.670
  873TIP3    H1 2562   5.162   5.582   3.763
  873TIP3    H2 2563   5.254   5.624   3.651
  874TIP3   OH2 2564   2.491   3.972   0.251
  874TIP3    H1 2565   2.496   4.009   0.339
  874TIP3    H2 2566   2.533   4.037   0.195
  875TIP3   OH2 2567   8.075   1.779   4.370
  875TIP3    H1 2568   8.142   1.808   4.307
  875TIP3    H2 2569   8.125   1.734   4.438
  876TIP3   OH2 2570   0.998   7.623   6.638
  876TIP3    H1 2571   0.956   7.593   6.719
  876TIP3    H2 2572   0.956   7.571   6.569
  877TIP3   OH2 2573   6.462   2.671   5.961
  877TIP3    H1 2574   6.490   2.681   5.869
  877TIP3    H2 2575   6.370   2.698   5.961
  878TIP3   OH2 2576   0.088   6.332   3.327
  878TIP3    H1 2577   0.037   6.313   3.249
  878TIP3    H2 2578   0.022   6.346   3.396
  879TIP3   OH2 2579   2.042   2.646   1.573
  879TIP3    H1 2580   1.966   2.612   1.526
  879TIP3    H2 2581   2.028   2.741   1.576
  880TIP3   OH2 2582   1.337   4.617   5.451
  880TIP3    H1 2583   1.309   4.648   5.537
  880TIP3    H2 2584   1.430   4.639   5.446
  881TIP3   OH2 2585   5.272   2.069   1.921
  881TIP3    H1 2586   5.337   2.015   1.965
  881TIP3    H2 2587   5.290   2.059   1.828
  882TIP3   OH2 2588   0.506   1.244   3.757
  882TIP3    H1 2589   0.529   1.257   3.665
  882TIP3    H2 2590   0.428   1.298   3.769
  883TIP3   OH2 2591   4.074   4.857   2.824
  883TIP3    H1 2592   4.063   4.947   2.855
  883TIP3    H2 2593   3.991   4.814   2.845
  884TIP3   OH2 2594   4.441   5.841   0.005
  884TIP3    H1 2595   4.391   5.864   0.083
  884TIP3    H2 2596   4.525   5.886   0.015
  885TIP3   OH2 2597   2.083   0.197   2.371
  885TIP3    H1 2598   2.108   0.234   2.286
  885TIP3    H2 2599   2.113   0.106   2.367
  886TIP3   OH2 2600   0.151   7.046   0.995
  886TIP3    H1 2601   0.186   7.104   0.927
  886TIP3    H2 2602   0.227   7.022   1.047
  887TIP3   OH2 2603   2.641   2.479   2.488
  887TIP3    H1 2604   2.693   2.399   2.480
  887TIP3    H2 2605   2.566   2.463   2.430
  888TIP3   OH2 2606   5.146   5.729   1.969
  888TIP3    H1 2607   5.232   5.712   2.007
  888TIP3    H2 2608   5.089   5.744   2.045
  889TIP3   OH2 2609   3.193   6.982   0.822
  889TIP3    H1 2610   3.162   6.919   0.757
  889TIP3    H2 2611   3.260   7.033   0.777
  890TIP3   OH2 2612   0.926   1.181   1.513
  890TIP3    H1 2613   1.011   1.139   1.501
  890TIP3    H2 2614   0.936   1.234   1.592
  891TIP3   OH2 2615   8.238   1.385   4.319
  891TIP3    H1 2616   8.283   1.441   4.256
  891TIP3    H2 2617   8.149   1.421   4.324
  892TIP3   OH2 2618   3.758   3.846   4.668
  892TIP3    H1 2619   3.671   3.869   4.637
  892TIP3    H2 2620   3.807   3.824   4.589
  893TIP3   OH2 2621   0.510   1.422   5.297
  893TIP3    H1 2622   0.546   1.376   5.374
  893TIP3    H2 2623   0.570   1.496   5.284
  894TIP3   OH2 2624   3.622   1.258   2.536
  894TIP3    H1 2625   3.691   1.238   2.600
  894TIP3    H2 2626   3.565   1.319   2.581
  895TIP3   OH2 2627   6.543   5.083   0.422
  895TIP3    H1 2628   6.450   5.102   0.409
  895TIP3    H2 2629   6.582   5.090   0.335
  896TIP3   OH2 2630   1.454   3.343   5.745
  896TIP3    H1 2631   1.365   3.360   5.776
  896TIP3    H2 2632   1.463   3.248   5.747
  897TIP3   OH2 2633   0.157   2.481   3.037
  897TIP3    H1 2634   0.125   2.427   2.965
  897TIP3    H2 2635   0.083   2.484   3.099
  898TIP3   OH2 2636   3.862   5.768   5.410
  898TIP3    H1 2637   3.912   5.847   5.389
  898TIP3    H2 2638   3.778   5.780   5.365
  899TIP3   OH2 2639   3.893   3.145   2.233
  899TIP3    H1 2640   3.875   3.195   2.313
  899TIP3    H2 2641   3.957   3.199   2.186
  900TIP3   OH2 2642   7.912   6.870   6.232
  900TIP3    H1 2643   7.928   6.961   6.259
  900TIP3    H2 2644   7.987   6.848   6.177
  901TIP3   OH2 2645   4.766   4.769   5.009
  901TIP3    H1 2646   4.740   4.704   4.944
  901TIP3    H2 2647   4.862   4.768   5.007
  902TIP3   OH2 2648   5.883   4.105   4.909
  902TIP3    H1 2649   5.925   4.084   4.992
  902TIP3    H2 2650   5.936   4.060   4.843
  903TIP3   OH2 2651   1.504   1.616   6.622
  903TIP3    H1 2652   1.456   1.624   6.704
  903TIP3    H2 2653   1.594   1.637   6.644
  904TIP3   OH2 2654   7.648   7.478   3.163
  904TIP3    H1 2655   7.698   7.505   3.086
  904TIP3    H2 2656   7.703   7.503   3.238
  905TIP3   OH2 2657   4.949   5.382   2.830
  905TIP3    H1 2658   4.922   5.337   2.750
  905TIP3    H2 2659   4.982   5.312   2.886
  906TIP3   OH2 2660   5.157   4.854   3.826
  906TIP3    H1 2661   5.206   4.782   3.785
  906TIP3    H2 2662   5.223   4.903   3.876
  907TIP3   OH2 2663   3.535   4.979   5.211
  907TIP3    H1 2664   3.565   4.984   5.302
  907TIP3    H2 2665   3.572   5.057   5.170
  908TIP3   OH2 2666   2.856   2.990   6.601
  908TIP3    H1 2667   2.893   2.907   6.631
  908TIP3    H2 2668   2.894   3.055   6.661
  909TIP3   OH2 2669   1.147   0.510   6.692
  909TIP3    H1 2670   1.156   0.556   6.609
  909TIP3    H2 2671   1.125   0.420   6.668
  910TIP3   OH2 2672   4.995   7.330   6.052
  910TIP3    H1 2673   5.034   7.270   5.988
  910TIP3    H2 2674   4.999   7.416   6.009
  911TIP3   OH2 2675   6.908   3.469   5.256
  911TIP3    H1 2676   6.986   3.512   5.290
  911TIP3    H2 2677   6.938   3.420   5.180
  912TIP3   OH2 2678   2.171   7.180   2.733
  912TIP3    H1 2679   2.079   7.177   2.757
  912TIP3    H2 2680   2.183   7.108   2.672
  913TIP3   OH2 2681   6.469   3.970   1.769
  913TIP3    H1 2682   6.387   4.016   1.752
  913TIP3    H2 2683   6.497   4.001   1.855
  914TIP3   OH2 2684   1.723   1.655   6.745
  914TIP3    H1 2685   1.811   1.646   6.782
  914TIP3    H2 2686   1.695   1.743   6.771
  915TIP3   OH2 2687   2.234   6.838   4.908
  915TIP3    H1 2688   2.144   6.857   4.934
  915TIP3    H2 2689   2.229   6.754   4.863
  916TIP3   OH2 2690   4.402   6.759   2.944
  916TIP3    H1 2691   4.406   6.846   2.904
  916TIP3    H2 2692   4.460   6.765   3.020
  917TIP3   OH2 2693   4.991   2.175   1.353
  917TIP3    H1 2694   4.976   2.264   1.384
  917TIP3    H2 2695   4.988   2.182   1.257
  918TIP3   OH2 2696   0.911   3.082   2.446
  918TIP3    H1 2697   0.842   3.108   2.386
  918TIP3    H2 2698   0.908   3.148   2.516
  919TIP3   OH2 2699   0.009   5.200   1.675
  919TIP3    H1 2700   0.075   5.217   1.742
  919TIP3    H2 2701   0.044   5.241   1.596
  920TIP3   OH2 2702   4.370   5.862   5.818
  920TIP3    H1 2703   4.344   5.951   5.791
  920TIP3    H2 2704   4.461   5.871   5.846
  921TIP3   OH2 2705   0.550   3.153   3.108
  921TIP3    H1 2706   0.555   3.072   3.057
  921TIP3    H2 2707   0.635   3.194   3.096
  922TIP3   OH2 2708   6.704   2.176   2.731
  922TIP3    H1 2709   6.739   2.219   2.654
  922TIP3    H2 2710   6.627   2.128   2.699
  923TIP3   OH2 2711   7.385   2.416   5.716
  923TIP3    H1 2712   7.392   2.333   5.668
  923TIP3    H2 2713   7.400   2.393   5.807
  924TIP3   OH2 2714   5.959   2.789   4.877
  924TIP3    H1 2715   5.896   2.821   4.941
  924TIP3    H2 2716   5.928   2.825   4.794
  925TIP3   OH2 2717   0.350   0.966   4.589
  925TIP3    H1 2718   0.374   0.896   4.649
  925TIP3    H2 2719   0.254   0.962   4.585
  926TIP3   OH2 2720   5.231   5.706   6.255
  926TIP3    H1 2721   5.274   5.761   6.189
  926TIP3    H2 2722   5.173   5.766   6.302
  927TIP3   OH2 2723   7.838   3.255   6.006
  927TIP3    H1 2724   7.764   3.270   5.947
  927TIP3    H2 2725   7.810   3.182   6.062
  928TIP3   OH2 2726   4.352   6.569   5.871
  928TIP3    H1 2727   4.436   6.567   5.827
  928TIP3    H2 2728   4.346   6.485   5.917
  929TIP3   OH2 2729   3.583   5.896   2.706
  929TIP3    H1 2730   3.503   5.926   2.749
  929TIP3    H2 2731   3.643   5.876   2.778
  930TIP3   OH2 2732   6.105   7.268   1.473
  930TIP3    H1 2733   6.044   7.224   1.532
  930TIP3    H2 2734   6.156   7.198   1.433
  931TIP3   OH2 2735   3.567   3.894   1.014
  931TIP3    H1 2736   3.506   3.821   1.022
  931TIP3    H2 2737   3.512   3.972   1.018
  932TIP3   OH2 2738   5.179   6.772   6.414
  932TIP3    H1 2739   5.170   6.681   6.441
  932TIP3    H2 2740   5.089   6.805   6.411
  933TIP3   OH2 2741   0.522   1.988   0.216
  933TIP3    H1 2742   0.455   1.983   0.284
  933TIP3    H2 2743   0.533   1.897   0.186
  934TIP3   OH2 2744   4.577   6.385   6.675
  934TIP3    H1 2745   4.655   6.346   6.636
  934TIP3    H2 2746   4.544   6.444   6.607
  935TIP3   OH2 2747   6.327   1.837   0.022
  935TIP3    H1 2748   6.270   1.763   0.044
  935TIP3    H2 2749   6.271   1.896  -0.029
  936TIP3   OH2 2750   6.357   5.500   1.272
  936TIP3    H1 2751   6.296   5.500   1.199
  936TIP3    H2 2752   6.376   5.407   1.287
  937TIP3   OH2 2753   6.899   0.707   3.004
  937TIP3    H1 2754   6.907   0.638   2.939
  937TIP3    H2 2755   6.805   0.714   3.021
  938TIP3   OH2 2756   4.915   2.097   3.139
  938TIP3    H1 2757   5.005   2.123   3.118
  938TIP3    H2 2758   4.863   2.140   3.071
  939TIP3   OH2 2759   0.706   4.661   3.386
  939TIP3    H1 2760   0.630   4.628   3.338
  939TIP3    H2 2761   0.781   4.616   3.346
  940TIP3   OH2 2762   7.491   6.137   3.381
  940TIP3    H1 2763   7.397   6.155   3.375
  940TIP3    H2 2764   7.522   6.192   3.453
  941TIP3   OH2 2765   0.720   5.776   6.254
  941TIP3    H1 2766   0.735   5.855   6.305
  941TIP3    H2 2767   0.665   5.721   6.309
  942TIP3   OH2 2768   5.439   1.621   4.252
  942TIP3    H1 2769   5.480   1.650   4.333
  942TIP3    H2 2770   5.363   1.679   4.241
  943TIP3   OH2 2771   7.173   1.770   3.892
  943TIP3    H1 2772   7.260   1.809   3.892
  943TIP3    H2 2773   7.150   1.764   3.799
  944TIP3   OH2 2774   5.866   2.932   4.059
  944TIP3    H1 2775   5.827   3.006   4.106
  944TIP3    H2 2776   5.831   2.939   3.970
  945TIP3   OH2 2777   7.226   3.178   5.105
  945TIP3    H1 2778   7.159   3.111   5.097
  945TIP3    H2 2779   7.277   3.171   5.024
  946TIP3   OH2 2780   7.684   4.959   3.103
  946TIP3    H1 2781   7.757   4.920   3.152
  946TIP3    H2 2782   7.725   4.992   3.023
  947TIP3   OH2 2783   7.408   5.652   4.735
  947TIP3    H1 2784   7.445   5.566   4.714
  947TIP3    H2 2785   7.384   5.689   4.650
  948TIP3   OH2 2786   0.109   6.040   3.159
  948TIP3    H1 2787   0.138   5.974   3.096
  948TIP3    H2 2788   0.017   6.055   3.137
  949TIP3   OH2 2789   6.307   0.325   4.692
  949TIP3    H1 2790   6.343   0.397   4.641
  949TIP3    H2 2791   6.290   0.255   4.629
  950TIP3   OH2 2792   0.576   3.876   2.878
  950TIP3    H1 2793   0.613   3.798   2.836
  950TIP3    H2 2794   0.603   3.869   2.969
  951TIP3   OH2 2795   5.812   6.038   3.129
  951TIP3    H1 2796   5.866   5.981   3.184
  951TIP3    H2 2797   5.871   6.109   3.103
  952TIP3   OH2 2798   5.249   1.663   3.905
  952TIP3    H1 2799   5.283   1.752   3.918
  952TIP3    H2 2800   5.322   1.607   3.930
  953TIP3   OH2 2801   2.804   2.329   1.312
  953TIP3    H1 2802   2.730   2.335   1.372
  953TIP3    H2 2803   2.771   2.280   1.237
  954TIP3   OH2 2804   4.108   4.980   0.047
  954TIP3    H1 2805   4.035   5.012   0.100
  954TIP3    H2 2806   4.069   4.920  -0.016
  955TIP3   OH2 2807   3.707   0.201   4.649
  955TIP3    H1 2808   3.787   0.179   4.599
  955TIP3    H2 2809   3.660   0.262   4.593
  956TIP3   OH2 2810   3.375   4.944   2.691
  956TIP3    H1 2811   3.355   4.851   2.678
  956TIP3    H2 2812   3.384   4.954   2.786
  957TIP3   OH2 2813   7.275   4.420   4.230
  957TIP3    H1 2814   7.248   4.489   4.289
  957TIP3    H2 2815   7.219   4.430   4.153
  958TIP3   OH2 2816   3.516   4.202   6.366
  958TIP3    H1 2817   3.545   4.291   6.386
  958TIP3    H2 2818   3.486   4.206   6.275
  959TIP3   OH2 2819   5.562   6.689   2.303
  959TIP3    H1 2820   5.597   6.672   2.215
  959TIP3    H2 2821   5.630   6.740   2.347
  960TIP3   OH2 2822   0.650   1.868   6.826
  960TIP3    H1 2823   0.570   1.857   6.774
  960TIP3    H2 2824   0.721   1.870   6.761
  961TIP3   OH2 2825   3.183   0.581   2.128
  961TIP3    H1 2826   3.126   0.560   2.201
  961TIP3    H2 2827   3.264   0.613   2.169
  962TIP3   OH2 2828   0.943   4.877   1.336
  962TIP3    H1 2829   0.889   4.892   1.258
  962TIP3    H2 2830   1.030   4.907   1.310
  963TIP3   OH2 2831   4.814   2.431   3.359
  963TIP3    H1 2832   4.754   2.408   3.289
  963TIP3    H2 2833   4.760   2.474   3.425
  964TIP3   OH2 2834   6.718   1.415   6.412
  964TIP3    H1 2835   6.679   1.340   6.456
  964TIP3    H2 2836   6.651   1.445   6.351
  965TIP3   OH2 2837   0.096   1.244   1.431
  965TIP3    H1 2838   0.025   1.307   1.418
  965TIP3    H2 2839   0.095   1.226   1.525
  966TIP3   OH2 2840   8.110  -0.003   2.302
  966TIP3    H1 2841   8.063   0.056   2.244
  966TIP3    H2 2842   8.132   0.051   2.378
  967TIP3   OH2 2843   3.082   6.988   3.074
  967TIP3    H1 2844   3.146   7.013   3.007
  967TIP3    H2 2845   3.116   7.027   3.155
  968TIP3   OH2 2846   6.396   2.104   6.641
  968TIP3    H1 2847   6.359   2.027   6.598
  968TIP3    H2 2848   6.377   2.091   6.734
  969TIP3   OH2 2849   1.380   5.599   5.266
  969TIP3    H1 2850   1.465   5.606   5.224
  969TIP3    H2 2851   1.340   5.685   5.253
  970TIP3   OH2 2852   7.112   2.318   4.959
  970TIP3    H1 2853   7.091   2.357   5.044
  970TIP3    H2 2854   7.033   2.268   4.936
  971TIP3   OH2 2855   2.358   4.400   6.098
  971TIP3    H1 2856   2.417   4.414   6.172
  971TIP3    H2 2857   2.285   4.350   6.135
  972TIP3   OH2 2858   5.779   3.587   3.743
  972TIP3    H1 2859   5.744   3.586   3.832
  972TIP3    H2 2860   5.763   3.676   3.713
  973TIP3   OH2 2861   0.275   3.206   1.285
  973TIP3    H1 2862   0.360   3.228   1.247
  973TIP3    H2 2863   0.213   3.219   1.214
  974TIP3   OH2 2864   6.869   1.908   4.881
  974TIP3    H1 2865   6.774   1.912   4.868
  974TIP3    H2 2866   6.905   1.898   4.793
  975TIP3   OH2 2867   3.100   0.515   1.545
  975TIP3    H1 2868   3.184   0.537   1.506
  975TIP3    H2 2869   3.115   0.519   1.639
  976TIP3   OH2 2870   0.217   3.867   2.686
  976TIP3    H1 2871   0.215   3.919   2.766
  976TIP3    H2 2872   0.274   3.793   2.706
  977TIP3   OH2 2873   5.969   2.217   1.052
  977TIP3    H1 2874   5.932   2.192   1.136
  977TIP3    H2 2875   5.893   2.241   0.999
  978TIP3   OH2 2876   4.449   1.319   3.249
  978TIP3    H1 2877   4.515   1.277   3.304
  978TIP3    H2 2878   4.430   1.402   3.293
  979TIP3   OH2 2879   4.023   1.087   5.237
  979TIP3    H1 2880   4.005   1.051   5.324
  979TIP3    H2 2881   4.082   1.024   5.196
  980TIP3   OH2 2882   7.860   7.319   1.166
  980TIP3    H1 2883   7.955   7.322   1.163
  980TIP3    H2 2884   7.837   7.359   1.250
  981TIP3   OH2 2885   5.764   7.202   3.942
  981TIP3    H1 2886   5.839   7.149   3.917
  981TIP3    H2 2887   5.802   7.287   3.965
  982TIP3   OH2 2888   6.561   4.650   1.385
  982TIP3    H1 2889   6.511   4.702   1.322
  982TIP3    H2 2890   6.591   4.574   1.336
  983TIP3   OH2 2891   1.245   7.456   6.559
  983TIP3    H1 2892   1.277   7.368   6.581
  983TIP3    H2 2893   1.154   7.456   6.589
  984TIP3   OH2 2894   7.689   2.976   6.426
  984TIP3    H1 2895   7.754   2.906   6.412
  984TIP3    H2 2896   7.741   3.056   6.432
  985TIP3   OH2 2897   4.483   4.384   5.468
  985TIP3    H1 2898   4.551   4.318   5.451
  985TIP3    H2 2899   4.466   4.376   5.562
  986TIP3   OH2 2900   5.158   1.742   4.192
  986TIP3    H1 2901   5.193   1.808   4.131
  986TIP3    H2 2902   5.077   1.781   4.224
  987TIP3   OH2 2903   4.205   2.779   6.295
  987TIP3    H1 2904   4.242   2.788   6.383
  987TIP3    H2 2905   4.265   2.718   6.251
  988TIP3   OH2 2906   0.522   5.760   0.570
  988TIP3    H1 2907   0.475   5.844   0.569
  988TIP3    H2 2908   0.603   5.779   0.617
  989TIP3   OH2 2909   1.939   5.738   4.167
  989TIP3    H1 2910   2.015   5.687   4.138
  989TIP3    H2 2911   1.896   5.683   4.232
  990TIP3   OH2 2912   0.355   3.832   6.025
  990TIP3    H1 2913   0.325   3.763   6.084
  990TIP3    H2 2914   0.319   3.913   6.063
  991TIP3   OH2 2915   3.101   2.197   0.106
  991TIP3    H1 2916   3.176   2.138   0.110
  991TIP3    H2 2917   3.113   2.256   0.180
  992TIP3   OH2 2918   8.045   2.016   4.558
  992TIP3    H1 2919   7.952   2.037   4.545
  992TIP3    H2 2920   8.066   1.954   4.488
  993TIP3   OH2 2921   6.833   4.398   2.805
  993TIP3    H1 2922   6.801   4.466   2.864
  993TIP3    H2 2923   6.926   4.418   2.794
  994TIP3   OH2 2924   6.956   1.393   4.764
  994TIP3    H1 2925   6.876   1.435   4.797
  994TIP3    H2 2926   7.021   1.407   4.834
  995TIP3   OH2 2927   3.462   6.854   5.442
  995TIP3    H1 2928   3.417   6.854   5.527
  995TIP3    H2 2929   3.393   6.835   5.378
  996TIP3   OH2 2930   6.740   4.031   6.606
  996TIP3    H1 2931   6.697   4.040   6.691
  996TIP3    H2 2932   6.800   3.958   6.617
  997TIP3   OH2 2933   7.792   2.369   4.552
  997TIP3    H1 2934   7.787   2.273   4.560
  997TIP3    H2 2935   7.754   2.401   4.634
  998TIP3   OH2 2936   0.248   3.993   2.436
  998TIP3    H1 2937   0.189   4.066   2.418
  998TIP3    H2 2938   0.226   3.965   2.524
  999TIP3   OH2 2939   5.890   1.472   3.978
  999TIP3    H1 2940   5.820   1.524   4.018
  999TIP3    H2 2941   5.966   1.488   4.033
 1000TIP3   OH2 2942   3.437   7.832   2.081
 1000TIP3    H1 2943   3.477   7.792   2.004
 1000TIP3    H2 2944   3.386   7.762   2.121
 1001TIP3   OH2 2945   3.664   7.106   2.395
 1001TIP3    H1 2946   3.712   7.071   2.470
 1001TIP3    H2 2947   3.692   7.051   2.321
 1002TIP3   OH2 2948   4.439   1.921   6.319
 1002TIP3    H1 2949   4.376   1.854   6.343
 1002TIP3    H2 2950   4.459   1.966   6.402
 1003TIP3   OH2 2951   2.865   0.301   6.708
 1003TIP3    H1 2952   2.828   0.219   6.742
 1003TIP3    H2 2953   2.790   0.346   6.669
 1004TIP3   OH2 2954   7.154   5.659   3.963
 1004TIP3    H1 2955   7.156   5.745   3.920
 1004TIP3    H2 2956   7.069   5.623   3.940
 1005TIP3   OH2 2957   0.480   0.195   5.880
 1005TIP3    H1 2958   0.506   0.256   5.949
 1005TIP3    H2 2959   0.562   0.159   5.847
 1006TIP3   OH2 2960   3.576   4.265   4.374
 1006TIP3    H1 2961   3.623   4.189   4.339
 1006TIP3    H2 2962   3.641   4.310   4.427
 1007TIP3   OH2 2963   1.197   5.695   2.521
 1007TIP3    H1 2964   1.194   5.771   2.462
 1007TIP3    H2 2965   1.291   5.677   2.531
 1008TIP3   OH2 2966   5.940   0.821   6.459
 1008TIP3    H1 2967   5.860   0.812   6.409
 1008TIP3    H2 2968   6.010   0.795   6.398
 1009TIP3   OH2 2969   2.348   0.877   5.822
 1009TIP3    H1 2970   2.297   0.857   5.900
 1009TIP3    H2 2971   2.304   0.830   5.751
 1010TIP3   OH2 2972   7.502   5.224   1.761
 1010TIP3    H1 2973   7.410   5.200   1.773
 1010TIP3    H2 2974   7.527   5.269   1.841
 1011TIP3   OH2 2975   6.822   2.281   6.087
 1011TIP3    H1 2976   6.786   2.258   6.173
 1011TIP3    H2 2977   6.830   2.376   6.089
 1012TIP3   OH2 2978   7.658   2.760   6.754
 1012TIP3    H1 2979   7.680   2.704   6.829
 1012TIP3    H2 2980   7.694   2.714   6.678
 1013TIP3   OH2 2981   6.424   2.584   4.761
 1013TIP3    H1 2982   6.366   2.605   4.834
 1013TIP3    H2 2983   6.474   2.664   4.745
 1014TIP3   OH2 2984   3.311   6.789   5.679
 1014TIP3    H1 2985   3.231   6.740   5.660
 1014TIP3    H2 2986   3.361   6.732   5.738
 1015TIP3   OH2 2987   6.393   7.583   0.089
 1015TIP3    H1 2988   6.379   7.650   0.023
 1015TIP3    H2 2989   6.481   7.550   0.071
 1016TIP3   OH2 2990   4.067   0.693   3.354
 1016TIP3    H1 2991   4.111   0.645   3.425
 1016TIP3    H2 2992   4.127   0.763   3.331
 1017TIP3   OH2 2993   4.531   0.987   3.950
 1017TIP3    H1 2994   4.542   1.042   4.028
 1017TIP3    H2 2995   4.447   0.944   3.963
 1018TIP3   OH2 2996   0.211   0.417   1.097
 1018TIP3    H1 2997   0.199   0.494   1.152
 1018TIP3    H2 2998   0.122   0.396   1.066
 1019TIP3   OH2 2999   0.733   1.864   3.119
 1019TIP3    H1 3000   0.718   1.771   3.137
 1019TIP3    H2 3001   0.811   1.866   3.064
 1020TIP3   OH2 3002   1.858   6.610   1.394
 1020TIP3    H1 3003   1.897   6.567   1.318
 1020TIP3    H2 3004   1.835   6.538   1.453
 1021TIP3   OH2 3005   6.298   0.249   0.565
 1021TIP3    H1 3006   6.387   0.245   0.600
 1021TIP3    H2 3007   6.307   0.227   0.473
 1022TIP3   OH2 3008   5.621   4.877   5.977
 1022TIP3    H1 3009   5.596   4.906   6.065
 1022TIP3    H2 3010   5.555   4.917   5.920
 1023TIP3   OH2 3011   2.279   6.843   5.653
 1023TIP3    H1 3012   2.260   6.750   5.666
 1023TIP3    H2 3013   2.199   6.880   5.617
 1024TIP3   OH2 3014   5.326   3.896   4.657
 1024TIP3    H1 3015   5.371   3.913   4.740
 1024TIP3    H2 3016   5.396   3.891   4.592
 1025TIP3   OH2 3017   0.079   2.365   1.726
 1025TIP3    H1 3018   0.114   2.440   1.678
 1025TIP3    H2 3019   0.100   2.289   1.672
 1026TIP3   OH2 3020   3.794   0.676   3.420
 1026TIP3    H1 3021   3.725   0.710   3.363
 1026TIP3    H2 3022   3.875   0.713   3.385
 1027TIP3   OH2 3023   2.802   5.215   6.042
 1027TIP3    H1 3024   2.725   5.263   6.012
 1027TIP3    H2 3025   2.778   5.184   6.130
 1028TIP3   OH2 3026   6.916   2.265   2.558
 1028TIP3    H1 3027   6.918   2.358   2.534
 1028TIP3    H2 3028   6.997   2.229   2.521
 1029TIP3   OH2 3029   3.415   7.398   6.163
 1029TIP3    H1 3030   3.445   7.487   6.178
 1029TIP3    H2 3031   3.471   7.344   6.218
 1030TIP3   OH2 3032   1.135   2.634   3.941
 1030TIP3    H1 3033   1.121   2.571   4.012
 1030TIP3    H2 3034   1.120   2.584   3.861
 1031TIP3   OH2 3035   0.143   7.850   5.108
 1031TIP3    H1 3036   0.123   7.846   5.201
 1031TIP3    H2 3037   0.162   7.759   5.083
 1032TIP3   OH2 3038   0.139   1.880   4.637
 1032TIP3    H1 3039   0.105   1.939   4.570
 1032TIP3    H2 3040   0.078   1.889   4.710
 1033TIP3   OH2 3041   5.441   2.181   5.846
 1033TIP3    H1 3042   5.491   2.255   5.811
 1033TIP3    H2 3043   5.503   2.134   5.901
 1034TIP3   OH2 3044   5.857   1.618   4.403
 1034TIP3    H1 3045   5.769   1.643   4.431
 1034TIP3    H2 3046   5.869   1.529   4.438
 1035TIP3   OH2 3047   2.498   5.524   1.167
 1035TIP3    H1 3048   2.492   5.483   1.081
 1035TIP3    H2 3049   2.464   5.612   1.154
 1036TIP3   OH2 3050   2.201   5.380   3.373
 1036TIP3    H1 3051   2.265   5.390   3.443
 1036TIP3    H2 3052   2.150   5.303   3.399
 1037TIP3   OH2 3053   6.920   3.532   4.722
 1037TIP3    H1 3054   6.919   3.628   4.714
 1037TIP3    H2 3055   6.889   3.501   4.637
 1038TIP3   OH2 3056   1.245   7.348   5.943
 1038TIP3    H1 3057   1.315   7.296   5.983
 1038TIP3    H2 3058   1.289   7.428   5.913
 1039TIP3   OH2 3059   0.477   7.346   3.314
 1039TIP3    H1 3060   0.473   7.320   3.222
 1039TIP3    H2 3061   0.443   7.435   3.316
 1040TIP3   OH2 3062   7.992   2.722   5.039
 1040TIP3    H1 3063   8.033   2.809   5.039
 1040TIP3    H2 3064   7.920   2.730   5.102
 1041TIP3   OH2 3065   5.972   1.957   1.579
 1041TIP3    H1 3066   5.959   2.050   1.560
 1041TIP3    H2 3067   5.950   1.912   1.498
 1042TIP3   OH2 3068   6.763   7.199   6.451
 1042TIP3    H1 3069   6.705   7.246   6.391
 1042TIP3    H2 3070   6.851   7.226   6.425
 1043TIP3   OH2 3071   0.770   0.741   0.151
 1043TIP3    H1 3072   0.802   0.815   0.100
 1043TIP3    H2 3073   0.754   0.672   0.087
 1044TIP3   OH2 3074   6.797   4.855   4.007
 1044TIP3    H1 3075   6.870   4.905   3.970
 1044TIP3    H2 3076   6.826   4.764   4.003
 1045TIP3   OH2 3077   2.457   2.374   6.622
 1045TIP3    H1 3078   2.521   2.304   6.634
 1045TIP3    H2 3079   2.495   2.449   6.668
 1046TIP3   OH2 3080   4.783   4.339   0.651
 1046TIP3    H1 3081   4.830   4.276   0.597
 1046TIP3    H2 3082   4.810   4.318   0.741
 1047TIP3   OH2 3083   7.185   2.663   0.090
 1047TIP3    H1 3084   7.261   2.605   0.079
 1047TIP3    H2 3085   7.113   2.616   0.048
 1048TIP3   OH2 3086   7.731   0.601   0.535
 1048TIP3    H1 3087   7.675   0.680   0.537
 1048TIP3    H2 3088   7.791   0.617   0.462
 1049TIP3   OH2 3089   3.261   2.258   2.815
 1049TIP3    H1 3090   3.292   2.340   2.854
 1049TIP3    H2 3091   3.239   2.202   2.889
 1050TIP3   OH2 3092   6.562   1.438   1.039
 1050TIP3    H1 3093   6.565   1.404   1.128
 1050TIP3    H2 3094   6.551   1.360   0.984
 1051TIP3   OH2 3095   2.340   2.847   3.098
 1051TIP3    H1 3096   2.321   2.940   3.091
 1051TIP3    H2 3097   2.426   2.844   3.142
 1052TIP3   OH2 3098   4.720   0.858   1.418
 1052TIP3    H1 3099   4.716   0.783   1.478
 1052TIP3    H2 3100   4.783   0.918   1.459
 1053TIP3   OH2 3101   7.516   1.493   2.080
 1053TIP3    H1 3102   7.449   1.482   2.013
 1053TIP3    H2 3103   7.585   1.543   2.038
 1054TIP3   OH2 3104   0.115   1.697   5.878
 1054TIP3    H1 3105   0.129   1.666   5.968
 1054TIP3    H2 3106   0.114   1.793   5.887
 1055TIP3   OH2 3107   6.748   3.017   4.748
 1055TIP3    H1 3108   6.814   2.967   4.699
 1055TIP3    H2 3109   6.798   3.060   4.818
 1056TIP3   OH2 3110   0.268   4.197   3.689
 1056TIP3    H1 3111   0.219   4.252   3.750
 1056TIP3    H2 3112   0.232   4.218   3.603
 1057TIP3   OH2 3113   1.249   5.551   0.807
 1057TIP3    H1 3114   1.330   5.506   0.832
 1057TIP3    H2 3115   1.216   5.588   0.888
 1058TIP3   OH2 3116   6.845   1.672   2.199
 1058TIP3    H1 3117   6.820   1.593   2.150
 1058TIP3    H2 3118   6.762   1.709   2.228
 1059TIP3   OH2 3119   4.106   4.225   5.615
 1059TIP3    H1 3120   4.195   4.259   5.622
 1059TIP3    H2 3121   4.051   4.303   5.607
 1060TIP3   OH2 3122   7.829   2.826   2.729
 1060TIP3    H1 3123   7.809   2.774   2.807
 1060TIP3    H2 3124   7.751   2.880   2.716
 1061TIP3   OH2 3125   6.318   6.706   3.019
 1061TIP3    H1 3126   6.412   6.712   3.032
 1061TIP3    H2 3127   6.285   6.793   3.039
 1062TIP3   OH2 3128   4.019   6.213   5.729
 1062TIP3    H1 3129   3.959   6.161   5.782
 1062TIP3    H2 3130   3.975   6.221   5.644
 1063TIP3   OH2 3131   5.766   4.597   2.385
 1063TIP3    H1 3132   5.751   4.584   2.291
 1063TIP3    H2 3133   5.813   4.518   2.413
 1064TIP3   OH2 3134   1.184   0.593   3.310
 1064TIP3    H1 3135   1.268   0.554   3.287
 1064TIP3    H2 3136   1.149   0.538   3.380
 1065TIP3   OH2 3137   3.609   0.730   1.770
 1065TIP3    H1 3138   3.567   0.791   1.710
 1065TIP3    H2 3139   3.682   0.779   1.808
 1066TIP3   OH2 3140   8.049   1.792   1.133
 1066TIP3    H1 3141   8.084   1.873   1.096
 1066TIP3    H2 3142   8.002   1.820   1.211
 1067TIP3   OH2 3143   7.718   4.845   5.059
 1067TIP3    H1 3144   7.772   4.777   5.100
 1067TIP3    H2 3145   7.680   4.802   4.983
 1068TIP3   OH2 3146   5.689   0.420   0.874
 1068TIP3    H1 3147   5.740   0.419   0.955
 1068TIP3    H2 3148   5.676   0.328   0.853
 1069TIP3   OH2 3149   1.790   6.236   5.309
 1069TIP3    H1 3150   1.760   6.165   5.366
 1069TIP3    H2 3151   1.716   6.255   5.252
 1070TIP3   OH2 3152   7.503   6.757   5.690
 1070TIP3    H1 3153   7.589   6.734   5.726
 1070TIP3    H2 3154   7.482   6.684   5.632
 1071TIP3   OH2 3155   7.454   2.522   5.301
 1071TIP3    H1 3156   7.387   2.552   5.239
 1071TIP3    H2 3157   7.423   2.553   5.386
 1072TIP3   OH2 3158   7.291   6.534   6.550
 1072TIP3    H1 3159   7.340   6.604   6.592
 1072TIP3    H2 3160   7.250   6.486   6.622
 1073TIP3   OH2 3161   6.449   2.455   4.479
 1073TIP3    H1 3162   6.387   2.489   4.543
 1073TIP3    H2 3163   6.413   2.482   4.394
 1074TIP3   OH2 3164   6.920   3.087   6.279
 1074TIP3    H1 3165   7.009   3.119   6.294
 1074TIP3    H2 3166   6.864   3.149   6.326
 1075TIP3   OH2 3167   3.133   1.753   3.228
 1075TIP3    H1 3168   3.197   1.805   3.179
 1075TIP3    H2 3169   3.077   1.818   3.271
 1076TIP3   OH2 3170   5.986   3.313   6.560
 1076TIP3    H1 3171   6.015   3.280   6.475
 1076TIP3    H2 3172   5.943   3.396   6.540
 1077TIP3   OH2 3173   0.165   4.044   4.513
 1077TIP3    H1 3174   0.171   4.035   4.418
 1077TIP3    H2 3175   0.074   4.067   4.530
 1078TIP3   OH2 3176   4.357   3.694   1.076
 1078TIP3    H1 3177   4.307   3.670   1.154
 1078TIP3    H2 3178   4.313   3.771   1.042
 1079TIP3   OH2 3179   1.960   6.708   2.393
 1079TIP3    H1 3180   1.974   6.618   2.364
 1079TIP3    H2 3181   1.927   6.753   2.315
 1080TIP3   OH2 3182   2.613   6.347   4.968
 1080TIP3    H1 3183   2.616   6.351   5.063
 1080TIP3    H2 3184   2.682   6.407   4.938
 1081TIP3   OH2 3185   7.375   2.259   3.600
 1081TIP3    H1 3186   7.296   2.259   3.654
 1081TIP3    H2 3187   7.358   2.325   3.532
 1082TIP3   OH2 3188   5.147   7.059   5.666
 1082TIP3    H1 3189   5.209   7.018   5.605
 1082TIP3    H2 3190   5.065   7.064   5.617
 1083TIP3   OH2 3191   4.883   2.330   5.778
 1083TIP3    H1 3192   4.889   2.270   5.704
 1083TIP3    H2 3193   4.904   2.276   5.854
 1084TIP3   OH2 3194   4.157   0.652   2.467
 1084TIP3    H1 3195   4.191   0.603   2.392
 1084TIP3    H2 3196   4.077   0.693   2.433
 1085TIP3   OH2 3197   5.558   4.444   2.962
 1085TIP3    H1 3198   5.568   4.374   2.898
 1085TIP3    H2 3199   5.585   4.404   3.045
 1086TIP3   OH2 3200   6.642   5.147   2.747
 1086TIP3    H1 3201   6.706   5.209   2.783
 1086TIP3    H2 3202   6.594   5.197   2.681
 1087TIP3   OH2 3203   6.922   5.684   0.043
 1087TIP3    H1 3204   6.916   5.665  -0.050
 1087TIP3    H2 3205   6.831   5.688   0.073
 1088TIP3   OH2 3206   7.768   6.086   6.493
 1088TIP3    H1 3207   7.812   6.168   6.516
 1088TIP3    H2 3208   7.834   6.036   6.446
 1089TIP3   OH2 3209   3.292   6.071   3.277
 1089TIP3    H1 3210   3.271   6.164   3.281
 1089TIP3    H2 3211   3.253   6.034   3.356
 1090TIP3   OH2 3212   0.517   6.293   0.608
 1090TIP3    H1 3213   0.601   6.290   0.655
 1090TIP3    H2 3214   0.482   6.204   0.617
 1091TIP3   OH2 3215   6.077   6.525   6.562
 1091TIP3    H1 3216   6.021   6.455   6.597
 1091TIP3    H2 3217   6.016   6.597   6.543
 1092TIP3   OH2 3218   7.789   6.717   0.978
 1092TIP3    H1 3219   7.747   6.690   1.060
 1092TIP3    H2 3220   7.856   6.650   0.963
 1093TIP3   OH2 3221   2.049   1.182   1.826
 1093TIP3    H1 3222   2.139   1.151   1.820
 1093TIP3    H2 3223   2.034   1.196   1.919
 1094TIP3   OH2 3224   7.977   5.333   5.432
 1094TIP3    H1 3225   7.916   5.312   5.362
 1094TIP3    H2 3226   8.048   5.269   5.422
 1095TIP3   OH2 3227   7.980   1.823   3.514
 1095TIP3    H1 3228   8.056   1.808   3.458
 1095TIP3    H2 3229   7.944   1.906   3.484
 1096TIP3   OH2 3230   6.257   6.459   5.317
 1096TIP3    H1 3231   6.330   6.479   5.376
 1096TIP3    H2 3232   6.266   6.366   5.298
 1097TIP3   OH2 3233   7.544   5.119   1.506
 1097TIP3    H1 3234   7.508   5.030   1.510
 1097TIP3    H2 3235   7.555   5.145   1.597
 1098TIP3   OH2 3236   5.772   4.718   6.262
 1098TIP3    H1 3237   5.693   4.769   6.280
 1098TIP3    H2 3238   5.802   4.688   6.347
 1099TIP3   OH2 3239   6.126   4.533   2.965
 1099TIP3    H1 3240   6.133   4.572   2.878
 1099TIP3    H2 3241   6.049   4.575   3.005
 1100TIP3   OH2 3242   4.043   6.866   5.618
 1100TIP3    H1 3243   3.983   6.926   5.663
 1100TIP3    H2 3244   4.111   6.923   5.582
 1101TIP3   OH2 3245   3.336   5.493   5.647
 1101TIP3    H1 3246   3.257   5.439   5.643
 1101TIP3    H2 3247   3.304   5.583   5.644
 1102TIP3   OH2 3248   2.319   0.920   0.916
 1102TIP3    H1 3249   2.228   0.919   0.944
 1102TIP3    H2 3250   2.368   0.945   0.994
 1103TIP3   OH2 3251   8.311   0.317   0.018
 1103TIP3    H1 3252   8.285   0.385   0.081
 1103TIP3    H2 3253   8.250   0.327  -0.055
 1104TIP3   OH2 3254   1.706   7.684   4.933
 1104TIP3    H1 3255   1.795   7.661   4.906
 1104TIP3    H2 3256   1.660   7.701   4.851
 1105TIP3   OH2 3257   3.259   1.597   0.265
 1105TIP3    H1 3258   3.350   1.589   0.239
 1105TIP3    H2 3259   3.242   1.691   0.269
 1106TIP3   OH2 3260   5.774   4.313   5.949
 1106TIP3    H1 3261   5.826   4.350   6.019
 1106TIP3    H2 3262   5.707   4.379   5.930
 1107TIP3   OH2 3263   5.781   3.581   4.016
 1107TIP3    H1 3264   5.790   3.661   4.068
 1107TIP3    H2 3265   5.854   3.526   4.046
 1108TIP3   OH2 3266   0.445   6.000   1.981
 1108TIP3    H1 3267   0.411   5.923   1.936
 1108TIP3    H2 3268   0.382   6.070   1.960
 1109TIP3   OH2 3269   6.831   3.083   3.975
 1109TIP3    H1 3270   6.836   3.058   4.067
 1109TIP3    H2 3271   6.742   3.117   3.964
 1110TIP3   OH2 3272   5.213   2.279   2.525
 1110TIP3    H1 3273   5.295   2.301   2.571
 1110TIP3    H2 3274   5.204   2.347   2.458
 1111TIP3   OH2 3275   7.403   3.299   0.306
 1111TIP3    H1 3276   7.408   3.213   0.349
 1111TIP3    H2 3277   7.458   3.356   0.360
 1112TIP3   OH2 3278   7.660  -0.061   5.061
 1112TIP3    H1 3279   7.589  -0.038   5.121
 1112TIP3    H2 3280   7.740  -0.041   5.109
 1113TIP3   OH2 3281   1.058   7.864   3.964
 1113TIP3    H1 3282   1.061   7.775   3.927
 1113TIP3    H2 3283   1.108   7.857   4.045
 1114TIP3   OH2 3284   2.296   4.403   3.661
 1114TIP3    H1 3285   2.278   4.323   3.611
 1114TIP3    H2 3286   2.367   4.446   3.613
 1115TIP3   OH2 3287   6.341   2.915   2.036
 1115TIP3    H1 3288   6.267   2.895   1.978
 1115TIP3    H2 3289   6.412   2.859   2.005
 1116TIP3   OH2 3290   0.924   6.452   0.300
 1116TIP3    H1 3291   0.968   6.498   0.228
 1116TIP3    H2 3292   0.831   6.462   0.282
 1117TIP3   OH2 3293   7.920   7.264   6.573
 1117TIP3    H1 3294   7.995   7.318   6.599
 1117TIP3    H2 3295   7.857   7.326   6.539
 1118TIP3   OH2 3296   6.812   7.505   6.404
 1118TIP3    H1 3297   6.729   7.519   6.358
 1118TIP3    H2 3298   6.814   7.574   6.470
 1119TIP3   OH2 3299   2.010   0.977   5.804
 1119TIP3    H1 3300   1.949   1.008   5.872
 1119TIP3    H2 3301   2.081   1.041   5.805
 1120TIP3   OH2 3302   5.579   3.290   6.704
 1120TIP3    H1 3303   5.570   3.382   6.732
 1120TIP3    H2 3304   5.666   3.265   6.735
 1121TIP3   OH2 3305   5.978   6.058   4.430
 1121TIP3    H1 3306   5.888   6.048   4.459
 1121TIP3    H2 3307   6.003   5.972   4.396
 1122TIP3   OH2 3308   1.452   4.950   6.339
 1122TIP3    H1 3309   1.391   4.880   6.362
 1122TIP3    H2 3310   1.508   4.959   6.416
 1123TIP3   OH2 3311   7.963   4.143   6.161
 1123TIP3    H1 3312   8.044   4.192   6.172
 1123TIP3    H2 3313   7.965   4.113   6.070
 1124TIP3   OH2 3314   6.582   6.915   3.274
 1124TIP3    H1 3315   6.556   6.945   3.187
 1124TIP3    H2 3316   6.673   6.887   3.263
 1125TIP3   OH2 3317   6.257   0.229   3.294
 1125TIP3    H1 3318   6.211   0.206   3.213
 1125TIP3    H2 3319   6.347   0.202   3.278
 1126TIP3   OH2 3320   3.667   3.788   4.165
 1126TIP3    H1 3321   3.746   3.748   4.128
 1126TIP3    H2 3322   3.598   3.767   4.102
 1127TIP3   OH2 3323   1.430   0.461   4.965
 1127TIP3    H1 3324   1.485   0.467   4.887
 1127TIP3    H2 3325   1.436   0.548   5.005
 1128TIP3   OH2 3326   7.484   3.857   6.527
 1128TIP3    H1 3327   7.540   3.930   6.553
 1128TIP3    H2 3328   7.502   3.845   6.433
 1129TIP3   OH2 3329   6.463   1.486   5.224
 1129TIP3    H1 3330   6.537   1.459   5.278
 1129TIP3    H2 3331   6.487   1.574   5.194
 1130TIP3   OH2 3332   1.766   6.264   1.470
 1130TIP3    H1 3333   1.715   6.184   1.470
 1130TIP3    H2 3334   1.857   6.235   1.474
 1131TIP3   OH2 3335   4.883   1.976   4.956
 1131TIP3    H1 3336   4.956   2.003   4.899
 1131TIP3    H2 3337   4.915   1.897   4.999
 1132TIP3   OH2 3338   2.844   3.317   0.070
 1132TIP3    H1 3339   2.805   3.272  -0.005
 1132TIP3    H2 3340   2.814   3.408   0.062
 1133TIP3   OH2 3341   0.446   3.542   3.762
 1133TIP3    H1 3342   0.477   3.612   3.705
 1133TIP3    H2 3343   0.508   3.542   3.835
 1134TIP3   OH2 3344   6.151   7.685   5.777
 1134TIP3    H1 3345   6.060   7.672   5.805
 1134TIP3    H2 3346   6.196   7.718   5.855
 1135TIP3   OH2 3347   8.109   2.237   6.130
 1135TIP3    H1 3348   8.137   2.238   6.222
 1135TIP3    H2 3349   8.059   2.319   6.119
 1136TIP3   OH2 3350   0.750   4.060   3.281
 1136TIP3    H1 3351   0.835   4.083   3.246
 1136TIP3    H2 3352   0.691   4.129   3.251
 1137TIP3   OH2 3353   4.205   2.341   2.163
 1137TIP3    H1 3354   4.222   2.434   2.176
 1137TIP3    H2 3355   4.211   2.302   2.250
 1138TIP3   OH2 3356   7.229   1.299   3.239
 1138TIP3    H1 3357   7.233   1.392   3.264
 1138TIP3    H2 3358   7.146   1.268   3.275
 1139TIP3   OH2 3359   5.780   7.073  -0.019
 1139TIP3    H1 3360   5.703   7.118   0.018
 1139TIP3    H2 3361   5.854   7.126   0.010
 1140TIP3   OH2 3362   0.318   2.913   1.738
 1140TIP3    H1 3363   0.261   2.895   1.664
 1140TIP3    H2 3364   0.406   2.921   1.699
 1141TIP3   OH2 3365   1.914   3.360   5.304
 1141TIP3    H1 3366   1.985   3.401   5.254
 1141TIP3    H2 3367   1.856   3.433   5.327
 1142TIP3   OH2 3368   3.583   1.819   0.261
 1142TIP3    H1 3369   3.564   1.862   0.344
 1142TIP3    H2 3370   3.576   1.726   0.280
 1143TIP3   OH2 3371   6.628   6.196   2.603
 1143TIP3    H1 3372   6.663   6.111   2.575
 1143TIP3    H2 3373   6.569   6.222   2.532
 1144TIP3   OH2 3374   7.336   0.216   3.631
 1144TIP3    H1 3375   7.398   0.227   3.703
 1144TIP3    H2 3376   7.253   0.194   3.674
 1145TIP3   OH2 3377   0.381   3.043   1.989
 1145TIP3    H1 3378   0.391   2.954   1.953
 1145TIP3    H2 3379   0.425   3.099   1.925
 1146TIP3   OH2 3380   8.128   2.168   6.402
 1146TIP3    H1 3381   8.205   2.206   6.444
 1146TIP3    H2 3382   8.154   2.078   6.382
 1147TIP3   OH2 3383   7.995   1.409   0.447
 1147TIP3    H1 3384   7.963   1.440   0.363
 1147TIP3    H2 3385   8.033   1.486   0.489
 1148TIP3   OH2 3386   2.297   4.300   4.536
 1148TIP3    H1 3387   2.211   4.270   4.565
 1148TIP3    H2 3388   2.326   4.234   4.473
 1149TIP3   OH2 3389   0.948   7.348   4.432
 1149TIP3    H1 3390   0.894   7.276   4.398
 1149TIP3    H2 3391   1.013   7.363   4.363
 1150TIP3   OH2 3392   3.962   5.232   2.289
 1150TIP3    H1 3393   4.006   5.315   2.309
 1150TIP3    H2 3394   3.887   5.230   2.348
 1151TIP3   OH2 3395   4.650   7.344   1.333
 1151TIP3    H1 3396   4.648   7.376   1.243
 1151TIP3    H2 3397   4.743   7.331   1.352
 1152TIP3   OH2 3398   7.123   4.448   0.404
 1152TIP3    H1 3399   7.071   4.496   0.469
 1152TIP3    H2 3400   7.211   4.483   0.413
 1153TIP3   OH2 3401   5.138   2.220   6.311
 1153TIP3    H1 3402   5.052   2.232   6.350
 1153TIP3    H2 3403   5.199   2.259   6.374
 1154TIP3   OH2 3404   1.665   1.603   3.706
 1154TIP3    H1 3405   1.575   1.576   3.691
 1154TIP3    H2 3406   1.664   1.644   3.792
 1155TIP3   OH2 3407   0.375   1.648   1.632
 1155TIP3    H1 3408   0.299   1.597   1.602
 1155TIP3    H2 3409   0.367   1.732   1.585
 1156TIP3   OH2 3410   3.256   1.013   6.240
 1156TIP3    H1 3411   3.262   1.041   6.332
 1156TIP3    H2 3412   3.347   0.994   6.215
 1157TIP3   OH2 3413   1.312   5.867   5.290
 1157TIP3    H1 3414   1.268   5.873   5.374
 1157TIP3    H2 3415   1.245   5.889   5.226
 1158TIP3   OH2 3416   4.491   1.433   1.057
 1158TIP3    H1 3417   4.502   1.527   1.068
 1158TIP3    H2 3418   4.535   1.394   1.132
 1159TIP3   OH2 3419   4.439   0.132   4.526
 1159TIP3    H1 3420   4.495   0.207   4.542
 1159TIP3    H2 3421   4.355   0.169   4.499
 1160TIP3   OH2 3422   6.736   0.721   2.727
 1160TIP3    H1 3423   6.695   0.656   2.785
 1160TIP3    H2 3424   6.704   0.805   2.759
 1161TIP3   OH2 3425   0.774   1.825   3.914
 1161TIP3    H1 3426   0.845   1.777   3.871
 1161TIP3    H2 3427   0.801   1.916   3.912
 1162TIP3   OH2 3428   6.464   7.801   3.906
 1162TIP3    H1 3429   6.463   7.872   3.970
 1162TIP3    H2 3430   6.529   7.739   3.940
 1163TIP3   OH2 3431   3.891   1.168   1.976
 1163TIP3    H1 3432   3.902   1.206   1.889
 1163TIP3    H2 3433   3.978   1.175   2.016
 1164TIP3   OH2 3434   3.388   7.067   2.446
 1164TIP3    H1 3435   3.477   7.070   2.412
 1164TIP3    H2 3436   3.384   6.985   2.496
 1165TIP3   OH2 3437   2.993   2.029   4.986
 1165TIP3    H1 3438   3.025   2.069   4.905
 1165TIP3    H2 3439   2.907   1.994   4.964
 1166TIP3   OH2 3440   6.889   3.744   1.072
 1166TIP3    H1 3441   6.958   3.683   1.098
 1166TIP3    H2 3442   6.907   3.764   0.981
 1167TIP3   OH2 3443   4.490   1.154   6.171
 1167TIP3    H1 3444   4.442   1.106   6.103
 1167TIP3    H2 3445   4.550   1.211   6.123
 1168TIP3   OH2 3446   3.548   2.503   6.544
 1168TIP3    H1 3447   3.613   2.550   6.492
 1168TIP3    H2 3448   3.464   2.534   6.512
 1169TIP3   OH2 3449   5.437   1.882   4.806
 1169TIP3    H1 3450   5.481   1.860   4.724
 1169TIP3    H2 3451   5.502   1.864   4.874
 1170TIP3   OH2 3452   7.167   3.519   5.426
 1170TIP3    H1 3453   7.216   3.456   5.374
 1170TIP3    H2 3454   7.207   3.516   5.513
 1171TIP3   OH2 3455   7.247   2.340   2.898
 1171TIP3    H1 3456   7.219   2.254   2.929
 1171TIP3    H2 3457   7.181   2.400   2.935
 1172TIP3   OH2 3458   7.467   5.439   1.934
 1172TIP3    H1 3459   7.442   5.521   1.891
 1172TIP3    H2 3460   7.384   5.395   1.951
 1173TIP3   OH2 3461   7.473   5.815   0.797
 1173TIP3    H1 3462   7.483   5.844   0.706
 1173TIP3    H2 3463   7.513   5.886   0.848
 1174TIP3   OH2 3464   6.111   1.502   4.126
 1174TIP3    H1 3465   6.128   1.409   4.113
 1174TIP3    H2 3466   6.180   1.531   4.185
 1175TIP3   OH2 3467   6.184   5.397   4.238
 1175TIP3    H1 3468   6.233   5.358   4.310
 1175TIP3    H2 3469   6.244   5.460   4.199
 1176TIP3   OH2 3470   1.103   2.369   5.489
 1176TIP3    H1 3471   1.185   2.419   5.481
 1176TIP3    H2 3472   1.036   2.436   5.502
 1177TIP3   OH2 3473   1.686   7.798   6.005
 1177TIP3    H1 3474   1.595   7.828   5.998
 1177TIP3    H2 3475   1.694   7.732   5.937
 1178TIP3   OH2 3476   0.775   7.672   2.711
 1178TIP3    H1 3477   0.714   7.676   2.638
 1178TIP3    H2 3478   0.823   7.755   2.707
 1179TIP3   OH2 3479   4.692   3.373   4.238
 1179TIP3    H1 3480   4.721   3.461   4.213
 1179TIP3    H2 3481   4.598   3.373   4.218
 1180TIP3   OH2 3482   0.075   2.033   4.429
 1180TIP3    H1 3483   0.066   1.969   4.360
 1180TIP3    H2 3484   0.050   2.116   4.389
 1181TIP3   OH2 3485   7.978   5.949   2.098
 1181TIP3    H1 3486   7.910   6.006   2.133
 1181TIP3    H2 3487   7.983   5.876   2.161
 1182TIP3   OH2 3488   8.124   3.589   3.573
 1182TIP3    H1 3489   8.141   3.538   3.494
 1182TIP3    H2 3490   8.206   3.635   3.591
 1183TIP3   OH2 3491   7.149   0.131   5.561
 1183TIP3    H1 3492   7.225   0.100   5.611
 1183TIP3    H2 3493   7.083   0.151   5.627
 1184TIP3   OH2 3494   7.841   0.684   0.256
 1184TIP3    H1 3495   7.793   0.708   0.177
 1184TIP3    H2 3496   7.862   0.591   0.244
 1185TIP3   OH2 3497   8.202   1.112   5.729
 1185TIP3    H1 3498   8.175   1.203   5.731
 1185TIP3    H2 3499   8.296   1.114   5.743
 1186TIP3   OH2 3500   7.551   7.785   0.163
 1186TIP3    H1 3501   7.486   7.793   0.232
 1186TIP3    H2 3502   7.617   7.724   0.198
 1187TIP3   OH2 3503   7.143   1.958   0.410
 1187TIP3    H1 3504   7.157   1.903   0.487
 1187TIP3    H2 3505   7.199   1.921   0.343
 1188TIP3   OH2 3506   1.625   5.109   4.930
 1188TIP3    H1 3507   1.628   5.185   4.871
 1188TIP3    H2 3508   1.531   5.095   4.944
 1189TIP3   OH2 3509   6.952   3.268   1.911
 1189TIP3    H1 3510   6.953   3.315   1.994
 1189TIP3    H2 3511   6.865   3.286   1.874
 1190TIP3   OH2 3512   2.157   1.977   1.453
 1190TIP3    H1 3513   2.241   1.980   1.499
 1190TIP3    H2 3514   2.180   1.980   1.360
 1191TIP3   OH2 3515   3.753   0.974   2.588
 1191TIP3    H1 3516   3.664   0.968   2.622
 1191TIP3    H2 3517   3.805   0.919   2.647
 1192TIP3   OH2 3518   3.802   1.301   6.563
 1192TIP3    H1 3519   3.863   1.227   6.562
 1192TIP3    H2 3520   3.721   1.266   6.526
 1193TIP3   OH2 3521   2.474   3.939   3.448
 1193TIP3    H1 3522   2.393   3.991   3.455
 1193TIP3    H2 3523   2.539   3.989   3.498
 1194TIP3   OH2 3524   7.797   3.262   4.872
 1194TIP3    H1 3525   7.844   3.184   4.842
 1194TIP3    H2 3526   7.859   3.333   4.859
 1195TIP3   OH2 3527   1.946   3.860   2.990
 1195TIP3    H1 3528   1.997   3.894   3.064
 1195TIP3    H2 3529   1.941   3.933   2.929
 1196TIP3   OH2 3530   2.861   1.529   2.588
 1196TIP3    H1 3531   2.950   1.504   2.564
 1196TIP3    H2 3532   2.809   1.514   2.509
 1197TIP3   OH2 3533   4.471   1.386   6.349
 1197TIP3    H1 3534   4.564   1.402   6.363
 1197TIP3    H2 3535   4.469   1.301   6.304
 1198TIP3   OH2 3536   3.940   0.806   0.010
 1198TIP3    H1 3537   4.031   0.796   0.041
 1198TIP3    H2 3538   3.938   0.894  -0.029
 1199TIP3   OH2 3539   4.708   1.165   1.114
 1199TIP3    H1 3540   4.736   1.089   1.163
 1199TIP3    H2 3541   4.704   1.236   1.179
 1200TIP3   OH2 3542   2.956   2.141   1.089
 1200TIP3    H1 3543   3.020   2.194   1.137
 1200TIP3    H2 3544   2.902   2.205   1.043
 1201TIP3   OH2 3545   3.319   1.332   6.472
 1201TIP3    H1 3546   3.322   1.392   6.546
 1201TIP3    H2 3547   3.264   1.260   6.501
 1202TIP3   OH2 3548   3.432   3.640   5.728
 1202TIP3    H1 3549   3.426   3.559   5.679
 1202TIP3    H2 3550   3.473   3.615   5.811
 1203TIP3   OH2 3551   3.264   1.914   0.835
 1203TIP3    H1 3552   3.169   1.926   0.839
 1203TIP3    H2 3553   3.277   1.843   0.771
 1204TIP3   OH2 3554   4.863   6.000   5.952
 1204TIP3    H1 3555   4.921   6.071   5.982
 1204TIP3    H2 3556   4.923   5.929   5.930
 1205TIP3   OH2 3557   3.753   2.293   5.677
 1205TIP3    H1 3558   3.808   2.258   5.607
 1205TIP3    H2 3559   3.666   2.257   5.659
 1206TIP3   OH2 3560   3.058   0.841   5.329
 1206TIP3    H1 3561   3.128   0.871   5.388
 1206TIP3    H2 3562   3.059   0.746   5.337
 1207TIP3   OH2 3563   7.832   3.802   6.486
 1207TIP3    H1 3564   7.874   3.848   6.559
 1207TIP3    H2 3565   7.793   3.724   6.526
 1208TIP3   OH2 3566   7.379   5.780   2.063
 1208TIP3    H1 3567   7.322   5.710   2.094
 1208TIP3    H2 3568   7.467   5.744   2.071
 1209TIP3   OH2 3569   2.164   5.716   3.135
 1209TIP3    H1 3570   2.250   5.757   3.129
 1209TIP3    H2 3571   2.104   5.777   3.092
 1210TIP3   OH2 3572   5.518   6.575   3.850
 1210TIP3    H1 3573   5.531   6.518   3.926
 1210TIP3    H2 3574   5.578   6.648   3.866
 1211TIP3   OH2 3575   3.689   3.652   6.416
 1211TIP3    H1 3576   3.674   3.739   6.379
 1211TIP3    H2 3577   3.729   3.602   6.345
 1212TIP3   OH2 3578   2.196   5.182   1.378
 1212TIP3    H1 3579   2.227   5.273   1.384
 1212TIP3    H2 3580   2.254   5.133   1.437
 1213TIP3   OH2 3581   3.160   6.362   2.331
 1213TIP3    H1 3582   3.068   6.348   2.309
 1213TIP3    H2 3583   3.164   6.453   2.359
 1214TIP3   OH2 3584   1.142   6.893   4.950
 1214TIP3    H1 3585   1.234   6.909   4.928
 1214TIP3    H2 3586   1.105   6.981   4.961
 1215TIP3   OH2 3587   4.173   3.100   0.339
 1215TIP3    H1 3588   4.123   3.056   0.407
 1215TIP3    H2 3589   4.251   3.046   0.327
 1216TIP3   OH2 3590   1.098   4.244   1.919
 1216TIP3    H1 3591   1.073   4.317   1.862
 1216TIP3    H2 3592   1.016   4.218   1.960
 1217TIP3   OH2 3593   8.180   4.470   3.997
 1217TIP3    H1 3594   8.274   4.463   4.011
 1217TIP3    H2 3595   8.166   4.432   3.910
 1218TIP3   OH2 3596   7.062   1.318   1.491
 1218TIP3    H1 3597   7.053   1.411   1.470
 1218TIP3    H2 3598   6.989   1.276   1.446
 1219TIP3   OH2 3599   2.874   4.034   6.475
 1219TIP3    H1 3600   2.800   4.078   6.517
 1219TIP3    H2 3601   2.894   4.088   6.399
 1220TIP3   OH2 3602   6.032   4.878   1.837
 1220TIP3    H1 3603   6.047   4.957   1.785
 1220TIP3    H2 3604   6.031   4.910   1.928
 1221TIP3   OH2 3605   6.701   6.439   5.385
 1221TIP3    H1 3606   6.795   6.427   5.398
 1221TIP3    H2 3607   6.674   6.361   5.336
 1222TIP3   OH2 3608   7.761   1.326   0.517
 1222TIP3    H1 3609   7.854   1.346   0.503
 1222TIP3    H2 3610   7.722   1.410   0.542
 1223TIP3   OH2 3611   0.621   3.706   4.343
 1223TIP3    H1 3612   0.711   3.735   4.328
 1223TIP3    H2 3613   0.610   3.631   4.285
 1224TIP3   OH2 3614   7.243   5.569   4.198
 1224TIP3    H1 3615   7.163   5.562   4.251
 1224TIP3    H2 3616   7.211   5.587   4.109
 1225TIP3   OH2 3617   4.923   3.295   0.645
 1225TIP3    H1 3618   4.874   3.358   0.592
 1225TIP3    H2 3619   4.855   3.240   0.686
 1226TIP3   OH2 3620   6.419   0.000   3.031
 1226TIP3    H1 3621   6.455   0.064   3.092
 1226TIP3    H2 3622   6.478   0.001   2.956
 1227TIP3   OH2 3623   1.611   0.193   2.374
 1227TIP3    H1 3624   1.591   0.108   2.333
 1227TIP3    H2 3625   1.695   0.219   2.336
 1228TIP3   OH2 3626   7.302   1.731   2.151
 1228TIP3    H1 3627   7.360   1.777   2.092
 1228TIP3    H2 3628   7.215   1.739   2.111
 1229TIP3   OH2 3629   6.534   2.848   5.227
 1229TIP3    H1 3630   6.593   2.904   5.279
 1229TIP3    H2 3631   6.577   2.840   5.142
 1230TIP3   OH2 3632   7.733   6.569   1.643
 1230TIP3    H1 3633   7.684   6.498   1.686
 1230TIP3    H2 3634   7.760   6.626   1.714
 1231TIP3   OH2 3635   7.209   3.911   1.174
 1231TIP3    H1 3636   7.125   3.865   1.183
 1231TIP3    H2 3637   7.248   3.905   1.261
 1232TIP3   OH2 3638   7.595   1.708   6.542
 1232TIP3    H1 3639   7.680   1.665   6.528
 1232TIP3    H2 3640   7.577   1.751   6.458
 1233TIP3   OH2 3641   1.080   2.469   3.675
 1233TIP3    H1 3642   1.053   2.384   3.710
 1233TIP3    H2 3643   1.095   2.453   3.582
 1234TIP3   OH2 3644   3.336   3.957   1.937
 1234TIP3    H1 3645   3.336   3.864   1.916
 1234TIP3    H2 3646   3.256   3.991   1.896
 1235TIP3   OH2 3647   6.071   5.201   0.723
 1235TIP3    H1 3648   6.062   5.194   0.628
 1235TIP3    H2 3649   6.163   5.226   0.736
 1236TIP3   OH2 3650   8.305   5.395   1.178
 1236TIP3    H1 3651   8.321   5.437   1.093
 1236TIP3    H2 3652   8.215   5.420   1.200
 1237TIP3   OH2 3653   1.716   1.381   5.430
 1237TIP3    H1 3654   1.796   1.401   5.477
 1237TIP3    H2 3655   1.646   1.406   5.490
 1238TIP3   OH2 3656   1.411   6.684   0.855
 1238TIP3    H1 3657   1.483   6.711   0.912
 1238TIP3    H2 3658   1.442   6.603   0.814
 1239TIP3   OH2 3659   7.912   3.011   4.815
 1239TIP3    H1 3660   7.964   2.989   4.893
 1239TIP3    H2 3661   7.968   2.986   4.741
 1240TIP3   OH2 3662   2.081   6.772   0.383
 1240TIP3    H1 3663   2.002   6.720   0.394
 1240TIP3    H2 3664   2.138   6.745   0.455
 1241TIP3   OH2 3665   0.761   6.504   1.314
 1241TIP3    H1 3666   0.855   6.502   1.334
 1241TIP3    H2 3667   0.740   6.597   1.306
 1242TIP3   OH2 3668   6.320   0.752   0.218
 1242TIP3    H1 3669   6.314   0.656   0.225
 1242TIP3    H2 3670   6.274   0.773   0.136
 1243TIP3   OH2 3671   3.546   2.187   0.551
 1243TIP3    H1 3672   3.631   2.166   0.590
 1243TIP3    H2 3673   3.485   2.184   0.625
 1244TIP3   OH2 3674   1.868   2.890   2.891
 1244TIP3    H1 3675   1.845   2.815   2.945
 1244TIP3    H2 3676   1.787   2.913   2.846
 1245TIP3   OH2 3677   4.064   6.513   4.086
 1245TIP3    H1 3678   4.030   6.550   4.004
 1245TIP3    H2 3679   4.062   6.419   4.073
 1246TIP3   OH2 3680   0.573   6.190   6.146
 1246TIP3    H1 3681   0.662   6.224   6.146
 1246TIP3    H2 3682   0.519   6.263   6.115
 1247TIP3   OH2 3683   3.639   7.351   5.038
 1247TIP3    H1 3684   3.656   7.435   5.080
 1247TIP3    H2 3685   3.727   7.316   5.019
 1248TIP3   OH2 3686   0.842   7.285   1.818
 1248TIP3    H1 3687   0.882   7.204   1.786
 1248TIP3    H2 3688   0.833   7.272   1.913
 1249TIP3   OH2 3689   5.423   2.876   6.153
 1249TIP3    H1 3690   5.427   2.953   6.097
 1249TIP3    H2 3691   5.440   2.802   6.094
 1250TIP3   OH2 3692   7.314   0.031   3.427
 1250TIP3    H1 3693   7.398   0.045   3.384
 1250TIP3    H2 3694   7.330   0.056   3.518
 1251TIP3   OH2 3695   7.836   5.405   1.664
 1251TIP3    H1 3696   7.820   5.350   1.587
 1251TIP3    H2 3697   7.778   5.480   1.652
 1252TIP3   OH2 3698   0.791   1.836   2.736
 1252TIP3    H1 3699   0.720   1.888   2.772
 1252TIP3    H2 3700   0.815   1.881   2.655
 1253TIP3   OH2 3701   7.209   6.331   6.037
 1253TIP3    H1 3702   7.216   6.405   5.976
 1253TIP3    H2 3703   7.136   6.280   6.004
 1254TIP3   OH2 3704   6.057   4.311   3.431
 1254TIP3    H1 3705   5.970   4.331   3.396
 1254TIP3    H2 3706   6.111   4.386   3.406
 1255TIP3   OH2 3707   4.605   4.609   4.457
 1255TIP3    H1 3708   4.574   4.642   4.372
 1255TIP3    H2 3709   4.527   4.570   4.497
 1256TIP3   OH2 3710   3.120   1.851   3.674
 1256TIP3    H1 3711   3.146   1.925   3.730
 1256TIP3    H2 3712   3.109   1.890   3.587
 1257TIP3   OH2 3713   4.103   3.122   1.624
 1257TIP3    H1 3714   4.050   3.108   1.702
 1257TIP3    H2 3715   4.041   3.123   1.552
 1258TIP3   OH2 3716   0.821   2.478   2.845
 1258TIP3    H1 3717   0.860   2.492   2.759
 1258TIP3    H2 3718   0.845   2.556   2.896
 1259TIP3   OH2 3719   2.570   5.432   6.308
 1259TIP3    H1 3720   2.514   5.484   6.251
 1259TIP3    H2 3721   2.655   5.475   6.305
 1260TIP3   OH2 3722   3.672   2.059   5.894
 1260TIP3    H1 3723   3.647   2.040   5.984
 1260TIP3    H2 3724   3.713   2.146   5.899
 1261TIP3   OH2 3725   6.051   1.245   1.070
 1261TIP3    H1 3726   5.997   1.256   1.148
 1261TIP3    H2 3727   6.094   1.330   1.059
 1262TIP3   OH2 3728   4.566   1.590   5.749
 1262TIP3    H1 3729   4.511   1.527   5.795
 1262TIP3    H2 3730   4.597   1.650   5.818
 1263TIP3   OH2 3731   6.687   0.693   0.356
 1263TIP3    H1 3732   6.688   0.648   0.440
 1263TIP3    H2 3733   6.609   0.748   0.359
 1264TIP3   OH2 3734   3.211   5.552   2.342
 1264TIP3    H1 3735   3.286   5.570   2.285
 1264TIP3    H2 3736   3.173   5.472   2.306
 1265TIP3   OH2 3737   8.016   0.922   4.060
 1265TIP3    H1 3738   7.955   0.857   4.026
 1265TIP3    H2 3739   7.977   0.950   4.143
 1266TIP3   OH2 3740   8.291   0.247   0.477
 1266TIP3    H1 3741   8.385   0.243   0.495
 1266TIP3    H2 3742   8.251   0.198   0.550
 1267TIP3   OH2 3743   5.870   4.649   5.761
 1267TIP3    H1 3744   5.947   4.592   5.756
 1267TIP3    H2 3745   5.823   4.619   5.840
 1268TIP3   OH2 3746   4.703   6.813   2.369
 1268TIP3    H1 3747   4.637   6.818   2.300
 1268TIP3    H2 3748   4.701   6.900   2.410
 1269TIP3   OH2 3749   0.771   4.247   4.224
 1269TIP3    H1 3750   0.826   4.169   4.231
 1269TIP3    H2 3751   0.712   4.228   4.151
 1270TIP3   OH2 3752   2.458   4.075   0.898
 1270TIP3    H1 3753   2.520   4.053   0.829
 1270TIP3    H2 3754   2.447   3.993   0.947
 1271TIP3   OH2 3755   7.861   7.233   4.322
 1271TIP3    H1 3756   7.831   7.161   4.266
 1271TIP3    H2 3757   7.782   7.263   4.367
 1272TIP3   OH2 3758   5.625   0.112   0.519
 1272TIP3    H1 3759   5.588   0.155   0.596
 1272TIP3    H2 3760   5.558   0.051   0.491
 1273TIP3   OH2 3761   0.559   3.429   6.406
 1273TIP3    H1 3762   0.627   3.461   6.347
 1273TIP3    H2 3763   0.589   3.342   6.433
 1274TIP3   OH2 3764   8.177   2.004   2.712
 1274TIP3    H1 3765   8.180   1.996   2.807
 1274TIP3    H2 3766   8.246   1.946   2.681
 1275TIP3   OH2 3767   0.393   0.394   6.227
 1275TIP3    H1 3768   0.372   0.470   6.281
 1275TIP3    H2 3769   0.419   0.327   6.290
 1276TIP3   OH2 3770   5.370   3.125   4.429
 1276TIP3    H1 3771   5.290   3.147   4.478
 1276TIP3    H2 3772   5.365   3.178   4.350
 1277TIP3   OH2 3773   5.645   3.845   5.064
 1277TIP3    H1 3774   5.590   3.782   5.110
 1277TIP3    H2 3775   5.716   3.865   5.125
 1278TIP3   OH2 3776   1.045   1.433   6.755
 1278TIP3    H1 3777   1.130   1.432   6.711
 1278TIP3    H2 3778   1.051   1.505   6.817
 1279TIP3   OH2 3779   0.348   2.738   3.668
 1279TIP3    H1 3780   0.432   2.698   3.646
 1279TIP3    H2 3781   0.309   2.761   3.584
 1280TIP3   OH2 3782   4.386   5.509   1.825
 1280TIP3    H1 3783   4.459   5.487   1.767
 1280TIP3    H2 3784   4.329   5.432   1.822
 1281TIP3   OH2 3785   0.211   6.250   4.286
 1281TIP3    H1 3786   0.148   6.230   4.217
 1281TIP3    H2 3787   0.186   6.337   4.316
 1282TIP3   OH2 3788   0.435   3.946   1.108
 1282TIP3    H1 3789   0.510   3.887   1.105
 1282TIP3    H2 3790   0.364   3.895   1.068
 1283TIP3   OH2 3791   0.207   5.491   3.449
 1283TIP3    H1 3792   0.183   5.476   3.541
 1283TIP3    H2 3793   0.280   5.551   3.453
 1284TIP3   OH2 3794   1.384   1.981   5.647
 1284TIP3    H1 3795   1.334   2.033   5.584
 1284TIP3    H2 3796   1.349   1.892   5.639
 1285TIP3   OH2 3797   6.367   3.573   3.169
 1285TIP3    H1 3798   6.389   3.552   3.260
 1285TIP3    H2 3799   6.384   3.492   3.121
 1286TIP3   OH2 3800   5.746   2.500   1.160
 1286TIP3    H1 3801   5.784   2.472   1.076
 1286TIP3    H2 3802   5.772   2.432   1.222
 1287TIP3   OH2 3803   2.884   2.357   6.480
 1287TIP3    H1 3804   2.846   2.332   6.564
 1287TIP3    H2 3805   2.919   2.445   6.496
 1288TIP3   OH2 3806   5.012   0.305   3.172
 1288TIP3    H1 3807   4.947   0.343   3.113
 1288TIP3    H2 3808   5.062   0.244   3.117
 1289TIP3   OH2 3809   4.051   3.872   1.069
 1289TIP3    H1 3810   3.964   3.846   1.097
 1289TIP3    H2 3811   4.038   3.919   0.988
 1290TIP3   OH2 3812   0.316   1.819   6.076
 1290TIP3    H1 3813   0.303   1.914   6.084
 1290TIP3    H2 3814   0.234   1.781   6.108
 1291TIP3   OH2 3815   5.848   1.076   0.614
 1291TIP3    H1 3816   5.912   1.008   0.591
 1291TIP3    H2 3817   5.780   1.069   0.547
 1292TIP3   OH2 3818   5.874   0.896   2.380
 1292TIP3    H1 3819   5.870   0.806   2.348
 1292TIP3    H2 3820   5.813   0.898   2.454
 1293TIP3   OH2 3821   0.149   0.302   1.891
 1293TIP3    H1 3822   0.088   0.250   1.839
 1293TIP3    H2 3823   0.157   0.254   1.974
 1294TIP3   OH2 3824   7.404   2.643   5.557
 1294TIP3    H1 3825   7.402   2.571   5.620
 1294TIP3    H2 3826   7.347   2.710   5.595
 1295TIP3   OH2 3827   2.944   4.277   2.245
 1295TIP3    H1 3828   2.936   4.369   2.219
 1295TIP3    H2 3829   2.951   4.279   2.340
 1296TIP3   OH2 3830   2.257   6.275   2.306
 1296TIP3    H1 3831   2.175   6.244   2.267
 1296TIP3    H2 3832   2.315   6.199   2.304
 1297TIP3   OH2 3833   2.379   6.295   3.136
 1297TIP3    H1 3834   2.359   6.389   3.134
 1297TIP3    H2 3835   2.325   6.261   3.207
 1298TIP3   OH2 3836   3.016   3.038   5.675
 1298TIP3    H1 3837   2.923   3.055   5.662
 1298TIP3    H2 3838   3.053   3.034   5.587
 1299TIP3   OH2 3839   4.171   1.587   4.783
 1299TIP3    H1 3840   4.177   1.678   4.756
 1299TIP3    H2 3841   4.254   1.548   4.754
 1300TIP3   OH2 3842   6.982   4.810   1.311
 1300TIP3    H1 3843   6.955   4.895   1.346
 1300TIP3    H2 3844   6.900   4.766   1.288
 1301TIP3   OH2 3845   0.060   0.474   4.814
 1301TIP3    H1 3846   0.095   0.554   4.853
 1301TIP3    H2 3847   0.100   0.403   4.866
 1302TIP3   OH2 3848   7.276   1.076   5.759
 1302TIP3    H1 3849   7.288   1.011   5.829
 1302TIP3    H2 3850   7.352   1.133   5.766
 1303TIP3   OH2 3851   0.706   1.826   5.804
 1303TIP3    H1 3852   0.722   1.743   5.848
 1303TIP3    H2 3853   0.777   1.835   5.741
 1304TIP3   OH2 3854   8.001   0.022   1.820
 1304TIP3    H1 3855   8.023   0.112   1.846
 1304TIP3    H2 3856   8.037  -0.033   1.890
 1305TIP3   OH2 3857   3.225   0.982   4.314
 1305TIP3    H1 3858   3.239   0.945   4.227
 1305TIP3    H2 3859   3.313   0.997   4.349
 1306TIP3   OH2 3860   4.351   4.742   4.436
 1306TIP3    H1 3861   4.311   4.733   4.349
 1306TIP3    H2 3862   4.393   4.828   4.434
 1307TIP3   OH2 3863   4.505   6.451   6.208
 1307TIP3    H1 3864   4.536   6.521   6.151
 1307TIP3    H2 3865   4.497   6.375   6.150
 1308TIP3   OH2 3866   5.219   1.448   3.360
 1308TIP3    H1 3867   5.219   1.452   3.264
 1308TIP3    H2 3868   5.129   1.468   3.384
 1309TIP3   OH2 3869   4.054   0.962   0.598
 1309TIP3    H1 3870   4.091   1.013   0.526
 1309TIP3    H2 3871   3.994   1.022   0.641
 1310TIP3   OH2 3872   7.773   1.991   4.254
 1310TIP3    H1 3873   7.734   1.945   4.329
 1310TIP3    H2 3874   7.700   2.039   4.215
 1311TIP3   OH2 3875   3.127   3.582   2.073
 1311TIP3    H1 3876   3.178   3.502   2.067
 1311TIP3    H2 3877   3.186   3.652   2.044
 1312TIP3   OH2 3878   3.121   4.045   4.642
 1312TIP3    H1 3879   3.138   3.961   4.685
 1312TIP3    H2 3880   3.206   4.072   4.608
 1313TIP3   OH2 3881   6.194   5.543   3.584
 1313TIP3    H1 3882   6.153   5.499   3.659
 1313TIP3    H2 3883   6.254   5.478   3.548
 1314TIP3   OH2 3884   6.154   2.903   6.298
 1314TIP3    H1 3885   6.235   2.867   6.263
 1314TIP3    H2 3886   6.097   2.911   6.222
 1315TIP3   OH2 3887   3.213   2.099   5.860
 1315TIP3    H1 3888   3.162   2.019   5.847
 1315TIP3    H2 3889   3.158   2.169   5.826
 1316TIP3   OH2 3890   1.097   5.607   5.965
 1316TIP3    H1 3891   1.165   5.543   5.985
 1316TIP3    H2 3892   1.025   5.586   6.024
 1317TIP3   OH2 3893   1.914   1.476   1.998
 1317TIP3    H1 3894   1.958   1.529   1.932
 1317TIP3    H2 3895   1.824   1.469   1.967
 1318TIP3   OH2 3896   7.109   5.991   4.456
 1318TIP3    H1 3897   7.047   5.971   4.386
 1318TIP3    H2 3898   7.195   5.989   4.413
 1319TIP3   OH2 3899   4.914   0.576   4.882
 1319TIP3    H1 3900   4.878   0.487   4.884
 1319TIP3    H2 3901   4.931   0.593   4.789
 1320TIP3   OH2 3902   6.956   0.097   5.744
 1320TIP3    H1 3903   6.876   0.054   5.775
 1320TIP3    H2 3904   6.990   0.142   5.821
 1321TIP3   OH2 3905   3.572   3.483   1.879
 1321TIP3    H1 3906   3.638   3.476   1.948
 1321TIP3    H2 3907   3.623   3.498   1.799
 1322TIP3   OH2 3908   7.535   4.770   2.011
 1322TIP3    H1 3909   7.458   4.827   2.014
 1322TIP3    H2 3910   7.538   4.728   2.096
 1323TIP3   OH2 3911   0.272   6.562   1.847
 1323TIP3    H1 3912   0.218   6.639   1.829
 1323TIP3    H2 3913   0.229   6.518   1.920
 1324TIP3   OH2 3914   0.674   7.518   6.451
 1324TIP3    H1 3915   0.580   7.503   6.450
 1324TIP3    H2 3916   0.705   7.474   6.530
 1325TIP3   OH2 3917   6.573   1.089   3.714
 1325TIP3    H1 3918   6.653   1.138   3.732
 1325TIP3    H2 3919   6.570   1.083   3.619
 1326TIP3   OH2 3920   7.748   5.717   2.882
 1326TIP3    H1 3921   7.796   5.634   2.881
 1326TIP3    H2 3922   7.815   5.784   2.866
 1327TIP3   OH2 3923   3.384   4.627   2.694
 1327TIP3    H1 3924   3.314   4.645   2.757
 1327TIP3    H2 3925   3.458   4.598   2.747
 1328TIP3   OH2 3926   4.770   4.768   6.152
 1328TIP3    H1 3927   4.864   4.782   6.166
 1328TIP3    H2 3928   4.766   4.686   6.102
 1329TIP3   OH2 3929   7.791   6.549   0.089
 1329TIP3    H1 3930   7.858   6.597   0.136
 1329TIP3    H2 3931   7.788   6.590   0.002
 1330TIP3   OH2 3932   3.271   3.335   1.630
 1330TIP3    H1 3933   3.243   3.417   1.670
 1330TIP3    H2 3934   3.303   3.282   1.702
 1331TIP3   OH2 3935   1.843   3.656   2.655
 1331TIP3    H1 3936   1.787   3.733   2.664
 1331TIP3    H2 3937   1.817   3.598   2.727
 1332TIP3   OH2 3938   2.253   6.622   6.178
 1332TIP3    H1 3939   2.222   6.690   6.119
 1332TIP3    H2 3940   2.177   6.603   6.235
 1333TIP3   OH2 3941   4.559   2.404   0.886
 1333TIP3    H1 3942   4.546   2.378   0.977
 1333TIP3    H2 3943   4.479   2.377   0.841
 1334TIP3   OH2 3944   2.874   2.726   6.730
 1334TIP3    H1 3945   2.868   2.707   6.824
 1334TIP3    H2 3946   2.931   2.658   6.696
 1335TIP3   OH2 3947   2.114   1.080   2.636
 1335TIP3    H1 3948   2.107   1.012   2.703
 1335TIP3    H2 3949   2.084   1.160   2.679
 1336TIP3   OH2 3950   0.698   4.120   2.929
 1336TIP3    H1 3951   0.647   4.159   3.000
 1336TIP3    H2 3952   0.650   4.040   2.907
 1337TIP3   OH2 3953   7.814   6.309   6.306
 1337TIP3    H1 3954   7.794   6.336   6.217
 1337TIP3    H2 3955   7.874   6.235   6.297
 1338TIP3   OH2 3956   2.795   0.700   5.077
 1338TIP3    H1 3957   2.724   0.717   5.138
 1338TIP3    H2 3958   2.824   0.611   5.098
 1339TIP3   OH2 3959   4.655   6.606   4.060
 1339TIP3    H1 3960   4.659   6.699   4.082
 1339TIP3    H2 3961   4.678   6.561   4.142
 1340TIP3   OH2 3962   5.429   6.427   4.928
 1340TIP3    H1 3963   5.462   6.514   4.905
 1340TIP3    H2 3964   5.336   6.441   4.945
 1341TIP3   OH2 3965   6.429   6.139   4.498
 1341TIP3    H1 3966   6.408   6.230   4.476
 1341TIP3    H2 3967   6.523   6.139   4.513
 1342TIP3   OH2 3968   4.391   0.326  -0.039
 1342TIP3    H1 3969   4.376   0.250   0.018
 1342TIP3    H2 3970   4.486   0.341  -0.034
 1343TIP3   OH2 3971   3.166   0.318   5.815
 1343TIP3    H1 3972   3.199   0.407   5.813
 1343TIP3    H2 3973   3.237   0.265   5.780
 1344TIP3   OH2 3974   7.243   0.573   3.678
 1344TIP3    H1 3975   7.281   0.526   3.604
 1344TIP3    H2 3976   7.310   0.637   3.702
 1345TIP3   OH2 3977   5.230   0.296   5.410
 1345TIP3    H1 3978   5.283   0.220   5.387
 1345TIP3    H2 3979   5.229   0.350   5.331
 1346TIP3   OH2 3980   2.563   4.232   2.359
 1346TIP3    H1 3981   2.647   4.240   2.312
 1346TIP3    H2 3982   2.588   4.221   2.451
 1347TIP3   OH2 3983   5.072   2.027   2.481
 1347TIP3    H1 3984   5.094   2.119   2.492
 1347TIP3    H2 3985   4.998   2.013   2.540
 1348TIP3   OH2 3986   1.428   6.213   2.399
 1348TIP3    H1 3987   1.362   6.236   2.465
 1348TIP3    H2 3988   1.379   6.204   2.318
 1349TIP3   OH2 3989   8.177   6.873   3.753
 1349TIP3    H1 3990   8.096   6.863   3.704
 1349TIP3    H2 3991   8.160   6.942   3.816
 1350TIP3   OH2 3992   5.115   3.876   6.468
 1350TIP3    H1 3993   5.033   3.910   6.502
 1350TIP3    H2 3994   5.151   3.948   6.415
 1351TIP3   OH2 3995   6.851   0.502   6.035
 1351TIP3    H1 3996   6.771   0.553   6.050
 1351TIP3    H2 3997   6.901   0.511   6.116
 1352TIP3   OH2 3998   3.165   5.717   6.128
 1352TIP3    H1 3999   3.200   5.677   6.048
 1352TIP3    H2 4000   3.079   5.677   6.139
 1353TIP3   OH2 4001   7.794   6.950   0.135
 1353TIP3    H1 4002   7.887   6.969   0.119
 1353TIP3    H2 4003   7.747   7.005   0.072
 1354TIP3   OH2 4004   1.650   6.993   3.412
 1354TIP3    H1 4005   1.595   7.016   3.487
 1354TIP3    H2 4006   1.668   7.076   3.369
 1355TIP3   OH2 4007   6.617   4.979   5.594
 1355TIP3    H1 4008   6.636   5.066   5.559
 1355TIP3    H2 4009   6.586   4.929   5.518
 1356TIP3   OH2 4010   8.061   6.925   0.415
 1356TIP3    H1 4011   8.112   6.864   0.469
 1356TIP3    H2 4012   8.090   7.012   0.444
 1357TIP3   OH2 4013   8.001   7.160   2.007
 1357TIP3    H1 4014   7.938   7.107   2.057
 1357TIP3    H2 4015   8.085   7.116   2.022
 1358TIP3   OH2 4016   0.248   6.464   1.095
 1358TIP3    H1 4017   0.310   6.504   1.155
 1358TIP3    H2 4018   0.272   6.499   1.009
 1359TIP3   OH2 4019   8.003   5.431   6.254
 1359TIP3    H1 4020   7.953   5.512   6.261
 1359TIP3    H2 4021   7.980   5.381   6.333
 1360TIP3   OH2 4022   2.395   2.664   2.333
 1360TIP3    H1 4023   2.415   2.740   2.279
 1360TIP3    H2 4024   2.416   2.691   2.422
 1361TIP3   OH2 4025   2.830   0.297   6.007
 1361TIP3    H1 4026   2.823   0.241   5.929
 1361TIP3    H2 4027   2.824   0.236   6.080
 1362TIP3   OH2 4028   7.777   6.817   4.540
 1362TIP3    H1 4029   7.692   6.774   4.547
 1362TIP3    H2 4030   7.806   6.798   4.450
 1363TIP3   OH2 4031   3.088   4.476   6.376
 1363TIP3    H1 4032   3.136   4.452   6.297
 1363TIP3    H2 4033   3.121   4.415   6.443
 1364TIP3   OH2 4034   8.259   5.108   5.075
 1364TIP3    H1 4035   8.188   5.049   5.099
 1364TIP3    H2 4036   8.232   5.144   4.990
 1365TIP3   OH2 4037   0.008   3.209   4.440
 1365TIP3    H1 4038  -0.011   3.128   4.393
 1365TIP3    H2 4039   0.074   3.185   4.505
 1366TIP3   OH2 4040   4.861   6.315   4.040
 1366TIP3    H1 4041   4.813   6.255   4.097
 1366TIP3    H2 4042   4.793   6.359   3.990
 1367TIP3   OH2 4043   4.273   0.813   6.421
 1367TIP3    H1 4044   4.220   0.734   6.430
 1367TIP3    H2 4045   4.317   0.823   6.505
 1368TIP3   OH2 4046   7.188   0.718   0.732
 1368TIP3    H1 4047   7.234   0.714   0.816
 1368TIP3    H2 4048   7.153   0.630   0.719
 1369TIP3   OH2 4049   2.678   4.962   0.291
 1369TIP3    H1 4050   2.683   4.868   0.273
 1369TIP3    H2 4051   2.769   4.992   0.291
 1370TIP3   OH2 4052   3.630   3.605   2.883
 1370TIP3    H1 4053   3.697   3.660   2.843
 1370TIP3    H2 4054   3.551   3.623   2.832
 1371TIP3   OH2 4055   6.055   7.576   6.219
 1371TIP3    H1 4056   6.060   7.626   6.138
 1371TIP3    H2 4057   5.990   7.622   6.272
 1372TIP3   OH2 4058   4.955   5.045   0.039
 1372TIP3    H1 4059   4.965   4.952   0.017
 1372TIP3    H2 4060   4.941   5.045   0.134
 1373TIP3   OH2 4061   3.039   5.708   0.436
 1373TIP3    H1 4062   3.014   5.710   0.343
 1373TIP3    H2 4063   2.980   5.772   0.477
 1374TIP3   OH2 4064   5.182   5.089   1.650
 1374TIP3    H1 4065   5.191   5.165   1.708
 1374TIP3    H2 4066   5.272   5.068   1.624
 1375TIP3   OH2 4067   0.432   0.835   3.284
 1375TIP3    H1 4068   0.450   0.785   3.205
 1375TIP3    H2 4069   0.341   0.863   3.275
 1376TIP3   OH2 4070   2.536   4.830   3.969
 1376TIP3    H1 4071   2.499   4.896   3.910
 1376TIP3    H2 4072   2.481   4.753   3.956
 1377TIP3   OH2 4073   5.088   5.635   5.146
 1377TIP3    H1 4074   5.127   5.723   5.147
 1377TIP3    H2 4075   5.006   5.646   5.195
 1378TIP3   OH2 4076   5.446   6.616   4.498
 1378TIP3    H1 4077   5.391   6.646   4.570
 1378TIP3    H2 4078   5.525   6.583   4.540
 1379TIP3   OH2 4079   0.770   0.899   1.893
 1379TIP3    H1 4080   0.711   0.944   1.954
 1379TIP3    H2 4081   0.793   0.818   1.939
 1380TIP3   OH2 4082   2.076   1.250   6.607
 1380TIP3    H1 4083   1.984   1.277   6.610
 1380TIP3    H2 4084   2.091   1.207   6.692
 1381TIP3   OH2 4085   4.633   0.270   3.294
 1381TIP3    H1 4086   4.623   0.200   3.229
 1381TIP3    H2 4087   4.689   0.334   3.251
 1382TIP3   OH2 4088   7.113   0.315   6.708
 1382TIP3    H1 4089   7.184   0.366   6.747
 1382TIP3    H2 4090   7.062   0.379   6.659
 1383TIP3   OH2 4091   6.616   0.206   1.000
 1383TIP3    H1 4092   6.523   0.196   0.982
 1383TIP3    H2 4093   6.629   0.161   1.084
 1384TIP3   OH2 4094   2.176   1.492   6.523
 1384TIP3    H1 4095   2.238   1.466   6.456
 1384TIP3    H2 4096   2.145   1.410   6.562
 1385TIP3   OH2 4097   3.186   6.212   2.669
 1385TIP3    H1 4098   3.099   6.199   2.631
 1385TIP3    H2 4099   3.231   6.270   2.607
 1386TIP3   OH2 4100   6.043   7.695   0.550
 1386TIP3    H1 4101   6.039   7.783   0.586
 1386TIP3    H2 4102   6.050   7.708   0.455
 1387TIP3   OH2 4103   7.499   5.153   2.482
 1387TIP3    H1 4104   7.406   5.162   2.461
 1387TIP3    H2 4105   7.541   5.227   2.439
 1388TIP3   OH2 4106   7.609   0.467   3.417
 1388TIP3    H1 4107   7.665   0.495   3.345
 1388TIP3    H2 4108   7.650   0.505   3.495
 1389TIP3   OH2 4109   5.725   5.936   2.587
 1389TIP3    H1 4110   5.630   5.936   2.573
 1389TIP3    H2 4111   5.735   5.919   2.681
 1390TIP3   OH2 4112   1.928   5.370   5.698
 1390TIP3    H1 4113   1.901   5.461   5.704
 1390TIP3    H2 4114   1.858   5.328   5.647
 1391TIP3   OH2 4115   6.823   1.057   2.744
 1391TIP3    H1 4116   6.740   1.024   2.709
 1391TIP3    H2 4117   6.800   1.102   2.824
 1392TIP3   OH2 4118   7.242   7.283   5.040
 1392TIP3    H1 4119   7.328   7.306   5.004
 1392TIP3    H2 4120   7.179   7.316   4.975
 1393TIP3   OH2 4121   1.940   6.308   3.024
 1393TIP3    H1 4122   1.992   6.359   2.963
 1393TIP3    H2 4123   1.905   6.372   3.086
 1394TIP3   OH2 4124   7.538   4.673   6.197
 1394TIP3    H1 4125   7.554   4.691   6.105
 1394TIP3    H2 4126   7.530   4.578   6.201
 1395TIP3   OH2 4127   1.676   7.185   6.293
 1395TIP3    H1 4128   1.659   7.267   6.339
 1395TIP3    H2 4129   1.665   7.206   6.200
 1396TIP3   OH2 4130   0.987   5.190   2.074
 1396TIP3    H1 4131   1.065   5.180   2.129
 1396TIP3    H2 4132   0.914   5.196   2.137
 1397TIP3   OH2 4133   2.438   0.064   6.672
 1397TIP3    H1 4134   2.484   0.008   6.735
 1397TIP3    H2 4135   2.478   0.150   6.683
 1398TIP3   OH2 4136   2.043   3.247   1.516
 1398TIP3    H1 4137   2.092   3.217   1.440
 1398TIP3    H2 4138   1.963   3.195   1.517
 1399TIP3   OH2 4139   1.345   5.413   2.026
 1399TIP3    H1 4140   1.415   5.474   2.003
 1399TIP3    H2 4141   1.292   5.459   2.091
 1400TIP3   OH2 4142   1.996   3.074   5.037
 1400TIP3    H1 4143   1.985   3.081   5.132
 1400TIP3    H2 4144   2.001   2.980   5.020
 1401TIP3   OH2 4145   0.069   1.444   5.771
 1401TIP3    H1 4146   0.108   1.530   5.787
 1401TIP3    H2 4147   0.044   1.413   5.858
 1402TIP3   OH2 4148   4.042   2.856   2.512
 1402TIP3    H1 4149   4.016   2.897   2.595
 1402TIP3    H2 4150   4.101   2.786   2.538
 1403TIP3   OH2 4151   6.912   1.307   2.282
 1403TIP3    H1 4152   6.923   1.391   2.238
 1403TIP3    H2 4153   6.819   1.304   2.305
 1404TIP3   OH2 4154   5.739   1.143   1.036
 1404TIP3    H1 4155   5.813   1.174   1.088
 1404TIP3    H2 4156   5.747   1.190   0.953
 1405TIP3   OH2 4157   3.616   3.740   2.115
 1405TIP3    H1 4158   3.636   3.770   2.027
 1405TIP3    H2 4159   3.681   3.783   2.171
 1406TIP3   OH2 4160   5.011   6.054   5.626
 1406TIP3    H1 4161   4.957   6.126   5.659
 1406TIP3    H2 4162   5.086   6.097   5.586
 1407TIP3   OH2 4163   0.424   5.638   1.441
 1407TIP3    H1 4164   0.450   5.723   1.478
 1407TIP3    H2 4165   0.456   5.573   1.504
 1408TIP3   OH2 4166   4.475   7.720   2.423
 1408TIP3    H1 4167   4.413   7.672   2.368
 1408TIP3    H2 4168   4.541   7.654   2.447
 1409TIP3   OH2 4169   4.598   7.523   6.630
 1409TIP3    H1 4170   4.623   7.469   6.555
 1409TIP3    H2 4171   4.534   7.470   6.678
 1410TIP3   OH2 4172   6.716   3.604   6.662
 1410TIP3    H1 4173   6.636   3.623   6.711
 1410TIP3    H2 4174   6.768   3.549   6.720
 1411TIP3   OH2 4175   5.473   3.812   1.678
 1411TIP3    H1 4176   5.551   3.847   1.719
 1411TIP3    H2 4177   5.447   3.738   1.733
 1412TIP3   OH2 4178   4.369   4.848   6.717
 1412TIP3    H1 4179   4.377   4.943   6.713
 1412TIP3    H2 4180   4.276   4.832   6.734
 1413TIP3   OH2 4181   2.262   0.878   6.753
 1413TIP3    H1 4182   2.276   0.792   6.794
 1413TIP3    H2 4183   2.262   0.860   6.659
 1414TIP3   OH2 4184   0.745   1.412   6.053
 1414TIP3    H1 4185   0.764   1.319   6.057
 1414TIP3    H2 4186   0.746   1.442   6.144
 1415TIP3   OH2 4187   2.890   4.043   5.716
 1415TIP3    H1 4188   2.799   4.043   5.687
 1415TIP3    H2 4189   2.912   3.951   5.728
 1416TIP3   OH2 4190   1.505   1.248   6.249
 1416TIP3    H1 4191   1.471   1.323   6.299
 1416TIP3    H2 4192   1.573   1.285   6.193
 1417TIP3   OH2 4193   5.221   2.579   1.845
 1417TIP3    H1 4194   5.277   2.625   1.782
 1417TIP3    H2 4195   5.132   2.588   1.810
 1418TIP3   OH2 4196   4.406   4.531   1.489
 1418TIP3    H1 4197   4.481   4.520   1.432
 1418TIP3    H2 4198   4.367   4.614   1.462
 1419TIP3   OH2 4199   5.836   3.768   2.456
 1419TIP3    H1 4200   5.867   3.776   2.366
 1419TIP3    H2 4201   5.908   3.803   2.510
 1420TIP3   OH2 4202   7.303   3.785   1.978
 1420TIP3    H1 4203   7.271   3.800   1.889
 1420TIP3    H2 4204   7.358   3.707   1.972
 1421TIP3   OH2 4205   7.218   6.684   5.597
 1421TIP3    H1 4206   7.231   6.766   5.644
 1421TIP3    H2 4207   7.190   6.711   5.509
 1422TIP3   OH2 4208   5.271   6.756   0.651
 1422TIP3    H1 4209   5.328   6.722   0.720
 1422TIP3    H2 4210   5.253   6.846   0.677
 1423TIP3   OH2 4211   4.217   3.091   1.079
 1423TIP3    H1 4212   4.286   3.135   1.128
 1423TIP3    H2 4213   4.162   3.163   1.047
 1424TIP3   OH2 4214   0.460   6.299   4.107
 1424TIP3    H1 4215   0.425   6.318   4.194
 1424TIP3    H2 4216   0.508   6.216   4.118
 1425TIP3   OH2 4217   5.350   7.219   2.227
 1425TIP3    H1 4218   5.278   7.170   2.189
 1425TIP3    H2 4219   5.380   7.166   2.301
 1426TIP3   OH2 4220   7.238   6.515   0.940
 1426TIP3    H1 4221   7.233   6.463   0.860
 1426TIP3    H2 4222   7.300   6.585   0.919
 1427TIP3   OH2 4223   6.030   6.674   2.607
 1427TIP3    H1 4224   6.113   6.635   2.580
 1427TIP3    H2 4225   6.005   6.730   2.533
 1428TIP3   OH2 4226   1.372   4.209   0.706
 1428TIP3    H1 4227   1.322   4.160   0.772
 1428TIP3    H2 4228   1.412   4.141   0.652
 1429TIP3   OH2 4229   7.570   6.534   5.502
 1429TIP3    H1 4230   7.618   6.478   5.442
 1429TIP3    H2 4231   7.483   6.494   5.508
 1430TIP3   OH2 4232   2.737   3.967   1.409
 1430TIP3    H1 4233   2.644   3.946   1.416
 1430TIP3    H2 4234   2.776   3.887   1.373
 1431TIP3   OH2 4235   3.812   1.714   1.487
 1431TIP3    H1 4236   3.819   1.641   1.549
 1431TIP3    H2 4237   3.780   1.673   1.406
 1432TIP3   OH2 4238   5.364   6.388   2.050
 1432TIP3    H1 4239   5.458   6.394   2.035
 1432TIP3    H2 4240   5.329   6.469   2.012
 1433TIP3   OH2 4241   1.895   1.325   3.898
 1433TIP3    H1 4242   1.838   1.293   3.968
 1433TIP3    H2 4243   1.893   1.420   3.906
 1434TIP3   OH2 4244   4.813   5.878   2.759
 1434TIP3    H1 4245   4.728   5.841   2.786
 1434TIP3    H2 4246   4.844   5.924   2.837
 1435TIP3   OH2 4247   6.589   6.283   1.550
 1435TIP3    H1 4248   6.655   6.348   1.527
 1435TIP3    H2 4249   6.619   6.202   1.509
 1436TIP3   OH2 4250   6.771   5.648   3.188
 1436TIP3    H1 4251   6.687   5.644   3.234
 1436TIP3    H2 4252   6.835   5.618   3.253
 1437TIP3   OH2 4253   6.027   4.813   2.218
 1437TIP3    H1 4254   6.016   4.788   2.310
 1437TIP3    H2 4255   5.938   4.825   2.186
 1438TIP3   OH2 4256   5.602   1.224   4.221
 1438TIP3    H1 4257   5.691   1.258   4.210
 1438TIP3    H2 4258   5.590   1.217   4.316
 1439TIP3   OH2 4259   4.875   1.783   4.269
 1439TIP3    H1 4260   4.838   1.863   4.306
 1439TIP3    H2 4261   4.863   1.793   4.174
 1440TIP3   OH2 4262   5.415   2.516   0.706
 1440TIP3    H1 4263   5.347   2.458   0.740
 1440TIP3    H2 4264   5.370   2.571   0.641
 1441TIP3   OH2 4265   1.178   7.682   2.794
 1441TIP3    H1 4266   1.128   7.612   2.836
 1441TIP3    H2 4267   1.158   7.760   2.847
 1442TIP3   OH2 4268   5.236   5.206   3.412
 1442TIP3    H1 4269   5.180   5.167   3.345
 1442TIP3    H2 4270   5.324   5.201   3.375
 1443TIP3   OH2 4271   4.093   4.495   0.698
 1443TIP3    H1 4272   4.016   4.438   0.695
 1443TIP3    H2 4273   4.097   4.534   0.611
 1444TIP3   OH2 4274   1.255   2.186   0.951
 1444TIP3    H1 4275   1.250   2.172   1.045
 1444TIP3    H2 4276   1.168   2.218   0.926
 1445TIP3   OH2 4277   1.154   1.898   2.444
 1445TIP3    H1 4278   1.202   1.981   2.443
 1445TIP3    H2 4279   1.188   1.851   2.520
 1446TIP3   OH2 4280   4.678   7.387   4.121
 1446TIP3    H1 4281   4.635   7.326   4.180
 1446TIP3    H2 4282   4.645   7.365   4.034
 1447TIP3   OH2 4283   5.813   6.056   0.882
 1447TIP3    H1 4284   5.728   6.070   0.923
 1447TIP3    H2 4285   5.793   6.018   0.797
 1448TIP3   OH2 4286   2.614   0.760   5.261
 1448TIP3    H1 4287   2.579   0.836   5.306
 1448TIP3    H2 4288   2.630   0.696   5.330
 1449TIP3   OH2 4289   0.841   4.202   0.882
 1449TIP3    H1 4290   0.853   4.261   0.957
 1449TIP3    H2 4291   0.843   4.259   0.806
 1450TIP3   OH2 4292   7.695   5.057   0.850
 1450TIP3    H1 4293   7.605   5.072   0.823
 1450TIP3    H2 4294   7.716   5.129   0.909
 1451TIP3   OH2 4295   2.814   5.743   4.742
 1451TIP3    H1 4296   2.719   5.729   4.743
 1451TIP3    H2 4297   2.836   5.766   4.832
 1452TIP3   OH2 4298   1.883   2.963   5.535
 1452TIP3    H1 4299   1.901   3.032   5.599
 1452TIP3    H2 4300   1.959   2.905   5.541
 1453TIP3   OH2 4301   7.780   7.434   4.764
 1453TIP3    H1 4302   7.740   7.355   4.728
 1453TIP3    H2 4303   7.706   7.493   4.780
 1454TIP3   OH2 4304   6.964   3.793   6.286
 1454TIP3    H1 4305   6.947   3.779   6.380
 1454TIP3    H2 4306   6.983   3.886   6.279
 1455TIP3   OH2 4307   5.167   0.438   4.760
 1455TIP3    H1 4308   5.203   0.523   4.734
 1455TIP3    H2 4309   5.150   0.393   4.677
 1456TIP3   OH2 4310   0.508   2.870   4.868
 1456TIP3    H1 4311   0.458   2.791   4.888
 1456TIP3    H2 4312   0.560   2.847   4.792
 1457TIP3   OH2 4313   8.200   0.759   3.920
 1457TIP3    H1 4314   8.210   0.781   3.827
 1457TIP3    H2 4315   8.133   0.819   3.952
 1458TIP3   OH2 4316   2.923   5.823   0.645
 1458TIP3    H1 4317   2.838   5.835   0.687
 1458TIP3    H2 4318   2.969   5.906   0.660
 1459TIP3   OH2 4319   0.506   1.135   3.491
 1459TIP3    H1 4320   0.554   1.096   3.418
 1459TIP3    H2 4321   0.427   1.170   3.452
 1460TIP3   OH2 4322   5.183   1.015   3.540
 1460TIP3    H1 4323   5.230   1.074   3.481
 1460TIP3    H2 4324   5.157   0.941   3.485
 1461TIP3   OH2 4325   0.353   6.396   6.705
 1461TIP3    H1 4326   0.379   6.446   6.628
 1461TIP3    H2 4327   0.299   6.325   6.670
 1462TIP3   OH2 4328   5.174   7.464   1.234
 1462TIP3    H1 4329   5.250   7.455   1.177
 1462TIP3    H2 4330   5.106   7.410   1.194
 1463TIP3   OH2 4331   0.261   7.710   0.897
 1463TIP3    H1 4332   0.258   7.623   0.936
 1463TIP3    H2 4333   0.189   7.757   0.939
 1464TIP3   OH2 4334   7.467   0.197   3.916
 1464TIP3    H1 4335   7.461   0.282   3.959
 1464TIP3    H2 4336   7.397   0.145   3.956
 1465TIP3   OH2 4337   2.950   6.724   0.719
 1465TIP3    H1 4338   2.926   6.805   0.764
 1465TIP3    H2 4339   2.997   6.753   0.642
 1466TIP3   OH2 4340   0.868   4.689   3.642
 1466TIP3    H1 4341   0.943   4.657   3.592
 1466TIP3    H2 4342   0.799   4.701   3.577
 1467TIP3   OH2 4343   5.878   2.225   5.216
 1467TIP3    H1 4344   5.843   2.166   5.149
 1467TIP3    H2 4345   5.809   2.229   5.283
 1468TIP3   OH2 4346   3.510   7.786   4.685
 1468TIP3    H1 4347   3.576   7.800   4.753
 1468TIP3    H2 4348   3.451   7.719   4.722
 1469TIP3   OH2 4349   5.809   6.317   1.803
 1469TIP3    H1 4350   5.810   6.281   1.714
 1469TIP3    H2 4351   5.899   6.349   1.816
 1470TIP3   OH2 4352   5.107   5.127   1.116
 1470TIP3    H1 4353   5.033   5.080   1.154
 1470TIP3    H2 4354   5.144   5.177   1.189
 1471TIP3   OH2 4355   5.805   1.790   6.672
 1471TIP3    H1 4356   5.890   1.832   6.681
 1471TIP3    H2 4357   5.741   1.860   6.685
 1472TIP3   OH2 4358   7.510   5.642   3.026
 1472TIP3    H1 4359   7.594   5.671   2.990
 1472TIP3    H2 4360   7.479   5.577   2.963
 1473TIP3   OH2 4361   7.827   2.739   2.999
 1473TIP3    H1 4362   7.863   2.805   3.058
 1473TIP3    H2 4363   7.842   2.656   3.044
 1474TIP3   OH2 4364   4.710   1.601   1.410
 1474TIP3    H1 4365   4.696   1.695   1.398
 1474TIP3    H2 4366   4.805   1.593   1.421
 1475TIP3   OH2 4367   0.491   0.740   3.044
 1475TIP3    H1 4368   0.438   0.777   2.973
 1475TIP3    H2 4369   0.581   0.745   3.013
 1476TIP3   OH2 4370   6.985   3.758   5.393
 1476TIP3    H1 4371   7.028   3.788   5.313
 1476TIP3    H2 4372   7.049   3.699   5.433
 1477TIP3   OH2 4373   4.758   3.651   6.547
 1477TIP3    H1 4374   4.697   3.619   6.481
 1477TIP3    H2 4375   4.741   3.745   6.553
 1478TIP3   OH2 4376   7.980   1.868   0.363
 1478TIP3    H1 4377   7.910   1.932   0.350
 1478TIP3    H2 4378   8.058   1.910   0.327
 1479TIP3   OH2 4379   2.465   2.220   0.963
 1479TIP3    H1 4380   2.510   2.234   1.046
 1479TIP3    H2 4381   2.532   2.235   0.896
 1480TIP3   OH2 4382   1.480   3.729   5.108
 1480TIP3    H1 4383   1.399   3.697   5.146
 1480TIP3    H2 4384   1.471   3.824   5.108
 1481TIP3   OH2 4385   4.247   3.220   2.763
 1481TIP3    H1 4386   4.333   3.234   2.723
 1481TIP3    H2 4387   4.187   3.269   2.707
 1482TIP3   OH2 4388   5.331   6.774   4.678
 1482TIP3    H1 4389   5.329   6.802   4.586
 1482TIP3    H2 4390   5.256   6.819   4.718
 1483TIP3   OH2 4391   1.672   5.523   0.569
 1483TIP3    H1 4392   1.712   5.588   0.626
 1483TIP3    H2 4393   1.730   5.447   0.575
 1484TIP3   OH2 4394   2.811   6.953   4.642
 1484TIP3    H1 4395   2.727   6.916   4.615
 1484TIP3    H2 4396   2.822   6.923   4.733
 1485TIP3   OH2 4397   4.706   1.576   5.516
 1485TIP3    H1 4398   4.674   1.546   5.431
 1485TIP3    H2 4399   4.628   1.579   5.572
 1486TIP3   OH2 4400   0.631   4.602   1.723
 1486TIP3    H1 4401   0.692   4.664   1.763
 1486TIP3    H2 4402   0.683   4.557   1.657
 1487TIP3   OH2 4403   4.811   2.586   1.504
 1487TIP3    H1 4404   4.726   2.560   1.539
 1487TIP3    H2 4405   4.875   2.543   1.561
 1488TIP3   OH2 4406   7.484   0.747   6.277
 1488TIP3    H1 4407   7.487   0.672   6.337
 1488TIP3    H2 4408   7.574   0.780   6.276
 1489TIP3   OH2 4409   2.796   1.548   6.332
 1489TIP3    H1 4410   2.842   1.534   6.415
 1489TIP3    H2 4411   2.837   1.626   6.295
 1490TIP3   OH2 4412   4.329   5.108   5.988
 1490TIP3    H1 4413   4.408   5.139   5.942
 1490TIP3    H2 4414   4.354   5.022   6.022
 1491TIP3   OH2 4415   4.702   1.429   0.236
 1491TIP3    H1 4416   4.700   1.518   0.272
 1491TIP3    H2 4417   4.784   1.426   0.185
 1492TIP3   OH2 4418   5.505   3.959   4.424
 1492TIP3    H1 4419   5.589   4.002   4.412
 1492TIP3    H2 4420   5.441   4.019   4.386
 1493TIP3   OH2 4421   2.880   0.170   4.269
 1493TIP3    H1 4422   2.908   0.165   4.178
 1493TIP3    H2 4423   2.856   0.080   4.292
 1494TIP3   OH2 4424   6.538   3.244   2.499
 1494TIP3    H1 4425   6.614   3.186   2.505
 1494TIP3    H2 4426   6.464   3.185   2.484
 1495TIP3   OH2 4427   7.581   3.800   3.402
 1495TIP3    H1 4428   7.573   3.750   3.321
 1495TIP3    H2 4429   7.652   3.757   3.450
 1496TIP3   OH2 4430   7.217   3.141   0.938
 1496TIP3    H1 4431   7.199   3.074   0.872
 1496TIP3    H2 4432   7.166   3.114   1.014
 1497TIP3   OH2 4433   3.933   6.930   3.088
 1497TIP3    H1 4434   3.864   6.893   3.144
 1497TIP3    H2 4435   4.013   6.886   3.117
 1498TIP3   OH2 4436   5.278   4.492   0.862
 1498TIP3    H1 4437   5.268   4.566   0.922
 1498TIP3    H2 4438   5.248   4.416   0.912
 1499TIP3   OH2 4439   4.659   3.549   4.461
 1499TIP3    H1 4440   4.658   3.476   4.399
 1499TIP3    H2 4441   4.601   3.614   4.422
 1500TIP3   OH2 4442   6.350   2.103   1.537
 1500TIP3    H1 4443   6.292   2.163   1.490
 1500TIP3    H2 4444   6.296   2.027   1.558
 1501TIP3   OH2 4445   0.612   0.369   6.047
 1501TIP3    H1 4446   0.682   0.320   6.091
 1501TIP3    H2 4447   0.548   0.388   6.116
 1502TIP3   OH2 4448   4.040   5.745   3.335
 1502TIP3    H1 4449   4.109   5.682   3.315
 1502TIP3    H2 4450   4.087   5.825   3.360
 1503TIP3   OH2 4451   1.544   6.216   0.452
 1503TIP3    H1 4452   1.622   6.270   0.441
 1503TIP3    H2 4453   1.531   6.213   0.547
 1504TIP3   OH2 4454   3.752   7.840   1.492
 1504TIP3    H1 4455   3.779   7.789   1.569
 1504TIP3    H2 4456   3.669   7.879   1.518
 1505TIP3   OH2 4457   2.787   0.646   0.129
 1505TIP3    H1 4458   2.845   0.716   0.098
 1505TIP3    H2 4459   2.773   0.591   0.053
 1506TIP3   OH2 4460   2.146   3.633   4.328
 1506TIP3    H1 4461   2.224   3.682   4.301
 1506TIP3    H2 4462   2.116   3.590   4.247
 1507TIP3   OH2 4463   3.347   7.810   6.386
 1507TIP3    H1 4464   3.254   7.834   6.391
 1507TIP3    H2 4465   3.347   7.715   6.396
 1508TIP3   OH2 4466   2.367   3.734   5.923
 1508TIP3    H1 4467   2.308   3.786   5.869
 1508TIP3    H2 4468   2.320   3.652   5.937
 1509TIP3   OH2 4469   1.665   4.836   0.678
 1509TIP3    H1 4470   1.714   4.852   0.759
 1509TIP3    H2 4471   1.664   4.921   0.634
 1510TIP3   OH2 4472   0.081   2.636   4.021
 1510TIP3    H1 4473   0.128   2.712   4.055
 1510TIP3    H2 4474   0.148   2.585   3.976
 1511TIP3   OH2 4475   7.594   6.594   4.881
 1511TIP3    H1 4476   7.616   6.687   4.881
 1511TIP3    H2 4477   7.503   6.591   4.852
 1512TIP3   OH2 4478   8.010   3.039   2.278
 1512TIP3    H1 4479   7.939   2.977   2.264
 1512TIP3    H2 4480   7.971   3.125   2.261
 1513TIP3   OH2 4481   7.541   4.593   3.646
 1513TIP3    H1 4482   7.558   4.510   3.691
 1513TIP3    H2 4483   7.450   4.586   3.617
 1514TIP3   OH2 4484   0.126   6.953   2.180
 1514TIP3    H1 4485   0.170   7.013   2.120
 1514TIP3    H2 4486   0.178   6.958   2.261
 1515TIP3   OH2 4487   4.017   3.778   4.928
 1515TIP3    H1 4488   4.008   3.865   4.890
 1515TIP3    H2 4489   3.976   3.719   4.865
 1516TIP3   OH2 4490   2.009   7.302   4.881
 1516TIP3    H1 4491   2.086   7.267   4.925
 1516TIP3    H2 4492   2.039   7.381   4.838
 1517TIP3   OH2 4493   7.881   4.778   2.964
 1517TIP3    H1 4494   7.871   4.740   3.052
 1517TIP3    H2 4495   7.961   4.832   2.970
 1518TIP3   OH2 4496   2.856   1.703   4.371
 1518TIP3    H1 4497   2.847   1.758   4.293
 1518TIP3    H2 4498   2.793   1.633   4.358
 1519TIP3   OH2 4499   0.292   3.999   4.962
 1519TIP3    H1 4500   0.317   4.086   4.995
 1519TIP3    H2 4501   0.208   3.981   5.004
 1520TIP3   OH2 4502   2.811   3.994   5.973
 1520TIP3    H1 4503   2.812   4.070   5.915
 1520TIP3    H2 4504   2.741   3.938   5.938
 1521TIP3   OH2 4505   2.223   3.147   4.890
 1521TIP3    H1 4506   2.154   3.139   4.956
 1521TIP3    H2 4507   2.214   3.237   4.857
 1522TIP3   OH2 4508   5.590   3.759   0.333
 1522TIP3    H1 4509   5.533   3.694   0.293
 1522TIP3    H2 4510   5.677   3.719   0.331
 1523TIP3   OH2 4511   4.319   5.558   4.346
 1523TIP3    H1 4512   4.280   5.586   4.263
 1523TIP3    H2 4513   4.370   5.481   4.323
 1524TIP3   OH2 4514   1.910   4.501   0.267
 1524TIP3    H1 4515   1.942   4.583   0.229
 1524TIP3    H2 4516   1.844   4.471   0.205
 1525TIP3   OH2 4517   2.061   7.200   0.487
 1525TIP3    H1 4518   2.014   7.157   0.414
 1525TIP3    H2 4519   2.139   7.237   0.446
 1526TIP3   OH2 4520   2.236   1.620   6.748
 1526TIP3    H1 4521   2.228   1.589   6.657
 1526TIP3    H2 4522   2.315   1.577   6.781
 1527TIP3   OH2 4523   2.626   4.123   0.061
 1527TIP3    H1 4524   2.609   4.204   0.109
 1527TIP3    H2 4525   2.699   4.145   0.002
 1528TIP3   OH2 4526   7.094   2.248   6.678
 1528TIP3    H1 4527   7.036   2.263   6.753
 1528TIP3    H2 4528   7.039   2.208   6.612
 1529TIP3   OH2 4529   3.526   6.787   2.573
 1529TIP3    H1 4530   3.587   6.860   2.587
 1529TIP3    H2 4531   3.540   6.730   2.648
 1530TIP3   OH2 4532   7.803   2.065   0.357
 1530TIP3    H1 4533   7.751   2.011   0.298
 1530TIP3    H2 4534   7.745   2.082   0.431
 1531TIP3   OH2 4535   2.568   2.212   0.175
 1531TIP3    H1 4536   2.523   2.129   0.187
 1531TIP3    H2 4537   2.507   2.278   0.208
 1532TIP3   OH2 4538   4.154   3.270   4.829
 1532TIP3    H1 4539   4.202   3.351   4.814
 1532TIP3    H2 4540   4.156   3.258   4.924
 1533TIP3   OH2 4541   2.577   2.780   3.190
 1533TIP3    H1 4542   2.648   2.781   3.255
 1533TIP3    H2 4543   2.595   2.704   3.135
 1534TIP3   OH2 4544   1.032   6.937   5.896
 1534TIP3    H1 4545   1.117   6.915   5.856
 1534TIP3    H2 4546   1.054   6.995   5.968
 1535TIP3   OH2 4547   1.396   3.117   0.847
 1535TIP3    H1 4548   1.313   3.157   0.825
 1535TIP3    H2 4549   1.386   3.088   0.937
 1536TIP3   OH2 4550   4.518   5.749   6.317
 1536TIP3    H1 4551   4.465   5.707   6.249
 1536TIP3    H2 4552   4.606   5.712   6.305
 1537TIP3   OH2 4553   6.381   3.079   5.564
 1537TIP3    H1 4554   6.450   3.121   5.512
 1537TIP3    H2 4555   6.422   3.061   5.649
 1538TIP3   OH2 4556   3.650   4.575   6.220
 1538TIP3    H1 4557   3.690   4.494   6.191
 1538TIP3    H2 4558   3.681   4.586   6.310
 1539TIP3   OH2 4559   2.727   4.014   4.479
 1539TIP3    H1 4560   2.808   4.013   4.428
 1539TIP3    H2 4561   2.658   4.006   4.414
 1540TIP3   OH2 4562   1.694   4.794   4.810
 1540TIP3    H1 4563   1.778   4.750   4.825
 1540TIP3    H2 4564   1.632   4.747   4.866
 1541TIP3   OH2 4565   6.141   4.011   1.515
 1541TIP3    H1 4566   6.086   3.943   1.553
 1541TIP3    H2 4567   6.170   4.063   1.590
 1542TIP3   OH2 4568   1.449   3.311   3.032
 1542TIP3    H1 4569   1.378   3.375   3.033
 1542TIP3    H2 4570   1.506   3.339   2.960
 1543TIP3   OH2 4571   1.340   5.328   0.152
 1543TIP3    H1 4572   1.250   5.325   0.184
 1543TIP3    H2 4573   1.388   5.376   0.219
 1544TIP3   OH2 4574   7.752   6.983   2.468
 1544TIP3    H1 4575   7.718   7.049   2.529
 1544TIP3    H2 4576   7.709   6.902   2.493
 1545TIP3   OH2 4577   4.407   5.632   3.762
 1545TIP3    H1 4578   4.329   5.611   3.710
 1545TIP3    H2 4579   4.474   5.650   3.698
 1546TIP3   OH2 4580   0.960   0.292   3.229
 1546TIP3    H1 4581   0.922   0.368   3.186
 1546TIP3    H2 4582   0.886   0.234   3.246
 1547TIP3   OH2 4583   1.112   7.659   1.079
 1547TIP3    H1 4584   1.021   7.632   1.067
 1547TIP3    H2 4585   1.125   7.659   1.174
 1548TIP3   OH2 4586   8.090   4.249   4.114
 1548TIP3    H1 4587   8.146   4.319   4.080
 1548TIP3    H2 4588   8.044   4.215   4.037
 1549TIP3   OH2 4589   4.312   4.310   0.986
 1549TIP3    H1 4590   4.361   4.285   1.064
 1549TIP3    H2 4591   4.225   4.271   0.997
 1550TIP3   OH2 4592   7.432   2.876   3.038
 1550TIP3    H1 4593   7.493   2.912   3.101
 1550TIP3    H2 4594   7.350   2.865   3.086
 1551TIP3   OH2 4595   2.897   2.032   3.170
 1551TIP3    H1 4596   2.848   2.112   3.187
 1551TIP3    H2 4597   2.838   1.980   3.115
 1552TIP3   OH2 4598   5.454   5.147   0.197
 1552TIP3    H1 4599   5.362   5.136   0.174
 1552TIP3    H2 4600   5.464   5.097   0.279
 1553TIP3   OH2 4601   0.485   7.371   2.059
 1553TIP3    H1 4602   0.454   7.338   1.975
 1553TIP3    H2 4603   0.563   7.421   2.038
 1554TIP3   OH2 4604   0.588   5.629   3.964
 1554TIP3    H1 4605   0.641   5.571   4.018
 1554TIP3    H2 4606   0.647   5.658   3.894
 1555TIP3   OH2 4607   1.760   7.186   0.527
 1555TIP3    H1 4608   1.852   7.210   0.531
 1555TIP3    H2 4609   1.751   7.116   0.592
 1556TIP3   OH2 4610   4.387   6.299   0.900
 1556TIP3    H1 4611   4.481   6.313   0.912
 1556TIP3    H2 4612   4.381   6.211   0.861
 1557TIP3   OH2 4613   7.233   6.202   5.724
 1557TIP3    H1 4614   7.292   6.144   5.772
 1557TIP3    H2 4615   7.290   6.268   5.686
 1558TIP3   OH2 4616   1.705   6.649   4.808
 1558TIP3    H1 4617   1.795   6.666   4.779
 1558TIP3    H2 4618   1.696   6.554   4.805
 1559TIP3   OH2 4619   2.814   4.773   5.863
 1559TIP3    H1 4620   2.906   4.798   5.860
 1559TIP3    H2 4621   2.813   4.684   5.828
 1560TIP3   OH2 4622   5.126   6.771   4.927
 1560TIP3    H1 4623   5.141   6.843   4.866
 1560TIP3    H2 4624   5.101   6.813   5.009
 1561TIP3   OH2 4625   2.566   6.547   2.178
 1561TIP3    H1 4626   2.657   6.547   2.148
 1561TIP3    H2 4627   2.560   6.469   2.234
 1562TIP3   OH2 4628   2.130   7.789   2.401
 1562TIP3    H1 4629   2.069   7.855   2.369
 1562TIP3    H2 4630   2.083   7.706   2.393
 1563TIP3   OH2 4631   3.515   6.240   4.089
 1563TIP3    H1 4632   3.599   6.277   4.064
 1563TIP3    H2 4633   3.535   6.151   4.120
 1564TIP3   OH2 4634   3.749   2.650   3.797
 1564TIP3    H1 4635   3.755   2.664   3.891
 1564TIP3    H2 4636   3.710   2.731   3.763
 1565TIP3   OH2 4637   5.722   7.318   1.981
 1565TIP3    H1 4638   5.670   7.247   2.019
 1565TIP3    H2 4639   5.778   7.274   1.916
 1566TIP3   OH2 4640   4.868   3.102   5.432
 1566TIP3    H1 4641   4.777   3.131   5.440
 1566TIP3    H2 4642   4.915   3.181   5.404
 1567TIP3   OH2 4643   1.815   3.110   6.134
 1567TIP3    H1 4644   1.903   3.149   6.140
 1567TIP3    H2 4645   1.758   3.173   6.176
 1568TIP3   OH2 4646   3.202   7.582   1.127
 1568TIP3    H1 4647   3.270   7.523   1.093
 1568TIP3    H2 4648   3.215   7.663   1.077
 1569TIP3   OH2 4649   6.141   4.724   6.556
 1569TIP3    H1 4650   6.121   4.778   6.632
 1569TIP3    H2 4651   6.067   4.663   6.550
 1570TIP3   OH2 4652   7.038   5.510   2.779
 1570TIP3    H1 4653   6.986   5.578   2.822
 1570TIP3    H2 4654   7.021   5.524   2.685
 1571TIP3   OH2 4655   4.351   6.299   2.983
 1571TIP3    H1 4656   4.409   6.370   3.011
 1571TIP3    H2 4657   4.407   6.241   2.932
 1572TIP3   OH2 4658   6.570   0.329   1.812
 1572TIP3    H1 4659   6.656   0.366   1.795
 1572TIP3    H2 4660   6.534   0.312   1.725
 1573TIP3   OH2 4661   5.967   6.879   2.384
 1573TIP3    H1 4662   6.019   6.957   2.362
 1573TIP3    H2 4663   5.972   6.824   2.306
 1574TIP3   OH2 4664   6.965   7.407   4.972
 1574TIP3    H1 4665   6.899   7.422   4.905
 1574TIP3    H2 4666   6.916   7.373   5.048
 1575TIP3   OH2 4667   2.125   5.085   5.905
 1575TIP3    H1 4668   2.111   5.145   5.978
 1575TIP3    H2 4669   2.214   5.104   5.876
 1576TIP3   OH2 4670   5.802   0.278   3.430
 1576TIP3    H1 4671   5.768   0.294   3.342
 1576TIP3    H2 4672   5.730   0.236   3.477
 1577TIP3   OH2 4673   2.624   5.397   5.953
 1577TIP3    H1 4674   2.554   5.420   5.891
 1577TIP3    H2 4675   2.626   5.470   6.015
 1578TIP3   OH2 4676   3.204   2.632   1.586
 1578TIP3    H1 4677   3.256   2.554   1.563
 1578TIP3    H2 4678   3.252   2.704   1.546
 1579TIP3   OH2 4679   5.630   2.725   5.828
 1579TIP3    H1 4680   5.666   2.671   5.758
 1579TIP3    H2 4681   5.646   2.815   5.799
 1580TIP3   OH2 4682   1.130   6.925   2.052
 1580TIP3    H1 4683   1.157   6.974   2.129
 1580TIP3    H2 4684   1.036   6.943   2.043
 1581TIP3   OH2 4685   6.827   5.923   5.221
 1581TIP3    H1 4686   6.917   5.915   5.252
 1581TIP3    H2 4687   6.834   5.933   5.126
 1582TIP3   OH2 4688   8.023   5.570   5.937
 1582TIP3    H1 4689   8.005   5.477   5.950
 1582TIP3    H2 4690   8.036   5.579   5.843
 1583TIP3   OH2 4691   7.890   3.392   0.744
 1583TIP3    H1 4692   7.948   3.458   0.707
 1583TIP3    H2 4693   7.804   3.414   0.708
 1584TIP3   OH2 4694   3.184   4.746   0.120
 1584TIP3    H1 4695   3.089   4.736   0.130
 1584TIP3    H2 4696   3.220   4.670   0.166
 1585TIP3   OH2 4697   5.585   1.870   4.084
 1585TIP3    H1 4698   5.499   1.853   4.044
 1585TIP3    H2 4699   5.647   1.857   4.013
 1586TIP3   OH2 4700   6.045   6.794   3.492
 1586TIP3    H1 4701   6.041   6.889   3.496
 1586TIP3    H2 4702   6.139   6.773   3.498
 1587TIP3   OH2 4703   3.756   0.603   2.718
 1587TIP3    H1 4704   3.706   0.572   2.793
 1587TIP3    H2 4705   3.812   0.529   2.694
 1588TIP3   OH2 4706   1.895   2.836   3.216
 1588TIP3    H1 4707   1.940   2.888   3.282
 1588TIP3    H2 4708   1.964   2.789   3.170
 1589TIP3   OH2 4709   1.006   3.725   3.702
 1589TIP3    H1 4710   1.086   3.677   3.722
 1589TIP3    H2 4711   0.940   3.658   3.688
 1590TIP3   OH2 4712   2.565   5.275   4.296
 1590TIP3    H1 4713   2.484   5.249   4.252
 1590TIP3    H2 4714   2.572   5.369   4.279
 1591TIP3   OH2 4715   0.478   4.186   1.260
 1591TIP3    H1 4716   0.452   4.115   1.201
 1591TIP3    H2 4717   0.398   4.209   1.307
 1592TIP3   OH2 4718   8.292   5.027   3.798
 1592TIP3    H1 4719   8.291   5.064   3.887
 1592TIP3    H2 4720   8.265   4.936   3.810
 1593TIP3   OH2 4721   0.126   7.101   5.168
 1593TIP3    H1 4722   0.213   7.109   5.206
 1593TIP3    H2 4723   0.102   7.191   5.145
 1594TIP3   OH2 4724   7.567   0.739   4.972
 1594TIP3    H1 4725   7.643   0.767   4.922
 1594TIP3    H2 4726   7.555   0.647   4.948
 1595TIP3   OH2 4727   7.488   4.849   5.363
 1595TIP3    H1 4728   7.525   4.839   5.450
 1595TIP3    H2 4729   7.423   4.779   5.356
 1596TIP3   OH2 4730   0.296   2.403   1.950
 1596TIP3    H1 4731   0.323   2.491   1.977
 1596TIP3    H2 4732   0.204   2.412   1.927
 1597TIP3   OH2 4733   7.150   5.204   3.616
 1597TIP3    H1 4734   7.110   5.251   3.543
 1597TIP3    H2 4735   7.181   5.122   3.578
 1598TIP3   OH2 4736   7.159   6.263   2.141
 1598TIP3    H1 4737   7.110   6.187   2.172
 1598TIP3    H2 4738   7.097   6.335   2.144
 1599TIP3   OH2 4739   1.826   7.737   2.091
 1599TIP3    H1 4740   1.902   7.712   2.038
 1599TIP3    H2 4741   1.851   7.713   2.181
 1600TIP3   OH2 4742   3.874   7.835   2.856
 1600TIP3    H1 4743   3.843   7.839   2.765
 1600TIP3    H2 4744   3.933   7.759   2.857
 1601TIP3   OH2 4745   3.368   4.449   6.425
 1601TIP3    H1 4746   3.376   4.527   6.479
 1601TIP3    H2 4747   3.307   4.393   6.472
 1602TIP3   OH2 4748   4.320   4.138   5.879
 1602TIP3    H1 4749   4.304   4.050   5.847
 1602TIP3    H2 4750   4.256   4.150   5.950
 1603TIP3   OH2 4751   4.254   1.404   0.948
 1603TIP3    H1 4752   4.171   1.416   0.995
 1603TIP3    H2 4753   4.320   1.400   1.016
 1604TIP3   OH2 4754   7.346   5.771   3.196
 1604TIP3    H1 4755   7.401   5.713   3.143
 1604TIP3    H2 4756   7.395   5.782   3.278
 1605TIP3   OH2 4757   2.354   4.615   3.918
 1605TIP3    H1 4758   2.324   4.548   3.856
 1605TIP3    H2 4759   2.324   4.584   4.003
 1606TIP3   OH2 4760   3.257   6.353   3.265
 1606TIP3    H1 4761   3.178   6.392   3.303
 1606TIP3    H2 4762   3.328   6.385   3.321
 1607TIP3   OH2 4763   0.234   0.328   0.732
 1607TIP3    H1 4764   0.159   0.381   0.707
 1607TIP3    H2 4765   0.196   0.251   0.775
 1608TIP3   OH2 4766   7.064   0.822   1.589
 1608TIP3    H1 4767   7.107   0.810   1.504
 1608TIP3    H2 4768   7.136   0.821   1.652
 1609TIP3   OH2 4769   2.852   5.550   3.360
 1609TIP3    H1 4770   2.836   5.488   3.289
 1609TIP3    H2 4771   2.816   5.633   3.328
 1610TIP3   OH2 4772   3.729   3.044   3.996
 1610TIP3    H1 4773   3.746   3.136   3.976
 1610TIP3    H2 4774   3.805   2.998   3.959
 1611TIP3   OH2 4775   0.461   3.686   4.057
 1611TIP3    H1 4776   0.507   3.757   4.101
 1611TIP3    H2 4777   0.373   3.688   4.094
 1612TIP3   OH2 4778   8.145   6.486   4.937
 1612TIP3    H1 4779   8.179   6.445   4.858
 1612TIP3    H2 4780   8.194   6.568   4.945
 1613TIP3   OH2 4781   3.170   0.361   0.933
 1613TIP3    H1 4782   3.203   0.423   0.998
 1613TIP3    H2 4783   3.241   0.352   0.869
 1614TIP3   OH2 4784   7.965   4.344   0.648
 1614TIP3    H1 4785   7.902   4.315   0.582
 1614TIP3    H2 4786   7.913   4.394   0.710
 1615TIP3   OH2 4787   5.509   1.643   0.796
 1615TIP3    H1 4788   5.599   1.652   0.826
 1615TIP3    H2 4789   5.510   1.679   0.707
 1616TIP3   OH2 4790   1.441   7.752   3.080
 1616TIP3    H1 4791   1.369   7.765   3.018
 1616TIP3    H2 4792   1.449   7.835   3.126
 1617TIP3   OH2 4793   6.763   3.327   0.183
 1617TIP3    H1 4794   6.696   3.312   0.117
 1617TIP3    H2 4795   6.814   3.246   0.186
 1618TIP3   OH2 4796   7.374   2.148   1.873
 1618TIP3    H1 4797   7.324   2.152   1.791
 1618TIP3    H2 4798   7.309   2.161   1.942
 1619TIP3   OH2 4799   6.588   5.834   4.995
 1619TIP3    H1 4800   6.586   5.924   4.963
 1619TIP3    H2 4801   6.538   5.836   5.076
 1620TIP3   OH2 4802   2.151   4.446   1.115
 1620TIP3    H1 4803   2.151   4.398   1.198
 1620TIP3    H2 4804   2.220   4.405   1.064
 1621TIP3   OH2 4805   7.216   3.953   5.385
 1621TIP3    H1 4806   7.242   3.912   5.302
 1621TIP3    H2 4807   7.281   3.921   5.448
 1622TIP3   OH2 4808   0.796   2.525   3.169
 1622TIP3    H1 4809   0.720   2.505   3.114
 1622TIP3    H2 4810   0.795   2.620   3.179
 1623TIP3   OH2 4811   7.615   2.899   5.074
 1623TIP3    H1 4812   7.628   2.854   4.991
 1623TIP3    H2 4813   7.641   2.835   5.140
 1624TIP3   OH2 4814   0.034   1.829   4.235
 1624TIP3    H1 4815  -0.013   1.841   4.153
 1624TIP3    H2 4816   0.058   1.736   4.236
 1625TIP3   OH2 4817   5.758   3.443   6.488
 1625TIP3    H1 4818   5.667   3.414   6.492
 1625TIP3    H2 4819   5.757   3.529   6.531
 1626TIP3   OH2 4820   2.347   5.565   4.470
 1626TIP3    H1 4821   2.319   5.501   4.535
 1626TIP3    H2 4822   2.434   5.535   4.443
 1627TIP3   OH2 4823   5.193   2.133   5.317
 1627TIP3    H1 4824   5.143   2.211   5.295
 1627TIP3    H2 4825   5.177   2.073   5.244
 1628TIP3   OH2 4826   2.206   2.391   4.066
 1628TIP3    H1 4827   2.217   2.296   4.066
 1628TIP3    H2 4828   2.122   2.405   4.111
 1629TIP3   OH2 4829   1.247   2.163   3.302
 1629TIP3    H1 4830   1.260   2.173   3.207
 1629TIP3    H2 4831   1.182   2.094   3.310
 1630TIP3   OH2 4832   7.370   6.791   6.389
 1630TIP3    H1 4833   7.353   6.781   6.482
 1630TIP3    H2 4834   7.465   6.786   6.380
 1631TIP3   OH2 4835   1.568   1.251   0.777
 1631TIP3    H1 4836   1.623   1.330   0.770
 1631TIP3    H2 4837   1.545   1.247   0.870
 1632TIP3   OH2 4838   2.455   6.396   5.738
 1632TIP3    H1 4839   2.407   6.452   5.799
 1632TIP3    H2 4840   2.538   6.378   5.782
 1633TIP3   OH2 4841   1.326   4.181   6.654
 1633TIP3    H1 4842   1.343   4.102   6.704
 1633TIP3    H2 4843   1.412   4.207   6.620
 1634TIP3   OH2 4844   8.293   7.490   2.642
 1634TIP3    H1 4845   8.319   7.401   2.664
 1634TIP3    H2 4846   8.216   7.480   2.587
 1635TIP3   OH2 4847   3.610   2.904   0.601
 1635TIP3    H1 4848   3.519   2.880   0.619
 1635TIP3    H2 4849   3.659   2.863   0.672
 1636TIP3   OH2 4850   3.127   2.530   3.608
 1636TIP3    H1 4851   3.105   2.474   3.534
 1636TIP3    H2 4852   3.168   2.470   3.672
 1637TIP3   OH2 4853   3.070   6.608   4.854
 1637TIP3    H1 4854   3.027   6.668   4.794
 1637TIP3    H2 4855   3.164   6.628   4.844
 1638TIP3   OH2 4856   2.557   3.352   1.823
 1638TIP3    H1 4857   2.472   3.309   1.811
 1638TIP3    H2 4858   2.581   3.331   1.913
 1639TIP3   OH2 4859   6.502   4.973   6.707
 1639TIP3    H1 4860   6.471   4.882   6.716
 1639TIP3    H2 4861   6.594   4.965   6.683
 1640TIP3   OH2 4862   7.267   3.295   4.447
 1640TIP3    H1 4863   7.347   3.247   4.468
 1640TIP3    H2 4864   7.241   3.335   4.530
 1641TIP3   OH2 4865   3.506   1.148   4.010
 1641TIP3    H1 4866   3.417   1.183   4.006
 1641TIP3    H2 4867   3.544   1.187   4.088
 1642TIP3   OH2 4868   0.064   0.085   5.557
 1642TIP3    H1 4869   0.090   0.174   5.534
 1642TIP3    H2 4870   0.146   0.038   5.571
 1643TIP3   OH2 4871   3.560   4.898   3.388
 1643TIP3    H1 4872   3.524   4.948   3.461
 1643TIP3    H2 4873   3.490   4.900   3.322
 1644TIP3   OH2 4874   4.850   5.788   4.156
 1644TIP3    H1 4875   4.901   5.774   4.076
 1644TIP3    H2 4876   4.808   5.704   4.173
 1645TIP3   OH2 4877   2.238   1.887   3.928
 1645TIP3    H1 4878   2.201   1.807   3.965
 1645TIP3    H2 4879   2.331   1.883   3.949
 1646TIP3   OH2 4880   6.688   0.448   3.930
 1646TIP3    H1 4881   6.687   0.366   3.880
 1646TIP3    H2 4882   6.615   0.499   3.894
 1647TIP3   OH2 4883   7.743   1.100   2.581
 1647TIP3    H1 4884   7.771   1.188   2.554
 1647TIP3    H2 4885   7.649   1.109   2.596
 1648TIP3   OH2 4886   0.167   7.542   3.090
 1648TIP3    H1 4887   0.083   7.535   3.135
 1648TIP3    H2 4888   0.152   7.609   3.023
 1649TIP3   OH2 4889   7.374   4.146   1.419
 1649TIP3    H1 4890   7.362   4.105   1.505
 1649TIP3    H2 4891   7.287   4.143   1.379
 1650TIP3   OH2 4892   8.167   6.319   6.588
 1650TIP3    H1 4893   8.219   6.399   6.582
 1650TIP3    H2 4894   8.206   6.260   6.523
 1651TIP3   OH2 4895   5.858   7.405   3.456
 1651TIP3    H1 4896   5.786   7.419   3.395
 1651TIP3    H2 4897   5.829   7.444   3.538
 1652TIP3   OH2 4898   0.488   5.063   5.397
 1652TIP3    H1 4899   0.544   5.000   5.443
 1652TIP3    H2 4900   0.436   5.010   5.337
 1653TIP3   OH2 4901   7.088   4.499   2.715
 1653TIP3    H1 4902   7.130   4.423   2.754
 1653TIP3    H2 4903   7.094   4.485   2.621
 1654TIP3   OH2 4904   4.023   5.949   5.559
 1654TIP3    H1 4905   4.035   5.900   5.640
 1654TIP3    H2 4906   3.940   5.994   5.571
 1655TIP3   OH2 4907   8.037   6.071   5.039
 1655TIP3    H1 4908   8.064   6.103   5.125
 1655TIP3    H2 4909   8.078   5.985   5.031
 1656TIP3   OH2 4910   6.594   4.394   1.271
 1656TIP3    H1 4911   6.668   4.377   1.212
 1656TIP3    H2 4912   6.549   4.310   1.278
 1657TIP3   OH2 4913   3.534   4.273   1.565
 1657TIP3    H1 4914   3.627   4.274   1.588
 1657TIP3    H2 4915   3.491   4.322   1.635
 1658TIP3   OH2 4916   8.142   6.798   6.086
 1658TIP3    H1 4917   8.236   6.782   6.096
 1658TIP3    H2 4918   8.130   6.810   5.991
 1659TIP3   OH2 4919   8.109   5.070   5.380
 1659TIP3    H1 4920   8.188   5.017   5.383
 1659TIP3    H2 4921   8.053   5.029   5.314
 1660TIP3   OH2 4922   8.096   4.174   2.183
 1660TIP3    H1 4923   8.067   4.122   2.258
 1660TIP3    H2 4924   8.015   4.206   2.143
 1661TIP3   OH2 4925   2.073   1.506   3.235
 1661TIP3    H1 4926   2.081   1.411   3.229
 1661TIP3    H2 4927   2.016   1.521   3.311
 1662TIP3   OH2 4928   7.333   6.152   1.674
 1662TIP3    H1 4929   7.378   6.084   1.724
 1662TIP3    H2 4930   7.240   6.140   1.695
 1663TIP3   OH2 4931   4.344   4.080   5.448
 1663TIP3    H1 4932   4.281   4.107   5.514
 1663TIP3    H2 4933   4.400   4.016   5.492
 1664TIP3   OH2 4934   2.150   3.897   6.644
 1664TIP3    H1 4935   2.100   3.824   6.681
 1664TIP3    H2 4936   2.241   3.869   6.650
 1665TIP3   OH2 4937   0.066   4.146   3.958
 1665TIP3    H1 4938   0.050   4.198   3.879
 1665TIP3    H2 4939  -0.018   4.148   4.004
 1666TIP3   OH2 4940   1.905   5.468   1.139
 1666TIP3    H1 4941   1.845   5.509   1.202
 1666TIP3    H2 4942   1.886   5.374   1.146
 1667TIP3   OH2 4943   5.421   1.881   5.749
 1667TIP3    H1 4944   5.438   1.831   5.669
 1667TIP3    H2 4945   5.466   1.965   5.735
 1668TIP3   OH2 4946   6.787   0.831   3.434
 1668TIP3    H1 4947   6.761   0.756   3.381
 1668TIP3    H2 4948   6.710   0.889   3.432
 1669TIP3   OH2 4949   1.569   6.580   6.493
 1669TIP3    H1 4950   1.620   6.656   6.520
 1669TIP3    H2 4951   1.610   6.505   6.537
 1670TIP3   OH2 4952   7.476   7.066   1.672
 1670TIP3    H1 4953   7.387   7.048   1.703
 1670TIP3    H2 4954   7.472   7.049   1.578
 1671TIP3   OH2 4955   1.821   7.519   4.528
 1671TIP3    H1 4956   1.863   7.447   4.482
 1671TIP3    H2 4957   1.728   7.496   4.528
 1672TIP3   OH2 4958   5.644   1.673   5.933
 1672TIP3    H1 4959   5.684   1.743   5.882
 1672TIP3    H2 4960   5.551   1.694   5.935
 1673TIP3   OH2 4961   6.378   7.624   5.178
 1673TIP3    H1 4962   6.391   7.632   5.272
 1673TIP3    H2 4963   6.465   7.604   5.143
 1674TIP3   OH2 4964   4.311   3.158   4.105
 1674TIP3    H1 4965   4.272   3.134   4.190
 1674TIP3    H2 4966   4.280   3.091   4.045
 1675TIP3   OH2 4967   2.839   5.937   5.597
 1675TIP3    H1 4968   2.820   5.866   5.658
 1675TIP3    H2 4969   2.934   5.948   5.601
 1676TIP3   OH2 4970   7.773   3.759   1.105
 1676TIP3    H1 4971   7.780   3.685   1.044
 1676TIP3    H2 4972   7.756   3.835   1.048
 1677TIP3   OH2 4973   6.582   3.437   0.342
 1677TIP3    H1 4974   6.663   3.409   0.300
 1677TIP3    H2 4975   6.565   3.524   0.307
 1678TIP3   OH2 4976   3.208   1.357   2.161
 1678TIP3    H1 4977   3.246   1.372   2.074
 1678TIP3    H2 4978   3.239   1.270   2.186
 1679TIP3   OH2 4979   2.623   5.534   4.789
 1679TIP3    H1 4980   2.618   5.475   4.713
 1679TIP3    H2 4981   2.708   5.515   4.828
 1680TIP3   OH2 4982   3.547   2.566   5.414
 1680TIP3    H1 4983   3.497   2.648   5.408
 1680TIP3    H2 4984   3.600   2.564   5.334
 1681TIP3   OH2 4985   2.800   0.252   0.508
 1681TIP3    H1 4986   2.840   0.337   0.526
 1681TIP3    H2 4987   2.838   0.193   0.573
 1682TIP3   OH2 4988   5.648   6.360   6.555
 1682TIP3    H1 4989   5.724   6.383   6.609
 1682TIP3    H2 4990   5.650   6.423   6.483
 1683TIP3   OH2 4991   2.104   4.712   1.147
 1683TIP3    H1 4992   2.140   4.746   1.229
 1683TIP3    H2 4993   2.149   4.628   1.135
 1684TIP3   OH2 4994   1.281   0.845   1.619
 1684TIP3    H1 4995   1.335   0.777   1.660
 1684TIP3    H2 4996   1.344   0.901   1.573
 1685TIP3   OH2 4997   8.176   6.197   0.161
 1685TIP3    H1 4998   8.100   6.256   0.155
 1685TIP3    H2 4999   8.152   6.122   0.107
 1686TIP3   OH2 5000   3.107   7.038   5.072
 1686TIP3    H1 5001   3.041   7.106   5.059
 1686TIP3    H2 5002   3.149   7.030   4.987
 1687TIP3   OH2 5003   2.916   7.223   3.270
 1687TIP3    H1 5004   2.934   7.304   3.223
 1687TIP3    H2 5005   3.002   7.183   3.282
 1688TIP3   OH2 5006   7.804   6.302   0.709
 1688TIP3    H1 5007   7.715   6.270   0.723
 1688TIP3    H2 5008   7.847   6.293   0.794
 1689TIP3   OH2 5009   1.920   4.308   5.249
 1689TIP3    H1 5010   1.902   4.372   5.318
 1689TIP3    H2 5011   1.957   4.233   5.295
 1690TIP3   OH2 5012   6.508   2.061   0.892
 1690TIP3    H1 5013   6.550   2.064   0.978
 1690TIP3    H2 5014   6.415   2.053   0.911
 1691TIP3   OH2 5015   1.118   0.104   1.395
 1691TIP3    H1 5016   1.067   0.148   1.328
 1691TIP3    H2 5017   1.061   0.034   1.427
 1692TIP3   OH2 5018   2.374   1.799   5.321
 1692TIP3    H1 5019   2.365   1.704   5.329
 1692TIP3    H2 5020   2.339   1.819   5.234
 1693TIP3   OH2 5021   2.269   7.106   4.787
 1693TIP3    H1 5022   2.307   7.095   4.874
 1693TIP3    H2 5023   2.272   7.019   4.748
 1694TIP3   OH2 5024   3.356   3.583   2.710
 1694TIP3    H1 5025   3.271   3.584   2.753
 1694TIP3    H2 5026   3.370   3.674   2.681
 1695TIP3   OH2 5027   5.770   1.419   0.686
 1695TIP3    H1 5028   5.778   1.505   0.729
 1695TIP3    H2 5029   5.828   1.425   0.610
 1696TIP3   OH2 5030   4.401   3.982   3.751
 1696TIP3    H1 5031   4.354   3.904   3.721
 1696TIP3    H2 5032   4.441   3.956   3.834
 1697TIP3   OH2 5033   3.867   1.749   6.440
 1697TIP3    H1 5034   3.835   1.661   6.421
 1697TIP3    H2 5035   3.955   1.736   6.474
 1698TIP3   OH2 5036   7.782   0.697   2.370
 1698TIP3    H1 5037   7.872   0.665   2.368
 1698TIP3    H2 5038   7.745   0.671   2.286
 1699TIP3   OH2 5039   5.407   6.693   2.850
 1699TIP3    H1 5040   5.341   6.623   2.855
 1699TIP3    H2 5041   5.479   6.654   2.801
 1700TIP3   OH2 5042   0.318   4.801   3.056
 1700TIP3    H1 5043   0.280   4.821   3.142
 1700TIP3    H2 5044   0.398   4.853   3.054
 1701TIP3   OH2 5045   5.362   1.315   0.181
 1701TIP3    H1 5046   5.402   1.230   0.199
 1701TIP3    H2 5047   5.435   1.377   0.184
 1702TIP3   OH2 5048   7.686   1.454   3.840
 1702TIP3    H1 5049   7.697   1.364   3.807
 1702TIP3    H2 5050   7.659   1.443   3.931
 1703TIP3   OH2 5051   3.172   5.914   3.525
 1703TIP3    H1 5052   3.093   5.946   3.568
 1703TIP3    H2 5053   3.243   5.944   3.581
 1704TIP3   OH2 5054   6.718   5.406   6.710
 1704TIP3    H1 5055   6.643   5.367   6.665
 1704TIP3    H2 5056   6.772   5.443   6.640
 1705TIP3   OH2 5057   1.566   6.525   3.921
 1705TIP3    H1 5058   1.528   6.550   3.837
 1705TIP3    H2 5059   1.548   6.431   3.928
 1706TIP3   OH2 5060   7.789   7.041   0.468
 1706TIP3    H1 5061   7.870   6.992   0.452
 1706TIP3    H2 5062   7.722   6.993   0.420
 1707TIP3   OH2 5063   0.930   6.104   1.051
 1707TIP3    H1 5064   0.893   6.170   1.110
 1707TIP3    H2 5065   0.967   6.155   0.979
 1708TIP3   OH2 5066   7.181   3.866   3.753
 1708TIP3    H1 5067   7.251   3.929   3.769
 1708TIP3    H2 5068   7.222   3.780   3.763
 1709TIP3   OH2 5069   7.171   5.991   5.575
 1709TIP3    H1 5070   7.151   6.033   5.491
 1709TIP3    H2 5071   7.177   6.064   5.637
 1710TIP3   OH2 5072   2.914   4.845   3.787
 1710TIP3    H1 5073   2.961   4.896   3.721
 1710TIP3    H2 5074   2.969   4.767   3.801
 1711TIP3   OH2 5075   4.440   7.092   2.538
 1711TIP3    H1 5076   4.531   7.081   2.510
 1711TIP3    H2 5077   4.414   7.176   2.499
 1712TIP3   OH2 5078   1.288   5.494   1.162
 1712TIP3    H1 5079   1.354   5.425   1.156
 1712TIP3    H2 5080   1.328   5.569   1.118
 1713TIP3   OH2 5081   2.811   1.153   4.353
 1713TIP3    H1 5082   2.804   1.235   4.304
 1713TIP3    H2 5083   2.807   1.084   4.286
 1714TIP3   OH2 5084   6.603   1.772   2.657
 1714TIP3    H1 5085   6.663   1.744   2.726
 1714TIP3    H2 5086   6.568   1.856   2.689
 1715TIP3   OH2 5087   4.401   3.328   0.580
 1715TIP3    H1 5088   4.314   3.291   0.593
 1715TIP3    H2 5089   4.431   3.290   0.498
 1716TIP3   OH2 5090   2.528   6.632   6.141
 1716TIP3    H1 5091   2.556   6.597   6.226
 1716TIP3    H2 5092   2.432   6.632   6.146
 1717TIP3   OH2 5093   2.925   4.239   4.708
 1717TIP3    H1 5094   2.984   4.165   4.693
 1717TIP3    H2 5095   2.906   4.271   4.620
 1718TIP3   OH2 5096   5.474   1.932   1.640
 1718TIP3    H1 5097   5.398   1.888   1.679
 1718TIP3    H2 5098   5.448   2.024   1.634
 1719TIP3   OH2 5099   5.356   6.345   1.632
 1719TIP3    H1 5100   5.335   6.255   1.656
 1719TIP3    H2 5101   5.445   6.340   1.597
 1720TIP3   OH2 5102   7.561   6.057   2.924
 1720TIP3    H1 5103   7.605   6.006   2.992
 1720TIP3    H2 5104   7.468   6.041   2.939
 1721TIP3   OH2 5105   4.834   6.461   0.785
 1721TIP3    H1 5106   4.784   6.518   0.727
 1721TIP3    H2 5107   4.925   6.479   0.765
 1722TIP3   OH2 5108   2.910   3.237   5.998
 1722TIP3    H1 5109   2.865   3.183   6.064
 1722TIP3    H2 5110   2.934   3.317   6.046
 1723TIP3   OH2 5111   5.712   5.925   2.845
 1723TIP3    H1 5112   5.668   5.841   2.853
 1723TIP3    H2 5113   5.702   5.966   2.931
 1724TIP3   OH2 5114   1.150   3.041   1.332
 1724TIP3    H1 5115   1.219   3.042   1.397
 1724TIP3    H2 5116   1.078   3.091   1.372
 1725TIP3   OH2 5117   3.850   7.420   2.727
 1725TIP3    H1 5118   3.864   7.511   2.698
 1725TIP3    H2 5119   3.764   7.397   2.693
 1726TIP3   OH2 5120   3.998   7.172   5.350
 1726TIP3    H1 5121   4.029   7.252   5.393
 1726TIP3    H2 5122   3.906   7.166   5.375
 1727TIP3   OH2 5123   2.534   4.420   1.828
 1727TIP3    H1 5124   2.531   4.422   1.732
 1727TIP3    H2 5125   2.571   4.505   1.853
 1728TIP3   OH2 5126   0.115   1.666   6.160
 1728TIP3    H1 5127   0.111   1.605   6.234
 1728TIP3    H2 5128   0.029   1.706   6.156
 1729TIP3   OH2 5129   7.368   1.553   1.561
 1729TIP3    H1 5130   7.418   1.478   1.527
 1729TIP3    H2 5131   7.435   1.615   1.589
 1730TIP3   OH2 5132   5.214   0.774   4.031
 1730TIP3    H1 5133   5.144   0.820   3.985
 1730TIP3    H2 5134   5.294   0.813   3.998
 1731TIP3   OH2 5135   2.750   1.926   3.548
 1731TIP3    H1 5136   2.843   1.934   3.528
 1731TIP3    H2 5137   2.719   1.857   3.489
 1732TIP3   OH2 5138   1.024   5.003   5.362
 1732TIP3    H1 5139   1.010   5.074   5.298
 1732TIP3    H2 5140   0.936   4.974   5.385
 1733TIP3   OH2 5141   0.434   2.562   0.994
 1733TIP3    H1 5142   0.496   2.495   0.966
 1733TIP3    H2 5143   0.357   2.514   1.023
 1734TIP3   OH2 5144   6.999   2.797   0.598
 1734TIP3    H1 5145   6.981   2.757   0.683
 1734TIP3    H2 5146   7.045   2.729   0.549
 1735TIP3   OH2 5147   5.818   6.389   2.638
 1735TIP3    H1 5148   5.843   6.469   2.683
 1735TIP3    H2 5149   5.802   6.325   2.708
 1736TIP3   OH2 5150   1.963   1.074   3.806
 1736TIP3    H1 5151   1.933   1.163   3.786
 1736TIP3    H2 5152   1.894   1.037   3.861
 1737TIP3   OH2 5153   6.094   4.810   3.212
 1737TIP3    H1 5154   6.096   4.844   3.301
 1737TIP3    H2 5155   6.181   4.771   3.199
 1738TIP3   OH2 5156   1.473   1.523   3.903
 1738TIP3    H1 5157   1.524   1.455   3.861
 1738TIP3    H2 5158   1.529   1.555   3.974
 1739TIP3   OH2 5159   3.497   6.606   2.090
 1739TIP3    H1 5160   3.545   6.602   2.007
 1739TIP3    H2 5161   3.494   6.515   2.120
 1740TIP3   OH2 5162   7.383   4.540   0.418
 1740TIP3    H1 5163   7.446   4.531   0.490
 1740TIP3    H2 5164   7.427   4.593   0.353
 1741TIP3   OH2 5165   7.581   7.508   2.017
 1741TIP3    H1 5166   7.593   7.458   1.937
 1741TIP3    H2 5167   7.562   7.443   2.084
 1742TIP3   OH2 5168   4.693   0.820   5.714
 1742TIP3    H1 5169   4.659   0.856   5.632
 1742TIP3    H2 5170   4.618   0.818   5.772
 1743TIP3   OH2 5171   0.065   3.510   6.398
 1743TIP3    H1 5172   0.087   3.545   6.485
 1743TIP3    H2 5173   0.145   3.466   6.369
 1744TIP3   OH2 5174   7.431   1.673   5.535
 1744TIP3    H1 5175   7.409   1.652   5.626
 1744TIP3    H2 5176   7.360   1.729   5.506
 1745TIP3   OH2 5177   3.534   6.182   5.091
 1745TIP3    H1 5178   3.464   6.124   5.121
 1745TIP3    H2 5179   3.520   6.264   5.139
 1746TIP3   OH2 5180   2.506   2.597   6.768
 1746TIP3    H1 5181   2.413   2.619   6.760
 1746TIP3    H2 5182   2.551   2.665   6.718
 1747TIP3   OH2 5183   2.322   0.906   1.400
 1747TIP3    H1 5184   2.393   0.945   1.349
 1747TIP3    H2 5185   2.247   0.963   1.383
 1748TIP3   OH2 5186   4.484   0.704   2.382
 1748TIP3    H1 5187   4.396   0.720   2.346
 1748TIP3    H2 5188   4.518   0.632   2.328
 1749TIP3   OH2 5189   3.735   5.834   3.513
 1749TIP3    H1 5190   3.687   5.751   3.511
 1749TIP3    H2 5191   3.812   5.816   3.568
 1750TIP3   OH2 5192   5.083   2.756   3.550
 1750TIP3    H1 5193   5.096   2.746   3.456
 1750TIP3    H2 5194   5.103   2.848   3.567
 1751TIP3   OH2 5195   4.189   1.663   4.384
 1751TIP3    H1 5196   4.195   1.567   4.390
 1751TIP3    H2 5197   4.209   1.693   4.473
 1752TIP3   OH2 5198   3.536   1.980   2.848
 1752TIP3    H1 5199   3.611   1.952   2.901
 1752TIP3    H2 5200   3.467   1.999   2.912
 1753TIP3   OH2 5201   7.421   5.022   2.719
 1753TIP3    H1 5202   7.455   5.034   2.631
 1753TIP3    H2 5203   7.484   4.963   2.761
 1754TIP3   OH2 5204   7.356   6.735   1.653
 1754TIP3    H1 5205   7.406   6.681   1.714
 1754TIP3    H2 5206   7.285   6.771   1.706
 1755TIP3   OH2 5207   0.858   1.795   4.685
 1755TIP3    H1 5208   0.818   1.809   4.599
 1755TIP3    H2 5209   0.789   1.817   4.748
 1756TIP3   OH2 5210   4.266   7.219   4.290
 1756TIP3    H1 5211   4.353   7.179   4.295
 1756TIP3    H2 5212   4.210   7.150   4.255
 1757TIP3   OH2 5213   0.932   3.481   0.802
 1757TIP3    H1 5214   0.951   3.442   0.716
 1757TIP3    H2 5215   0.843   3.454   0.822
 1758TIP3   OH2 5216   5.486   2.372   0.099
 1758TIP3    H1 5217   5.567   2.322   0.112
 1758TIP3    H2 5218   5.453   2.342   0.014
 1759TIP3   OH2 5219   2.828   5.824   0.982
 1759TIP3    H1 5220   2.782   5.753   0.938
 1759TIP3    H2 5221   2.919   5.795   0.985
 1760TIP3   OH2 5222   4.777   2.188   6.332
 1760TIP3    H1 5223   4.771   2.274   6.292
 1760TIP3    H2 5224   4.742   2.200   6.420
 1761TIP3   OH2 5225   2.599   7.457   6.235
 1761TIP3    H1 5226   2.680   7.505   6.251
 1761TIP3    H2 5227   2.627   7.366   6.221
 1762TIP3   OH2 5228   5.965   6.596   2.072
 1762TIP3    H1 5229   5.876   6.579   2.102
 1762TIP3    H2 5230   5.955   6.660   2.002
 1763TIP3   OH2 5231   4.467   2.306   5.924
 1763TIP3    H1 5232   4.520   2.242   5.972
 1763TIP3    H2 5233   4.420   2.254   5.859
 1764TIP3   OH2 5234   3.424   2.678   4.170
 1764TIP3    H1 5235   3.405   2.628   4.091
 1764TIP3    H2 5236   3.414   2.770   4.143
 1765TIP3   OH2 5237   6.683   4.965   1.787
 1765TIP3    H1 5238   6.708   4.916   1.865
 1765TIP3    H2 5239   6.723   4.916   1.715
 1766TIP3   OH2 5240   5.836   6.159   3.405
 1766TIP3    H1 5241   5.874   6.188   3.322
 1766TIP3    H2 5242   5.909   6.164   3.467
 1767TIP3   OH2 5243   3.544   0.559   6.716
 1767TIP3    H1 5244   3.586   0.475   6.697
 1767TIP3    H2 5245   3.603   0.601   6.779
 1768TIP3   OH2 5246   6.603   5.749   3.911
 1768TIP3    H1 5247   6.592   5.802   3.832
 1768TIP3    H2 5248   6.543   5.675   3.899
 1769TIP3   OH2 5249   0.129   4.216   5.826
 1769TIP3    H1 5250   0.171   4.150   5.882
 1769TIP3    H2 5251   0.056   4.170   5.785
 1770TIP3   OH2 5252   5.315   3.465   2.084
 1770TIP3    H1 5253   5.222   3.485   2.085
 1770TIP3    H2 5254   5.349   3.503   2.165
 1771TIP3   OH2 5255   3.795   3.801   1.131
 1771TIP3    H1 5256   3.755   3.726   1.086
 1771TIP3    H2 5257   3.724   3.864   1.140
 1772TIP3   OH2 5258   4.921   4.209   1.602
 1772TIP3    H1 5259   4.997   4.151   1.604
 1772TIP3    H2 5260   4.950   4.289   1.645
 1773TIP3   OH2 5261   7.437   4.928   3.005
 1773TIP3    H1 5262   7.482   4.996   3.055
 1773TIP3    H2 5263   7.508   4.871   2.973
 1774TIP3   OH2 5264   6.787   6.007   0.118
 1774TIP3    H1 5265   6.763   5.936   0.059
 1774TIP3    H2 5266   6.756   6.086   0.074
 1775TIP3   OH2 5267   7.773   4.331   5.135
 1775TIP3    H1 5268   7.720   4.410   5.124
 1775TIP3    H2 5269   7.814   4.318   5.050
 1776TIP3   OH2 5270   2.186   5.906   3.754
 1776TIP3    H1 5271   2.128   5.846   3.801
 1776TIP3    H2 5272   2.127   5.972   3.717
 1777TIP3   OH2 5273   2.589   0.580   5.773
 1777TIP3    H1 5274   2.667   0.553   5.820
 1777TIP3    H2 5275   2.619   0.597   5.683
 1778TIP3   OH2 5276   5.795   0.692   4.525
 1778TIP3    H1 5277   5.800   0.752   4.451
 1778TIP3    H2 5278   5.873   0.637   4.516
 1779TIP3   OH2 5279   3.324   2.019   0.100
 1779TIP3    H1 5280   3.353   1.972   0.022
 1779TIP3    H2 5281   3.404   2.028   0.153
 1780TIP3   OH2 5282   3.143   0.743   4.993
 1780TIP3    H1 5283   3.125   0.665   5.045
 1780TIP3    H2 5284   3.083   0.809   5.028
 1781TIP3   OH2 5285   6.561   1.707   4.772
 1781TIP3    H1 5286   6.485   1.655   4.747
 1781TIP3    H2 5287   6.525   1.793   4.794
 1782TIP3   OH2 5288   6.751   1.349   0.102
 1782TIP3    H1 5289   6.826   1.384   0.150
 1782TIP3    H2 5290   6.775   1.358   0.010
 1783TIP3   OH2 5291   1.109   0.538   5.674
 1783TIP3    H1 5292   1.184   0.543   5.733
 1783TIP3    H2 5293   1.037   0.580   5.722
 1784TIP3   OH2 5294   1.289   2.657   2.826
 1784TIP3    H1 5295   1.369   2.686   2.870
 1784TIP3    H2 5296   1.285   2.710   2.747
 1785TIP3   OH2 5297   5.581   0.978   5.620
 1785TIP3    H1 5298   5.641   1.032   5.671
 1785TIP3    H2 5299   5.578   0.895   5.666
 1786TIP3   OH2 5300   5.868   3.864   1.657
 1786TIP3    H1 5301   5.826   3.794   1.607
 1786TIP3    H2 5302   5.833   3.944   1.619
 1787TIP3   OH2 5303   7.171   3.456   5.130
 1787TIP3    H1 5304   7.128   3.485   5.050
 1787TIP3    H2 5305   7.172   3.360   5.122
 1788TIP3   OH2 5306   7.095   2.385   5.242
 1788TIP3    H1 5307   7.009   2.347   5.260
 1788TIP3    H2 5308   7.115   2.437   5.319
 1789TIP3   OH2 5309   7.755   2.405   0.642
 1789TIP3    H1 5310   7.730   2.482   0.692
 1789TIP3    H2 5311   7.815   2.357   0.699
 1790TIP3   OH2 5312   3.573   5.542   6.558
 1790TIP3    H1 5313   3.503   5.563   6.496
 1790TIP3    H2 5314   3.564   5.448   6.573
 1791TIP3   OH2 5315   0.881   6.901   1.534
 1791TIP3    H1 5316   0.871   6.841   1.608
 1791TIP3    H2 5317   0.867   6.988   1.572
 1792TIP3   OH2 5318   5.953   2.713   1.999
 1792TIP3    H1 5319   5.878   2.744   1.949
 1792TIP3    H2 5320   5.922   2.708   2.089
 1793TIP3   OH2 5321   3.691   6.903   5.290
 1793TIP3    H1 5322   3.608   6.893   5.337
 1793TIP3    H2 5323   3.672   6.968   5.222
 1794TIP3   OH2 5324   8.193   1.857   3.982
 1794TIP3    H1 5325   8.167   1.804   3.907
 1794TIP3    H2 5326   8.286   1.875   3.968
 1795TIP3   OH2 5327   0.473   7.008   0.791
 1795TIP3    H1 5328   0.387   7.042   0.819
 1795TIP3    H2 5329   0.523   7.000   0.872
 1796TIP3   OH2 5330   3.072   2.266   5.720
 1796TIP3    H1 5331   2.995   2.305   5.763
 1796TIP3    H2 5332   3.040   2.240   5.634
 1797TIP3   OH2 5333   7.282   6.414   2.786
 1797TIP3    H1 5334   7.207   6.356   2.772
 1797TIP3    H2 5335   7.280   6.474   2.712
 1798TIP3   OH2 5336   8.190   6.814   1.054
 1798TIP3    H1 5337   8.147   6.732   1.077
 1798TIP3    H2 5338   8.275   6.787   1.017
 1799TIP3   OH2 5339   6.049   2.647   6.724
 1799TIP3    H1 5340   6.132   2.679   6.757
 1799TIP3    H2 5341   6.046   2.678   6.633
 1800TIP3   OH2 5342   6.207   7.737   3.986
 1800TIP3    H1 5343   6.136   7.752   3.923
 1800TIP3    H2 5344   6.287   7.758   3.937
 1801TIP3   OH2 5345   2.776   6.672   5.334
 1801TIP3    H1 5346   2.779   6.764   5.307
 1801TIP3    H2 5347   2.683   6.650   5.332
 1802TIP3   OH2 5348   1.808   0.782   6.627
 1802TIP3    H1 5349   1.793   0.708   6.687
 1802TIP3    H2 5350   1.720   0.807   6.599
 1803TIP3   OH2 5351   6.620   0.227   3.544
 1803TIP3    H1 5352   6.604   0.199   3.635
 1803TIP3    H2 5353   6.583   0.315   3.539
 1804TIP3   OH2 5354   1.592   1.980   5.453
 1804TIP3    H1 5355   1.671   2.017   5.493
 1804TIP3    H2 5356   1.524   1.991   5.519
 1805TIP3   OH2 5357   7.405   2.062   5.686
 1805TIP3    H1 5358   7.313   2.085   5.699
 1805TIP3    H2 5359   7.426   2.003   5.759
 1806TIP3   OH2 5360   6.791   0.523   0.558
 1806TIP3    H1 5361   6.868   0.555   0.510
 1806TIP3    H2 5362   6.775   0.436   0.521
 1807TIP3   OH2 5363   6.285   4.903   0.553
 1807TIP3    H1 5364   6.219   4.870   0.492
 1807TIP3    H2 5365   6.291   4.996   0.533
 1808TIP3   OH2 5366   3.881   4.859   0.340
 1808TIP3    H1 5367   3.886   4.878   0.246
 1808TIP3    H2 5368   3.861   4.944   0.381
 1809TIP3   OH2 5369   0.702   4.344   5.077
 1809TIP3    H1 5370   0.707   4.266   5.131
 1809TIP3    H2 5371   0.716   4.417   5.138
 1810TIP3   OH2 5372   5.769   0.317   6.112
 1810TIP3    H1 5373   5.850   0.302   6.161
 1810TIP3    H2 5374   5.700   0.276   6.165
 1811TIP3   OH2 5375   7.834   7.220   3.321
 1811TIP3    H1 5376   7.814   7.186   3.234
 1811TIP3    H2 5377   7.854   7.313   3.308
 1812TIP3   OH2 5378   4.076   2.239   3.241
 1812TIP3    H1 5379   4.003   2.253   3.180
 1812TIP3    H2 5380   4.036   2.196   3.317
 1813TIP3   OH2 5381   0.928   4.994   4.841
 1813TIP3    H1 5382   0.833   4.983   4.847
 1813TIP3    H2 5383   0.964   4.908   4.859
 1814TIP3   OH2 5384   4.682   5.331   4.808
 1814TIP3    H1 5385   4.595   5.293   4.794
 1814TIP3    H2 5386   4.721   5.333   4.721
 1815TIP3   OH2 5387   7.069   0.922   3.420
 1815TIP3    H1 5388   7.160   0.909   3.395
 1815TIP3    H2 5389   7.054   1.016   3.407
 1816TIP3   OH2 5390   2.503   2.470   2.835
 1816TIP3    H1 5391   2.476   2.531   2.766
 1816TIP3    H2 5392   2.560   2.407   2.790
 1817TIP3   OH2 5393   3.821   4.799   6.207
 1817TIP3    H1 5394   3.760   4.730   6.182
 1817TIP3    H2 5395   3.902   4.752   6.229
 1818TIP3   OH2 5396   7.300   6.878   2.200
 1818TIP3    H1 5397   7.237   6.898   2.269
 1818TIP3    H2 5398   7.258   6.809   2.149
 1819TIP3   OH2 5399   1.136   3.869   6.718
 1819TIP3    H1 5400   1.227   3.888   6.742
 1819TIP3    H2 5401   1.094   3.848   6.801
 1820TIP3   OH2 5402   1.053   2.702   2.933
 1820TIP3    H1 5403   1.082   2.674   3.020
 1820TIP3    H2 5404   1.127   2.683   2.876
 1821TIP3   OH2 5405   8.231   2.936   0.633
 1821TIP3    H1 5406   8.293   2.885   0.580
 1821TIP3    H2 5407   8.149   2.888   0.626
 1822TIP3   OH2 5408   7.614   6.459   4.409
 1822TIP3    H1 5409   7.709   6.455   4.403
 1822TIP3    H2 5410   7.595   6.428   4.498
 1823TIP3   OH2 5411   1.722   3.105   0.462
 1823TIP3    H1 5412   1.815   3.120   0.446
 1823TIP3    H2 5413   1.712   3.109   0.557
 1824TIP3   OH2 5414   2.593   6.261   2.206
 1824TIP3    H1 5415   2.558   6.194   2.264
 1824TIP3    H2 5416   2.613   6.215   2.125
 1825TIP3   OH2 5417   3.868   2.703   4.440
 1825TIP3    H1 5418   3.883   2.757   4.518
 1825TIP3    H2 5419   3.820   2.627   4.472
 1826TIP3   OH2 5420   3.923   0.318   4.500
 1826TIP3    H1 5421   3.921   0.414   4.493
 1826TIP3    H2 5422   3.960   0.289   4.417
 1827TIP3   OH2 5423   3.039   4.797   3.288
 1827TIP3    H1 5424   3.087   4.862   3.339
 1827TIP3    H2 5425   2.960   4.780   3.338
 1828TIP3   OH2 5426   1.151   3.932   2.241
 1828TIP3    H1 5427   1.167   3.842   2.272
 1828TIP3    H2 5428   1.056   3.937   2.231
 1829TIP3   OH2 5429   2.349   1.923   3.218
 1829TIP3    H1 5430   2.307   1.910   3.133
 1829TIP3    H2 5431   2.278   1.918   3.281
 1830TIP3   OH2 5432   1.295   6.566   4.209
 1830TIP3    H1 5433   1.353   6.490   4.206
 1830TIP3    H2 5434   1.354   6.641   4.220
 1831TIP3   OH2 5435   4.311   6.136   6.589
 1831TIP3    H1 5436   4.234   6.138   6.533
 1831TIP3    H2 5437   4.338   6.044   6.589
 1832TIP3   OH2 5438   2.051   1.987   3.680
 1832TIP3    H1 5439   1.978   2.029   3.634
 1832TIP3    H2 5440   2.029   1.894   3.678
 1833TIP3   OH2 5441   4.010   2.609   6.451
 1833TIP3    H1 5442   4.054   2.671   6.394
 1833TIP3    H2 5443   3.926   2.593   6.408
 1834TIP3   OH2 5444   3.607   2.363   2.898
 1834TIP3    H1 5445   3.565   2.313   2.828
 1834TIP3    H2 5446   3.567   2.330   2.979
 1835TIP3   OH2 5447   5.724   5.452   5.279
 1835TIP3    H1 5448   5.739   5.456   5.185
 1835TIP3    H2 5449   5.810   5.469   5.318
 1836TIP3   OH2 5450   2.238   7.663   3.532
 1836TIP3    H1 5451   2.285   7.746   3.531
 1836TIP3    H2 5452   2.267   7.617   3.453
 1837TIP3   OH2 5453   5.875   0.943   4.093
 1837TIP3    H1 5454   5.795   0.916   4.047
 1837TIP3    H2 5455   5.938   0.959   4.023
 1838TIP3   OH2 5456   1.621   5.657   5.104
 1838TIP3    H1 5457   1.639   5.743   5.142
 1838TIP3    H2 5458   1.676   5.653   5.025
 1839TIP3   OH2 5459   1.070   1.689   6.471
 1839TIP3    H1 5460   1.164   1.706   6.461
 1839TIP3    H2 5461   1.035   1.697   6.382
 1840TIP3   OH2 5462   7.205   3.665   6.161
 1840TIP3    H1 5463   7.268   3.736   6.155
 1840TIP3    H2 5464   7.123   3.707   6.189
 1841TIP3   OH2 5465   2.650   7.727   3.492
 1841TIP3    H1 5466   2.678   7.639   3.518
 1841TIP3    H2 5467   2.670   7.732   3.399
 1842TIP3   OH2 5468   0.581   4.950   5.789
 1842TIP3    H1 5469   0.673   4.933   5.767
 1842TIP3    H2 5470   0.567   5.041   5.764
 1843TIP3   OH2 5471   5.528   0.187   4.513
 1843TIP3    H1 5472   5.605   0.218   4.465
 1843TIP3    H2 5473   5.558   0.109   4.558
 1844TIP3   OH2 5474   0.037   5.390   4.595
 1844TIP3    H1 5475   0.036   5.441   4.514
 1844TIP3    H2 5476   0.048   5.300   4.566
 1845TIP3   OH2 5477   0.983   4.174   5.876
 1845TIP3    H1 5478   0.958   4.083   5.866
 1845TIP3    H2 5479   0.910   4.214   5.922
 1846TIP3   OH2 5480   5.459   3.038   3.567
 1846TIP3    H1 5481   5.498   3.114   3.609
 1846TIP3    H2 5482   5.416   3.073   3.488
 1847TIP3   OH2 5483   6.411   0.194   4.050
 1847TIP3    H1 5484   6.379   0.254   4.117
 1847TIP3    H2 5485   6.375   0.109   4.075
 1848TIP3   OH2 5486   2.755   0.017   1.906
 1848TIP3    H1 5487   2.742   0.031   1.812
 1848TIP3    H2 5488   2.666   0.021   1.943
 1849TIP3   OH2 5489   3.687   0.341   5.862
 1849TIP3    H1 5490   3.679   0.260   5.812
 1849TIP3    H2 5491   3.625   0.332   5.934
 1850TIP3   OH2 5492   4.286   7.224   5.575
 1850TIP3    H1 5493   4.230   7.273   5.636
 1850TIP3    H2 5494   4.330   7.291   5.524
 1851TIP3   OH2 5495   4.431   1.558   4.623
 1851TIP3    H1 5496   4.526   1.544   4.622
 1851TIP3    H2 5497   4.419   1.651   4.607
 1852TIP3   OH2 5498   4.705   1.225   2.413
 1852TIP3    H1 5499   4.630   1.167   2.399
 1852TIP3    H2 5500   4.753   1.221   2.330
 1853TIP3   OH2 5501   8.140   2.077   3.688
 1853TIP3    H1 5502   8.092   1.993   3.693
 1853TIP3    H2 5503   8.076   2.142   3.718
 1854TIP3   OH2 5504   5.585   6.207   3.518
 1854TIP3    H1 5505   5.678   6.201   3.493
 1854TIP3    H2 5506   5.570   6.301   3.530
 1855TIP3   OH2 5507   0.459   7.204   4.948
 1855TIP3    H1 5508   0.493   7.271   4.888
 1855TIP3    H2 5509   0.444   7.252   5.030
 1856TIP3   OH2 5510   0.422   1.659   2.051
 1856TIP3    H1 5511   0.383   1.572   2.042
 1856TIP3    H2 5512   0.372   1.714   1.991
 1857TIP3   OH2 5513   0.590   4.828   3.846
 1857TIP3    H1 5514   0.527   4.867   3.785
 1857TIP3    H2 5515   0.632   4.904   3.888
 1858TIP3   OH2 5516   0.402   5.199   0.303
 1858TIP3    H1 5517   0.365   5.207   0.391
 1858TIP3    H2 5518   0.356   5.265   0.252
 1859TIP3   OH2 5519   2.965   3.760   4.293
 1859TIP3    H1 5520   2.987   3.847   4.326
 1859TIP3    H2 5521   2.979   3.766   4.199
 1860TIP3   OH2 5522   3.556   6.481   4.278
 1860TIP3    H1 5523   3.619   6.508   4.345
 1860TIP3    H2 5524   3.607   6.429   4.217
 1861TIP3   OH2 5525   0.185   4.853   5.767
 1861TIP3    H1 5526   0.238   4.774   5.753
 1861TIP3    H2 5527   0.233   4.922   5.722
 1862TIP3   OH2 5528   7.616   2.626   1.484
 1862TIP3    H1 5529   7.694   2.583   1.449
 1862TIP3    H2 5530   7.552   2.623   1.413
 1863TIP3   OH2 5531   0.195   5.031   3.381
 1863TIP3    H1 5532   0.156   5.097   3.439
 1863TIP3    H2 5533   0.269   4.997   3.431
 1864TIP3   OH2 5534   0.923   3.053   4.054
 1864TIP3    H1 5535   0.954   3.033   3.965
 1864TIP3    H2 5536   0.988   3.013   4.112
 1865TIP3   OH2 5537   2.559   4.228   5.925
 1865TIP3    H1 5538   2.506   4.246   5.847
 1865TIP3    H2 5539   2.496   4.226   5.997
 1866TIP3   OH2 5540   6.871   1.881   3.277
 1866TIP3    H1 5541   6.867   1.928   3.194
 1866TIP3    H2 5542   6.903   1.946   3.340
 1867TIP3   OH2 5543   4.121   5.688   6.609
 1867TIP3    H1 5544   4.084   5.620   6.552
 1867TIP3    H2 5545   4.097   5.770   6.566
 1868TIP3   OH2 5546   6.605   6.170   5.701
 1868TIP3    H1 5547   6.558   6.126   5.771
 1868TIP3    H2 5548   6.698   6.154   5.719
 1869TIP3   OH2 5549   0.685   6.788   5.676
 1869TIP3    H1 5550   0.758   6.757   5.729
 1869TIP3    H2 5551   0.662   6.873   5.713
 1870TIP3   OH2 5552   3.033   5.542   1.396
 1870TIP3    H1 5553   2.944   5.544   1.430
 1870TIP3    H2 5554   3.076   5.471   1.444
 1871TIP3   OH2 5555   7.434   1.027   1.629
 1871TIP3    H1 5556   7.519   1.024   1.585
 1871TIP3    H2 5557   7.417   1.121   1.640
 1872TIP3   OH2 5558   2.006   3.971   3.671
 1872TIP3    H1 5559   1.962   3.907   3.727
 1872TIP3    H2 5560   1.948   4.047   3.673
 1873TIP3   OH2 5561   3.893   3.599   5.127
 1873TIP3    H1 5562   3.958   3.580   5.195
 1873TIP3    H2 5563   3.935   3.665   5.072
 1874TIP3   OH2 5564   1.378   1.712   6.289
 1874TIP3    H1 5565   1.397   1.804   6.273
 1874TIP3    H2 5566   1.443   1.685   6.354
 1875TIP3   OH2 5567   2.067   5.191   4.770
 1875TIP3    H1 5568   2.155   5.220   4.747
 1875TIP3    H2 5569   2.079   5.105   4.809
 1876TIP3   OH2 5570   3.723   3.369   5.474
 1876TIP3    H1 5571   3.766   3.434   5.530
 1876TIP3    H2 5572   3.705   3.295   5.531
 1877TIP3   OH2 5573   2.540   6.962   2.601
 1877TIP3    H1 5574   2.495   7.035   2.558
 1877TIP3    H2 5575   2.577   7.000   2.681
 1878TIP3   OH2 5576   2.368   6.292   3.740
 1878TIP3    H1 5577   2.463   6.300   3.741
 1878TIP3    H2 5578   2.344   6.277   3.832
 1879TIP3   OH2 5579   5.545   1.433   4.828
 1879TIP3    H1 5580   5.481   1.499   4.857
 1879TIP3    H2 5581   5.564   1.382   4.906
 1880TIP3   OH2 5582   2.218   3.032   1.474
 1880TIP3    H1 5583   2.195   2.974   1.401
 1880TIP3    H2 5584   2.268   2.976   1.533
 1881TIP3   OH2 5585   6.812   3.128   5.065
 1881TIP3    H1 5586   6.842   3.213   5.034
 1881TIP3    H2 5587   6.732   3.146   5.113
 1882TIP3   OH2 5588   7.847   4.863   5.871
 1882TIP3    H1 5589   7.752   4.865   5.880
 1882TIP3    H2 5590   7.873   4.777   5.904
 1883TIP3   OH2 5591   7.201   1.903   2.723
 1883TIP3    H1 5592   7.172   1.814   2.745
 1883TIP3    H2 5593   7.291   1.892   2.693
 1884TIP3   OH2 5594   0.960   4.415   1.671
 1884TIP3    H1 5595   1.017   4.484   1.703
 1884TIP3    H2 5596   1.018   4.356   1.624
 1885TIP3   OH2 5597   3.270   3.689   4.777
 1885TIP3    H1 5598   3.264   3.612   4.833
 1885TIP3    H2 5599   3.179   3.708   4.753
 1886TIP3   OH2 5600   1.128   1.261   3.772
 1886TIP3    H1 5601   1.042   1.220   3.759
 1886TIP3    H2 5602   1.110   1.342   3.819
 1887TIP3   OH2 5603   2.215   2.705   1.941
 1887TIP3    H1 5604   2.301   2.665   1.952
 1887TIP3    H2 5605   2.153   2.639   1.972
 1888TIP3   OH2 5606   0.031   0.153   4.788
 1888TIP3    H1 5607   0.067   0.197   4.864
 1888TIP3    H2 5608   0.099   0.091   4.761
 1889TIP3   OH2 5609   6.876   1.327   5.692
 1889TIP3    H1 5610   6.908   1.375   5.768
 1889TIP3    H2 5611   6.876   1.235   5.720
 1890TIP3   OH2 5612   2.645   6.287   5.459
 1890TIP3    H1 5613   2.716   6.265   5.520
 1890TIP3    H2 5614   2.565   6.263   5.506
 1891TIP3   OH2 5615   7.118   0.473   0.673
 1891TIP3    H1 5616   7.054   0.402   0.683
 1891TIP3    H2 5617   7.091   0.517   0.592
 1892TIP3   OH2 5618   0.303   6.704   2.852
 1892TIP3    H1 5619   0.281   6.776   2.793
 1892TIP3    H2 5620   0.261   6.627   2.813
 1893TIP3   OH2 5621   2.588   1.780   0.621
 1893TIP3    H1 5622   2.557   1.844   0.684
 1893TIP3    H2 5623   2.683   1.793   0.618
 1894TIP3   OH2 5624   0.355   5.020   4.733
 1894TIP3    H1 5625   0.321   5.050   4.649
 1894TIP3    H2 5626   0.447   4.997   4.715
 1895TIP3   OH2 5627   4.248   3.540   4.462
 1895TIP3    H1 5628   4.256   3.483   4.386
 1895TIP3    H2 5629   4.166   3.587   4.448
 1896TIP3   OH2 5630   0.361   5.489   1.225
 1896TIP3    H1 5631   0.380   5.540   1.303
 1896TIP3    H2 5632   0.335   5.402   1.258
 1897TIP3   OH2 5633   7.941   3.466   1.163
 1897TIP3    H1 5634   7.899   3.523   1.100
 1897TIP3    H2 5635   8.027   3.505   1.178
 1898TIP3   OH2 5636   5.320   3.864   5.943
 1898TIP3    H1 5637   5.366   3.859   5.859
 1898TIP3    H2 5638   5.261   3.788   5.942
 1899TIP3   OH2 5639   4.441   0.507   0.802
 1899TIP3    H1 5640   4.439   0.412   0.792
 1899TIP3    H2 5641   4.417   0.541   0.715
 1900TIP3   OH2 5642   0.692   4.379   5.571
 1900TIP3    H1 5643   0.600   4.368   5.594
 1900TIP3    H2 5644   0.735   4.300   5.605
 1901TIP3   OH2 5645   3.791   5.607   1.184
 1901TIP3    H1 5646   3.801   5.512   1.177
 1901TIP3    H2 5647   3.707   5.619   1.228
 1902TIP3   OH2 5648   6.152   1.784   4.461
 1902TIP3    H1 5649   6.203   1.720   4.412
 1902TIP3    H2 5650   6.089   1.731   4.510
 1903TIP3   OH2 5651   2.708   0.137   2.930
 1903TIP3    H1 5652   2.663   0.171   3.007
 1903TIP3    H2 5653   2.689   0.200   2.861
 1904TIP3   OH2 5654   7.507   0.263   5.180
 1904TIP3    H1 5655   7.595   0.276   5.216
 1904TIP3    H2 5656   7.452   0.247   5.256
 1905TIP3   OH2 5657   6.315   7.692   0.764
 1905TIP3    H1 5658   6.292   7.759   0.699
 1905TIP3    H2 5659   6.399   7.659   0.735
 1906TIP3   OH2 5660   8.254   1.145   2.368
 1906TIP3    H1 5661   8.294   1.117   2.450
 1906TIP3    H2 5662   8.211   1.228   2.389
 1907TIP3   OH2 5663   8.231   7.196   1.465
 1907TIP3    H1 5664   8.188   7.214   1.381
 1907TIP3    H2 5665   8.323   7.183   1.443
 1908TIP3   OH2 5666   6.726   4.138   5.769
 1908TIP3    H1 5667   6.771   4.176   5.844
 1908TIP3    H2 5668   6.759   4.048   5.764
 1909TIP3   OH2 5669   0.620   5.486   4.334
 1909TIP3    H1 5670   0.627   5.493   4.429
 1909TIP3    H2 5671   0.704   5.517   4.302
 1910TIP3   OH2 5672   6.329   2.916   3.398
 1910TIP3    H1 5673   6.422   2.936   3.391
 1910TIP3    H2 5674   6.297   2.915   3.308
 1911TIP3   OH2 5675   1.808   4.762   0.942
 1911TIP3    H1 5676   1.885   4.814   0.967
 1911TIP3    H2 5677   1.844   4.677   0.918
 1912TIP3   OH2 5678   0.322   2.701   3.144
 1912TIP3    H1 5679   0.396   2.677   3.088
 1912TIP3    H2 5680   0.253   2.639   3.121
 1913TIP3   OH2 5681   3.456   5.018   1.391
 1913TIP3    H1 5682   3.461   5.109   1.361
 1913TIP3    H2 5683   3.439   5.025   1.485
 1914TIP3   OH2 5684   5.633   7.584   1.951
 1914TIP3    H1 5685   5.674   7.530   1.884
 1914TIP3    H2 5686   5.626   7.526   2.027
 1915TIP3   OH2 5687   4.278   7.214   2.282
 1915TIP3    H1 5688   4.227   7.138   2.312
 1915TIP3    H2 5689   4.251   7.226   2.191
 1916TIP3   OH2 5690   0.431   1.596   2.462
 1916TIP3    H1 5691   0.503   1.610   2.401
 1916TIP3    H2 5692   0.383   1.679   2.462
 1917TIP3   OH2 5693   3.543   2.454   1.193
 1917TIP3    H1 5694   3.566   2.401   1.117
 1917TIP3    H2 5695   3.627   2.474   1.235
 1918TIP3   OH2 5696   5.285   2.797   6.693
 1918TIP3    H1 5697   5.299   2.702   6.696
 1918TIP3    H2 5698   5.340   2.831   6.764
 1919TIP3   OH2 5699   7.420   1.930   3.921
 1919TIP3    H1 5700   7.474   2.008   3.929
 1919TIP3    H2 5701   7.479   1.857   3.938
 1920TIP3   OH2 5702   3.733   2.635   4.188
 1920TIP3    H1 5703   3.645   2.672   4.194
 1920TIP3    H2 5704   3.754   2.610   4.278
 1921TIP3   OH2 5705   8.278   4.271   6.589
 1921TIP3    H1 5706   8.335   4.228   6.525
 1921TIP3    H2 5707   8.202   4.300   6.538
 1922TIP3   OH2 5708   8.268   6.018   1.321
 1922TIP3    H1 5709   8.203   6.088   1.311
 1922TIP3    H2 5710   8.345   6.052   1.274
 1923TIP3   OH2 5711   1.940   7.794   0.468
 1923TIP3    H1 5712   1.922   7.700   0.466
 1923TIP3    H2 5713   1.880   7.832   0.405
 1924TIP3   OH2 5714   3.635   3.847   6.665
 1924TIP3    H1 5715   3.676   3.844   6.579
 1924TIP3    H2 5716   3.582   3.927   6.664
 1925TIP3   OH2 5717   7.760   4.671   4.226
 1925TIP3    H1 5718   7.672   4.642   4.200
 1925TIP3    H2 5719   7.802   4.591   4.259
 1926TIP3   OH2 5720   7.632   6.273   0.013
 1926TIP3    H1 5721   7.612   6.284   0.106
 1926TIP3    H2 5722   7.549   6.289  -0.031
 1927TIP3   OH2 5723   3.720   0.975   5.855
 1927TIP3    H1 5724   3.807   0.954   5.823
 1927TIP3    H2 5725   3.660   0.936   5.791
 1928TIP3   OH2 5726   3.584   0.610   3.991
 1928TIP3    H1 5727   3.582   0.681   3.926
 1928TIP3    H2 5728   3.546   0.650   4.070
 1929TIP3   OH2 5729   5.100   0.283   0.200
 1929TIP3    H1 5730   5.046   0.340   0.145
 1929TIP3    H2 5731   5.048   0.271   0.280
 1930TIP3   OH2 5732   4.722   0.032   5.223
 1930TIP3    H1 5733   4.791   0.071   5.169
 1930TIP3    H2 5734   4.714   0.091   5.299
 1931TIP3   OH2 5735   8.035   6.745   3.274
 1931TIP3    H1 5736   7.959   6.689   3.288
 1931TIP3    H2 5737   7.999   6.832   3.263
 1932TIP3   OH2 5738   5.505   0.956   2.796
 1932TIP3    H1 5739   5.570   0.905   2.844
 1932TIP3    H2 5740   5.429   0.898   2.788
 1933TIP3   OH2 5741   1.626   5.779   6.701
 1933TIP3    H1 5742   1.596   5.784   6.610
 1933TIP3    H2 5743   1.576   5.707   6.739
 1934TIP3   OH2 5744   5.954   4.239   5.659
 1934TIP3    H1 5745   6.028   4.229   5.599
 1934TIP3    H2 5746   5.966   4.326   5.698
 1935TIP3   OH2 5747   3.211   5.046   3.389
 1935TIP3    H1 5748   3.301   5.015   3.386
 1935TIP3    H2 5749   3.179   5.017   3.475
 1936TIP3   OH2 5750   1.793   7.528   6.174
 1936TIP3    H1 5751   1.883   7.493   6.172
 1936TIP3    H2 5752   1.803   7.622   6.160
 1937TIP3   OH2 5753   6.514   0.129   3.292
 1937TIP3    H1 5754   6.588   0.138   3.232
 1937TIP3    H2 5755   6.537   0.183   3.367
 1938TIP3   OH2 5756   0.348   3.233   2.686
 1938TIP3    H1 5757   0.407   3.308   2.687
 1938TIP3    H2 5758   0.291   3.248   2.611
 1939TIP3   OH2 5759   1.823   7.170   1.458
 1939TIP3    H1 5760   1.900   7.227   1.459
 1939TIP3    H2 5761   1.749   7.230   1.445
 1940TIP3   OH2 5762   5.919   6.986   6.059
 1940TIP3    H1 5763   5.884   6.907   6.101
 1940TIP3    H2 5764   5.844   7.044   6.049
 1941TIP3   OH2 5765   6.097   5.881   5.142
 1941TIP3    H1 5766   6.131   5.812   5.085
 1941TIP3    H2 5767   6.057   5.944   5.082
 1942TIP3   OH2 5768   3.642   7.030   2.929
 1942TIP3    H1 5769   3.598   6.945   2.936
 1942TIP3    H2 5770   3.731   7.014   2.961
 1943TIP3   OH2 5771   2.929   5.280   0.328
 1943TIP3    H1 5772   2.999   5.312   0.270
 1943TIP3    H2 5773   2.975   5.231   0.396
 1944TIP3   OH2 5774   3.675   2.287   0.327
 1944TIP3    H1 5775   3.613   2.329   0.268
 1944TIP3    H2 5776   3.623   2.262   0.404
 1945TIP3   OH2 5777   0.122   0.327   5.449
 1945TIP3    H1 5778   0.211   0.360   5.458
 1945TIP3    H2 5779   0.067   0.393   5.492
 1946TIP3   OH2 5780   6.031   1.585   3.458
 1946TIP3    H1 5781   5.942   1.564   3.483
 1946TIP3    H2 5782   6.036   1.561   3.365
 1947TIP3   OH2 5783   1.892   4.562   6.451
 1947TIP3    H1 5784   1.920   4.622   6.521
 1947TIP3    H2 5785   1.814   4.604   6.414
 1948TIP3   OH2 5786   3.763   6.100   3.979
 1948TIP3    H1 5787   3.724   6.144   3.904
 1948TIP3    H2 5788   3.792   6.015   3.945
 1949TIP3   OH2 5789   4.312   7.580   3.372
 1949TIP3    H1 5790   4.351   7.506   3.325
 1949TIP3    H2 5791   4.387   7.633   3.399
 1950TIP3   OH2 5792   0.372   0.523   4.906
 1950TIP3    H1 5793   0.441   0.544   4.969
 1950TIP3    H2 5794   0.291   0.530   4.957
 1951TIP3   OH2 5795   5.977   4.924   5.444
 1951TIP3    H1 5796   6.057   4.889   5.483
 1951TIP3    H2 5797   5.995   4.926   5.350
 1952TIP3   OH2 5798   3.827   7.478   5.741
 1952TIP3    H1 5799   3.908   7.427   5.746
 1952TIP3    H2 5800   3.784   7.448   5.660
 1953TIP3   OH2 5801   5.889   5.712   0.681
 1953TIP3    H1 5802   5.971   5.724   0.633
 1953TIP3    H2 5803   5.895   5.624   0.718
 1954TIP3   OH2 5804   0.517   2.411   2.777
 1954TIP3    H1 5805   0.437   2.428   2.727
 1954TIP3    H2 5806   0.574   2.364   2.716
 1955TIP3   OH2 5807   1.158   5.134   5.814
 1955TIP3    H1 5808   1.063   5.137   5.825
 1955TIP3    H2 5809   1.185   5.226   5.808
 1956TIP3   OH2 5810   0.381   0.556   4.387
 1956TIP3    H1 5811   0.312   0.592   4.443
 1956TIP3    H2 5812   0.334   0.509   4.318
 1957TIP3   OH2 5813   8.199   5.511   3.797
 1957TIP3    H1 5814   8.159   5.442   3.851
 1957TIP3    H2 5815   8.161   5.592   3.831
 1958TIP3   OH2 5816   2.166   0.267   5.802
 1958TIP3    H1 5817   2.219   0.331   5.753
 1958TIP3    H2 5818   2.079   0.307   5.806
 1959TIP3   OH2 5819   5.274   4.632   3.741
 1959TIP3    H1 5820   5.360   4.608   3.705
 1959TIP3    H2 5821   5.250   4.557   3.795
 1960TIP3   OH2 5822   6.342   1.967   4.688
 1960TIP3    H1 5823   6.304   2.051   4.662
 1960TIP3    H2 5824   6.372   1.928   4.606
 1961TIP3   OH2 5825   7.118   0.071   2.133
 1961TIP3    H1 5826   7.143   0.157   2.099
 1961TIP3    H2 5827   7.201   0.024   2.145
 1962TIP3   OH2 5828   6.472   3.385   3.618
 1962TIP3    H1 5829   6.563   3.403   3.638
 1962TIP3    H2 5830   6.442   3.461   3.568
 1963TIP3   OH2 5831   2.390   7.059   0.821
 1963TIP3    H1 5832   2.452   7.119   0.781
 1963TIP3    H2 5833   2.375   6.991   0.755
 1964TIP3   OH2 5834   7.135   4.137  -0.040
 1964TIP3    H1 5835   7.185   4.197  -0.096
 1964TIP3    H2 5836   7.189   4.129   0.039
 1965TIP3   OH2 5837   0.974   2.205   2.599
 1965TIP3    H1 5838   0.952   2.203   2.693
 1965TIP3    H2 5839   1.066   2.229   2.597
 1966TIP3   OH2 5840   1.320   6.307   0.938
 1966TIP3    H1 5841   1.244   6.299   0.882
 1966TIP3    H2 5842   1.360   6.220   0.937
 1967TIP3   OH2 5843   2.979   5.569   6.000
 1967TIP3    H1 5844   2.974   5.544   5.907
 1967TIP3    H2 5845   2.904   5.628   6.012
 1968TIP3   OH2 5846   4.546   0.371   4.632
 1968TIP3    H1 5847   4.464   0.400   4.671
 1968TIP3    H2 5848   4.588   0.452   4.602
 1969TIP3   OH2 5849   5.725   2.222   4.673
 1969TIP3    H1 5850   5.675   2.224   4.591
 1969TIP3    H2 5851   5.752   2.312   4.687
 1970TIP3   OH2 5852   7.906   0.885   1.073
 1970TIP3    H1 5853   7.862   0.818   1.020
 1970TIP3    H2 5854   7.842   0.957   1.079
 1971TIP3   OH2 5855   0.699   6.787   2.240
 1971TIP3    H1 5856   0.686   6.791   2.335
 1971TIP3    H2 5857   0.619   6.826   2.203
 1972TIP3   OH2 5858   3.755   7.810   0.440
 1972TIP3    H1 5859   3.752   7.726   0.394
 1972TIP3    H2 5860   3.779   7.873   0.373
 1973TIP3   OH2 5861   3.095   2.870   1.006
 1973TIP3    H1 5862   3.013   2.846   1.050
 1973TIP3    H2 5863   3.067   2.913   0.925
 1974TIP3   OH2 5864   3.407   2.479   0.746
 1974TIP3    H1 5865   3.371   2.526   0.671
 1974TIP3    H2 5866   3.346   2.406   0.759
 1975TIP3   OH2 5867   6.834   4.827   2.947
 1975TIP3    H1 5868   6.889   4.868   3.014
 1975TIP3    H2 5869   6.895   4.798   2.880
 1976TIP3   OH2 5870   3.109   0.840   1.293
 1976TIP3    H1 5871   3.104   0.758   1.245
 1976TIP3    H2 5872   3.181   0.828   1.354
 1977TIP3   OH2 5873   6.415   3.505   1.705
 1977TIP3    H1 5874   6.428   3.421   1.749
 1977TIP3    H2 5875   6.358   3.554   1.763
 1978TIP3   OH2 5876   1.222   6.666   2.923
 1978TIP3    H1 5877   1.155   6.726   2.958
 1978TIP3    H2 5878   1.178   6.618   2.853
 1979TIP3   OH2 5879   2.093   2.893   2.606
 1979TIP3    H1 5880   2.159   2.902   2.537
 1979TIP3    H2 5881   2.036   2.823   2.574
 1980TIP3   OH2 5882   2.789   2.990   2.748
 1980TIP3    H1 5883   2.850   3.015   2.818
 1980TIP3    H2 5884   2.726   2.932   2.792
 1981TIP3   OH2 5885   3.500   0.896   6.580
 1981TIP3    H1 5886   3.501   0.883   6.675
 1981TIP3    H2 5887   3.566   0.964   6.565
 1982TIP3   OH2 5888   0.153   0.171   2.170
 1982TIP3    H1 5889   0.122   0.089   2.131
 1982TIP3    H2 5890   0.248   0.164   2.169
 1983TIP3   OH2 5891   3.259   6.363   4.996
 1983TIP3    H1 5892   3.335   6.385   4.942
 1983TIP3    H2 5893   3.235   6.275   4.970
 1984TIP3   OH2 5894   6.969   1.890   1.823
 1984TIP3    H1 5895   6.998   1.890   1.914
 1984TIP3    H2 5896   7.048   1.910   1.773
 1985TIP3   OH2 5897   2.669   4.645   3.807
 1985TIP3    H1 5898   2.627   4.702   3.872
 1985TIP3    H2 5899   2.755   4.685   3.792
 1986TIP3   OH2 5900   4.364   1.473   6.840
 1986TIP3    H1 5901   4.284   1.450   6.792
 1986TIP3    H2 5902   4.420   1.514   6.774
 1987TIP3   OH2 5903   5.034   6.889   1.370
 1987TIP3    H1 5904   5.092   6.964   1.375
 1987TIP3    H2 5905   4.979   6.895   1.449
 1988TIP3   OH2 5906   3.225   7.560   1.906
 1988TIP3    H1 5907   3.299   7.537   1.850
 1988TIP3    H2 5908   3.169   7.482   1.906
 1989TIP3   OH2 5909   0.816   3.464   4.500
 1989TIP3    H1 5910   0.762   3.430   4.429
 1989TIP3    H2 5911   0.885   3.399   4.513
 1990TIP3   OH2 5912   3.973   1.052   1.417
 1990TIP3    H1 5913   3.883   1.070   1.445
 1990TIP3    H2 5914   3.999   0.975   1.468
 1991TIP3   OH2 5915   4.815   3.993   4.101
 1991TIP3    H1 5916   4.802   4.076   4.147
 1991TIP3    H2 5917   4.814   3.927   4.171
 1992TIP3   OH2 5918   1.220   2.396   4.685
 1992TIP3    H1 5919   1.238   2.477   4.732
 1992TIP3    H2 5920   1.286   2.393   4.616
 1993TIP3   OH2 5921   7.238   5.109   2.948
 1993TIP3    H1 5922   7.295   5.032   2.957
 1993TIP3    H2 5923   7.224   5.118   2.854
 1994TIP3   OH2 5924   7.259   0.283   5.339
 1994TIP3    H1 5925   7.216   0.226   5.403
 1994TIP3    H2 5926   7.200   0.358   5.331
 1995TIP3   OH2 5927   6.863   1.034   1.647
 1995TIP3    H1 5928   6.919   1.063   1.575
 1995TIP3    H2 5929   6.907   0.957   1.683
 1996TIP3   OH2 5930   5.795   1.087   4.772
 1996TIP3    H1 5931   5.863   1.034   4.729
 1996TIP3    H2 5932   5.843   1.163   4.807
 1997TIP3   OH2 5933   7.865   0.608   1.312
 1997TIP3    H1 5934   7.829   0.637   1.396
 1997TIP3    H2 5935   7.899   0.688   1.272
 1998TIP3   OH2 5936   4.410   6.972   5.169
 1998TIP3    H1 5937   4.399   6.971   5.074
 1998TIP3    H2 5938   4.321   6.970   5.204
 1999TIP3   OH2 5939   1.720   3.077   0.752
 1999TIP3    H1 5940   1.643   3.074   0.809
 1999TIP3    H2 5941   1.734   2.987   0.724
 2000TIP3   OH2 5942   7.684   6.683   2.032
 2000TIP3    H1 5943   7.774   6.672   2.061
 2000TIP3    H2 5944   7.642   6.731   2.102
 2001TIP3   OH2 5945   4.561   4.899   2.097
 2001TIP3    H1 5946   4.499   4.935   2.161
 2001TIP3    H2 5947   4.523   4.922   2.012
 2002TIP3   OH2 5948   8.147   7.237   0.459
 2002TIP3    H1 5949   8.215   7.230   0.392
 2002TIP3    H2 5950   8.163   7.323   0.499
 2003TIP3   OH2 5951   7.128   2.788   0.914
 2003TIP3    H1 5952   7.054   2.727   0.914
 2003TIP3    H2 5953   7.156   2.792   1.006
 2004TIP3   OH2 5954   0.147   4.580   4.124
 2004TIP3    H1 5955   0.232   4.537   4.114
 2004TIP3    H2 5956   0.157   4.637   4.200
 2005TIP3   OH2 5957   8.142   6.032   6.041
 2005TIP3    H1 5958   8.113   5.967   6.104
 2005TIP3    H2 5959   8.233   6.052   6.067
 2006TIP3   OH2 5960   5.191   4.270   6.495
 2006TIP3    H1 5961   5.100   4.297   6.501
 2006TIP3    H2 5962   5.212   4.237   6.583
 2007TIP3   OH2 5963   8.245   6.952   1.661
 2007TIP3    H1 5964   8.280   7.027   1.708
 2007TIP3    H2 5965   8.263   6.971   1.569
 2008TIP3   OH2 5966   1.897   2.618   1.855
 2008TIP3    H1 5967   1.952   2.541   1.842
 2008TIP3    H2 5968   1.836   2.617   1.781
 2009TIP3   OH2 5969   6.648   5.132   2.129
 2009TIP3    H1 5970   6.606   5.052   2.096
 2009TIP3    H2 5971   6.613   5.143   2.217
 2010TIP3   OH2 5972   0.973   7.440   5.913
 2010TIP3    H1 5973   0.976   7.497   5.990
 2010TIP3    H2 5974   1.050   7.384   5.923
 2011TIP3   OH2 5975   3.159   2.043   3.877
 2011TIP3    H1 5976   3.165   2.073   3.967
 2011TIP3    H2 5977   3.247   2.055   3.841
 2012TIP3   OH2 5978   3.819   5.949   6.193
 2012TIP3    H1 5979   3.749   5.905   6.242
 2012TIP3    H2 5980   3.818   6.039   6.226
 2013TIP3   OH2 5981   3.362   0.808   5.696
 2013TIP3    H1 5982   3.455   0.794   5.714
 2013TIP3    H2 5983   3.359   0.887   5.643
 2014TIP3   OH2 5984   5.765   6.921   3.090
 2014TIP3    H1 5985   5.752   6.847   3.150
 2014TIP3    H2 5986   5.684   6.924   3.040
 2015TIP3   OH2 5987   4.645   0.284   6.569
 2015TIP3    H1 5988   4.572   0.336   6.605
 2015TIP3    H2 5989   4.630   0.285   6.475
 2016TIP3   OH2 5990   1.391   4.709   4.670
 2016TIP3    H1 5991   1.438   4.663   4.600
 2016TIP3    H2 5992   1.443   4.788   4.686
 2017TIP3   OH2 5993   2.581   2.406   4.679
 2017TIP3    H1 5994   2.652   2.355   4.642
 2017TIP3    H2 5995   2.550   2.354   4.754
 2018TIP3   OH2 5996   1.701   6.265   2.322
 2018TIP3    H1 5997   1.751   6.202   2.374
 2018TIP3    H2 5998   1.612   6.259   2.355
 2019TIP3   OH2 5999   8.061   0.672   4.980
 2019TIP3    H1 6000   8.117   0.647   5.054
 2019TIP3    H2 6001   7.972   0.670   5.016
 2020TIP3   OH2 6002   0.337   1.335   0.520
 2020TIP3    H1 6003   0.419   1.330   0.569
 2020TIP3    H2 6004   0.291   1.253   0.542
 2021TIP3   OH2 6005   7.894   6.695   1.398
 2021TIP3    H1 6006   7.887   6.680   1.493
 2021TIP3    H2 6007   7.855   6.782   1.385
 2022TIP3   OH2 6008   2.394   3.549   2.282
 2022TIP3    H1 6009   2.305   3.527   2.254
 2022TIP3    H2 6010   2.383   3.628   2.335
 2023TIP3   OH2 6011   6.181   5.061   6.343
 2023TIP3    H1 6012   6.152   4.971   6.334
 2023TIP3    H2 6013   6.110   5.114   6.307
 2024TIP3   OH2 6014   5.415   5.414   0.256
 2024TIP3    H1 6015   5.460   5.336   0.226
 2024TIP3    H2 6016   5.325   5.403   0.226
 2025TIP3   OH2 6017   3.523   6.991   1.749
 2025TIP3    H1 6018   3.504   6.923   1.814
 2025TIP3    H2 6019   3.536   6.943   1.667
 2026TIP3   OH2 6020   8.037   5.710   5.305
 2026TIP3    H1 6021   7.961   5.711   5.362
 2026TIP3    H2 6022   8.041   5.620   5.272
 2027TIP3   OH2 6023   3.178   5.258   5.859
 2027TIP3    H1 6024   3.145   5.348   5.867
 2027TIP3    H2 6025   3.100   5.207   5.835
 2028TIP3   OH2 6026   3.754   3.483   6.174
 2028TIP3    H1 6027   3.680   3.427   6.151
 2028TIP3    H2 6028   3.793   3.507   6.090
 2029TIP3   OH2 6029   5.311   1.614   6.167
 2029TIP3    H1 6030   5.268   1.624   6.252
 2029TIP3    H2 6031   5.371   1.689   6.162
 2030TIP3   OH2 6032   5.198   0.365   0.973
 2030TIP3    H1 6033   5.145   0.328   1.044
 2030TIP3    H2 6034   5.141   0.360   0.896
 2031TIP3   OH2 6035   5.310   5.432   4.382
 2031TIP3    H1 6036   5.309   5.512   4.331
 2031TIP3    H2 6037   5.264   5.368   4.328
 2032TIP3   OH2 6038   1.720   0.409   0.191
 2032TIP3    H1 6039   1.669   0.474   0.143
 2032TIP3    H2 6040   1.790   0.459   0.233
 2033TIP3   OH2 6041   8.227   1.889   4.806
 2033TIP3    H1 6042   8.194   1.809   4.846
 2033TIP3    H2 6043   8.157   1.953   4.819
 2034TIP3   OH2 6044   5.185   5.773   0.576
 2034TIP3    H1 6045   5.182   5.801   0.485
 2034TIP3    H2 6046   5.098   5.792   0.610
 2035TIP3   OH2 6047   7.413   0.608   6.055
 2035TIP3    H1 6048   7.367   0.525   6.054
 2035TIP3    H2 6049   7.398   0.643   6.143
 2036TIP3   OH2 6050  -0.032   1.048   1.180
 2036TIP3    H1 6051   0.037   1.097   1.133
 2036TIP3    H2 6052  -0.034   1.088   1.267
 2037TIP3   OH2 6053   7.371   2.128   4.624
 2037TIP3    H1 6054   7.446   2.127   4.684
 2037TIP3    H2 6055   7.327   2.211   4.643
 2038TIP3   OH2 6056   2.372   5.961   5.278
 2038TIP3    H1 6057   2.371   6.046   5.234
 2038TIP3    H2 6058   2.455   5.958   5.325
 2039TIP3   OH2 6059   6.496   7.279   1.412
 2039TIP3    H1 6060   6.503   7.333   1.334
 2039TIP3    H2 6061   6.557   7.207   1.397
 2040TIP3   OH2 6062   3.827   4.260   1.570
 2040TIP3    H1 6063   3.884   4.190   1.601
 2040TIP3    H2 6064   3.873   4.341   1.592
 2041TIP3   OH2 6065   3.713   3.834   3.578
 2041TIP3    H1 6066   3.806   3.856   3.581
 2041TIP3    H2 6067   3.675   3.879   3.653
 2042TIP3   OH2 6068   7.044   2.253   1.926
 2042TIP3    H1 6069   7.063   2.228   2.016
 2042TIP3    H2 6070   7.118   2.219   1.876
 2043TIP3   OH2 6071   5.004   5.782   5.669
 2043TIP3    H1 6072   5.003   5.873   5.640
 2043TIP3    H2 6073   4.923   5.745   5.635
 2044TIP3   OH2 6074   5.270   0.248   3.700
 2044TIP3    H1 6075   5.310   0.181   3.755
 2044TIP3    H2 6076   5.272   0.328   3.753
 2045TIP3   OH2 6077   6.807   0.875   5.306
 2045TIP3    H1 6078   6.757   0.796   5.328
 2045TIP3    H2 6079   6.893   0.859   5.344
 2046TIP3   OH2 6080   5.186   1.941   3.214
 2046TIP3    H1 6081   5.197   1.895   3.131
 2046TIP3    H2 6082   5.224   2.028   3.199
 2047TIP3   OH2 6083   2.954   3.209   2.915
 2047TIP3    H1 6084   3.036   3.180   2.955
 2047TIP3    H2 6085   2.967   3.303   2.899
 2048TIP3   OH2 6086   4.161   1.373   3.086
 2048TIP3    H1 6087   4.108   1.439   3.042
 2048TIP3    H2 6088   4.240   1.366   3.032
 2049TIP3   OH2 6089   4.799   6.700   5.807
 2049TIP3    H1 6090   4.809   6.712   5.713
 2049TIP3    H2 6091   4.706   6.678   5.818
 2050TIP3   OH2 6092   6.825   2.554   6.638
 2050TIP3    H1 6093   6.796   2.478   6.688
 2050TIP3    H2 6094   6.900   2.523   6.587
 2051TIP3   OH2 6095   1.379   3.540   4.305
 2051TIP3    H1 6096   1.362   3.560   4.397
 2051TIP3    H2 6097   1.311   3.587   4.257
 2052TIP3   OH2 6098   6.851   5.655   4.153
 2052TIP3    H1 6099   6.867   5.608   4.235
 2052TIP3    H2 6100   6.820   5.742   4.181
 2053TIP3   OH2 6101   4.272   7.214   6.189
 2053TIP3    H1 6102   4.193   7.161   6.191
 2053TIP3    H2 6103   4.308   7.208   6.277
 2054TIP3   OH2 6104   5.623   4.934   3.270
 2054TIP3    H1 6105   5.695   4.929   3.207
 2054TIP3    H2 6106   5.575   4.852   3.259
 2055TIP3   OH2 6107   6.560   6.093   2.334
 2055TIP3    H1 6108   6.620   6.042   2.388
 2055TIP3    H2 6109   6.539   6.035   2.261
 2056TIP3   OH2 6110   7.210   1.627   6.257
 2056TIP3    H1 6111   7.153   1.643   6.182
 2056TIP3    H2 6112   7.245   1.539   6.244
 2057TIP3   OH2 6113   1.338   4.437   4.919
 2057TIP3    H1 6114   1.269   4.434   4.853
 2057TIP3    H2 6115   1.353   4.345   4.942
 2058TIP3   OH2 6116   5.660   5.580   3.926
 2058TIP3    H1 6117   5.658   5.540   3.839
 2058TIP3    H2 6118   5.748   5.562   3.958
 2059TIP3   OH2 6119   2.931   2.921   5.367
 2059TIP3    H1 6120   2.934   2.941   5.274
 2059TIP3    H2 6121   2.851   2.870   5.378
 2060TIP3   OH2 6122   5.286   3.530   1.668
 2060TIP3    H1 6123   5.344   3.556   1.596
 2060TIP3    H2 6124   5.322   3.447   1.699
 2061TIP3   OH2 6125   3.819   5.182   4.153
 2061TIP3    H1 6126   3.843   5.241   4.224
 2061TIP3    H2 6127   3.872   5.210   4.078
 2062TIP3   OH2 6128   3.434   2.360   6.087
 2062TIP3    H1 6129   3.480   2.277   6.084
 2062TIP3    H2 6130   3.353   2.341   6.136
 2063TIP3   OH2 6131   0.467   5.370   2.341
 2063TIP3    H1 6132   0.550   5.323   2.335
 2063TIP3    H2 6133   0.424   5.333   2.418
 2064TIP3   OH2 6134   3.371   3.012   0.491
 2064TIP3    H1 6135   3.458   3.009   0.532
 2064TIP3    H2 6136   3.366   3.098   0.450
 2065TIP3   OH2 6137   3.233   3.537   3.709
 2065TIP3    H1 6138   3.214   3.462   3.764
 2065TIP3    H2 6139   3.273   3.601   3.768
 2066TIP3   OH2 6140   8.157   4.178   4.358
 2066TIP3    H1 6141   8.246   4.200   4.331
 2066TIP3    H2 6142   8.104   4.191   4.280
 2067TIP3   OH2 6143   1.565   7.390   6.440
 2067TIP3    H1 6144   1.571   7.364   6.532
 2067TIP3    H2 6145   1.579   7.485   6.441
 2068TIP3   OH2 6146   6.299   2.389   0.245
 2068TIP3    H1 6147   6.290   2.369   0.152
 2068TIP3    H2 6148   6.266   2.478   0.254
 2069TIP3   OH2 6149   7.489   4.004   4.554
 2069TIP3    H1 6150   7.424   4.068   4.525
 2069TIP3    H2 6151   7.442   3.921   4.557
 2070TIP3   OH2 6152   3.466   7.779   0.530
 2070TIP3    H1 6153   3.501   7.839   0.464
 2070TIP3    H2 6154   3.405   7.833   0.581
 2071TIP3   OH2 6155   6.133   1.229   2.050
 2071TIP3    H1 6156   6.075   1.153   2.054
 2071TIP3    H2 6157   6.183   1.216   1.970
 2072TIP3   OH2 6158   1.096   3.533   2.197
 2072TIP3    H1 6159   1.077   3.458   2.254
 2072TIP3    H2 6160   1.096   3.609   2.256
 2073TIP3   OH2 6161   4.544   5.689   0.838
 2073TIP3    H1 6162   4.555   5.632   0.761
 2073TIP3    H2 6163   4.592   5.769   0.815
 2074TIP3   OH2 6164   2.702   2.951   2.313
 2074TIP3    H1 6165   2.732   3.009   2.382
 2074TIP3    H2 6166   2.759   2.970   2.239
 2075TIP3   OH2 6167   2.597   6.419   5.229
 2075TIP3    H1 6168   2.617   6.385   5.316
 2075TIP3    H2 6169   2.540   6.494   5.244
 2076TIP3   OH2 6170   0.687   1.247   0.353
 2076TIP3    H1 6171   0.723   1.230   0.266
 2076TIP3    H2 6172   0.665   1.160   0.386
 2077TIP3   OH2 6173   7.516   4.224   2.798
 2077TIP3    H1 6174   7.499   4.294   2.861
 2077TIP3    H2 6175   7.608   4.201   2.813
 2078TIP3   OH2 6176   4.950   3.164   6.678
 2078TIP3    H1 6177   5.009   3.116   6.620
 2078TIP3    H2 6178   4.955   3.255   6.647
 2079TIP3   OH2 6179   5.774   5.643   3.232
 2079TIP3    H1 6180   5.830   5.716   3.261
 2079TIP3    H2 6181   5.835   5.582   3.191
 2080TIP3   OH2 6182   5.084   1.760   2.734
 2080TIP3    H1 6183   5.077   1.820   2.660
 2080TIP3    H2 6184   5.008   1.702   2.725
 2081TIP3   OH2 6185   4.558   7.754   3.061
 2081TIP3    H1 6186   4.612   7.718   3.132
 2081TIP3    H2 6187   4.590   7.712   2.982
 2082TIP3   OH2 6188   0.305   6.494   1.579
 2082TIP3    H1 6189   0.305   6.521   1.671
 2082TIP3    H2 6190   0.396   6.508   1.551
 2083TIP3   OH2 6191   7.040   3.072   1.154
 2083TIP3    H1 6192   7.042   2.977   1.163
 2083TIP3    H2 6193   7.075   3.104   1.237
 2084TIP3   OH2 6194   6.471   6.737   1.952
 2084TIP3    H1 6195   6.401   6.698   1.900
 2084TIP3    H2 6196   6.479   6.826   1.919
 2085TIP3   OH2 6197   0.459   7.019   2.662
 2085TIP3    H1 6198   0.450   6.954   2.592
 2085TIP3    H2 6199   0.542   7.062   2.644
 2086TIP3   OH2 6200   4.752   5.540   0.622
 2086TIP3    H1 6201   4.796   5.619   0.592
 2086TIP3    H2 6202   4.792   5.521   0.707
 2087TIP3   OH2 6203   2.370   5.139   6.476
 2087TIP3    H1 6204   2.423   5.101   6.406
 2087TIP3    H2 6205   2.280   5.134   6.443
 2088TIP3   OH2 6206   1.893   5.278   1.829
 2088TIP3    H1 6207   1.822   5.306   1.771
 2088TIP3    H2 6208   1.899   5.183   1.816
 2089TIP3   OH2 6209   4.792   5.428   3.501
 2089TIP3    H1 6210   4.856   5.377   3.550
 2089TIP3    H2 6211   4.832   5.444   3.416
 2090TIP3   OH2 6212   4.858   5.780   0.564
 2090TIP3    H1 6213   4.837   5.824   0.647
 2090TIP3    H2 6214   4.893   5.849   0.508
 2091TIP3   OH2 6215   4.971   0.322   4.015
 2091TIP3    H1 6216   4.999   0.392   4.073
 2091TIP3    H2 6217   4.917   0.365   3.949
 2092TIP3   OH2 6218   1.667   7.363   6.690
 2092TIP3    H1 6219   1.619   7.425   6.744
 2092TIP3    H2 6220   1.677   7.286   6.747
 2093TIP3   OH2 6221   6.333   0.048   2.674
 2093TIP3    H1 6222   6.286  -0.004   2.610
 2093TIP3    H2 6223   6.414   0.074   2.631
 2094TIP3   OH2 6224   7.125   5.354   6.358
 2094TIP3    H1 6225   7.139   5.367   6.452
 2094TIP3    H2 6226   7.199   5.397   6.317
 2095TIP3   OH2 6227   1.284   0.804   0.561
 2095TIP3    H1 6228   1.332   0.839   0.637
 2095TIP3    H2 6229   1.249   0.882   0.518
 2096TIP3   OH2 6230   3.728   2.903   5.531
 2096TIP3    H1 6231   3.736   2.865   5.618
 2096TIP3    H2 6232   3.652   2.860   5.493
 2097TIP3   OH2 6233   1.058   5.328   0.183
 2097TIP3    H1 6234   1.006   5.368   0.114
 2097TIP3    H2 6235   1.028   5.237   0.186
 2098TIP3   OH2 6236   1.579   7.133   5.034
 2098TIP3    H1 6237   1.499   7.186   5.036
 2098TIP3    H2 6238   1.600   7.124   4.941
 2099TIP3   OH2 6239   6.370   5.138   6.508
 2099TIP3    H1 6240   6.387   5.096   6.592
 2099TIP3    H2 6241   6.292   5.094   6.475
 2100TIP3   OH2 6242   0.730   6.227   1.507
 2100TIP3    H1 6243   0.794   6.196   1.571
 2100TIP3    H2 6244   0.685   6.300   1.550
 2101TIP3   OH2 6245   1.193   1.366   5.783
 2101TIP3    H1 6246   1.232   1.346   5.698
 2101TIP3    H2 6247   1.165   1.281   5.817
 2102TIP3   OH2 6248   8.308   5.444   4.983
 2102TIP3    H1 6249   8.381   5.495   5.019
 2102TIP3    H2 6250   8.275   5.394   5.057
 2103TIP3   OH2 6251   2.822   4.146   2.860
 2103TIP3    H1 6252   2.803   4.052   2.852
 2103TIP3    H2 6253   2.858   4.155   2.948
 2104TIP3   OH2 6254   1.615   6.947   4.431
 2104TIP3    H1 6255   1.617   7.041   4.449
 2104TIP3    H2 6256   1.599   6.906   4.516
 2105TIP3   OH2 6257   1.391   7.734   0.717
 2105TIP3    H1 6258   1.361   7.819   0.683
 2105TIP3    H2 6259   1.311   7.681   0.721
 2106TIP3   OH2 6260   5.613   7.424   3.323
 2106TIP3    H1 6261   5.519   7.439   3.318
 2106TIP3    H2 6262   5.651   7.482   3.257
 2107TIP3   OH2 6263   4.952   4.768   0.532
 2107TIP3    H1 6264   5.013   4.811   0.473
 2107TIP3    H2 6265   5.007   4.732   0.602
 2108TIP3   OH2 6266   4.260   4.965   1.270
 2108TIP3    H1 6267   4.286   4.925   1.187
 2108TIP3    H2 6268   4.234   5.054   1.246
 2109TIP3   OH2 6269   1.752   1.165   6.475
 2109TIP3    H1 6270   1.838   1.126   6.494
 2109TIP3    H2 6271   1.736   1.224   6.549
 2110TIP3   OH2 6272   5.045   7.594   4.342
 2110TIP3    H1 6273   5.055   7.686   4.319
 2110TIP3    H2 6274   5.002   7.555   4.265
 2111TIP3   OH2 6275   7.731   1.881   0.881
 2111TIP3    H1 6276   7.662   1.946   0.865
 2111TIP3    H2 6277   7.686   1.805   0.914
 2112TIP3   OH2 6278   2.475   3.436   5.903
 2112TIP3    H1 6279   2.459   3.511   5.845
 2112TIP3    H2 6280   2.556   3.397   5.871
 2113TIP3   OH2 6281   6.724   4.794   2.288
 2113TIP3    H1 6282   6.774   4.717   2.315
 2113TIP3    H2 6283   6.651   4.798   2.349
 2114TIP3   OH2 6284   3.956   0.608   5.757
 2114TIP3    H1 6285   3.979   0.700   5.772
 2114TIP3    H2 6286   3.917   0.579   5.839
 2115TIP3   OH2 6287   7.401   0.868   6.536
 2115TIP3    H1 6288   7.361   0.831   6.614
 2115TIP3    H2 6289   7.431   0.792   6.486
 2116TIP3   OH2 6290   7.880   2.097   1.106
 2116TIP3    H1 6291   7.891   2.192   1.119
 2116TIP3    H2 6292   7.812   2.090   1.039
 2117TIP3   OH2 6293   0.017   3.645   0.591
 2117TIP3    H1 6294  -0.073   3.615   0.600
 2117TIP3    H2 6295   0.012   3.740   0.603
 2118TIP3   OH2 6296   5.980   2.807   5.280
 2118TIP3    H1 6297   6.030   2.755   5.217
 2118TIP3    H2 6298   6.006   2.772   5.366
 2119TIP3   OH2 6299   5.899   6.575   2.825
 2119TIP3    H1 6300   5.931   6.624   2.750
 2119TIP3    H2 6301   5.977   6.533   2.861
 2120TIP3   OH2 6302   6.383   0.479   0.310
 2120TIP3    H1 6303   6.432   0.407   0.269
 2120TIP3    H2 6304   6.299   0.480   0.264
 2121TIP3   OH2 6305   0.353   7.063   5.918
 2121TIP3    H1 6306   0.435   7.043   5.962
 2121TIP3    H2 6307   0.309   7.124   5.977
 2122TIP3   OH2 6308   2.109   4.651   4.309
 2122TIP3    H1 6309   2.165   4.635   4.385
 2122TIP3    H2 6310   2.155   4.608   4.237
 2123TIP3   OH2 6311   2.237   4.842   1.355
 2123TIP3    H1 6312   2.288   4.803   1.426
 2123TIP3    H2 6313   2.299   4.902   1.311
 2124TIP3   OH2 6314   6.762   6.661   4.429
 2124TIP3    H1 6315   6.780   6.595   4.361
 2124TIP3    H2 6316   6.849   6.684   4.462
 2125TIP3   OH2 6317   2.302   0.120   6.288
 2125TIP3    H1 6318   2.232   0.055   6.294
 2125TIP3    H2 6319   2.286   0.166   6.206
 2126TIP3   OH2 6320   2.475   3.682   4.301
 2126TIP3    H1 6321   2.470   3.750   4.234
 2126TIP3    H2 6322   2.532   3.615   4.263
 2127TIP3   OH2 6323   5.866   6.142   1.319
 2127TIP3    H1 6324   5.937   6.113   1.263
 2127TIP3    H2 6325   5.844   6.230   1.286
 2128TIP3   OH2 6326   5.714   7.520   4.892
 2128TIP3    H1 6327   5.724   7.603   4.844
 2128TIP3    H2 6328   5.800   7.479   4.886
 2129TIP3   OH2 6329   6.917   2.792   1.665
 2129TIP3    H1 6330   6.942   2.876   1.704
 2129TIP3    H2 6331   6.895   2.814   1.574
 2130TIP3   OH2 6332   0.095   6.819   0.863
 2130TIP3    H1 6333   0.091   6.902   0.910
 2130TIP3    H2 6334   0.187   6.794   0.863
 2131TIP3   OH2 6335   4.156   0.809   5.946
 2131TIP3    H1 6336   4.230   0.844   5.996
 2131TIP3    H2 6337   4.103   0.763   6.011
 2132TIP3   OH2 6338   6.474   2.947   2.569
 2132TIP3    H1 6339   6.493   2.875   2.629
 2132TIP3    H2 6340   6.493   2.911   2.482
 2133TIP3   OH2 6341   0.872   2.530   0.850
 2133TIP3    H1 6342   0.908   2.613   0.821
 2133TIP3    H2 6343   0.892   2.526   0.944
 2134TIP3   OH2 6344   5.665   5.346   1.828
 2134TIP3    H1 6345   5.724   5.295   1.772
 2134TIP3    H2 6346   5.595   5.375   1.769
 2135TIP3   OH2 6347   4.605   6.101   1.442
 2135TIP3    H1 6348   4.528   6.124   1.494
 2135TIP3    H2 6349   4.676   6.098   1.505
 2136TIP3   OH2 6350   0.208   2.448   4.776
 2136TIP3    H1 6351   0.253   2.382   4.829
 2136TIP3    H2 6352   0.120   2.452   4.813
 2137TIP3   OH2 6353   4.005   2.025   5.318
 2137TIP3    H1 6354   4.068   2.067   5.260
 2137TIP3    H2 6355   4.001   1.934   5.288
 2138TIP3   OH2 6356   2.499   6.255   6.123
 2138TIP3    H1 6357   2.420   6.265   6.070
 2138TIP3    H2 6358   2.468   6.256   6.213
 2139TIP3   OH2 6359   1.475   3.806   0.692
 2139TIP3    H1 6360   1.457   3.860   0.769
 2139TIP3    H2 6361   1.550   3.752   0.717
 2140TIP3   OH2 6362   6.626   3.336   1.058
 2140TIP3    H1 6363   6.642   3.242   1.066
 2140TIP3    H2 6364   6.545   3.352   1.106
 2141TIP3   OH2 6365   3.111   4.181   3.536
 2141TIP3    H1 6366   3.028   4.196   3.582
 2141TIP3    H2 6367   3.091   4.111   3.474
 2142TIP3   OH2 6368   1.700   3.408   5.647
 2142TIP3    H1 6369   1.709   3.437   5.556
 2142TIP3    H2 6370   1.607   3.391   5.657
 2143TIP3   OH2 6371   3.809   5.110   5.608
 2143TIP3    H1 6372   3.901   5.094   5.586
 2143TIP3    H2 6373   3.810   5.127   5.703
 2144TIP3   OH2 6374   6.504   0.918   4.701
 2144TIP3    H1 6375   6.565   0.849   4.725
 2144TIP3    H2 6376   6.518   0.986   4.767
 2145TIP3   OH2 6377   7.158   1.790   5.262
 2145TIP3    H1 6378   7.163   1.867   5.318
 2145TIP3    H2 6379   7.084   1.807   5.203
 2146TIP3   OH2 6380   3.361   2.767   0.307
 2146TIP3    H1 6381   3.444   2.721   0.321
 2146TIP3    H2 6382   3.357   2.830   0.379
 2147TIP3   OH2 6383   7.155   5.660   1.835
 2147TIP3    H1 6384   7.207   5.591   1.793
 2147TIP3    H2 6385   7.102   5.614   1.901
 2148TIP3   OH2 6386   5.122   3.706   5.643
 2148TIP3    H1 6387   5.154   3.627   5.685
 2148TIP3    H2 6388   5.122   3.685   5.549
 2149TIP3   OH2 6389   3.816   2.170   1.302
 2149TIP3    H1 6390   3.857   2.219   1.374
 2149TIP3    H2 6391   3.869   2.192   1.225
 2150TIP3   OH2 6392   6.739   7.587   2.596
 2150TIP3    H1 6393   6.653   7.621   2.623
 2150TIP3    H2 6394   6.801   7.630   2.656
 2151TIP3   OH2 6395   1.444   4.806   6.115
 2151TIP3    H1 6396   1.441   4.852   6.199
 2151TIP3    H2 6397   1.363   4.831   6.071
 2152TIP3   OH2 6398   4.986   7.433   0.153
 2152TIP3    H1 6399   5.011   7.343   0.131
 2152TIP3    H2 6400   5.044   7.456   0.226
 2153TIP3   OH2 6401   1.146   4.316   0.529
 2153TIP3    H1 6402   1.209   4.295   0.598
 2153TIP3    H2 6403   1.061   4.316   0.573
 2154TIP3   OH2 6404   2.808   5.007   6.642
 2154TIP3    H1 6405   2.853   5.069   6.584
 2154TIP3    H2 6406   2.856   4.925   6.630
 2155TIP3   OH2 6407   5.817   2.350   3.843
 2155TIP3    H1 6408   5.731   2.387   3.861
 2155TIP3    H2 6409   5.851   2.324   3.929
 2156TIP3   OH2 6410   6.985   7.468   3.933
 2156TIP3    H1 6411   6.986   7.469   3.837
 2156TIP3    H2 6412   7.078   7.465   3.957
 2157TIP3   OH2 6413   6.535   0.932   0.726
 2157TIP3    H1 6414   6.532   0.897   0.815
 2157TIP3    H2 6415   6.619   0.904   0.691
 2158TIP3   OH2 6416   5.957   3.997   4.297
 2158TIP3    H1 6417   5.879   4.010   4.352
 2158TIP3    H2 6418   6.029   4.034   4.349
 2159TIP3   OH2 6419   7.049   2.006   1.270
 2159TIP3    H1 6420   6.988   2.007   1.343
 2159TIP3    H2 6421   7.135   1.992   1.311
 2160TIP3   OH2 6422   7.623   0.592   2.972
 2160TIP3    H1 6423   7.587   0.548   2.895
 2160TIP3    H2 6424   7.610   0.685   2.955
 2161TIP3   OH2 6425   5.440   2.907   1.472
 2161TIP3    H1 6426   5.346   2.918   1.459
 2161TIP3    H2 6427   5.471   2.995   1.496
 2162TIP3   OH2 6428   4.478   3.965   1.820
 2162TIP3    H1 6429   4.401   3.952   1.875
 2162TIP3    H2 6430   4.480   3.889   1.762
 2163TIP3   OH2 6431   2.343   2.801   1.074
 2163TIP3    H1 6432   2.342   2.706   1.076
 2163TIP3    H2 6433   2.427   2.826   1.113
 2164TIP3   OH2 6434   7.811   2.003   3.325
 2164TIP3    H1 6435   7.725   2.015   3.284
 2164TIP3    H2 6436   7.866   2.071   3.285
 2165TIP3   OH2 6437   7.715   1.561   3.185
 2165TIP3    H1 6438   7.711   1.578   3.279
 2165TIP3    H2 6439   7.624   1.543   3.160
 2166TIP3   OH2 6440   1.129   3.708   6.489
 2166TIP3    H1 6441   1.154   3.780   6.546
 2166TIP3    H2 6442   1.180   3.633   6.519
 2167TIP3   OH2 6443   3.511   4.592   0.922
 2167TIP3    H1 6444   3.474   4.517   0.875
 2167TIP3    H2 6445   3.573   4.631   0.861
 2168TIP3   OH2 6446   4.124   7.648   6.590
 2168TIP3    H1 6447   4.166   7.664   6.675
 2168TIP3    H2 6448   4.182   7.586   6.546
 2169TIP3   OH2 6449   1.161   2.513   4.179
 2169TIP3    H1 6450   1.149   2.547   4.267
 2169TIP3    H2 6451   1.192   2.423   4.191
 2170TIP3   OH2 6452   6.209   3.093   4.370
 2170TIP3    H1 6453   6.274   3.065   4.305
 2170TIP3    H2 6454   6.225   3.187   4.381
 2171TIP3   OH2 6455   0.592   7.154   1.623
 2171TIP3    H1 6456   0.672   7.133   1.672
 2171TIP3    H2 6457   0.623   7.203   1.547
 2172TIP3   OH2 6458   4.413   2.701   5.290
 2172TIP3    H1 6459   4.421   2.660   5.204
 2172TIP3    H2 6460   4.474   2.653   5.346
 2173TIP3   OH2 6461   4.147   6.105   2.961
 2173TIP3    H1 6462   4.205   6.178   2.938
 2173TIP3    H2 6463   4.097   6.137   3.036
 2174TIP3   OH2 6464   0.459   5.520   3.031
 2174TIP3    H1 6465   0.466   5.438   2.981
 2174TIP3    H2 6466   0.537   5.520   3.087
 2175TIP3   OH2 6467   5.055   7.256   2.541
 2175TIP3    H1 6468   5.141   7.217   2.553
 2175TIP3    H2 6469   5.007   7.232   2.620
 2176TIP3   OH2 6470   3.687   4.945   1.234
 2176TIP3    H1 6471   3.763   4.979   1.281
 2176TIP3    H2 6472   3.612   4.966   1.290
 2177TIP3   OH2 6473   5.603   4.470   1.281
 2177TIP3    H1 6474   5.600   4.539   1.348
 2177TIP3    H2 6475   5.617   4.389   1.331
 2178TIP3   OH2 6476   0.734   0.450   2.276
 2178TIP3    H1 6477   0.735   0.408   2.361
 2178TIP3    H2 6478   0.827   0.456   2.251
 2179TIP3   OH2 6479   3.278   5.403   6.309
 2179TIP3    H1 6480   3.278   5.475   6.372
 2179TIP3    H2 6481   3.192   5.410   6.266
 2180TIP3   OH2 6482   5.017   2.073   0.533
 2180TIP3    H1 6483   5.104   2.104   0.511
 2180TIP3    H2 6484   4.962   2.099   0.459
 2181TIP3   OH2 6485   8.088   5.770   3.349
 2181TIP3    H1 6486   8.183   5.763   3.355
 2181TIP3    H2 6487   8.062   5.697   3.292
 2182TIP3   OH2 6488   6.635   0.750   3.103
 2182TIP3    H1 6489   6.615   0.685   3.170
 2182TIP3    H2 6490   6.570   0.819   3.117
 2183TIP3   OH2 6491   2.994   6.722   1.050
 2183TIP3    H1 6492   3.070   6.699   0.997
 2183TIP3    H2 6493   2.995   6.818   1.052
 2184TIP3   OH2 6494   0.692   3.366   5.948
 2184TIP3    H1 6495   0.780   3.336   5.923
 2184TIP3    H2 6496   0.671   3.313   6.025
 2185TIP3   OH2 6497   8.088   0.485   6.674
 2185TIP3    H1 6498   8.057   0.572   6.699
 2185TIP3    H2 6499   8.172   0.477   6.718
 2186TIP3   OH2 6500   6.455   4.862   4.246
 2186TIP3    H1 6501   6.461   4.780   4.197
 2186TIP3    H2 6502   6.364   4.889   4.236
 2187TIP3   OH2 6503   0.251   2.849   4.546
 2187TIP3    H1 6504   0.168   2.884   4.515
 2187TIP3    H2 6505   0.317   2.894   4.494
 2188TIP3   OH2 6506   7.053   5.536   5.608
 2188TIP3    H1 6507   7.064   5.621   5.650
 2188TIP3    H2 6508   7.003   5.556   5.528
 2189TIP3   OH2 6509   0.270   3.226   5.305
 2189TIP3    H1 6510   0.331   3.189   5.368
 2189TIP3    H2 6511   0.326   3.271   5.241
 2190TIP3   OH2 6512   1.180   2.116   1.882
 2190TIP3    H1 6513   1.145   2.063   1.811
 2190TIP3    H2 6514   1.242   2.059   1.927
 2191TIP3   OH2 6515   5.025   6.017   0.156
 2191TIP3    H1 6516   5.005   5.952   0.089
 2191TIP3    H2 6517   5.105   6.060   0.125
 2192TIP3   OH2 6518   5.202   0.073   5.628
 2192TIP3    H1 6519   5.200   0.153   5.576
 2192TIP3    H2 6520   5.208   0.003   5.563
 2193TIP3   OH2 6521   3.181   2.647   6.739
 2193TIP3    H1 6522   3.176   2.728   6.789
 2193TIP3    H2 6523   3.151   2.580   6.799
 2194TIP3   OH2 6524   2.138   5.568   5.045
 2194TIP3    H1 6525   2.106   5.657   5.060
 2194TIP3    H2 6526   2.061   5.512   5.055
 2195TIP3   OH2 6527   5.070   2.363   3.602
 2195TIP3    H1 6528   5.033   2.434   3.549
 2195TIP3    H2 6529   5.153   2.397   3.633
 2196TIP3   OH2 6530   5.743   0.547   0.457
 2196TIP3    H1 6531   5.672   0.569   0.517
 2196TIP3    H2 6532   5.714   0.467   0.414
 2197TIP3   OH2 6533   2.756   3.182   4.875
 2197TIP3    H1 6534   2.810   3.205   4.799
 2197TIP3    H2 6535   2.730   3.092   4.860
 2198TIP3   OH2 6536   5.355   5.291   1.203
 2198TIP3    H1 6537   5.274   5.334   1.175
 2198TIP3    H2 6538   5.381   5.238   1.128
 2199TIP3   OH2 6539   5.135   0.536   6.509
 2199TIP3    H1 6540   5.083   0.455   6.511
 2199TIP3    H2 6541   5.225   0.506   6.517
 2200TIP3   OH2 6542   2.147   1.151   1.027
 2200TIP3    H1 6543   2.175   1.160   1.118
 2200TIP3    H2 6544   2.228   1.141   0.978
 2201TIP3   OH2 6545   3.317   3.256   6.064
 2201TIP3    H1 6546   3.264   3.178   6.051
 2201TIP3    H2 6547   3.335   3.258   6.158
 2202TIP3   OH2 6548   6.223   3.754   0.173
 2202TIP3    H1 6549   6.242   3.840   0.210
 2202TIP3    H2 6550   6.153   3.719   0.228
 2203TIP3   OH2 6551   3.063   1.693  -0.049
 2203TIP3    H1 6552   3.021   1.723   0.032
 2203TIP3    H2 6553   3.032   1.754  -0.116
 2204TIP3   OH2 6554   4.751   6.623   1.438
 2204TIP3    H1 6555   4.697   6.687   1.484
 2204TIP3    H2 6556   4.812   6.590   1.504
 2205TIP3   OH2 6557   4.724   5.401   5.544
 2205TIP3    H1 6558   4.656   5.464   5.566
 2205TIP3    H2 6559   4.795   5.421   5.604
 2206TIP3   OH2 6560   0.891   4.327   0.640
 2206TIP3    H1 6561   0.872   4.414   0.678
 2206TIP3    H2 6562   0.815   4.307   0.586
 2207TIP3   OH2 6563   0.092   5.422   5.747
 2207TIP3    H1 6564   0.048   5.506   5.739
 2207TIP3    H2 6565   0.180   5.438   5.712
 2208TIP3   OH2 6566   5.456   5.142   3.181
 2208TIP3    H1 6567   5.529   5.085   3.204
 2208TIP3    H2 6568   5.481   5.228   3.216
 2209TIP3   OH2 6569   3.075   5.841   4.947
 2209TIP3    H1 6570   3.016   5.916   4.952
 2209TIP3    H2 6571   3.030   5.771   4.993
 2210TIP3   OH2 6572   2.032   6.274   2.516
 2210TIP3    H1 6573   2.029   6.346   2.454
 2210TIP3    H2 6574   1.988   6.309   2.595
 2211TIP3   OH2 6575   5.865   2.057   0.700
 2211TIP3    H1 6576   5.792   2.018   0.653
 2211TIP3    H2 6577   5.825   2.125   0.754
 2212TIP3   OH2 6578   8.312   4.407   1.267
 2212TIP3    H1 6579   8.312   4.428   1.173
 2212TIP3    H2 6580   8.223   4.378   1.285
 2213TIP3   OH2 6581   4.071   0.466   1.450
 2213TIP3    H1 6582   4.082   0.542   1.393
 2213TIP3    H2 6583   3.977   0.465   1.471
 2214TIP3   OH2 6584   4.208   0.968   1.283
 2214TIP3    H1 6585   4.303   0.962   1.292
 2214TIP3    H2 6586   4.179   1.013   1.362
 2215TIP3   OH2 6587   6.399   0.388   2.548
 2215TIP3    H1 6588   6.443   0.387   2.463
 2215TIP3    H2 6589   6.469   0.403   2.612
 2216TIP3   OH2 6590   7.426   3.054   4.334
 2216TIP3    H1 6591   7.446   2.960   4.329
 2216TIP3    H2 6592   7.479   3.093   4.265
 2217TIP3   OH2 6593   4.800   7.602   0.053
 2217TIP3    H1 6594   4.873   7.558   0.096
 2217TIP3    H2 6595   4.771   7.669   0.116
 2218TIP3   OH2 6596   4.982   2.110   3.927
 2218TIP3    H1 6597   5.000   2.017   3.942
 2218TIP3    H2 6598   4.915   2.111   3.859
 2219TIP3   OH2 6599   4.040   7.292   1.554
 2219TIP3    H1 6600   4.097   7.234   1.604
 2219TIP3    H2 6601   4.091   7.314   1.476
 2220TIP3   OH2 6602   6.999   1.979   0.712
 2220TIP3    H1 6603   6.999   1.883   0.709
 2220TIP3    H2 6604   7.089   2.003   0.731
 2221TIP3   OH2 6605   1.768   2.760   4.347
 2221TIP3    H1 6606   1.744   2.701   4.418
 2221TIP3    H2 6607   1.787   2.843   4.391
 2222TIP3   OH2 6608   0.642   2.478   2.175
 2222TIP3    H1 6609   0.596   2.469   2.259
 2222TIP3    H2 6610   0.584   2.535   2.124
 2223TIP3   OH2 6611   6.979   4.550   1.023
 2223TIP3    H1 6612   6.916   4.594   1.080
 2223TIP3    H2 6613   7.054   4.533   1.080
 2224TIP3   OH2 6614   4.686   2.633   5.099
 2224TIP3    H1 6615   4.647   2.691   5.164
 2224TIP3    H2 6616   4.730   2.565   5.150
 2225TIP3   OH2 6617   0.319   1.561   0.943
 2225TIP3    H1 6618   0.331   1.527   1.032
 2225TIP3    H2 6619   0.354   1.650   0.947
 2226TIP3   OH2 6620   7.607   5.321   0.706
 2226TIP3    H1 6621   7.562   5.247   0.667
 2226TIP3    H2 6622   7.700   5.296   0.704
 2227TIP3   OH2 6623   6.299   2.298   3.292
 2227TIP3    H1 6624   6.357   2.308   3.367
 2227TIP3    H2 6625   6.332   2.360   3.227
 2228TIP3   OH2 6626   5.846   5.133   5.230
 2228TIP3    H1 6627   5.844   5.159   5.322
 2228TIP3    H2 6628   5.917   5.068   5.225
 2229TIP3   OH2 6629   4.960   1.193   6.662
 2229TIP3    H1 6630   4.986   1.112   6.618
 2229TIP3    H2 6631   4.883   1.223   6.613
 2230TIP3   OH2 6632   4.415   0.416   3.123
 2230TIP3    H1 6633   4.401   0.389   3.032
 2230TIP3    H2 6634   4.390   0.508   3.125
 2231TIP3   OH2 6635   7.712   5.584   4.573
 2231TIP3    H1 6636   7.766   5.562   4.649
 2231TIP3    H2 6637   7.630   5.538   4.588
 2232TIP3   OH2 6638   3.335   2.970   5.574
 2232TIP3    H1 6639   3.336   3.010   5.661
 2232TIP3    H2 6640   3.255   3.003   5.533
 2233TIP3   OH2 6641   3.530   5.172   2.077
 2233TIP3    H1 6642   3.520   5.109   2.006
 2233TIP3    H2 6643   3.532   5.118   2.156
 2234TIP3   OH2 6644   5.531   4.471   4.612
 2234TIP3    H1 6645   5.523   4.403   4.679
 2234TIP3    H2 6646   5.589   4.537   4.652
 2235TIP3   OH2 6647   7.181   1.702   1.266
 2235TIP3    H1 6648   7.218   1.775   1.315
 2235TIP3    H2 6649   7.256   1.660   1.224
 2236TIP3   OH2 6650   0.139   3.532   1.979
 2236TIP3    H1 6651   0.173   3.543   2.068
 2236TIP3    H2 6652   0.072   3.465   1.986
 2237TIP3   OH2 6653   7.858   6.323   3.285
 2237TIP3    H1 6654   7.830   6.235   3.313
 2237TIP3    H2 6655   7.946   6.310   3.251
 2238TIP3   OH2 6656   3.765   0.366   2.401
 2238TIP3    H1 6657   3.831   0.383   2.467
 2238TIP3    H2 6658   3.765   0.271   2.390
 2239TIP3   OH2 6659   1.440   6.195   1.288
 2239TIP3    H1 6660   1.454   6.279   1.332
 2239TIP3    H2 6661   1.495   6.199   1.210
 2240TIP3   OH2 6662   5.097   2.350   4.767
 2240TIP3    H1 6663   5.117   2.443   4.752
 2240TIP3    H2 6664   5.005   2.350   4.795
 2241TIP3   OH2 6665   7.989   1.525   5.289
 2241TIP3    H1 6666   7.898   1.505   5.269
 2241TIP3    H2 6667   7.985   1.592   5.357
 2242TIP3   OH2 6668   1.482   5.656   2.523
 2242TIP3    H1 6669   1.526   5.738   2.498
 2242TIP3    H2 6670   1.532   5.623   2.597
 2243TIP3   OH2 6671   6.166   0.470   3.932
 2243TIP3    H1 6672   6.102   0.401   3.913
 2243TIP3    H2 6673   6.196   0.451   4.021
 2244TIP3   OH2 6674   2.583   3.976   1.710
 2244TIP3    H1 6675   2.628   3.895   1.732
 2244TIP3    H2 6676   2.543   3.960   1.625
 2245TIP3   OH2 6677   1.699   6.617   5.760
 2245TIP3    H1 6678   1.761   6.574   5.818
 2245TIP3    H2 6679   1.720   6.582   5.673
 2246TIP3   OH2 6680   2.068   6.088   2.124
 2246TIP3    H1 6681   2.115   6.027   2.181
 2246TIP3    H2 6682   2.052   6.038   2.043
 2247TIP3   OH2 6683   4.376   5.366   1.203
 2247TIP3    H1 6684   4.377   5.298   1.271
 2247TIP3    H2 6685   4.283   5.388   1.194
 2248TIP3   OH2 6686   0.639   5.249   6.058
 2248TIP3    H1 6687   0.708   5.315   6.054
 2248TIP3    H2 6688   0.684   5.167   6.039
 2249TIP3   OH2 6689   4.110   1.341   4.932
 2249TIP3    H1 6690   4.025   1.385   4.933
 2249TIP3    H2 6691   4.167   1.398   4.881
 2250TIP3   OH2 6692   0.835   3.597   6.109
 2250TIP3    H1 6693   0.920   3.640   6.123
 2250TIP3    H2 6694   0.838   3.520   6.166
 2251TIP3   OH2 6695   4.934   4.607   4.842
 2251TIP3    H1 6696   4.981   4.612   4.759
 2251TIP3    H2 6697   4.988   4.657   4.903
 2252TIP3   OH2 6698   3.815   4.134   6.213
 2252TIP3    H1 6699   3.760   4.200   6.171
 2252TIP3    H2 6700   3.852   4.178   6.289
 2253TIP3   OH2 6701   2.778   3.317   5.377
 2253TIP3    H1 6702   2.685   3.321   5.356
 2253TIP3    H2 6703   2.819   3.275   5.301
 2254TIP3   OH2 6704   7.788   0.393   0.170
 2254TIP3    H1 6705   7.713   0.358   0.219
 2254TIP3    H2 6706   7.752   0.416   0.084
 2255TIP3   OH2 6707   5.715   4.304   4.811
 2255TIP3    H1 6708   5.648   4.266   4.755
 2255TIP3    H2 6709   5.780   4.234   4.822
 2256TIP3   OH2 6710   2.286   3.537   6.329
 2256TIP3    H1 6711   2.206   3.550   6.381
 2256TIP3    H2 6712   2.344   3.488   6.386
 2257TIP3   OH2 6713   6.187   1.270   2.891
 2257TIP3    H1 6714   6.185   1.214   2.813
 2257TIP3    H2 6715   6.279   1.299   2.897
 2258TIP3   OH2 6716   4.989   7.242   1.188
 2258TIP3    H1 6717   4.927   7.170   1.173
 2258TIP3    H2 6718   4.969   7.273   1.277
 2259TIP3   OH2 6719   7.974   2.146   5.361
 2259TIP3    H1 6720   7.880   2.134   5.376
 2259TIP3    H2 6721   7.991   2.101   5.278
 2260TIP3   OH2 6722   1.293   4.056   5.836
 2260TIP3    H1 6723   1.287   3.960   5.833
 2260TIP3    H2 6724   1.212   4.084   5.878
 2261TIP3   OH2 6725   6.958   7.047   0.006
 2261TIP3    H1 6726   7.015   7.122   0.022
 2261TIP3    H2 6727   6.953   7.002   0.090
 2262TIP3   OH2 6728   1.258   1.491   0.657
 2262TIP3    H1 6729   1.261   1.502   0.752
 2262TIP3    H2 6730   1.283   1.577   0.623
 2263TIP3   OH2 6731   3.007   4.613   0.340
 2263TIP3    H1 6732   2.926   4.657   0.314
 2263TIP3    H2 6733   3.001   4.526   0.301
 2264TIP3   OH2 6734   5.730   0.992   3.076
 2264TIP3    H1 6735   5.731   1.065   3.013
 2264TIP3    H2 6736   5.697   1.032   3.157
 2265TIP3   OH2 6737   4.370   4.794   0.560
 2265TIP3    H1 6738   4.315   4.761   0.631
 2265TIP3    H2 6739   4.443   4.837   0.604
 2266TIP3   OH2 6740   0.593   7.645   2.961
 2266TIP3    H1 6741   0.638   7.695   2.893
 2266TIP3    H2 6742   0.572   7.562   2.919
 2267TIP3   OH2 6743   2.703   0.737   5.567
 2267TIP3    H1 6744   2.669   0.798   5.633
 2267TIP3    H2 6745   2.782   0.779   5.535
 2268TIP3   OH2 6746   1.109   0.314   0.305
 2268TIP3    H1 6747   1.115   0.219   0.318
 2268TIP3    H2 6748   1.199   0.346   0.319
 2269TIP3   OH2 6749   5.670   1.784   1.809
 2269TIP3    H1 6750   5.627   1.834   1.739
 2269TIP3    H2 6751   5.612   1.708   1.822
 2270TIP3   OH2 6752   4.879   3.392   3.023
 2270TIP3    H1 6753   4.955   3.444   2.999
 2270TIP3    H2 6754   4.913   3.303   3.037
 2271TIP3   OH2 6755   6.450   3.778   5.278
 2271TIP3    H1 6756   6.405   3.697   5.301
 2271TIP3    H2 6757   6.541   3.752   5.266
 2272TIP3   OH2 6758   2.077   0.660   1.315
 2272TIP3    H1 6759   2.069   0.749   1.349
 2272TIP3    H2 6760   2.170   0.649   1.299
 2273TIP3   OH2 6761   6.430   0.751   2.569
 2273TIP3    H1 6762   6.487   0.777   2.642
 2273TIP3    H2 6763   6.464   0.800   2.494
 2274TIP3   OH2 6764   3.169   0.797   4.076
 2274TIP3    H1 6765   3.248   0.820   4.027
 2274TIP3    H2 6766   3.166   0.701   4.073
 2275TIP3   OH2 6767   2.751   4.311   4.910
 2275TIP3    H1 6768   2.824   4.291   4.851
 2275TIP3    H2 6769   2.682   4.343   4.853
 2276TIP3   OH2 6770   3.021   0.416   2.258
 2276TIP3    H1 6771   2.968   0.375   2.189
 2276TIP3    H2 6772   3.050   0.343   2.313
 2277TIP3   OH2 6773   0.951   3.975   0.982
 2277TIP3    H1 6774   0.992   3.923   0.913
 2277TIP3    H2 6775   0.919   4.054   0.937
 2278TIP3   OH2 6776   4.279   3.946   0.872
 2278TIP3    H1 6777   4.268   3.882   0.801
 2278TIP3    H2 6778   4.193   3.987   0.880
 2279TIP3   OH2 6779   7.023   3.412   2.146
 2279TIP3    H1 6780   6.958   3.413   2.217
 2279TIP3    H2 6781   7.094   3.469   2.178
 2280TIP3   OH2 6782   2.630   0.353   0.802
 2280TIP3    H1 6783   2.714   0.317   0.830
 2280TIP3    H2 6784   2.645   0.382   0.712
 2281TIP3   OH2 6785   6.647   7.241   3.229
 2281TIP3    H1 6786   6.720   7.184   3.205
 2281TIP3    H2 6787   6.625   7.288   3.148
 2282TIP3   OH2 6788   4.777   3.654   3.074
 2282TIP3    H1 6789   4.775   3.562   3.047
 2282TIP3    H2 6790   4.730   3.655   3.157
 2283TIP3   OH2 6791   4.636   2.396   1.584
 2283TIP3    H1 6792   4.568   2.340   1.621
 2283TIP3    H2 6793   4.609   2.410   1.493
 2284TIP3   OH2 6794   3.180   1.116   5.247
 2284TIP3    H1 6795   3.096   1.071   5.246
 2284TIP3    H2 6796   3.213   1.107   5.158
 2285TIP3   OH2 6797   5.489   3.957   6.400
 2285TIP3    H1 6798   5.405   3.997   6.376
 2285TIP3    H2 6799   5.465   3.874   6.440
 2286TIP3   OH2 6800  -0.034   5.217   4.050
 2286TIP3    H1 6801   0.031   5.286   4.062
 2286TIP3    H2 6802   0.014   5.136   4.065
 2287TIP3   OH2 6803   4.288   7.751   1.507
 2287TIP3    H1 6804   4.349   7.822   1.527
 2287TIP3    H2 6805   4.342   7.672   1.507
 2288TIP3   OH2 6806   5.342   7.662   0.422
 2288TIP3    H1 6807   5.374   7.657   0.512
 2288TIP3    H2 6808   5.363   7.752   0.395
 2289TIP3   OH2 6809   3.476   3.492   6.519
 2289TIP3    H1 6810   3.561   3.535   6.507
 2289TIP3    H2 6811   3.414   3.565   6.524
 2290TIP3   OH2 6812   1.468   3.102   5.400
 2290TIP3    H1 6813   1.415   3.033   5.361
 2290TIP3    H2 6814   1.515   3.141   5.326
 2291TIP3   OH2 6815   6.599   3.854   0.334
 2291TIP3    H1 6816   6.666   3.919   0.314
 2291TIP3    H2 6817   6.591   3.857   0.430
 2292TIP3   OH2 6818   2.027   3.943   2.472
 2292TIP3    H1 6819   2.032   4.036   2.451
 2292TIP3    H2 6820   1.983   3.903   2.397
 2293TIP3   OH2 6821   2.986   0.097   4.015
 2293TIP3    H1 6822   2.965   0.107   3.922
 2293TIP3    H2 6823   2.995   0.003   4.028
 2294TIP3   OH2 6824   2.671   1.616   2.776
 2294TIP3    H1 6825   2.744   1.629   2.835
 2294TIP3    H2 6826   2.698   1.544   2.719
 2295TIP3   OH2 6827   0.344   4.670   3.571
 2295TIP3    H1 6828   0.306   4.677   3.659
 2295TIP3    H2 6829   0.427   4.623   3.585
 2296TIP3   OH2 6830   6.424   5.888   0.404
 2296TIP3    H1 6831   6.349   5.884   0.462
 2296TIP3    H2 6832   6.388   5.918   0.320
 2297TIP3   OH2 6833   1.243   0.341   6.116
 2297TIP3    H1 6834   1.309   0.297   6.170
 2297TIP3    H2 6835   1.230   0.282   6.042
 2298TIP3   OH2 6836   7.544   2.935   0.148
 2298TIP3    H1 6837   7.634   2.928   0.181
 2298TIP3    H2 6838   7.553   2.977   0.062
 2299TIP3   OH2 6839   4.444   4.614   2.028
 2299TIP3    H1 6840   4.530   4.646   2.056
 2299TIP3    H2 6841   4.413   4.680   1.966
 2300TIP3   OH2 6842   5.478   2.028   2.373
 2300TIP3    H1 6843   5.478   1.987   2.286
 2300TIP3    H2 6844   5.557   1.994   2.415
 2301TIP3   OH2 6845   0.179   5.195   0.499
 2301TIP3    H1 6846   0.139   5.128   0.555
 2301TIP3    H2 6847   0.201   5.266   0.559
 2302TIP3   OH2 6848   3.375   2.791   0.736
 2302TIP3    H1 6849   3.395   2.744   0.817
 2302TIP3    H2 6850   3.347   2.722   0.675
 2303TIP3   OH2 6851   2.854   2.664   3.666
 2303TIP3    H1 6852   2.803   2.586   3.690
 2303TIP3    H2 6853   2.922   2.630   3.608
 2304TIP3   OH2 6854   4.247   1.622   1.385
 2304TIP3    H1 6855   4.203   1.619   1.301
 2304TIP3    H2 6856   4.218   1.542   1.430
 2305TIP3   OH2 6857   6.720   2.457   1.327
 2305TIP3    H1 6858   6.666   2.388   1.366
 2305TIP3    H2 6859   6.700   2.452   1.234
 2306TIP3   OH2 6860   0.431   2.434   0.651
 2306TIP3    H1 6861   0.517   2.442   0.692
 2306TIP3    H2 6862   0.395   2.353   0.686
 2307TIP3   OH2 6863   5.996   6.067   4.990
 2307TIP3    H1 6864   5.913   6.104   4.959
 2307TIP3    H2 6865   6.062   6.124   4.951
 2308TIP3   OH2 6866   0.465   6.270   4.840
 2308TIP3    H1 6867   0.479   6.302   4.751
 2308TIP3    H2 6868   0.447   6.177   4.830
 2309TIP3   OH2 6869   7.761   3.854   2.661
 2309TIP3    H1 6870   7.779   3.788   2.727
 2309TIP3    H2 6871   7.677   3.828   2.623
 2310TIP3   OH2 6872   2.416   0.154   2.022
 2310TIP3    H1 6873   2.403   0.212   1.947
 2310TIP3    H2 6874   2.414   0.212   2.098
 2311TIP3   OH2 6875   3.753   0.738   0.258
 2311TIP3    H1 6876   3.728   0.713   0.169
 2311TIP3    H2 6877   3.848   0.747   0.255
 2312TIP3   OH2 6878   4.947   2.591   5.768
 2312TIP3    H1 6879   4.865   2.622   5.808
 2312TIP3    H2 6880   4.940   2.496   5.769
 2313TIP3   OH2 6881   3.099   3.454   0.602
 2313TIP3    H1 6882   3.165   3.394   0.636
 2313TIP3    H2 6883   3.016   3.423   0.639
 2314TIP3   OH2 6884   3.742   6.093   5.506
 2314TIP3    H1 6885   3.683   6.119   5.576
 2314TIP3    H2 6886   3.686   6.045   5.445
 2315TIP3   OH2 6887   7.721   1.594   5.537
 2315TIP3    H1 6888   7.770   1.642   5.470
 2315TIP3    H2 6889   7.640   1.645   5.548
 2316TIP3   OH2 6890   3.918   3.335   1.299
 2316TIP3    H1 6891   3.940   3.419   1.338
 2316TIP3    H2 6892   3.978   3.326   1.225
 2317TIP3   OH2 6893   6.411   3.729   4.801
 2317TIP3    H1 6894   6.328   3.727   4.849
 2317TIP3    H2 6895   6.424   3.639   4.771
 2318TIP3   OH2 6896   3.989   1.816   2.853
 2318TIP3    H1 6897   3.907   1.854   2.883
 2318TIP3    H2 6898   4.031   1.886   2.803
 2319TIP3   OH2 6899   5.530   5.396   4.748
 2319TIP3    H1 6900   5.622   5.370   4.744
 2319TIP3    H2 6901   5.483   5.316   4.772
 2320TIP3   OH2 6902   2.279   7.599   1.461
 2320TIP3    H1 6903   2.259   7.541   1.535
 2320TIP3    H2 6904   2.340   7.548   1.407
 2321TIP3   OH2 6905   6.504   2.385   6.723
 2321TIP3    H1 6906   6.444   2.343   6.785
 2321TIP3    H2 6907   6.477   2.352   6.637
 2322TIP3   OH2 6908   0.199   3.487   3.876
 2322TIP3    H1 6909   0.160   3.437   3.805
 2322TIP3    H2 6910   0.291   3.495   3.853
 2323TIP3   OH2 6911   3.646   5.598   3.229
 2323TIP3    H1 6912   3.552   5.608   3.216
 2323TIP3    H2 6913   3.658   5.604   3.324
 2324TIP3   OH2 6914   4.921   0.898   6.587
 2324TIP3    H1 6915   4.986   0.845   6.634
 2324TIP3    H2 6916   4.969   0.929   6.509
 2325TIP3   OH2 6917   1.130   1.077   6.488
 2325TIP3    H1 6918   1.044   1.111   6.512
 2325TIP3    H2 6919   1.118   1.040   6.400
 2326TIP3   OH2 6920   1.990   7.116   4.623
 2326TIP3    H1 6921   2.008   7.027   4.592
 2326TIP3    H2 6922   2.071   7.142   4.667
 2327TIP3   OH2 6923   7.617   4.816   2.812
 2327TIP3    H1 6924   7.696   4.795   2.862
 2327TIP3    H2 6925   7.626   4.766   2.731
 2328TIP3   OH2 6926   8.341   6.200   6.373
 2328TIP3    H1 6927   8.282   6.265   6.336
 2328TIP3    H2 6928   8.342   6.128   6.310
 2329TIP3   OH2 6929   0.712   2.740   0.524
 2329TIP3    H1 6930   0.660   2.681   0.470
 2329TIP3    H2 6931   0.791   2.690   0.546
 2330TIP3   OH2 6932   7.704   5.862   4.661
 2330TIP3    H1 6933   7.691   5.770   4.641
 2330TIP3    H2 6934   7.767   5.863   4.734
 2331TIP3   OH2 6935   0.845   1.058   0.546
 2331TIP3    H1 6936   0.886   1.070   0.632
 2331TIP3    H2 6937   0.779   0.990   0.561
 2332TIP3   OH2 6938   2.796   2.210   5.256
 2332TIP3    H1 6939   2.752   2.275   5.201
 2332TIP3    H2 6940   2.776   2.237   5.346
 2333TIP3   OH2 6941   3.350   4.752   1.079
 2333TIP3    H1 6942   3.377   4.686   1.016
 2333TIP3    H2 6943   3.403   4.733   1.157
 2334TIP3   OH2 6944   7.644   1.049   6.604
 2334TIP3    H1 6945   7.574   0.984   6.610
 2334TIP3    H2 6946   7.674   1.060   6.695
 2335TIP3   OH2 6947   2.788   5.391   1.964
 2335TIP3    H1 6948   2.730   5.363   1.893
 2335TIP3    H2 6949   2.871   5.410   1.921
 2336TIP3   OH2 6950   0.052   1.797   2.600
 2336TIP3    H1 6951   0.146   1.809   2.585
 2336TIP3    H2 6952   0.014   1.798   2.512
 2337TIP3   OH2 6953   6.266   6.516   3.662
 2337TIP3    H1 6954   6.172   6.533   3.657
 2337TIP3    H2 6955   6.286   6.517   3.755
 2338TIP3   OH2 6956   4.180   0.023   5.986
 2338TIP3    H1 6957   4.199   0.085   6.056
 2338TIP3    H2 6958   4.098  -0.018   6.012
 2339TIP3   OH2 6959   3.471   6.337   2.157
 2339TIP3    H1 6960   3.524   6.278   2.211
 2339TIP3    H2 6961   3.391   6.350   2.208
 2340TIP3   OH2 6962   0.523   1.891   5.562
 2340TIP3    H1 6963   0.548   1.831   5.491
 2340TIP3    H2 6964   0.520   1.836   5.640
 2341TIP3   OH2 6965   7.257   7.729   4.408
 2341TIP3    H1 6966   7.179   7.745   4.460
 2341TIP3    H2 6967   7.330   7.742   4.469
 2342TIP3   OH2 6968   3.392   0.328   5.501
 2342TIP3    H1 6969   3.410   0.382   5.424
 2342TIP3    H2 6970   3.335   0.258   5.468
 2343TIP3   OH2 6971   0.399   1.668   4.983
 2343TIP3    H1 6972   0.306   1.645   4.976
 2343TIP3    H2 6973   0.404   1.722   5.062
 2344TIP3   OH2 6974   8.173   5.930   0.154
 2344TIP3    H1 6975   8.182   5.999   0.219
 2344TIP3    H2 6976   8.158   5.851   0.205
 2345TIP3   OH2 6977   2.479   0.625   1.847
 2345TIP3    H1 6978   2.388   0.595   1.839
 2345TIP3    H2 6979   2.532   0.552   1.816
 2346TIP3   OH2 6980   7.585   3.657   3.177
 2346TIP3    H1 6981   7.624   3.587   3.125
 2346TIP3    H2 6982   7.574   3.729   3.115
 2347TIP3   OH2 6983   5.419   4.262   5.945
 2347TIP3    H1 6984   5.343   4.213   5.977
 2347TIP3    H2 6985   5.492   4.201   5.951
 2348TIP3   OH2 6986   4.875   6.028   2.983
 2348TIP3    H1 6987   4.847   6.001   3.071
 2348TIP3    H2 6988   4.956   6.076   2.998
 2349TIP3   OH2 6989   8.152   3.364   1.759
 2349TIP3    H1 6990   8.141   3.458   1.741
 2349TIP3    H2 6991   8.107   3.320   1.687
 2350TIP3   OH2 6992   6.140   0.994   5.254
 2350TIP3    H1 6993   6.146   1.083   5.291
 2350TIP3    H2 6994   6.103   1.007   5.167
 2351TIP3   OH2 6995   1.948   5.116   4.214
 2351TIP3    H1 6996   1.945   5.025   4.242
 2351TIP3    H2 6997   1.998   5.114   4.133
 2352TIP3   OH2 6998   0.581   4.732   0.390
 2352TIP3    H1 6999   0.573   4.714   0.296
 2352TIP3    H2 7000   0.531   4.662   0.432
 2353TIP3   OH2 7001   6.129   3.448   3.013
 2353TIP3    H1 7002   6.196   3.506   3.049
 2353TIP3    H2 7003   6.177   3.394   2.949
 2354TIP3   OH2 7004   2.456   1.426   4.575
 2354TIP3    H1 7005   2.382   1.381   4.616
 2354TIP3    H2 7006   2.505   1.356   4.531
 2355TIP3   OH2 7007   2.969   5.728   1.214
 2355TIP3    H1 7008   2.903   5.670   1.252
 2355TIP3    H2 7009   2.920   5.798   1.172
 2356TIP3   OH2 7010   4.738   5.547   0.090
 2356TIP3    H1 7011   4.734   5.463   0.136
 2356TIP3    H2 7012   4.822   5.547   0.046
 2357TIP3   OH2 7013   1.934   4.927   6.297
 2357TIP3    H1 7014   1.998   4.857   6.286
 2357TIP3    H2 7015   1.872   4.915   6.225
 2358TIP3   OH2 7016   1.338   6.388   1.969
 2358TIP3    H1 7017   1.391   6.454   2.013
 2358TIP3    H2 7018   1.361   6.397   1.876
 2359TIP3   OH2 7019   5.827   5.917   4.630
 2359TIP3    H1 7020   5.897   5.859   4.659
 2359TIP3    H2 7021   5.755   5.900   4.692
 2360TIP3   OH2 7022   0.072   3.606   0.333
 2360TIP3    H1 7023   0.152   3.656   0.317
 2360TIP3    H2 7024   0.066   3.599   0.428
 2361TIP3   OH2 7025   1.594   4.237   2.576
 2361TIP3    H1 7026   1.596   4.142   2.568
 2361TIP3    H2 7027   1.586   4.254   2.670
 2362TIP3   OH2 7028   3.307   7.656   6.766
 2362TIP3    H1 7029   3.239   7.639   6.702
 2362TIP3    H2 7030   3.320   7.572   6.810
 2363TIP3   OH2 7031   4.602   4.560   1.268
 2363TIP3    H1 7032   4.689   4.522   1.277
 2363TIP3    H2 7033   4.595   4.582   1.175
 2364TIP3   OH2 7034   2.570   2.242   2.093
 2364TIP3    H1 7035   2.542   2.189   2.168
 2364TIP3    H2 7036   2.601   2.323   2.132
 2365TIP3   OH2 7037   5.114   0.683   2.382
 2365TIP3    H1 7038   5.198   0.646   2.352
 2365TIP3    H2 7039   5.076   0.614   2.436
 2366TIP3   OH2 7040   2.354   4.790   6.396
 2366TIP3    H1 7041   2.333   4.834   6.478
 2366TIP3    H2 7042   2.449   4.804   6.385
 2367TIP3   OH2 7043   4.192   5.442   5.825
 2367TIP3    H1 7044   4.223   5.364   5.779
 2367TIP3    H2 7045   4.232   5.515   5.777
 2368TIP3   OH2 7046   1.158   0.030   1.679
 2368TIP3    H1 7047   1.164  -0.065   1.673
 2368TIP3    H2 7048   1.152   0.060   1.588
 2369TIP3   OH2 7049   8.116   4.177   3.504
 2369TIP3    H1 7050   8.130   4.158   3.411
 2369TIP3    H2 7051   8.099   4.092   3.544
 2370TIP3   OH2 7052   4.293   6.949   5.521
 2370TIP3    H1 7053   4.297   7.042   5.543
 2370TIP3    H2 7054   4.252   6.947   5.434
 2371TIP3   OH2 7055   5.376   3.592   3.840
 2371TIP3    H1 7056   5.414   3.507   3.863
 2371TIP3    H2 7057   5.421   3.654   3.897
 2372TIP3   OH2 7058   3.217   6.882   6.140
 2372TIP3    H1 7059   3.283   6.862   6.206
 2372TIP3    H2 7060   3.262   6.938   6.077
 2373TIP3   OH2 7061   5.754   3.307   5.165
 2373TIP3    H1 7062   5.795   3.229   5.129
 2373TIP3    H2 7063   5.661   3.296   5.146
 2374TIP3   OH2 7064   0.963   0.525   4.399
 2374TIP3    H1 7065   0.954   0.531   4.494
 2374TIP3    H2 7066   0.882   0.485   4.369
 2375TIP3   OH2 7067   4.869   3.093   0.837
 2375TIP3    H1 7068   4.792   3.114   0.890
 2375TIP3    H2 7069   4.860   3.000   0.818
 2376TIP3   OH2 7070   7.755   6.229   1.209
 2376TIP3    H1 7071   7.670   6.187   1.222
 2376TIP3    H2 7072   7.766   6.286   1.285
 2377TIP3   OH2 7073   8.247   5.263   6.449
 2377TIP3    H1 7074   8.246   5.177   6.491
 2377TIP3    H2 7075   8.233   5.325   6.521
 2378TIP3   OH2 7076   6.492   3.032   6.033
 2378TIP3    H1 7077   6.423   2.968   6.015
 2378TIP3    H2 7078   6.564   2.980   6.067
 2379TIP3   OH2 7079   1.690   2.354   0.762
 2379TIP3    H1 7080   1.643   2.404   0.829
 2379TIP3    H2 7081   1.621   2.312   0.711
 2380TIP3   OH2 7082   7.877   2.118   6.311
 2380TIP3    H1 7083   7.879   2.041   6.367
 2380TIP3    H2 7084   7.968   2.149   6.311
 2381TIP3   OH2 7085   5.626   6.434   1.979
 2381TIP3    H1 7086   5.687   6.381   1.928
 2381TIP3    H2 7087   5.628   6.520   1.937
 2382TIP3   OH2 7088   5.864   5.026   2.578
 2382TIP3    H1 7089   5.912   5.100   2.540
 2382TIP3    H2 7090   5.789   5.014   2.520
 2383TIP3   OH2 7091   5.908   7.086   4.714
 2383TIP3    H1 7092   5.984   7.052   4.762
 2383TIP3    H2 7093   5.836   7.027   4.737
 2384TIP3   OH2 7094   0.118   4.220   1.000
 2384TIP3    H1 7095   0.138   4.196   1.090
 2384TIP3    H2 7096   0.132   4.141   0.949
 2385TIP3   OH2 7097   5.767   6.660   1.602
 2385TIP3    H1 7098   5.808   6.574   1.590
 2385TIP3    H2 7099   5.690   6.658   1.545
 2386TIP3   OH2 7100   6.303   4.501   6.381
 2386TIP3    H1 7101   6.225   4.501   6.326
 2386TIP3    H2 7102   6.283   4.437   6.450
 2387TIP3   OH2 7103   7.023   0.393   3.405
 2387TIP3    H1 7104   7.005   0.451   3.332
 2387TIP3    H2 7105   7.050   0.451   3.476
 2388TIP3   OH2 7106   1.344   1.430   2.955
 2388TIP3    H1 7107   1.256   1.455   2.930
 2388TIP3    H2 7108   1.339   1.336   2.974
 2389TIP3   OH2 7109   4.731   3.923   1.596
 2389TIP3    H1 7110   4.786   3.993   1.632
 2389TIP3    H2 7111   4.794   3.857   1.565
 2390TIP3   OH2 7112   7.030   2.492   2.965
 2390TIP3    H1 7113   6.939   2.521   2.967
 2390TIP3    H2 7114   7.080   2.571   2.949
 2391TIP3   OH2 7115   0.856   3.377   0.316
 2391TIP3    H1 7116   0.881   3.422   0.236
 2391TIP3    H2 7117   0.877   3.285   0.300
 2392TIP3   OH2 7118   3.518   5.586   4.353
 2392TIP3    H1 7119   3.472   5.642   4.415
 2392TIP3    H2 7120   3.570   5.646   4.299
 2393TIP3   OH2 7121   0.946   0.733   6.072
 2393TIP3    H1 7122   0.974   0.657   6.123
 2393TIP3    H2 7123   0.851   0.726   6.069
 2394TIP3   OH2 7124   5.149   0.103   4.640
 2394TIP3    H1 7125   5.190   0.171   4.586
 2394TIP3    H2 7126   5.129   0.032   4.578
 2395TIP3   OH2 7127   1.955   4.255   3.263
 2395TIP3    H1 7128   1.968   4.251   3.168
 2395TIP3    H2 7129   1.921   4.343   3.279
 2396TIP3   OH2 7130   0.541   4.058   5.396
 2396TIP3    H1 7131   0.534   4.045   5.490
 2396TIP3    H2 7132   0.467   4.010   5.359
 2397TIP3   OH2 7133   5.066   4.139   0.134
 2397TIP3    H1 7134   5.093   4.099   0.051
 2397TIP3    H2 7135   5.047   4.230   0.112
 2398TIP3   OH2 7136   2.770   5.057   1.012
 2398TIP3    H1 7137   2.716   5.050   0.933
 2398TIP3    H2 7138   2.747   5.142   1.049
 2399TIP3   OH2 7139   5.233   7.714   0.729
 2399TIP3    H1 7140   5.165   7.678   0.673
 2399TIP3    H2 7141   5.249   7.646   0.795
 2400TIP3   OH2 7142   2.397   7.703   5.374
 2400TIP3    H1 7143   2.334   7.727   5.306
 2400TIP3    H2 7144   2.478   7.747   5.349
 2401TIP3   OH2 7145   5.905   6.650   3.290
 2401TIP3    H1 7146   5.974   6.641   3.225
 2401TIP3    H2 7147   5.942   6.708   3.357
 2402TIP3   OH2 7148   0.399   0.218   2.583
 2402TIP3    H1 7149   0.414   0.227   2.677
 2402TIP3    H2 7150   0.450   0.290   2.544
 2403TIP3   OH2 7151   3.421   7.089   3.828
 2403TIP3    H1 7152   3.382   7.016   3.875
 2403TIP3    H2 7153   3.360   7.161   3.841
 2404TIP3   OH2 7154   4.823   4.722   2.665
 2404TIP3    H1 7155   4.886   4.793   2.670
 2404TIP3    H2 7156   4.874   4.643   2.686
 2405TIP3   OH2 7157   5.373   2.021   5.113
 2405TIP3    H1 7158   5.297   1.983   5.156
 2405TIP3    H2 7159   5.341   2.047   5.027
 2406TIP3   OH2 7160   7.529   0.483   1.965
 2406TIP3    H1 7161   7.573   0.454   1.885
 2406TIP3    H2 7162   7.585   0.551   2.000
 2407TIP3   OH2 7163   7.408   3.922   5.645
 2407TIP3    H1 7164   7.478   3.979   5.677
 2407TIP3    H2 7165   7.454   3.857   5.592
 2408TIP3   OH2 7166   7.725   3.261   3.536
 2408TIP3    H1 7167   7.737   3.170   3.507
 2408TIP3    H2 7168   7.814   3.290   3.558
 2409TIP3   OH2 7169   6.897   2.248   5.659
 2409TIP3    H1 7170   6.961   2.305   5.702
 2409TIP3    H2 7171   6.822   2.248   5.717
 2410TIP3   OH2 7172   7.707   6.674   3.841
 2410TIP3    H1 7173   7.800   6.666   3.823
 2410TIP3    H2 7174   7.685   6.593   3.888
 2411TIP3   OH2 7175   0.464   3.492   4.710
 2411TIP3    H1 7176   0.390   3.450   4.668
 2411TIP3    H2 7177   0.513   3.533   4.639
 2412TIP3   OH2 7178   5.196   7.218   0.555
 2412TIP3    H1 7179   5.289   7.198   0.562
 2412TIP3    H2 7180   5.158   7.142   0.511
 2413TIP3   OH2 7181   2.656   3.226   2.911
 2413TIP3    H1 7182   2.750   3.233   2.929
 2413TIP3    H2 7183   2.623   3.166   2.977
 2414TIP3   OH2 7184   5.082   3.716   5.183
 2414TIP3    H1 7185   5.144   3.788   5.195
 2414TIP3    H2 7186   5.135   3.644   5.147
 2415TIP3   OH2 7187   6.204   0.271   6.610
 2415TIP3    H1 7188   6.185   0.230   6.694
 2415TIP3    H2 7189   6.225   0.198   6.551
 2416TIP3   OH2 7190   8.001   2.083   4.819
 2416TIP3    H1 7191   8.032   2.056   4.732
 2416TIP3    H2 7192   8.040   2.170   4.831
 2417TIP3   OH2 7193   4.715   1.120   0.103
 2417TIP3    H1 7194   4.766   1.165   0.036
 2417TIP3    H2 7195   4.624   1.133   0.076
 2418TIP3   OH2 7196   5.493   3.997   1.132
 2418TIP3    H1 7197   5.548   4.069   1.099
 2418TIP3    H2 7198   5.543   3.961   1.205
 2419TIP3   OH2 7199   0.200   5.231   2.322
 2419TIP3    H1 7200   0.180   5.141   2.295
 2419TIP3    H2 7201   0.269   5.221   2.388
 2420TIP3   OH2 7202   6.840   0.312   0.851
 2420TIP3    H1 7203   6.909   0.262   0.894
 2420TIP3    H2 7204   6.759   0.281   0.891
 2421TIP3   OH2 7205   5.144   0.011   1.431
 2421TIP3    H1 7206   5.070   0.072   1.430
 2421TIP3    H2 7207   5.104  -0.075   1.444
 2422TIP3   OH2 7208   4.442   6.671   2.492
 2422TIP3    H1 7209   4.401   6.630   2.416
 2422TIP3    H2 7210   4.518   6.717   2.457
 2423TIP3   OH2 7211   1.867   3.206   1.258
 2423TIP3    H1 7212   1.836   3.294   1.235
 2423TIP3    H2 7213   1.922   3.181   1.185
 2424TIP3   OH2 7214   1.928   5.131   1.385
 2424TIP3    H1 7215   1.962   5.072   1.452
 2424TIP3    H2 7216   2.000   5.140   1.322
 2425TIP3   OH2 7217   6.717   7.701   4.315
 2425TIP3    H1 7218   6.724   7.609   4.291
 2425TIP3    H2 7219   6.787   7.744   4.266
 2426TIP3   OH2 7220   3.421   0.221   1.107
 2426TIP3    H1 7221   3.400   0.142   1.057
 2426TIP3    H2 7222   3.479   0.271   1.050
 2427TIP3   OH2 7223   2.055   6.887   4.270
 2427TIP3    H1 7224   2.044   6.965   4.217
 2427TIP3    H2 7225   2.040   6.814   4.210
 2428TIP3   OH2 7226   7.713   7.048   4.193
 2428TIP3    H1 7227   7.659   7.031   4.116
 2428TIP3    H2 7228   7.765   6.968   4.204
 2429TIP3   OH2 7229   3.987   7.167   6.706
 2429TIP3    H1 7230   3.965   7.222   6.630
 2429TIP3    H2 7231   4.011   7.083   6.668
 2430TIP3   OH2 7232   5.668   0.706   3.362
 2430TIP3    H1 7233   5.664   0.800   3.383
 2430TIP3    H2 7234   5.758   0.693   3.331
 2431TIP3   OH2 7235   1.502   2.874   3.325
 2431TIP3    H1 7236   1.498   2.969   3.317
 2431TIP3    H2 7237   1.565   2.858   3.395
 2432TIP3   OH2 7238   1.752   0.148   3.030
 2432TIP3    H1 7239   1.719   0.224   2.983
 2432TIP3    H2 7240   1.781   0.182   3.115
 2433TIP3   OH2 7241   5.212   7.413   5.709
 2433TIP3    H1 7242   5.137   7.365   5.744
 2433TIP3    H2 7243   5.277   7.410   5.779
 2434TIP3   OH2 7244   3.896   0.150   5.121
 2434TIP3    H1 7245   3.857   0.124   5.038
 2434TIP3    H2 7246   3.893   0.245   5.120
 2435TIP3   OH2 7247   1.443   3.842   1.364
 2435TIP3    H1 7248   1.450   3.928   1.322
 2435TIP3    H2 7249   1.413   3.861   1.453
 2436TIP3   OH2 7250   5.142   6.119   3.053
 2436TIP3    H1 7251   5.168   6.203   3.090
 2436TIP3    H2 7252   5.173   6.054   3.116
 2437TIP3   OH2 7253   8.289   4.851   5.165
 2437TIP3    H1 7254   8.328   4.922   5.114
 2437TIP3    H2 7255   8.258   4.788   5.099
 2438TIP3   OH2 7256   7.787   0.175   5.256
 2438TIP3    H1 7257   7.873   0.133   5.257
 2438TIP3    H2 7258   7.796   0.244   5.190
 2439TIP3   OH2 7259   7.695   7.351   0.109
 2439TIP3    H1 7260   7.730   7.364   0.021
 2439TIP3    H2 7261   7.771   7.344   0.166
 2440TIP3   OH2 7262   5.291   1.634   6.445
 2440TIP3    H1 7263   5.204   1.663   6.471
 2440TIP3    H2 7264   5.288   1.539   6.454
 2441TIP3   OH2 7265   3.438   3.312   2.769
 2441TIP3    H1 7266   3.511   3.317   2.831
 2441TIP3    H2 7267   3.400   3.400   2.771
 2442TIP3   OH2 7268   4.879   3.279   2.545
 2442TIP3    H1 7269   4.856   3.289   2.453
 2442TIP3    H2 7270   4.820   3.211   2.577
 2443TIP3   OH2 7271   3.344   7.139   1.516
 2443TIP3    H1 7272   3.431   7.111   1.488
 2443TIP3    H2 7273   3.284   7.083   1.468
 2444TIP3   OH2 7274   2.967   6.801   6.208
 2444TIP3    H1 7275   3.054   6.835   6.186
 2444TIP3    H2 7276   2.910   6.833   6.137
 2445TIP3   OH2 7277   4.524   7.771   4.006
 2445TIP3    H1 7278   4.448   7.713   3.997
 2445TIP3    H2 7279   4.486   7.856   4.027
 2446TIP3   OH2 7280   2.268   4.974   1.760
 2446TIP3    H1 7281   2.343   4.973   1.819
 2446TIP3    H2 7282   2.203   4.918   1.801
 2447TIP3   OH2 7283   1.963   6.192   0.502
 2447TIP3    H1 7284   1.897   6.124   0.491
 2447TIP3    H2 7285   2.025   6.155   0.565
 2448TIP3   OH2 7286   5.815   6.689   1.195
 2448TIP3    H1 7287   5.795   6.778   1.224
 2448TIP3    H2 7288   5.768   6.681   1.112
 2449TIP3   OH2 7289   1.297   6.685   1.117
 2449TIP3    H1 7290   1.284   6.779   1.134
 2449TIP3    H2 7291   1.334   6.682   1.029
 2450TIP3   OH2 7292   3.555   5.846   4.785
 2450TIP3    H1 7293   3.464   5.818   4.772
 2450TIP3    H2 7294   3.596   5.771   4.828
 2451TIP3   OH2 7295   1.191   2.274   3.027
 2451TIP3    H1 7296   1.252   2.312   2.963
 2451TIP3    H2 7297   1.161   2.193   2.985
 2452TIP3   OH2 7298   0.201   5.723   1.766
 2452TIP3    H1 7299   0.172   5.650   1.711
 2452TIP3    H2 7300   0.124   5.779   1.774
 2453TIP3   OH2 7301   3.529   2.626   2.730
 2453TIP3    H1 7302   3.450   2.631   2.676
 2453TIP3    H2 7303   3.573   2.546   2.700
 2454TIP3   OH2 7304   0.286   2.437   5.340
 2454TIP3    H1 7305   0.318   2.429   5.430
 2454TIP3    H2 7306   0.279   2.532   5.326
 2455TIP3   OH2 7307   6.885   2.981   5.335
 2455TIP3    H1 7308   6.914   2.984   5.244
 2455TIP3    H2 7309   6.851   2.893   5.346
 2456TIP3   OH2 7310   7.934   7.126   6.328
 2456TIP3    H1 7311   7.895   7.183   6.261
 2456TIP3    H2 7312   7.940   7.181   6.406
 2457TIP3   OH2 7313   3.409   7.148   5.384
 2457TIP3    H1 7314   3.424   7.190   5.469
 2457TIP3    H2 7315   3.314   7.137   5.379
 2458TIP3   OH2 7316   3.562   0.528   2.914
 2458TIP3    H1 7317   3.630   0.500   2.975
 2458TIP3    H2 7318   3.497   0.571   2.969
 2459TIP3   OH2 7319   4.826   0.360   5.759
 2459TIP3    H1 7320   4.865   0.341   5.674
 2459TIP3    H2 7321   4.736   0.386   5.739
 2460TIP3   OH2 7322   1.036   7.052   3.368
 2460TIP3    H1 7323   1.020   7.098   3.450
 2460TIP3    H2 7324   0.951   7.050   3.325
 2461TIP3   OH2 7325   3.652   0.706   5.105
 2461TIP3    H1 7326   3.634   0.642   5.037
 2461TIP3    H2 7327   3.566   0.733   5.137
 2462TIP3   OH2 7328   1.326   3.116   4.484
 2462TIP3    H1 7329   1.263   3.146   4.419
 2462TIP3    H2 7330   1.329   3.186   4.549
 2463TIP3   OH2 7331   7.493   3.884   1.251
 2463TIP3    H1 7332   7.572   3.846   1.290
 2463TIP3    H2 7333   7.457   3.941   1.319
 2464TIP3   OH2 7334   1.528   3.976   2.894
 2464TIP3    H1 7335   1.563   3.992   2.981
 2464TIP3    H2 7336   1.476   3.896   2.904
 2465TIP3   OH2 7337   1.432   4.743   0.818
 2465TIP3    H1 7338   1.514   4.778   0.785
 2465TIP3    H2 7339   1.436   4.649   0.799
 2466TIP3   OH2 7340   2.092   2.018   4.840
 2466TIP3    H1 7341   2.089   1.969   4.758
 2466TIP3    H2 7342   2.001   2.021   4.869
 2467TIP3   OH2 7343   6.099   0.176   4.523
 2467TIP3    H1 7344   6.123   0.096   4.569
 2467TIP3    H2 7345   6.171   0.190   4.461
 2468TIP3   OH2 7346   7.631   6.211   3.966
 2468TIP3    H1 7347   7.619   6.302   3.995
 2468TIP3    H2 7348   7.721   6.208   3.934
 2469TIP3   OH2 7349   1.577   3.443   4.025
 2469TIP3    H1 7350   1.532   3.359   4.033
 2469TIP3    H2 7351   1.610   3.461   4.114
 2470TIP3   OH2 7352   4.230   0.914   6.762
 2470TIP3    H1 7353   4.316   0.924   6.722
 2470TIP3    H2 7354   4.233   0.830   6.807
 2471TIP3   OH2 7355   5.101   0.032   6.623
 2471TIP3    H1 7356   5.042   0.098   6.587
 2471TIP3    H2 7357   5.064   0.010   6.708
 2472TIP3   OH2 7358   1.002   2.238   1.651
 2472TIP3    H1 7359   0.954   2.178   1.708
 2472TIP3    H2 7360   0.995   2.323   1.695
 2473TIP3   OH2 7361   5.178   4.504   4.078
 2473TIP3    H1 7362   5.269   4.474   4.065
 2473TIP3    H2 7363   5.128   4.455   4.013
 2474TIP3   OH2 7364   0.277   0.861   6.204
 2474TIP3    H1 7365   0.334   0.919   6.255
 2474TIP3    H2 7366   0.241   0.917   6.136
 2475TIP3   OH2 7367   6.734   3.054   2.467
 2475TIP3    H1 7368   6.757   3.012   2.385
 2475TIP3    H2 7369   6.723   2.982   2.530
 2476TIP3   OH2 7370   5.321   0.362   6.128
 2476TIP3    H1 7371   5.376   0.289   6.101
 2476TIP3    H2 7372   5.306   0.349   6.222
 2477TIP3   OH2 7373   5.126   0.359   2.245
 2477TIP3    H1 7374   5.120   0.364   2.341
 2477TIP3    H2 7375   5.219   0.344   2.228
 2478TIP3   OH2 7376   6.844   0.411   5.770
 2478TIP3    H1 7377   6.850   0.493   5.818
 2478TIP3    H2 7378   6.844   0.343   5.838
 2479TIP3   OH2 7379   2.425   4.721   4.939
 2479TIP3    H1 7380   2.348   4.766   4.973
 2479TIP3    H2 7381   2.495   4.743   5.000
 2480TIP3   OH2 7382   0.199   1.181   1.059
 2480TIP3    H1 7383   0.273   1.188   0.999
 2480TIP3    H2 7384   0.230   1.221   1.140
 2481TIP3   OH2 7385   6.664   2.510   5.518
 2481TIP3    H1 7386   6.589   2.451   5.507
 2481TIP3    H2 7387   6.630   2.583   5.570
 2482TIP3   OH2 7388   5.598   3.006   4.558
 2482TIP3    H1 7389   5.546   3.065   4.503
 2482TIP3    H2 7390   5.563   3.019   4.646
 2483TIP3   OH2 7391   4.811   0.157   2.031
 2483TIP3    H1 7392   4.892   0.190   1.990
 2483TIP3    H2 7393   4.818   0.062   2.024
 2484TIP3   OH2 7394   5.829   3.179   6.755
 2484TIP3    H1 7395   5.872   3.240   6.695
 2484TIP3    H2 7396   5.842   3.093   6.715
 2485TIP3   OH2 7397   1.298   1.352   0.206
 2485TIP3    H1 7398   1.271   1.265   0.175
 2485TIP3    H2 7399   1.380   1.335   0.253
 2486TIP3   OH2 7400   3.284   4.460   3.982
 2486TIP3    H1 7401   3.343   4.501   4.045
 2486TIP3    H2 7402   3.301   4.366   3.991
 2487TIP3   OH2 7403   5.534   2.170   0.646
 2487TIP3    H1 7404   5.451   2.211   0.674
 2487TIP3    H2 7405   5.588   2.171   0.725
 2488TIP3   OH2 7406   0.922   3.412   5.673
 2488TIP3    H1 7407   0.894   3.397   5.583
 2488TIP3    H2 7408   0.844   3.449   5.716
 2489TIP3   OH2 7409   5.117   1.183   6.170
 2489TIP3    H1 7410   5.179   1.234   6.118
 2489TIP3    H2 7411   5.042   1.170   6.111
 2490TIP3   OH2 7412   1.967   1.607   0.424
 2490TIP3    H1 7413   1.969   1.670   0.352
 2490TIP3    H2 7414   1.927   1.529   0.387
 2491TIP3   OH2 7415   2.749   2.905   1.046
 2491TIP3    H1 7416   2.654   2.898   1.044
 2491TIP3    H2 7417   2.773   2.943   0.962
 2492TIP3   OH2 7418   7.114   1.603   2.409
 2492TIP3    H1 7419   7.063   1.576   2.333
 2492TIP3    H2 7420   7.134   1.522   2.455
 2493TIP3   OH2 7421   3.080   7.270   4.144
 2493TIP3    H1 7422   3.114   7.358   4.156
 2493TIP3    H2 7423   3.123   7.238   4.065
 2494TIP3   OH2 7424   0.654   6.800   4.361
 2494TIP3    H1 7425   0.649   6.883   4.408
 2494TIP3    H2 7426   0.710   6.745   4.415
 2495TIP3   OH2 7427   6.700   5.235   3.077
 2495TIP3    H1 7428   6.759   5.187   3.136
 2495TIP3    H2 7429   6.689   5.178   3.001
 2496TIP3   OH2 7430   5.073   6.368   3.671
 2496TIP3    H1 7431   5.051   6.299   3.733
 2496TIP3    H2 7432   5.127   6.429   3.721
 2497TIP3   OH2 7433   6.706   2.950   5.640
 2497TIP3    H1 7434   6.701   3.004   5.561
 2497TIP3    H2 7435   6.690   3.011   5.712
 2498TIP3   OH2 7436   0.175   1.487   0.702
 2498TIP3    H1 7437   0.240   1.479   0.632
 2498TIP3    H2 7438   0.227   1.509   0.780
 2499TIP3   OH2 7439   6.236   7.371   0.415
 2499TIP3    H1 7440   6.290   7.346   0.340
 2499TIP3    H2 7441   6.260   7.462   0.432
 2500TIP3   OH2 7442   5.706   7.162   0.653
 2500TIP3    H1 7443   5.694   7.122   0.739
 2500TIP3    H2 7444   5.740   7.249   0.671
 2501TIP3   OH2 7445   4.828   1.117   0.374
 2501TIP3    H1 7446   4.764   1.186   0.392
 2501TIP3    H2 7447   4.830   1.110   0.279
 2502TIP3   OH2 7448   6.055   4.623   3.883
 2502TIP3    H1 7449   6.002   4.615   3.962
 2502TIP3    H2 7450   6.107   4.543   3.880
 2503TIP3   OH2 7451   4.901   3.269   6.399
 2503TIP3    H1 7452   4.805   3.272   6.396
 2503TIP3    H2 7453   4.922   3.176   6.389
 2504TIP3   OH2 7454   0.416   7.622   0.660
 2504TIP3    H1 7455   0.356   7.658   0.725
 2504TIP3    H2 7456   0.465   7.554   0.707
 2505TIP3   OH2 7457   3.233   3.912   3.804
 2505TIP3    H1 7458   3.160   3.873   3.755
 2505TIP3    H2 7459   3.215   3.888   3.895
 2506TIP3   OH2 7460   3.820   3.523   3.406
 2506TIP3    H1 7461   3.732   3.533   3.370
 2506TIP3    H2 7462   3.843   3.432   3.389
 2507TIP3   OH2 7463   7.616   2.798   5.408
 2507TIP3    H1 7464   7.575   2.718   5.443
 2507TIP3    H2 7465   7.548   2.865   5.416
 2508TIP3   OH2 7466   7.962   7.534   0.444
 2508TIP3    H1 7467   8.047   7.557   0.483
 2508TIP3    H2 7468   7.919   7.481   0.511
 2509TIP3   OH2 7469   8.122   2.982   5.314
 2509TIP3    H1 7470   8.093   3.038   5.387
 2509TIP3    H2 7471   8.046   2.929   5.293
 2510TIP3   OH2 7472   0.173   0.906   0.671
 2510TIP3    H1 7473   0.087   0.881   0.704
 2510TIP3    H2 7474   0.199   0.834   0.614
 2511TIP3   OH2 7475   5.532   1.870   3.133
 2511TIP3    H1 7476   5.469   1.798   3.121
 2511TIP3    H2 7477   5.484   1.936   3.183
 2512TIP3   OH2 7478   6.698   5.451   3.443
 2512TIP3    H1 7479   6.759   5.473   3.514
 2512TIP3    H2 7480   6.643   5.529   3.435
 2513TIP3   OH2 7481   0.546   4.397   1.896
 2513TIP3    H1 7482   0.586   4.464   1.840
 2513TIP3    H2 7483   0.581   4.415   1.983
 2514TIP3   OH2 7484   5.127   3.712   3.502
 2514TIP3    H1 7485   5.119   3.802   3.473
 2514TIP3    H2 7486   5.077   3.661   3.439
 2515TIP3   OH2 7487   0.513   2.971   4.375
 2515TIP3    H1 7488   0.562   2.910   4.319
 2515TIP3    H2 7489   0.579   3.035   4.404
 2516TIP3   OH2 7490   2.877   1.054   0.199
 2516TIP3    H1 7491   2.812   1.087   0.138
 2516TIP3    H2 7492   2.941   1.008   0.145
 2517TIP3   OH2 7493   1.913   6.504   6.642
 2517TIP3    H1 7494   1.849   6.443   6.607
 2517TIP3    H2 7495   1.910   6.492   6.737
 2518TIP3   OH2 7496   5.447   3.428   6.387
 2518TIP3    H1 7497   5.480   3.340   6.370
 2518TIP3    H2 7498   5.374   3.415   6.447
 2519TIP3   OH2 7499   7.111   3.814   2.200
 2519TIP3    H1 7500   7.164   3.856   2.133
 2519TIP3    H2 7501   7.166   3.742   2.232
 2520TIP3   OH2 7502   7.751   3.806   2.279
 2520TIP3    H1 7503   7.657   3.826   2.276
 2520TIP3    H2 7504   7.787   3.874   2.336
 2521TIP3   OH2 7505   4.444   5.489   6.586
 2521TIP3    H1 7506   4.379   5.474   6.654
 2521TIP3    H2 7507   4.441   5.583   6.569
 2522TIP3   OH2 7508   2.760   5.713   4.441
 2522TIP3    H1 7509   2.666   5.729   4.451
 2522TIP3    H2 7510   2.797   5.735   4.527
 2523TIP3   OH2 7511   1.914   5.378   6.429
 2523TIP3    H1 7512   1.950   5.307   6.375
 2523TIP3    H2 7513   1.988   5.407   6.482
 2524TIP3   OH2 7514   6.263   0.021   1.106
 2524TIP3    H1 7515   6.280   0.111   1.077
 2524TIP3    H2 7516   6.292  -0.034   1.032
 2525TIP3   OH2 7517   2.591   3.880   5.831
 2525TIP3    H1 7518   2.503   3.880   5.869
 2525TIP3    H2 7519   2.620   3.789   5.839
 2526TIP3   OH2 7520   3.279   1.710   2.138
 2526TIP3    H1 7521   3.335   1.650   2.088
 2526TIP3    H2 7522   3.190   1.682   2.116
 2527TIP3   OH2 7523   8.022   7.816   3.587
 2527TIP3    H1 7524   7.990   7.752   3.651
 2527TIP3    H2 7525   8.076   7.876   3.639
 2528TIP3   OH2 7526   7.674   3.518   4.771
 2528TIP3    H1 7527   7.657   3.499   4.863
 2528TIP3    H2 7528   7.758   3.562   4.770
 2529TIP3   OH2 7529   7.279   2.796   1.858
 2529TIP3    H1 7530   7.250   2.705   1.864
 2529TIP3    H2 7531   7.356   2.792   1.801
 2530TIP3   OH2 7532   4.367   0.678   3.188
 2530TIP3    H1 7533   4.314   0.650   3.114
 2530TIP3    H2 7534   4.333   0.764   3.212
 2531TIP3   OH2 7535   7.257   7.521   2.509
 2531TIP3    H1 7536   7.213   7.561   2.584
 2531TIP3    H2 7537   7.287   7.436   2.542
 2532TIP3   OH2 7538   0.842   2.781   3.108
 2532TIP3    H1 7539   0.874   2.793   3.198
 2532TIP3    H2 7540   0.922   2.775   3.056
 2533TIP3   OH2 7541   6.759   5.528   6.397
 2533TIP3    H1 7542   6.716   5.613   6.405
 2533TIP3    H2 7543   6.738   5.499   6.308
 2534TIP3   OH2 7544   5.098   3.820   1.905
 2534TIP3    H1 7545   5.089   3.737   1.952
 2534TIP3    H2 7546   5.031   3.876   1.942
 2535TIP3   OH2 7547   6.816   0.805   0.154
 2535TIP3    H1 7548   6.764   0.783   0.231
 2535TIP3    H2 7549   6.890   0.745   0.157
 2536TIP3   OH2 7550   4.301   1.857   5.231
 2536TIP3    H1 7551   4.379   1.907   5.256
 2536TIP3    H2 7552   4.305   1.778   5.285
 2537TIP3   OH2 7553   7.436   6.515   0.194
 2537TIP3    H1 7554   7.466   6.580   0.130
 2537TIP3    H2 7555   7.374   6.562   0.250
 2538TIP3   OH2 7556   2.458   4.387   6.671
 2538TIP3    H1 7557   2.527   4.443   6.635
 2538TIP3    H2 7558   2.377   4.430   6.646
 2539TIP3   OH2 7559   7.502   5.697   3.425
 2539TIP3    H1 7560   7.463   5.617   3.390
 2539TIP3    H2 7561   7.516   5.679   3.518
 2540TIP3   OH2 7562   6.955   6.894   0.258
 2540TIP3    H1 7563   7.021   6.848   0.206
 2540TIP3    H2 7564   7.006   6.955   0.312
 2541TIP3   OH2 7565   6.030   2.882   0.997
 2541TIP3    H1 7566   6.008   2.967   0.961
 2541TIP3    H2 7567   5.945   2.841   1.017
 2542TIP3   OH2 7568   6.493   7.280   1.958
 2542TIP3    H1 7569   6.439   7.330   1.897
 2542TIP3    H2 7570   6.583   7.293   1.926
 2543TIP3   OH2 7571   6.479   1.806   1.146
 2543TIP3    H1 7572   6.542   1.734   1.141
 2543TIP3    H2 7573   6.530   1.885   1.126
 2544TIP3   OH2 7574   6.787   2.972   0.888
 2544TIP3    H1 7575   6.702   2.950   0.850
 2544TIP3    H2 7576   6.828   2.887   0.905
 2545TIP3   OH2 7577   4.832   6.696   5.532
 2545TIP3    H1 7578   4.756   6.695   5.475
 2545TIP3    H2 7579   4.876   6.612   5.516
 2546TIP3   OH2 7580   4.614   5.930   4.955
 2546TIP3    H1 7581   4.580   5.866   4.892
 2546TIP3    H2 7582   4.697   5.893   4.984
 2547TIP3   OH2 7583   0.292   3.625   2.847
 2547TIP3    H1 7584   0.290   3.572   2.767
 2547TIP3    H2 7585   0.322   3.564   2.915
 2548TIP3   OH2 7586   7.686   5.723   3.889
 2548TIP3    H1 7587   7.740   5.790   3.931
 2548TIP3    H2 7588   7.658   5.666   3.961
 2549TIP3   OH2 7589   5.941   6.938   5.095
 2549TIP3    H1 7590   5.994   6.904   5.167
 2549TIP3    H2 7591   5.887   7.006   5.135
 2550TIP3   OH2 7592   0.075   4.507   2.440
 2550TIP3    H1 7593   0.041   4.437   2.496
 2550TIP3    H2 7594   0.064   4.587   2.492
 2551TIP3   OH2 7595   0.208   2.993   1.426
 2551TIP3    H1 7596   0.120   3.011   1.459
 2551TIP3    H2 7597   0.230   3.070   1.373
 2552TIP3   OH2 7598   6.408   3.252   1.824
 2552TIP3    H1 7599   6.339   3.196   1.859
 2552TIP3    H2 7600   6.475   3.192   1.792
 2553TIP3   OH2 7601   8.171   0.436   5.911
 2553TIP3    H1 7602   8.146   0.505   5.972
 2553TIP3    H2 7603   8.095   0.425   5.854
 2554TIP3   OH2 7604   2.101   2.703   3.085
 2554TIP3    H1 7605   2.095   2.689   2.991
 2554TIP3    H2 7606   2.178   2.759   3.096
 2555TIP3   OH2 7607   5.314   5.810   2.772
 2555TIP3    H1 7608   5.221   5.801   2.753
 2555TIP3    H2 7609   5.340   5.891   2.728
 2556TIP3   OH2 7610   1.109   6.487   3.505
 2556TIP3    H1 7611   1.187   6.468   3.557
 2556TIP3    H2 7612   1.131   6.568   3.458
 2557TIP3   OH2 7613   7.203   7.603   5.849
 2557TIP3    H1 7614   7.167   7.519   5.822
 2557TIP3    H2 7615   7.148   7.630   5.923
 2558TIP3   OH2 7616   1.262   1.326   1.868
 2558TIP3    H1 7617   1.308   1.242   1.871
 2558TIP3    H2 7618   1.250   1.351   1.959
 2559TIP3   OH2 7619   4.858   3.057   3.086
 2559TIP3    H1 7620   4.799   3.052   3.010
 2559TIP3    H2 7621   4.944   3.032   3.051
 2560TIP3   OH2 7622   3.639   1.517   4.008
 2560TIP3    H1 7623   3.577   1.513   3.935
 2560TIP3    H2 7624   3.628   1.435   4.054
 2561TIP3   OH2 7625   6.635   2.499   2.604
 2561TIP3    H1 7626   6.698   2.518   2.534
 2561TIP3    H2 7627   6.575   2.436   2.564
 2562TIP3   OH2 7628   7.817   3.887   2.025
 2562TIP3    H1 7629   7.797   3.846   2.109
 2562TIP3    H2 7630   7.851   3.974   2.048
 2563TIP3   OH2 7631   4.998   5.097   4.850
 2563TIP3    H1 7632   4.944   5.027   4.813
 2563TIP3    H2 7633   5.088   5.070   4.831
 2564TIP3   OH2 7634   7.124   5.494   3.277
 2564TIP3    H1 7635   7.094   5.573   3.232
 2564TIP3    H2 7636   7.060   5.480   3.347
 2565TIP3   OH2 7637   7.910   2.292   3.299
 2565TIP3    H1 7638   7.990   2.239   3.300
 2565TIP3    H2 7639   7.911   2.339   3.382
 2566TIP3   OH2 7640   0.763   4.404   1.074
 2566TIP3    H1 7641   0.698   4.414   1.005
 2566TIP3    H2 7642   0.714   4.413   1.156
 2567TIP3   OH2 7643   3.506   2.153   5.701
 2567TIP3    H1 7644   3.432   2.197   5.742
 2567TIP3    H2 7645   3.559   2.122   5.774
 2568TIP3   OH2 7646   2.138   4.955   3.680
 2568TIP3    H1 7647   2.054   4.986   3.713
 2568TIP3    H2 7648   2.150   4.869   3.721
 2569TIP3   OH2 7649   6.858   5.638   3.892
 2569TIP3    H1 7650   6.783   5.690   3.866
 2569TIP3    H2 7651   6.861   5.645   3.987
 2570TIP3   OH2 7652   5.186   6.226   0.813
 2570TIP3    H1 7653   5.096   6.199   0.794
 2570TIP3    H2 7654   5.180   6.270   0.898
 2571TIP3   OH2 7655   6.889   5.442   5.960
 2571TIP3    H1 7656   6.881   5.477   5.871
 2571TIP3    H2 7657   6.980   5.412   5.966
 2572TIP3   OH2 7658   1.699   1.930   4.609
 2572TIP3    H1 7659   1.678   2.023   4.605
 2572TIP3    H2 7660   1.677   1.904   4.698
 2573TIP3   OH2 7661   6.159   0.481   1.134
 2573TIP3    H1 7662   6.108   0.494   1.054
 2573TIP3    H2 7663   6.109   0.527   1.201
 2574TIP3   OH2 7664   6.156   2.324   1.413
 2574TIP3    H1 7665   6.222   2.378   1.456
 2574TIP3    H2 7666   6.144   2.365   1.327
 2575TIP3   OH2 7667   5.801   2.550   6.626
 2575TIP3    H1 7668   5.764   2.462   6.636
 2575TIP3    H2 7669   5.884   2.546   6.674
 2576TIP3   OH2 7670   1.588   6.049   1.493
 2576TIP3    H1 7671   1.631   5.982   1.440
 2576TIP3    H2 7672   1.508   6.069   1.445
 2577TIP3   OH2 7673   6.550   2.715   5.673
 2577TIP3    H1 7674   6.474   2.741   5.622
 2577TIP3    H2 7675   6.606   2.792   5.675
 2578TIP3   OH2 7676   5.271   0.452   3.406
 2578TIP3    H1 7677   5.347   0.487   3.361
 2578TIP3    H2 7678   5.290   0.359   3.417
 2579TIP3   OH2 7679   5.279   2.776   5.065
 2579TIP3    H1 7680   5.210   2.725   5.024
 2579TIP3    H2 7681   5.355   2.764   5.007
 2580TIP3   OH2 7682   8.175   0.744   0.803
 2580TIP3    H1 7683   8.133   0.821   0.840
 2580TIP3    H2 7684   8.130   0.729   0.720
 2581TIP3   OH2 7685   6.108   6.766   5.601
 2581TIP3    H1 7686   6.085   6.676   5.621
 2581TIP3    H2 7687   6.168   6.791   5.672
 2582TIP3   OH2 7688   7.297   4.482   4.623
 2582TIP3    H1 7689   7.247   4.402   4.611
 2582TIP3    H2 7690   7.264   4.541   4.556
 2583TIP3   OH2 7691   0.548   7.388   2.894
 2583TIP3    H1 7692   0.544   7.322   2.825
 2583TIP3    H2 7693   0.488   7.356   2.961
 2584TIP3   OH2 7694   7.218   2.094   0.079
 2584TIP3    H1 7695   7.126   2.118   0.090
 2584TIP3    H2 7696   7.218   2.027   0.012
 2585TIP3   OH2 7697   0.239   5.877   6.708
 2585TIP3    H1 7698   0.249   5.876   6.613
 2585TIP3    H2 7699   0.302   5.943   6.738
 2586TIP3   OH2 7700   3.195   6.715   4.355
 2586TIP3    H1 7701   3.235   6.659   4.289
 2586TIP3    H2 7702   3.205   6.804   4.321
 2587TIP3   OH2 7703   3.000   7.778   0.810
 2587TIP3    H1 7704   2.966   7.826   0.886
 2587TIP3    H2 7705   2.942   7.805   0.738
 2588TIP3   OH2 7706   4.796   6.359   5.130
 2588TIP3    H1 7707   4.840   6.348   5.045
 2588TIP3    H2 7708   4.847   6.426   5.175
 2589TIP3   OH2 7709   3.407   7.047   0.054
 2589TIP3    H1 7710   3.352   6.983   0.099
 2589TIP3    H2 7711   3.494   7.034   0.090
 2590TIP3   OH2 7712   4.243   1.074   1.853
 2590TIP3    H1 7713   4.222   1.055   1.944
 2590TIP3    H2 7714   4.255   0.989   1.812
 2591TIP3   OH2 7715   7.180   3.862   1.741
 2591TIP3    H1 7716   7.156   3.798   1.673
 2591TIP3    H2 7717   7.214   3.937   1.692
 2592TIP3   OH2 7718   8.257   0.801   5.840
 2592TIP3    H1 7719   8.323   0.739   5.809
 2592TIP3    H2 7720   8.203   0.819   5.763
 2593TIP3   OH2 7721   7.230   5.360   5.706
 2593TIP3    H1 7722   7.165   5.427   5.682
 2593TIP3    H2 7723   7.283   5.350   5.627
 2594TIP3   OH2 7724   6.773   2.997   6.642
 2594TIP3    H1 7725   6.728   3.061   6.586
 2594TIP3    H2 7726   6.733   2.913   6.619
 2595TIP3   OH2 7727   3.418   6.541   3.476
 2595TIP3    H1 7728   3.368   6.619   3.501
 2595TIP3    H2 7729   3.478   6.527   3.548
 2596TIP3   OH2 7730   3.061   1.024   3.963
 2596TIP3    H1 7731   2.979   1.035   4.011
 2596TIP3    H2 7732   3.103   0.948   4.003
 2597TIP3   OH2 7733   7.188   1.998   3.387
 2597TIP3    H1 7734   7.183   2.089   3.357
 2597TIP3    H2 7735   7.274   1.991   3.428
 2598TIP3   OH2 7736   6.444   6.295   0.462
 2598TIP3    H1 7737   6.491   6.252   0.391
 2598TIP3    H2 7738   6.512   6.342   0.510
 2599TIP3   OH2 7739   6.167   5.923   6.608
 2599TIP3    H1 7740   6.244   5.931   6.552
 2599TIP3    H2 7741   6.100   5.884   6.551
 2600TIP3   OH2 7742   3.182   1.179   2.544
 2600TIP3    H1 7743   3.196   1.272   2.560
 2600TIP3    H2 7744   3.111   1.175   2.481
 2601TIP3   OH2 7745   5.456   4.063   3.053
 2601TIP3    H1 7746   5.508   4.141   3.069
 2601TIP3    H2 7747   5.463   4.047   2.959
 2602TIP3   OH2 7748   7.041   1.541   0.456
 2602TIP3    H1 7749   7.122   1.592   0.456
 2602TIP3    H2 7750   6.988   1.581   0.387
 2603TIP3   OH2 7751   1.577   4.924   3.345
 2603TIP3    H1 7752   1.564   4.835   3.312
 2603TIP3    H2 7753   1.639   4.915   3.417
 2604TIP3   OH2 7754   7.123   4.833   4.117
 2604TIP3    H1 7755   7.068   4.850   4.194
 2604TIP3    H2 7756   7.083   4.756   4.076
 2605TIP3   OH2 7757   1.186   6.030   0.211
 2605TIP3    H1 7758   1.142   5.955   0.171
 2605TIP3    H2 7759   1.115   6.086   0.242
 2606TIP3   OH2 7760   5.533   1.267   0.671
 2606TIP3    H1 7761   5.616   1.313   0.686
 2606TIP3    H2 7762   5.488   1.321   0.606
 2607TIP3   OH2 7763   0.481   2.968   1.374
 2607TIP3    H1 7764   0.506   3.057   1.398
 2607TIP3    H2 7765   0.386   2.966   1.385
 2608TIP3   OH2 7766   5.531   5.173   5.374
 2608TIP3    H1 7767   5.439   5.152   5.358
 2608TIP3    H2 7768   5.565   5.199   5.288
 2609TIP3   OH2 7769   0.180   7.507   5.379
 2609TIP3    H1 7770   0.161   7.572   5.447
 2609TIP3    H2 7771   0.097   7.496   5.333
 2610TIP3   OH2 7772   0.491   3.764   4.911
 2610TIP3    H1 7773   0.427   3.833   4.928
 2610TIP3    H2 7774   0.532   3.789   4.828
 2611TIP3   OH2 7775   4.832   4.531   2.132
 2611TIP3    H1 7776   4.872   4.576   2.057
 2611TIP3    H2 7777   4.780   4.598   2.175
 2612TIP3   OH2 7778   6.585   5.385   5.673
 2612TIP3    H1 7779   6.668   5.434   5.678
 2612TIP3    H2 7780   6.609   5.296   5.700
 2613TIP3   OH2 7781   2.620   4.498   4.259
 2613TIP3    H1 7782   2.654   4.468   4.344
 2613TIP3    H2 7783   2.685   4.562   4.229
 2614TIP3   OH2 7784   2.008   6.860   5.549
 2614TIP3    H1 7785   1.987   6.863   5.456
 2614TIP3    H2 7786   1.954   6.928   5.588
 2615TIP3   OH2 7787   5.562   6.946   2.880
 2615TIP3    H1 7788   5.474   6.912   2.863
 2615TIP3    H2 7789   5.621   6.887   2.833
 2616TIP3   OH2 7790   7.945   5.728   3.650
 2616TIP3    H1 7791   8.029   5.757   3.613
 2616TIP3    H2 7792   7.956   5.739   3.745
 2617TIP3   OH2 7793   6.006   5.777   5.584
 2617TIP3    H1 7794   5.980   5.728   5.506
 2617TIP3    H2 7795   6.032   5.711   5.647
 2618TIP3   OH2 7796   3.257   3.145   2.717
 2618TIP3    H1 7797   3.233   3.134   2.809
 2618TIP3    H2 7798   3.333   3.203   2.719
 2619TIP3   OH2 7799   7.626   2.409   3.312
 2619TIP3    H1 7800   7.663   2.371   3.391
 2619TIP3    H2 7801   7.675   2.368   3.241
 2620TIP3   OH2 7802   7.180   7.272   4.339
 2620TIP3    H1 7803   7.093   7.270   4.301
 2620TIP3    H2 7804   7.170   7.323   4.419
 2621TIP3   OH2 7805   0.952   2.529   2.610
 2621TIP3    H1 7806   0.898   2.600   2.576
 2621TIP3    H2 7807   1.010   2.506   2.538
 2622TIP3   OH2 7808   1.804   3.061   0.131
 2622TIP3    H1 7809   1.866   3.134   0.123
 2622TIP3    H2 7810   1.745   3.088   0.201
 2623TIP3   OH2 7811   7.492   2.257   5.139
 2623TIP3    H1 7812   7.460   2.328   5.084
 2623TIP3    H2 7813   7.506   2.296   5.225
 2624TIP3   OH2 7814   2.921   7.517   4.011
 2624TIP3    H1 7815   2.943   7.504   3.918
 2624TIP3    H2 7816   2.858   7.447   4.030
 2625TIP3   OH2 7817   2.675   7.839   6.508
 2625TIP3    H1 7818   2.599   7.797   6.468
 2625TIP3    H2 7819   2.749   7.783   6.487
 2626TIP3   OH2 7820   1.542   5.373   1.097
 2626TIP3    H1 7821   1.515   5.312   1.028
 2626TIP3    H2 7822   1.591   5.319   1.159
 2627TIP3   OH2 7823   7.484   1.647   3.756
 2627TIP3    H1 7824   7.521   1.560   3.741
 2627TIP3    H2 7825   7.536   1.684   3.828
 2628TIP3   OH2 7826   4.764   0.016   1.600
 2628TIP3    H1 7827   4.718   0.097   1.621
 2628TIP3    H2 7828   4.840   0.016   1.658
 2629TIP3   OH2 7829   4.313   5.620   5.647
 2629TIP3    H1 7830   4.257   5.640   5.572
 2629TIP3    H2 7831   4.334   5.705   5.684
 2630TIP3   OH2 7832   6.583   4.969   1.330
 2630TIP3    H1 7833   6.626   4.933   1.252
 2630TIP3    H2 7834   6.570   5.062   1.309
 2631TIP3   OH2 7835   1.666   3.173   5.896
 2631TIP3    H1 7836   1.741   3.159   5.838
 2631TIP3    H2 7837   1.690   3.131   5.978
 2632TIP3   OH2 7838   4.344   7.803   2.673
 2632TIP3    H1 7839   4.342   7.708   2.684
 2632TIP3    H2 7840   4.366   7.816   2.581
 2633TIP3   OH2 7841   2.555   5.159   6.279
 2633TIP3    H1 7842   2.648   5.141   6.289
 2633TIP3    H2 7843   2.544   5.248   6.312
 2634TIP3   OH2 7844   2.554   5.545   4.243
 2634TIP3    H1 7845   2.491   5.597   4.192
 2634TIP3    H2 7846   2.612   5.610   4.283
 2635TIP3   OH2 7847   0.292   2.380   6.602
 2635TIP3    H1 7848   0.330   2.418   6.523
 2635TIP3    H2 7849   0.308   2.446   6.670
 2636TIP3   OH2 7850   6.246   6.702   0.896
 2636TIP3    H1 7851   6.221   6.794   0.886
 2636TIP3    H2 7852   6.239   6.666   0.808
 2637TIP3   OH2 7853   3.560   6.744   3.685
 2637TIP3    H1 7854   3.602   6.778   3.606
 2637TIP3    H2 7855   3.610   6.782   3.757
 2638TIP3   OH2 7856   6.437   2.578   3.736
 2638TIP3    H1 7857   6.397   2.658   3.702
 2638TIP3    H2 7858   6.364   2.519   3.754
 2639TIP3   OH2 7859   2.519   4.649   0.045
 2639TIP3    H1 7860   2.587   4.658   0.111
 2639TIP3    H2 7861   2.498   4.739   0.019
 2640TIP3   OH2 7862   4.703   4.604   1.784
 2640TIP3    H1 7863   4.675   4.666   1.718
 2640TIP3    H2 7864   4.707   4.520   1.738
 2641TIP3   OH2 7865   2.564   4.455   4.746
 2641TIP3    H1 7866   2.540   4.545   4.723
 2641TIP3    H2 7867   2.482   4.406   4.738
 2642TIP3   OH2 7868   5.951   5.873   1.959
 2642TIP3    H1 7869   6.029   5.818   1.951
 2642TIP3    H2 7870   5.958   5.910   2.048
 2643TIP3   OH2 7871   2.573   5.072   2.569
 2643TIP3    H1 7872   2.491   5.029   2.594
 2643TIP3    H2 7873   2.546   5.149   2.520
 2644TIP3   OH2 7874   1.344   3.084   1.150
 2644TIP3    H1 7875   1.274   3.059   1.211
 2644TIP3    H2 7876   1.391   3.154   1.196
 2645TIP3   OH2 7877   5.223   4.099   6.031
 2645TIP3    H1 7878   5.169   4.126   5.958
 2645TIP3    H2 7879   5.250   4.009   6.010
 2646TIP3   OH2 7880   1.955   4.473   1.951
 2646TIP3    H1 7881   2.001   4.449   1.870
 2646TIP3    H2 7882   2.023   4.470   2.019
 2647TIP3   OH2 7883   6.294   1.894   5.883
 2647TIP3    H1 7884   6.277   1.804   5.854
 2647TIP3    H2 7885   6.276   1.893   5.977
 2648TIP3   OH2 7886   4.636   5.959   4.049
 2648TIP3    H1 7887   4.575   5.982   4.119
 2648TIP3    H2 7888   4.716   5.932   4.094
 2649TIP3   OH2 7889   3.836   0.803   3.650
 2649TIP3    H1 7890   3.834   0.792   3.555
 2649TIP3    H2 7891   3.839   0.714   3.685
 2650TIP3   OH2 7892   1.209   4.798   3.129
 2650TIP3    H1 7893   1.214   4.851   3.209
 2650TIP3    H2 7894   1.299   4.796   3.096
 2651TIP3   OH2 7895   4.664   5.734   0.382
 2651TIP3    H1 7896   4.576   5.762   0.408
 2651TIP3    H2 7897   4.720   5.757   0.457
 2652TIP3   OH2 7898   1.235   3.364   3.838
 2652TIP3    H1 7899   1.228   3.455   3.867
 2652TIP3    H2 7900   1.313   3.330   3.883
 2653TIP3   OH2 7901   2.323   3.438   1.212
 2653TIP3    H1 7902   2.330   3.375   1.141
 2653TIP3    H2 7903   2.240   3.483   1.197
 2654TIP3   OH2 7904   4.008   1.627   4.073
 2654TIP3    H1 7905   3.956   1.598   3.998
 2654TIP3    H2 7906   3.951   1.689   4.119
 2655TIP3   OH2 7907   1.115   2.424   3.392
 2655TIP3    H1 7908   1.126   2.353   3.330
 2655TIP3    H2 7909   1.162   2.498   3.352
 2656TIP3   OH2 7910   2.602   2.692   3.504
 2656TIP3    H1 7911   2.614   2.776   3.460
 2656TIP3    H2 7912   2.689   2.653   3.505
 2657TIP3   OH2 7913   3.587   0.355   1.303
 2657TIP3    H1 7914   3.554   0.272   1.269
 2657TIP3    H2 7915   3.676   0.334   1.332
 2658TIP3   OH2 7916   0.100   4.536   0.954
 2658TIP3    H1 7917   0.173   4.478   0.974
 2658TIP3    H2 7918   0.141   4.622   0.943
 2659TIP3   OH2 7919   5.964   2.141   0.086
 2659TIP3    H1 7920   6.023   2.135   0.010
 2659TIP3    H2 7921   6.013   2.098   0.157
 2660TIP3   OH2 7922   5.746   5.076   4.883
 2660TIP3    H1 7923   5.792   5.158   4.871
 2660TIP3    H2 7924   5.683   5.094   4.952
 2661TIP3   OH2 7925   0.893   4.498   2.244
 2661TIP3    H1 7926   0.975   4.448   2.243
 2661TIP3    H2 7927   0.889   4.540   2.158
 2662TIP3   OH2 7928   4.337   5.129   6.731
 2662TIP3    H1 7929   4.367   5.163   6.646
 2662TIP3    H2 7930   4.359   5.198   6.793
 2663TIP3   OH2 7931   5.339   5.686   6.519
 2663TIP3    H1 7932   5.307   5.694   6.429
 2663TIP3    H2 7933   5.360   5.776   6.545
 2664TIP3   OH2 7934   5.734   0.600   6.114
 2664TIP3    H1 7935   5.752   0.506   6.108
 2664TIP3    H2 7936   5.639   0.607   6.102
 2665TIP3   OH2 7937   1.966   1.412   5.553
 2665TIP3    H1 7938   2.046   1.463   5.566
 2665TIP3    H2 7939   1.938   1.389   5.642
 2666TIP3   OH2 7940   2.649   5.875   0.286
 2666TIP3    H1 7941   2.608   5.845   0.367
 2666TIP3    H2 7942   2.597   5.950   0.259
 2667TIP3   OH2 7943   1.803   1.639   4.957
 2667TIP3    H1 7944   1.744   1.683   4.896
 2667TIP3    H2 7945   1.765   1.551   4.968
 2668TIP3   OH2 7946   4.201   0.356   0.864
 2668TIP3    H1 7947   4.158   0.362   0.779
 2668TIP3    H2 7948   4.286   0.316   0.846
 2669TIP3   OH2 7949   6.254   0.797   5.904
 2669TIP3    H1 7950   6.290   0.847   5.831
 2669TIP3    H2 7951   6.329   0.779   5.960
 2670TIP3   OH2 7952   1.669   3.445   6.056
 2670TIP3    H1 7953   1.659   3.380   6.125
 2670TIP3    H2 7954   1.647   3.397   5.976
 2671TIP3   OH2 7955   1.670   6.782   6.262
 2671TIP3    H1 7956   1.683   6.762   6.355
 2671TIP3    H2 7957   1.592   6.838   6.261
 2672TIP3   OH2 7958   0.243   6.457   3.869
 2672TIP3    H1 7959   0.221   6.371   3.904
 2672TIP3    H2 7960   0.256   6.512   3.947
 2673TIP3   OH2 7961   2.380   3.377  -0.014
 2673TIP3    H1 7962   2.398   3.459  -0.061
 2673TIP3    H2 7963   2.401   3.398   0.077
 2674TIP3   OH2 7964   5.110   1.367   4.717
 2674TIP3    H1 7965   5.152   1.407   4.642
 2674TIP3    H2 7966   5.178   1.310   4.755
 2675TIP3   OH2 7967   7.208   0.353   0.232
 2675TIP3    H1 7968   7.266   0.381   0.162
 2675TIP3    H2 7969   7.258   0.369   0.312
 2676TIP3   OH2 7970   2.859   7.370   5.956
 2676TIP3    H1 7971   2.926   7.350   5.891
 2676TIP3    H2 7972   2.829   7.458   5.932
 2677TIP3   OH2 7973   3.991   6.320   3.382
 2677TIP3    H1 7974   3.999   6.262   3.457
 2677TIP3    H2 7975   4.080   6.352   3.366
 2678TIP3   OH2 7976   7.495   0.567   6.505
 2678TIP3    H1 7977   7.585   0.594   6.524
 2678TIP3    H2 7978   7.483   0.487   6.556
 2679TIP3   OH2 7979   2.846   7.774   2.460
 2679TIP3    H1 7980   2.941   7.769   2.448
 2679TIP3    H2 7981   2.812   7.699   2.409
 2680TIP3   OH2 7982   2.430   0.135   2.613
 2680TIP3    H1 7983   2.417   0.208   2.674
 2680TIP3    H2 7984   2.459   0.063   2.668
 2681TIP3   OH2 7985   6.904   6.198   5.683
 2681TIP3    H1 7986   6.981   6.253   5.668
 2681TIP3    H2 7987   6.892   6.199   5.778
 2682TIP3   OH2 7988   5.252   2.701   5.466
 2682TIP3    H1 7989   5.228   2.690   5.558
 2682TIP3    H2 7990   5.173   2.735   5.425
 2683TIP3   OH2 7991   1.173   0.209   0.714
 2683TIP3    H1 7992   1.262   0.197   0.682
 2683TIP3    H2 7993   1.181   0.212   0.809
 2684TIP3   OH2 7994   2.358   3.041   6.723
 2684TIP3    H1 7995   2.314   2.976   6.668
 2684TIP3    H2 7996   2.362   3.001   6.809
 2685TIP3   OH2 7997   3.452   1.035   5.184
 2685TIP3    H1 7998   3.446   1.123   5.221
 2685TIP3    H2 7999   3.533   1.000   5.220
 2686TIP3   OH2 8000   1.956   4.044   4.057
 2686TIP3    H1 8001   2.026   4.090   4.011
 2686TIP3    H2 8002   1.881   4.051   3.999
 2687TIP3   OH2 8003   6.608   1.940   4.134
 2687TIP3    H1 8004   6.648   1.871   4.187
 2687TIP3    H2 8005   6.546   1.982   4.193
 2688TIP3   OH2 8006   6.147   7.468   2.231
 2688TIP3    H1 8007   6.153   7.444   2.324
 2688TIP3    H2 8008   6.118   7.559   2.231
 2689TIP3   OH2 8009   2.945   5.239   5.224
 2689TIP3    H1 8010   2.979   5.153   5.202
 2689TIP3    H2 8011   3.004   5.300   5.181
 2690TIP3   OH2 8012   1.579   4.294   2.839
 2690TIP3    H1 8013   1.618   4.322   2.922
 2690TIP3    H2 8014   1.538   4.210   2.860
 2691TIP3   OH2 8015   3.107   3.326   4.474
 2691TIP3    H1 8016   3.044   3.379   4.425
 2691TIP3    H2 8017   3.191   3.370   4.462
 2692TIP3   OH2 8018   0.638   1.194   5.049
 2692TIP3    H1 8019   0.555   1.226   5.085
 2692TIP3    H2 8020   0.703   1.217   5.115
 2693TIP3   OH2 8021   1.533   6.031   3.104
 2693TIP3    H1 8022   1.521   5.955   3.048
 2693TIP3    H2 8023   1.571   6.098   3.046
 2694TIP3   OH2 8024   0.950   5.185   1.037
 2694TIP3    H1 8025   0.920   5.256   1.094
 2694TIP3    H2 8026   0.972   5.228   0.955
 2695TIP3   OH2 8027   3.930   1.602   3.540
 2695TIP3    H1 8028   3.990   1.659   3.490
 2695TIP3    H2 8029   3.986   1.557   3.603
 2696TIP3   OH2 8030   2.537   5.984   1.954
 2696TIP3    H1 8031   2.473   6.041   1.911
 2696TIP3    H2 8032   2.617   6.037   1.959
 2697TIP3   OH2 8033   0.971   7.206   6.353
 2697TIP3    H1 8034   0.968   7.296   6.385
 2697TIP3    H2 8035   0.994   7.153   6.429
 2698TIP3   OH2 8036   7.200   0.327   2.908
 2698TIP3    H1 8037   7.192   0.290   2.996
 2698TIP3    H2 8038   7.277   0.285   2.870
 2699TIP3   OH2 8039   5.697   2.913   3.489
 2699TIP3    H1 8040   5.617   2.959   3.513
 2699TIP3    H2 8041   5.767   2.978   3.500
 2700TIP3   OH2 8042   0.301   1.463   1.919
 2700TIP3    H1 8043   0.223   1.429   1.963
 2700TIP3    H2 8044   0.267   1.499   1.836
 2701TIP3   OH2 8045   6.082   1.853   4.743
 2701TIP3    H1 8046   6.148   1.918   4.719
 2701TIP3    H2 8047   6.132   1.776   4.767
 2702TIP3   OH2 8048   6.506   6.335   0.824
 2702TIP3    H1 8049   6.466   6.253   0.796
 2702TIP3    H2 8050   6.576   6.350   0.761
 2703TIP3   OH2 8051   7.354   4.708   4.779
 2703TIP3    H1 8052   7.337   4.624   4.735
 2703TIP3    H2 8053   7.380   4.767   4.708
 2704TIP3   OH2 8054   3.569   5.018   5.474
 2704TIP3    H1 8055   3.659   5.039   5.499
 2704TIP3    H2 8056   3.531   4.977   5.552
 2705TIP3   OH2 8057   6.710   2.843   1.484
 2705TIP3    H1 8058   6.681   2.821   1.573
 2705TIP3    H2 8059   6.648   2.909   1.455
 2706TIP3   OH2 8060   2.709   1.466   4.380
 2706TIP3    H1 8061   2.619   1.452   4.350
 2706TIP3    H2 8062   2.714   1.419   4.463
 2707TIP3   OH2 8063   6.630   3.901   4.447
 2707TIP3    H1 8064   6.628   3.941   4.360
 2707TIP3    H2 8065   6.723   3.889   4.467
 2708TIP3   OH2 8066   1.863   0.421   1.730
 2708TIP3    H1 8067   1.824   0.372   1.657
 2708TIP3    H2 8068   1.837   0.512   1.713
 2709TIP3   OH2 8069   5.092   4.171   0.754
 2709TIP3    H1 8070   5.171   4.208   0.713
 2709TIP3    H2 8071   5.061   4.106   0.691
 2710TIP3   OH2 8072   3.231   5.527   3.980
 2710TIP3    H1 8073   3.253   5.435   3.962
 2710TIP3    H2 8074   3.180   5.524   4.060
 2711TIP3   OH2 8075   4.791   7.371   1.690
 2711TIP3    H1 8076   4.811   7.451   1.739
 2711TIP3    H2 8077   4.836   7.302   1.739
 2712TIP3   OH2 8078   4.870   1.744   3.456
 2712TIP3    H1 8079   4.841   1.694   3.380
 2712TIP3    H2 8080   4.804   1.812   3.467
 2713TIP3   OH2 8081   6.692   6.941   0.464
 2713TIP3    H1 8082   6.733   6.870   0.513
 2713TIP3    H2 8083   6.602   6.911   0.449
 2714TIP3   OH2 8084   2.138   5.765   4.797
 2714TIP3    H1 8085   2.116   5.689   4.743
 2714TIP3    H2 8086   2.176   5.827   4.735
 2715TIP3   OH2 8087   5.688   1.618   4.121
 2715TIP3    H1 8088   5.719   1.704   4.149
 2715TIP3    H2 8089   5.601   1.609   4.160
 2716TIP3   OH2 8090   2.901   7.230   6.195
 2716TIP3    H1 8091   2.908   7.302   6.132
 2716TIP3    H2 8092   2.807   7.224   6.213
 2717TIP3   OH2 8093   2.778   7.783   2.047
 2717TIP3    H1 8094   2.768   7.767   1.953
 2717TIP3    H2 8095   2.708   7.843   2.069
 2718TIP3   OH2 8096   6.727   2.921   6.117
 2718TIP3    H1 8097   6.799   2.920   6.179
 2718TIP3    H2 8098   6.765   2.958   6.037
 2719TIP3   OH2 8099   7.584   7.274   4.388
 2719TIP3    H1 8100   7.535   7.192   4.389
 2719TIP3    H2 8101   7.607   7.288   4.296
 2720TIP3   OH2 8102   6.049   6.863   5.342
 2720TIP3    H1 8103   6.001   6.937   5.380
 2720TIP3    H2 8104   6.069   6.806   5.417
 2721TIP3   OH2 8105   1.715   5.049   4.643
 2721TIP3    H1 8106   1.680   4.996   4.715
 2721TIP3    H2 8107   1.647   5.048   4.577
 2722TIP3   OH2 8108   5.248   6.102   0.568
 2722TIP3    H1 8109   5.236   6.145   0.652
 2722TIP3    H2 8110   5.164   6.061   0.548
 2723TIP3   OH2 8111   0.517   0.444   1.668
 2723TIP3    H1 8112   0.558   0.413   1.586
 2723TIP3    H2 8113   0.428   0.409   1.664
 2724TIP3   OH2 8114   0.225   5.749   0.936
 2724TIP3    H1 8115   0.204   5.760   1.028
 2724TIP3    H2 8116   0.271   5.829   0.911
 2725TIP3   OH2 8117   6.314   2.863   2.837
 2725TIP3    H1 8118   6.408   2.848   2.825
 2725TIP3    H2 8119   6.273   2.824   2.760
 2726TIP3   OH2 8120   7.969   0.769   3.127
 2726TIP3    H1 8121   7.947   0.768   3.034
 2726TIP3    H2 8122   8.036   0.837   3.135
 2727TIP3   OH2 8123   6.994   1.068   4.561
 2727TIP3    H1 8124   6.963   1.070   4.652
 2727TIP3    H2 8125   6.921   1.029   4.512
 2728TIP3   OH2 8126   6.902   3.334   4.163
 2728TIP3    H1 8127   6.826   3.390   4.172
 2728TIP3    H2 8128   6.873   3.248   4.194
 2729TIP3   OH2 8129   1.156   1.032   5.591
 2729TIP3    H1 8130   1.206   0.957   5.623
 2729TIP3    H2 8131   1.133   1.082   5.669
 2730TIP3   OH2 8132   0.919   2.433   4.950
 2730TIP3    H1 8133   0.889   2.523   4.958
 2730TIP3    H2 8134   0.869   2.385   5.016
 2731TIP3   OH2 8135   4.038   0.045   1.362
 2731TIP3    H1 8136   4.072  -0.042   1.345
 2731TIP3    H2 8137   3.978   0.033   1.436
 2732TIP3   OH2 8138   0.086   7.002   2.994
 2732TIP3    H1 8139   0.061   6.968   3.080
 2732TIP3    H2 8140   0.031   6.954   2.932
 2733TIP3   OH2 8141   6.657   5.891   3.068
 2733TIP3    H1 8142   6.701   5.812   3.099
 2733TIP3    H2 8143   6.619   5.930   3.146
 2734TIP3   OH2 8144   0.558   4.854   0.722
 2734TIP3    H1 8145   0.561   4.792   0.649
 2734TIP3    H2 8146   0.480   4.906   0.706
 2735TIP3   OH2 8147   7.616   0.798   5.256
 2735TIP3    H1 8148   7.536   0.768   5.298
 2735TIP3    H2 8149   7.595   0.800   5.162
 2736TIP3   OH2 8150   2.261   0.751   1.617
 2736TIP3    H1 8151   2.186   0.790   1.662
 2736TIP3    H2 8152   2.273   0.805   1.539
 2737TIP3   OH2 8153   3.363   1.236   0.243
 2737TIP3    H1 8154   3.282   1.198   0.276
 2737TIP3    H2 8155   3.336   1.299   0.177
 2738TIP3   OH2 8156   5.974   1.708   5.495
 2738TIP3    H1 8157   6.054   1.747   5.460
 2738TIP3    H2 8158   5.906   1.735   5.434
 2739TIP3   OH2 8159   7.382   6.468   5.829
 2739TIP3    H1 8160   7.474   6.489   5.815
 2739TIP3    H2 8161   7.357   6.520   5.906
 2740TIP3   OH2 8162   6.530   0.301   1.344
 2740TIP3    H1 8163   6.514   0.348   1.263
 2740TIP3    H2 8164   6.604   0.243   1.324
 2741TIP3   OH2 8165   6.413   6.209   0.178
 2741TIP3    H1 8166   6.344   6.235   0.239
 2741TIP3    H2 8167   6.445   6.291   0.140
 2742TIP3   OH2 8168   0.341   0.302   4.693
 2742TIP3    H1 8169   0.361   0.369   4.759
 2742TIP3    H2 8170   0.247   0.285   4.705
 2743TIP3   OH2 8171   0.946   5.608   6.201
 2743TIP3    H1 8172   0.870   5.658   6.231
 2743TIP3    H2 8173   0.936   5.523   6.244
 2744TIP3   OH2 8174   4.692   7.480   3.450
 2744TIP3    H1 8175   4.746   7.404   3.471
 2744TIP3    H2 8176   4.673   7.470   3.357
 2745TIP3   OH2 8177   8.186   1.212   0.490
 2745TIP3    H1 8178   8.158   1.161   0.566
 2745TIP3    H2 8179   8.117   1.277   0.478
 2746TIP3   OH2 8180   0.289   0.287   1.658
 2746TIP3    H1 8181   0.228   0.303   1.585
 2746TIP3    H2 8182   0.245   0.324   1.734
 2747TIP3   OH2 8183   7.434   4.796   0.265
 2747TIP3    H1 8184   7.443   4.832   0.177
 2747TIP3    H2 8185   7.524   4.791   0.298
 2748TIP3   OH2 8186   1.485   7.294   2.254
 2748TIP3    H1 8187   1.477   7.280   2.349
 2748TIP3    H2 8188   1.465   7.209   2.215
 2749TIP3   OH2 8189   0.969   2.729   1.422
 2749TIP3    H1 8190   0.920   2.740   1.340
 2749TIP3    H2 8191   0.949   2.808   1.472
 2750TIP3   OH2 8192   5.850   0.094   4.639
 2750TIP3    H1 8193   5.845   0.067   4.731
 2750TIP3    H2 8194   5.828   0.016   4.590
 2751TIP3   OH2 8195   6.627   1.808   0.475
 2751TIP3    H1 8196   6.651   1.715   0.478
 2751TIP3    H2 8197   6.707   1.853   0.447
 2752TIP3   OH2 8198   6.778   4.074   3.417
 2752TIP3    H1 8199   6.791   4.147   3.357
 2752TIP3    H2 8200   6.777   4.114   3.504
 2753TIP3   OH2 8201   0.184   0.195   6.381
 2753TIP3    H1 8202   0.151   0.273   6.338
 2753TIP3    H2 8203   0.193   0.131   6.310
 2754TIP3   OH2 8204   6.948   7.157   1.821
 2754TIP3    H1 8205   6.999   7.236   1.802
 2754TIP3    H2 8206   6.937   7.158   1.916
 2755TIP3   OH2 8207   3.549   0.364   3.863
 2755TIP3    H1 8208   3.535   0.297   3.929
 2755TIP3    H2 8209   3.539   0.447   3.910
 2756TIP3   OH2 8210   6.529   3.758   1.600
 2756TIP3    H1 8211   6.488   3.676   1.630
 2756TIP3    H2 8212   6.505   3.822   1.667
 2757TIP3   OH2 8213   2.495   3.315   4.702
 2757TIP3    H1 8214   2.509   3.246   4.767
 2757TIP3    H2 8215   2.583   3.341   4.675
 2758TIP3   OH2 8216   7.084   4.497   6.105
 2758TIP3    H1 8217   7.087   4.593   6.110
 2758TIP3    H2 8218   6.991   4.477   6.095
 2759TIP3   OH2 8219   5.880   0.422   5.350
 2759TIP3    H1 8220   5.839   0.486   5.291
 2759TIP3    H2 8221   5.843   0.338   5.322
 2760TIP3   OH2 8222   4.478   6.931   3.935
 2760TIP3    H1 8223   4.514   6.889   4.013
 2760TIP3    H2 8224   4.384   6.917   3.941
 2761TIP3   OH2 8225   6.339   7.701   1.966
 2761TIP3    H1 8226   6.417   7.746   1.936
 2761TIP3    H2 8227   6.358   7.679   2.058
 2762TIP3   OH2 8228   5.039   2.533   2.363
 2762TIP3    H1 8229   5.132   2.523   2.344
 2762TIP3    H2 8230   4.998   2.549   2.278
 2763TIP3   OH2 8231   2.890   7.204   5.023
 2763TIP3    H1 8232   2.906   7.296   5.046
 2763TIP3    H2 8233   2.801   7.187   5.054
 2764TIP3   OH2 8234   1.097   0.636   1.804
 2764TIP3    H1 8235   1.074   0.699   1.736
 2764TIP3    H2 8236   1.012   0.602   1.834
 2765TIP3   OH2 8237   1.120   3.098   2.686
 2765TIP3    H1 8238   1.139   3.099   2.593
 2765TIP3    H2 8239   1.179   3.164   2.723
 2766TIP3   OH2 8240   1.052   6.253   5.808
 2766TIP3    H1 8241   1.112   6.191   5.848
 2766TIP3    H2 8242   0.971   6.204   5.795
 2767TIP3   OH2 8243   0.152   7.602   0.539
 2767TIP3    H1 8244   0.150   7.686   0.494
 2767TIP3    H2 8245   0.223   7.553   0.497
 2768TIP3   OH2 8246   7.626   3.862   2.967
 2768TIP3    H1 8247   7.691   3.933   2.972
 2768TIP3    H2 8248   7.562   3.893   2.904
 2769TIP3   OH2 8249   4.354   4.710   0.161
 2769TIP3    H1 8250   4.371   4.795   0.202
 2769TIP3    H2 8251   4.353   4.647   0.233
 2770TIP3   OH2 8252   7.801   6.008   4.935
 2770TIP3    H1 8253   7.750   6.000   5.016
 2770TIP3    H2 8254   7.885   6.043   4.964
 2771TIP3   OH2 8255   4.072   6.208   4.128
 2771TIP3    H1 8256   4.037   6.127   4.166
 2771TIP3    H2 8257   4.117   6.180   4.048
 2772TIP3   OH2 8258   6.890   4.457   3.735
 2772TIP3    H1 8259   6.977   4.493   3.722
 2772TIP3    H2 8260   6.863   4.490   3.821
 2773TIP3   OH2 8261   6.451   4.938   3.447
 2773TIP3    H1 8262   6.449   5.014   3.389
 2773TIP3    H2 8263   6.512   4.877   3.404
 2774TIP3   OH2 8264   0.845   4.831   5.761
 2774TIP3    H1 8265   0.832   4.844   5.667
 2774TIP3    H2 8266   0.810   4.744   5.778
 2775TIP3   OH2 8267   1.628   1.424   4.942
 2775TIP3    H1 8268   1.628   1.436   5.037
 2775TIP3    H2 8269   1.536   1.406   4.920
 2776TIP3   OH2 8270   3.405   1.973   6.041
 2776TIP3    H1 8271   3.356   1.892   6.027
 2776TIP3    H2 8272   3.364   2.037   5.983
 2777TIP3   OH2 8273   6.991   3.082   3.521
 2777TIP3    H1 8274   6.929   3.145   3.483
 2777TIP3    H2 8275   7.061   3.136   3.557
 2778TIP3   OH2 8276   2.219   2.225   3.766
 2778TIP3    H1 8277   2.301   2.263   3.798
 2778TIP3    H2 8278   2.224   2.235   3.671
 2779TIP3   OH2 8279   8.264   2.906  -0.010
 2779TIP3    H1 8280   8.283   2.982   0.046
 2779TIP3    H2 8281   8.251   2.943  -0.097
 2780TIP3   OH2 8282   0.212   1.772   3.687
 2780TIP3    H1 8283   0.305   1.776   3.710
 2780TIP3    H2 8284   0.175   1.854   3.719
 2781TIP3   OH2 8285   6.018   4.493   4.838
 2781TIP3    H1 8286   6.096   4.475   4.891
 2781TIP3    H2 8287   6.027   4.433   4.763
 2782TIP3   OH2 8288   4.498   1.307   0.067
 2782TIP3    H1 8289   4.564   1.348   0.122
 2782TIP3    H2 8290   4.465   1.378   0.012
 2783TIP3   OH2 8291   2.098   6.071   6.771
 2783TIP3    H1 8292   2.121   5.981   6.745
 2783TIP3    H2 8293   2.062   6.110   6.692
 2784TIP3   OH2 8294   4.232   5.866   2.521
 2784TIP3    H1 8295   4.149   5.819   2.509
 2784TIP3    H2 8296   4.294   5.819   2.466
 2785TIP3   OH2 8297   4.330   6.293   2.656
 2785TIP3    H1 8298   4.411   6.259   2.618
 2785TIP3    H2 8299   4.356   6.375   2.699
 2786TIP3   OH2 8300   4.242   2.844   3.428
 2786TIP3    H1 8301   4.218   2.791   3.352
 2786TIP3    H2 8302   4.234   2.784   3.503
 2787TIP3   OH2 8303   4.387   5.794   4.483
 2787TIP3    H1 8304   4.387   5.872   4.428
 2787TIP3    H2 8305   4.364   5.723   4.423
 2788TIP3   OH2 8306   6.036   6.321   2.418
 2788TIP3    H1 8307   5.959   6.357   2.462
 2788TIP3    H2 8308   6.029   6.351   2.327
 2789TIP3   OH2 8309   3.538   1.803   0.694
 2789TIP3    H1 8310   3.543   1.708   0.686
 2789TIP3    H2 8311   3.621   1.828   0.736
 2790TIP3   OH2 8312   2.030   6.186   1.799
 2790TIP3    H1 8313   2.036   6.252   1.730
 2790TIP3    H2 8314   1.994   6.233   1.874
 2791TIP3   OH2 8315   3.383   2.417   1.441
 2791TIP3    H1 8316   3.373   2.473   1.364
 2791TIP3    H2 8317   3.442   2.347   1.412
 2792TIP3   OH2 8318   6.637   7.467   2.372
 2792TIP3    H1 8319   6.698   7.398   2.348
 2792TIP3    H2 8320   6.676   7.509   2.449
 2793TIP3   OH2 8321   1.774   1.663   5.965
 2793TIP3    H1 8322   1.834   1.666   6.039
 2793TIP3    H2 8323   1.714   1.736   5.979
 2794TIP3   OH2 8324   6.174   3.675   3.707
 2794TIP3    H1 8325   6.188   3.583   3.688
 2794TIP3    H2 8326   6.119   3.707   3.636
 2795TIP3   OH2 8327   1.926   5.387   1.481
 2795TIP3    H1 8328   1.840   5.423   1.503
 2795TIP3    H2 8329   1.910   5.294   1.466
 2796TIP3   OH2 8330   6.661   2.829   4.998
 2796TIP3    H1 8331   6.620   2.825   4.912
 2796TIP3    H2 8332   6.753   2.807   4.981
 2797TIP3   OH2 8333   0.641   5.719   0.139
 2797TIP3    H1 8334   0.566   5.779   0.140
 2797TIP3    H2 8335   0.625   5.663   0.063
 2798TIP3   OH2 8336   2.520   6.384   2.749
 2798TIP3    H1 8337   2.457   6.398   2.678
 2798TIP3    H2 8338   2.505   6.458   2.809
 2799TIP3   OH2 8339   0.260   2.879   2.896
 2799TIP3    H1 8340   0.191   2.816   2.917
 2799TIP3    H2 8341   0.331   2.858   2.957
 2800TIP3   OH2 8342   3.716   3.076   5.937
 2800TIP3    H1 8343   3.699   3.138   6.007
 2800TIP3    H2 8344   3.630   3.041   5.914
 2801TIP3   OH2 8345   0.913   6.622   3.805
 2801TIP3    H1 8346   0.945   6.688   3.743
 2801TIP3    H2 8347   0.926   6.538   3.760
 2802TIP3   OH2 8348   1.901   4.558   3.250
 2802TIP3    H1 8349   1.829   4.587   3.306
 2802TIP3    H2 8350   1.903   4.621   3.179
 2803TIP3   OH2 8351   1.810   4.253   5.531
 2803TIP3    H1 8352   1.897   4.222   5.557
 2803TIP3    H2 8353   1.763   4.264   5.614
 2804TIP3   OH2 8354   4.506   3.281   1.188
 2804TIP3    H1 8355   4.581   3.275   1.248
 2804TIP3    H2 8356   4.517   3.365   1.144
 2805TIP3   OH2 8357   3.626   6.605   6.230
 2805TIP3    H1 8358   3.688   6.538   6.203
 2805TIP3    H2 8359   3.540   6.567   6.213
 2806TIP3   OH2 8360   1.323   1.953   6.065
 2806TIP3    H1 8361   1.255   1.969   6.130
 2806TIP3    H2 8362   1.292   1.996   5.986
 2807TIP3   OH2 8363   3.339   2.506   2.899
 2807TIP3    H1 8364   3.408   2.514   2.834
 2807TIP3    H2 8365   3.378   2.538   2.981
 2808TIP3   OH2 8366   6.481   1.953   5.517
 2808TIP3    H1 8367   6.563   2.002   5.528
 2808TIP3    H2 8368   6.502   1.865   5.548
 2809TIP3   OH2 8369   7.674   4.613   5.240
 2809TIP3    H1 8370   7.662   4.607   5.145
 2809TIP3    H2 8371   7.591   4.650   5.271
 2810TIP3   OH2 8372   4.656   6.264   3.262
 2810TIP3    H1 8373   4.671   6.242   3.170
 2810TIP3    H2 8374   4.687   6.354   3.270
 2811TIP3   OH2 8375   6.058   6.225   2.762
 2811TIP3    H1 8376   6.098   6.311   2.746
 2811TIP3    H2 8377   6.130   6.163   2.750
 2812TIP3   OH2 8378   2.064   3.282   5.903
 2812TIP3    H1 8379   2.050   3.309   5.994
 2812TIP3    H2 8380   2.087   3.363   5.857
 2813TIP3   OH2 8381   6.710   7.248   5.370
 2813TIP3    H1 8382   6.623   7.244   5.331
 2813TIP3    H2 8383   6.694   7.250   5.465
 2814TIP3   OH2 8384   4.435   5.530   2.417
 2814TIP3    H1 8385   4.507   5.541   2.479
 2814TIP3    H2 8386   4.469   5.470   2.351
 2815TIP3   OH2 8387   5.094   1.419   2.293
 2815TIP3    H1 8388   5.107   1.386   2.382
 2815TIP3    H2 8389   5.173   1.392   2.246
 2816TIP3   OH2 8390   3.944   3.000   0.008
 2816TIP3    H1 8391   4.026   3.050   0.019
 2816TIP3    H2 8392   3.955   2.925   0.066
 2817TIP3   OH2 8393   0.545   5.239   5.742
 2817TIP3    H1 8394   0.547   5.295   5.819
 2817TIP3    H2 8395   0.624   5.260   5.693
 2818TIP3   OH2 8396   0.577   1.311   1.142
 2818TIP3    H1 8397   0.590   1.321   1.236
 2818TIP3    H2 8398   0.508   1.373   1.121
 2819TIP3   OH2 8399   3.255   0.859   5.955
 2819TIP3    H1 8400   3.298   0.822   5.877
 2819TIP3    H2 8401   3.219   0.942   5.925
 2820TIP3   OH2 8402   7.463   1.324   5.912
 2820TIP3    H1 8403   7.368   1.333   5.917
 2820TIP3    H2 8404   7.490   1.305   6.002
 2821TIP3   OH2 8405   6.049   4.401   4.201
 2821TIP3    H1 8406   6.084   4.338   4.137
 2821TIP3    H2 8407   5.999   4.347   4.262
 2822TIP3   OH2 8408   2.738  -0.006   3.771
 2822TIP3    H1 8409   2.780  -0.090   3.787
 2822TIP3    H2 8410   2.704   0.021   3.857
 2823TIP3   OH2 8411   6.468   5.719   1.002
 2823TIP3    H1 8412   6.499   5.784   0.938
 2823TIP3    H2 8413   6.373   5.730   1.003
 2824TIP3   OH2 8414   7.165   2.810   1.213
 2824TIP3    H1 8415   7.112   2.751   1.267
 2824TIP3    H2 8416   7.252   2.809   1.254
 2825TIP3   OH2 8417   4.185   0.265   3.816
 2825TIP3    H1 8418   4.106   0.252   3.763
 2825TIP3    H2 8419   4.251   0.211   3.773
 2826TIP3   OH2 8420   5.000   0.181   2.584
 2826TIP3    H1 8421   5.081   0.136   2.606
 2826TIP3    H2 8422   4.944   0.114   2.546
 2827TIP3   OH2 8423   2.471   1.568   6.451
 2827TIP3    H1 8424   2.418   1.513   6.393
 2827TIP3    H2 8425   2.558   1.568   6.410
 2828TIP3   OH2 8426   5.477   7.191   0.849
 2828TIP3    H1 8427   5.491   7.269   0.796
 2828TIP3    H2 8428   5.418   7.220   0.919
 2829TIP3   OH2 8429   2.205   7.658   5.165
 2829TIP3    H1 8430   2.127   7.615   5.129
 2829TIP3    H2 8431   2.225   7.727   5.102
 2830TIP3   OH2 8432   2.212   4.558   4.588
 2830TIP3    H1 8433   2.191   4.545   4.681
 2830TIP3    H2 8434   2.253   4.476   4.561
 2831TIP3   OH2 8435   0.691   2.874   3.495
 2831TIP3    H1 8436   0.631   2.820   3.443
 2831TIP3    H2 8437   0.662   2.964   3.481
 2832TIP3   OH2 8438   4.569   1.668   1.124
 2832TIP3    H1 8439   4.520   1.737   1.167
 2832TIP3    H2 8440   4.628   1.713   1.064
 2833TIP3   OH2 8441   6.233   0.892   2.701
 2833TIP3    H1 8442   6.226   0.945   2.622
 2833TIP3    H2 8443   6.265   0.807   2.670
 2834TIP3   OH2 8444   5.812   0.347   5.837
 2834TIP3    H1 8445   5.880   0.414   5.837
 2834TIP3    H2 8446   5.808   0.318   5.929
 2835TIP3   OH2 8447   6.850   4.000   2.198
 2835TIP3    H1 8448   6.836   4.074   2.139
 2835TIP3    H2 8449   6.842   4.038   2.286
 2836TIP3   OH2 8450   1.030   0.711   5.225
 2836TIP3    H1 8451   1.005   0.803   5.220
 2836TIP3    H2 8452   0.980   0.668   5.155
 2837TIP3   OH2 8453   6.522   2.282   5.470
 2837TIP3    H1 8454   6.561   2.202   5.507
 2837TIP3    H2 8455   6.501   2.258   5.380
 2838TIP3   OH2 8456   5.811   3.446   0.938
 2838TIP3    H1 8457   5.725   3.404   0.935
 2838TIP3    H2 8458   5.861   3.393   1.000
 2839TIP3   OH2 8459   7.681   6.754   5.365
 2839TIP3    H1 8460   7.664   6.689   5.433
 2839TIP3    H2 8461   7.596   6.771   5.325
 2840TIP3   OH2 8462   7.541   7.494   0.470
 2840TIP3    H1 8463   7.529   7.506   0.376
 2840TIP3    H2 8464   7.619   7.440   0.478
 2841TIP3   OH2 8465   7.829   6.662   2.802
 2841TIP3    H1 8466   7.909   6.698   2.840
 2841TIP3    H2 8467   7.788   6.613   2.873
 2842TIP3   OH2 8468   3.436   2.329   0.202
 2842TIP3    H1 8469   3.361   2.362   0.251
 2842TIP3    H2 8470   3.401   2.307   0.116
 2843TIP3   OH2 8471   2.134   6.477   1.897
 2843TIP3    H1 8472   2.080   6.542   1.853
 2843TIP3    H2 8473   2.213   6.471   1.844
 2844TIP3   OH2 8474   2.376   0.768   2.957
 2844TIP3    H1 8475   2.367   0.706   2.884
 2844TIP3    H2 8476   2.392   0.852   2.915
 2845TIP3   OH2 8477   3.629   1.749   1.029
 2845TIP3    H1 8478   3.571   1.823   1.046
 2845TIP3    H2 8479   3.667   1.768   0.943
 2846TIP3   OH2 8480   2.636   7.359   4.289
 2846TIP3    H1 8481   2.655   7.334   4.198
 2846TIP3    H2 8482   2.631   7.455   4.286
 2847TIP3   OH2 8483   1.043   5.488   4.609
 2847TIP3    H1 8484   1.130   5.528   4.609
 2847TIP3    H2 8485   1.056   5.399   4.577
 2848TIP3   OH2 8486   2.909   6.082   4.883
 2848TIP3    H1 8487   2.934   6.174   4.876
 2848TIP3    H2 8488   2.914   6.049   4.793
 2849TIP3   OH2 8489   1.070   0.694  -0.015
 2849TIP3    H1 8490   1.084   0.659   0.073
 2849TIP3    H2 8491   1.005   0.636  -0.055
 2850TIP3   OH2 8492   5.645   0.418   6.416
 2850TIP3    H1 8493   5.562   0.442   6.457
 2850TIP3    H2 8494   5.621   0.353   6.349
 2851TIP3   OH2 8495   0.581   4.630   5.025
 2851TIP3    H1 8496   0.609   4.710   5.071
 2851TIP3    H2 8497   0.556   4.570   5.095
 2852TIP3   OH2 8498   5.604   7.067   1.494
 2852TIP3    H1 8499   5.659   7.145   1.492
 2852TIP3    H2 8500   5.663   6.997   1.523
 2853TIP3   OH2 8501   4.501   3.300   3.217
 2853TIP3    H1 8502   4.556   3.347   3.279
 2853TIP3    H2 8503   4.422   3.278   3.266
 2854TIP3   OH2 8504   5.815   3.576   0.364
 2854TIP3    H1 8505   5.901   3.614   0.379
 2854TIP3    H2 8506   5.832   3.503   0.304
 2855TIP3   OH2 8507   7.747   5.004   3.976
 2855TIP3    H1 8508   7.758   4.911   3.992
 2855TIP3    H2 8509   7.828   5.030   3.931
 2856TIP3   OH2 8510   7.193   2.376   0.809
 2856TIP3    H1 8511   7.122   2.398   0.748
 2856TIP3    H2 8512   7.199   2.452   0.867
 2857TIP3   OH2 8513   5.145   2.690   4.797
 2857TIP3    H1 8514   5.053   2.679   4.819
 2857TIP3    H2 8515   5.156   2.785   4.786
 2858TIP3   OH2 8516   2.674   2.496   2.139
 2858TIP3    H1 8517   2.617   2.532   2.071
 2858TIP3    H2 8518   2.755   2.547   2.132
 2859TIP3   OH2 8519   1.322   3.601   3.197
 2859TIP3    H1 8520   1.241   3.567   3.236
 2859TIP3    H2 8521   1.390   3.543   3.230
 2860TIP3   OH2 8522   3.728   6.938   2.633
 2860TIP3    H1 8523   3.809   6.900   2.598
 2860TIP3    H2 8524   3.745   6.948   2.727
 2861TIP3   OH2 8525   1.059   0.795   3.168
 2861TIP3    H1 8526   1.112   0.736   3.219
 2861TIP3    H2 8527   1.011   0.847   3.232
 2862TIP3   OH2 8528   6.254   6.723   5.157
 2862TIP3    H1 8529   6.187   6.764   5.212
 2862TIP3    H2 8530   6.269   6.637   5.196
 2863TIP3   OH2 8531   4.050   4.724   3.345
 2863TIP3    H1 8532   3.963   4.763   3.336
 2863TIP3    H2 8533   4.038   4.633   3.318
 2864TIP3   OH2 8534   7.726   1.229   5.305
 2864TIP3    H1 8535   7.653   1.173   5.332
 2864TIP3    H2 8536   7.726   1.223   5.209
 2865TIP3   OH2 8537   1.142   1.909   4.931
 2865TIP3    H1 8538   1.228   1.933   4.966
 2865TIP3    H2 8539   1.137   1.954   4.846
 2866TIP3   OH2 8540   1.048   3.259   6.711
 2866TIP3    H1 8541   1.141   3.281   6.706
 2866TIP3    H2 8542   1.027   3.223   6.625
 2867TIP3   OH2 8543   0.014   5.946   6.244
 2867TIP3    H1 8544  -0.032   5.876   6.291
 2867TIP3    H2 8545   0.056   5.902   6.170
 2868TIP3   OH2 8546   1.029   5.315   0.473
 2868TIP3    H1 8547   1.025   5.343   0.382
 2868TIP3    H2 8548   1.106   5.358   0.509
 2869TIP3   OH2 8549   0.314   3.885   3.015
 2869TIP3    H1 8550   0.341   3.848   3.099
 2869TIP3    H2 8551   0.363   3.836   2.949
 2870TIP3   OH2 8552   7.508   7.211   5.844
 2870TIP3    H1 8553   7.427   7.166   5.818
 2870TIP3    H2 8554   7.479   7.282   5.900
 2871TIP3   OH2 8555   5.525   0.218   6.688
 2871TIP3    H1 8556   5.621   0.224   6.697
 2871TIP3    H2 8557   5.513   0.151   6.620
 2872TIP3   OH2 8558   5.521   7.400   1.350
 2872TIP3    H1 8559   5.598   7.408   1.406
 2872TIP3    H2 8560   5.536   7.463   1.279
 2873TIP3   OH2 8561   3.393   7.229   4.968
 2873TIP3    H1 8562   3.467   7.285   4.946
 2873TIP3    H2 8563   3.320   7.289   4.981
 2874TIP3   OH2 8564   5.127   0.060   0.835
 2874TIP3    H1 8565   5.090   0.144   0.864
 2874TIP3    H2 8566   5.075   0.036   0.759
 2875TIP3   OH2 8567   1.218   3.949   1.097
 2875TIP3    H1 8568   1.138   3.935   1.046
 2875TIP3    H2 8569   1.201   3.904   1.180
 2876TIP3   OH2 8570   7.647   4.024   0.987
 2876TIP3    H1 8571   7.660   4.116   1.010
 2876TIP3    H2 8572   7.641   3.979   1.071
 2877TIP3   OH2 8573   4.087   6.890   1.051
 2877TIP3    H1 8574   4.029   6.836   0.997
 2877TIP3    H2 8575   4.175   6.862   1.026
 2878TIP3   OH2 8576   7.583   4.578   3.181
 2878TIP3    H1 8577   7.605   4.528   3.260
 2878TIP3    H2 8578   7.559   4.665   3.214
 2879TIP3   OH2 8579   4.791   4.538   4.047
 2879TIP3    H1 8580   4.747   4.470   3.996
 2879TIP3    H2 8581   4.840   4.589   3.982
 2880TIP3   OH2 8582   7.889   3.800   0.324
 2880TIP3    H1 8583   7.975   3.775   0.290
 2880TIP3    H2 8584   7.897   3.794   0.419
 2881TIP3   OH2 8585   2.153   4.083   2.224
 2881TIP3    H1 8586   2.219   4.084   2.293
 2881TIP3    H2 8587   2.199   4.115   2.146
 2882TIP3   OH2 8588   3.139   0.184   3.768
 2882TIP3    H1 8589   3.194   0.110   3.792
 2882TIP3    H2 8590   3.109   0.164   3.679
 2883TIP3   OH2 8591   1.152   3.116   5.145
 2883TIP3    H1 8592   1.117   3.101   5.057
 2883TIP3    H2 8593   1.239   3.078   5.143
 2884TIP3   OH2 8594   3.864   5.808   0.118
 2884TIP3    H1 8595   3.948   5.851   0.101
 2884TIP3    H2 8596   3.799   5.877   0.109
 2885TIP3   OH2 8597   8.113   2.896   0.355
 2885TIP3    H1 8598   8.191   2.845   0.378
 2885TIP3    H2 8599   8.144   2.958   0.289
 2886TIP3   OH2 8600   3.085   7.526   0.725
 2886TIP3    H1 8601   3.101   7.454   0.786
 2886TIP3    H2 8602   3.059   7.600   0.781
 2887TIP3   OH2 8603   5.143   4.605   0.172
 2887TIP3    H1 8604   5.153   4.684   0.225
 2887TIP3    H2 8605   5.216   4.549   0.199
 2888TIP3   OH2 8606   7.596   4.602   4.970
 2888TIP3    H1 8607   7.574   4.573   4.882
 2888TIP3    H2 8608   7.527   4.566   5.026
 2889TIP3   OH2 8609   5.513   1.005   0.735
 2889TIP3    H1 8610   5.595   0.966   0.767
 2889TIP3    H2 8611   5.535   1.097   0.722
 2890TIP3   OH2 8612   4.003   2.549   3.666
 2890TIP3    H1 8613   3.966   2.509   3.587
 2890TIP3    H2 8614   3.926   2.578   3.716
 2891TIP3   OH2 8615   5.370   2.664   3.208
 2891TIP3    H1 8616   5.308   2.718   3.258
 2891TIP3    H2 8617   5.334   2.661   3.120
 2892TIP3   OH2 8618   5.889   2.711   2.270
 2892TIP3    H1 8619   5.872   2.675   2.358
 2892TIP3    H2 8620   5.912   2.803   2.286
 2893TIP3   OH2 8621   6.785   0.599   0.815
 2893TIP3    H1 8622   6.796   0.557   0.730
 2893TIP3    H2 8623   6.835   0.680   0.808
 2894TIP3   OH2 8624   3.443   7.706   2.893
 2894TIP3    H1 8625   3.507   7.773   2.918
 2894TIP3    H2 8626   3.429   7.656   2.974
 2895TIP3   OH2 8627   3.963   0.697   6.170
 2895TIP3    H1 8628   3.968   0.632   6.240
 2895TIP3    H2 8629   3.897   0.663   6.109
 2896TIP3   OH2 8630   1.267   1.780   0.112
 2896TIP3    H1 8631   1.301   1.757   0.026
 2896TIP3    H2 8632   1.205   1.710   0.132
 2897TIP3   OH2 8633   4.091   6.737   3.165
 2897TIP3    H1 8634   4.111   6.664   3.106
 2897TIP3    H2 8635   4.157   6.729   3.234
 2898TIP3   OH2 8636   6.499   4.150   5.044
 2898TIP3    H1 8637   6.572   4.165   4.983
 2898TIP3    H2 8638   6.542   4.124   5.126
 2899TIP3   OH2 8639   2.849   5.752   6.434
 2899TIP3    H1 8640   2.769   5.791   6.470
 2899TIP3    H2 8641   2.902   5.731   6.511
 2900TIP3   OH2 8642   6.397   0.814   5.029
 2900TIP3    H1 8643   6.359   0.793   4.943
 2900TIP3    H2 8644   6.482   0.771   5.029
 2901TIP3   OH2 8645   4.045   6.119   6.498
 2901TIP3    H1 8646   4.016   6.030   6.475
 2901TIP3    H2 8647   4.012   6.132   6.587
 2902TIP3   OH2 8648   4.507   2.504   2.011
 2902TIP3    H1 8649   4.585   2.540   1.969
 2902TIP3    H2 8650   4.482   2.430   1.956
 2903TIP3   OH2 8651   6.870   0.228   6.729
 2903TIP3    H1 8652   6.849   0.291   6.660
 2903TIP3    H2 8653   6.964   0.240   6.745
 2904TIP3   OH2 8654   0.904   7.763   0.852
 2904TIP3    H1 8655   0.870   7.727   0.934
 2904TIP3    H2 8656   0.830   7.762   0.792
 2905TIP3   OH2 8657   1.940   2.498   4.243
 2905TIP3    H1 8658   1.861   2.446   4.228
 2905TIP3    H2 8659   1.908   2.587   4.256
 2906TIP3   OH2 8660   0.681   2.254   2.606
 2906TIP3    H1 8661   0.637   2.226   2.526
 2906TIP3    H2 8662   0.774   2.259   2.582
 2907TIP3   OH2 8663   2.954   6.386   5.320
 2907TIP3    H1 8664   2.875   6.404   5.371
 2907TIP3    H2 8665   2.962   6.461   5.261
 2908TIP3   OH2 8666   6.310   1.488   3.194
 2908TIP3    H1 8667   6.342   1.566   3.239
 2908TIP3    H2 8668   6.252   1.446   3.258
 2909TIP3   OH2 8669   0.257   2.802   1.207
 2909TIP3    H1 8670   0.241   2.823   1.299
 2909TIP3    H2 8671   0.182   2.749   1.180
 2910TIP3   OH2 8672   1.189   3.855   0.174
 2910TIP3    H1 8673   1.197   3.949   0.192
 2910TIP3    H2 8674   1.096   3.842   0.155
 2911TIP3   OH2 8675   6.565   2.503   1.584
 2911TIP3    H1 8676   6.553   2.497   1.490
 2911TIP3    H2 8677   6.652   2.540   1.596
 2912TIP3   OH2 8678   0.937   4.742   4.547
 2912TIP3    H1 8679   0.864   4.693   4.586
 2912TIP3    H2 8680   1.012   4.720   4.602
 2913TIP3   OH2 8681   3.703   5.365   5.783
 2913TIP3    H1 8682   3.691   5.457   5.807
 2913TIP3    H2 8683   3.615   5.335   5.761
 2914TIP3   OH2 8684   0.797   3.148   4.535
 2914TIP3    H1 8685   0.883   3.181   4.563
 2914TIP3    H2 8686   0.818   3.074   4.478
 2915TIP3   OH2 8687   7.541   1.758   2.308
 2915TIP3    H1 8688   7.477   1.715   2.252
 2915TIP3    H2 8689   7.532   1.715   2.393
 2916TIP3   OH2 8690   8.332   3.421   5.626
 2916TIP3    H1 8691   8.288   3.473   5.694
 2916TIP3    H2 8692   8.413   3.393   5.667
 2917TIP3   OH2 8693   2.940   1.003   3.164
 2917TIP3    H1 8694   3.019   1.028   3.115
 2917TIP3    H2 8695   2.868   1.041   3.114
 2918TIP3   OH2 8696   1.612   1.906   6.509
 2918TIP3    H1 8697   1.650   1.823   6.481
 2918TIP3    H2 8698   1.620   1.905   6.605
 2919TIP3   OH2 8699   2.954   0.741   3.682
 2919TIP3    H1 8700   2.954   0.700   3.768
 2919TIP3    H2 8701   2.971   0.834   3.699
 2920TIP3   OH2 8702   6.277   0.821   4.218
 2920TIP3    H1 8703   6.225   0.787   4.145
 2920TIP3    H2 8704   6.363   0.838   4.181
 2921TIP3   OH2 8705   1.183   3.063   2.419
 2921TIP3    H1 8706   1.227   3.137   2.377
 2921TIP3    H2 8707   1.092   3.070   2.389
 2922TIP3   OH2 8708   7.834   3.641   3.460
 2922TIP3    H1 8709   7.897   3.691   3.408
 2922TIP3    H2 8710   7.863   3.653   3.550
 2923TIP3   OH2 8711   2.339   6.321   4.599
 2923TIP3    H1 8712   2.424   6.356   4.573
 2923TIP3    H2 8713   2.355   6.279   4.684
 2924TIP3   OH2 8714   5.880   6.333   6.666
 2924TIP3    H1 8715   5.952   6.271   6.682
 2924TIP3    H2 8716   5.838   6.344   6.751
 2925TIP3   OH2 8717   5.956   0.651   3.351
 2925TIP3    H1 8718   5.946   0.584   3.419
 2925TIP3    H2 8719   6.020   0.615   3.291
 2926TIP3   OH2 8720   6.274   3.937   6.435
 2926TIP3    H1 8721   6.240   3.904   6.352
 2926TIP3    H2 8722   6.369   3.942   6.422
 2927TIP3   OH2 8723   2.314   1.896   6.095
 2927TIP3    H1 8724   2.371   1.970   6.073
 2927TIP3    H2 8725   2.372   1.832   6.135
 2928TIP3   OH2 8726   3.117   0.183   2.878
 2928TIP3    H1 8727   3.067   0.149   2.953
 2928TIP3    H2 8728   3.208   0.169   2.903
 2929TIP3   OH2 8729   5.297   5.551   4.638
 2929TIP3    H1 8730   5.385   5.540   4.675
 2929TIP3    H2 8731   5.307   5.526   4.546
 2930TIP3   OH2 8732   4.277   5.195   5.741
 2930TIP3    H1 8733   4.277   5.166   5.833
 2930TIP3    H2 8734   4.367   5.182   5.713
 2931TIP3   OH2 8735   1.180   2.494   5.198
 2931TIP3    H1 8736   1.222   2.482   5.283
 2931TIP3    H2 8737   1.095   2.449   5.207
 2932TIP3   OH2 8738   8.019   7.627   4.710
 2932TIP3    H1 8739   8.000   7.536   4.733
 2932TIP3    H2 8740   8.044   7.668   4.793
 2933TIP3   OH2 8741   2.103   3.538   5.271
 2933TIP3    H1 8742   2.184   3.512   5.315
 2933TIP3    H2 8743   2.133   3.581   5.190
 2934TIP3   OH2 8744   6.177   7.492   4.350
 2934TIP3    H1 8745   6.230   7.565   4.317
 2934TIP3    H2 8746   6.241   7.430   4.385
 2935TIP3   OH2 8747   1.763   2.307   5.471
 2935TIP3    H1 8748   1.674   2.342   5.470
 2935TIP3    H2 8749   1.791   2.314   5.562
 2936TIP3   OH2 8750   3.110   0.470   5.084
 2936TIP3    H1 8751   3.100   0.391   5.031
 2936TIP3    H2 8752   3.026   0.478   5.130
 2937TIP3   OH2 8753   2.983   0.003   4.538
 2937TIP3    H1 8754   2.907   0.062   4.537
 2937TIP3    H2 8755   3.053   0.056   4.577
 2938TIP3   OH2 8756   7.465   3.592   0.812
 2938TIP3    H1 8757   7.483   3.685   0.824
 2938TIP3    H2 8758   7.372   3.583   0.833
 2939TIP3   OH2 8759   7.216   5.817   1.416
 2939TIP3    H1 8760   7.147   5.801   1.480
 2939TIP3    H2 8761   7.295   5.832   1.468
 2940TIP3   OH2 8762   0.914   3.187   6.030
 2940TIP3    H1 8763   0.999   3.147   6.045
 2940TIP3    H2 8764   0.870   3.128   5.969
 2941TIP3   OH2 8765   6.698   3.170   3.131
 2941TIP3    H1 8766   6.751   3.124   3.066
 2941TIP3    H2 8767   6.742   3.254   3.144
 2942TIP3   OH2 8768   7.806   2.305   5.047
 2942TIP3    H1 8769   7.768   2.302   5.134
 2942TIP3    H2 8770   7.796   2.215   5.014
 2943TIP3   OH2 8771   1.404   0.071   6.054
 2943TIP3    H1 8772   1.444   0.049   6.138
 2943TIP3    H2 8773   1.452   0.149   6.025
 2944TIP3   OH2 8774   0.266   5.229   4.324
 2944TIP3    H1 8775   0.312   5.245   4.406
 2944TIP3    H2 8776   0.176   5.209   4.350
 2945TIP3   OH2 8777   6.798   7.177   3.750
 2945TIP3    H1 8778   6.785   7.146   3.840
 2945TIP3    H2 8779   6.833   7.101   3.703
 2946TIP3   OH2 8780   0.228   7.372   3.926
 2946TIP3    H1 8781   0.183   7.348   4.007
 2946TIP3    H2 8782   0.221   7.294   3.871
 2947TIP3   OH2 8783   1.885   2.428   0.599
 2947TIP3    H1 8784   1.817   2.370   0.633
 2947TIP3    H2 8785   1.907   2.486   0.672
 2948TIP3   OH2 8786   5.906   6.445   1.520
 2948TIP3    H1 8787   5.934   6.479   1.434
 2948TIP3    H2 8788   5.980   6.466   1.578
 2949TIP3   OH2 8789   6.510   4.303   1.869
 2949TIP3    H1 8790   6.460   4.246   1.810
 2949TIP3    H2 8791   6.444   4.362   1.905
 2950TIP3   OH2 8792   8.002   5.790   6.104
 2950TIP3    H1 8793   8.052   5.733   6.046
 2950TIP3    H2 8794   7.912   5.783   6.072
 2951TIP3   OH2 8795   5.442   0.206   1.029
 2951TIP3    H1 8796   5.414   0.137   1.089
 2951TIP3    H2 8797   5.363   0.231   0.982
 2952TIP3   OH2 8798   1.186   6.437   5.627
 2952TIP3    H1 8799   1.146   6.388   5.698
 2952TIP3    H2 8800   1.113   6.475   5.579
 2953TIP3   OH2 8801   2.905   5.938   5.926
 2953TIP3    H1 8802   2.876   5.974   6.010
 2953TIP3    H2 8803   2.840   5.871   5.905
 2954TIP3   OH2 8804   4.702   4.271   4.615
 2954TIP3    H1 8805   4.647   4.349   4.626
 2954TIP3    H2 8806   4.774   4.283   4.677
 2955TIP3   OH2 8807   0.794   3.941   3.540
 2955TIP3    H1 8808   0.768   4.003   3.608
 2955TIP3    H2 8809   0.750   3.972   3.461
 2956TIP3   OH2 8810   3.393   1.712   2.940
 2956TIP3    H1 8811   3.475   1.679   2.977
 2956TIP3    H2 8812   3.362   1.775   3.004
 2957TIP3   OH2 8813   7.871   4.417   2.527
 2957TIP3    H1 8814   7.880   4.420   2.623
 2957TIP3    H2 8815   7.777   4.425   2.512
 2958TIP3   OH2 8816   1.167   5.605   1.397
 2958TIP3    H1 8817   1.196   5.585   1.308
 2958TIP3    H2 8818   1.127   5.524   1.428
 2959TIP3   OH2 8819   6.855   7.797   4.101
 2959TIP3    H1 8820   6.949   7.777   4.103
 2959TIP3    H2 8821   6.819   7.738   4.035
 2960TIP3   OH2 8822   4.349   0.415   6.022
 2960TIP3    H1 8823   4.275   0.411   5.961
 2960TIP3    H2 8824   4.313   0.384   6.105
 2961TIP3   OH2 8825   2.963   7.086   2.520
 2961TIP3    H1 8826   2.975   7.001   2.562
 2961TIP3    H2 8827   3.022   7.145   2.567
 2962TIP3   OH2 8828   3.374   3.196   5.758
 2962TIP3    H1 8829   3.415   3.247   5.828
 2962TIP3    H2 8830   3.280   3.214   5.767
 2963TIP3   OH2 8831   1.888   4.762   6.659
 2963TIP3    H1 8832   1.908   4.752   6.752
 2963TIP3    H2 8833   1.945   4.833   6.629
 2964TIP3   OH2 8834   0.918   2.110   4.686
 2964TIP3    H1 8835   0.823   2.096   4.687
 2964TIP3    H2 8836   0.954   2.026   4.658
 2965TIP3   OH2 8837   1.280   1.360   5.279
 2965TIP3    H1 8838   1.289   1.313   5.196
 2965TIP3    H2 8839   1.347   1.428   5.276
 2966TIP3   OH2 8840   1.563   5.340   4.764
 2966TIP3    H1 8841   1.554   5.433   4.745
 2966TIP3    H2 8842   1.653   5.318   4.739
 2967TIP3   OH2 8843   6.750   0.248   6.419
 2967TIP3    H1 8844   6.821   0.195   6.382
 2967TIP3    H2 8845   6.753   0.329   6.369
 2968TIP3   OH2 8846   4.818   6.007   6.484
 2968TIP3    H1 8847   4.846   6.082   6.538
 2968TIP3    H2 8848   4.738   6.038   6.441
 2969TIP3   OH2 8849   1.173   4.536   3.921
 2969TIP3    H1 8850   1.112   4.609   3.919
 2969TIP3    H2 8851   1.175   4.503   3.831
 2970TIP3   OH2 8852   6.706   0.285   2.908
 2970TIP3    H1 8853   6.674   0.375   2.903
 2970TIP3    H2 8854   6.626   0.232   2.915
 2971TIP3   OH2 8855   5.962   2.001   3.085
 2971TIP3    H1 8856   5.967   2.060   3.161
 2971TIP3    H2 8857   5.955   2.060   3.010
 2972TIP3   OH2 8858   7.644   2.073   3.869
 2972TIP3    H1 8859   7.667   2.023   3.791
 2972TIP3    H2 8860   7.720   2.062   3.927
 2973TIP3   OH2 8861   1.664   3.663   2.409
 2973TIP3    H1 8862   1.627   3.585   2.367
 2973TIP3    H2 8863   1.617   3.670   2.492
 2974TIP3   OH2 8864   7.651   6.269   2.413
 2974TIP3    H1 8865   7.602   6.287   2.332
 2974TIP3    H2 8866   7.669   6.175   2.409
 2975TIP3   OH2 8867   0.822   6.567   0.535
 2975TIP3    H1 8868   0.816   6.659   0.511
 2975TIP3    H2 8869   0.852   6.523   0.456
 2976TIP3   OH2 8870   3.465   5.193   6.743
 2976TIP3    H1 8871   3.440   5.283   6.724
 2976TIP3    H2 8872   3.444   5.144   6.663
 2977TIP3   OH2 8873   0.476   4.840   6.056
 2977TIP3    H1 8874   0.415   4.904   6.020
 2977TIP3    H2 8875   0.561   4.865   6.021
 2978TIP3   OH2 8876   5.945   4.843   1.385
 2978TIP3    H1 8877   6.022   4.791   1.361
 2978TIP3    H2 8878   5.922   4.889   1.305
 2979TIP3   OH2 8879   3.067   7.345   2.036
 2979TIP3    H1 8880   3.074   7.274   1.973
 2979TIP3    H2 8881   2.980   7.336   2.075
 2980TIP3   OH2 8882   3.498   7.228   2.018
 2980TIP3    H1 8883   3.501   7.270   1.932
 2980TIP3    H2 8884   3.445   7.286   2.072
 2981TIP3   OH2 8885   1.130   4.162   6.306
 2981TIP3    H1 8886   1.166   4.237   6.354
 2981TIP3    H2 8887   1.207   4.118   6.270
 2982TIP3   OH2 8888   4.368   6.010   0.849
 2982TIP3    H1 8889   4.457   5.980   0.866
 2982TIP3    H2 8890   4.316   5.972   0.919
 2983TIP3   OH2 8891   1.132   2.263   6.507
 2983TIP3    H1 8892   1.156   2.207   6.434
 2983TIP3    H2 8893   1.108   2.346   6.466
 2984TIP3   OH2 8894   3.055   0.137   1.122
 2984TIP3    H1 8895   3.005   0.134   1.041
 2984TIP3    H2 8896   3.110   0.059   1.120
 2985TIP3   OH2 8897   7.962   5.303   6.018
 2985TIP3    H1 8898   7.999   5.358   6.087
 2985TIP3    H2 8899   7.988   5.214   6.043
 2986TIP3   OH2 8900   3.343   0.942   4.943
 2986TIP3    H1 8901   3.365   0.974   5.031
 2986TIP3    H2 8902   3.287   0.866   4.959
 2987TIP3   OH2 8903   0.091   3.706   3.595
 2987TIP3    H1 8904   0.077   3.797   3.620
 2987TIP3    H2 8905   0.174   3.707   3.546
 2988TIP3   OH2 8906   6.861   0.310   1.159
 2988TIP3    H1 8907   6.846   0.292   1.067
 2988TIP3    H2 8908   6.819   0.238   1.205
 2989TIP3   OH2 8909   6.294   0.865   6.504
 2989TIP3    H1 8910   6.363   0.827   6.450
 2989TIP3    H2 8911   6.292   0.957   6.480
 2990TIP3   OH2 8912   1.547   3.311   1.029
 2990TIP3    H1 8913   1.613   3.359   0.979
 2990TIP3    H2 8914   1.504   3.255   0.965
 2991TIP3   OH2 8915   4.747   1.368   1.951
 2991TIP3    H1 8916   4.677   1.342   1.892
 2991TIP3    H2 8917   4.702   1.397   2.030
 2992TIP3   OH2 8918   7.893   5.318   5.742
 2992TIP3    H1 8919   7.982   5.302   5.709
 2992TIP3    H2 8920   7.898   5.297   5.835
 2993TIP3   OH2 8921   0.299   0.122   3.796
 2993TIP3    H1 8922   0.222   0.067   3.784
 2993TIP3    H2 8923   0.321   0.152   3.708
 2994TIP3   OH2 8924   0.784   2.454   0.408
 2994TIP3    H1 8925   0.742   2.371   0.386
 2994TIP3    H2 8926   0.878   2.434   0.409
 2995TIP3   OH2 8927   0.617   5.431   4.624
 2995TIP3    H1 8928   0.695   5.487   4.624
 2995TIP3    H2 8929   0.648   5.346   4.593
 2996TIP3   OH2 8930   0.774   7.063   3.726
 2996TIP3    H1 8931   0.711   7.080   3.656
 2996TIP3    H2 8932   0.742   6.983   3.767
 2997TIP3   OH2 8933   3.347   7.528   1.447
 2997TIP3    H1 8934   3.263   7.563   1.418
 2997TIP3    H2 8935   3.412   7.585   1.406
 2998TIP3   OH2 8936   3.917   4.514   4.656
 2998TIP3    H1 8937   3.974   4.438   4.649
 2998TIP3    H2 8938   3.975   4.589   4.646
 2999TIP3   OH2 8939   3.466   2.867   1.803
 2999TIP3    H1 8940   3.410   2.943   1.788
 2999TIP3    H2 8941   3.409   2.792   1.789
 3000TIP3   OH2 8942   3.903   1.049   4.571
 3000TIP3    H1 8943   3.972   1.116   4.563
 3000TIP3    H2 8944   3.850   1.060   4.493
 3001TIP3   OH2 8945   0.201   2.643   4.352
 3001TIP3    H1 8946   0.208   2.706   4.424
 3001TIP3    H2 8947   0.112   2.609   4.358
 3002TIP3   OH2 8948   1.659   2.550   3.684
 3002TIP3    H1 8949   1.576   2.594   3.666
 3002TIP3    H2 8950   1.725   2.607   3.644
 3003TIP3   OH2 8951   8.041   7.763   4.947
 3003TIP3    H1 8952   7.952   7.780   4.978
 3003TIP3    H2 8953   8.077   7.700   5.010
 3004TIP3   OH2 8954   8.262   6.389   5.450
 3004TIP3    H1 8955   8.227   6.305   5.479
 3004TIP3    H2 8956   8.301   6.372   5.365
 3005TIP3   OH2 8957   2.035   2.812   6.207
 3005TIP3    H1 8958   2.088   2.886   6.238
 3005TIP3    H2 8959   2.069   2.737   6.256
 3006TIP3   OH2 8960   4.619   0.319   6.296
 3006TIP3    H1 8961   4.623   0.332   6.201
 3006TIP3    H2 8962   4.606   0.225   6.306
 3007TIP3   OH2 8963   6.649   7.429   3.788
 3007TIP3    H1 8964   6.564   7.388   3.802
 3007TIP3    H2 8965   6.711   7.356   3.788
 3008TIP3   OH2 8966   4.447   6.005   1.231
 3008TIP3    H1 8967   4.505   6.038   1.299
 3008TIP3    H2 8968   4.396   6.082   1.205
 3009TIP3   OH2 8969   7.790   3.382   2.052
 3009TIP3    H1 8970   7.791   3.428   2.136
 3009TIP3    H2 8971   7.806   3.290   2.075
 3010TIP3   OH2 8972   0.399   7.410   6.452
 3010TIP3    H1 8973   0.384   7.350   6.525
 3010TIP3    H2 8974   0.321   7.400   6.397
 3011TIP3   OH2 8975   3.031   6.990   1.081
 3011TIP3    H1 8976   3.115   7.007   1.039
 3011TIP3    H2 8977   3.035   7.038   1.164
 3012TIP3   OH2 8978   0.198   1.481   5.532
 3012TIP3    H1 8979   0.142   1.514   5.463
 3012TIP3    H2 8980   0.138   1.449   5.599
 3013TIP3   OH2 8981   5.874   0.874   5.488
 3013TIP3    H1 8982   5.927   0.795   5.493
 3013TIP3    H2 8983   5.912   0.933   5.554
 3014TIP3   OH2 8984   1.479   6.036   6.611
 3014TIP3    H1 8985   1.475   5.944   6.584
 3014TIP3    H2 8986   1.519   6.082   6.537
 3015TIP3   OH2 8987   6.471   3.723   5.958
 3015TIP3    H1 8988   6.443   3.664   6.028
 3015TIP3    H2 8989   6.465   3.811   5.996
 3016TIP3   OH2 8990   0.674   4.940   4.307
 3016TIP3    H1 8991   0.733   5.015   4.300
 3016TIP3    H2 8992   0.725   4.867   4.273
 3017TIP3   OH2 8993   7.187   1.257   6.733
 3017TIP3    H1 8994   7.232   1.262   6.648
 3017TIP3    H2 8995   7.094   1.253   6.710
 3018TIP3   OH2 8996   7.717   5.938   3.118
 3018TIP3    H1 8997   7.808   5.969   3.115
 3018TIP3    H2 8998   7.720   5.859   3.172
 3019TIP3   OH2 8999   6.251   2.939   3.128
 3019TIP3    H1 9000   6.278   2.933   3.037
 3019TIP3    H2 9001   6.295   3.017   3.162
 3020TIP3   OH2 9002   7.502   1.312   6.273
 3020TIP3    H1 9003   7.547   1.368   6.336
 3020TIP3    H2 9004   7.552   1.230   6.273
 3021TIP3   OH2 9005   4.553   1.829   5.977
 3021TIP3    H1 9006   4.591   1.905   6.022
 3021TIP3    H2 9007   4.500   1.786   6.043
 3022TIP3   OH2 9008   3.138   6.519   3.907
 3022TIP3    H1 9009   3.121   6.459   3.834
 3022TIP3    H2 9010   3.058   6.571   3.915
 3023TIP3   OH2 9011   4.692   4.719   2.243
 3023TIP3    H1 9012   4.769   4.734   2.299
 3023TIP3    H2 9013   4.669   4.806   2.211
 3024TIP3   OH2 9014   3.888   3.659   6.587
 3024TIP3    H1 9015   3.801   3.654   6.546
 3024TIP3    H2 9016   3.886   3.593   6.656
 3025TIP3   OH2 9017   2.584   7.050   4.833
 3025TIP3    H1 9018   2.614   6.959   4.824
 3025TIP3    H2 9019   2.551   7.056   4.922
 3026TIP3   OH2 9020   1.846   2.554   3.903
 3026TIP3    H1 9021   1.816   2.597   3.983
 3026TIP3    H2 9022   1.771   2.555   3.845
 3027TIP3   OH2 9023   6.092   3.547   2.535
 3027TIP3    H1 9024   6.067   3.459   2.565
 3027TIP3    H2 9025   6.130   3.533   2.449
 3028TIP3   OH2 9026   3.370   0.169   5.720
 3028TIP3    H1 9027   3.396   0.225   5.647
 3028TIP3    H2 9028   3.452   0.130   5.750
 3029TIP3   OH2 9029   3.247   4.191   2.607
 3029TIP3    H1 9030   3.212   4.173   2.520
 3029TIP3    H2 9031   3.170   4.197   2.664
 3030TIP3   OH2 9032   6.433   0.096   1.916
 3030TIP3    H1 9033   6.352   0.087   1.867
 3030TIP3    H2 9034   6.475   0.174   1.879
 3031TIP3   OH2 9035   3.707   4.839   5.631
 3031TIP3    H1 9036   3.670   4.801   5.711
 3031TIP3    H2 9037   3.756   4.915   5.661
 3032TIP3   OH2 9038   2.726   3.641   5.824
 3032TIP3    H1 9039   2.738   3.547   5.827
 3032TIP3    H2 9040   2.764   3.673   5.906
 3033TIP3   OH2 9041   6.144   4.521   3.273
 3033TIP3    H1 9042   6.082   4.594   3.275
 3033TIP3    H2 9043   6.182   4.524   3.185
 3034TIP3   OH2 9044   2.715   2.653   0.348
 3034TIP3    H1 9045   2.800   2.618   0.320
 3034TIP3    H2 9046   2.727   2.748   0.347
 3035TIP3   OH2 9047   0.983   6.867   1.016
 3035TIP3    H1 9048   1.019   6.927   0.950
 3035TIP3    H2 9049   0.960   6.924   1.090
 3036TIP3   OH2 9050   7.408   0.442   4.600
 3036TIP3    H1 9051   7.324   0.485   4.581
 3036TIP3    H2 9052   7.396   0.405   4.687
 3037TIP3   OH2 9053   0.065   2.485   0.517
 3037TIP3    H1 9054   0.122   2.507   0.591
 3037TIP3    H2 9055  -0.023   2.483   0.554
 3038TIP3   OH2 9056   1.801   0.953   6.274
 3038TIP3    H1 9057   1.852   0.971   6.352
 3038TIP3    H2 9058   1.710   0.953   6.303
 3039TIP3   OH2 9059   5.312   5.652   2.239
 3039TIP3    H1 9060   5.250   5.580   2.250
 3039TIP3    H2 9061   5.396   5.609   2.224
 3040TIP3   OH2 9062   8.022   6.527   2.557
 3040TIP3    H1 9063   7.954   6.513   2.623
 3040TIP3    H2 9064   8.071   6.603   2.589
 3041TIP3   OH2 9065   6.934   7.842   1.843
 3041TIP3    H1 9066   6.853   7.862   1.796
 3041TIP3    H2 9067   6.917   7.758   1.885
 3042TIP3   OH2 9068   6.821   6.039   0.973
 3042TIP3    H1 9069   6.886   5.987   1.020
 3042TIP3    H2 9070   6.753   5.977   0.949
 3043TIP3   OH2 9071   4.049   6.691   1.557
 3043TIP3    H1 9072   4.032   6.674   1.650
 3043TIP3    H2 9073   4.015   6.779   1.542
 3044TIP3   OH2 9074   8.268   5.673   5.776
 3044TIP3    H1 9075   8.226   5.741   5.830
 3044TIP3    H2 9076   8.196   5.636   5.725
 3045TIP3   OH2 9077   1.028   6.837   3.074
 3045TIP3    H1 9078   1.017   6.931   3.090
 3045TIP3    H2 9079   0.990   6.796   3.152
 3046TIP3   OH2 9080   7.757   7.183   2.669
 3046TIP3    H1 9081   7.839   7.232   2.676
 3046TIP3    H2 9082   7.715   7.195   2.754
 3047TIP3   OH2 9083   6.298   7.452   1.847
 3047TIP3    H1 9084   6.333   7.521   1.904
 3047TIP3    H2 9085   6.251   7.498   1.778
 3048TIP3   OH2 9086   5.307   5.329   2.086
 3048TIP3    H1 9087   5.338   5.239   2.098
 3048TIP3    H2 9088   5.383   5.384   2.106
 3049TIP3   OH2 9089   4.015   5.788   6.050
 3049TIP3    H1 9090   4.032   5.727   6.122
 3049TIP3    H2 9091   3.931   5.828   6.073
 3050TIP3   OH2 9092   0.534   5.998   2.262
 3050TIP3    H1 9093   0.567   5.912   2.237
 3050TIP3    H2 9094   0.530   6.047   2.180
 3051TIP3   OH2 9095   8.287   5.810   4.826
 3051TIP3    H1 9096   8.367   5.786   4.874
 3051TIP3    H2 9097   8.216   5.792   4.887
 3052TIP3   OH2 9098   4.520   3.047   4.393
 3052TIP3    H1 9099   4.591   3.101   4.357
 3052TIP3    H2 9100   4.496   3.091   4.475
 3053TIP3   OH2 9101   3.303   5.021   3.863
 3053TIP3    H1 9102   3.282   4.946   3.918
 3053TIP3    H2 9103   3.380   4.993   3.813
 3054TIP3   OH2 9104   1.326   4.874   3.904
 3054TIP3    H1 9105   1.303   4.925   3.982
 3054TIP3    H2 9106   1.244   4.832   3.878
 3055TIP3   OH2 9107   0.885   3.768   1.122
 3055TIP3    H1 9108   0.948   3.726   1.062
 3055TIP3    H2 9109   0.876   3.857   1.088
 3056TIP3   OH2 9110   3.472   1.932   6.308
 3056TIP3    H1 9111   3.494   2.019   6.342
 3056TIP3    H2 9112   3.450   1.947   6.216
 3057TIP3   OH2 9113   1.547   0.259   3.404
 3057TIP3    H1 9114   1.491   0.191   3.366
 3057TIP3    H2 9115   1.505   0.280   3.488
 3058TIP3   OH2 9116   1.547   0.591   5.982
 3058TIP3    H1 9117   1.636   0.615   5.958
 3058TIP3    H2 9118   1.532   0.633   6.067
 3059TIP3   OH2 9119   6.556   3.116   5.769
 3059TIP3    H1 9120   6.529   3.124   5.860
 3059TIP3    H2 9121   6.527   3.197   5.728
 3060TIP3   OH2 9122   2.826   2.309   6.206
 3060TIP3    H1 9123   2.819   2.320   6.301
 3060TIP3    H2 9124   2.920   2.304   6.189
 3061TIP3   OH2 9125   8.010   5.032   6.072
 3061TIP3    H1 9126   8.096   5.040   6.031
 3061TIP3    H2 9127   7.990   4.939   6.069
 3062TIP3   OH2 9128   5.231   3.110   1.423
 3062TIP3    H1 9129   5.287   3.155   1.359
 3062TIP3    H2 9130   5.145   3.150   1.411
 3063TIP3   OH2 9131   5.261   4.079   6.319
 3063TIP3    H1 9132   5.229   4.150   6.374
 3063TIP3    H2 9133   5.240   4.107   6.229
 3064TIP3   OH2 9134   2.041   0.327   5.297
 3064TIP3    H1 9135   1.984   0.376   5.238
 3064TIP3    H2 9136   1.982   0.270   5.346
 3065TIP3   OH2 9137   5.607   5.939   3.788
 3065TIP3    H1 9138   5.588   5.866   3.848
 3065TIP3    H2 9139   5.606   6.016   3.845
 3066TIP3   OH2 9140   1.723   4.798   6.130
 3066TIP3    H1 9141   1.763   4.754   6.055
 3066TIP3    H2 9142   1.631   4.808   6.107
 3067TIP3   OH2 9143   3.195   4.252   1.545
 3067TIP3    H1 9144   3.150   4.247   1.461
 3067TIP3    H2 9145   3.136   4.209   1.608
 3068TIP3   OH2 9146   4.802   3.609   5.549
 3068TIP3    H1 9147   4.825   3.562   5.629
 3068TIP3    H2 9148   4.877   3.595   5.491
 3069TIP3   OH2 9149   7.750   3.951   4.675
 3069TIP3    H1 9150   7.666   3.964   4.632
 3069TIP3    H2 9151   7.808   4.015   4.634
 3070TIP3   OH2 9152   6.791   5.686   2.651
 3070TIP3    H1 9153   6.800   5.678   2.746
 3070TIP3    H2 9154   6.864   5.635   2.616
 3071TIP3   OH2 9155   2.464   6.345   0.449
 3071TIP3    H1 9156   2.492   6.313   0.535
 3071TIP3    H2 9157   2.492   6.437   0.448
 3072TIP3   OH2 9158   0.298   4.107   0.415
 3072TIP3    H1 9159   0.278   4.095   0.508
 3072TIP3    H2 9160   0.215   4.093   0.370
 3073TIP3   OH2 9161   7.699   2.080   1.368
 3073TIP3    H1 9162   7.708   2.158   1.423
 3073TIP3    H2 9163   7.773   2.085   1.308
 3074TIP3   OH2 9164   5.164   4.756   2.306
 3074TIP3    H1 9165   5.159   4.800   2.221
 3074TIP3    H2 9166   5.232   4.804   2.354
 3075TIP3   OH2 9167   1.265   0.861   5.115
 3075TIP3    H1 9168   1.212   0.805   5.172
 3075TIP3    H2 9169   1.348   0.872   5.162
 3076TIP3   OH2 9170   5.974   1.052   5.009
 3076TIP3    H1 9171   5.907   0.994   5.047
 3076TIP3    H2 9172   6.017   0.998   4.943
 3077TIP3   OH2 9173   1.858   5.351   5.962
 3077TIP3    H1 9174   1.833   5.440   5.987
 3077TIP3    H2 9175   1.888   5.359   5.871
 3078TIP3   OH2 9176   1.356   3.938   6.514
 3078TIP3    H1 9177   1.407   3.934   6.595
 3078TIP3    H2 9178   1.309   4.021   6.518
 3079TIP3   OH2 9179   2.797   1.607   6.689
 3079TIP3    H1 9180   2.838   1.652   6.763
 3079TIP3    H2 9181   2.828   1.654   6.612
 3080TIP3   OH2 9182   6.980   4.744   3.424
 3080TIP3    H1 9183   6.972   4.836   3.399
 3080TIP3    H2 9184   7.000   4.747   3.518
 3081TIP3   OH2 9185   3.990   5.550   5.116
 3081TIP3    H1 9186   3.927   5.622   5.108
 3081TIP3    H2 9187   3.999   5.536   5.210
 3082TIP3   OH2 9188   2.056   5.718   1.982
 3082TIP3    H1 9189   1.994   5.656   1.943
 3082TIP3    H2 9190   2.061   5.790   1.920
 3083TIP3   OH2 9191   7.988   6.193   1.586
 3083TIP3    H1 9192   7.951   6.213   1.499
 3083TIP3    H2 9193   8.064   6.251   1.593
 3084TIP3   OH2 9194   7.991   1.072   6.334
 3084TIP3    H1 9195   7.921   1.118   6.289
 3084TIP3    H2 9196   8.013   1.129   6.408
 3085TIP3   OH2 9197   6.708   2.550   6.059
 3085TIP3    H1 9198   6.753   2.519   5.981
 3085TIP3    H2 9199   6.644   2.614   6.026
 3086TIP3   OH2 9200   7.620   1.169   0.346
 3086TIP3    H1 9201   7.533   1.206   0.362
 3086TIP3    H2 9202   7.679   1.222   0.401
 3087TIP3   OH2 9203   7.299   1.157   4.615
 3087TIP3    H1 9204   7.210   1.126   4.601
 3087TIP3    H2 9205   7.305   1.169   4.710
 3088TIP3   OH2 9206   4.011   3.945   0.815
 3088TIP3    H1 9207   4.037   3.890   0.741
 3088TIP3    H2 9208   3.916   3.947   0.811
 3089TIP3   OH2 9209   7.712   6.008   0.098
 3089TIP3    H1 9210   7.637   5.953   0.076
 3089TIP3    H2 9211   7.683   6.097   0.075
 3090TIP3   OH2 9212   6.015   1.540   3.208
 3090TIP3    H1 9213   5.962   1.580   3.140
 3090TIP3    H2 9214   6.023   1.448   3.183
 3091TIP3   OH2 9215   7.975   0.980   6.770
 3091TIP3    H1 9216   8.027   1.059   6.759
 3091TIP3    H2 9217   7.886   1.011   6.783
 3092TIP3   OH2 9218   0.899   6.467   5.910
 3092TIP3    H1 9219   0.941   6.407   5.848
 3092TIP3    H2 9220   0.809   6.474   5.880
 3093TIP3   OH2 9221   7.541   6.688   1.435
 3093TIP3    H1 9222   7.611   6.660   1.495
 3093TIP3    H2 9223   7.469   6.714   1.492
 3094TIP3   OH2 9224   0.360   1.502   2.699
 3094TIP3    H1 9225   0.397   1.559   2.631
 3094TIP3    H2 9226   0.427   1.500   2.767
 3095TIP3   OH2 9227   3.171   0.639   3.540
 3095TIP3    H1 9228   3.096   0.685   3.577
 3095TIP3    H2 9229   3.191   0.570   3.604
 3096TIP3   OH2 9230   4.906   6.909   5.388
 3096TIP3    H1 9231   4.897   6.981   5.450
 3096TIP3    H2 9232   4.884   6.831   5.439
 3097TIP3   OH2 9233   6.384   3.971   6.005
 3097TIP3    H1 9234   6.419   4.047   6.052
 3097TIP3    H2 9235   6.324   4.009   5.941
 3098TIP3   OH2 9236   3.139   5.731   2.805
 3098TIP3    H1 9237   3.202   5.684   2.750
 3098TIP3    H2 9238   3.141   5.684   2.889
 3099TIP3   OH2 9239   8.199   2.365   2.536
 3099TIP3    H1 9240   8.130   2.400   2.593
 3099TIP3    H2 9241   8.273   2.349   2.595
 3100TIP3   OH2 9242   7.301   6.740   5.001
 3100TIP3    H1 9243   7.273   6.821   4.957
 3100TIP3    H2 9244   7.331   6.683   4.931
 3101TIP3   OH2 9245   7.952   1.661   4.952
 3101TIP3    H1 9246   7.881   1.704   4.999
 3101TIP3    H2 9247   7.916   1.644   4.865
 3102TIP3   OH2 9248   5.210   3.185   6.302
 3102TIP3    H1 9249   5.181   3.141   6.222
 3102TIP3    H2 9250   5.173   3.273   6.295
 3103TIP3   OH2 9251   7.547   4.841   3.320
 3103TIP3    H1 9252   7.581   4.877   3.401
 3103TIP3    H2 9253   7.605   4.875   3.252
 3104TIP3   OH2 9254   3.243   4.323   4.368
 3104TIP3    H1 9255   3.150   4.349   4.369
 3104TIP3    H2 9256   3.286   4.387   4.425
 3105TIP3   OH2 9257   0.309   3.286   4.142
 3105TIP3    H1 9258   0.360   3.233   4.081
 3105TIP3    H2 9259   0.276   3.358   4.089
 3106TIP3   OH2 9260   6.041   3.939   0.597
 3106TIP3    H1 9261   6.089   3.858   0.581
 3106TIP3    H2 9262   6.010   3.967   0.511
 3107TIP3   OH2 9263   2.921   2.422   0.549
 3107TIP3    H1 9264   2.933   2.515   0.528
 3107TIP3    H2 9265   2.974   2.376   0.484
 3108TIP3   OH2 9266   2.717   7.024   4.046
 3108TIP3    H1 9267   2.692   6.976   3.967
 3108TIP3    H2 9268   2.796   6.980   4.076
 3109TIP3   OH2 9269   2.578   2.950   5.576
 3109TIP3    H1 9270   2.539   3.008   5.641
 3109TIP3    H2 9271   2.625   2.885   5.627
 3110TIP3   OH2 9272   1.252   1.057   0.411
 3110TIP3    H1 9273   1.172   1.104   0.387
 3110TIP3    H2 9274   1.292   1.111   0.480
 3111TIP3   OH2 9275   2.656   6.718   5.686
 3111TIP3    H1 9276   2.623   6.744   5.772
 3111TIP3    H2 9277   2.665   6.622   5.691
 3112TIP3   OH2 9278   6.980   4.307   2.204
 3112TIP3    H1 9279   6.915   4.369   2.238
 3112TIP3    H2 9280   6.939   4.270   2.126
 3113TIP3   OH2 9281   8.233   2.445   4.787
 3113TIP3    H1 9282   8.233   2.372   4.725
 3113TIP3    H2 9283   8.196   2.408   4.867
 3114TIP3   OH2 9284   2.209   3.254   6.787
 3114TIP3    H1 9285   2.134   3.215   6.742
 3114TIP3    H2 9286   2.283   3.198   6.764
 3115TIP3   OH2 9287   1.777   5.282   3.783
 3115TIP3    H1 9288   1.754   5.318   3.697
 3115TIP3    H2 9289   1.837   5.346   3.821
 3116TIP3   OH2 9290   5.094   1.800   0.329
 3116TIP3    H1 9291   5.082   1.816   0.423
 3116TIP3    H2 9292   5.049   1.717   0.314
 3117TIP3   OH2 9293   4.448   0.869   5.827
 3117TIP3    H1 9294   4.435   0.962   5.847
 3117TIP3    H2 9295   4.408   0.858   5.741
 3118TIP3   OH2 9296   2.112   3.360   5.500
 3118TIP3    H1 9297   2.114   3.446   5.542
 3118TIP3    H2 9298   2.044   3.367   5.434
 3119TIP3   OH2 9299   4.844   3.834   4.343
 3119TIP3    H1 9300   4.841   3.880   4.427
 3119TIP3    H2 9301   4.915   3.771   4.353
 3120TIP3   OH2 9302   3.062   5.840   4.096
 3120TIP3    H1 9303   3.085   5.905   4.030
 3120TIP3    H2 9304   3.033   5.764   4.045
 3121TIP3   OH2 9305   7.074   0.544   3.170
 3121TIP3    H1 9306   7.049   0.586   3.088
 3121TIP3    H2 9307   7.148   0.487   3.146
 3122TIP3   OH2 9308   0.117   0.225   4.412
 3122TIP3    H1 9309   0.093   0.311   4.445
 3122TIP3    H2 9310   0.044   0.168   4.439
 3123TIP3   OH2 9311   0.202   7.600   5.000
 3123TIP3    H1 9312   0.149   7.524   5.024
 3123TIP3    H2 9313   0.200   7.601   4.904
 3124TIP3   OH2 9314   3.103   1.478   0.490
 3124TIP3    H1 9315   3.179   1.501   0.436
 3124TIP3    H2 9316   3.138   1.473   0.579
 3125TIP3   OH2 9317   5.433   6.667   6.268
 3125TIP3    H1 9318   5.379   6.679   6.346
 3125TIP3    H2 9319   5.374   6.688   6.195
 3126TIP3   OH2 9320   1.763   7.746   3.346
 3126TIP3    H1 9321   1.713   7.808   3.293
 3126TIP3    H2 9322   1.854   7.772   3.333
 3127TIP3   OH2 9323   1.362   6.984   4.790
 3127TIP3    H1 9324   1.355   7.057   4.729
 3127TIP3    H2 9325   1.379   6.908   4.734
 3128TIP3   OH2 9326   2.490   3.734   3.285
 3128TIP3    H1 9327   2.472   3.815   3.333
 3128TIP3    H2 9328   2.585   3.732   3.274
 3129TIP3   OH2 9329   6.353   1.444   5.945
 3129TIP3    H1 9330   6.304   1.387   6.004
 3129TIP3    H2 9331   6.339   1.405   5.858
 3130TIP3   OH2 9332   4.793   7.188   4.572
 3130TIP3    H1 9333   4.864   7.209   4.511
 3130TIP3    H2 9334   4.723   7.249   4.550
 3131TIP3   OH2 9335   6.950   3.923   2.865
 3131TIP3    H1 9336   7.034   3.936   2.822
 3131TIP3    H2 9337   6.963   3.959   2.953
 3132TIP3   OH2 9338   1.940   2.555   3.426
 3132TIP3    H1 9339   1.960   2.500   3.350
 3132TIP3    H2 9340   2.025   2.591   3.453
 3133TIP3   OH2 9341   6.595   2.536   3.980
 3133TIP3    H1 9342   6.659   2.598   4.014
 3133TIP3    H2 9343   6.562   2.578   3.900
 3134TIP3   OH2 9344   8.200   7.722   4.516
 3134TIP3    H1 9345   8.253   7.650   4.549
 3134TIP3    H2 9346   8.125   7.727   4.576
 3135TIP3   OH2 9347   2.149   1.664   1.303
 3135TIP3    H1 9348   2.163   1.728   1.234
 3135TIP3    H2 9349   2.228   1.668   1.357
 3136TIP3   OH2 9350   2.708   5.308   1.516
 3136TIP3    H1 9351   2.724   5.368   1.589
 3136TIP3    H2 9352   2.720   5.221   1.554
 3137TIP3   OH2 9353   2.628   1.871   0.976
 3137TIP3    H1 9354   2.568   1.804   1.009
 3137TIP3    H2 9355   2.696   1.878   1.044
 3138TIP3   OH2 9356   3.523   1.200   1.470
 3138TIP3    H1 9357   3.442   1.216   1.421
 3138TIP3    H2 9358   3.502   1.125   1.526
 3139TIP3   OH2 9359   1.903   4.466   2.875
 3139TIP3    H1 9360   1.876   4.439   2.787
 3139TIP3    H2 9361   1.996   4.446   2.879
 3140TIP3   OH2 9362   8.210   5.786   3.084
 3140TIP3    H1 9363   8.118   5.807   3.064
 3140TIP3    H2 9364   8.219   5.694   3.061
 3141TIP3   OH2 9365   7.551   1.025   2.783
 3141TIP3    H1 9366   7.614   1.058   2.848
 3141TIP3    H2 9367   7.577   0.933   2.770
 3142TIP3   OH2 9368   0.479   2.753   6.645
 3142TIP3    H1 9369   0.456   2.841   6.613
 3142TIP3    H2 9370   0.563   2.734   6.604
 3143TIP3   OH2 9371   7.523   3.615   0.115
 3143TIP3    H1 9372   7.539   3.529   0.076
 3143TIP3    H2 9373   7.496   3.670   0.042
 3144TIP3   OH2 9374   6.071   6.855   4.154
 3144TIP3    H1 9375   6.160   6.842   4.120
 3144TIP3    H2 9376   6.033   6.922   4.097
 3145TIP3   OH2 9377   5.828   7.013   4.270
 3145TIP3    H1 9378   5.749   6.994   4.219
 3145TIP3    H2 9379   5.857   6.927   4.301
 3146TIP3   OH2 9380   3.933   4.473   5.625
 3146TIP3    H1 9381   3.847   4.499   5.659
 3146TIP3    H2 9382   3.991   4.545   5.649
 3147TIP3   OH2 9383   4.704   2.621   3.923
 3147TIP3    H1 9384   4.675   2.546   3.870
 3147TIP3    H2 9385   4.624   2.670   3.941
 3148TIP3   OH2 9386   4.233   5.286   4.657
 3148TIP3    H1 9387   4.228   5.198   4.620
 3148TIP3    H2 9388   4.318   5.288   4.701
 3149TIP3   OH2 9389   5.965   7.659   3.825
 3149TIP3    H1 9390   5.878   7.697   3.809
 3149TIP3    H2 9391   6.017   7.685   3.749
 3150TIP3   OH2 9392   0.643   2.707   4.627
 3150TIP3    H1 9393   0.737   2.713   4.611
 3150TIP3    H2 9394   0.614   2.633   4.573
 3151TIP3   OH2 9395   0.175   0.806   1.481
 3151TIP3    H1 9396   0.245   0.868   1.462
 3151TIP3    H2 9397   0.094   0.856   1.468
 3152TIP3   OH2 9398   2.924   3.766   6.526
 3152TIP3    H1 9399   2.983   3.803   6.592
 3152TIP3    H2 9400   2.880   3.842   6.488
 3153TIP3   OH2 9401   8.238   5.527   4.167
 3153TIP3    H1 9402   8.185   5.449   4.184
 3153TIP3    H2 9403   8.174   5.598   4.165
 3154TIP3   OH2 9404   5.131   2.640   6.047
 3154TIP3    H1 9405   5.171   2.557   6.022
 3154TIP3    H2 9406   5.205   2.697   6.068
 3155TIP3   OH2 9407   6.585   0.909   6.620
 3155TIP3    H1 9408   6.516   0.971   6.597
 3155TIP3    H2 9409   6.645   0.960   6.676
 3156TIP3   OH2 9410   6.423   6.936   4.010
 3156TIP3    H1 9411   6.429   6.991   4.088
 3156TIP3    H2 9412   6.439   6.996   3.937
 3157TIP3   OH2 9413   4.042   7.324   1.088
 3157TIP3    H1 9414   4.016   7.413   1.110
 3157TIP3    H2 9415   4.104   7.300   1.157
 3158TIP3   OH2 9416   2.323   2.072   0.551
 3158TIP3    H1 9417   2.410   2.100   0.522
 3158TIP3    H2 9418   2.340   2.021   0.630
 3159TIP3   OH2 9419   2.329   7.090   5.782
 3159TIP3    H1 9420   2.321   7.003   5.744
 3159TIP3    H2 9421   2.239   7.122   5.789
 3160TIP3   OH2 9422   0.031   7.617   6.073
 3160TIP3    H1 9423   0.023   7.531   6.032
 3160TIP3    H2 9424  -0.046   7.625   6.128
 3161TIP3   OH2 9425   0.485   1.239   2.000
 3161TIP3    H1 9426   0.551   1.254   1.932
 3161TIP3    H2 9427   0.426   1.314   1.993
 3162TIP3   OH2 9428   7.582   7.084   5.019
 3162TIP3    H1 9429   7.584   7.065   5.113
 3162TIP3    H2 9430   7.568   7.178   5.013
 3163TIP3   OH2 9431   6.243   4.659   2.195
 3163TIP3    H1 9432   6.169   4.626   2.144
 3163TIP3    H2 9433   6.220   4.749   2.217
 3164TIP3   OH2 9434   2.036   0.943   0.567
 3164TIP3    H1 9435   2.047   0.911   0.477
 3164TIP3    H2 9436   1.978   0.879   0.608
 3165TIP3   OH2 9437   5.416   1.394   0.909
 3165TIP3    H1 9438   5.399   1.328   0.842
 3165TIP3    H2 9439   5.417   1.477   0.861
 3166TIP3   OH2 9440   5.270   3.464   5.179
 3166TIP3    H1 9441   5.237   3.433   5.094
 3166TIP3    H2 9442   5.255   3.391   5.239
 3167TIP3   OH2 9443   3.634   3.702   5.942
 3167TIP3    H1 9444   3.725   3.693   5.916
 3167TIP3    H2 9445   3.632   3.781   5.996
 3168TIP3   OH2 9446   5.709   0.846   4.310
 3168TIP3    H1 9447   5.626   0.862   4.266
 3168TIP3    H2 9448   5.773   0.899   4.261
 3169TIP3   OH2 9449   7.728   3.488   3.925
 3169TIP3    H1 9450   7.637   3.502   3.901
 3169TIP3    H2 9451   7.735   3.520   4.015
 3170TIP3   OH2 9452   6.775   4.478   6.173
 3170TIP3    H1 9453   6.788   4.572   6.184
 3170TIP3    H2 9454   6.717   4.453   6.245
 3171TIP3   OH2 9455   3.019   0.669   0.924
 3171TIP3    H1 9456   2.974   0.751   0.904
 3171TIP3    H2 9457   3.000   0.613   0.849
 3172TIP3   OH2 9458   8.247   2.752   6.103
 3172TIP3    H1 9459   8.284   2.771   6.190
 3172TIP3    H2 9460   8.323   2.733   6.048
 3173TIP3   OH2 9461   0.413   6.539   2.414
 3173TIP3    H1 9462   0.334   6.579   2.448
 3173TIP3    H2 9463   0.398   6.532   2.320
 3174TIP3   OH2 9464   0.080   0.398   5.178
 3174TIP3    H1 9465  -0.015   0.406   5.172
 3174TIP3    H2 9466   0.096   0.362   5.265
 3175TIP3   OH2 9467   7.776   2.385   1.857
 3175TIP3    H1 9468   7.775   2.479   1.840
 3175TIP3    H2 9469   7.867   2.366   1.882
 3176TIP3   OH2 9470   7.968   0.670   1.902
 3176TIP3    H1 9471   7.986   0.753   1.859
 3176TIP3    H2 9472   7.897   0.690   1.964
 3177TIP3   OH2 9473   5.847   1.767   3.627
 3177TIP3    H1 9474   5.821   1.675   3.618
 3177TIP3    H2 9475   5.837   1.803   3.539
 3178TIP3   OH2 9476   1.691   7.238   5.446
 3178TIP3    H1 9477   1.735   7.193   5.374
 3178TIP3    H2 9478   1.679   7.328   5.414
 3179TIP3   OH2 9479   8.292   6.906   3.235
 3179TIP3    H1 9480   8.225   6.957   3.280
 3179TIP3    H2 9481   8.289   6.820   3.277
 3180TIP3   OH2 9482   6.480   0.357   5.150
 3180TIP3    H1 9483   6.491   0.332   5.058
 3180TIP3    H2 9484   6.393   0.399   5.152
 3181TIP3   OH2 9485   4.810   2.390   4.880
 3181TIP3    H1 9486   4.797   2.343   4.963
 3181TIP3    H2 9487   4.845   2.475   4.907
 3182TIP3   OH2 9488   5.429   1.750   5.458
 3182TIP3    H1 9489   5.426   1.739   5.363
 3182TIP3    H2 9490   5.518   1.726   5.482
 3183TIP3   OH2 9491   2.444   7.429   0.968
 3183TIP3    H1 9492   2.370   7.369   0.975
 3183TIP3    H2 9493   2.498   7.393   0.898
 3184TIP3   OH2 9494   1.595   6.646   1.591
 3184TIP3    H1 9495   1.518   6.592   1.604
 3184TIP3    H2 9496   1.666   6.598   1.633
 3185TIP3   OH2 9497   6.177   3.806   2.331
 3185TIP3    H1 9498   6.171   3.711   2.332
 3185TIP3    H2 9499   6.178   3.831   2.423
 3186TIP3   OH2 9500   4.840   4.945   6.600
 3186TIP3    H1 9501   4.851   4.852   6.623
 3186TIP3    H2 9502   4.753   4.950   6.562
 3187TIP3   OH2 9503   4.938   6.711   1.787
 3187TIP3    H1 9504   5.015   6.768   1.782
 3187TIP3    H2 9505   4.863   6.772   1.785
 3188TIP3   OH2 9506   4.467   1.709   3.727
 3188TIP3    H1 9507   4.392   1.739   3.675
 3188TIP3    H2 9508   4.494   1.785   3.778
 3189TIP3   OH2 9509   3.443   7.303   0.518
 3189TIP3    H1 9510   3.391   7.376   0.486
 3189TIP3    H2 9511   3.439   7.237   0.448
 3190TIP3   OH2 9512   7.045   7.432   4.536
 3190TIP3    H1 9513   6.997   7.495   4.591
 3190TIP3    H2 9514   7.028   7.347   4.577
 3191TIP3   OH2 9515   7.683   1.884   0.171
 3191TIP3    H1 9516   7.656   1.882   0.079
 3191TIP3    H2 9517   7.602   1.901   0.219
 3192TIP3   OH2 9518   0.159   4.461   2.860
 3192TIP3    H1 9519   0.228   4.420   2.808
 3192TIP3    H2 9520   0.078   4.430   2.821
 3193TIP3   OH2 9521   1.548   1.041   3.266
 3193TIP3    H1 9522   1.558   1.073   3.355
 3193TIP3    H2 9523   1.458   1.062   3.242
 3194TIP3   OH2 9524   4.361   4.500   4.582
 3194TIP3    H1 9525   4.317   4.577   4.547
 3194TIP3    H2 9526   4.326   4.427   4.531
 3195TIP3   OH2 9527   6.266   7.199   1.066
 3195TIP3    H1 9528   6.359   7.218   1.077
 3195TIP3    H2 9529   6.226   7.284   1.050
 3196TIP3   OH2 9530   7.148   4.534   1.917
 3196TIP3    H1 9531   7.169   4.493   2.001
 3196TIP3    H2 9532   7.234   4.552   1.878
 3197TIP3   OH2 9533   7.194   4.271   2.801
 3197TIP3    H1 9534   7.175   4.178   2.789
 3197TIP3    H2 9535   7.228   4.277   2.890
 3198TIP3   OH2 9536   2.761   6.030   4.174
 3198TIP3    H1 9537   2.685   6.087   4.188
 3198TIP3    H2 9538   2.833   6.090   4.155
 3199TIP3   OH2 9539   6.051   2.542   4.111
 3199TIP3    H1 9540   6.091   2.479   4.171
 3199TIP3    H2 9541   6.124   2.592   4.076
 3200TIP3   OH2 9542   0.984   2.979   1.016
 3200TIP3    H1 9543   0.897   2.973   1.055
 3200TIP3    H2 9544   1.012   3.069   1.032
 3201TIP3   OH2 9545   6.443   7.067   0.344
 3201TIP3    H1 9546   6.390   7.016   0.282
 3201TIP3    H2 9547   6.455   7.152   0.301
 3202TIP3   OH2 9548   3.483   1.297   5.324
 3202TIP3    H1 9549   3.429   1.373   5.306
 3202TIP3    H2 9550   3.528   1.318   5.406
 3203TIP3   OH2 9551   6.947   5.602   6.715
 3203TIP3    H1 9552   6.986   5.626   6.631
 3203TIP3    H2 9553   6.894   5.678   6.739
 3204TIP3   OH2 9554   6.565   4.012   0.077
 3204TIP3    H1 9555   6.619   4.067   0.133
 3204TIP3    H2 9556   6.620   3.937   0.055
 3205TIP3   OH2 9557   7.174   1.773   4.501
 3205TIP3    H1 9558   7.166   1.678   4.499
 3205TIP3    H2 9559   7.227   1.791   4.579
 3206TIP3   OH2 9560   0.650   0.601   0.398
 3206TIP3    H1 9561   0.722   0.550   0.360
 3206TIP3    H2 9562   0.634   0.671   0.335
 3207TIP3   OH2 9563   0.852   7.312   1.476
 3207TIP3    H1 9564   0.887   7.390   1.520
 3207TIP3    H2 9565   0.930   7.262   1.452
 3208TIP3   OH2 9566   4.069   2.752   0.892
 3208TIP3    H1 9567   4.121   2.676   0.918
 3208TIP3    H2 9568   4.054   2.800   0.973
 3209TIP3   OH2 9569   0.660   1.990   1.079
 3209TIP3    H1 9570   0.720   2.064   1.070
 3209TIP3    H2 9571   0.689   1.945   1.158
 3210TIP3   OH2 9572   6.833   7.299   1.222
 3210TIP3    H1 9573   6.808   7.220   1.175
 3210TIP3    H2 9574   6.778   7.368   1.184
 3211TIP3   OH2 9575   5.252   7.406   0.329
 3211TIP3    H1 9576   5.234   7.344   0.401
 3211TIP3    H2 9577   5.316   7.466   0.366
 3212TIP3   OH2 9578   0.230   2.759   0.041
 3212TIP3    H1 9579   0.227   2.734   0.134
 3212TIP3    H2 9580   0.138   2.775   0.018
 3213TIP3   OH2 9581   7.227   3.234   5.379
 3213TIP3    H1 9582   7.143   3.274   5.401
 3213TIP3    H2 9583   7.231   3.236   5.284
 3214TIP3   OH2 9584   4.148   0.116   0.512
 3214TIP3    H1 9585   4.134   0.205   0.545
 3214TIP3    H2 9586   4.097   0.112   0.431
 3215TIP3   OH2 9587   6.566   7.222   6.209
 3215TIP3    H1 9588   6.552   7.269   6.127
 3215TIP3    H2 9589   6.662   7.215   6.216
 3216TIP3   OH2 9590   1.622   4.063   6.160
 3216TIP3    H1 9591   1.639   4.001   6.089
 3216TIP3    H2 9592   1.526   4.069   6.164
 3217TIP3   OH2 9593   5.726   2.261   0.181
 3217TIP3    H1 9594   5.799   2.223   0.132
 3217TIP3    H2 9595   5.713   2.200   0.254
 3218TIP3   OH2 9596   8.123   4.812   0.527
 3218TIP3    H1 9597   8.178   4.886   0.549
 3218TIP3    H2 9598   8.146   4.792   0.436
 3219TIP3   OH2 9599   2.164   5.550   1.162
 3219TIP3    H1 9600   2.224   5.532   1.234
 3219TIP3    H2 9601   2.080   5.513   1.190
 3220TIP3   OH2 9602   7.494   6.338   6.768
 3220TIP3    H1 9603   7.444   6.268   6.810
 3220TIP3    H2 9604   7.482   6.322   6.674
 3221TIP3   OH2 9605   2.352   5.221   3.849
 3221TIP3    H1 9606   2.374   5.244   3.939
 3221TIP3    H2 9607   2.346   5.305   3.804
 3222TIP3   OH2 9608   2.870   0.584   1.828
 3222TIP3    H1 9609   2.962   0.558   1.825
 3222TIP3    H2 9610   2.863   0.658   1.768
 3223TIP3   OH2 9611   2.236   5.595   0.195
 3223TIP3    H1 9612   2.226   5.568   0.287
 3223TIP3    H2 9613   2.303   5.537   0.160
 3224TIP3   OH2 9614   4.939   7.605   6.486
 3224TIP3    H1 9615   4.906   7.531   6.537
 3224TIP3    H2 9616   4.872   7.620   6.420
 3225TIP3   OH2 9617   0.334   2.308   2.226
 3225TIP3    H1 9618   0.359   2.339   2.139
 3225TIP3    H2 9619   0.268   2.370   2.255
 3226TIP3   OH2 9620   5.666   1.375   1.444
 3226TIP3    H1 9621   5.616   1.318   1.502
 3226TIP3    H2 9622   5.623   1.461   1.452
 3227TIP3   OH2 9623   3.240  -0.038   1.697
 3227TIP3    H1 9624   3.309  -0.033   1.631
 3227TIP3    H2 9625   3.187   0.041   1.682
 3228TIP3   OH2 9626   0.218   1.849   3.032
 3228TIP3    H1 9627   0.199   1.810   2.947
 3228TIP3    H2 9628   0.310   1.876   3.026
 3229TIP3   OH2 9629   2.766   6.015   1.189
 3229TIP3    H1 9630   2.674   6.002   1.213
 3229TIP3    H2 9631   2.777   5.966   1.108
 3230TIP3   OH2 9632   7.162   6.407   1.719
 3230TIP3    H1 9633   7.147   6.468   1.647
 3230TIP3    H2 9634   7.078   6.363   1.730
 3231TIP3   OH2 9635   6.845   0.700   1.708
 3231TIP3    H1 9636   6.844   0.624   1.650
 3231TIP3    H2 9637   6.794   0.767   1.663
 3232TIP3   OH2 9638   2.301   4.914   4.220
 3232TIP3    H1 9639   2.276   4.921   4.312
 3232TIP3    H2 9640   2.218   4.910   4.173
 3233TIP3   OH2 9641   5.984   3.452   5.102
 3233TIP3    H1 9642   5.897   3.414   5.095
 3233TIP3    H2 9643   5.972   3.530   5.156
 3234TIP3   OH2 9644   7.844   7.304   0.841
 3234TIP3    H1 9645   7.788   7.276   0.914
 3234TIP3    H2 9646   7.917   7.241   0.842
 3235TIP3   OH2 9647   2.535   2.226   3.867
 3235TIP3    H1 9648   2.529   2.136   3.834
 3235TIP3    H2 9649   2.497   2.221   3.955
 3236TIP3   OH2 9650   3.498   4.416   3.791
 3236TIP3    H1 9651   3.431   4.436   3.856
 3236TIP3    H2 9652   3.570   4.377   3.842
 3237TIP3   OH2 9653   7.543   7.122   2.088
 3237TIP3    H1 9654   7.617   7.159   2.136
 3237TIP3    H2 9655   7.466   7.168   2.122
 3238TIP3   OH2 9656   3.812   0.097   2.139
 3238TIP3    H1 9657   3.724   0.111   2.104
 3238TIP3    H2 9658   3.809   0.133   2.227
 3239TIP3   OH2 9659   2.174   0.409   3.110
 3239TIP3    H1 9660   2.181   0.315   3.093
 3239TIP3    H2 9661   2.242   0.449   3.054
 3240TIP3   OH2 9662   5.466   5.426   6.164
 3240TIP3    H1 9663   5.389   5.449   6.216
 3240TIP3    H2 9664   5.484   5.505   6.112
 3241TIP3   OH2 9665   1.466   6.617   2.069
 3241TIP3    H1 9666   1.495   6.597   2.159
 3241TIP3    H2 9667   1.499   6.706   2.053
 3242TIP3   OH2 9668   3.770   4.204   3.084
 3242TIP3    H1 9669   3.782   4.142   3.156
 3242TIP3    H2 9670   3.739   4.150   3.011
 3243TIP3   OH2 9671   2.127   1.600   4.414
 3243TIP3    H1 9672   2.076   1.630   4.338
 3243TIP3    H2 9673   2.168   1.519   4.385
 3244TIP3   OH2 9674   6.704   2.018   1.835
 3244TIP3    H1 9675   6.796   2.008   1.811
 3244TIP3    H2 9676   6.678   2.101   1.796
 3245TIP3   OH2 9677   4.447   5.159   2.230
 3245TIP3    H1 9678   4.494   5.183   2.310
 3245TIP3    H2 9679   4.356   5.151   2.257
 3246TIP3   OH2 9680   2.295   6.402   5.970
 3246TIP3    H1 9681   2.220   6.415   5.912
 3246TIP3    H2 9682   2.286   6.471   6.036
 3247TIP3   OH2 9683   5.370   0.065   5.340
 3247TIP3    H1 9684   5.451   0.066   5.390
 3247TIP3    H2 9685   5.398   0.069   5.249
 3248TIP3   OH2 9686   0.562   5.644   6.411
 3248TIP3    H1 9687   0.601   5.557   6.404
 3248TIP3    H2 9688   0.472   5.632   6.381
 3249TIP3   OH2 9689   4.128   6.106   4.560
 3249TIP3    H1 9690   4.209   6.099   4.611
 3249TIP3    H2 9691   4.118   6.200   4.544
 3250TIP3   OH2 9692   3.295   6.679   3.718
 3250TIP3    H1 9693   3.260   6.626   3.790
 3250TIP3    H2 9694   3.389   6.683   3.736
 3251TIP3   OH2 9695   4.723   5.237   0.888
 3251TIP3    H1 9696   4.671   5.198   0.958
 3251TIP3    H2 9697   4.727   5.170   0.820
 3252TIP3   OH2 9698   2.381   1.754   5.715
 3252TIP3    H1 9699   2.290   1.733   5.693
 3252TIP3    H2 9700   2.406   1.687   5.779
 3253TIP3   OH2 9701   3.407   5.030   2.268
 3253TIP3    H1 9702   3.379   4.939   2.253
 3253TIP3    H2 9703   3.325   5.078   2.283
 3254TIP3   OH2 9704   3.085   4.625   3.832
 3254TIP3    H1 9705   3.137   4.554   3.792
 3254TIP3    H2 9706   3.089   4.607   3.926
 3255TIP3   OH2 9707   6.503   7.365   0.664
 3255TIP3    H1 9708   6.428   7.315   0.632
 3255TIP3    H2 9709   6.564   7.298   0.697
 3256TIP3   OH2 9710   5.005   5.110   4.436
 3256TIP3    H1 9711   5.046   5.065   4.362
 3256TIP3    H2 9712   5.011   5.047   4.509
 3257TIP3   OH2 9713   0.511   4.905   1.897
 3257TIP3    H1 9714   0.569   4.940   1.830
 3257TIP3    H2 9715   0.470   4.982   1.936
 3258TIP3   OH2 9716   2.085   4.930   2.924
 3258TIP3    H1 9717   2.016   4.991   2.896
 3258TIP3    H2 9718   2.156   4.987   2.954
 3259TIP3   OH2 9719   1.425   3.516   2.723
 3259TIP3    H1 9720   1.505   3.488   2.767
 3259TIP3    H2 9721   1.453   3.587   2.665
 3260TIP3   OH2 9722   4.428   6.535   3.148
 3260TIP3    H1 9723   4.483   6.601   3.191
 3260TIP3    H2 9724   4.384   6.583   3.077
 3261TIP3   OH2 9725   4.071   3.515   5.559
 3261TIP3    H1 9726   4.106   3.435   5.599
 3261TIP3    H2 9727   3.988   3.530   5.603
 3262TIP3   OH2 9728   0.289   3.411   6.317
 3262TIP3    H1 9729   0.373   3.407   6.364
 3262TIP3    H2 9730   0.282   3.325   6.275
 3263TIP3   OH2 9731   6.112   5.081   2.229
 3263TIP3    H1 9732   6.072   4.994   2.223
 3263TIP3    H2 9733   6.043   5.141   2.201
 3264TIP3   OH2 9734   0.571   0.106   4.162
 3264TIP3    H1 9735   0.630   0.053   4.108
 3264TIP3    H2 9736   0.616   0.114   4.246
 3265TIP3   OH2 9737   3.631   6.343   5.916
 3265TIP3    H1 9738   3.606   6.294   5.838
 3265TIP3    H2 9739   3.685   6.415   5.884
 3266TIP3   OH2 9740   4.337   3.797   5.250
 3266TIP3    H1 9741   4.332   3.868   5.185
 3266TIP3    H2 9742   4.418   3.751   5.228
 3267TIP3   OH2 9743   7.597   2.056   6.146
 3267TIP3    H1 9744   7.660   2.125   6.130
 3267TIP3    H2 9745   7.514   2.102   6.162
 3268TIP3   OH2 9746   4.606   5.361   3.906
 3268TIP3    H1 9747   4.638   5.411   3.830
 3268TIP3    H2 9748   4.685   5.338   3.955
 3269TIP3   OH2 9749   4.379   7.761   5.132
 3269TIP3    H1 9750   4.444   7.691   5.142
 3269TIP3    H2 9751   4.352   7.782   5.221
 3270TIP3   OH2 9752   0.624   1.174   4.765
 3270TIP3    H1 9753   0.614   1.193   4.859
 3270TIP3    H2 9754   0.712   1.137   4.758
 3271TIP3   OH2 9755   6.575   5.107   0.985
 3271TIP3    H1 9756   6.635   5.180   1.002
 3271TIP3    H2 9757   6.572   5.100   0.890
 3272TIP3   OH2 9758   7.323   7.705   3.952
 3272TIP3    H1 9759   7.325   7.609   3.947
 3272TIP3    H2 9760   7.266   7.731   3.880
 3273TIP3   OH2 9761   6.159   3.625   6.575
 3273TIP3    H1 9762   6.118   3.541   6.594
 3273TIP3    H2 9763   6.198   3.614   6.489
 3274TIP3   OH2 9764   0.200   6.214   2.718
 3274TIP3    H1 9765   0.273   6.153   2.704
 3274TIP3    H2 9766   0.192   6.220   2.813
 3275TIP3   OH2 9767   0.150   1.168   6.279
 3275TIP3    H1 9768   0.233   1.176   6.230
 3275TIP3    H2 9769   0.123   1.258   6.296
 3276TIP3   OH2 9770   5.509   7.157   3.866
 3276TIP3    H1 9771   5.604   7.156   3.878
 3276TIP3    H2 9772   5.493   7.233   3.810
 3277TIP3   OH2 9773   2.978   2.770   1.482
 3277TIP3    H1 9774   2.960   2.847   1.537
 3277TIP3    H2 9775   3.064   2.741   1.510
 3278TIP3   OH2 9776   3.226   1.253   1.348
 3278TIP3    H1 9777   3.263   1.339   1.329
 3278TIP3    H2 9778   3.197   1.219   1.264
 3279TIP3   OH2 9779   7.788   1.163   4.062
 3279TIP3    H1 9780   7.871   1.123   4.037
 3279TIP3    H2 9781   7.753   1.106   4.131
 3280TIP3   OH2 9782   5.629   3.690   2.763
 3280TIP3    H1 9783   5.652   3.715   2.852
 3280TIP3    H2 9784   5.701   3.635   2.733
 3281TIP3   OH2 9785   2.161   2.133   1.049
 3281TIP3    H1 9786   2.186   2.163   0.962
 3281TIP3    H2 9787   2.243   2.135   1.099
 3282TIP3   OH2 9788   2.619   4.169   3.587
 3282TIP3    H1 9789   2.636   4.247   3.534
 3282TIP3    H2 9790   2.598   4.204   3.674
 3283TIP3   OH2 9791   4.926   0.289   4.324
 3283TIP3    H1 9792   4.940   0.242   4.242
 3283TIP3    H2 9793   4.903   0.221   4.387
 3284TIP3   OH2 9794   1.377   2.748   5.635
 3284TIP3    H1 9795   1.447   2.800   5.596
 3284TIP3    H2 9796   1.300   2.767   5.582
 3285TIP3   OH2 9797   1.878   5.982   5.940
 3285TIP3    H1 9798   1.917   6.069   5.936
 3285TIP3    H2 9799   1.928   5.930   5.877
 3286TIP3   OH2 9800   3.477   7.234   5.702
 3286TIP3    H1 9801   3.383   7.247   5.691
 3286TIP3    H2 9802   3.501   7.291   5.775
 3287TIP3   OH2 9803   1.566   2.893   4.076
 3287TIP3    H1 9804   1.602   2.806   4.059
 3287TIP3    H2 9805   1.488   2.898   4.019
 3288TIP3   OH2 9806   1.335   5.193   1.467
 3288TIP3    H1 9807   1.401   5.127   1.444
 3288TIP3    H2 9808   1.385   5.264   1.507
 3289TIP3   OH2 9809   2.610   7.305   4.720
 3289TIP3    H1 9810   2.690   7.328   4.674
 3289TIP3    H2 9811   2.617   7.211   4.738
 3290TIP3   OH2 9812   3.230   2.742   3.480
 3290TIP3    H1 9813   3.179   2.818   3.508
 3290TIP3    H2 9814   3.189   2.668   3.525
 3291TIP3   OH2 9815   8.068   2.948   4.592
 3291TIP3    H1 9816   8.073   2.853   4.579
 3291TIP3    H2 9817   8.140   2.983   4.540
 3292TIP3   OH2 9818   4.714   1.985   4.351
 3292TIP3    H1 9819   4.623   1.973   4.323
 3292TIP3    H2 9820   4.717   2.074   4.386
 3293TIP3   OH2 9821   5.104   4.865   2.049
 3293TIP3    H1 9822   5.067   4.878   1.962
 3293TIP3    H2 9823   5.028   4.860   2.107
 3294TIP3   OH2 9824   6.064   4.290   5.245
 3294TIP3    H1 9825   6.110   4.363   5.202
 3294TIP3    H2 9826   5.971   4.308   5.231
 3295TIP3   OH2 9827   2.339   4.417   3.174
 3295TIP3    H1 9828   2.351   4.512   3.168
 3295TIP3    H2 9829   2.426   4.381   3.160
 3296TIP3   OH2 9830   5.600   3.770   4.158
 3296TIP3    H1 9831   5.562   3.682   4.155
 3296TIP3    H2 9832   5.590   3.798   4.248
 3297TIP3   OH2 9833   5.916   4.272   4.443
 3297TIP3    H1 9834   5.904   4.190   4.491
 3297TIP3    H2 9835   5.830   4.314   4.444
 3298TIP3   OH2 9836   3.550   5.936   5.376
 3298TIP3    H1 9837   3.457   5.955   5.366
 3298TIP3    H2 9838   3.567   5.868   5.311
 3299TIP3   OH2 9839   0.164   0.815   3.516
 3299TIP3    H1 9840   0.209   0.884   3.565
 3299TIP3    H2 9841   0.162   0.846   3.426
 3300TIP3   OH2 9842   5.601   3.662   5.674
 3300TIP3    H1 9843   5.541   3.612   5.729
 3300TIP3    H2 9844   5.585   3.753   5.698
 3301TIP3   OH2 9845   3.260   7.680   3.330
 3301TIP3    H1 9846   3.321   7.663   3.258
 3301TIP3    H2 9847   3.283   7.767   3.361
 3302TIP3   OH2 9848   7.966   5.500   2.314
 3302TIP3    H1 9849   8.033   5.560   2.349
 3302TIP3    H2 9850   7.922   5.465   2.392
 3303TIP3   OH2 9851   1.366   4.821   1.070
 3303TIP3    H1 9852   1.378   4.761   0.996
 3303TIP3    H2 9853   1.420   4.897   1.047
 3304TIP3   OH2 9854   2.706   0.211   2.287
 3304TIP3    H1 9855   2.733   0.257   2.208
 3304TIP3    H2 9856   2.759   0.131   2.288
 3305TIP3   OH2 9857   4.587   5.713   2.829
 3305TIP3    H1 9858   4.492   5.718   2.825
 3305TIP3    H2 9859   4.605   5.660   2.907
 3306TIP3   OH2 9860   0.485   1.684   3.805
 3306TIP3    H1 9861   0.572   1.657   3.834
 3306TIP3    H2 9862   0.454   1.744   3.873
 3307TIP3   OH2 9863   5.238   0.935   1.121
 3307TIP3    H1 9864   5.251   0.962   1.031
 3307TIP3    H2 9865   5.173   0.865   1.116
 3308TIP3   OH2 9866   5.852   7.587   5.477
 3308TIP3    H1 9867   5.768   7.562   5.440
 3308TIP3    H2 9868   5.889   7.505   5.510
 3309TIP3   OH2 9869   7.737   3.218   1.334
 3309TIP3    H1 9870   7.731   3.309   1.305
 3309TIP3    H2 9871   7.721   3.221   1.428
 3310TIP3   OH2 9872   6.053   3.945   4.787
 3310TIP3    H1 9873   6.061   3.858   4.749
 3310TIP3    H2 9874   6.141   3.967   4.816
 3311TIP3   OH2 9875   4.483   1.909   3.925
 3311TIP3    H1 9876   4.545   1.941   3.991
 3311TIP3    H2 9877   4.415   1.865   3.975
 3312TIP3   OH2 9878   5.418   4.176   5.678
 3312TIP3    H1 9879   5.416   4.204   5.770
 3312TIP3    H2 9880   5.501   4.211   5.644
 3313TIP3   OH2 9881   5.524   3.084   2.022
 3313TIP3    H1 9882   5.502   2.996   1.990
 3313TIP3    H2 9883   5.603   3.071   2.074
 3314TIP3   OH2 9884   3.740   4.608   3.015
 3314TIP3    H1 9885   3.745   4.594   2.920
 3314TIP3    H2 9886   3.830   4.594   3.045
 3315TIP3   OH2 9887   1.924   0.894   2.156
 3315TIP3    H1 9888   1.990   0.875   2.223
 3315TIP3    H2 9889   1.917   0.989   2.155
 3316TIP3   OH2 9890   6.018   7.098   2.185
 3316TIP3    H1 9891   6.037   7.172   2.128
 3316TIP3    H2 9892   5.988   7.138   2.267
 3317TIP3   OH2 9893   1.935   0.007   1.309
 3317TIP3    H1 9894   1.959   0.024   1.218
 3317TIP3    H2 9895   2.012  -0.037   1.346
 3318TIP3   OH2 9896   3.939   3.413   1.703
 3318TIP3    H1 9897   3.978   3.482   1.757
 3318TIP3    H2 9898   3.866   3.455   1.659
 3319TIP3   OH2 9899   7.197   6.391   0.713
 3319TIP3    H1 9900   7.196   6.296   0.702
 3319TIP3    H2 9901   7.125   6.422   0.657
 3320TIP3   OH2 9902   4.655   7.834   2.222
 3320TIP3    H1 9903   4.693   7.760   2.174
 3320TIP3    H2 9904   4.596   7.793   2.286
 3321TIP3   OH2 9905   4.460   6.727   0.985
 3321TIP3    H1 9906   4.472   6.666   0.912
 3321TIP3    H2 9907   4.536   6.714   1.041
 3322TIP3   OH2 9908   7.394   5.778   6.712
 3322TIP3    H1 9909   7.456   5.848   6.690
 3322TIP3    H2 9910   7.370   5.740   6.628
 3323TIP3   OH2 9911   2.750   3.854   4.079
 3323TIP3    H1 9912   2.711   3.893   4.001
 3323TIP3    H2 9913   2.832   3.815   4.047
 3324TIP3   OH2 9914   8.237   7.187   2.425
 3324TIP3    H1 9915   8.284   7.245   2.365
 3324TIP3    H2 9916   8.149   7.224   2.429
 3325TIP3   OH2 9917   2.344   6.220   6.352
 3325TIP3    H1 9918   2.377   6.132   6.372
 3325TIP3    H2 9919   2.360   6.270   6.431
 3326TIP3   OH2 9920   1.031   6.222   5.144
 3326TIP3    H1 9921   1.054   6.247   5.055
 3326TIP3    H2 9922   1.075   6.287   5.199
 3327TIP3   OH2 9923   2.398   7.448   5.254
 3327TIP3    H1 9924   2.464   7.505   5.293
 3327TIP3    H2 9925   2.328   7.508   5.227
 3328TIP3   OH2 9926   1.020   1.748   4.400
 3328TIP3    H1 9927   1.018   1.744   4.304
 3328TIP3    H2 9928   0.975   1.829   4.421
 3329TIP3   OH2 9929   2.781   1.982   2.153
 3329TIP3    H1 9930   2.688   1.962   2.140
 3329TIP3    H2 9931   2.799   2.055   2.094
 3330TIP3   OH2 9932   5.639   4.521   0.653
 3330TIP3    H1 9933   5.686   4.498   0.733
 3330TIP3    H2 9934   5.649   4.616   0.645
 3331TIP3   OH2 9935   7.422   0.623   0.587
 3331TIP3    H1 9936   7.338   0.663   0.610
 3331TIP3    H2 9937   7.478   0.696   0.563
 3332TIP3   OH2 9938   5.475   5.514   3.053
 3332TIP3    H1 9939   5.464   5.470   3.137
 3332TIP3    H2 9940   5.430   5.457   2.990
 3333TIP3   OH2 9941   2.075   3.589   0.690
 3333TIP3    H1 9942   2.123   3.622   0.767
 3333TIP3    H2 9943   1.988   3.629   0.697
 3334TIP3   OH2 9944   7.009   3.533   2.975
 3334TIP3    H1 9945   7.016   3.627   2.961
 3334TIP3    H2 9946   6.989   3.524   3.068
 3335TIP3   OH2 9947   6.510   7.542   4.090
 3335TIP3    H1 9948   6.592   7.499   4.113
 3335TIP3    H2 9949   6.458   7.474   4.048
 3336TIP3   OH2 9950   0.135   6.769   1.707
 3336TIP3    H1 9951   0.069   6.838   1.702
 3336TIP3    H2 9952   0.218   6.817   1.714
 3337TIP3   OH2 9953   5.301   3.965   1.808
 3337TIP3    H1 9954   5.240   3.903   1.848
 3337TIP3    H2 9955   5.352   3.913   1.746
 3338TIP3   OH2 9956   1.914   5.179   2.859
 3338TIP3    H1 9957   1.971   5.249   2.892
 3338TIP3    H2 9958   1.883   5.212   2.775
 3339TIP3   OH2 9959   2.940   0.120   5.708
 3339TIP3    H1 9960   3.026   0.122   5.666
 3339TIP3    H2 9961   2.953   0.064   5.785
 3340TIP3   OH2 9962   7.456   6.692   5.213
 3340TIP3    H1 9963   7.485   6.603   5.191
 3340TIP3    H2 9964   7.393   6.714   5.144
 3341TIP3   OH2 9965   3.192   4.839   4.620
 3341TIP3    H1 9966   3.123   4.806   4.563
 3341TIP3    H2 9967   3.264   4.860   4.561
 3342TIP3   OH2 9968   7.490   2.319   5.944
 3342TIP3    H1 9969   7.458   2.304   6.032
 3342TIP3    H2 9970   7.574   2.273   5.941
 3343TIP3   OH2 9971   3.811   3.914   2.206
 3343TIP3    H1 9972   3.844   3.887   2.292
 3343TIP3    H2 9973   3.820   4.009   2.206
 3344TIP3   OH2 9974   1.470   2.648   5.872
 3344TIP3    H1 9975   1.546   2.600   5.842
 3344TIP3    H2 9976   1.423   2.672   5.792
 3345TIP3   OH2 9977   2.992   6.606   1.861
 3345TIP3    H1 9978   2.983   6.603   1.765
 3345TIP3    H2 9979   3.052   6.678   1.877
 3346TIP3   OH2 9980   4.434   6.354   1.897
 3346TIP3    H1 9981   4.517   6.326   1.934
 3346TIP3    H2 9982   4.458   6.417   1.829
 3347TIP3   OH2 9983   2.109   4.681   0.714
 3347TIP3    H1 9984   2.161   4.737   0.772
 3347TIP3    H2 9985   2.043   4.642   0.772
 3348TIP3   OH2 9986   5.656   0.466   0.008
 3348TIP3    H1 9987   5.706   0.389   0.035
 3348TIP3    H2 9988   5.594   0.433  -0.057
 3349TIP3   OH2 9989   6.193   4.300   5.529
 3349TIP3    H1 9990   6.160   4.283   5.441
 3349TIP3    H2 9991   6.277   4.343   5.516
 3350TIP3   OH2 9992   2.762   6.412   6.562
 3350TIP3    H1 9993   2.813   6.494   6.564
 3350TIP3    H2 9994   2.816   6.352   6.511
 3351TIP3   OH2 9995   7.750   1.385   1.290
 3351TIP3    H1 9996   7.821   1.327   1.261
 3351TIP3    H2 9997   7.720   1.428   1.209
 3352TIP3   OH2 9998   2.291   7.680   3.819
 3352TIP3    H1 9999   2.259   7.688   3.729
 3352TIP3    H210000   2.250   7.753   3.865
 3353TIP3   OH210001   2.304   0.306   5.181
 3353TIP3    H110002   2.226   0.286   5.233
 3353TIP3    H210003   2.270   0.330   5.095
 3354TIP3   OH210004   0.669   2.319   3.014
 3354TIP3    H110005   0.700   2.388   2.954
 3354TIP3    H210006   0.574   2.321   3.006
 3355TIP3   OH210007   1.520   5.355   4.407
 3355TIP3    H110008   1.519   5.450   4.415
 3355TIP3    H210009   1.601   5.336   4.360
 3356TIP3   OH210010   0.949   0.062   0.638
 3356TIP3    H110011   1.030   0.107   0.663
 3356TIP3    H210012   0.977  -0.003   0.574
 3357TIP3   OH210013   7.752   2.577   0.137
 3357TIP3    H110014   7.666   2.579   0.095
 3357TIP3    H210015   7.733   2.568   0.230
 3358TIP3   OH210016   7.218   2.400   2.617
 3358TIP3    H110017   7.230   2.323   2.562
 3358TIP3    H210018   7.216   2.366   2.706
 3359TIP3   OH210019   0.563   3.471   0.091
 3359TIP3    H110020   0.629   3.407   0.063
 3359TIP3    H210021   0.480   3.435   0.060
 3360TIP3   OH210022   4.592   0.857   4.574
 3360TIP3    H110023   4.669   0.895   4.533
 3360TIP3    H210024   4.589   0.767   4.542
 3361TIP3   OH210025   2.280   7.232   5.448
 3361TIP3    H110026   2.310   7.320   5.428
 3361TIP3    H210027   2.186   7.240   5.462
 3362TIP3   OH210028   5.428   5.427   6.503
 3362TIP3    H110029   5.374   5.385   6.569
 3362TIP3    H210030   5.398   5.518   6.501
 3363TIP3   OH210031   2.835   5.387   4.986
 3363TIP3    H110032   2.929   5.386   4.972
 3363TIP3    H210033   2.823   5.351   5.074
 3364TIP3   OH210034   3.137   1.212   1.081
 3364TIP3    H110035   3.125   1.126   1.041
 3364TIP3    H210036   3.082   1.271   1.030
 3365TIP3   OH210037   5.264   4.627   3.058
 3365TIP3    H110038   5.230   4.537   3.064
 3365TIP3    H210039   5.303   4.633   2.971
 3366TIP3   OH210040   6.264   4.895   5.475
 3366TIP3    H110041   6.314   4.976   5.486
 3366TIP3    H210042   6.259   4.882   5.380
 3367TIP3   OH210043   0.102   0.888   5.210
 3367TIP3    H110044   0.120   0.963   5.267
 3367TIP3    H210045   0.017   0.856   5.240
 3368TIP3   OH210046   5.935   5.575   3.463
 3368TIP3    H110047   5.938   5.543   3.373
 3368TIP3    H210048   6.026   5.573   3.492
 3369TIP3   OH210049   4.825   3.686   1.240
 3369TIP3    H110050   4.814   3.741   1.317
 3369TIP3    H210051   4.905   3.636   1.257
 3370TIP3   OH210052   3.565   4.608   3.590
 3370TIP3    H110053   3.653   4.592   3.554
 3370TIP3    H210054   3.541   4.526   3.632
 3371TIP3   OH210055   5.220   4.562   2.008
 3371TIP3    H110056   5.184   4.523   1.928
 3371TIP3    H210057   5.187   4.652   2.007
 3372TIP3   OH210058   8.127   1.355   2.236
 3372TIP3    H110059   8.094   1.440   2.264
 3372TIP3    H210060   8.048   1.305   2.214
 3373TIP3   OH210061   7.145   0.545   5.389
 3373TIP3    H110062   7.128   0.508   5.476
 3373TIP3    H210063   7.059   0.570   5.357
 3374TIP3   OH210064   3.014   1.962   3.418
 3374TIP3    H110065   2.993   2.006   3.335
 3374TIP3    H210066   3.005   2.030   3.484
 3375TIP3   OH210067   0.901   0.687   1.538
 3375TIP3    H110068   0.890   0.604   1.585
 3375TIP3    H210069   0.812   0.716   1.519
 3376TIP3   OH210070   6.370   6.080   0.710
 3376TIP3    H110071   6.312   6.126   0.649
 3376TIP3    H210072   6.310   6.033   0.769
 3377TIP3   OH210073   2.893   1.788   6.234
 3377TIP3    H110074   2.907   1.847   6.160
 3377TIP3    H210075   2.977   1.743   6.245
 3378TIP3   OH210076   0.818   1.249   1.032
 3378TIP3    H110077   0.738   1.295   1.055
 3378TIP3    H210078   0.883   1.318   1.020
 3379TIP3   OH210079   5.856   3.318   1.351
 3379TIP3    H110080   5.792   3.322   1.422
 3379TIP3    H210081   5.840   3.397   1.299
 3380TIP3   OH210082   6.479   4.133   1.281
 3380TIP3    H110083   6.527   4.082   1.347
 3380TIP3    H210084   6.395   4.089   1.274
 3381TIP3   OH210085   5.989   2.796   1.295
 3381TIP3    H110086   5.946   2.782   1.211
 3381TIP3    H210087   5.993   2.709   1.335
 3382TIP3   OH210088   2.080   3.716   0.268
 3382TIP3    H110089   2.116   3.794   0.225
 3382TIP3    H210090   2.148   3.690   0.330
 3383TIP3   OH210091   5.667   0.549   5.194
 3383TIP3    H110092   5.633   0.566   5.282
 3383TIP3    H210093   5.614   0.605   5.137
 3384TIP3   OH210094   1.243   2.555  -0.019
 3384TIP3    H110095   1.277   2.470  -0.049
 3384TIP3    H210096   1.240   2.547   0.077
 3385TIP3   OH210097   3.753   1.051   5.080
 3385TIP3    H110098   3.841   1.053   5.044
 3385TIP3    H210099   3.716   0.968   5.049
 3386TIP3   OH210100   4.300   1.444   1.862
 3386TIP3    H110101   4.344   1.475   1.784
 3386TIP3    H210102   4.357   1.375   1.896
 3387TIP3   OH210103   6.328   5.437   4.917
 3387TIP3    H110104   6.410   5.454   4.872
 3387TIP3    H210105   6.353   5.393   4.998
 3388TIP3   OH210106   2.041   0.213   0.683
 3388TIP3    H110107   2.119   0.248   0.726
 3388TIP3    H210108   2.055   0.119   0.680
 3389TIP3   OH210109   4.680   0.214   3.003
 3389TIP3    H110110   4.695   0.270   2.926
 3389TIP3    H210111   4.768   0.191   3.033
 3390TIP3   OH210112   0.714   1.100   2.512
 3390TIP3    H110113   0.757   1.122   2.429
 3390TIP3    H210114   0.686   1.184   2.548
 3391TIP3   OH210115   4.960   1.327   5.910
 3391TIP3    H110116   4.999   1.404   5.869
 3391TIP3    H210117   4.960   1.261   5.841
 3392TIP3   OH210118   5.741   6.969   0.460
 3392TIP3    H110119   5.738   7.046   0.517
 3392TIP3    H210120   5.743   6.895   0.520
 3393TIP3   OH210121   3.465   1.296   5.965
 3393TIP3    H110122   3.428   1.367   5.913
 3393TIP3    H210123   3.422   1.217   5.932
 3394TIP3   OH210124   7.431   0.222   2.790
 3394TIP3    H110125   7.418   0.186   2.702
 3394TIP3    H210126   7.523   0.248   2.792
 3395TIP3   OH210127   5.380   5.223   2.648
 3395TIP3    H110128   5.303   5.251   2.599
 3395TIP3    H210129   5.446   5.290   2.629
 3396TIP3   OH210130   4.696   7.758   1.223
 3396TIP3    H110131   4.608   7.786   1.251
 3396TIP3    H210132   4.718   7.817   1.151
 3397TIP3   OH210133   7.191   3.998   2.753
 3397TIP3    H110134   7.231   3.994   2.666
 3397TIP3    H210135   7.258   3.961   2.811
 3398TIP3   OH210136   4.657   6.449   4.281
 3398TIP3    H110137   4.655   6.355   4.264
 3398TIP3    H210138   4.600   6.461   4.357
 3399TIP3   OH210139   4.863   0.027   4.392
 3399TIP3    H110140   4.783  -0.020   4.366
 3399TIP3    H210141   4.934  -0.029   4.361
 3400TIP3   OH210142   0.088   5.046   5.464
 3400TIP3    H110143   0.064   4.954   5.464
 3400TIP3    H210144   0.164   5.051   5.523
 3401TIP3   OH210145   5.159   2.875   4.274
 3401TIP3    H110146   5.147   2.797   4.220
 3401TIP3    H210147   5.252   2.875   4.296
 3402TIP3   OH210148   5.494   2.349   2.744
 3402TIP3    H110149   5.522   2.258   2.731
 3402TIP3    H210150   5.462   2.351   2.835
 3403TIP3   OH210151   1.065   1.679   4.811
 3403TIP3    H110152   0.978   1.685   4.771
 3403TIP3    H210153   1.082   1.767   4.844
 3404TIP3   OH210154   7.522   5.703   1.647
 3404TIP3    H110155   7.613   5.704   1.676
 3404TIP3    H210156   7.505   5.793   1.619
 3405TIP3   OH210157   3.700   6.191   6.311
 3405TIP3    H110158   3.779   6.224   6.354
 3405TIP3    H210159   3.633   6.256   6.332
 3406TIP3   OH210160   6.389   4.073   5.676
 3406TIP3    H110161   6.401   4.162   5.642
 3406TIP3    H210162   6.307   4.078   5.726
 3407TIP3   OH210163   2.365   4.875   4.709
 3407TIP3    H110164   2.430   4.943   4.725
 3407TIP3    H210165   2.370   4.818   4.785
 3408TIP3   OH210166   1.098   3.702   2.417
 3408TIP3    H110167   1.054   3.625   2.454
 3408TIP3    H210168   1.076   3.773   2.476
 3409TIP3   OH210169   3.970   0.170   0.270
 3409TIP3    H110170   3.954   0.264   0.272
 3409TIP3    H210171   3.896   0.133   0.222
 3410TIP3   OH210172   5.908   0.429   6.344
 3410TIP3    H110173   5.818   0.423   6.377
 3410TIP3    H210174   5.907   0.504   6.285
 3411TIP3   OH210175   5.889   2.035   5.938
 3411TIP3    H110176   5.847   1.969   5.883
 3411TIP3    H210177   5.963   2.067   5.886
 3412TIP3   OH210178   6.703   4.814   5.848
 3412TIP3    H110179   6.640   4.819   5.920
 3412TIP3    H210180   6.651   4.830   5.769
 3413TIP3   OH210181   4.852   1.339   0.849
 3413TIP3    H110182   4.811   1.279   0.912
 3413TIP3    H210183   4.836   1.426   0.885
 3414TIP3   OH210184   2.537   5.195   5.517
 3414TIP3    H110185   2.580   5.144   5.448
 3414TIP3    H210186   2.443   5.182   5.502
 3415TIP3   OH210187   4.614   7.659   0.849
 3415TIP3    H110188   4.630   7.647   0.755
 3415TIP3    H210189   4.631   7.752   0.864
 3416TIP3   OH210190   4.558   5.188   1.792
 3416TIP3    H110191   4.475   5.229   1.819
 3416TIP3    H210192   4.620   5.212   1.860
 3417TIP3   OH210193   4.736   2.277   2.124
 3417TIP3    H110194   4.784   2.350   2.083
 3417TIP3    H210195   4.718   2.308   2.213
 3418TIP3   OH210196   7.606   4.190   4.764
 3418TIP3    H110197   7.590   4.104   4.803
 3418TIP3    H210198   7.639   4.171   4.676
 3419TIP3   OH210199   5.136   1.887   5.194
 3419TIP3    H110200   5.124   1.824   5.123
 3419TIP3    H210201   5.084   1.853   5.266
 3420TIP3   OH210202   4.921   6.271   1.410
 3420TIP3    H110203   4.832   6.249   1.382
 3420TIP3    H210204   4.913   6.360   1.445
 3421TIP3   OH210205   3.174   3.063   1.426
 3421TIP3    H110206   3.094   3.091   1.470
 3421TIP3    H210207   3.243   3.116   1.465
 3422TIP3   OH210208   1.412   7.405   1.187
 3422TIP3    H110209   1.460   7.474   1.141
 3422TIP3    H210210   1.475   7.333   1.195
 3423TIP3   OH210211   1.151   0.102   3.666
 3423TIP3    H110212   1.113   0.126   3.582
 3423TIP3    H210213   1.214   0.033   3.646
 3424TIP3   OH210214   3.571   6.278   3.332
 3424TIP3    H110215   3.611   6.204   3.376
 3424TIP3    H210216   3.537   6.333   3.402
 3425TIP3   OH210217   2.513   2.613   1.912
 3425TIP3    H110218   2.499   2.700   1.948
 3425TIP3    H210219   2.556   2.627   1.828
 3426TIP3   OH210220   5.523   4.324   5.060
 3426TIP3    H110221   5.552   4.280   4.980
 3426TIP3    H210222   5.461   4.263   5.101
 3427TIP3   OH210223   3.828   6.536   3.457
 3427TIP3    H110224   3.871   6.467   3.407
 3427TIP3    H210225   3.802   6.601   3.392
 3428TIP3   OH210226   0.988   0.951   2.381
 3428TIP3    H110227   1.070   0.906   2.401
 3428TIP3    H210228   0.978   1.015   2.452
 3429TIP3   OH210229   0.315   4.836   4.290
 3429TIP3    H110230   0.278   4.879   4.367
 3429TIP3    H210231   0.377   4.772   4.327
 3430TIP3   OH210232   5.072   1.751   4.487
 3430TIP3    H110233   5.106   1.840   4.480
 3430TIP3    H210234   5.017   1.740   4.409
 3431TIP3   OH210235   7.599   5.268   0.275
 3431TIP3    H110236   7.661   5.273   0.348
 3431TIP3    H210237   7.630   5.194   0.223
 3432TIP3   OH210238   4.735   7.060   6.628
 3432TIP3    H110239   4.733   7.106   6.712
 3432TIP3    H210240   4.803   7.106   6.577
 3433TIP3   OH210241   8.207   5.246   5.654
 3433TIP3    H110242   8.275   5.302   5.689
 3433TIP3    H210243   8.254   5.177   5.607
 3434TIP3   OH210244   1.360   5.167   0.649
 3434TIP3    H110245   1.454   5.151   0.634
 3434TIP3    H210246   1.324   5.081   0.667
 3435TIP3   OH210247   1.350   1.537   1.721
 3435TIP3    H110248   1.377   1.618   1.764
 3435TIP3    H210249   1.313   1.483   1.791
 3436TIP3   OH210250   3.411   6.835   1.956
 3436TIP3    H110251   3.421   6.752   2.004
 3436TIP3    H210252   3.382   6.897   2.023
 3437TIP3   OH210253   8.100   0.819   1.228
 3437TIP3    H110254   8.187   0.858   1.234
 3437TIP3    H210255   8.061   0.860   1.150
 3438TIP3   OH210256   1.625   3.800   2.094
 3438TIP3    H110257   1.547   3.746   2.097
 3438TIP3    H210258   1.687   3.756   2.153
 3439TIP3   OH210259  -0.016   7.031   4.375
 3439TIP3    H110260  -0.076   7.105   4.362
 3439TIP3    H210261   0.034   7.054   4.453
 3440TIP3   OH210262   6.179   6.474   2.864
 3440TIP3    H110263   6.245   6.436   2.806
 3440TIP3    H210264   6.224   6.547   2.908
 3441TIP3   OH210265   7.012   5.599   2.510
 3441TIP3    H110266   6.996   5.526   2.452
 3441TIP3    H210267   7.044   5.669   2.453
 3442TIP3   OH210268   0.957   0.821   6.543
 3442TIP3    H110269   0.891   0.756   6.516
 3442TIP3    H210270   0.909   0.883   6.597
 3443TIP3   OH210271   1.611   5.498   2.719
 3443TIP3    H110272   1.657   5.414   2.727
 3443TIP3    H210273   1.533   5.487   2.774
 3444TIP3   OH210274   0.812   3.683   0.606
 3444TIP3    H110275   0.717   3.696   0.606
 3444TIP3    H210276   0.826   3.614   0.672
 3445TIP3   OH210277   3.292   3.837   2.210
 3445TIP3    H110278   3.316   3.862   2.121
 3445TIP3    H210279   3.327   3.748   2.220
 3446TIP3   OH210280   1.519   0.813   6.689
 3446TIP3    H110281   1.478   0.896   6.665
 3446TIP3    H210282   1.535   0.819   6.783
 3447TIP3   OH210283   2.455   5.949   0.905
 3447TIP3    H110284   2.383   5.921   0.849
 3447TIP3    H210285   2.524   5.974   0.845
 3448TIP3   OH210286   7.375   3.074   1.890
 3448TIP3    H110287   7.342   2.986   1.872
 3448TIP3    H210288   7.350   3.125   1.813
 3449TIP3   OH210289   4.158   7.499   5.897
 3449TIP3    H110290   4.210   7.487   5.976
 3449TIP3    H210291   4.099   7.424   5.895
 3450TIP3   OH210292   4.489   1.227   1.895
 3450TIP3    H110293   4.553   1.176   1.845
 3450TIP3    H210294   4.425   1.162   1.924
 3451TIP3   OH210295   4.901   0.180   1.338
 3451TIP3    H110296   4.849   0.246   1.382
 3451TIP3    H210297   4.855   0.098   1.355
 3452TIP3   OH210298   4.010   3.355   2.599
 3452TIP3    H110299   4.053   3.356   2.513
 3452TIP3    H210300   4.026   3.442   2.634
 3453TIP3   OH210301   2.357   4.646   1.560
 3453TIP3    H110302   2.413   4.570   1.547
 3453TIP3    H210303   2.324   4.637   1.649
 3454TIP3   OH210304   3.546   5.973   3.234
 3454TIP3    H110305   3.596   5.963   3.315
 3454TIP3    H210306   3.458   5.997   3.263
 3455TIP3   OH210307   6.375   6.991   0.062
 3455TIP3    H110308   6.464   7.020   0.043
 3455TIP3    H210309   6.319   7.062   0.031
 3456TIP3   OH210310   3.213   2.450   5.347
 3456TIP3    H110311   3.249   2.456   5.436
 3456TIP3    H210312   3.249   2.526   5.302
 3457TIP3   OH210313   3.566   7.268   2.818
 3457TIP3    H110314   3.610   7.184   2.829
 3457TIP3    H210315   3.571   7.310   2.904
 3458TIP3   OH210316   5.414   4.451   0.205
 3458TIP3    H110317   5.445   4.511   0.273
 3458TIP3    H210318   5.438   4.364   0.236
 3459TIP3   OH210319   5.345   1.193   3.394
 3459TIP3    H110320   5.286   1.267   3.378
 3459TIP3    H210321   5.421   1.212   3.340
 3460TIP3   OH210322   4.856   0.816   5.260
 3460TIP3    H110323   4.901   0.864   5.329
 3460TIP3    H210324   4.784   0.873   5.234
 3461TIP3   OH210325   4.984   2.743   1.816
 3461TIP3    H110326   4.933   2.817   1.784
 3461TIP3    H210327   4.979   2.750   1.911
 3462TIP3   OH210328   0.521   4.656   4.359
 3462TIP3    H110329   0.600   4.670   4.411
 3462TIP3    H210330   0.548   4.674   4.269
 3463TIP3   OH210331   2.857   1.914   2.873
 3463TIP3    H110332   2.814   1.890   2.791
 3463TIP3    H210333   2.926   1.975   2.847
 3464TIP3   OH210334   5.145   7.188   0.964
 3464TIP3    H110335   5.164   7.264   0.909
 3464TIP3    H210336   5.078   7.219   1.025
 3465TIP3   OH210337   2.111   2.753   4.367
 3465TIP3    H110338   2.065   2.751   4.283
 3465TIP3    H210339   2.140   2.844   4.377
 3466TIP3   OH210340   1.749   7.385   2.063
 3466TIP3    H110341   1.688   7.458   2.060
 3466TIP3    H210342   1.702   7.316   2.110
 3467TIP3   OH210343   7.478   4.348   4.031
 3467TIP3    H110344   7.418   4.386   4.096
 3467TIP3    H210345   7.424   4.332   3.954
 3468TIP3   OH210346   7.904   3.829   0.627
 3468TIP3    H110347   7.960   3.906   0.624
 3468TIP3    H210348   7.826   3.858   0.675
 3469TIP3   OH210349   6.048   3.750   4.406
 3469TIP3    H110350   6.007   3.682   4.460
 3469TIP3    H210351   5.979   3.816   4.394
 3470TIP3   OH210352   7.239   0.059   4.550
 3470TIP3    H110353   7.264  -0.015   4.606
 3470TIP3    H210354   7.179   0.022   4.486
 3471TIP3   OH210355   4.515   5.636   3.132
 3471TIP3    H110356   4.592   5.687   3.159
 3471TIP3    H210357   4.552   5.552   3.103
 3472TIP3   OH210358   1.614   0.953   5.887
 3472TIP3    H110359   1.527   0.951   5.926
 3472TIP3    H210360   1.663   1.014   5.942
 3473TIP3   OH210361   8.192   0.852   1.503
 3473TIP3    H110362   8.235   0.780   1.550
 3473TIP3    H210363   8.154   0.810   1.426
 3474TIP3   OH210364   1.612   1.497   3.009
 3474TIP3    H110365   1.621   1.585   3.046
 3474TIP3    H210366   1.518   1.482   3.005
 3475TIP3   OH210367   5.305   6.801   3.295
 3475TIP3    H110368   5.372   6.761   3.240
 3475TIP3    H210369   5.235   6.736   3.297
 3476TIP3   OH210370   0.507   2.622   2.941
 3476TIP3    H110371   0.530   2.537   2.902
 3476TIP3    H210372   0.542   2.687   2.880
 3477TIP3   OH210373   0.084   4.764   0.690
 3477TIP3    H110374   0.053   4.677   0.717
 3477TIP3    H210375   0.123   4.750   0.604
 3478TIP3   OH210376   2.896   3.546   4.934
 3478TIP3    H110377   2.969   3.523   4.876
 3478TIP3    H210378   2.888   3.472   4.994
 3479TIP3   OH210379   5.846   4.542   5.500
 3479TIP3    H110380   5.773   4.573   5.446
 3479TIP3    H210381   5.818   4.563   5.590
 3480TIP3   OH210382   1.513   4.646   3.941
 3480TIP3    H110383   1.510   4.643   4.037
 3480TIP3    H210384   1.460   4.723   3.918
 3481TIP3   OH210385   1.595   0.881   2.973
 3481TIP3    H110386   1.525   0.817   2.967
 3481TIP3    H210387   1.600   0.903   3.066
 3482TIP3   OH210388   3.194   5.673   4.281
 3482TIP3    H110389   3.114   5.627   4.304
 3482TIP3    H210390   3.166   5.740   4.219
 3483TIP3   OH210391   6.382   5.393   2.827
 3483TIP3    H110392   6.437   5.379   2.750
 3483TIP3    H210393   6.439   5.439   2.889
 3484TIP3   OH210394   8.048   0.345   3.525
 3484TIP3    H110395   7.992   0.372   3.597
 3484TIP3    H210396   8.133   0.329   3.565
 3485TIP3   OH210397   7.299   4.035   0.786
 3485TIP3    H110398   7.310   4.127   0.762
 3485TIP3    H210399   7.312   3.987   0.704
 3486TIP3   OH210400   0.237   6.591   5.511
 3486TIP3    H110401   0.270   6.642   5.585
 3486TIP3    H210402   0.159   6.639   5.481
 3487TIP3   OH210403   7.993   1.024   1.902
 3487TIP3    H110404   7.920   1.011   1.963
 3487TIP3    H210405   8.066   1.051   1.958
 3488TIP3   OH210406   6.280   6.008   4.693
 3488TIP3    H110407   6.315   6.055   4.617
 3488TIP3    H210408   6.312   5.919   4.684
 3489TIP3   OH210409   5.440   0.638   6.114
 3489TIP3    H110410   5.356   0.625   6.071
 3489TIP3    H210411   5.454   0.558   6.164
 3490TIP3   OH210412   5.032   6.905   0.936
 3490TIP3    H110413   5.115   6.927   0.893
 3490TIP3    H210414   4.965   6.939   0.878
 3491TIP3   OH210415   2.901   4.627   0.933
 3491TIP3    H110416   2.824   4.659   0.885
 3491TIP3    H210417   2.967   4.612   0.865
 3492TIP3   OH210418   3.787   1.586   5.142
 3492TIP3    H110419   3.822   1.577   5.053
 3492TIP3    H210420   3.740   1.504   5.158
 3493TIP3   OH210421   4.494   4.976   2.910
 3493TIP3    H110422   4.475   5.060   2.951
 3493TIP3    H210423   4.589   4.978   2.894
 3494TIP3   OH210424   0.639   7.382   5.618
 3494TIP3    H110425   0.554   7.386   5.661
 3494TIP3    H210426   0.628   7.432   5.537
 3495TIP3   OH210427   6.557   6.684   2.791
 3495TIP3    H110428   6.575   6.591   2.774
 3495TIP3    H210429   6.502   6.712   2.718
 3496TIP3   OH210430   1.615   6.550   5.222
 3496TIP3    H110431   1.556   6.545   5.298
 3496TIP3    H210432   1.585   6.480   5.164
 3497TIP3   OH210433   2.761   0.230   2.647
 3497TIP3    H110434   2.737   0.137   2.646
 3497TIP3    H210435   2.703   0.270   2.583
 3498TIP3   OH210436   4.331   2.743   5.730
 3498TIP3    H110437   4.397   2.719   5.796
 3498TIP3    H210438   4.262   2.678   5.740
 3499TIP3   OH210439   3.455   0.292   2.813
 3499TIP3    H110440   3.412   0.255   2.890
 3499TIP3    H210441   3.487   0.378   2.842
 3500TIP3   OH210442   8.045   4.146   5.894
 3500TIP3    H110443   7.973   4.173   5.837
 3500TIP3    H210444   8.116   4.125   5.834
 3501TIP3   OH210445   0.990   2.323   0.205
 3501TIP3    H110446   1.033   2.326   0.290
 3501TIP3    H210447   0.972   2.230   0.190
 3502TIP3   OH210448   4.586   7.017   1.148
 3502TIP3    H110449   4.596   7.093   1.091
 3502TIP3    H210450   4.675   6.984   1.162
 3503TIP3   OH210451   0.917   2.551   6.150
 3503TIP3    H110452   0.902   2.547   6.245
 3503TIP3    H210453   0.935   2.643   6.133
 3504TIP3   OH210454   5.812   2.131   6.583
 3504TIP3    H110455   5.731   2.093   6.619
 3504TIP3    H210456   5.830   2.080   6.505
 3505TIP3   OH210457   2.439   4.968   1.971
 3505TIP3    H110458   2.448   5.007   2.058
 3505TIP3    H210459   2.517   4.912   1.962
 3506TIP3   OH210460   3.176   2.742   6.111
 3506TIP3    H110461   3.263   2.707   6.132
 3506TIP3    H210462   3.129   2.670   6.071
 3507TIP3   OH210463   7.055   0.429   3.812
 3507TIP3    H110464   7.089   0.409   3.899
 3507TIP3    H210465   7.120   0.489   3.774
 3508TIP3   OH210466   4.576   2.481   5.337
 3508TIP3    H110467   4.541   2.407   5.287
 3508TIP3    H210468   4.671   2.470   5.333
 3509TIP3   OH210469   3.199   6.255   4.585
 3509TIP3    H110470   3.215   6.162   4.601
 3509TIP3    H210471   3.285   6.291   4.565
 3510TIP3   OH210472   0.185   0.644   5.100
 3510TIP3    H110473   0.143   0.575   5.152
 3510TIP3    H210474   0.152   0.725   5.137
 3511TIP3   OH210475   3.204   0.595   1.111
 3511TIP3    H110476   3.140   0.615   1.043
 3511TIP3    H210477   3.267   0.667   1.107
 3512TIP3   OH210478   3.986   5.546   5.381
 3512TIP3    H110479   3.928   5.494   5.436
 3512TIP3    H210480   3.944   5.632   5.377
 3513TIP3   OH210481   6.514   3.284   4.341
 3513TIP3    H110482   6.515   3.229   4.263
 3513TIP3    H210483   6.553   3.229   4.409
 3514TIP3   OH210484   7.324   7.491   3.691
 3514TIP3    H110485   7.324   7.462   3.782
 3514TIP3    H210486   7.414   7.476   3.661
 3515TIP3   OH210487   0.668   6.211   6.443
 3515TIP3    H110488   0.718   6.133   6.469
 3515TIP3    H210489   0.721   6.252   6.375
 3516TIP3   OH210490   6.002   5.520   6.006
 3516TIP3    H110491   5.979   5.518   6.099
 3516TIP3    H210492   6.068   5.451   5.997
 3517TIP3   OH210493   2.445   0.251   1.402
 3517TIP3    H110494   2.374   0.266   1.339
 3517TIP3    H210495   2.446   0.331   1.455
 3518TIP3   OH210496   6.598   6.133   4.984
 3518TIP3    H110497   6.568   6.215   4.944
 3518TIP3    H210498   6.581   6.144   5.078
 3519TIP3   OH210499   2.274   1.221   0.367
 3519TIP3    H110500   2.189   1.194   0.333
 3519TIP3    H210501   2.293   1.303   0.322
 3520TIP3   OH210502   3.734   7.440   6.109
 3520TIP3    H110503   3.708   7.399   6.191
 3520TIP3    H210504   3.785   7.372   6.064
 3521TIP3   OH210505   0.377   0.810   2.071
 3521TIP3    H110506   0.294   0.824   2.026
 3521TIP3    H210507   0.369   0.724   2.111
 3522TIP3   OH210508   6.817   3.707   2.297
 3522TIP3    H110509   6.726   3.739   2.299
 3522TIP3    H210510   6.810   3.614   2.318
 3523TIP3   OH210511   3.743   3.039   3.055
 3523TIP3    H110512   3.807   3.104   3.084
 3523TIP3    H210513   3.736   2.979   3.129
 3524TIP3   OH210514   5.326   2.509   5.224
 3524TIP3    H110515   5.332   2.602   5.201
 3524TIP3    H210516   5.368   2.464   5.151
 3525TIP3   OH210517   3.621   7.627   5.830
 3525TIP3    H110518   3.651   7.718   5.834
 3525TIP3    H210519   3.700   7.576   5.812
 3526TIP3   OH210520   3.650   4.368   2.027
 3526TIP3    H110521   3.594   4.291   2.026
 3526TIP3    H210522   3.711   4.352   2.099
 3527TIP3   OH210523   0.728   6.471   0.787
 3527TIP3    H110524   0.745   6.500   0.697
 3527TIP3    H210525   0.774   6.535   0.841
 3528TIP3   OH210526   0.217   4.711   6.135
 3528TIP3    H110527   0.309   4.739   6.135
 3528TIP3    H210528   0.170   4.785   6.097
 3529TIP3   OH210529   1.840   5.763  -0.045
 3529TIP3    H110530   1.834   5.859  -0.052
 3529TIP3    H210531   1.825   5.744   0.047
 3530TIP3   OH210532   4.895   1.521   0.635
 3530TIP3    H110533   4.922   1.437   0.673
 3530TIP3    H210534   4.800   1.517   0.632
 3531TIP3   OH210535   5.944   1.312   4.780
 3531TIP3    H110536   5.915   1.308   4.689
 3531TIP3    H210537   5.996   1.392   4.784
 3532TIP3   OH210538   5.082   5.828   4.323
 3532TIP3    H110539   5.156   5.776   4.354
 3532TIP3    H210540   5.007   5.768   4.327
 3533TIP3   OH210541   3.010   4.914   2.403
 3533TIP3    H110542   2.994   4.959   2.321
 3533TIP3    H210543   3.085   4.857   2.385
 3534TIP3   OH210544   4.693   5.618   2.193
 3534TIP3    H110545   4.653   5.674   2.258
 3534TIP3    H210546   4.626   5.553   2.172
 3535TIP3   OH210547   0.499   6.729   1.544
 3535TIP3    H110548   0.443   6.806   1.556
 3535TIP3    H210549   0.508   6.720   1.449
 3536TIP3   OH210550   3.950   1.519   2.244
 3536TIP3    H110551   4.021   1.569   2.285
 3536TIP3    H210552   3.874   1.533   2.301
 3537TIP3   OH210553   6.204   6.729   6.249
 3537TIP3    H110554   6.112   6.702   6.259
 3537TIP3    H210555   6.228   6.763   6.335
 3538TIP3   OH210556   0.501   7.589   4.922
 3538TIP3    H110557   0.416   7.597   4.966
 3538TIP3    H210558   0.509   7.496   4.903
 3539TIP3   OH210559   0.699   0.396   1.398
 3539TIP3    H110560   0.765   0.400   1.468
 3539TIP3    H210561   0.692   0.303   1.377
 3540TIP3   OH210562   6.357   5.609   4.187
 3540TIP3    H110563   6.441   5.592   4.230
 3540TIP3    H210564   6.348   5.704   4.189
 3541TIP3   OH210565   1.105   4.391   4.747
 3541TIP3    H110566   1.015   4.401   4.779
 3541TIP3    H210567   1.102   4.311   4.695
 3542TIP3   OH210568   0.535   2.790   1.134
 3542TIP3    H110569   0.518   2.733   1.059
 3542TIP3    H210570   0.448   2.814   1.166
 3543TIP3   OH210571   4.993   7.697   4.618
 3543TIP3    H110572   4.946   7.625   4.660
 3543TIP3    H210573   5.042   7.655   4.547
 3544TIP3   OH210574   1.012   6.836   5.289
 3544TIP3    H110575   0.936   6.807   5.340
 3544TIP3    H210576   1.003   6.931   5.285
 3545TIP3   OH210577   4.508   0.899   5.516
 3545TIP3    H110578   4.416   0.889   5.536
 3545TIP3    H210579   4.510   0.951   5.436
 3546TIP3   OH210580   2.041   3.093   3.051
 3546TIP3    H110581   2.054   3.048   3.135
 3546TIP3    H210582   2.006   3.025   2.993
 3547TIP3   OH210583   3.716   4.542   4.856
 3547TIP3    H110584   3.791   4.563   4.801
 3547TIP3    H210585   3.726   4.597   4.933
 3548TIP3   OH210586   1.176   6.296   1.437
 3548TIP3    H110587   1.140   6.213   1.406
 3548TIP3    H210588   1.262   6.303   1.395
 3549TIP3   OH210589   3.096   3.803   1.739
 3549TIP3    H110590   3.065   3.892   1.757
 3549TIP3    H210591   3.182   3.815   1.698
 3550TIP3   OH210592   1.779   1.013   5.608
 3550TIP3    H110593   1.834   1.067   5.552
 3550TIP3    H210594   1.828   1.003   5.689
 3551TIP3   OH210595   1.344   5.161   5.013
 3551TIP3    H110596   1.277   5.096   5.035
 3551TIP3    H210597   1.310   5.204   4.935
 3552TIP3   OH210598   0.050   3.934   6.041
 3552TIP3    H110599   0.085   3.901   5.959
 3552TIP3    H210600   0.110   4.004   6.066
 3553TIP3   OH210601   6.164   7.063   4.475
 3553TIP3    H110602   6.133   7.075   4.386
 3553TIP3    H210603   6.130   6.978   4.502
 3554TIP3   OH210604   6.265   7.736   1.040
 3554TIP3    H110605   6.212   7.815   1.032
 3554TIP3    H210606   6.302   7.724   0.952
 3555TIP3   OH210607   5.486   3.111   6.020
 3555TIP3    H110608   5.577   3.100   6.046
 3555TIP3    H210609   5.460   3.195   6.059
 3556TIP3   OH210610   1.183   4.921   5.627
 3556TIP3    H110611   1.106   4.928   5.570
 3556TIP3    H210612   1.163   4.978   5.702
 3557TIP3   OH210613   1.580   2.125   6.116
 3557TIP3    H110614   1.493   2.116   6.154
 3557TIP3    H210615   1.640   2.119   6.190
 3558TIP3   OH210616   3.108   7.018   4.743
 3558TIP3    H110617   3.068   6.943   4.698
 3558TIP3    H210618   3.052   7.092   4.723
 3559TIP3   OH210619   0.542   6.040   2.759
 3559TIP3    H110620   0.606   6.076   2.698
 3559TIP3    H210621   0.473   6.004   2.702
 3560TIP3   OH210622   7.420   5.468   2.832
 3560TIP3    H110623   7.479   5.394   2.850
 3560TIP3    H210624   7.358   5.434   2.767
 3561TIP3   OH210625   1.391   7.571   5.466
 3561TIP3    H110626   1.332   7.608   5.400
 3561TIP3    H210627   1.371   7.477   5.466
 3562TIP3   OH210628   7.230   2.731   2.355
 3562TIP3    H110629   7.143   2.725   2.395
 3562TIP3    H210630   7.223   2.803   2.293
 3563TIP3   OH210631   0.529   0.709   6.386
 3563TIP3    H110632   0.478   0.790   6.395
 3563TIP3    H210633   0.468   0.640   6.412
 3564TIP3   OH210634   3.181   5.992   4.685
 3564TIP3    H110635   3.184   5.935   4.761
 3564TIP3    H210636   3.123   5.948   4.623
 3565TIP3   OH210637   0.373   2.282   1.719
 3565TIP3    H110638   0.436   2.344   1.682
 3565TIP3    H210639   0.320   2.335   1.778
 3566TIP3   OH210640   2.559   5.165   0.020
 3566TIP3    H110641   2.513   5.249   0.021
 3566TIP3    H210642   2.589   5.153   0.110
 3567TIP3   OH210643   2.433   5.444   0.075
 3567TIP3    H110644   2.473   5.463   0.160
 3567TIP3    H210645   2.464   5.514   0.018
 3568TIP3   OH210646   2.840   4.674   4.869
 3568TIP3    H110647   2.806   4.585   4.879
 3568TIP3    H210648   2.924   4.672   4.916
 3569TIP3   OH210649   8.092   6.560   4.399
 3569TIP3    H110650   8.182   6.529   4.400
 3569TIP3    H210651   8.063   6.554   4.490
 3570TIP3   OH210652   7.497   6.640   0.932
 3570TIP3    H110653   7.562   6.570   0.942
 3570TIP3    H210654   7.491   6.680   1.019
 3571TIP3   OH210655   2.330   6.907   4.543
 3571TIP3    H110656   2.354   6.983   4.489
 3571TIP3    H210657   2.414   6.870   4.570
 3572TIP3   OH210658   3.739   5.346   2.041
 3572TIP3    H110659   3.657   5.299   2.052
 3572TIP3    H210660   3.806   5.277   2.039
 3573TIP3   OH210661   7.276   3.515   0.202
 3573TIP3    H110662   7.316   3.428   0.197
 3573TIP3    H210663   7.350   3.575   0.206
 3574TIP3   OH210664   5.801   4.947   2.113
 3574TIP3    H110665   5.744   4.890   2.061
 3574TIP3    H210666   5.796   5.032   2.069
 3575TIP3   OH210667   5.778   4.357   5.198
 3575TIP3    H110668   5.805   4.448   5.200
 3575TIP3    H210669   5.692   4.358   5.156
 3576TIP3   OH210670   3.096   7.517   6.625
 3576TIP3    H110671   3.073   7.454   6.694
 3576TIP3    H210672   3.155   7.468   6.568
 3577TIP3   OH210673   5.737   2.375   3.570
 3577TIP3    H110674   5.802   2.361   3.638
 3577TIP3    H210675   5.727   2.471   3.565
 3578TIP3   OH210676   0.455   7.725   3.776
 3578TIP3    H110677   0.502   7.696   3.855
 3578TIP3    H210678   0.427   7.644   3.734
 3579TIP3   OH210679   2.923   3.745   6.108
 3579TIP3    H110680   2.863   3.816   6.085
 3579TIP3    H210681   3.010   3.784   6.101
 3580TIP3   OH210682   4.152   0.073   6.300
 3580TIP3    H110683   4.072   0.068   6.352
 3580TIP3    H210684   4.195  -0.012   6.314
 3581TIP3   OH210685   6.790   1.272   1.435
 3581TIP3    H110686   6.759   1.269   1.526
 3581TIP3    H210687   6.774   1.184   1.401
 3582TIP3   OH210688   6.434   1.082   2.516
 3582TIP3    H110689   6.492   1.022   2.470
 3582TIP3    H210690   6.399   1.140   2.448
 3583TIP3   OH210691   0.356   3.782   1.389
 3583TIP3    H110692   0.328   3.819   1.473
 3583TIP3    H210693   0.328   3.690   1.393
 3584TIP3   OH210694   0.236   7.346   3.443
 3584TIP3    H110695   0.303   7.337   3.375
 3584TIP3    H210696   0.197   7.258   3.450
 3585TIP3   OH210697   2.907   1.516   4.646
 3585TIP3    H110698   2.818   1.523   4.681
 3585TIP3    H210699   2.902   1.559   4.560
 3586TIP3   OH210700   4.993   3.335   4.069
 3586TIP3    H110701   5.025   3.253   4.030
 3586TIP3    H210702   4.929   3.368   4.006
 3587TIP3   OH210703   1.052   3.955   4.975
 3587TIP3    H110704   1.021   3.913   5.055
 3587TIP3    H210705   1.014   3.904   4.904
 3588TIP3   OH210706   4.101   5.373   3.139
 3588TIP3    H110707   4.156   5.448   3.162
 3588TIP3    H210708   4.021   5.411   3.103
 3589TIP3   OH210709   4.349   7.441   4.954
 3589TIP3    H110710   4.313   7.365   5.000
 3589TIP3    H210711   4.438   7.450   4.988
 3590TIP3   OH210712   6.182   5.785   0.957
 3590TIP3    H110713   6.136   5.818   1.035
 3590TIP3    H210714   6.162   5.850   0.889
 3591TIP3   OH210715   1.518   5.428   0.342
 3591TIP3    H110716   1.595   5.387   0.303
 3591TIP3    H210717   1.553   5.493   0.402
 3592TIP3   OH210718   3.871   7.091   5.689
 3592TIP3    H110719   3.792   7.056   5.647
 3592TIP3    H210720   3.842   7.119   5.776
 3593TIP3   OH210721   8.231   5.657   2.722
 3593TIP3    H110722   8.193   5.724   2.666
 3593TIP3    H210723   8.306   5.624   2.672
 3594TIP3   OH210724   0.071   0.287   5.769
 3594TIP3    H110725   0.019   0.250   5.697
 3594TIP3    H210726   0.007   0.329   5.826
 3595TIP3   OH210727   3.279   0.215   4.291
 3595TIP3    H110728   3.199   0.261   4.318
 3595TIP3    H210729   3.251   0.125   4.274
 3596TIP3   OH210730   6.114   7.487   1.041
 3596TIP3    H110731   6.157   7.573   1.044
 3596TIP3    H210732   6.136   7.452   0.954
 3597TIP3   OH210733   6.565   1.302   5.674
 3597TIP3    H110734   6.575   1.207   5.670
 3597TIP3    H210735   6.650   1.334   5.704
 3598TIP3   OH210736   1.001   5.882   4.858
 3598TIP3    H110737   0.981   5.844   4.772
 3598TIP3    H210738   0.982   5.976   4.847
 3599TIP3   OH210739   5.691   2.546   4.379
 3599TIP3    H110740   5.767   2.599   4.354
 3599TIP3    H210741   5.723   2.456   4.381
 3600TIP3   OH210742   1.317   4.046   3.164
 3600TIP3    H110743   1.245   4.002   3.118
 3600TIP3    H210744   1.366   3.974   3.205
 3601TIP3   OH210745   1.500   1.322   1.042
 3601TIP3    H110746   1.438   1.389   1.013
 3601TIP3    H210747   1.512   1.339   1.136
 3602TIP3   OH210748   7.182   4.632   4.386
 3602TIP3    H110749   7.087   4.647   4.388
 3602TIP3    H210750   7.220   4.715   4.414
 3603TIP3   OH210751   0.454   3.143   3.972
 3603TIP3    H110752   0.536   3.094   3.966
 3603TIP3    H210753   0.418   3.141   3.884
 3604TIP3   OH210754   2.316   3.895   1.235
 3604TIP3    H110755   2.252   3.953   1.196
 3604TIP3    H210756   2.401   3.929   1.205
 3605TIP3   OH210757   1.138   4.566   0.069
 3605TIP3    H110758   1.164   4.591   0.157
 3605TIP3    H210759   1.070   4.500   0.081
 3606TIP3   OH210760   3.387   5.687   6.276
 3606TIP3    H110761   3.305   5.717   6.237
 3606TIP3    H210762   3.371   5.689   6.370
 3607TIP3   OH210763   0.606   2.515   6.038
 3607TIP3    H110764   0.673   2.481   6.097
 3607TIP3    H210765   0.524   2.502   6.085
 3608TIP3   OH210766   6.851   6.558   4.758
 3608TIP3    H110767   6.858   6.544   4.852
 3608TIP3    H210768   6.757   6.547   4.739
 3609TIP3   OH210769   4.812   1.532   4.281
 3609TIP3    H110770   4.875   1.603   4.272
 3609TIP3    H210771   4.727   1.572   4.259
 3610TIP3   OH210772   2.841   5.018   4.404
 3610TIP3    H110773   2.811   5.001   4.493
 3610TIP3    H210774   2.765   5.000   4.349
 3611TIP3   OH210775   0.814   4.793   0.506
 3611TIP3    H110776   0.738   4.765   0.454
 3611TIP3    H210777   0.775   4.837   0.582
 3612TIP3   OH210778   3.572   6.463   1.110
 3612TIP3    H110779   3.584   6.550   1.074
 3612TIP3    H210780   3.655   6.418   1.095
 3613TIP3   OH210781   1.034   1.838   4.089
 3613TIP3    H110782   1.072   1.813   4.005
 3613TIP3    H210783   0.939   1.832   4.076
 3614TIP3   OH210784   6.782   5.604   4.701
 3614TIP3    H110785   6.869   5.586   4.665
 3614TIP3    H210786   6.723   5.590   4.627
 3615TIP3   OH210787   6.190   2.226   4.611
 3615TIP3    H110788   6.172   2.177   4.531
 3615TIP3    H210789   6.152   2.312   4.596
 3616TIP3   OH210790   3.197   7.491   5.297
 3616TIP3    H110791   3.102   7.479   5.294
 3616TIP3    H210792   3.228   7.424   5.356
 3617TIP3   OH210793   3.831   0.048   4.403
 3617TIP3    H110794   3.915   0.031   4.446
 3617TIP3    H210795   3.851   0.110   4.333
 3618TIP3   OH210796   1.175   4.121   0.171
 3618TIP3    H110797   1.083   4.143   0.155
 3618TIP3    H210798   1.220   4.139   0.089
 3619TIP3   OH210799   7.511   1.893   1.280
 3619TIP3    H110800   7.565   1.969   1.301
 3619TIP3    H210801   7.432   1.905   1.331
 3620TIP3   OH210802   1.118   6.083   2.279
 3620TIP3    H110803   1.184   6.123   2.222
 3620TIP3    H210804   1.146   5.992   2.288
 3621TIP3   OH210805   2.978   2.007   6.088
 3621TIP3    H110806   3.029   2.080   6.123
 3621TIP3    H210807   3.021   1.985   6.006
 3622TIP3   OH210808   7.648   3.044   2.487
 3622TIP3    H110809   7.634   2.952   2.510
 3622TIP3    H210810   7.573   3.090   2.525
 3623TIP3   OH210811   0.222   4.638   1.948
 3623TIP3    H110812   0.247   4.555   1.988
 3623TIP3    H210813   0.192   4.692   2.022
 3624TIP3   OH210814   4.077   7.048   4.202
 3624TIP3    H110815   4.043   7.012   4.120
 3624TIP3    H210816   4.078   6.974   4.263
 3625TIP3   OH210817   6.060   5.567   2.079
 3625TIP3    H110818   6.117   5.499   2.043
 3625TIP3    H210819   5.979   5.559   2.029
 3626TIP3   OH210820   8.078   5.414   1.359
 3626TIP3    H110821   8.007   5.355   1.334
 3626TIP3    H210822   8.056   5.497   1.315
 3627TIP3   OH210823   6.943   0.646   2.533
 3627TIP3    H110824   6.871   0.663   2.594
 3627TIP3    H210825   7.022   0.652   2.587
 3628TIP3   OH210826   2.350   1.878   2.926
 3628TIP3    H110827   2.404   1.955   2.940
 3628TIP3    H210828   2.412   1.805   2.925
 3629TIP3   OH210829   6.833   2.284   1.754
 3629TIP3    H110830   6.836   2.378   1.734
 3629TIP3    H210831   6.882   2.276   1.835
 3630TIP3   OH210832   1.711   6.219   4.376
 3630TIP3    H110833   1.743   6.154   4.313
 3630TIP3    H210834   1.732   6.303   4.336
 3631TIP3   OH210835   2.694   5.640   5.529
 3631TIP3    H110836   2.670   5.693   5.453
 3631TIP3    H210837   2.750   5.571   5.494
 3632TIP3   OH210838   0.802   3.321   3.282
 3632TIP3    H110839   0.835   3.242   3.326
 3632TIP3    H210840   0.880   3.364   3.247
 3633TIP3   OH210841   5.628   3.376   2.033
 3633TIP3    H110842   5.680   3.420   2.100
 3633TIP3    H210843   5.635   3.283   2.053
 3634TIP3   OH210844   8.181   1.516   2.692
 3634TIP3    H110845   8.142   1.430   2.710
 3634TIP3    H210846   8.124   1.578   2.737
 3635TIP3   OH210847   0.918   5.745   0.857
 3635TIP3    H110848   0.983   5.780   0.918
 3635TIP3    H210849   0.911   5.652   0.880
 3636TIP3   OH210850   6.898   3.430   0.440
 3636TIP3    H110851   6.873   3.393   0.356
 3636TIP3    H210852   6.993   3.421   0.442
 3637TIP3   OH210853   6.297   1.480   1.557
 3637TIP3    H110854   6.271   1.519   1.641
 3637TIP3    H210855   6.351   1.405   1.581
 3638TIP3   OH210856   6.441   4.496   5.757
 3638TIP3    H110857   6.450   4.465   5.667
 3638TIP3    H210858   6.367   4.557   5.755
 3639TIP3   OH210859   5.965   3.104   1.614
 3639TIP3    H110860   5.928   3.123   1.701
 3639TIP3    H210861   5.995   3.190   1.583
 3640TIP3   OH210862   7.285   2.542   1.366
 3640TIP3    H110863   7.203   2.494   1.358
 3640TIP3    H210864   7.265   2.616   1.423
 3641TIP3   OH210865   7.508   4.013   3.216
 3641TIP3    H110866   7.433   3.973   3.171
 3641TIP3    H210867   7.548   3.942   3.266
 3642TIP3   OH210868   3.647   7.051   4.803
 3642TIP3    H110869   3.674   6.967   4.840
 3642TIP3    H210870   3.583   7.085   4.866
 3643TIP3   OH210871   2.410   6.562   3.962
 3643TIP3    H110872   2.342   6.498   3.945
 3643TIP3    H210873   2.364   6.646   3.965
 3644TIP3   OH210874   7.426   4.618   2.299
 3644TIP3    H110875   7.343   4.614   2.251
 3644TIP3    H210876   7.407   4.670   2.377
 3645TIP3   OH210877   1.392   6.511   6.278
 3645TIP3    H110878   1.389   6.584   6.216
 3645TIP3    H210879   1.453   6.540   6.346
 3646TIP3   OH210880   7.083   3.569   3.924
 3646TIP3    H110881   7.041   3.483   3.912
 3646TIP3    H210882   7.011   3.632   3.914
 3647TIP3   OH210883   6.481   2.412   6.124
 3647TIP3    H110884   6.391   2.437   6.103
 3647TIP3    H210885   6.535   2.464   6.064
 3648TIP3   OH210886   0.598   2.196   5.635
 3648TIP3    H110887   0.658   2.266   5.662
 3648TIP3    H210888   0.639   2.116   5.667
 3649TIP3   OH210889   6.697   3.347   2.145
 3649TIP3    H110890   6.699   3.404   2.068
 3649TIP3    H210891   6.666   3.263   2.111
 3650TIP3   OH210892   3.526   7.693   4.402
 3650TIP3    H110893   3.552   7.748   4.475
 3650TIP3    H210894   3.528   7.751   4.326
 3651TIP3   OH210895   7.290   1.092   6.379
 3651TIP3    H110896   7.341   1.023   6.421
 3651TIP3    H210897   7.201   1.082   6.413
 3652TIP3   OH210898   4.821   1.670   0.028
 3652TIP3    H110899   4.804   1.735  -0.039
 3652TIP3    H210900   4.912   1.682   0.052
 3653TIP3   OH210901   5.972   5.428   0.193
 3653TIP3    H110902   6.055   5.453   0.233
 3653TIP3    H210903   5.929   5.373   0.259
 3654TIP3   OH210904   6.624   1.315   4.626
 3654TIP3    H110905   6.621   1.265   4.707
 3654TIP3    H210906   6.649   1.403   4.653
 3655TIP3   OH210907   0.579   2.883   1.643
 3655TIP3    H110908   0.528   2.802   1.637
 3655TIP3    H210909   0.579   2.919   1.554
 3656TIP3   OH210910   5.101   2.797   1.543
 3656TIP3    H110911   5.053   2.753   1.614
 3656TIP3    H210912   5.109   2.888   1.572
 3657TIP3   OH210913   4.115   4.228   0.213
 3657TIP3    H110914   4.022   4.239   0.195
 3657TIP3    H210915   4.156   4.228   0.126
 3658TIP3   OH210916   6.588   2.769   1.714
 3658TIP3    H110917   6.572   2.769   1.808
 3658TIP3    H210918   6.556   2.684   1.684
 3659TIP3   OH210919   7.915   5.583   4.821
 3659TIP3    H110920   7.923   5.558   4.913
 3659TIP3    H210921   7.971   5.521   4.774
 3660TIP3   OH210922   2.266   1.515   2.811
 3660TIP3    H110923   2.186   1.471   2.783
 3660TIP3    H210924   2.242   1.560   2.892
 3661TIP3   OH210925   2.589   1.196   0.724
 3661TIP3    H110926   2.556   1.112   0.692
 3661TIP3    H210927   2.577   1.256   0.650
 3662TIP3   OH210928   0.016   6.715   2.071
 3662TIP3    H110929   0.055   6.798   2.099
 3662TIP3    H210930  -0.044   6.740   2.000
 3663TIP3   OH210931   5.459   3.868   3.938
 3663TIP3    H110932   5.379   3.914   3.962
 3663TIP3    H210933   5.523   3.894   4.004
 3664TIP3   OH210934   0.837   5.542   1.039
 3664TIP3    H110935   0.898   5.509   1.106
 3664TIP3    H210936   0.757   5.491   1.053
 3665TIP3   OH210937   0.591   5.762   2.816
 3665TIP3    H110938   0.526   5.732   2.879
 3665TIP3    H210939   0.591   5.857   2.825
 3666TIP3   OH210940   4.897   0.524   0.613
 3666TIP3    H110941   4.815   0.571   0.598
 3666TIP3    H210942   4.954   0.551   0.541
 3667TIP3   OH210943   8.129   2.065   0.607
 3667TIP3    H110944   8.201   2.111   0.649
 3667TIP3    H210945   8.101   2.000   0.672
 3668TIP3   OH210946   6.492   3.789   1.316
 3668TIP3    H110947   6.422   3.853   1.320
 3668TIP3    H210948   6.529   3.788   1.404
 3669TIP3   OH210949   8.150   4.324   5.539
 3669TIP3    H110950   8.070   4.330   5.487
 3669TIP3    H210951   8.132   4.375   5.618
 3670TIP3   OH210952   0.614   5.478   0.810
 3670TIP3    H110953   0.672   5.448   0.740
 3670TIP3    H210954   0.666   5.543   0.858
 3671TIP3   OH210955   2.418   7.496   0.584
 3671TIP3    H110956   2.333   7.539   0.593
 3671TIP3    H210957   2.481   7.567   0.581
 3672TIP3   OH210958   2.624   1.396   3.220
 3672TIP3    H110959   2.664   1.332   3.279
 3672TIP3    H210960   2.658   1.480   3.250
 3673TIP3   OH210961   3.214   2.981   3.934
 3673TIP3    H110962   3.213   3.018   3.845
 3673TIP3    H210963   3.307   2.980   3.958
 3674TIP3   OH210964   6.707   5.762   5.420
 3674TIP3    H110965   6.746   5.811   5.347
 3674TIP3    H210966   6.754   5.792   5.497
 3675TIP3   OH210967   5.314   4.757   4.148
 3675TIP3    H110968   5.340   4.670   4.118
 3675TIP3    H210969   5.339   4.815   4.076
 3676TIP3   OH210970   6.026   2.125   3.356
 3676TIP3    H110971   6.122   2.121   3.363
 3676TIP3    H210972   5.996   2.121   3.447
 3677TIP3   OH210973   7.247   4.516   1.526
 3677TIP3    H110974   7.306   4.495   1.453
 3677TIP3    H210975   7.276   4.459   1.597
 3678TIP3   OH210976   3.852   1.128   0.686
 3678TIP3    H110977   3.794   1.058   0.657
 3678TIP3    H210978   3.844   1.195   0.619
 3679TIP3   OH210979   7.153   7.560   6.645
 3679TIP3    H110980   7.105   7.642   6.637
 3679TIP3    H210981   7.200   7.567   6.729
 3680TIP3   OH210982   0.500   5.073   2.221
 3680TIP3    H110983   0.585   5.100   2.257
 3680TIP3    H210984   0.436   5.116   2.278
 3681TIP3   OH210985   6.246   1.088   0.987
 3681TIP3    H110986   6.259   1.099   0.893
 3681TIP3    H210987   6.171   1.144   1.008
 3682TIP3   OH210988   0.823   0.449   5.831
 3682TIP3    H110989   0.822   0.538   5.797
 3682TIP3    H210990   0.789   0.457   5.920
 3683TIP3   OH210991   6.475   1.875   4.486
 3683TIP3    H110992   6.441   1.800   4.438
 3683TIP3    H210993   6.479   1.945   4.420
 3684TIP3   OH210994   1.688   6.801   5.460
 3684TIP3    H110995   1.751   6.743   5.502
 3684TIP3    H210996   1.722   6.811   5.371
 3685TIP3   OH210997   4.796   2.899   0.313
 3685TIP3    H110998   4.782   2.947   0.395
 3685TIP3    H210999   4.719   2.844   0.303
 3686TIP3   OH211000   5.844   3.767   3.181
 3686TIP3    H111001   5.935   3.775   3.153
 3686TIP3    H211002   5.822   3.854   3.215
 3687TIP3   OH211003   1.710   5.415   0.137
 3687TIP3    H111004   1.686   5.327   0.107
 3687TIP3    H211005   1.800   5.406   0.167
 3688TIP3   OH211006   4.401   3.285   5.464
 3688TIP3    H111007   4.412   3.218   5.531
 3688TIP3    H211008   4.330   3.252   5.409
 3689TIP3   OH211009   6.329   6.033   3.081
 3689TIP3    H111010   6.245   6.068   3.051
 3689TIP3    H211011   6.393   6.074   3.024
 3690TIP3   OH211012   7.743   6.092   2.153
 3690TIP3    H111013   7.708   6.021   2.207
 3690TIP3    H211014   7.706   6.077   2.066
 3691TIP3   OH211015   4.664   1.869   1.465
 3691TIP3    H111016   4.632   1.959   1.458
 3691TIP3    H211017   4.702   1.865   1.553
 3692TIP3   OH211018   2.416   0.256   3.001
 3692TIP3    H111019   2.359   0.192   2.959
 3692TIP3    H211020   2.462   0.299   2.929
 3693TIP3   OH211021   2.419   3.406   3.588
 3693TIP3    H111022   2.433   3.352   3.666
 3693TIP3    H211023   2.375   3.484   3.620
 3694TIP3   OH211024   2.800   3.984   0.924
 3694TIP3    H111025   2.842   4.070   0.928
 3694TIP3    H211026   2.762   3.979   0.836
 3695TIP3   OH211027   0.821   5.428   2.824
 3695TIP3    H111028   0.803   5.390   2.738
 3695TIP3    H211029   0.843   5.519   2.806
 3696TIP3   OH211030   7.232   4.788   1.550
 3696TIP3    H111031   7.138   4.803   1.559
 3696TIP3    H211032   7.242   4.693   1.554
 3697TIP3   OH211033   1.853   7.466   0.250
 3697TIP3    H111034   1.906   7.401   0.205
 3697TIP3    H211035   1.763   7.438   0.234
 3698TIP3   OH211036   4.728   4.213   0.086
 3698TIP3    H111037   4.750   4.171   0.169
 3698TIP3    H211038   4.794   4.281   0.075
 3699TIP3   OH211039   3.342   4.187   0.042
 3699TIP3    H111040   3.389   4.117   0.087
 3699TIP3    H211041   3.373   4.183  -0.049
 3700TIP3   OH211042   1.553   1.174   3.500
 3700TIP3    H111043   1.610   1.246   3.473
 3700TIP3    H211044   1.477   1.218   3.538
 3701TIP3   OH211045   7.649   4.113   1.434
 3701TIP3    H111046   7.672   4.024   1.459
 3701TIP3    H211047   7.556   4.121   1.454
 3702TIP3   OH211048   6.773   4.236   1.775
 3702TIP3    H111049   6.785   4.267   1.685
 3702TIP3    H211050   6.680   4.250   1.794
 3703TIP3   OH211051   6.121   2.271   2.126
 3703TIP3    H111052   6.154   2.271   2.036
 3703TIP3    H211053   6.077   2.355   2.135
 3704TIP3   OH211054   0.919   7.484   6.396
 3704TIP3    H111055   0.958   7.551   6.339
 3704TIP3    H211056   0.831   7.517   6.414
 3705TIP3   OH211057   5.235   6.328   3.196
 3705TIP3    H111058   5.320   6.360   3.167
 3705TIP3    H211059   5.225   6.362   3.285
 3706TIP3   OH211060   7.787   3.517   6.213
 3706TIP3    H111061   7.802   3.574   6.138
 3706TIP3    H211062   7.775   3.577   6.287
 3707TIP3   OH211063   0.069   4.202   6.286
 3707TIP3    H111064   0.155   4.220   6.247
 3707TIP3    H211065   0.078   4.116   6.325
 3708TIP3   OH211066   3.814   3.899   0.232
 3708TIP3    H111067   3.795   3.987   0.199
 3708TIP3    H211068   3.898   3.876   0.192
 3709TIP3   OH211069   6.879   2.627   4.650
 3709TIP3    H111070   6.845   2.595   4.566
 3709TIP3    H211071   6.917   2.713   4.629
 3710TIP3   OH211072   7.345   4.793   3.707
 3710TIP3    H111073   7.332   4.785   3.613
 3710TIP3    H211074   7.424   4.847   3.717
 3711TIP3   OH211075   1.908   2.355   6.305
 3711TIP3    H111076   1.838   2.294   6.328
 3711TIP3    H211077   1.955   2.311   6.234
 3712TIP3   OH211078   5.557   1.842   3.791
 3712TIP3    H111079   5.607   1.894   3.728
 3712TIP3    H211080   5.466   1.872   3.779
 3713TIP3   OH211081   6.044   1.843   2.326
 3713TIP3    H111082   6.044   1.752   2.355
 3713TIP3    H211083   6.055   1.838   2.231
 3714TIP3   OH211084   0.361   6.187   5.466
 3714TIP3    H111085   0.408   6.225   5.540
 3714TIP3    H211086   0.322   6.262   5.421
 3715TIP3   OH211087   5.503   4.940   5.689
 3715TIP3    H111088   5.428   4.885   5.669
 3715TIP3    H211089   5.570   4.913   5.626
 3716TIP3   OH211090   4.748   7.079   2.439
 3716TIP3    H111091   4.759   7.170   2.412
 3716TIP3    H211092   4.829   7.058   2.485
 3717TIP3   OH211093   1.250   3.485   5.135
 3717TIP3    H111094   1.198   3.408   5.158
 3717TIP3    H211095   1.307   3.456   5.064
 3718TIP3   OH211096   5.432   5.826   0.658
 3718TIP3    H111097   5.345   5.798   0.631
 3718TIP3    H211098   5.418   5.914   0.694
 3719TIP3   OH211099   6.390   0.924   5.386
 3719TIP3    H111100   6.452   0.968   5.328
 3719TIP3    H211101   6.304   0.944   5.348
 3720TIP3   OH211102   1.053   2.146   0.608
 3720TIP3    H111103   1.081   2.200   0.534
 3720TIP3    H211104   1.033   2.209   0.677
 3721TIP3   OH211105   7.832   7.584   0.818
 3721TIP3    H111106   7.849   7.491   0.832
 3721TIP3    H211107   7.754   7.586   0.764
 3722TIP3   OH211108   7.555   2.940   3.280
 3722TIP3    H111109   7.470   2.945   3.322
 3722TIP3    H211110   7.587   2.852   3.299
 3723TIP3   OH211111   1.528   0.193   5.400
 3723TIP3    H111112   1.498   0.273   5.358
 3723TIP3    H211113   1.461   0.128   5.379
 3724TIP3   OH211114   6.096   5.812   3.572
 3724TIP3    H111115   6.049   5.800   3.489
 3724TIP3    H211116   6.028   5.829   3.636
 3725TIP3   OH211117   2.104   2.906   0.401
 3725TIP3    H111118   2.119   2.997   0.426
 3725TIP3    H211119   2.018   2.906   0.359
 3726TIP3   OH211120   2.943   1.229   2.069
 3726TIP3    H111121   3.019   1.230   2.011
 3726TIP3    H211122   2.879   1.285   2.025
 3727TIP3   OH211123   5.993   5.852   3.256
 3727TIP3    H111124   6.006   5.817   3.168
 3727TIP3    H211125   6.054   5.926   3.261
 3728TIP3   OH211126   7.813   7.782   3.310
 3728TIP3    H111127   7.889   7.839   3.317
 3728TIP3    H211128   7.770   7.788   3.395
 3729TIP3   OH211129   8.255   1.412   3.981
 3729TIP3    H111130   8.160   1.421   3.987
 3729TIP3    H211131   8.269   1.363   3.900
 3730TIP3   OH211132   3.465   2.374   4.161
 3730TIP3    H111133   3.450   2.392   4.068
 3730TIP3    H211134   3.481   2.460   4.199
 3731TIP3   OH211135   8.110   4.343   4.651
 3731TIP3    H111136   8.099   4.248   4.642
 3731TIP3    H211137   8.200   4.360   4.625
 3732TIP3   OH211138   3.295   5.833   0.297
 3732TIP3    H111139   3.273   5.757   0.350
 3732TIP3    H211140   3.292   5.802   0.207
 3733TIP3   OH211141   3.445   4.436   5.245
 3733TIP3    H111142   3.489   4.456   5.162
 3733TIP3    H211143   3.446   4.518   5.293
 3734TIP3   OH211144   2.301   1.917   1.192
 3734TIP3    H111145   2.388   1.902   1.230
 3734TIP3    H211146   2.315   1.914   1.098
 3735TIP3   OH211147   6.347   5.159   1.146
 3735TIP3    H111148   6.424   5.205   1.180
 3735TIP3    H211149   6.367   5.143   1.054
 3736TIP3   OH211150   3.548   4.105   2.006
 3736TIP3    H111151   3.474   4.047   1.987
 3736TIP3    H211152   3.622   4.065   1.961
 3737TIP3   OH211153   4.739   5.543   3.758
 3737TIP3    H111154   4.781   5.546   3.672
 3737TIP3    H211155   4.721   5.635   3.779
 3738TIP3   OH211156   7.079   5.265   6.103
 3738TIP3    H111157   7.171   5.238   6.111
 3738TIP3    H211158   7.057   5.300   6.189
 3739TIP3   OH211159   2.589   1.444   4.863
 3739TIP3    H111160   2.528   1.478   4.928
 3739TIP3    H211161   2.540   1.445   4.781
 3740TIP3   OH211162   8.256   6.195   2.586
 3740TIP3    H111163   8.346   6.192   2.620
 3740TIP3    H211164   8.266   6.194   2.491
 3741TIP3   OH211165   6.055   2.377   2.702
 3741TIP3    H111166   6.137   2.411   2.666
 3741TIP3    H211167   6.034   2.435   2.775
 3742TIP3   OH211168   3.292   5.999   2.821
 3742TIP3    H111169   3.264   5.914   2.787
 3742TIP3    H211170   3.264   6.062   2.754
 3743TIP3   OH211171   5.622   2.185   3.016
 3743TIP3    H111172   5.601   2.136   3.096
 3743TIP3    H211173   5.539   2.221   2.987
 3744TIP3   OH211174   7.955   3.200   1.125
 3744TIP3    H111175   8.010   3.198   1.046
 3744TIP3    H211176   7.953   3.293   1.149
 3745TIP3   OH211177   2.526   7.698   0.980
 3745TIP3    H111178   2.469   7.624   1.000
 3745TIP3    H211179   2.469   7.760   0.935
 3746TIP3   OH211180   2.637   7.238   6.618
 3746TIP3    H111181   2.679   7.324   6.624
 3746TIP3    H211182   2.587   7.229   6.698
 3747TIP3   OH211183   6.857   3.390   5.723
 3747TIP3    H111184   6.925   3.450   5.753
 3747TIP3    H211185   6.775   3.433   5.746
 3748TIP3   OH211186   7.265   7.377   6.192
 3748TIP3    H111187   7.183   7.425   6.190
 3748TIP3    H211188   7.254   7.306   6.128
 3749TIP3   OH211189   8.162   2.057   1.068
 3749TIP3    H111190   8.246   2.079   1.108
 3749TIP3    H211191   8.097   2.098   1.124
 3750TIP3   OH211192   5.050   5.704   6.654
 3750TIP3    H111193   4.954   5.701   6.652
 3750TIP3    H211194   5.076   5.734   6.567
 3751TIP3   OH211195   6.295   4.256   3.265
 3751TIP3    H111196   6.333   4.209   3.339
 3751TIP3    H211197   6.201   4.256   3.283
 3752TIP3   OH211198   0.663   3.069   5.042
 3752TIP3    H111199   0.621   3.027   4.967
 3752TIP3    H211200   0.666   3.162   5.018
 3753TIP3   OH211201   3.861   5.782   1.802
 3753TIP3    H111202   3.883   5.762   1.893
 3753TIP3    H211203   3.766   5.780   1.799
 3754TIP3   OH211204   4.993   5.367   5.112
 3754TIP3    H111205   5.040   5.321   5.181
 3754TIP3    H211206   4.942   5.299   5.068
 3755TIP3   OH211207   0.164   1.186   4.364
 3755TIP3    H111208   0.195   1.262   4.412
 3755TIP3    H211209   0.232   1.120   4.378
 3756TIP3   OH211210   0.657   6.046   5.091
 3756TIP3    H111211   0.688   6.124   5.045
 3756TIP3    H211212   0.589   6.078   5.150
 3757TIP3   OH211213   0.528   6.937   0.252
 3757TIP3    H111214   0.450   6.907   0.205
 3757TIP3    H211215   0.495   6.964   0.338
 3758TIP3   OH211216   3.459   4.154   5.110
 3758TIP3    H111217   3.483   4.239   5.073
 3758TIP3    H211218   3.421   4.106   5.036
 3759TIP3   OH211219   7.477   5.373   3.543
 3759TIP3    H111220   7.421   5.425   3.486
 3759TIP3    H211221   7.566   5.389   3.511
 3760TIP3   OH211222   6.781   2.380   2.283
 3760TIP3    H111223   6.737   2.334   2.211
 3760TIP3    H211224   6.868   2.341   2.287
 3761TIP3   OH211225   1.646   4.905   6.511
 3761TIP3    H111226   1.686   4.829   6.468
 3761TIP3    H211227   1.648   4.884   6.604
 3762TIP3   OH211228   8.027   3.509   0.347
 3762TIP3    H111229   7.963   3.527   0.279
 3762TIP3    H211230   8.112   3.511   0.301
 3763TIP3   OH211231   5.727   5.917   0.658
 3763TIP3    H111232   5.779   5.841   0.632
 3763TIP3    H211233   5.641   5.881   0.678
 3764TIP3   OH211234   0.432   7.731   1.956
 3764TIP3    H111235   0.454   7.751   1.865
 3764TIP3    H211236   0.513   7.744   2.004
 3765TIP3   OH211237   1.053   5.822   4.109
 3765TIP3    H111238   1.042   5.897   4.051
 3765TIP3    H211239   1.038   5.746   4.053
 3766TIP3   OH211240   7.676   2.495   0.392
 3766TIP3    H111241   7.698   2.466   0.480
 3766TIP3    H211242   7.583   2.517   0.397
 3767TIP3   OH211243   0.485   4.020   0.062
 3767TIP3    H111244   0.520   3.948   0.010
 3767TIP3    H211245   0.527   4.011   0.147
 3768TIP3   OH211246   6.717   1.989   5.249
 3768TIP3    H111247   6.732   1.931   5.324
 3768TIP3    H211248   6.790   2.051   5.253
 3769TIP3   OH211249   4.515   0.529   1.050
 3769TIP3    H111250   4.594   0.581   1.038
 3769TIP3    H211251   4.478   0.520   0.962
 3770TIP3   OH211252   0.191   6.535   0.654
 3770TIP3    H111253   0.212   6.627   0.667
 3770TIP3    H211254   0.254   6.505   0.589
 3771TIP3   OH211255   7.562   5.236   2.835
 3771TIP3    H111256   7.657   5.225   2.826
 3771TIP3    H211257   7.524   5.169   2.778
 3772TIP3   OH211258   3.116   3.723   5.388
 3772TIP3    H111259   3.031   3.682   5.372
 3772TIP3    H211260   3.179   3.652   5.375
 3773TIP3   OH211261   1.430   4.412   5.737
 3773TIP3    H111262   1.459   4.499   5.767
 3773TIP3    H211263   1.335   4.416   5.743
 3774TIP3   OH211264   2.093   1.525   2.204
 3774TIP3    H111265   2.129   1.437   2.214
 3774TIP3    H211266   2.025   1.517   2.138
 3775TIP3   OH211267   7.923   0.371   3.772
 3775TIP3    H111268   8.013   0.359   3.800
 3775TIP3    H211269   7.873   0.377   3.853
 3776TIP3   OH211270   3.833   0.534   0.549
 3776TIP3    H111271   3.812   0.463   0.609
 3776TIP3    H211272   3.869   0.602   0.605
 3777TIP3   OH211273   5.099   3.948   1.354
 3777TIP3    H111274   5.185   3.907   1.367
 3777TIP3    H211275   5.047   3.919   1.430
 3778TIP3   OH211276   3.200   6.618   0.916
 3778TIP3    H111277   3.243   6.615   0.830
 3778TIP3    H211278   3.165   6.530   0.928
 3779TIP3   OH211279   1.423   7.653   6.472
 3779TIP3    H111280   1.369   7.576   6.490
 3779TIP3    H211281   1.373   7.727   6.507
 3780TIP3   OH211282   5.385   1.866   6.544
 3780TIP3    H111283   5.296   1.881   6.575
 3780TIP3    H211284   5.395   1.771   6.542
 3781TIP3   OH211285   1.231   1.142   5.092
 3781TIP3    H111286   1.155   1.163   5.037
 3781TIP3    H211287   1.240   1.047   5.086
 3782TIP3   OH211288   4.766   0.812   3.979
 3782TIP3    H111289   4.826   0.853   3.916
 3782TIP3    H211290   4.680   0.844   3.954
 3783TIP3   OH211291   1.817   3.514   4.693
 3783TIP3    H111292   1.866   3.495   4.613
 3783TIP3    H211293   1.727   3.487   4.673
 3784TIP3   OH211294   6.436   3.309   6.450
 3784TIP3    H111295   6.372   3.240   6.468
 3784TIP3    H211296   6.421   3.332   6.358
 3785TIP3   OH211297   4.996   1.296   2.042
 3785TIP3    H111298   4.904   1.311   2.021
 3785TIP3    H211299   5.027   1.381   2.076
 3786TIP3   OH211300   1.373   2.010   5.009
 3786TIP3    H111301   1.424   2.077   4.963
 3786TIP3    H211302   1.430   1.983   5.081
 3787TIP3   OH211303   4.537   7.778   6.507
 3787TIP3    H111304   4.569   7.702   6.556
 3787TIP3    H211305   4.551   7.755   6.415
 3788TIP3   OH211306   5.097   0.728   6.711
 3788TIP3    H111307   5.126   0.688   6.629
 3788TIP3    H211308   5.108   0.659   6.776
 3789TIP3   OH211309   2.031   3.534   2.466
 3789TIP3    H111310   1.977   3.574   2.534
 3789TIP3    H211311   2.035   3.442   2.489
 3790TIP3   OH211312   2.049   7.448   6.211
 3790TIP3    H111313   2.054   7.442   6.306
 3790TIP3    H211314   2.140   7.444   6.181
 3791TIP3   OH211315   3.699   2.262   1.029
 3791TIP3    H111316   3.715   2.243   0.936
 3791TIP3    H211317   3.787   2.273   1.066
 3792TIP3   OH211318   3.460   4.833   3.699
 3792TIP3    H111319   3.488   4.897   3.633
 3792TIP3    H211320   3.487   4.749   3.663
 3793TIP3   OH211321   0.748   1.840   2.254
 3793TIP3    H111322   0.822   1.900   2.257
 3793TIP3    H211323   0.767   1.776   2.323
 3794TIP3   OH211324   0.160   0.630   6.326
 3794TIP3    H111325   0.190   0.712   6.289
 3794TIP3    H211326   0.076   0.651   6.367
 3795TIP3   OH211327   4.500   2.380   2.916
 3795TIP3    H111328   4.559   2.347   2.848
 3795TIP3    H211329   4.524   2.472   2.927
 3796TIP3   OH211330   5.705   4.814   1.696
 3796TIP3    H111331   5.679   4.780   1.781
 3796TIP3    H211332   5.797   4.790   1.687
 3797TIP3   OH211333   1.181   1.597   6.166
 3797TIP3    H111334   1.262   1.610   6.215
 3797TIP3    H211335   1.148   1.686   6.151
 3798TIP3   OH211336   3.264   5.410   1.794
 3798TIP3    H111337   3.326   5.481   1.780
 3798TIP3    H211338   3.281   5.381   1.884
 3799TIP3   OH211339   4.628   3.059   2.553
 3799TIP3    H111340   4.561   3.006   2.509
 3799TIP3    H211341   4.579   3.126   2.600
 3800TIP3   OH211342   4.929   4.674   1.919
 3800TIP3    H111343   4.969   4.745   1.868
 3800TIP3    H211344   4.840   4.668   1.885
 3801TIP3   OH211345   0.996   1.326   1.771
 3801TIP3    H111346   0.998   1.401   1.711
 3801TIP3    H211347   1.082   1.325   1.812
 3802TIP3   OH211348   1.029   5.836   1.093
 3802TIP3    H111349   0.975   5.911   1.066
 3802TIP3    H211350   0.989   5.804   1.173
 3803TIP3   OH211351   3.455   4.387   1.320
 3803TIP3    H111352   3.491   4.319   1.377
 3803TIP3    H211353   3.491   4.469   1.355
 3804TIP3   OH211354   3.699   7.256   1.498
 3804TIP3    H111355   3.707   7.347   1.526
 3804TIP3    H211356   3.789   7.224   1.494
 3805TIP3   OH211357   5.539   2.745   5.430
 3805TIP3    H111358   5.445   2.730   5.432
 3805TIP3    H211359   5.549   2.838   5.411
 3806TIP3   OH211360   5.741   1.329   0.339
 3806TIP3    H111361   5.738   1.256   0.401
 3806TIP3    H211362   5.822   1.314   0.290
 3807TIP3   OH211363   7.098   7.329   5.577
 3807TIP3    H111364   7.161   7.309   5.508
 3807TIP3    H211365   7.100   7.424   5.586
 3808TIP3   OH211366   4.431   6.703   3.594
 3808TIP3    H111367   4.402   6.673   3.680
 3808TIP3    H211368   4.429   6.625   3.539
 3809TIP3   OH211369   3.704   2.326   1.826
 3809TIP3    H111370   3.756   2.401   1.796
 3809TIP3    H211371   3.707   2.331   1.921
 3810TIP3   OH211372   3.971   3.324   3.725
 3810TIP3    H111373   3.945   3.410   3.693
 3810TIP3    H211374   4.063   3.334   3.750
 3811TIP3   OH211375   0.812   2.510   3.757
 3811TIP3    H111376   0.836   2.488   3.667
 3811TIP3    H211377   0.823   2.428   3.806
 3812TIP3   OH211378   6.335   5.267   0.816
 3812TIP3    H111379   6.318   5.343   0.871
 3812TIP3    H211380   6.430   5.266   0.804
 3813TIP3   OH211381   1.580   7.203   0.304
 3813TIP3    H111382   1.641   7.193   0.378
 3813TIP3    H211383   1.572   7.114   0.268
 3814TIP3   OH211384   7.909   2.596   4.362
 3814TIP3    H111385   7.844   2.666   4.359
 3814TIP3    H211386   7.876   2.536   4.429
 3815TIP3   OH211387   7.607   7.078   5.296
 3815TIP3    H111388   7.597   7.172   5.311
 3815TIP3    H211389   7.550   7.037   5.363
 3816TIP3   OH211390   2.575   0.483   0.223
 3816TIP3    H111391   2.658   0.526   0.203
 3816TIP3    H211392   2.599   0.410   0.281
 3817TIP3   OH211393   3.505   5.274   4.794
 3817TIP3    H111394   3.541   5.263   4.706
 3817TIP3    H211395   3.551   5.350   4.829
 3818TIP3   OH211396   0.855   0.185   0.904
 3818TIP3    H111397   0.883   0.146   0.821
 3818TIP3    H211398   0.770   0.225   0.884
 3819TIP3   OH211399   6.800   6.369   3.258
 3819TIP3    H111400   6.810   6.384   3.164
 3819TIP3    H211401   6.825   6.278   3.271
 3820TIP3   OH211402   7.399   2.749   5.876
 3820TIP3    H111403   7.438   2.837   5.870
 3820TIP3    H211404   7.305   2.765   5.887
 3821TIP3   OH211405   0.302   3.341   0.014
 3821TIP3    H111406   0.216   3.373   0.042
 3821TIP3    H211407   0.299   3.247   0.032
 3822TIP3   OH211408   4.123   1.985   4.245
 3822TIP3    H111409   4.123   2.079   4.229
 3822TIP3    H211410   4.170   1.947   4.171
 3823TIP3   OH211411   2.122   7.548   5.694
 3823TIP3    H111412   2.181   7.532   5.620
 3823TIP3    H211413   2.159   7.625   5.737
 3824TIP3   OH211414   7.798   2.986   3.417
 3824TIP3    H111415   7.706   2.968   3.398
 3824TIP3    H211416   7.832   3.026   3.337
 3825TIP3   OH211417   2.692   0.392   1.800
 3825TIP3    H111418   2.723   0.309   1.765
 3825TIP3    H211419   2.768   0.450   1.795
 3826TIP3   OH211420   7.761   2.573   4.056
 3826TIP3    H111421   7.823   2.613   3.995
 3826TIP3    H211422   7.750   2.639   4.125
 3827TIP3   OH211423   5.281   0.204   3.282
 3827TIP3    H111424   5.208   0.250   3.240
 3827TIP3    H211425   5.281   0.117   3.241
 3828TIP3   OH211426   6.586   1.699   0.081
 3828TIP3    H111427   6.553   1.626   0.133
 3828TIP3    H211428   6.507   1.736   0.040
 3829TIP3   OH211429   4.130   1.223   3.331
 3829TIP3    H111430   4.163   1.253   3.246
 3829TIP3    H211431   4.209   1.197   3.380
 3830TIP3   OH211432   0.249   7.220   5.395
 3830TIP3    H111433   0.325   7.186   5.348
 3830TIP3    H211434   0.247   7.313   5.373
 3831TIP3   OH211435   7.793   4.356   6.391
 3831TIP3    H111436   7.731   4.382   6.460
 3831TIP3    H211437   7.757   4.273   6.358
 3832TIP3   OH211438   5.773   1.637   0.878
 3832TIP3    H111439   5.862   1.669   0.894
 3832TIP3    H211440   5.747   1.595   0.960
 3833TIP3   OH211441   5.586   1.416   2.800
 3833TIP3    H111442   5.538   1.414   2.717
 3833TIP3    H211443   5.635   1.498   2.798
 3834TIP3   OH211444   4.659   1.683   6.814
 3834TIP3    H111445   4.588   1.663   6.753
 3834TIP3    H211446   4.713   1.604   6.814
 3835TIP3   OH211447   2.424   1.512   3.405
 3835TIP3    H111448   2.456   1.446   3.343
 3835TIP3    H211449   2.440   1.595   3.361
 3836TIP3   OH211450   4.289   3.897   2.541
 3836TIP3    H111451   4.369   3.947   2.526
 3836TIP3    H211452   4.319   3.807   2.554
 3837TIP3   OH211453   0.293   3.052   3.606
 3837TIP3    H111454   0.374   3.013   3.572
 3837TIP3    H211455   0.228   2.982   3.601
 3838TIP3   OH211456   4.374   4.793   4.015
 3838TIP3    H111457   4.351   4.865   4.074
 3838TIP3    H211458   4.337   4.715   4.057
 3839TIP3   OH211459   5.732   7.546   4.552
 3839TIP3    H111460   5.683   7.491   4.613
 3839TIP3    H211461   5.711   7.511   4.466
 3840TIP3   OH211462   6.511   1.153   6.221
 3840TIP3    H111463   6.490   1.145   6.128
 3840TIP3    H211464   6.587   1.097   6.234
 3841TIP3   OH211465   0.873   2.235   5.364
 3841TIP3    H111466   0.841   2.160   5.413
 3841TIP3    H211467   0.959   2.254   5.403
 3842TIP3   OH211468   6.549   3.966   2.021
 3842TIP3    H111469   6.504   4.046   2.049
 3842TIP3    H211470   6.552   3.912   2.099
 3843TIP3   OH211471   4.992   1.489   1.473
 3843TIP3    H111472   5.076   1.534   1.461
 3843TIP3    H211473   4.992   1.461   1.564
 3844TIP3   OH211474   2.593   0.407   2.530
 3844TIP3    H111475   2.584   0.419   2.435
 3844TIP3    H211476   2.547   0.482   2.568
 3845TIP3   OH211477   6.059   6.031   2.192
 3845TIP3    H111478   6.107   6.052   2.272
 3845TIP3    H211479   6.127   6.024   2.125
 3846TIP3   OH211480   7.503   5.478   2.482
 3846TIP3    H111481   7.440   5.466   2.411
 3846TIP3    H211482   7.490   5.568   2.511
 3847TIP3   OH211483   0.232   4.267   1.387
 3847TIP3    H111484   0.138   4.278   1.368
 3847TIP3    H211485   0.249   4.327   1.459
 3848TIP3   OH211486   2.353   0.349   0.825
 3848TIP3    H111487   2.443   0.321   0.808
 3848TIP3    H211488   2.358   0.444   0.833
 3849TIP3   OH211489   6.203   1.054   4.327
 3849TIP3    H111490   6.243   1.051   4.414
 3849TIP3    H211491   6.235   0.975   4.284
 3850TIP3   OH211492   6.787   3.921   5.509
 3850TIP3    H111493   6.840   3.855   5.466
 3850TIP3    H211494   6.710   3.874   5.540
 3851TIP3   OH211495   4.026   1.062   2.579
 3851TIP3    H111496   4.018   1.143   2.529
 3851TIP3    H211497   3.935   1.031   2.589
 3852TIP3   OH211498   2.858   2.626   2.742
 3852TIP3    H111499   2.941   2.582   2.724
 3852TIP3    H211500   2.853   2.697   2.678
 3853TIP3   OH211501   0.134   7.601   3.794
 3853TIP3    H111502   0.148   7.540   3.866
 3853TIP3    H211503   0.211   7.590   3.738
 3854TIP3   OH211504   6.638   1.972   0.095
 3854TIP3    H111505   6.614   1.977   0.002
 3854TIP3    H211506   6.598   1.890   0.125
 3855TIP3   OH211507   0.067   0.526   0.670
 3855TIP3    H111508  -0.017   0.481   0.674
 3855TIP3    H211509   0.079   0.547   0.578
 3856TIP3   OH211510   1.979   0.607   4.251
 3856TIP3    H111511   2.072   0.590   4.243
 3856TIP3    H211512   1.954   0.647   4.168
 3857TIP3   OH211513   4.247   1.844   5.809
 3857TIP3    H111514   4.212   1.845   5.720
 3857TIP3    H211515   4.310   1.916   5.811
 3858TIP3   OH211516   6.668   7.165   4.526
 3858TIP3    H111517   6.698   7.148   4.615
 3858TIP3    H211518   6.662   7.078   4.486
 3859TIP3   OH211519   1.418   3.076   2.723
 3859TIP3    H111520   1.475   3.006   2.693
 3859TIP3    H211521   1.448   3.096   2.812
 3860TIP3   OH211522   6.898   1.030   4.834
 3860TIP3    H111523   6.847   1.098   4.879
 3860TIP3    H211524   6.864   0.948   4.868
 3861TIP3   OH211525   6.069   3.995   1.835
 3861TIP3    H111526   5.978   3.968   1.824
 3861TIP3    H211527   6.101   3.942   1.908
 3862TIP3   OH211528   6.535   1.492   6.240
 3862TIP3    H111529   6.573   1.569   6.197
 3862TIP3    H211530   6.452   1.524   6.275
 3863TIP3   OH211531   2.639   6.080   5.820
 3863TIP3    H111532   2.716   6.026   5.805
 3863TIP3    H211533   2.651   6.115   5.909
 3864TIP3   OH211534   1.752   0.821   4.366
 3864TIP3    H111535   1.801   0.885   4.418
 3864TIP3    H211536   1.813   0.796   4.297
 3865TIP3   OH211537   3.234   4.416   3.690
 3865TIP3    H111538   3.226   4.349   3.622
 3865TIP3    H211539   3.328   4.420   3.709
 3866TIP3   OH211540   4.405   3.132   6.131
 3866TIP3    H111541   4.361   3.063   6.082
 3866TIP3    H211542   4.335   3.192   6.156
 3867TIP3   OH211543   3.909   1.884   1.258
 3867TIP3    H111544   3.921   1.821   1.329
 3867TIP3    H211545   3.882   1.964   1.301
 3868TIP3   OH211546   0.841   1.432   6.545
 3868TIP3    H111547   0.758   1.413   6.589
 3868TIP3    H211548   0.901   1.455   6.615
 3869TIP3   OH211549   8.076   4.091   6.440
 3869TIP3    H111550   8.060   4.116   6.531
 3869TIP3    H211551   8.008   4.135   6.390
 3870TIP3   OH211552   7.602   7.594   6.106
 3870TIP3    H111553   7.574   7.511   6.069
 3870TIP3    H211554   7.696   7.584   6.120
 3871TIP3   OH211555   3.617   0.942   4.854
 3871TIP3    H111556   3.619   1.035   4.877
 3871TIP3    H211557   3.533   0.911   4.888
 3872TIP3   OH211558   7.883   4.213   5.663
 3872TIP3    H111559   7.897   4.122   5.636
 3872TIP3    H211560   7.905   4.265   5.585
 3873TIP3   OH211561   8.214   1.953   6.712
 3873TIP3    H111562   8.243   2.032   6.758
 3873TIP3    H211563   8.215   1.885   6.779
 3874TIP3   OH211564   2.732   0.691   0.835
 3874TIP3    H111565   2.780   0.626   0.783
 3874TIP3    H211566   2.670   0.730   0.773
 3875TIP3   OH211567   3.981   2.116   2.087
 3875TIP3    H111568   4.017   2.148   2.004
 3875TIP3    H211569   4.037   2.156   2.153
 3876TIP3   OH211570   3.689   2.886   0.926
 3876TIP3    H111571   3.733   2.815   0.879
 3876TIP3    H211572   3.695   2.861   1.018
 3877TIP3   OH211573   4.334   2.827   3.828
 3877TIP3    H111574   4.309   2.758   3.766
 3877TIP3    H211575   4.370   2.780   3.903
 3878TIP3   OH211576   1.570   2.520   6.111
 3878TIP3    H111577   1.596   2.593   6.055
 3878TIP3    H211578   1.479   2.503   6.088
 3879TIP3   OH211579   4.618   5.245   2.943
 3879TIP3    H111580   4.527   5.263   2.920
 3879TIP3    H211581   4.628   5.275   3.033
 3880TIP3   OH211582   6.147   0.261   2.619
 3880TIP3    H111583   6.224   0.314   2.640
 3880TIP3    H211584   6.158   0.181   2.670
 3881TIP3   OH211585   1.026   4.144   1.323
 3881TIP3    H111586   0.932   4.145   1.307
 3881TIP3    H211587   1.053   4.054   1.306
 3882TIP3   OH211588   1.576   2.461   1.475
 3882TIP3    H111589   1.551   2.371   1.496
 3882TIP3    H211590   1.510   2.490   1.412
 3883TIP3   OH211591   0.399   1.879   3.391
 3883TIP3    H111592   0.314   1.907   3.357
 3883TIP3    H211593   0.462   1.937   3.348
 3884TIP3   OH211594   6.308   7.344   3.189
 3884TIP3    H111595   6.218   7.369   3.211
 3884TIP3    H211596   6.339   7.297   3.266
 3885TIP3   OH211597   3.484   1.020   4.405
 3885TIP3    H111598   3.529   1.065   4.476
 3885TIP3    H211599   3.534   0.939   4.393
 3886TIP3   OH211600   0.306   4.315   2.678
 3886TIP3    H111601   0.372   4.356   2.622
 3886TIP3    H211602   0.333   4.223   2.684
 3887TIP3   OH211603   0.388   7.440   3.688
 3887TIP3    H111604   0.427   7.380   3.751
 3887TIP3    H211605   0.361   7.384   3.615
 3888TIP3   OH211606   0.402   5.839   5.561
 3888TIP3    H111607   0.431   5.923   5.597
 3888TIP3    H211608   0.311   5.830   5.589
 3889TIP3   OH211609   2.949   4.850   6.208
 3889TIP3    H111610   3.042   4.873   6.203
 3889TIP3    H211611   2.947   4.756   6.193
 3890TIP3   OH211612   4.926   1.015   6.046
 3890TIP3    H111613   4.965   0.941   6.092
 3890TIP3    H211614   4.842   0.983   6.015
 3891TIP3   OH211615   6.815   3.242   1.624
 3891TIP3    H111616   6.765   3.247   1.543
 3891TIP3    H211617   6.902   3.276   1.600
 3892TIP3   OH211618   1.671   3.719   3.114
 3892TIP3    H111619   1.711   3.805   3.103
 3892TIP3    H211620   1.726   3.660   3.062
 3893TIP3   OH211621   5.577   2.416   0.507
 3893TIP3    H111622   5.503   2.370   0.467
 3893TIP3    H211623   5.538   2.470   0.575
 3894TIP3   OH211624   7.683   6.597   6.498
 3894TIP3    H111625   7.609   6.655   6.483
 3894TIP3    H211626   7.726   6.589   6.413
 3895TIP3   OH211627   2.801   2.300   0.316
 3895TIP3    H111628   2.819   2.353   0.238
 3895TIP3    H211629   2.711   2.271   0.305
 3896TIP3   OH211630   3.536   7.359   5.923
 3896TIP3    H111631   3.580   7.444   5.925
 3896TIP3    H211632   3.474   7.363   5.996
 3897TIP3   OH211633   4.760   5.005   5.150
 3897TIP3    H111634   4.752   4.936   5.085
 3897TIP3    H211635   4.766   5.086   5.100
 3898TIP3   OH211636   6.783   0.511   0.021
 3898TIP3    H111637   6.790   0.439  -0.042
 3898TIP3    H211638   6.831   0.480   0.098
 3899TIP3   OH211639   4.669   5.594   4.269
 3899TIP3    H111640   4.589   5.595   4.215
 3899TIP3    H211641   4.639   5.570   4.356
 3900TIP3   OH211642   7.998   6.540   0.913
 3900TIP3    H111643   7.962   6.453   0.896
 3900TIP3    H211644   8.069   6.549   0.850
 3901TIP3   OH211645   6.903   3.849   4.511
 3901TIP3    H111646   6.915   3.864   4.604
 3901TIP3    H211647   6.986   3.810   4.482
 3902TIP3   OH211648   2.495   4.015   2.129
 3902TIP3    H111649   2.559   4.049   2.191
 3902TIP3    H211650   2.506   4.070   2.051
 3903TIP3   OH211651   7.844   3.729   6.075
 3903TIP3    H111652   7.927   3.776   6.073
 3903TIP3    H211653   7.779   3.796   6.054
 3904TIP3   OH211654   7.773   6.616   6.213
 3904TIP3    H111655   7.689   6.642   6.176
 3904TIP3    H211656   7.814   6.697   6.242
 3905TIP3   OH211657   3.839   4.116   2.662
 3905TIP3    H111658   3.845   4.211   2.649
 3905TIP3    H211659   3.930   4.085   2.658
 3906TIP3   OH211660   0.203   6.312   0.823
 3906TIP3    H111661   0.145   6.284   0.752
 3906TIP3    H211662   0.212   6.406   0.811
 3907TIP3   OH211663   5.152   1.568   3.676
 3907TIP3    H111664   5.201   1.588   3.756
 3907TIP3    H211665   5.215   1.582   3.606
 3908TIP3   OH211666   2.998   7.699   4.507
 3908TIP3    H111667   2.905   7.674   4.510
 3908TIP3    H211668   3.025   7.681   4.418
 3909TIP3   OH211669   2.498   5.812   4.484
 3909TIP3    H111670   2.472   5.894   4.443
 3909TIP3    H211671   2.415   5.772   4.511
 3910TIP3   OH211672   4.278   6.811   2.047
 3910TIP3    H111673   4.239   6.833   1.962
 3910TIP3    H211674   4.203   6.792   2.103
 3911TIP3   OH211675   4.383   2.269   1.934
 3911TIP3    H111676   4.332   2.278   2.015
 3911TIP3    H211677   4.411   2.178   1.933
 3912TIP3   OH211678   4.804   4.775   3.585
 3912TIP3    H111679   4.775   4.860   3.551
 3912TIP3    H211680   4.725   4.736   3.623
 3913TIP3   OH211681   7.624   0.662   1.137
 3913TIP3    H111682   7.629   0.587   1.196
 3913TIP3    H211683   7.613   0.737   1.195
 3914TIP3   OH211684   4.104  -0.024   3.597
 3914TIP3    H111685   4.047   0.053   3.604
 3914TIP3    H211686   4.189   0.011   3.572
 3915TIP3   OH211687   4.677   6.388   1.337
 3915TIP3    H111688   4.697   6.480   1.354
 3915TIP3    H211689   4.604   6.369   1.396
 3916TIP3   OH211690   4.492   1.834   2.227
 3916TIP3    H111691   4.570   1.890   2.229
 3916TIP3    H211692   4.471   1.818   2.319
 3917TIP3   OH211693   2.774   3.002   3.049
 3917TIP3    H111694   2.851   2.950   3.024
 3917TIP3    H211695   2.730   2.949   3.116
 3918TIP3   OH211696   5.088   4.838   0.842
 3918TIP3    H111697   5.137   4.801   0.915
 3918TIP3    H211698   5.118   4.928   0.835
 3919TIP3   OH211699   4.031   4.761   4.206
 3919TIP3    H111700   4.030   4.857   4.206
 3919TIP3    H211701   3.938   4.737   4.210
 3920TIP3   OH211702   6.437   1.442   0.200
 3920TIP3    H111703   6.505   1.379   0.176
 3920TIP3    H211704   6.434   1.439   0.296
 3921TIP3   OH211705   3.018   4.544   4.133
 3921TIP3    H111706   3.106   4.553   4.171
 3921TIP3    H211707   3.008   4.450   4.117
 3922TIP3   OH211708   5.481   3.138   0.682
 3922TIP3    H111709   5.436   3.054   0.688
 3922TIP3    H211710   5.411   3.203   0.679
 3923TIP3   OH211711   7.201   7.197   0.911
 3923TIP3    H111712   7.263   7.225   0.843
 3923TIP3    H211713   7.198   7.271   0.972
 3924TIP3   OH211714   4.636   6.196   2.273
 3924TIP3    H111715   4.573   6.158   2.335
 3924TIP3    H211716   4.612   6.288   2.269
 3925TIP3   OH211717   1.548   6.440   4.516
 3925TIP3    H111718   1.555   6.415   4.608
 3925TIP3    H211719   1.638   6.437   4.483
 3926TIP3   OH211720   1.903   7.658   2.673
 3926TIP3    H111721   1.917   7.605   2.595
 3926TIP3    H211722   1.868   7.597   2.738
 3927TIP3   OH211723   6.565   4.409   3.220
 3927TIP3    H111724   6.623   4.379   3.150
 3927TIP3    H211725   6.503   4.338   3.232
 3928TIP3   OH211726   0.273   6.188   1.922
 3928TIP3    H111727   0.203   6.251   1.905
 3928TIP3    H211728   0.345   6.218   1.866
 3929TIP3   OH211729   2.273   1.572   3.090
 3929TIP3    H111730   2.211   1.641   3.064
 3929TIP3    H211731   2.227   1.522   3.156
 3930TIP3   OH211732   1.740   3.883   5.973
 3930TIP3    H111733   1.763   3.858   5.884
 3930TIP3    H211734   1.822   3.918   6.009
 3931TIP3   OH211735   3.898   3.372   6.371
 3931TIP3    H111736   3.979   3.422   6.381
 3931TIP3    H211737   3.850   3.419   6.303
 3932TIP3   OH211738   0.421   7.786   5.698
 3932TIP3    H111739   0.493   7.840   5.665
 3932TIP3    H211740   0.462   7.728   5.762
 3933TIP3   OH211741   4.773   5.032   4.609
 3933TIP3    H111742   4.765   4.960   4.545
 3933TIP3    H211743   4.718   5.005   4.682
 3934TIP3   OH211744   1.903   2.794   1.039
 3934TIP3    H111745   1.879   2.830   1.124
 3934TIP3    H211746   1.835   2.729   1.021
 3935TIP3   OH211747   2.519   5.988   1.293
 3935TIP3    H111748   2.444   5.961   1.345
 3935TIP3    H211749   2.514   6.084   1.291
 3936TIP3   OH211750   0.718   6.316   0.092
 3936TIP3    H111751   0.685   6.327   0.182
 3936TIP3    H211752   0.638   6.309   0.039
 3937TIP3   OH211753   3.572   6.161   4.805
 3937TIP3    H111754   3.553   6.067   4.804
 3937TIP3    H211755   3.548   6.189   4.894
 3938TIP3   OH211756   3.737   3.015   4.781
 3938TIP3    H111757   3.763   3.102   4.814
 3938TIP3    H211758   3.642   3.015   4.787
 3939TIP3   OH211759   7.131   2.562   6.300
 3939TIP3    H111760   7.079   2.642   6.310
 3939TIP3    H211761   7.129   2.521   6.386
 3940TIP3   OH211762   2.855   4.499   3.085
 3940TIP3    H111763   2.849   4.576   3.141
 3940TIP3    H211764   2.893   4.431   3.142
 3941TIP3   OH211765   6.741   6.232   6.258
 3941TIP3    H111766   6.680   6.186   6.316
 3941TIP3    H211767   6.687   6.300   6.216
 3942TIP3   OH211768   0.580   2.324   3.326
 3942TIP3    H111769   0.658   2.362   3.284
 3942TIP3    H211770   0.584   2.231   3.303
 3943TIP3   OH211771   1.539   6.822   4.958
 3943TIP3    H111772   1.514   6.884   4.890
 3943TIP3    H211773   1.607   6.768   4.917
 3944TIP3   OH211774   2.362   5.642   2.835
 3944TIP3    H111775   2.431   5.598   2.785
 3944TIP3    H211776   2.330   5.711   2.777
 3945TIP3   OH211777   2.076   2.172   3.353
 3945TIP3    H111778   2.138   2.189   3.424
 3945TIP3    H211779   2.082   2.249   3.297
 3946TIP3   OH211780   5.644   2.401   6.262
 3946TIP3    H111781   5.548   2.404   6.261
 3946TIP3    H211782   5.668   2.393   6.170
 3947TIP3   OH211783   1.541   1.239   0.342
 3947TIP3    H111784   1.508   1.283   0.420
 3947TIP3    H211785   1.636   1.239   0.352
 3948TIP3   OH211786   6.274   3.292   5.200
 3948TIP3    H111787   6.282   3.201   5.229
 3948TIP3    H211788   6.185   3.299   5.166
 3949TIP3   OH211789   0.525   7.134   3.524
 3949TIP3    H111790   0.488   7.197   3.462
 3949TIP3    H211791   0.475   7.148   3.605
 3950TIP3   OH211792   2.318   7.281   3.568
 3950TIP3    H111793   2.269   7.361   3.549
 3950TIP3    H211794   2.252   7.212   3.565
 3951TIP3   OH211795   1.359   2.191   2.201
 3951TIP3    H111796   1.298   2.257   2.168
 3951TIP3    H211797   1.378   2.217   2.291
 3952TIP3   OH211798   1.194   5.464   3.618
 3952TIP3    H111799   1.109   5.497   3.590
 3952TIP3    H211800   1.173   5.391   3.676
 3953TIP3   OH211801   5.136   2.745   1.114
 3953TIP3    H111802   5.046   2.775   1.125
 3953TIP3    H211803   5.149   2.683   1.186
 3954TIP3   OH211804   2.778   2.053   0.556
 3954TIP3    H111805   2.862   2.048   0.509
 3954TIP3    H211806   2.712   2.046   0.488
 3955TIP3   OH211807   7.386   5.674   5.249
 3955TIP3    H111808   7.356   5.659   5.339
 3955TIP3    H211809   7.381   5.769   5.238
 3956TIP3   OH211810   3.164   3.019   6.014
 3956TIP3    H111811   3.093   2.987   5.957
 3956TIP3    H211812   3.186   2.945   6.069
 3957TIP3   OH211813   3.637   3.515   1.337
 3957TIP3    H111814   3.700   3.445   1.355
 3957TIP3    H211815   3.552   3.472   1.340
 3958TIP3   OH211816   3.116   2.634   3.893
 3958TIP3    H111817   3.080   2.646   3.806
 3958TIP3    H211818   3.194   2.579   3.879
 3959TIP3   OH211819   4.333   4.896   4.926
 3959TIP3    H111820   4.254   4.938   4.890
 3959TIP3    H211821   4.316   4.890   5.020
 3960TIP3   OH211822   6.505   4.173   6.174
 3960TIP3    H111823   6.506   4.124   6.255
 3960TIP3    H211824   6.531   4.262   6.199
 3961TIP3   OH211825   6.550   6.713   0.085
 3961TIP3    H111826   6.640   6.704   0.055
 3961TIP3    H211827   6.557   6.756   0.170
 3962TIP3   OH211828   2.610   0.980   1.411
 3962TIP3    H111829   2.706   0.980   1.419
 3962TIP3    H211830   2.579   0.932   1.488
 3963TIP3   OH211831   7.339   1.553   5.310
 3963TIP3    H111832   7.289   1.619   5.261
 3963TIP3    H211833   7.388   1.604   5.375
 3964TIP3   OH211834   5.380   5.917   6.163
 3964TIP3    H111835   5.350   6.007   6.177
 3964TIP3    H211836   5.473   5.919   6.188
 3965TIP3   OH211837   2.571   3.797   2.809
 3965TIP3    H111838   2.555   3.704   2.797
 3965TIP3    H211839   2.594   3.805   2.902
 3966TIP3   OH211840   4.689   6.673   1.141
 3966TIP3    H111841   4.711   6.681   1.234
 3966TIP3    H211842   4.772   6.651   1.098
 3967TIP3   OH211843   6.585   5.475   1.755
 3967TIP3    H111844   6.679   5.460   1.765
 3967TIP3    H211845   6.544   5.394   1.786
 3968TIP3   OH211846   4.331   1.547   6.151
 3968TIP3    H111847   4.343   1.503   6.067
 3968TIP3    H211848   4.374   1.489   6.214
 3969TIP3   OH211849   2.594   3.611   4.917
 3969TIP3    H111850   2.547   3.683   4.875
 3969TIP3    H211851   2.667   3.591   4.859
 3970TIP3   OH211852   3.935   2.711   5.206
 3970TIP3    H111853   3.844   2.682   5.211
 3970TIP3    H211854   3.984   2.648   5.260
 3971TIP3   OH211855   5.578   5.416   2.641
 3971TIP3    H111856   5.549   5.505   2.620
 3971TIP3    H211857   5.658   5.428   2.692
 3972TIP3   OH211858   7.784   1.861   2.958
 3972TIP3    H111859   7.825   1.834   3.041
 3972TIP3    H211860   7.757   1.952   2.972
 3973TIP3   OH211861   7.867   3.135   2.903
 3973TIP3    H111862   7.775   3.110   2.891
 3973TIP3    H211863   7.902   3.144   2.814
 3974TIP3   OH211864   3.043   6.855   2.618
 3974TIP3    H111865   2.965   6.804   2.638
 3974TIP3    H211866   3.110   6.821   2.676
 3975TIP3   OH211867   5.259   3.430   4.876
 3975TIP3    H111868   5.266   3.525   4.885
 3975TIP3    H211869   5.214   3.418   4.792
 3976TIP3   OH211870   3.771   1.511   6.309
 3976TIP3    H111871   3.680   1.484   6.312
 3976TIP3    H211872   3.784   1.541   6.219
 3977TIP3   OH211873   7.980   6.151   2.661
 3977TIP3    H111874   8.074   6.169   2.667
 3977TIP3    H211875   7.961   6.150   2.568
 3978TIP3   OH211876   7.693   4.803   4.702
 3978TIP3    H111877   7.784   4.829   4.688
 3978TIP3    H211878   7.670   4.752   4.624
 3979TIP3   OH211879   5.124   5.271   2.524
 3979TIP3    H111880   5.036   5.307   2.528
 3979TIP3    H211881   5.123   5.210   2.450
 3980TIP3   OH211882   0.520   7.324   5.228
 3980TIP3    H111883   0.580   7.249   5.235
 3980TIP3    H211884   0.550   7.385   5.296
 3981TIP3   OH211885   7.033   0.091   4.952
 3981TIP3    H111886   7.089   0.028   4.997
 3981TIP3    H211887   6.944   0.059   4.967
 3982TIP3   OH211888   1.115   0.262   4.100
 3982TIP3    H111889   1.184   0.215   4.149
 3982TIP3    H211890   1.130   0.354   4.120
 3983TIP3   OH211891   0.735   3.479   2.925
 3983TIP3    H111892   0.741   3.385   2.908
 3983TIP3    H211893   0.681   3.486   3.003
 3984TIP3   OH211894   1.093   1.956   4.583
 3984TIP3    H111895   1.071   1.878   4.634
 3984TIP3    H211896   1.183   1.976   4.607
 3985TIP3   OH211897   2.007   3.921   6.040
 3985TIP3    H111898   2.063   3.850   6.010
 3985TIP3    H211899   2.053   3.957   6.116
 3986TIP3   OH211900   3.364   1.545   0.995
 3986TIP3    H111901   3.405   1.463   1.023
 3986TIP3    H211902   3.429   1.613   1.014
 3987TIP3   OH211903   2.008   1.918   4.593
 3987TIP3    H111904   1.952   1.841   4.604
 3987TIP3    H211905   1.948   1.987   4.565
 3988TIP3   OH211906   3.435   5.429   2.845
 3988TIP3    H111907   3.471   5.496   2.903
 3988TIP3    H211908   3.390   5.479   2.776
 3989TIP3   OH211909   1.751   3.968   4.451
 3989TIP3    H111910   1.820   4.022   4.412
 3989TIP3    H211911   1.796   3.919   4.520
 3990TIP3   OH211912   3.217   5.753   0.699
 3990TIP3    H111913   3.175   5.729   0.781
 3990TIP3    H211914   3.145   5.783   0.643
 3991TIP3   OH211915   0.672   7.773   1.527
 3991TIP3    H111916   0.683   7.759   1.433
 3991TIP3    H211917   0.746   7.727   1.567
 3992TIP3   OH211918   2.074   1.241   4.543
 3992TIP3    H111919   2.069   1.327   4.585
 3992TIP3    H211920   2.022   1.249   4.463
 3993TIP3   OH211921   2.751   7.382   3.696
 3993TIP3    H111922   2.779   7.459   3.647
 3993TIP3    H211923   2.806   7.311   3.661
 3994TIP3   OH211924   6.663   2.754   6.597
 3994TIP3    H111925   6.598   2.716   6.537
 3994TIP3    H211926   6.730   2.685   6.606
 3995TIP3   OH211927   2.971   0.487   5.628
 3995TIP3    H111928   3.002   0.414   5.681
 3995TIP3    H211929   2.941   0.552   5.692
 3996TIP3   OH211930   6.600   3.838   0.647
 3996TIP3    H111931   6.680   3.891   0.644
 3996TIP3    H211932   6.630   3.748   0.636
 3997TIP3   OH211933   4.486   7.054   4.258
 3997TIP3    H111934   4.513   7.051   4.350
 3997TIP3    H211935   4.541   6.987   4.216
 3998TIP3   OH211936   5.704   5.147   6.437
 3998TIP3    H111937   5.771   5.090   6.476
 3998TIP3    H211938   5.705   5.225   6.491
 3999TIP3   OH211939   2.382   3.464   1.475
 3999TIP3    H111940   2.358   3.450   1.383
 3999TIP3    H211941   2.330   3.540   1.502
 4000TIP3   OH211942   7.229   0.863   3.128
 4000TIP3    H111943   7.228   0.787   3.069
 4000TIP3    H211944   7.290   0.837   3.198
 4001TIP3   OH211945   3.742   7.739   6.383
 4001TIP3    H111946   3.773   7.762   6.470
 4001TIP3    H211947   3.807   7.677   6.349
 4002TIP3   OH211948   8.013   5.370   4.240
 4002TIP3    H111949   7.929   5.327   4.254
 4002TIP3    H211950   8.026   5.425   4.317
 4003TIP3   OH211951   6.490   0.168   6.556
 4003TIP3    H111952   6.514   0.084   6.596
 4003TIP3    H211953   6.557   0.183   6.489
 4004TIP3   OH211954   2.565   4.130   4.999
 4004TIP3    H111955   2.499   4.185   5.041
 4004TIP3    H211956   2.626   4.192   4.959
 4005TIP3   OH211957   4.139   7.721   1.268
 4005TIP3    H111958   4.218   7.688   1.226
 4005TIP3    H211959   4.166   7.742   1.357
 4006TIP3   OH211960   0.278   2.320   0.846
 4006TIP3    H111961   0.350   2.281   0.896
 4006TIP3    H211962   0.215   2.348   0.913
 4007TIP3   OH211963   5.898   1.808   1.175
 4007TIP3    H111964   5.949   1.736   1.136
 4007TIP3    H211965   5.810   1.796   1.142
 4008TIP3   OH211966   1.164   2.787   2.512
 4008TIP3    H111967   1.071   2.772   2.526
 4008TIP3    H211968   1.169   2.876   2.477
 4009TIP3   OH211969   7.236   0.175   3.138
 4009TIP3    H111970   7.252   0.084   3.111
 4009TIP3    H211971   7.188   0.167   3.221
 4010TIP3   OH211972   7.615   2.917   1.983
 4010TIP3    H111973   7.542   2.975   1.960
 4010TIP3    H211974   7.661   2.963   2.052
 4011TIP3   OH211975   5.719   2.226   2.262
 4011TIP3    H111976   5.791   2.169   2.236
 4011TIP3    H211977   5.685   2.261   2.179
 4012TIP3   OH211978   2.934   4.741   0.078
 4012TIP3    H111979   2.865   4.708   0.136
 4012TIP3    H211980   2.902   4.826   0.049
 4013TIP3   OH211981   3.524   0.832   0.091
 4013TIP3    H111982   3.512   0.737   0.086
 4013TIP3    H211983   3.527   0.851   0.185
 4014TIP3   OH211984   1.653   1.881   3.911
 4014TIP3    H111985   1.579   1.938   3.930
 4014TIP3    H211986   1.666   1.890   3.816
 4015TIP3   OH211987   0.237   3.505   5.446
 4015TIP3    H111988   0.144   3.512   5.468
 4015TIP3    H211989   0.244   3.421   5.401
 4016TIP3   OH211990   5.550   1.204   3.818
 4016TIP3    H111991   5.526   1.137   3.755
 4016TIP3    H211992   5.490   1.277   3.800
 4017TIP3   OH211993   4.137   3.791   5.443
 4017TIP3    H111994   4.202   3.745   5.497
 4017TIP3    H211995   4.187   3.820   5.366
 4018TIP3   OH211996   0.456   2.170   3.885
 4018TIP3    H111997   0.423   2.110   3.819
 4018TIP3    H211998   0.521   2.224   3.838
 4019TIP3   OH211999   1.658   4.294   1.857
 4019TIP3    H112000   1.687   4.231   1.923
 4019TIP3    H212001   1.564   4.277   1.847
 4020TIP3   OH212002   1.671   0.413   2.970
 4020TIP3    H112003   1.743   0.456   2.924
 4020TIP3    H212004   1.648   0.474   3.039
 4021TIP3   OH212005   7.673   5.822   4.338
 4021TIP3    H112006   7.632   5.748   4.383
 4021TIP3    H212007   7.722   5.868   4.406
 4022TIP3   OH212008   7.369   0.524   0.100
 4022TIP3    H112009   7.370   0.616   0.127
 4022TIP3    H212010   7.452   0.512   0.053
 4023TIP3   OH212011   5.283   7.342   5.062
 4023TIP3    H112012   5.207   7.398   5.046
 4023TIP3    H212013   5.358   7.400   5.048
 4024TIP3   OH212014   5.997   1.544   6.333
 4024TIP3    H112015   5.960   1.515   6.416
 4024TIP3    H212016   5.925   1.590   6.290
 4025TIP3   OH212017   4.528   3.354   3.922
 4025TIP3    H112018   4.477   3.288   3.969
 4025TIP3    H212019   4.493   3.438   3.951
 4026TIP3   OH212020   7.625   5.300   2.276
 4026TIP3    H112021   7.719   5.293   2.296
 4026TIP3    H212022   7.616   5.386   2.235
 4027TIP3   OH212023   5.295   1.829   2.499
 4027TIP3    H112024   5.368   1.880   2.464
 4027TIP3    H212025   5.228   1.895   2.520
 4028TIP3   OH212026   3.504   5.707   5.575
 4028TIP3    H112027   3.520   5.754   5.494
 4028TIP3    H212028   3.485   5.617   5.548
 4029TIP3   OH212029   7.085   7.779   3.721
 4029TIP3    H112030   7.019   7.773   3.790
 4029TIP3    H212031   7.097   7.873   3.709
 4030TIP3   OH212032   1.786   5.265   2.639
 4030TIP3    H112033   1.858   5.301   2.587
 4030TIP3    H212034   1.745   5.201   2.581
 4031TIP3   OH212035   5.751   3.665   0.766
 4031TIP3    H112036   5.831   3.625   0.734
 4031TIP3    H212037   5.727   3.613   0.843
 4032TIP3   OH212038   5.351   2.922   1.882
 4032TIP3    H112039   5.424   2.919   1.821
 4032TIP3    H212040   5.285   2.975   1.838
 4033TIP3   OH212041   7.027   0.854   2.797
 4033TIP3    H112042   6.951   0.913   2.789
 4033TIP3    H212043   7.007   0.800   2.874
 4034TIP3   OH212044   1.128   0.187   2.520
 4034TIP3    H112045   1.140   0.278   2.547
 4034TIP3    H212046   1.071   0.191   2.444
 4035TIP3   OH212047   3.383   4.983   3.159
 4035TIP3    H112048   3.309   5.043   3.152
 4035TIP3    H212049   3.458   5.034   3.131
 4036TIP3   OH212050   0.009   0.344   2.313
 4036TIP3    H112051   0.036   0.431   2.284
 4036TIP3    H212052   0.057   0.284   2.256
 4037TIP3   OH212053   5.679   7.708   2.507
 4037TIP3    H112054   5.762   7.750   2.529
 4037TIP3    H212055   5.612   7.773   2.526
 4038TIP3   OH212056   4.454   4.185   1.638
 4038TIP3    H112057   4.475   4.120   1.705
 4038TIP3    H212058   4.375   4.151   1.596
 4039TIP3   OH212059   5.200   7.774   1.098
 4039TIP3    H112060   5.210   7.803   1.189
 4039TIP3    H212061   5.125   7.824   1.066
 4040TIP3   OH212062   4.644   6.516   4.644
 4040TIP3    H112063   4.555   6.549   4.633
 4040TIP3    H212064   4.690   6.585   4.692
 4041TIP3   OH212065   3.652   5.868   1.438
 4041TIP3    H112066   3.705   5.931   1.390
 4041TIP3    H212067   3.645   5.793   1.380
 4042TIP3   OH212068   1.720   4.736   0.320
 4042TIP3    H112069   1.736   4.829   0.304
 4042TIP3    H212070   1.705   4.699   0.233
 4043TIP3   OH212071   2.263   5.290   5.017
 4043TIP3    H112072   2.248   5.384   5.022
 4043TIP3    H212073   2.272   5.272   4.923
 4044TIP3   OH212074   6.273   6.665   4.893
 4044TIP3    H112075   6.182   6.637   4.883
 4044TIP3    H212076   6.282   6.686   4.986
 4045TIP3   OH212077   7.896   1.896   5.723
 4045TIP3    H112078   7.833   1.854   5.664
 4045TIP3    H212079   7.858   1.885   5.810
 4046TIP3   OH212080   1.964   4.539   0.899
 4046TIP3    H112081   1.897   4.473   0.916
 4046TIP3    H212082   2.045   4.501   0.934
 4047TIP3   OH212083   2.580   0.125   3.982
 4047TIP3    H112084   2.557   0.063   4.051
 4047TIP3    H212085   2.581   0.210   4.025
 4048TIP3   OH212086   6.804   6.253   1.172
 4048TIP3    H112087   6.723   6.303   1.161
 4048TIP3    H212088   6.812   6.202   1.092
 4049TIP3   OH212089   8.128   6.788   5.816
 4049TIP3    H112090   8.200   6.774   5.754
 4049TIP3    H212091   8.069   6.714   5.801
 4050TIP3   OH212092   7.057   0.147   1.772
 4050TIP3    H112093   7.136   0.184   1.732
 4050TIP3    H212094   7.007   0.223   1.802
 4051TIP3   OH212095   4.480   0.968   1.329
 4051TIP3    H112096   4.459   1.053   1.367
 4051TIP3    H212097   4.556   0.937   1.378
 4052TIP3   OH212098   7.559   7.531   0.741
 4052TIP3    H112099   7.489   7.572   0.792
 4052TIP3    H212100   7.526   7.531   0.651
 4053TIP3   OH212101   0.238   0.088   6.644
 4053TIP3    H112102   0.277   0.173   6.669
 4053TIP3    H212103   0.202   0.103   6.557
 4054TIP3   OH212104   5.773   7.751   4.749
 4054TIP3    H112105   5.759   7.704   4.667
 4054TIP3    H212106   5.868   7.764   4.754
 4055TIP3   OH212107   8.142   2.616   2.034
 4055TIP3    H112108   8.100   2.577   1.957
 4055TIP3    H212109   8.186   2.542   2.077
 4056TIP3   OH212110   6.866   0.919   2.484
 4056TIP3    H112111   6.891   0.828   2.501
 4056TIP3    H212112   6.876   0.963   2.569
 4057TIP3   OH212113   6.392   5.027   2.888
 4057TIP3    H112114   6.320   5.076   2.926
 4057TIP3    H212115   6.429   5.085   2.821
 4058TIP3   OH212116   5.616   6.572   5.180
 4058TIP3    H112117   5.525   6.600   5.166
 4058TIP3    H212118   5.647   6.546   5.094
 4059TIP3   OH212119   0.846   2.682   5.254
 4059TIP3    H112120   0.864   2.634   5.335
 4059TIP3    H212121   0.768   2.640   5.219
 4060TIP3   OH212122   1.519   2.788   4.656
 4060TIP3    H112123   1.501   2.818   4.745
 4060TIP3    H212124   1.514   2.692   4.662
 4061TIP3   OH212125   1.532   3.818   3.548
 4061TIP3    H112126   1.563   3.857   3.630
 4061TIP3    H212127   1.611   3.806   3.495
 4062TIP3   OH212128   4.446   1.128   3.018
 4062TIP3    H112129   4.462   1.194   3.086
 4062TIP3    H212130   4.351   1.119   3.015
 4063TIP3   OH212131   1.815   6.176   0.755
 4063TIP3    H112132   1.825   6.119   0.679
 4063TIP3    H212133   1.851   6.126   0.828
 4064TIP3   OH212134   5.667   0.998   3.386
 4064TIP3    H112135   5.734   1.065   3.369
 4064TIP3    H212136   5.626   1.026   3.468
 4065TIP3   OH212137   8.064   7.758   4.177
 4065TIP3    H112138   8.036   7.681   4.226
 4065TIP3    H212139   8.078   7.825   4.244
 4066TIP3   OH212140   8.200   0.370   4.120
 4066TIP3    H112141   8.139   0.411   4.181
 4066TIP3    H212142   8.247   0.443   4.079
 4067TIP3   OH212143   3.516   0.269   5.136
 4067TIP3    H112144   3.524   0.188   5.187
 4067TIP3    H212145   3.472   0.330   5.196
 4068TIP3   OH212146   1.326   5.618   0.072
 4068TIP3    H112147   1.265   5.656   0.135
 4068TIP3    H212148   1.274   5.555   0.023
 4069TIP3   OH212149   2.441   4.153   5.370
 4069TIP3    H112150   2.466   4.096   5.297
 4069TIP3    H212151   2.372   4.104   5.415
 4070TIP3   OH212152   0.601   0.752   1.517
 4070TIP3    H112153   0.622   0.802   1.438
 4070TIP3    H212154   0.584   0.663   1.485
 4071TIP3   OH212155   4.159   1.480   3.661
 4071TIP3    H112156   4.123   1.489   3.750
 4071TIP3    H212157   4.197   1.392   3.660
 4072TIP3   OH212158   0.148   0.522   3.158
 4072TIP3    H112159   0.159   0.445   3.213
 4072TIP3    H212160   0.083   0.575   3.204
 4073TIP3   OH212161   0.282   7.061   3.189
 4073TIP3    H112162   0.255   7.014   3.110
 4073TIP3    H212163   0.201   7.068   3.241
 4074TIP3   OH212164   5.560   6.133   3.255
 4074TIP3    H112165   5.641   6.093   3.222
 4074TIP3    H212166   5.575   6.144   3.349
 4075TIP3   OH212167   0.970   4.706   3.211
 4075TIP3    H112168   0.950   4.796   3.237
 4075TIP3    H212169   1.063   4.708   3.187
 4076TIP3   OH212170   0.267   5.064   6.271
 4076TIP3    H112171   0.236   5.001   6.336
 4076TIP3    H212172   0.229   5.033   6.189
 4077TIP3   OH212173   7.335   1.449   2.717
 4077TIP3    H112174   7.343   1.387   2.790
 4077TIP3    H212175   7.256   1.420   2.671
 4078TIP3   OH212176   7.738   3.702   6.772
 4078TIP3    H112177   7.701   3.709   6.860
 4078TIP3    H212178   7.814   3.760   6.775
 4079TIP3   OH212179   2.297   2.841   1.693
 4079TIP3    H112180   2.248   2.767   1.729
 4079TIP3    H212181   2.379   2.802   1.661
 4080TIP3   OH212182   0.043   2.022   2.139
 4080TIP3    H112183   0.097   1.943   2.139
 4080TIP3    H212184   0.074   2.072   2.215
 4081TIP3   OH212185   2.969   5.398   3.775
 4081TIP3    H112186   2.969   5.493   3.767
 4081TIP3    H212187   2.928   5.367   3.694
 4082TIP3   OH212188   5.247   6.163   6.188
 4082TIP3    H112189   5.244   6.151   6.283
 4082TIP3    H212190   5.218   6.254   6.175
 4083TIP3   OH212191   0.954   6.121   4.752
 4083TIP3    H112192   0.880   6.171   4.717
 4083TIP3    H212193   1.005   6.185   4.802
 4084TIP3   OH212194   5.332   5.497   0.536
 4084TIP3    H112195   5.264   5.559   0.562
 4084TIP3    H212196   5.365   5.532   0.453
 4085TIP3   OH212197   4.264   6.739   5.003
 4085TIP3    H112198   4.353   6.748   5.037
 4085TIP3    H212199   4.265   6.657   4.954
 4086TIP3   OH212200   3.130   5.153   1.957
 4086TIP3    H112201   3.145   5.229   2.013
 4086TIP3    H212202   3.179   5.172   1.877
 4087TIP3   OH212203   0.844   6.871   6.186
 4087TIP3    H112204   0.904   6.932   6.145
 4087TIP3    H212205   0.773   6.926   6.220
 4088TIP3   OH212206   4.947   5.607   4.416
 4088TIP3    H112207   4.998   5.529   4.438
 4088TIP3    H212208   4.860   5.574   4.393
 4089TIP3   OH212209   3.823   2.224   4.316
 4089TIP3    H112210   3.758   2.169   4.273
 4089TIP3    H212211   3.841   2.294   4.252
 4090TIP3   OH212212   7.516   3.879   0.281
 4090TIP3    H112213   7.545   3.880   0.189
 4090TIP3    H212214   7.527   3.788   0.308
 4091TIP3   OH212215   0.425   0.927   5.608
 4091TIP3    H112216   0.394   0.863   5.671
 4091TIP3    H212217   0.509   0.956   5.643
 4092TIP3   OH212218   8.280   4.777   3.608
 4092TIP3    H112219   8.361   4.734   3.635
 4092TIP3    H212220   8.226   4.778   3.688
 4093TIP3   OH212221   3.650   6.717   2.321
 4093TIP3    H112222   3.592   6.697   2.247
 4093TIP3    H212223   3.595   6.708   2.398
 4094TIP3   OH212224   3.348   1.873   5.723
 4094TIP3    H112225   3.401   1.948   5.696
 4094TIP3    H212226   3.277   1.870   5.658
 4095TIP3   OH212227   6.445   6.670   5.600
 4095TIP3    H112228   6.369   6.718   5.635
 4095TIP3    H212229   6.409   6.587   5.571
 4096TIP3   OH212230   6.627   0.605   3.338
 4096TIP3    H112231   6.597   0.561   3.418
 4096TIP3    H212232   6.688   0.543   3.298
 4097TIP3   OH212233   0.110   0.118   3.468
 4097TIP3    H112234   0.094   0.139   3.376
 4097TIP3    H212235   0.054   0.042   3.486
 4098TIP3   OH212236   7.292   0.946   4.865
 4098TIP3    H112237   7.247   1.030   4.877
 4098TIP3    H212238   7.298   0.909   4.953
 4099TIP3   OH212239   7.677   0.086   2.531
 4099TIP3    H112240   7.690   0.049   2.443
 4099TIP3    H212241   7.585   0.112   2.532
 4100TIP3   OH212242   2.700   3.180   6.419
 4100TIP3    H112243   2.734   3.156   6.332
 4100TIP3    H212244   2.705   3.100   6.470
 4101TIP3   OH212245   0.122   0.634   6.658
 4101TIP3    H112246   0.072   0.706   6.619
 4101TIP3    H212247   0.174   0.676   6.727
 4102TIP3   OH212248   1.566   7.758   4.675
 4102TIP3    H112249   1.620   7.831   4.643
 4102TIP3    H212250   1.576   7.691   4.608
 4103TIP3   OH212251   1.359   0.394   5.276
 4103TIP3    H112252   1.278   0.352   5.247
 4103TIP3    H212253   1.330   0.457   5.342
 4104TIP3   OH212254   4.156   3.555   5.255
 4104TIP3    H112255   4.131   3.544   5.346
 4104TIP3    H212256   4.215   3.631   5.255
 4105TIP3   OH212257   7.568   5.950   2.412
 4105TIP3    H112258   7.565   5.871   2.357
 4105TIP3    H212259   7.578   5.917   2.501
 4106TIP3   OH212260   7.051   5.495   4.970
 4106TIP3    H112261   7.068   5.586   4.944
 4106TIP3    H212262   7.119   5.475   5.034
 4107TIP3   OH212263   2.255  -0.032   5.092
 4107TIP3    H112264   2.295  -0.066   5.172
 4107TIP3    H212265   2.234   0.059   5.113
 4108TIP3   OH212266   7.192   2.645   4.851
 4108TIP3    H112267   7.277   2.683   4.829
 4108TIP3    H212268   7.192   2.639   4.947
 4109TIP3   OH212269   0.305   4.358   4.027
 4109TIP3    H112270   0.384   4.365   3.973
 4109TIP3    H212271   0.233   4.381   3.969
 4110TIP3   OH212272   6.138   5.114   3.663
 4110TIP3    H112273   6.225   5.097   3.701
 4110TIP3    H212274   6.117   5.034   3.615
 4111TIP3   OH212275   4.024   7.657   0.571
 4111TIP3    H112276   3.929   7.654   0.575
 4111TIP3    H212277   4.044   7.716   0.499
 4112TIP3   OH212278   4.257   4.599   4.205
 4112TIP3    H112279   4.175   4.648   4.197
 4112TIP3    H212280   4.230   4.513   4.236
 4113TIP3   OH212281   4.669   5.099   0.622
 4113TIP3    H112282   4.691   5.083   0.530
 4113TIP3    H212283   4.637   5.189   0.624
 4114TIP3   OH212284   1.130   6.142   2.817
 4114TIP3    H112285   1.077   6.186   2.884
 4114TIP3    H212286   1.159   6.213   2.760
 4115TIP3   OH212287   4.069   6.567   5.746
 4115TIP3    H112288   4.152   6.557   5.793
 4115TIP3    H212289   4.092   6.558   5.654
 4116TIP3   OH212290   4.418   4.321   2.599
 4116TIP3    H112291   4.493   4.374   2.572
 4116TIP3    H212292   4.395   4.271   2.521
 4117TIP3   OH212293   3.305   0.566   5.785
 4117TIP3    H112294   3.313   0.650   5.738
 4117TIP3    H212295   3.389   0.523   5.770
 4118TIP3   OH212296   6.088   3.312   4.841
 4118TIP3    H112297   6.148   3.238   4.850
 4118TIP3    H212298   6.038   3.313   4.922
 4119TIP3   OH212299   7.136   3.797   0.171
 4119TIP3    H112300   7.070   3.826   0.235
 4119TIP3    H212301   7.142   3.702   0.185
 4120TIP3   OH212302   2.082   3.718   3.361
 4120TIP3    H112303   2.100   3.799   3.314
 4120TIP3    H212304   2.014   3.741   3.424
 4121TIP3   OH212305   4.917   4.871   2.366
 4121TIP3    H112306   4.908   4.889   2.460
 4121TIP3    H212307   4.992   4.812   2.360
 4122TIP3   OH212308   8.103   5.757   5.042
 4122TIP3    H112309   8.049   5.681   5.021
 4122TIP3    H212310   8.091   5.771   5.136
 4123TIP3   OH212311   4.753   6.722   4.335
 4123TIP3    H112312   4.792   6.770   4.408
 4123TIP3    H212313   4.764   6.629   4.359
 4124TIP3   OH212314   0.765   5.958   3.957
 4124TIP3    H112315   0.813   5.931   4.036
 4124TIP3    H212316   0.785   5.890   3.893
 4125TIP3   OH212317   6.512   7.485   1.593
 4125TIP3    H112318   6.537   7.433   1.670
 4125TIP3    H212319   6.491   7.419   1.526
 4126TIP3   OH212320   7.193   3.421   2.495
 4126TIP3    H112321   7.215   3.408   2.587
 4126TIP3    H212322   7.128   3.353   2.475
 4127TIP3   OH212323   1.211   6.915   0.692
 4127TIP3    H112324   1.179   6.829   0.717
 4127TIP3    H212325   1.172   6.931   0.606
 4128TIP3   OH212326   4.163   1.086   2.131
 4128TIP3    H112327   4.155   1.036   2.212
 4128TIP3    H212328   4.139   1.175   2.155
 4129TIP3   OH212329   6.583   4.808   5.390
 4129TIP3    H112330   6.619   4.789   5.303
 4129TIP3    H212331   6.544   4.726   5.418
 4130TIP3   OH212332   2.497   2.511   5.429
 4130TIP3    H112333   2.447   2.523   5.509
 4130TIP3    H212334   2.497   2.597   5.387
 4131TIP3   OH212335   3.797   1.837   0.799
 4131TIP3    H112336   3.865   1.875   0.855
 4131TIP3    H212337   3.835   1.838   0.711
 4132TIP3   OH212338   6.546   1.179   3.455
 4132TIP3    H112339   6.512   1.234   3.525
 4132TIP3    H212340   6.618   1.229   3.417
 4133TIP3   OH212341   4.787   6.217   1.127
 4133TIP3    H112342   4.755   6.273   1.198
 4133TIP3    H212343   4.817   6.137   1.171
 4134TIP3   OH212344   1.967   4.680   5.146
 4134TIP3    H112345   1.981   4.628   5.067
 4134TIP3    H212346   1.890   4.734   5.126
 4135TIP3   OH212347   3.007   1.984   0.812
 4135TIP3    H112348   2.989   2.000   0.905
 4135TIP3    H212349   2.998   2.070   0.770
 4136TIP3   OH212350   1.745   6.106   4.639
 4136TIP3    H112351   1.686   6.134   4.569
 4136TIP3    H212352   1.805   6.045   4.598
 4137TIP3   OH212353   3.587   2.315   3.409
 4137TIP3    H112354   3.503   2.270   3.408
 4137TIP3    H212355   3.579   2.380   3.478
 4138TIP3   OH212356   2.113   0.502   3.899
 4138TIP3    H112357   2.058   0.426   3.920
 4138TIP3    H212358   2.202   0.466   3.896
 4139TIP3   OH212359   3.856   0.257   3.276
 4139TIP3    H112360   3.923   0.279   3.211
 4139TIP3    H212361   3.872   0.165   3.297
 4140TIP3   OH212362   1.093   4.214   3.607
 4140TIP3    H112363   1.043   4.206   3.688
 4140TIP3    H212364   1.117   4.124   3.585
 4141TIP3   OH212365   5.956   5.287   5.009
 4141TIP3    H112366   6.035   5.243   4.979
 4141TIP3    H212367   5.922   5.230   5.078
 4142TIP3   OH212368   6.076   5.998   0.812
 4142TIP3    H112369   6.065   6.023   0.720
 4142TIP3    H212370   5.999   6.035   0.855
 4143TIP3   OH212371   5.215   3.038   1.676
 4143TIP3    H112372   5.233   3.065   1.586
 4143TIP3    H212373   5.193   3.119   1.721
 4144TIP3   OH212374   1.134   3.863   3.969
 4144TIP3    H112375   1.045   3.887   3.943
 4144TIP3    H212376   1.181   3.852   3.886
 4145TIP3   OH212377   3.366   5.793   6.551
 4145TIP3    H112378   3.283   5.840   6.551
 4145TIP3    H212379   3.410   5.822   6.631
 4146TIP3   OH212380   1.873   3.455   1.858
 4146TIP3    H112381   1.913   3.370   1.874
 4146TIP3    H212382   1.913   3.486   1.777
 4147TIP3   OH212383   6.337   4.006   2.737
 4147TIP3    H112384   6.303   3.962   2.815
 4147TIP3    H212385   6.405   4.064   2.770
 4148TIP3   OH212386   6.363   7.108   0.618
 4148TIP3    H112387   6.268   7.118   0.618
 4148TIP3    H212388   6.384   7.082   0.528
 4149TIP3   OH212389   7.829   3.384   1.781
 4149TIP3    H112390   7.901   3.322   1.771
 4149TIP3    H212391   7.812   3.385   1.875
 4150TIP3   OH212392   1.661   0.205   6.461
 4150TIP3    H112393   1.725   0.264   6.501
 4150TIP3    H212394   1.634   0.146   6.531
 4151TIP3   OH212395   6.690   5.936   5.920
 4151TIP3    H112396   6.708   5.863   5.980
 4151TIP3    H212397   6.679   6.012   5.977
 4152TIP3   OH212398   3.826   1.150   5.530
 4152TIP3    H112399   3.851   1.214   5.464
 4152TIP3    H212400   3.885   1.166   5.604
 4153TIP3   OH212401   4.753   4.979   3.143
 4153TIP3    H112402   4.834   5.003   3.188
 4153TIP3    H212403   4.684   5.027   3.190
 4154TIP3   OH212404   3.549   4.362   2.420
 4154TIP3    H112405   3.533   4.284   2.366
 4154TIP3    H212406   3.462   4.396   2.441
 4155TIP3   OH212407   2.621   7.191   6.200
 4155TIP3    H112408   2.579   7.195   6.114
 4155TIP3    H212409   2.583   7.113   6.241
 4156TIP3   OH212410   6.884   0.798   4.980
 4156TIP3    H112411   6.947   0.726   4.987
 4156TIP3    H212412   6.852   0.811   5.069
 4157TIP3   OH212413   6.103   4.480   5.725
 4157TIP3    H112414   6.149   4.563   5.733
 4157TIP3    H212415   6.126   4.448   5.638
 4158TIP3   OH212416   1.799   0.271   6.122
 4158TIP3    H112417   1.723   0.292   6.175
 4158TIP3    H212418   1.782   0.183   6.088
 4159TIP3   OH212419   3.435   1.419   3.834
 4159TIP3    H112420   3.408   1.465   3.754
 4159TIP3    H212421   3.383   1.339   3.835
 4160TIP3   OH212422   0.306   5.095   5.623
 4160TIP3    H112423   0.326   5.151   5.698
 4160TIP3    H212424   0.375   5.114   5.560
 4161TIP3   OH212425   4.383   4.135   1.217
 4161TIP3    H112426   4.456   4.089   1.260
 4161TIP3    H212427   4.342   4.186   1.287
 4162TIP3   OH212428   8.023   2.062   4.234
 4162TIP3    H112429   7.977   2.145   4.243
 4162TIP3    H212430   7.958   1.996   4.257
 4163TIP3   OH212431   1.423   6.208   3.770
 4163TIP3    H112432   1.481   6.172   3.702
 4163TIP3    H212433   1.383   6.131   3.810
 4164TIP3   OH212434   6.616   5.719   3.409
 4164TIP3    H112435   6.629   5.807   3.444
 4164TIP3    H212436   6.522   5.703   3.416
 4165TIP3   OH212437   4.417   6.822   6.215
 4165TIP3    H112438   4.494   6.798   6.267
 4165TIP3    H212439   4.454   6.844   6.129
 4166TIP3   OH212440   5.349   2.379   1.241
 4166TIP3    H112441   5.304   2.463   1.257
 4166TIP3    H212442   5.408   2.398   1.168
 4167TIP3   OH212443   7.104   0.425   1.286
 4167TIP3    H112444   7.174   0.359   1.290
 4167TIP3    H212445   7.030   0.379   1.247
 4168TIP3   OH212446   3.468   3.912   3.172
 4168TIP3    H112447   3.550   3.962   3.167
 4168TIP3    H212448   3.475   3.862   3.253
 4169TIP3   OH212449   4.952   1.476   6.502
 4169TIP3    H112450   4.917   1.388   6.485
 4169TIP3    H212451   5.024   1.461   6.564
 4170TIP3   OH212452   0.913   6.985   5.060
 4170TIP3    H112453   0.851   6.937   5.006
 4170TIP3    H212454   0.970   6.918   5.098
 4171TIP3   OH212455   6.579   3.065   1.375
 4171TIP3    H112456   6.591   3.155   1.406
 4171TIP3    H212457   6.490   3.063   1.340
 4172TIP3   OH212458   0.587   7.394   4.346
 4172TIP3    H112459   0.595   7.309   4.387
 4172TIP3    H212460   0.618   7.381   4.256
 4173TIP3   OH212461   3.633   2.835   6.639
 4173TIP3    H112462   3.549   2.873   6.666
 4173TIP3    H212463   3.687   2.837   6.717
 4174TIP3   OH212464   2.224   0.192   4.725
 4174TIP3    H112465   2.282   0.262   4.756
 4174TIP3    H212466   2.139   0.212   4.765
 4175TIP3   OH212467   2.394   3.444   5.419
 4175TIP3    H112468   2.312   3.427   5.464
 4175TIP3    H212469   2.441   3.361   5.421
 4176TIP3   OH212470   3.932   0.127   1.856
 4176TIP3    H112471   3.892   0.122   1.943
 4176TIP3    H212472   3.953   0.036   1.834
 4177TIP3   OH212473   6.552   5.136   4.277
 4177TIP3    H112474   6.493   5.174   4.212
 4177TIP3    H212475   6.522   5.046   4.287
 4178TIP3   OH212476   4.179   3.392   6.112
 4178TIP3    H112477   4.108   3.333   6.085
 4178TIP3    H212478   4.173   3.396   6.207
 4179TIP3   OH212479   5.121   3.009   5.286
 4179TIP3    H112480   5.047   2.983   5.340
 4179TIP3    H212481   5.118   2.950   5.211
 4180TIP3   OH212482   2.553   3.333   0.889
 4180TIP3    H112483   2.611   3.308   0.961
 4180TIP3    H212484   2.585   3.418   0.860
 4181TIP3   OH212485   3.498   4.469   1.801
 4181TIP3    H112486   3.423   4.442   1.853
 4181TIP3    H212487   3.574   4.441   1.852
 4182TIP3   OH212488   6.515   2.723   3.204
 4182TIP3    H112489   6.537   2.686   3.289
 4182TIP3    H212490   6.426   2.692   3.187
 4183TIP3   OH212491   3.862   0.493   5.508
 4183TIP3    H112492   3.820   0.572   5.474
 4183TIP3    H212493   3.918   0.523   5.579
 4184TIP3   OH212494   3.790   6.802   5.758
 4184TIP3    H112495   3.734   6.842   5.692
 4184TIP3    H212496   3.857   6.755   5.708
 4185TIP3   OH212497   7.812   1.464   2.789
 4185TIP3    H112498   7.723   1.500   2.792
 4185TIP3    H212499   7.812   1.405   2.714
 4186TIP3   OH212500   1.526   6.107   3.515
 4186TIP3    H112501   1.464   6.056   3.567
 4186TIP3    H212502   1.538   6.057   3.434
 4187TIP3   OH212503   6.442   6.407   2.161
 4187TIP3    H112504   6.406   6.472   2.221
 4187TIP3    H212505   6.366   6.371   2.116
 4188TIP3   OH212506   0.917   5.959   2.760
 4188TIP3    H112507   0.853   6.014   2.713
 4188TIP3    H212508   0.999   6.008   2.754
 4189TIP3   OH212509   6.396   7.293   0.199
 4189TIP3    H112510   6.469   7.336   0.156
 4189TIP3    H212511   6.328   7.287   0.132
 4190TIP3   OH212512   4.121   0.407   0.588
 4190TIP3    H112513   4.109   0.499   0.612
 4190TIP3    H212514   4.193   0.408   0.525
 4191TIP3   OH212515   0.863   1.280   4.582
 4191TIP3    H112516   0.812   1.239   4.512
 4191TIP3    H212517   0.874   1.371   4.553
 4192TIP3   OH212518   6.766   3.464   3.718
 4192TIP3    H112519   6.836   3.431   3.775
 4192TIP3    H212520   6.806   3.536   3.670
 4193TIP3   OH212521   2.006   7.399   3.643
 4193TIP3    H112522   2.002   7.493   3.625
 4193TIP3    H212523   1.953   7.387   3.721
 4194TIP3   OH212524   5.157   7.228   1.940
 4194TIP3    H112525   5.163   7.181   2.023
 4194TIP3    H212526   5.235   7.284   1.938
 4195TIP3   OH212527   1.612   4.185   6.601
 4195TIP3    H112528   1.624   4.142   6.685
 4195TIP3    H212529   1.669   4.137   6.541
 4196TIP3   OH212530   7.323   1.304   5.150
 4196TIP3    H112531   7.235   1.269   5.163
 4196TIP3    H212532   7.334   1.368   5.220
 4197TIP3   OH212533   4.371   4.668   2.313
 4197TIP3    H112534   4.425   4.623   2.248
 4197TIP3    H212535   4.425   4.668   2.392
 4198TIP3   OH212536   4.362   5.833   6.531
 4198TIP3    H112537   4.285   5.782   6.502
 4198TIP3    H212538   4.426   5.821   6.461
 4199TIP3   OH212539   0.458   1.307   6.453
 4199TIP3    H112540   0.470   1.386   6.399
 4199TIP3    H212541   0.386   1.329   6.512
 4200TIP3   OH212542   5.738   0.387   4.947
 4200TIP3    H112543   5.708   0.401   5.037
 4200TIP3    H212544   5.737   0.474   4.907
 4201TIP3   OH212545   2.012   3.075   6.707
 4201TIP3    H112546   2.009   3.026   6.790
 4201TIP3    H212547   1.928   3.121   6.703
 4202TIP3   OH212548   3.526   1.058   1.998
 4202TIP3    H112549   3.451   1.000   2.013
 4202TIP3    H212550   3.590   1.003   1.954
 4203TIP3   OH212551   5.801   3.541   4.479
 4203TIP3    H112552   5.849   3.472   4.525
 4203TIP3    H212553   5.709   3.528   4.505
 4204TIP3   OH212554   1.439   5.201   2.447
 4204TIP3    H112555   1.522   5.158   2.467
 4204TIP3    H212556   1.460   5.295   2.450
 4205TIP3   OH212557   3.842   7.507   6.666
 4205TIP3    H112558   3.912   7.442   6.667
 4205TIP3    H212559   3.888   7.591   6.656
 4206TIP3   OH212560   3.801   5.543   4.101
 4206TIP3    H112561   3.838   5.551   4.013
 4206TIP3    H212562   3.716   5.502   4.087
 4207TIP3   OH212563   5.983   3.005   4.634
 4207TIP3    H112564   5.930   3.011   4.555
 4207TIP3    H212565   5.957   3.080   4.687
 4208TIP3   OH212566   6.879   2.518   5.841
 4208TIP3    H112567   6.969   2.489   5.826
 4208TIP3    H212568   6.852   2.556   5.758
 4209TIP3   OH212569   5.106   7.394   6.319
 4209TIP3    H112570   5.134   7.485   6.310
 4209TIP3    H212571   5.080   7.368   6.231
 4210TIP3   OH212572   0.669   5.403   6.372
 4210TIP3    H112573   0.764   5.397   6.361
 4210TIP3    H212574   0.636   5.318   6.343
 4211TIP3   OH212575   8.127   3.440   2.823
 4211TIP3    H112576   8.162   3.393   2.748
 4211TIP3    H212577   8.032   3.429   2.817
 4212TIP3   OH212578   4.812   1.078   1.513
 4212TIP3    H112579   4.748   1.149   1.509
 4212TIP3    H212580   4.897   1.123   1.506
 4213TIP3   OH212581   6.143   4.454   2.370
 4213TIP3    H112582   6.163   4.531   2.317
 4213TIP3    H212583   6.048   4.447   2.368
 4214TIP3   OH212584   5.191   2.916   4.618
 4214TIP3    H112585   5.221   2.866   4.542
 4214TIP3    H212586   5.271   2.953   4.655
 4215TIP3   OH212587   3.324   3.431   3.448
 4215TIP3    H112588   3.284   3.510   3.411
 4215TIP3    H212589   3.329   3.448   3.542
 4216TIP3   OH212590   5.975   7.321   5.236
 4216TIP3    H112591   5.945   7.377   5.308
 4216TIP3    H212592   6.064   7.351   5.217
 4217TIP3   OH212593   7.030   7.528   3.645
 4217TIP3    H112594   7.050   7.621   3.658
 4217TIP3    H212595   7.112   7.483   3.666
 4218TIP3   OH212596   7.512   2.484   6.307
 4218TIP3    H112597   7.512   2.565   6.357
 4218TIP3    H212598   7.577   2.429   6.351
 4219TIP3   OH212599   2.449   0.664   3.956
 4219TIP3    H112600   2.382   0.625   3.901
 4219TIP3    H212601   2.519   0.599   3.958
 4220TIP3   OH212602   7.483   3.874   4.030
 4220TIP3    H112603   7.463   3.787   3.997
 4220TIP3    H212604   7.551   3.860   4.096
 4221TIP3   OH212605   3.078   2.700   5.722
 4221TIP3    H112606   3.093   2.787   5.685
 4221TIP3    H212607   3.152   2.648   5.690
 4222TIP3   OH212608   1.178   2.820   5.462
 4222TIP3    H112609   1.103   2.864   5.501
 4222TIP3    H212610   1.164   2.828   5.367
 4223TIP3   OH212611   6.001   3.162   5.535
 4223TIP3    H112612   5.919   3.175   5.486
 4223TIP3    H212613   6.020   3.248   5.572
 4224TIP3   OH212614   2.407   0.943   0.082
 4224TIP3    H112615   2.487   0.994   0.070
 4224TIP3    H212616   2.412   0.911   0.172
 4225TIP3   OH212617   1.723   6.799   6.556
 4225TIP3    H112618   1.664   6.874   6.554
 4225TIP3    H212619   1.802   6.832   6.598
 4226TIP3   OH212620   5.693   2.015   3.613
 4226TIP3    H112621   5.684   2.096   3.563
 4226TIP3    H212622   5.656   1.947   3.557
 4227TIP3   OH212623   5.268   3.302   3.717
 4227TIP3    H112624   5.322   3.326   3.793
 4227TIP3    H212625   5.185   3.274   3.755
 4228TIP3   OH212626   5.358   3.880   1.423
 4228TIP3    H112627   5.391   3.851   1.508
 4228TIP3    H212628   5.424   3.942   1.392
 4229TIP3   OH212629   2.107   5.918   1.827
 4229TIP3    H112630   2.078   6.005   1.799
 4229TIP3    H212631   2.131   5.874   1.745
 4230TIP3   OH212632   3.518   6.238   1.899
 4230TIP3    H112633   3.474   6.265   1.980
 4230TIP3    H212634   3.602   6.203   1.927
 4231TIP3   OH212635   1.161   2.936   3.329
 4231TIP3    H112636   1.168   2.841   3.321
 4231TIP3    H212637   1.197   2.970   3.247
 4232TIP3   OH212638   4.328   5.357   3.396
 4232TIP3    H112639   4.278   5.285   3.359
 4232TIP3    H212640   4.351   5.326   3.484
 4233TIP3   OH212641   4.583   1.667   2.899
 4233TIP3    H112642   4.525   1.605   2.855
 4233TIP3    H212643   4.546   1.678   2.986
 4234TIP3   OH212644   0.270   3.059   4.337
 4234TIP3    H112645   0.282   3.143   4.293
 4234TIP3    H212646   0.357   3.020   4.338
 4235TIP3   OH212647   4.280   7.396   1.338
 4235TIP3    H112648   4.345   7.448   1.386
 4235TIP3    H212649   4.326   7.370   1.257
 4236TIP3   OH212650   5.734   5.713   6.321
 4236TIP3    H112651   5.686   5.769   6.260
 4236TIP3    H212652   5.747   5.767   6.399
 4237TIP3   OH212653   7.187   6.968   4.095
 4237TIP3    H112654   7.148   6.881   4.096
 4237TIP3    H212655   7.276   6.955   4.127
 4238TIP3   OH212656   3.319   0.832   0.760
 4238TIP3    H112657   3.306   0.820   0.665
 4238TIP3    H212658   3.368   0.755   0.787
 4239TIP3   OH212659   3.688   3.586   0.772
 4239TIP3    H112660   3.746   3.510   0.771
 4239TIP3    H212661   3.675   3.604   0.865
 4240TIP3   OH212662   1.418   7.124   6.135
 4240TIP3    H112663   1.332   7.136   6.175
 4240TIP3    H212664   1.460   7.210   6.143
 4241TIP3   OH212665   2.437   1.678   0.064
 4241TIP3    H112666   2.477   1.602   0.020
 4241TIP3    H212667   2.385   1.720  -0.003
 4242TIP3   OH212668   5.925   1.032   2.781
 4242TIP3    H112669   5.956   1.105   2.727
 4242TIP3    H212670   5.868   1.073   2.847
 4243TIP3   OH212671   4.805   0.442   3.823
 4243TIP3    H112672   4.811   0.521   3.770
 4243TIP3    H212673   4.747   0.466   3.895
 4244TIP3   OH212674   6.239   6.198   4.914
 4244TIP3    H112675   6.301   6.271   4.916
 4244TIP3    H212676   6.279   6.134   4.855
 4245TIP3   OH212677   7.167   7.503   4.833
 4245TIP3    H112678   7.182   7.563   4.906
 4245TIP3    H212679   7.085   7.459   4.854
 4246TIP3   OH212680   7.636   1.858   6.318
 4246TIP3    H112681   7.702   1.880   6.383
 4246TIP3    H212682   7.629   1.936   6.263
 4247TIP3   OH212683   7.089   3.789   6.808
 4247TIP3    H112684   7.175   3.803   6.768
 4247TIP3    H212685   7.097   3.706   6.853
 4248TIP3   OH212686   6.172   4.321   4.620
 4248TIP3    H112687   6.220   4.240   4.639
 4248TIP3    H212688   6.089   4.290   4.582
 4249TIP3   OH212689   3.666   6.171   3.709
 4249TIP3    H112690   3.703   6.131   3.630
 4249TIP3    H212691   3.657   6.264   3.687
 4250TIP3   OH212692   8.254   7.347   6.030
 4250TIP3    H112693   8.276   7.274   6.088
 4250TIP3    H212694   8.195   7.309   5.964
 4251TIP3   OH212695   2.888   4.178   5.430
 4251TIP3    H112696   2.904   4.225   5.512
 4251TIP3    H212697   2.821   4.113   5.451
 4252TIP3   OH212698   6.254   6.240   4.177
 4252TIP3    H112699   6.249   6.207   4.087
 4252TIP3    H212700   6.163   6.255   4.202
 4253TIP3   OH212701   4.465   7.503   3.667
 4253TIP3    H112702   4.410   7.567   3.713
 4253TIP3    H212703   4.505   7.554   3.596
 4254TIP3   OH212704   0.342   2.091   6.084
 4254TIP3    H112705   0.279   2.152   6.123
 4254TIP3    H212706   0.358   2.127   5.996
 4255TIP3   OH212707   5.954   3.484   1.558
 4255TIP3    H112708   5.978   3.515   1.471
 4255TIP3    H212709   6.026   3.425   1.583
 4256TIP3   OH212710   1.599   4.440   2.338
 4256TIP3    H112711   1.657   4.373   2.303
 4256TIP3    H212712   1.571   4.405   2.423
 4257TIP3   OH212713   3.155   3.561   2.502
 4257TIP3    H112714   3.123   3.473   2.523
 4257TIP3    H212715   3.231   3.574   2.558
 4258TIP3   OH212716   7.673   4.161   3.609
 4258TIP3    H112717   7.658   4.157   3.703
 4258TIP3    H212718   7.702   4.073   3.585
 4259TIP3   OH212719   6.993   7.689   2.591
 4259TIP3    H112720   6.940   7.750   2.539
 4259TIP3    H212721   6.973   7.712   2.682
 4260TIP3   OH212722   0.383   0.970   0.420
 4260TIP3    H112723   0.315   1.027   0.456
 4260TIP3    H212724   0.452   0.969   0.486
 4261TIP3   OH212725   5.546   2.536   4.609
 4261TIP3    H112726   5.619   2.501   4.660
 4261TIP3    H212727   5.576   2.531   4.518
 4262TIP3   OH212728   3.589   0.819   3.750
 4262TIP3    H112729   3.679   0.824   3.719
 4262TIP3    H212730   3.539   0.791   3.673
 4263TIP3   OH212731   4.643   7.164   0.604
 4263TIP3    H112732   4.684   7.212   0.532
 4263TIP3    H212733   4.578   7.226   0.640
 4264TIP3   OH212734   3.992   2.218   1.105
 4264TIP3    H112735   4.069   2.180   1.148
 4264TIP3    H212736   4.026   2.292   1.055
 4265TIP3   OH212737   3.078   0.244   6.539
 4265TIP3    H112738   3.053   0.244   6.631
 4265TIP3    H212739   3.014   0.301   6.496
 4266TIP3   OH212740   3.885   0.959   4.081
 4266TIP3    H112741   3.902   0.865   4.084
 4266TIP3    H212742   3.868   0.978   3.989
 4267TIP3   OH212743   3.419   0.071   0.699
 4267TIP3    H112744   3.440   0.131   0.628
 4267TIP3    H212745   3.359   0.007   0.660
 4268TIP3   OH212746   3.818   0.084   1.551
 4268TIP3    H112747   3.760   0.056   1.480
 4268TIP3    H212748   3.818   0.011   1.612
 4269TIP3   OH212749   5.042   1.912   2.250
 4269TIP3    H112750   5.070   1.953   2.332
 4269TIP3    H212751   5.021   1.821   2.275
 4270TIP3   OH212752   6.213   3.889   2.072
 4270TIP3    H112753   6.252   3.975   2.089
 4270TIP3    H212754   6.198   3.852   2.159
 4271TIP3   OH212755   4.583   4.969   6.538
 4271TIP3    H112756   4.577   4.904   6.469
 4271TIP3    H212757   4.551   5.050   6.497
 4272TIP3   OH212758   3.442   4.148   2.787
 4272TIP3    H112759   3.433   4.222   2.847
 4272TIP3    H212760   3.380   4.166   2.716
 4273TIP3   OH212761   6.601   2.044   4.817
 4273TIP3    H112762   6.598   2.135   4.846
 4273TIP3    H212763   6.547   2.042   4.738
 4274TIP3   OH212764   3.657   4.006   1.274
 4274TIP3    H112765   3.566   4.034   1.265
 4274TIP3    H212766   3.707   4.088   1.282
 4275TIP3   OH212767   2.900   7.433   2.424
 4275TIP3    H112768   2.913   7.476   2.340
 4275TIP3    H212769   2.806   7.418   2.429
 4276TIP3   OH212770   2.431   7.653   0.285
 4276TIP3    H112771   2.421   7.714   0.358
 4276TIP3    H212772   2.341   7.630   0.260
 4277TIP3   OH212773   6.951   0.313   4.134
 4277TIP3    H112774   6.862   0.334   4.108
 4277TIP3    H212775   6.944   0.229   4.180
 4278TIP3   OH212776   5.229   1.446  -0.006
 4278TIP3    H112777   5.282   1.391   0.051
 4278TIP3    H212778   5.292   1.510  -0.042
 4279TIP3   OH212779   0.156   5.487   3.719
 4279TIP3    H112780   0.214   5.471   3.793
 4279TIP3    H212781   0.081   5.534   3.757
 4280TIP3   OH212782   0.101   4.694   3.850
 4280TIP3    H112783   0.123   4.679   3.942
 4280TIP3    H212784   0.006   4.709   3.850
 4281TIP3   OH212785   5.942   5.006   3.975
 4281TIP3    H112786   6.004   4.999   3.903
 4281TIP3    H212787   5.920   5.099   3.979
 4282TIP3   OH212788   6.898   6.839   2.585
 4282TIP3    H112789   6.989   6.865   2.589
 4282TIP3    H212790   6.893   6.760   2.640
 4283TIP3   OH212791   7.599   0.052   5.418
 4283TIP3    H112792   7.608   0.112   5.493
 4283TIP3    H212793   7.668   0.080   5.357
 4284TIP3   OH212794   3.493   1.843   1.938
 4284TIP3    H112795   3.438   1.920   1.955
 4284TIP3    H212796   3.529   1.859   1.851
 4285TIP3   OH212797   5.118   4.223   4.893
 4285TIP3    H112798   5.038   4.272   4.912
 4285TIP3    H212799   5.149   4.260   4.810
 4286TIP3   OH212800   2.868   2.079   6.431
 4286TIP3    H112801   2.927   2.061   6.358
 4286TIP3    H212802   2.882   2.172   6.451
 4287TIP3   OH212803   8.104   7.136   5.668
 4287TIP3    H112804   8.158   7.214   5.671
 4287TIP3    H212805   8.144   7.082   5.599
 4288TIP3   OH212806   7.290   5.689   0.962
 4288TIP3    H112807   7.315   5.607   0.920
 4288TIP3    H212808   7.337   5.756   0.912
 4289TIP3   OH212809   1.429   3.734   4.820
 4289TIP3    H112810   1.335   3.720   4.824
 4289TIP3    H212811   1.461   3.708   4.907
 4290TIP3   OH212812   1.441   2.594   1.283
 4290TIP3    H112813   1.418   2.686   1.271
 4290TIP3    H212814   1.484   2.570   1.201
 4291TIP3   OH212815   4.276   2.658   2.170
 4291TIP3    H112816   4.354   2.629   2.216
 4291TIP3    H212817   4.290   2.631   2.079
 4292TIP3   OH212818   7.092   5.175   0.246
 4292TIP3    H112819   7.100   5.255   0.194
 4292TIP3    H212820   7.175   5.169   0.294
 4293TIP3   OH212821   4.044   2.443   4.315
 4293TIP3    H112822   4.037   2.391   4.395
 4293TIP3    H212823   4.000   2.526   4.336
 4294TIP3   OH212824   0.072   2.056   2.410
 4294TIP3    H112825   0.006   1.987   2.413
 4294TIP3    H212826   0.025   2.135   2.437
 4295TIP3   OH212827   3.112   1.981   5.242
 4295TIP3    H112828   3.021   1.949   5.242
 4295TIP3    H212829   3.123   2.018   5.154
 4296TIP3   OH212830   5.266   7.228   6.452
 4296TIP3    H112831   5.184   7.194   6.487
 4296TIP3    H212832   5.241   7.301   6.397
 4297TIP3   OH212833   5.140   0.354   1.711
 4297TIP3    H112834   5.210   0.413   1.683
 4297TIP3    H212835   5.060   0.406   1.702
 4298TIP3   OH212836   6.005   0.752   0.958
 4298TIP3    H112837   5.926   0.798   0.930
 4298TIP3    H212838   6.038   0.710   0.878
 4299TIP3   OH212839   1.958   5.796   5.454
 4299TIP3    H112840   2.038   5.791   5.401
 4299TIP3    H212841   1.899   5.732   5.414
 4300TIP3   OH212842   1.002   4.165   3.889
 4300TIP3    H112843   1.054   4.184   3.967
 4300TIP3    H212844   0.944   4.240   3.879
 4301TIP3   OH212845   7.911   7.423   5.203
 4301TIP3    H112846   7.959   7.424   5.120
 4301TIP3    H212847   7.875   7.334   5.208
 4302TIP3   OH212848   0.505   2.660   5.562
 4302TIP3    H112849   0.440   2.679   5.495
 4302TIP3    H212850   0.496   2.566   5.578
 4303TIP3   OH212851   6.387   6.140   1.244
 4303TIP3    H112852   6.329   6.170   1.314
 4303TIP3    H212853   6.377   6.045   1.243
 4304TIP3   OH212854   2.318   5.995   4.400
 4304TIP3    H112855   2.322   6.090   4.403
 4304TIP3    H212856   2.261   5.976   4.325
 4305TIP3   OH212857   4.157   1.388   6.688
 4305TIP3    H112858   4.135   1.366   6.598
 4305TIP3    H212859   4.075   1.381   6.736
 4306TIP3   OH212860   5.095   1.098   3.244
 4306TIP3    H112861   5.079   1.004   3.242
 4306TIP3    H212862   5.187   1.107   3.220
 4307TIP3   OH212863   7.059   3.888   4.027
 4307TIP3    H112864   7.116   3.819   3.993
 4307TIP3    H212865   7.088   3.967   3.982
 4308TIP3   OH212866   6.834   5.318   2.819
 4308TIP3    H112867   6.911   5.337   2.765
 4308TIP3    H212868   6.832   5.390   2.882
 4309TIP3   OH212869   6.249   3.360   4.357
 4309TIP3    H112870   6.341   3.348   4.334
 4309TIP3    H212871   6.244   3.449   4.391
 4310TIP3   OH212872   0.615   6.649   1.067
 4310TIP3    H112873   0.575   6.582   1.012
 4310TIP3    H212874   0.709   6.636   1.056
 4311TIP3   OH212875   1.090   6.250   0.804
 4311TIP3    H112876   1.098   6.193   0.728
 4311TIP3    H212877   1.043   6.327   0.771
 4312TIP3   OH212878   6.748   2.526   4.419
 4312TIP3    H112879   6.658   2.496   4.411
 4312TIP3    H212880   6.800   2.461   4.371
 4313TIP3   OH212881   4.963   1.353   0.123
 4313TIP3    H112882   5.008   1.375   0.205
 4313TIP3    H212883   5.031   1.363   0.056
 4314TIP3   OH212884   1.246   0.368   2.044
 4314TIP3    H112885   1.270   0.277   2.062
 4314TIP3    H212886   1.163   0.381   2.089
 4315TIP3   OH212887   1.942   2.235   6.765
 4315TIP3    H112888   2.009   2.243   6.697
 4315TIP3    H212889   1.950   2.145   6.797
 4316TIP3   OH212890   6.955   1.876   4.626
 4316TIP3    H112891   7.043   1.838   4.618
 4316TIP3    H212892   6.968   1.969   4.609
 4317TIP3   OH212893   5.692   7.740   4.225
 4317TIP3    H112894   5.612   7.781   4.257
 4317TIP3    H212895   5.731   7.806   4.168
 4318TIP3   OH212896   1.805   0.937   3.997
 4318TIP3    H112897   1.734   0.940   4.062
 4318TIP3    H212898   1.825   0.844   3.988
 4319TIP3   OH212899   7.703   6.361   5.348
 4319TIP3    H112900   7.648   6.285   5.365
 4319TIP3    H212901   7.789   6.324   5.326
 4320TIP3   OH212902   2.794   2.323   3.712
 4320TIP3    H112903   2.764   2.300   3.800
 4320TIP3    H212904   2.723   2.294   3.654
 4321TIP3   OH212905   4.858   0.819   4.242
 4321TIP3    H112906   4.860   0.728   4.271
 4321TIP3    H212907   4.806   0.818   4.162
 4322TIP3   OH212908   6.681   1.335   6.015
 4322TIP3    H112909   6.622   1.341   6.090
 4322TIP3    H212910   6.654   1.256   5.968
 4323TIP3   OH212911   4.779   0.553   6.400
 4323TIP3    H112912   4.873   0.559   6.415
 4323TIP3    H212913   4.770   0.487   6.330
 4324TIP3   OH212914   5.072   5.371   4.551
 4324TIP3    H112915   5.104   5.294   4.503
 4324TIP3    H212916   5.149   5.404   4.596
 4325TIP3   OH212917   5.101   5.694   0.855
 4325TIP3    H112918   5.157   5.772   0.853
 4325TIP3    H212919   5.068   5.691   0.945
 4326TIP3   OH212920   3.265   4.689   0.436
 4326TIP3    H112921   3.175   4.674   0.408
 4326TIP3    H212922   3.300   4.601   0.451
 4327TIP3   OH212923   0.652   7.126   4.443
 4327TIP3    H112924   0.722   7.137   4.379
 4327TIP3    H212925   0.695   7.093   4.521
 4328TIP3   OH212926   0.580   5.896   6.016
 4328TIP3    H112927   0.637   5.880   6.092
 4328TIP3    H212928   0.535   5.978   6.037
 4329TIP3   OH212929   2.547   3.103   2.627
 4329TIP3    H112930   2.600   3.077   2.702
 4329TIP3    H212931   2.457   3.106   2.661
 4330TIP3   OH212932   7.051   6.941   5.513
 4330TIP3    H112933   7.105   6.907   5.441
 4330TIP3    H212934   6.973   6.975   5.470
 4331TIP3   OH212935   3.258   0.725   6.209
 4331TIP3    H112936   3.326   0.683   6.157
 4331TIP3    H212937   3.248   0.812   6.171
 4332TIP3   OH212938   0.406   0.689   5.760
 4332TIP3    H112939   0.443   0.600   5.754
 4332TIP3    H212940   0.411   0.710   5.853
 4333TIP3   OH212941   6.885   0.653   3.934
 4333TIP3    H112942   6.834   0.577   3.907
 4333TIP3    H212943   6.961   0.616   3.980
 4334TIP3   OH212944   7.969   6.407   3.585
 4334TIP3    H112945   7.931   6.452   3.510
 4334TIP3    H212946   8.049   6.366   3.551
 4335TIP3   OH212947   4.570   0.936   0.446
 4335TIP3    H112948   4.545   0.928   0.354
 4335TIP3    H212949   4.606   1.025   0.453
 4336TIP3   OH212950   3.800   1.548   6.680
 4336TIP3    H112951   3.845   1.515   6.757
 4336TIP3    H212952   3.792   1.472   6.622
 4337TIP3   OH212953   4.156   6.032   1.552
 4337TIP3    H112954   4.233   5.977   1.565
 4337TIP3    H212955   4.108   5.990   1.481
 4338TIP3   OH212956   4.269   3.017   4.728
 4338TIP3    H112957   4.340   3.061   4.681
 4338TIP3    H212958   4.228   3.086   4.780
 4339TIP3   OH212959   4.850   1.568   2.226
 4339TIP3    H112960   4.906   1.506   2.275
 4339TIP3    H212961   4.761   1.540   2.246
 4340TIP3   OH212962   1.358   5.782   1.517
 4340TIP3    H112963   1.307   5.705   1.490
 4340TIP3    H212964   1.352   5.842   1.443
 4341TIP3   OH212965   5.287   0.732   4.958
 4341TIP3    H112966   5.192   0.728   4.944
 4341TIP3    H212967   5.319   0.791   4.891
 4342TIP3   OH212968   1.138   3.192   0.412
 4342TIP3    H112969   1.185   3.110   0.428
 4342TIP3    H212970   1.201   3.260   0.434
 4343TIP3   OH212971   6.893   3.988   3.723
 4343TIP3    H112972   6.881   4.053   3.792
 4343TIP3    H212973   6.985   3.962   3.729
 4344TIP3   OH212974   8.215   1.078   2.727
 4344TIP3    H112975   8.178   1.004   2.679
 4344TIP3    H212976   8.144   1.106   2.785
 4345TIP3   OH212977   7.104   4.322   2.483
 4345TIP3    H112978   7.103   4.229   2.507
 4345TIP3    H212979   7.090   4.321   2.388
 4346TIP3   OH212980   0.974   5.630   3.944
 4346TIP3    H112981   0.899   5.615   3.887
 4346TIP3    H212982   1.006   5.542   3.965
 4347TIP3   OH212983   5.847   2.995   5.854
 4347TIP3    H112984   5.785   2.995   5.781
 4347TIP3    H212985   5.929   2.962   5.816
 4348TIP3   OH212986   6.284   3.609   4.463
 4348TIP3    H112987   6.219   3.655   4.409
 4348TIP3    H212988   6.314   3.676   4.525
 4349TIP3   OH212989   3.369   7.235   0.254
 4349TIP3    H112990   3.442   7.292   0.231
 4349TIP3    H212991   3.355   7.180   0.176
 4350TIP3   OH212992   0.891   1.413   4.818
 4350TIP3    H112993   0.893   1.336   4.760
 4350TIP3    H212994   0.978   1.415   4.858
 4351TIP3   OH212995   4.336   1.094   3.501
 4351TIP3    H112996   4.415   1.117   3.551
 4351TIP3    H212997   4.265   1.136   3.549
 4352TIP3   OH212998   6.982   7.451   1.448
 4352TIP3    H112999   7.056   7.403   1.484
 4352TIP3    H213000   6.932   7.386   1.399
 4353TIP3   OH213001   8.066   2.107   1.872
 4353TIP3    H113002   8.045   2.146   1.957
 4353TIP3    H213003   7.980   2.095   1.831
 4354TIP3   OH213004   4.843   6.350   1.811
 4354TIP3    H113005   4.768   6.324   1.865
 4354TIP3    H213006   4.906   6.278   1.822
 4355TIP3   OH213007   3.331   5.215   2.590
 4355TIP3    H113008   3.375   5.238   2.508
 4355TIP3    H213009   3.357   5.124   2.607
 4356TIP3   OH213010   5.124   6.740   3.657
 4356TIP3    H113011   5.042   6.743   3.609
 4356TIP3    H213012   5.178   6.808   3.617
 4357TIP3   OH213013   6.436   2.577   2.202
 4357TIP3    H113014   6.345   2.603   2.188
 4357TIP3    H213015   6.433   2.482   2.214
 4358TIP3   OH213016   0.682   6.032   5.469
 4358TIP3    H113017   0.652   6.119   5.444
 4358TIP3    H213018   0.666   6.028   5.564
 4359TIP3   OH213019   3.754   5.129   4.616
 4359TIP3    H113020   3.793   5.170   4.693
 4359TIP3    H213021   3.737   5.201   4.557
 4360TIP3   OH213022   2.001   0.030   4.054
 4360TIP3    H113023   1.915   0.000   4.025
 4360TIP3    H213024   2.001   0.015   4.148
 4361TIP3   OH213025   5.395   5.080   2.112
 4361TIP3    H113026   5.373   5.032   2.192
 4361TIP3    H213027   5.398   5.014   2.043
 4362TIP3   OH213028   0.596   0.636   0.982
 4362TIP3    H113029   0.644   0.593   0.911
 4362TIP3    H213030   0.660   0.645   1.052
 4363TIP3   OH213031   2.042   0.010   6.646
 4363TIP3    H113032   2.063   0.092   6.602
 4363TIP3    H213033   2.118  -0.009   6.701
 4364TIP3   OH213034   6.353   4.474   2.016
 4364TIP3    H113035   6.295   4.518   1.954
 4364TIP3    H213036   6.331   4.512   2.101
 4365TIP3   OH213037   0.456   3.243   1.785
 4365TIP3    H113038   0.428   3.266   1.697
 4365TIP3    H213039   0.404   3.299   1.843
 4366TIP3   OH213040   1.799   1.723   5.296
 4366TIP3    H113041   1.848   1.647   5.265
 4366TIP3    H213042   1.758   1.694   5.378
 4367TIP3   OH213043   5.999   6.266   4.266
 4367TIP3    H113044   5.914   6.304   4.289
 4367TIP3    H213045   6.008   6.191   4.325
 4368TIP3   OH213046   2.080   7.210   5.753
 4368TIP3    H113047   2.060   7.246   5.667
 4368TIP3    H213048   2.047   7.276   5.815
 4369TIP3   OH213049   0.927   3.413   1.622
 4369TIP3    H113050   0.970   3.342   1.670
 4369TIP3    H213051   0.965   3.493   1.658
 4370TIP3   OH213052   5.363   3.549   5.834
 4370TIP3    H113053   5.300   3.583   5.897
 4370TIP3    H213054   5.352   3.454   5.838
 4371TIP3   OH213055   5.807   2.911   2.707
 4371TIP3    H113056   5.761   2.995   2.711
 4371TIP3    H213057   5.820   2.886   2.799
 4372TIP3   OH213058   3.159   5.504   1.121
 4372TIP3    H113059   3.215   5.431   1.093
 4372TIP3    H213060   3.085   5.462   1.164
 4373TIP3   OH213061   6.867   7.161   4.060
 4373TIP3    H113062   6.822   7.079   4.039
 4373TIP3    H213063   6.816   7.199   4.131
 4374TIP3   OH213064   7.395   3.736   4.518
 4374TIP3    H113065   7.321   3.705   4.465
 4374TIP3    H213066   7.458   3.665   4.516
 4375TIP3   OH213067   6.547   4.292   5.604
 4375TIP3    H113068   6.593   4.222   5.650
 4375TIP3    H213069   6.616   4.340   5.557
 4376TIP3   OH213070   3.424   7.706   5.086
 4376TIP3    H113071   3.350   7.699   5.147
 4376TIP3    H213072   3.491   7.752   5.136
 4377TIP3   OH213073   0.161   2.278   0.105
 4377TIP3    H113074   0.092   2.331   0.145
 4377TIP3    H213075   0.197   2.227   0.178
 4378TIP3   OH213076   7.976   2.444   0.086
 4378TIP3    H113077   8.035   2.487   0.149
 4378TIP3    H213078   7.899   2.500   0.084
 4379TIP3   OH213079   8.095   2.976   5.026
 4379TIP3    H113080   8.101   2.990   5.121
 4379TIP3    H213081   8.185   2.979   4.995
 4380TIP3   OH213082   2.842   6.466   6.035
 4380TIP3    H113083   2.775   6.526   6.067
 4380TIP3    H213084   2.909   6.466   6.104
 4381TIP3   OH213085   3.162   7.201   3.892
 4381TIP3    H113086   3.087   7.193   3.834
 4381TIP3    H213087   3.201   7.285   3.869
 4382TIP3   OH213088   1.304   4.976   5.374
 4382TIP3    H113089   1.213   4.990   5.350
 4382TIP3    H213090   1.301   4.933   5.460
 4383TIP3   OH213091   2.848   5.353   1.111
 4383TIP3    H113092   2.929   5.309   1.135
 4383TIP3    H213093   2.810   5.382   1.194
 4384TIP3   OH213094   1.454   7.064   0.676
 4384TIP3    H113095   1.365   7.032   0.692
 4384TIP3    H213096   1.500   6.990   0.636
 4385TIP3   OH213097   1.888   1.810   3.328
 4385TIP3    H113098   1.886   1.819   3.232
 4385TIP3    H213099   1.825   1.741   3.347
 4386TIP3   OH213100   4.850   1.617   2.706
 4386TIP3    H113101   4.819   1.580   2.623
 4386TIP3    H213102   4.843   1.544   2.768
 4387TIP3   OH213103   0.575   4.886   6.600
 4387TIP3    H113104   0.508   4.863   6.535
 4387TIP3    H213105   0.648   4.920   6.548
 4388TIP3   OH213106   3.295   3.839   6.678
 4388TIP3    H113107   3.201   3.858   6.683
 4388TIP3    H213108   3.306   3.790   6.597
 4389TIP3   OH213109   4.962   2.354   1.989
 4389TIP3    H113110   4.973   2.259   1.995
 4389TIP3    H213111   5.006   2.389   2.066
 4390TIP3   OH213112   7.786   0.526   5.451
 4390TIP3    H113113   7.791   0.584   5.527
 4390TIP3    H213114   7.699   0.487   5.456
 4391TIP3   OH213115   4.913   2.318   1.082
 4391TIP3    H113116   4.971   2.242   1.084
 4391TIP3    H213117   4.947   2.373   1.012
 4392TIP3   OH213118   2.748   5.496   1.319
 4392TIP3    H113119   2.681   5.519   1.254
 4392TIP3    H213120   2.707   5.427   1.371
 4393TIP3   OH213121   2.995   6.638   5.117
 4393TIP3    H113122   2.907   6.649   5.152
 4393TIP3    H213123   2.983   6.635   5.022
 4394TIP3   OH213124   5.770   6.407   1.014
 4394TIP3    H113125   5.831   6.479   1.004
 4394TIP3    H213126   5.764   6.368   0.926
 4395TIP3   OH213127   6.031   4.933   5.183
 4395TIP3    H113128   6.010   4.944   5.090
 4395TIP3    H213129   6.126   4.924   5.185
 4396TIP3   OH213130   1.618   6.570   3.496
 4396TIP3    H113131   1.640   6.641   3.435
 4396TIP3    H213132   1.698   6.553   3.544
 4397TIP3   OH213133   4.951   2.143   0.272
 4397TIP3    H113134   4.994   2.086   0.208
 4397TIP3    H213135   4.881   2.186   0.223
 4398TIP3   OH213136   8.216   0.801   3.640
 4398TIP3    H113137   8.185   0.832   3.555
 4398TIP3    H213138   8.308   0.780   3.626
 4399TIP3   OH213139   6.623   7.117   0.683
 4399TIP3    H113140   6.655   7.079   0.601
 4399TIP3    H213141   6.528   7.114   0.674
 4400TIP3   OH213142   6.688   7.737   5.612
 4400TIP3    H113143   6.625   7.666   5.614
 4400TIP3    H213144   6.640   7.811   5.575
 4401TIP3   OH213145   0.804   3.102   0.688
 4401TIP3    H113146   0.853   3.184   0.689
 4401TIP3    H213147   0.844   3.051   0.617
 4402TIP3   OH213148   2.525   3.058   6.080
 4402TIP3    H113149   2.612   3.020   6.096
 4402TIP3    H213150   2.535   3.150   6.104
 4403TIP3   OH213151   0.606   1.082   5.698
 4403TIP3    H113152   0.685   1.132   5.682
 4403TIP3    H213153   0.542   1.147   5.726
 4404TIP3   OH213154   2.567   1.027   2.148
 4404TIP3    H113155   2.529   0.990   2.068
 4404TIP3    H213156   2.650   0.980   2.159
 4405TIP3   OH213157   0.599   4.027   1.723
 4405TIP3    H113158   0.565   3.960   1.783
 4405TIP3    H213159   0.525   4.087   1.711
 4406TIP3   OH213160   7.950   3.493   5.945
 4406TIP3    H113161   7.938   3.561   6.011
 4406TIP3    H213162   7.914   3.414   5.985
 4407TIP3   OH213163   7.923   2.752   3.890
 4407TIP3    H113164   7.983   2.753   3.815
 4407TIP3    H213165   7.836   2.763   3.851
 4408TIP3   OH213166   7.919   2.416   3.528
 4408TIP3    H113167   7.911   2.510   3.514
 4408TIP3    H213168   7.981   2.408   3.601
 4409TIP3   OH213169   0.680   3.559   3.970
 4409TIP3    H113170   0.714   3.497   4.035
 4409TIP3    H213171   0.598   3.590   4.007
 4410TIP3   OH213172   8.187   1.150   1.652
 4410TIP3    H113173   8.196   1.054   1.649
 4410TIP3    H213174   8.119   1.169   1.588
 4411TIP3   OH213175   6.912   4.815   3.712
 4411TIP3    H113176   6.869   4.767   3.783
 4411TIP3    H213177   6.975   4.873   3.756
 4412TIP3   OH213178   6.292   5.940   6.048
 4412TIP3    H113179   6.226   6.003   6.017
 4412TIP3    H213180   6.301   5.877   5.977
 4413TIP3   OH213181   4.437   7.431   5.426
 4413TIP3    H113182   4.458   7.524   5.420
 4413TIP3    H213183   4.413   7.406   5.337
 4414TIP3   OH213184   4.979   0.182   3.433
 4414TIP3    H113185   5.002   0.227   3.352
 4414TIP3    H213186   5.063   0.163   3.474
 4415TIP3   OH213187   1.908   0.485   3.542
 4415TIP3    H113188   1.958   0.456   3.619
 4415TIP3    H213189   1.950   0.441   3.468
 4416TIP3   OH213190   3.807   0.300   3.852
 4416TIP3    H113191   3.718   0.335   3.847
 4416TIP3    H213192   3.801   0.224   3.910
 4417TIP3   OH213193   5.237   1.396   3.071
 4417TIP3    H113194   5.301   1.331   3.043
 4417TIP3    H213195   5.199   1.430   2.990
 4418TIP3   OH213196   1.213   4.336   3.058
 4418TIP3    H113197   1.251   4.399   3.119
 4418TIP3    H213198   1.231   4.250   3.097
 4419TIP3   OH213199   1.053   2.389   0.458
 4419TIP3    H113200   1.049   2.456   0.526
 4419TIP3    H213201   1.147   2.380   0.439
 4420TIP3   OH213202   3.681   4.657   5.410
 4420TIP3    H113203   3.749   4.725   5.408
 4420TIP3    H213204   3.632   4.673   5.491
 4421TIP3   OH213205   2.718   2.769   5.741
 4421TIP3    H113206   2.782   2.709   5.704
 4421TIP3    H213207   2.746   2.781   5.832
 4422TIP3   OH213208   3.571   7.050   1.363
 4422TIP3    H113209   3.637   7.038   1.295
 4422TIP3    H213210   3.600   7.127   1.411
 4423TIP3   OH213211   6.803   5.303   3.888
 4423TIP3    H113212   6.723   5.331   3.932
 4423TIP3    H213213   6.774   5.241   3.822
 4424TIP3   OH213214   0.649   5.777   4.331
 4424TIP3    H113215   0.578   5.718   4.304
 4424TIP3    H213216   0.619   5.815   4.414
 4425TIP3   OH213217   5.323   4.217   1.320
 4425TIP3    H113218   5.272   4.196   1.398
 4425TIP3    H213219   5.399   4.159   1.324
 4426TIP3   OH213220   0.820   0.160   0.077
 4426TIP3    H113221   0.769   0.200   0.006
 4426TIP3    H213222   0.764   0.169   0.154
 4427TIP3   OH213223   0.642   0.654   5.583
 4427TIP3    H113224   0.563   0.699   5.611
 4427TIP3    H213225   0.713   0.697   5.631
 4428TIP3   OH213226   1.278   5.865   2.302
 4428TIP3    H113227   1.341   5.915   2.354
 4428TIP3    H213228   1.332   5.804   2.251
 4429TIP3   OH213229   4.378   7.651   4.763
 4429TIP3    H113230   4.426   7.704   4.827
 4429TIP3    H213231   4.336   7.583   4.816
 4430TIP3   OH213232   5.647   5.239   5.072
 4430TIP3    H113233   5.725   5.219   5.124
 4430TIP3    H213234   5.654   5.333   5.053
 4431TIP3   OH213235   3.219   3.828   4.072
 4431TIP3    H113236   3.240   3.901   4.130
 4431TIP3    H213237   3.299   3.776   4.069
 4432TIP3   OH213238   7.461   3.301   3.957
 4432TIP3    H113239   7.379   3.285   4.005
 4432TIP3    H213240   7.434   3.310   3.866
 4433TIP3   OH213241   6.136   4.236   2.825
 4433TIP3    H113242   6.196   4.203   2.758
 4433TIP3    H213243   6.192   4.256   2.900
 4434TIP3   OH213244   7.424   3.540   6.086
 4434TIP3    H113245   7.422   3.446   6.104
 4434TIP3    H213246   7.334   3.569   6.101
 4435TIP3   OH213247   3.396   1.246   3.523
 4435TIP3    H113248   3.432   1.216   3.606
 4435TIP3    H213249   3.468   1.296   3.482
 4436TIP3   OH213250   1.003   2.283   0.855
 4436TIP3    H113251   0.961   2.205   0.890
 4436TIP3    H213252   0.934   2.350   0.855
 4437TIP3   OH213253   7.939   4.497   6.004
 4437TIP3    H113254   7.963   4.421   6.056
 4437TIP3    H213255   7.851   4.476   5.971
 4438TIP3   OH213256   0.233   0.086   5.830
 4438TIP3    H113257   0.159   0.143   5.809
 4438TIP3    H213258   0.308   0.145   5.835
 4439TIP3   OH213259   6.007   5.418   0.883
 4439TIP3    H113260   5.927   5.430   0.832
 4439TIP3    H213261   6.038   5.331   0.859
 4440TIP3   OH213262   6.975   6.952   6.546
 4440TIP3    H113263   6.973   7.025   6.483
 4440TIP3    H213264   6.987   6.995   6.631
 4441TIP3   OH213265   4.031   2.846   4.658
 4441TIP3    H113266   4.110   2.899   4.669
 4441TIP3    H213267   4.007   2.820   4.747
 4442TIP3   OH213268   8.172   2.750   2.329
 4442TIP3    H113269   8.087   2.764   2.369
 4442TIP3    H213270   8.154   2.700   2.249
 4443TIP3   OH213271   5.051   3.538   2.686
 4443TIP3    H113272   5.076   3.448   2.705
 4443TIP3    H213273   5.012   3.535   2.599
 4444TIP3   OH213274   2.415   1.893   2.507
 4444TIP3    H113275   2.455   1.809   2.485
 4444TIP3    H213276   2.337   1.871   2.558
 4445TIP3   OH213277   2.090   4.780   1.845
 4445TIP3    H113278   2.085   4.705   1.904
 4445TIP3    H213279   2.077   4.742   1.758
 4446TIP3   OH213280   5.312   1.615   4.606
 4446TIP3    H113281   5.228   1.657   4.584
 4446TIP3    H213282   5.318   1.541   4.546
 4447TIP3   OH213283   4.532   5.345   0.556
 4447TIP3    H113284   4.586   5.408   0.603
 4447TIP3    H213285   4.521   5.383   0.468
 4448TIP3   OH213286   4.001   4.759   6.616
 4448TIP3    H113287   4.028   4.839   6.661
 4448TIP3    H213288   3.951   4.710   6.682
 4449TIP3   OH213289   1.592   0.762   5.698
 4449TIP3    H113290   1.620   0.842   5.741
 4449TIP3    H213291   1.658   0.697   5.722
 4450TIP3   OH213292   4.921   7.215   6.439
 4450TIP3    H113293   4.975   7.264   6.377
 4450TIP3    H213294   4.983   7.159   6.485
 4451TIP3   OH213295   6.506   4.348   2.664
 4451TIP3    H113296   6.511   4.435   2.704
 4451TIP3    H213297   6.583   4.302   2.698
 4452TIP3   OH213298   3.484   6.803   0.235
 4452TIP3    H113299   3.538   6.862   0.288
 4452TIP3    H213300   3.543   6.772   0.167
 4453TIP3   OH213301   0.308   5.619   5.371
 4453TIP3    H113302   0.309   5.544   5.430
 4453TIP3    H213303   0.319   5.695   5.429
 4454TIP3   OH213304   1.792   6.596   0.173
 4454TIP3    H113305   1.755   6.532   0.112
 4454TIP3    H213306   1.797   6.677   0.123
 4455TIP3   OH213307   7.161   2.135   5.809
 4455TIP3    H113308   7.075   2.092   5.811
 4455TIP3    H213309   7.170   2.175   5.895
 4456TIP3   OH213310   3.222   5.252   3.659
 4456TIP3    H113311   3.225   5.182   3.723
 4456TIP3    H213312   3.161   5.316   3.695
 4457TIP3   OH213313   1.372   0.200   3.899
 4457TIP3    H113314   1.347   0.124   3.951
 4457TIP3    H213315   1.295   0.221   3.847
 4458TIP3   OH213316   4.445   0.909   4.984
 4458TIP3    H113317   4.526   0.860   4.972
 4458TIP3    H213318   4.406   0.913   4.896
 4459TIP3   OH213319   7.316   5.428   5.971
 4459TIP3    H113320   7.263   5.378   5.909
 4459TIP3    H213321   7.406   5.419   5.939
 4460TIP3   OH213322   1.560   1.346   1.312
 4460TIP3    H113323   1.618   1.422   1.317
 4460TIP3    H213324   1.537   1.327   1.403
 4461TIP3   OH213325   5.099   3.541   0.605
 4461TIP3    H113326   5.183   3.551   0.560
 4461TIP3    H213327   5.071   3.452   0.584
 4462TIP3   OH213328   3.910   3.003   2.699
 4462TIP3    H113329   3.865   3.046   2.626
 4462TIP3    H213330   3.840   2.965   2.752
 4463TIP3   OH213331   5.019   6.807   0.241
 4463TIP3    H113332   5.112   6.787   0.251
 4463TIP3    H213333   4.988   6.743   0.176
 4464TIP3   OH213334   8.004   5.263   3.655
 4464TIP3    H113335   7.946   5.339   3.653
 4464TIP3    H213336   8.024   5.251   3.748
 4465TIP3   OH213337   1.288   4.164   2.538
 4465TIP3    H113338   1.379   4.161   2.569
 4465TIP3    H213339   1.296   4.154   2.443
 4466TIP3   OH213340   6.821   4.690   6.346
 4466TIP3    H113341   6.855   4.649   6.426
 4466TIP3    H213342   6.815   4.783   6.369
 4467TIP3   OH213343   6.426   7.307   3.843
 4467TIP3    H113344   6.374   7.334   3.918
 4467TIP3    H213345   6.362   7.294   3.773
 4468TIP3   OH213346   3.677   6.627   4.494
 4468TIP3    H113347   3.612   6.678   4.544
 4468TIP3    H213348   3.750   6.616   4.554
 4469TIP3   OH213349   1.915   2.701   2.596
 4469TIP3    H113350   1.870   2.693   2.680
 4469TIP3    H213351   1.928   2.611   2.567
 4470TIP3   OH213352   1.519   6.900   1.573
 4470TIP3    H113353   1.553   6.811   1.577
 4470TIP3    H213354   1.459   6.907   1.648
 4471TIP3   OH213355   7.836   7.710   4.506
 4471TIP3    H113356   7.893   7.689   4.581
 4471TIP3    H213357   7.834   7.806   4.504
 4472TIP3   OH213358   0.651   2.086   2.824
 4472TIP3    H113359   0.684   2.156   2.880
 4472TIP3    H213360   0.652   2.124   2.736
 4473TIP3   OH213361   2.773   7.324   5.506
 4473TIP3    H113362   2.705   7.366   5.454
 4473TIP3    H213363   2.754   7.350   5.596
 4474TIP3   OH213364   4.619   1.150   4.137
 4474TIP3    H113365   4.678   1.218   4.103
 4474TIP3    H213366   4.556   1.198   4.190
 4475TIP3   OH213367   6.997   4.060   2.471
 4475TIP3    H113368   6.965   3.975   2.502
 4475TIP3    H213369   6.943   4.124   2.517
 4476TIP3   OH213370   0.438   1.264   2.568
 4476TIP3    H113371   0.398   1.351   2.575
 4476TIP3    H213372   0.481   1.264   2.483
 4477TIP3   OH213373   1.835   2.111   3.534
 4477TIP3    H113374   1.869   2.101   3.445
 4477TIP3    H213375   1.821   2.205   3.544
 4478TIP3   OH213376   0.959   7.563   1.460
 4478TIP3    H113377   1.049   7.565   1.427
 4478TIP3    H213378   0.912   7.627   1.408
 4479TIP3   OH213379   2.021   7.323   5.488
 4479TIP3    H113380   1.979   7.316   5.402
 4479TIP3    H213381   2.010   7.414   5.514
 4480TIP3   OH213382   7.191   3.430   0.459
 4480TIP3    H113383   7.231   3.407   0.375
 4480TIP3    H213384   7.184   3.347   0.506
 4481TIP3   OH213385   5.723   4.198   0.689
 4481TIP3    H113386   5.704   4.249   0.769
 4481TIP3    H213387   5.719   4.107   0.718
 4482TIP3   OH213388   2.843   4.670   2.601
 4482TIP3    H113389   2.798   4.616   2.666
 4482TIP3    H213390   2.773   4.706   2.547
 4483TIP3   OH213391   2.548   4.253   1.184
 4483TIP3    H113392   2.617   4.228   1.122
 4483TIP3    H213393   2.490   4.310   1.134
 4484TIP3   OH213394   6.549   7.296   2.560
 4484TIP3    H113395   6.556   7.353   2.483
 4484TIP3    H213396   6.633   7.305   2.604
 4485TIP3   OH213397   2.040   7.632   1.054
 4485TIP3    H113398   2.039   7.665   1.144
 4485TIP3    H213399   1.968   7.678   1.011
 4486TIP3   OH213400   7.478   1.261   4.861
 4486TIP3    H113401   7.477   1.208   4.941
 4486TIP3    H213402   7.557   1.314   4.868
 4487TIP3   OH213403   3.850   6.048   0.929
 4487TIP3    H113404   3.928   6.102   0.916
 4487TIP3    H213405   3.788   6.080   0.862
 4488TIP3   OH213406   4.360   6.976   0.967
 4488TIP3    H113407   4.396   7.030   1.037
 4488TIP3    H213408   4.396   6.889   0.983
 4489TIP3   OH213409   8.217   5.546   1.826
 4489TIP3    H113410   8.179   5.632   1.846
 4489TIP3    H213411   8.252   5.556   1.737
 4490TIP3   OH213412   0.050   5.625   4.428
 4490TIP3    H113413   0.028   5.709   4.467
 4490TIP3    H213414   0.034   5.637   4.334
 4491TIP3   OH213415   6.702   1.350   5.346
 4491TIP3    H113416   6.778   1.395   5.381
 4491TIP3    H213417   6.671   1.295   5.418
 4492TIP3   OH213418   0.184   1.013   5.686
 4492TIP3    H113419   0.263   1.025   5.634
 4492TIP3    H213420   0.125   0.965   5.629
 4493TIP3   OH213421   1.742   6.345   0.092
 4493TIP3    H113422   1.793   6.328   0.013
 4493TIP3    H213423   1.699   6.261   0.111
 4494TIP3   OH213424   3.630   6.449   3.638
 4494TIP3    H113425   3.692   6.490   3.578
 4494TIP3    H213426   3.643   6.495   3.721
 4495TIP3   OH213427   2.861   5.771   3.763
 4495TIP3    H113428   2.956   5.770   3.765
 4495TIP3    H213429   2.836   5.712   3.835
 4496TIP3   OH213430   7.861   6.823   4.251
 4496TIP3    H113431   7.949   6.823   4.213
 4496TIP3    H213432   7.823   6.740   4.224
 4497TIP3   OH213433   7.864   2.994   6.676
 4497TIP3    H113434   7.813   2.913   6.678
 4497TIP3    H213435   7.885   3.007   6.584
 4498TIP3   OH213436   1.287   1.609   3.529
 4498TIP3    H113437   1.217   1.674   3.521
 4498TIP3    H213438   1.355   1.640   3.469
 4499TIP3   OH213439   0.405   2.430   5.847
 4499TIP3    H113440   0.476   2.435   5.911
 4499TIP3    H213441   0.351   2.507   5.865
 4500TIP3   OH213442   7.223   5.223   0.867
 4500TIP3    H113443   7.194   5.258   0.783
 4500TIP3    H213444   7.206   5.293   0.930
 4501TIP3   OH213445   1.098   4.510   6.044
 4501TIP3    H113446   1.020   4.463   6.072
 4501TIP3    H213447   1.120   4.473   5.959
 4502TIP3   OH213448   5.065   4.747   5.660
 4502TIP3    H113449   5.013   4.827   5.661
 4502TIP3    H213450   5.036   4.698   5.737
 4503TIP3   OH213451   3.087   6.930   3.818
 4503TIP3    H113452   3.108   7.016   3.854
 4503TIP3    H213453   3.166   6.903   3.770
 4504TIP3   OH213454   7.694   2.788   3.708
 4504TIP3    H113455   7.638   2.858   3.676
 4504TIP3    H213456   7.777   2.801   3.662
 4505TIP3   OH213457   6.057   7.592   4.769
 4505TIP3    H113458   6.059   7.497   4.779
 4505TIP3    H213459   5.989   7.621   4.830
 4506TIP3   OH213460   7.986   5.226   4.710
 4506TIP3    H113461   8.052   5.290   4.737
 4506TIP3    H213462   8.014   5.144   4.752
 4507TIP3   OH213463   0.019   2.988   5.604
 4507TIP3    H113464   0.107   2.951   5.604
 4507TIP3    H213465  -0.037   2.918   5.570
 4508TIP3   OH213466   5.019   5.007   5.589
 4508TIP3    H113467   4.986   5.076   5.647
 4508TIP3    H213468   4.957   5.006   5.516
 4509TIP3   OH213469   6.806   3.876   5.147
 4509TIP3    H113470   6.746   3.939   5.186
 4509TIP3    H213471   6.759   3.793   5.149
 4510TIP3   OH213472   6.837   2.355   4.229
 4510TIP3    H113473   6.913   2.299   4.245
 4510TIP3    H213474   6.859   2.404   4.150
 4511TIP3   OH213475   0.575   0.545   1.912
 4511TIP3    H113476   0.555   0.486   1.839
 4511TIP3    H213477   0.496   0.545   1.966
 4512TIP3   OH213478   0.921   3.558   1.298
 4512TIP3    H113479   1.003   3.512   1.284
 4512TIP3    H213480   0.908   3.610   1.219
 4513TIP3   OH213481   7.145   5.099   2.663
 4513TIP3    H113482   7.199   5.020   2.662
 4513TIP3    H213483   7.055   5.067   2.659
 4514TIP3   OH213484   0.863   2.292   3.567
 4514TIP3    H113485   0.865   2.367   3.507
 4514TIP3    H213486   0.934   2.235   3.537
 4515TIP3   OH213487   5.727   5.710   0.924
 4515TIP3    H113488   5.691   5.622   0.923
 4515TIP3    H213489   5.748   5.730   0.833
 4516TIP3   OH213490   5.158   0.703   5.593
 4516TIP3    H113491   5.202   0.620   5.610
 4516TIP3    H213492   5.079   0.700   5.646
 4517TIP3   OH213493   6.214   7.441   5.606
 4517TIP3    H113494   6.189   7.518   5.658
 4517TIP3    H213495   6.132   7.403   5.578
 4518TIP3   OH213496   2.267   3.766   1.588
 4518TIP3    H113497   2.265   3.716   1.670
 4518TIP3    H213498   2.175   3.786   1.570
 4519TIP3   OH213499   0.856   4.425   4.859
 4519TIP3    H113500   0.809   4.391   4.935
 4519TIP3    H213501   0.788   4.440   4.794
 4520TIP3   OH213502   5.919   3.360   3.791
 4520TIP3    H113503   5.887   3.449   3.779
 4520TIP3    H213504   6.011   3.364   3.767
 4521TIP3   OH213505   3.339   4.421   0.437
 4521TIP3    H113506   3.276   4.352   0.421
 4521TIP3    H213507   3.417   4.376   0.469
 4522TIP3   OH213508   7.001   7.770   4.584
 4522TIP3    H113509   6.957   7.744   4.666
 4522TIP3    H213510   6.951   7.845   4.553
 4523TIP3   OH213511   6.858   2.718   0.947
 4523TIP3    H113512   6.821   2.712   1.035
 4523TIP3    H213513   6.821   2.644   0.899
 4524TIP3   OH213514   0.863   6.019   2.339
 4524TIP3    H113515   0.845   5.974   2.257
 4524TIP3    H213516   0.959   6.029   2.339
 4525TIP3   OH213517   5.014   2.011   4.669
 4525TIP3    H113518   4.943   2.075   4.684
 4525TIP3    H213519   5.057   2.042   4.589
 4526TIP3   OH213520   2.048   6.446   1.590
 4526TIP3    H113521   2.052   6.530   1.636
 4526TIP3    H213522   2.114   6.454   1.520
 4527TIP3   OH213523   0.626   6.947   1.079
 4527TIP3    H113524   0.698   7.007   1.098
 4527TIP3    H213525   0.669   6.868   1.047
 4528TIP3   OH213526   5.880   0.485   3.596
 4528TIP3    H113527   5.829   0.423   3.544
 4528TIP3    H213528   5.836   0.485   3.682
 4529TIP3   OH213529   8.030   5.558   3.177
 4529TIP3    H113530   7.948   5.509   3.177
 4529TIP3    H213531   8.069   5.540   3.092
 4530TIP3   OH213532   7.231   5.406   2.397
 4530TIP3    H113533   7.136   5.408   2.384
 4530TIP3    H213534   7.242   5.385   2.490
 4531TIP3   OH213535   4.071   6.470   2.506
 4531TIP3    H113536   4.076   6.401   2.572
 4531TIP3    H213537   3.980   6.470   2.477
 4532TIP3   OH213538   7.780   5.959   1.475
 4532TIP3    H113539   7.813   5.877   1.512
 4532TIP3    H213540   7.810   5.958   1.384
 4533TIP3   OH213541   7.817   0.253   4.621
 4533TIP3    H113542   7.903   0.294   4.620
 4533TIP3    H213543   7.830   0.166   4.585
 4534TIP3   OH213544   3.028   0.080   0.112
 4534TIP3    H113545   3.122   0.098   0.102
 4534TIP3    H213546   3.004   0.034   0.032
 4535TIP3   OH213547   4.176   6.645   2.258
 4535TIP3    H113548   4.134   6.636   2.343
 4535TIP3    H213549   4.244   6.578   2.257
 4536TIP3   OH213550   1.135   0.606   3.685
 4536TIP3    H113551   1.078   0.675   3.717
 4536TIP3    H213552   1.206   0.652   3.640
 4537TIP3   OH213553   7.124   7.504   3.153
 4537TIP3    H113554   7.177   7.524   3.229
 4537TIP3    H213555   7.078   7.587   3.134
 4538TIP3   OH213556   4.774   6.308   0.203
 4538TIP3    H113557   4.736   6.391   0.176
 4538TIP3    H213558   4.754   6.247   0.132
 4539TIP3   OH213559   5.705   4.840   5.490
 4539TIP3    H113560   5.675   4.835   5.399
 4539TIP3    H213561   5.797   4.814   5.486
 4540TIP3   OH213562   4.200   5.067   2.273
 4540TIP3    H113563   4.191   5.013   2.352
 4540TIP3    H213564   4.117   5.114   2.267
 4541TIP3   OH213565   5.478   3.054   0.414
 4541TIP3    H113566   5.528   3.106   0.478
 4541TIP3    H213567   5.525   3.067   0.332
 4542TIP3   OH213568   1.882   1.339   1.621
 4542TIP3    H113569   1.800   1.360   1.667
 4542TIP3    H213570   1.940   1.305   1.689
 4543TIP3   OH213571   0.044   6.759   4.322
 4543TIP3    H113572  -0.008   6.740   4.400
 4543TIP3    H213573   0.013   6.845   4.293
 4544TIP3   OH213574   5.608   1.996   6.702
 4544TIP3    H113575   5.566   2.039   6.776
 4544TIP3    H213576   5.535   1.973   6.643
 4545TIP3   OH213577   2.687   4.376   3.800
 4545TIP3    H113578   2.670   4.470   3.803
 4545TIP3    H213579   2.645   4.342   3.878
 4546TIP3   OH213580   7.372   7.078   4.383
 4546TIP3    H113581   7.288   7.122   4.368
 4546TIP3    H213582   7.392   7.035   4.300
 4547TIP3   OH213583   4.356   4.752   1.777
 4547TIP3    H113584   4.389   4.739   1.688
 4547TIP3    H213585   4.288   4.818   1.767
 4548TIP3   OH213586   3.241   4.075   3.242
 4548TIP3    H113587   3.300   4.149   3.231
 4548TIP3    H213588   3.289   4.000   3.207
 4549TIP3   OH213589   4.026   5.831   3.678
 4549TIP3    H113590   4.034   5.741   3.644
 4549TIP3    H213591   4.117   5.859   3.693
 4550TIP3   OH213592   3.631   3.808   1.834
 4550TIP3    H113593   3.546   3.764   1.839
 4550TIP3    H213594   3.610   3.899   1.812
 4551TIP3   OH213595   3.248   3.426   0.072
 4551TIP3    H113596   3.199   3.359   0.120
 4551TIP3    H213597   3.264   3.494   0.137
 4552TIP3   OH213598   5.467   3.940   4.880
 4552TIP3    H113599   5.409   3.941   4.956
 4552TIP3    H213600   5.554   3.922   4.917
 4553TIP3   OH213601   7.716   4.545   2.057
 4553TIP3    H113602   7.670   4.587   1.984
 4553TIP3    H213603   7.667   4.464   2.073
 4554TIP3   OH213604   3.687   4.769   5.910
 4554TIP3    H113605   3.727   4.855   5.916
 4554TIP3    H213606   3.628   4.764   5.985
 4555TIP3   OH213607   7.812   3.210   3.856
 4555TIP3    H113608   7.769   3.264   3.922
 4555TIP3    H213609   7.855   3.273   3.798
 4556TIP3   OH213610   6.360   4.005   3.058
 4556TIP3    H113611   6.412   3.984   3.136
 4556TIP3    H213612   6.337   4.097   3.070
 4557TIP3   OH213613   2.840   3.519   2.877
 4557TIP3    H113614   2.778   3.466   2.827
 4557TIP3    H213615   2.788   3.594   2.907
 4558TIP3   OH213616   3.930   5.324   4.350
 4558TIP3    H113617   3.923   5.418   4.363
 4558TIP3    H213618   4.013   5.300   4.392
 4559TIP3   OH213619   0.483   3.378   2.365
 4559TIP3    H113620   0.394   3.348   2.380
 4559TIP3    H213621   0.526   3.304   2.320
 4560TIP3   OH213622   0.130   1.630   4.963
 4560TIP3    H113623   0.096   1.556   4.913
 4560TIP3    H213624   0.052   1.673   4.998
 4561TIP3   OH213625   3.542   1.489   4.465
 4561TIP3    H113626   3.504   1.548   4.399
 4561TIP3    H213627   3.596   1.546   4.519
 4562TIP3   OH213628   7.878   6.708   4.786
 4562TIP3    H113629   7.917   6.642   4.728
 4562TIP3    H213630   7.818   6.756   4.729
 4563TIP3   OH213631   0.197   3.774   5.575
 4563TIP3    H113632   0.134   3.712   5.538
 4563TIP3    H213633   0.235   3.817   5.499
 4564TIP3   OH213634   2.635   1.217   4.554
 4564TIP3    H113635   2.674   1.174   4.630
 4564TIP3    H213636   2.689   1.188   4.480
 4565TIP3   OH213637   5.886   4.353   2.452
 4565TIP3    H113638   5.853   4.264   2.441
 4565TIP3    H213639   5.886   4.367   2.547
 4566TIP3   OH213640   5.037   3.567   2.055
 4566TIP3    H113641   5.010   3.499   1.993
 4566TIP3    H213642   4.967   3.570   2.120
 4567TIP3   OH213643   1.604   2.443   3.267
 4567TIP3    H113644   1.689   2.457   3.308
 4567TIP3    H213645   1.556   2.391   3.331
 4568TIP3   OH213646   3.622   4.553   0.586
 4568TIP3    H113647   3.662   4.596   0.511
 4568TIP3    H213648   3.558   4.617   0.619
 4569TIP3   OH213649   4.275   1.066   1.546
 4569TIP3    H113650   4.207   1.024   1.599
 4569TIP3    H213651   4.357   1.025   1.575
 4570TIP3   OH213652   4.501   2.271   4.098
 4570TIP3    H113653   4.428   2.241   4.044
 4570TIP3    H213654   4.578   2.262   4.042
 4571TIP3   OH213655   3.085   1.575   3.003
 4571TIP3    H113656   2.990   1.590   2.999
 4571TIP3    H213657   3.109   1.597   3.094
 4572TIP3   OH213658   1.965   5.463   3.584
 4572TIP3    H113659   1.963   5.368   3.568
 4572TIP3    H213660   1.934   5.501   3.502
 4573TIP3   OH213661   5.209   2.221   3.918
 4573TIP3    H113662   5.117   2.195   3.914
 4573TIP3    H213663   5.247   2.186   3.837
 4574TIP3   OH213664   4.811   6.260   0.458
 4574TIP3    H113665   4.859   6.340   0.479
 4574TIP3    H213666   4.795   6.265   0.364
 4575TIP3   OH213667   0.057   5.731   3.323
 4575TIP3    H113668   0.131   5.673   3.308
 4575TIP3    H213669   0.029   5.757   3.236
 4576TIP3   OH213670   4.173   1.781   3.580
 4576TIP3    H113671   4.156   1.867   3.619
 4576TIP3    H213672   4.151   1.718   3.648
 4577TIP3   OH213673   1.443   3.677   6.445
 4577TIP3    H113674   1.407   3.622   6.514
 4577TIP3    H213675   1.391   3.758   6.450
 4578TIP3   OH213676   1.172   2.911   4.561
 4578TIP3    H113677   1.237   2.980   4.574
 4578TIP3    H213678   1.217   2.845   4.508
 4579TIP3   OH213679   6.606   3.008   0.511
 4579TIP3    H113680   6.598   3.098   0.543
 4579TIP3    H213681   6.516   2.978   0.500
 4580TIP3   OH213682   7.021   6.839   1.199
 4580TIP3    H113683   6.991   6.904   1.263
 4580TIP3    H213684   6.973   6.760   1.220
 4581TIP3   OH213685   1.408   6.732   3.179
 4581TIP3    H113686   1.480   6.731   3.242
 4581TIP3    H213687   1.345   6.795   3.215
 4582TIP3   OH213688   6.615   6.401   4.160
 4582TIP3    H113689   6.572   6.412   4.075
 4582TIP3    H213690   6.708   6.413   4.142
 4583TIP3   OH213691   6.116   1.951   0.791
 4583TIP3    H113692   6.031   1.995   0.799
 4583TIP3    H213693   6.167   1.986   0.864
 4584TIP3   OH213694   7.715   0.269   2.810
 4584TIP3    H113695   7.769   0.227   2.743
 4584TIP3    H213696   7.729   0.363   2.797
 4585TIP3   OH213697   1.148   4.572   0.852
 4585TIP3    H113698   1.112   4.541   0.769
 4585TIP3    H213699   1.242   4.556   0.846
 4586TIP3   OH213700   5.655   3.036   0.190
 4586TIP3    H113701   5.695   2.949   0.191
 4586TIP3    H213702   5.621   3.046   0.101
 4587TIP3   OH213703   6.331   4.894   5.221
 4587TIP3    H113704   6.417   4.932   5.202
 4587TIP3    H213705   6.344   4.800   5.210
 4588TIP3   OH213706   3.929   0.745   0.719
 4588TIP3    H113707   3.981   0.816   0.681
 4588TIP3    H213708   3.968   0.731   0.806
 4589TIP3   OH213709   6.323   7.764   4.576
 4589TIP3    H113710   6.347   7.696   4.513
 4589TIP3    H213711   6.342   7.726   4.661
 4590TIP3   OH213712   6.405   1.366   3.615
 4590TIP3    H113713   6.371   1.433   3.675
 4590TIP3    H213714   6.382   1.283   3.656
 4591TIP3   OH213715   5.315   1.198   5.306
 4591TIP3    H113716   5.340   1.106   5.307
 4591TIP3    H213717   5.237   1.201   5.250
 4592TIP3   OH213718   6.993   0.738   6.729
 4592TIP3    H113719   6.948   0.760   6.811
 4592TIP3    H213720   6.965   0.648   6.710
 4593TIP3   OH213721   2.358   6.504   1.619
 4593TIP3    H113722   2.337   6.512   1.526
 4593TIP3    H213723   2.412   6.425   1.624
 4594TIP3   OH213724   4.092   7.108   0.885
 4594TIP3    H113725   4.075   7.175   0.952
 4594TIP3    H213726   4.113   7.029   0.935
 4595TIP3   OH213727   5.839   0.994   1.585
 4595TIP3    H113728   5.899   1.023   1.516
 4595TIP3    H213729   5.879   1.026   1.666
 4596TIP3   OH213730   4.400   1.786   4.856
 4596TIP3    H113731   4.331   1.848   4.879
 4596TIP3    H213732   4.376   1.705   4.900
 4597TIP3   OH213733   8.015   2.225   6.644
 4597TIP3    H113734   8.038   2.205   6.553
 4597TIP3    H213735   8.019   2.321   6.649
 4598TIP3   OH213736   0.706   5.306   2.606
 4598TIP3    H113737   0.761   5.304   2.527
 4598TIP3    H213738   0.644   5.377   2.591
 4599TIP3   OH213739   2.345   4.233   5.107
 4599TIP3    H113740   2.382   4.225   5.195
 4599TIP3    H213741   2.281   4.304   5.115
 4600TIP3   OH213742   2.316   4.935   5.087
 4600TIP3    H113743   2.384   5.002   5.096
 4600TIP3    H213744   2.281   4.924   5.175
 4601TIP3   OH213745   4.306   5.031   0.865
 4601TIP3    H113746   4.392   5.001   0.893
 4601TIP3    H213747   4.246   5.000   0.933
 4602TIP3   OH213748   3.675   7.015   3.735
 4602TIP3    H113749   3.586   7.040   3.758
 4602TIP3    H213750   3.674   7.005   3.640
 4603TIP3   OH213751   0.231   0.729   0.445
 4603TIP3    H113752   0.284   0.808   0.434
 4603TIP3    H213753   0.291   0.666   0.484
 4604TIP3   OH213754   0.324   5.688   0.384
 4604TIP3    H113755   0.359   5.674   0.472
 4604TIP3    H213756   0.229   5.681   0.394
 4605TIP3   OH213757   7.643   1.290   4.624
 4605TIP3    H113758   7.669   1.289   4.532
 4605TIP3    H213759   7.552   1.263   4.624
 4606TIP3   OH213760   6.273   4.173   1.733
 4606TIP3    H113761   6.242   4.260   1.709
 4606TIP3    H213762   6.207   4.139   1.793
 4607TIP3   OH213763   3.961   0.400   6.293
 4607TIP3    H113764   3.897   0.359   6.234
 4607TIP3    H213765   3.910   0.466   6.341
 4608TIP3   OH213766   5.719   2.655   3.576
 4608TIP3    H113767   5.641   2.660   3.631
 4608TIP3    H213768   5.729   2.743   3.540
 4609TIP3   OH213769   3.123   2.084   2.971
 4609TIP3    H113770   3.177   2.022   3.020
 4609TIP3    H213771   3.039   2.085   3.018
 4610TIP3   OH213772   7.505   4.094   6.284
 4610TIP3    H113773   7.546   4.157   6.224
 4610TIP3    H213774   7.557   4.014   6.274
 4611TIP3   OH213775   4.705   6.415   3.610
 4611TIP3    H113776   4.754   6.345   3.567
 4611TIP3    H213777   4.691   6.384   3.699
 4612TIP3   OH213778   5.439   0.047   0.013
 4612TIP3    H113779   5.455   0.142   0.019
 4612TIP3    H213780   5.525   0.010  -0.003
 4613TIP3   OH213781   4.437   2.915   2.422
 4613TIP3    H113782   4.390   2.844   2.466
 4613TIP3    H213783   4.367   2.967   2.381
 4614TIP3   OH213784   7.037   3.189   5.812
 4614TIP3    H113785   6.981   3.253   5.768
 4614TIP3    H213786   7.088   3.240   5.875
 4615TIP3   OH213787   0.384   0.750   5.377
 4615TIP3    H113788   0.407   0.827   5.429
 4615TIP3    H213789   0.394   0.778   5.286
 4616TIP3   OH213790   2.605   4.310   2.756
 4616TIP3    H113791   2.678   4.248   2.764
 4616TIP3    H213792   2.644   4.395   2.777
 4617TIP3   OH213793   0.764   0.522   3.730
 4617TIP3    H113794   0.718   0.604   3.712
 4617TIP3    H213795   0.766   0.476   3.646
 4618TIP3   OH213796   8.041   4.463   6.758
 4618TIP3    H113797   8.083   4.527   6.701
 4618TIP3    H213798   8.080   4.479   6.844
 4619TIP3   OH213799   0.861   4.409   4.447
 4619TIP3    H113800   0.804   4.472   4.492
 4619TIP3    H213801   0.807   4.374   4.376
 4620TIP3   OH213802   3.791   3.304   4.800
 4620TIP3    H113803   3.766   3.329   4.711
 4620TIP3    H213804   3.810   3.387   4.844
 4621TIP3   OH213805   7.458   3.798   2.237
 4621TIP3    H113806   7.378   3.748   2.225
 4621TIP3    H213807   7.439   3.884   2.199
 4622TIP3   OH213808   0.095   4.253   5.492
 4622TIP3    H113809   0.134   4.285   5.573
 4622TIP3    H213810   0.006   4.288   5.493
 4623TIP3   OH213811   2.526   5.478   2.664
 4623TIP3    H113812   2.479   5.421   2.603
 4623TIP3    H213813   2.588   5.526   2.609
 4624TIP3   OH213814   7.258   0.890   2.632
 4624TIP3    H113815   7.274   0.978   2.669
 4624TIP3    H213816   7.172   0.866   2.666
 4625TIP3   OH213817   3.954   5.817   2.535
 4625TIP3    H113818   3.882   5.870   2.501
 4625TIP3    H213819   3.912   5.739   2.572
 4626TIP3   OH213820   7.565   6.437   5.123
 4626TIP3    H113821   7.619   6.455   5.046
 4626TIP3    H213822   7.626   6.399   5.186
 4627TIP3   OH213823   7.307   6.926   3.776
 4627TIP3    H113824   7.314   6.832   3.760
 4627TIP3    H213825   7.397   6.957   3.773
 4628TIP3   OH213826   2.833   5.797   1.484
 4628TIP3    H113827   2.784   5.720   1.453
 4628TIP3    H213828   2.775   5.837   1.549
 4629TIP3   OH213829   3.648   1.228   6.155
 4629TIP3    H113830   3.616   1.299   6.212
 4629TIP3    H213831   3.603   1.244   6.071
 4630TIP3   OH213832   0.493   4.762   6.335
 4630TIP3    H113833   0.522   4.793   6.248
 4630TIP3    H213834   0.528   4.673   6.340
 4631TIP3   OH213835   7.735   2.957   1.132
 4631TIP3    H113836   7.722   2.959   1.038
 4631TIP3    H213837   7.688   2.879   1.162
 4632TIP3   OH213838   4.688   6.342   5.947
 4632TIP3    H113839   4.609   6.294   5.922
 4632TIP3    H213840   4.656   6.427   5.976
 4633TIP3   OH213841   5.882   5.864   3.768
 4633TIP3    H113842   5.787   5.876   3.766
 4633TIP3    H213843   5.901   5.838   3.858
 4634TIP3   OH213844   2.995   1.007   5.742
 4634TIP3    H113845   2.910   1.031   5.704
 4634TIP3    H213846   3.019   0.925   5.698
 4635TIP3   OH213847   1.888   3.046   4.426
 4635TIP3    H113848   1.892   3.103   4.503
 4635TIP3    H213849   1.979   3.021   4.410
 4636TIP3   OH213850   7.274   1.212   1.370
 4636TIP3    H113851   7.226   1.221   1.288
 4636TIP3    H213852   7.224   1.264   1.433
 4637TIP3   OH213853   1.981   7.192   6.147
 4637TIP3    H113854   1.984   7.288   6.151
 4637TIP3    H213855   1.940   7.172   6.064
 4638TIP3   OH213856   6.234   4.056   3.816
 4638TIP3    H113857   6.160   4.054   3.756
 4638TIP3    H213858   6.215   4.130   3.875
 4639TIP3   OH213859   1.910   7.577   1.604
 4639TIP3    H113860   1.921   7.534   1.689
 4639TIP3    H213861   1.968   7.653   1.608
 4640TIP3   OH213862   5.510   0.502   4.702
 4640TIP3    H113863   5.437   0.558   4.676
 4640TIP3    H213864   5.544   0.466   4.620
 4641TIP3   OH213865   4.631   0.133   2.702
 4641TIP3    H113866   4.579   0.112   2.780
 4641TIP3    H213867   4.716   0.093   2.719
 4642TIP3   OH213868   4.745   0.297   4.815
 4642TIP3    H113869   4.670   0.311   4.756
 4642TIP3    H213870   4.795   0.227   4.773
 4643TIP3   OH213871   5.103   5.272   3.033
 4643TIP3    H113872   5.182   5.265   2.978
 4643TIP3    H213873   5.112   5.355   3.078
 4644TIP3   OH213874   8.074   6.710   4.151
 4644TIP3    H113875   8.127   6.667   4.083
 4644TIP3    H213876   8.109   6.676   4.233
 4645TIP3   OH213877   1.724   2.058   4.265
 4645TIP3    H113878   1.722   2.152   4.248
 4645TIP3    H213879   1.648   2.042   4.321
 4646TIP3   OH213880   1.162   4.045   4.395
 4646TIP3    H113881   1.133   4.079   4.480
 4646TIP3    H213882   1.228   4.108   4.366
 4647TIP3   OH213883   2.275   4.149   1.600
 4647TIP3    H113884   2.371   4.152   1.602
 4647TIP3    H213885   2.252   4.087   1.669
 4648TIP3   OH213886   5.967   4.694   1.612
 4648TIP3    H113887   5.978   4.608   1.572
 4648TIP3    H213888   5.933   4.749   1.542
 4649TIP3   OH213889   4.417   6.417   4.420
 4649TIP3    H113890   4.380   6.458   4.498
 4649TIP3    H213891   4.447   6.331   4.450
 4650TIP3   OH213892   5.436   1.265   2.392
 4650TIP3    H113893   5.474   1.180   2.370
 4650TIP3    H213894   5.481   1.292   2.472
 4651TIP3   OH213895   4.153   2.388   6.586
 4651TIP3    H113896   4.108   2.457   6.537
 4651TIP3    H213897   4.095   2.369   6.659
 4652TIP3   OH213898   5.941   6.650   6.305
 4652TIP3    H113899   5.978   6.570   6.268
 4652TIP3    H213900   5.871   6.674   6.244
 4653TIP3   OH213901   6.058   7.754   0.228
 4653TIP3    H113902   5.990   7.762   0.161
 4653TIP3    H213903   6.101   7.839   0.229
 4654TIP3   OH213904   3.263   5.498   0.725
 4654TIP3    H113905   3.331   5.500   0.793
 4654TIP3    H213906   3.266   5.586   0.686
 4655TIP3   OH213907   5.975   5.255   2.470
 4655TIP3    H113908   5.979   5.298   2.385
 4655TIP3    H213909   6.037   5.304   2.524
 4656TIP3   OH213910   6.083   7.727   2.263
 4656TIP3    H113911   6.037   7.736   2.347
 4656TIP3    H213912   6.045   7.794   2.207
 4657TIP3   OH213913   0.702   2.798   3.794
 4657TIP3    H113914   0.694   2.704   3.810
 4657TIP3    H213915   0.687   2.807   3.700
 4658TIP3   OH213916   4.663   7.725   0.252
 4658TIP3    H113917   4.669   7.736   0.347
 4658TIP3    H213918   4.594   7.786   0.226
 4659TIP3   OH213919   5.269   7.304   4.121
 4659TIP3    H113920   5.313   7.227   4.156
 4659TIP3    H213921   5.266   7.366   4.193
 4660TIP3   OH213922   1.827   7.760   4.374
 4660TIP3    H113923   1.778   7.833   4.411
 4660TIP3    H213924   1.812   7.688   4.436
 4661TIP3   OH213925   3.963   0.380   5.281
 4661TIP3    H113926   3.875   0.408   5.256
 4661TIP3    H213927   3.963   0.383   5.376
 4662TIP3   OH213928   6.275   6.069   2.685
 4662TIP3    H113929   6.332   6.143   2.702
 4662TIP3    H213930   6.309   5.999   2.741
 4663TIP3   OH213931   7.287   4.685   6.305
 4663TIP3    H113932   7.224   4.716   6.239
 4663TIP3    H213933   7.372   4.698   6.263
 4664TIP3   OH213934   0.266   6.797   3.814
 4664TIP3    H113935   0.308   6.712   3.824
 4664TIP3    H213936   0.330   6.860   3.847
 4665TIP3   OH213937   6.975   1.451   6.374
 4665TIP3    H113938   6.994   1.540   6.402
 4665TIP3    H213939   6.882   1.438   6.392
 4666TIP3   OH213940   3.600   2.630   0.403
 4666TIP3    H113941   3.606   2.572   0.479
 4666TIP3    H213942   3.665   2.595   0.342
 4667TIP3   OH213943   4.892   3.846   6.024
 4667TIP3    H113944   4.896   3.935   6.060
 4667TIP3    H213945   4.892   3.858   5.929
 4668TIP3   OH213946   6.233   4.494   2.687
 4668TIP3    H113947   6.268   4.445   2.762
 4668TIP3    H213948   6.174   4.433   2.643
 4669TIP3   OH213949   7.753   6.363   1.437
 4669TIP3    H113950   7.768   6.436   1.497
 4669TIP3    H213951   7.692   6.306   1.484
 4670TIP3   OH213952   4.979   0.595   3.605
 4670TIP3    H113953   4.954   0.503   3.599
 4670TIP3    H213954   4.897   0.642   3.618
 4671TIP3   OH213955   7.632   1.575   0.683
 4671TIP3    H113956   7.720   1.586   0.718
 4671TIP3    H213957   7.597   1.664   0.679
 4672TIP3   OH213958   1.396   5.394   5.452
 4672TIP3    H113959   1.431   5.319   5.404
 4672TIP3    H213960   1.378   5.460   5.386
 4673TIP3   OH213961   0.057   2.903   4.846
 4673TIP3    H113962   0.127   2.931   4.905
 4673TIP3    H213963   0.090   2.823   4.806
 4674TIP3   OH213964   3.920   4.773   4.903
 4674TIP3    H113965   4.006   4.737   4.925
 4674TIP3    H213966   3.939   4.850   4.850
 4675TIP3   OH213967   7.714   7.439   6.485
 4675TIP3    H113968   7.705   7.472   6.396
 4675TIP3    H213969   7.733   7.516   6.538
 4676TIP3   OH213970   4.084   3.222   0.638
 4676TIP3    H113971   4.010   3.175   0.600
 4676TIP3    H213972   4.141   3.154   0.674
 4677TIP3   OH213973   2.487   3.430   0.566
 4677TIP3    H113974   2.442   3.386   0.639
 4677TIP3    H213975   2.429   3.503   0.543
 4678TIP3   OH213976   7.464   6.452   1.312
 4678TIP3    H113977   7.457   6.456   1.407
 4678TIP3    H213978   7.516   6.529   1.289
 4679TIP3   OH213979   0.379   1.936   1.579
 4679TIP3    H113980   0.460   1.924   1.629
 4679TIP3    H213981   0.400   2.003   1.515
 4680TIP3   OH213982   3.744   0.097   2.425
 4680TIP3    H113983   3.672   0.052   2.381
 4680TIP3    H213984   3.714   0.108   2.516
 4681TIP3   OH213985   2.472   3.905   1.468
 4681TIP3    H113986   2.405   3.917   1.401
 4681TIP3    H213987   2.432   3.846   1.532
 4682TIP3   OH213988   4.275   2.710   2.609
 4682TIP3    H113989   4.367   2.689   2.624
 4682TIP3    H213990   4.233   2.624   2.597
 4683TIP3   OH213991   1.247   7.392   4.855
 4683TIP3    H113992   1.202   7.476   4.854
 4683TIP3    H213993   1.284   7.385   4.943
 4684TIP3   OH213994   2.797   4.926   4.749
 4684TIP3    H113995   2.711   4.964   4.769
 4684TIP3    H213996   2.796   4.840   4.792
 4685TIP3   OH213997   3.015   7.412   5.692
 4685TIP3    H113998   3.071   7.475   5.646
 4685TIP3    H213999   2.938   7.463   5.716
 4686TIP3   OH214000   0.149   6.203   0.112
 4686TIP3    H114001   0.116   6.196   0.022
 4686TIP3    H214002   0.072   6.218   0.165
 4687TIP3   OH214003   0.622   0.916   5.007
 4687TIP3    H114004   0.588   1.005   4.998
 4687TIP3    H214005   0.662   0.898   4.922
 4688TIP3   OH214006   7.646   3.897   1.786
 4688TIP3    H114007   7.724   3.953   1.783
 4688TIP3    H214008   7.661   3.839   1.861
 4689TIP3   OH214009   6.797   4.184   4.609
 4689TIP3    H114010   6.870   4.243   4.592
 4689TIP3    H214011   6.792   4.129   4.531
 4690TIP3   OH214012   1.654   0.204   0.369
 4690TIP3    H114013   1.694   0.266   0.309
 4690TIP3    H214014   1.712   0.128   0.367
 4691TIP3   OH214015   5.938   4.910   6.072
 4691TIP3    H114016   5.908   4.842   6.013
 4691TIP3    H214017   5.859   4.961   6.093
 4692TIP3   OH214018   1.470   2.292   2.446
 4692TIP3    H114019   1.550   2.243   2.467
 4692TIP3    H214020   1.502   2.379   2.421
 4693TIP3   OH214021   2.845   2.581   0.978
 4693TIP3    H114022   2.774   2.524   0.948
 4693TIP3    H214023   2.833   2.585   1.073
 4694TIP3   OH214024   4.662   2.785   4.758
 4694TIP3    H114025   4.606   2.736   4.696
 4694TIP3    H214026   4.689   2.863   4.709
 4695TIP3   OH214027   1.408   6.770   5.236
 4695TIP3    H114028   1.419   6.776   5.141
 4695TIP3    H214029   1.489   6.731   5.268
 4696TIP3   OH214030   4.073   2.022   1.840
 4696TIP3    H114031   4.150   1.999   1.787
 4696TIP3    H214032   4.034   2.097   1.794
 4697TIP3   OH214033   4.388   6.055   4.719
 4697TIP3    H114034   4.464   6.007   4.686
 4697TIP3    H214035   4.335   5.989   4.763
 4698TIP3   OH214036   1.788   6.461   1.661
 4698TIP3    H114037   1.879   6.489   1.656
 4698TIP3    H214038   1.782   6.387   1.600
 4699TIP3   OH214039   6.383   6.619   4.237
 4699TIP3    H114040   6.368   6.545   4.296
 4699TIP3    H214041   6.359   6.586   4.151
 4700TIP3   OH214042   3.108   6.395   1.567
 4700TIP3    H114043   3.141   6.425   1.482
 4700TIP3    H214044   3.109   6.300   1.560
 4701TIP3   OH214045   4.210   1.248   6.293
 4701TIP3    H114046   4.240   1.197   6.369
 4701TIP3    H214047   4.150   1.313   6.329
 4702TIP3   OH214048   3.650   7.230   5.273
 4702TIP3    H114049   3.654   7.242   5.178
 4702TIP3    H214050   3.562   7.194   5.289
 4703TIP3   OH214051   5.982   1.009   2.090
 4703TIP3    H114052   6.038   0.936   2.119
 4703TIP3    H214053   5.894   0.973   2.090
 4704TIP3   OH214054   7.964   6.599   3.806
 4704TIP3    H114055   8.017   6.583   3.885
 4704TIP3    H214056   7.965   6.516   3.759
 4705TIP3   OH214057   4.754   2.601   4.427
 4705TIP3    H114058   4.761   2.651   4.346
 4705TIP3    H214059   4.822   2.534   4.419
 4706TIP3   OH214060   7.031   2.622   4.083
 4706TIP3    H114061   7.052   2.552   4.021
 4706TIP3    H214062   7.034   2.579   4.169
 4707TIP3   OH214063   1.704   5.918   5.148
 4707TIP3    H114064   1.736   5.952   5.232
 4707TIP3    H214065   1.668   5.995   5.104
 4708TIP3   OH214066   0.992   7.748   6.289
 4708TIP3    H114067   1.021   7.776   6.375
 4708TIP3    H214068   0.946   7.823   6.253
 4709TIP3   OH214069   3.279   2.607   0.559
 4709TIP3    H114070   3.190   2.643   0.547
 4709TIP3    H214071   3.305   2.578   0.472
 4710TIP3   OH214072   2.351   1.311   5.523
 4710TIP3    H114073   2.308   1.356   5.596
 4710TIP3    H214074   2.305   1.227   5.516
 4711TIP3   OH214075   6.327   1.913   0.430
 4711TIP3    H114076   6.363   2.001   0.445
 4711TIP3    H214077   6.403   1.855   0.430
 4712TIP3   OH214078   3.660   5.934   2.986
 4712TIP3    H114079   3.740   5.903   3.028
 4712TIP3    H214080   3.598   5.948   3.058
 4713TIP3   OH214081   2.687   6.539   3.932
 4713TIP3    H114082   2.601   6.530   3.891
 4713TIP3    H214083   2.668   6.558   4.024
 4714TIP3   OH214084   2.603   5.963   3.182
 4714TIP3    H114085   2.536   5.902   3.154
 4714TIP3    H214086   2.578   5.987   3.272
 4715TIP3   OH214087   0.076   7.368   2.259
 4715TIP3    H114088   0.142   7.425   2.298
 4715TIP3    H214089  -0.001   7.424   2.247
 4716TIP3   OH214090   1.143   2.156   4.801
 4716TIP3    H114091   1.162   2.235   4.751
 4716TIP3    H214092   1.053   2.134   4.777
 4717TIP3   OH214093   0.172   7.160   6.123
 4717TIP3    H114094   0.225   7.114   6.188
 4717TIP3    H214095   0.096   7.103   6.108
 4718TIP3   OH214096   1.089   1.503   2.945
 4718TIP3    H114097   1.091   1.526   3.038
 4718TIP3    H214098   1.002   1.529   2.915
 4719TIP3   OH214099   6.953   3.821   4.777
 4719TIP3    H114100   6.876   3.830   4.834
 4719TIP3    H214101   7.028   3.829   4.836
 4720TIP3   OH214102   0.467   5.748   1.806
 4720TIP3    H114103   0.484   5.654   1.813
 4720TIP3    H214104   0.376   5.754   1.776
 4721TIP3   OH214105   1.991   1.785   5.074
 4721TIP3    H114106   1.919   1.741   5.027
 4721TIP3    H214107   1.952   1.867   5.105
 4722TIP3   OH214108   1.698   5.238   1.285
 4722TIP3    H114109   1.641   5.178   1.334
 4722TIP3    H214110   1.785   5.200   1.293
 4723TIP3   OH214111   6.588   3.407   5.868
 4723TIP3    H114112   6.631   3.345   5.927
 4723TIP3    H214113   6.495   3.389   5.878
 4724TIP3   OH214114   6.090   4.384   3.731
 4724TIP3    H114115   6.031   4.315   3.761
 4724TIP3    H214116   6.059   4.407   3.644
 4725TIP3   OH214117   3.826   6.345   1.093
 4725TIP3    H114118   3.844   6.251   1.092
 4725TIP3    H214119   3.867   6.378   1.013
 4726TIP3   OH214120   1.807   1.639   1.581
 4726TIP3    H114121   1.719   1.676   1.588
 4726TIP3    H214122   1.803   1.558   1.632
 4727TIP3   OH214123   1.330   0.691   0.192
 4727TIP3    H114124   1.245   0.707   0.232
 4727TIP3    H214125   1.367   0.778   0.178
 4728TIP3   OH214126   2.994   3.173   3.632
 4728TIP3    H114127   2.981   3.245   3.571
 4728TIP3    H214128   2.916   3.172   3.686
 4729TIP3   OH214129   5.067   5.763   2.706
 4729TIP3    H114130   4.980   5.804   2.710
 4729TIP3    H214131   5.073   5.730   2.616
 4730TIP3   OH214132   8.133   2.920   6.525
 4730TIP3    H114133   8.208   2.979   6.521
 4730TIP3    H214134   8.058   2.975   6.500
 4731TIP3   OH214135   4.071   5.285   1.493
 4731TIP3    H114136   4.148   5.337   1.514
 4731TIP3    H214137   4.009   5.304   1.563
 4732TIP3   OH214138   7.174   0.810   2.299
 4732TIP3    H114139   7.180   0.728   2.250
 4732TIP3    H214140   7.260   0.819   2.341
 4733TIP3   OH214141   3.451   2.340   2.651
 4733TIP3    H114142   3.471   2.277   2.582
 4733TIP3    H214143   3.360   2.321   2.675
 4734TIP3   OH214144   6.048   3.975   5.178
 4734TIP3    H114145   6.073   3.897   5.128
 4734TIP3    H214146   6.129   4.004   5.220
 4735TIP3   OH214147   2.944   2.064   1.895
 4735TIP3    H114148   2.958   2.156   1.918
 4735TIP3    H214149   3.032   2.031   1.876
 4736TIP3   OH214150   5.832   6.184   2.137
 4736TIP3    H114151   5.872   6.102   2.165
 4736TIP3    H214152   5.903   6.232   2.095
 4737TIP3   OH214153   1.202   4.592   2.164
 4737TIP3    H114154   1.250   4.675   2.173
 4737TIP3    H214155   1.266   4.532   2.125
 4738TIP3   OH214156   1.543   0.584   0.073
 4738TIP3    H114157   1.513   0.536  -0.004
 4738TIP3    H214158   1.463   0.621   0.110
 4739TIP3   OH214159   5.042   5.056   6.730
 4739TIP3    H114160   4.955   5.030   6.700
 4739TIP3    H214161   5.067   4.990   6.795
 4740TIP3   OH214162   7.856   0.012   1.368
 4740TIP3    H114163   7.887  -0.060   1.424
 4740TIP3    H214164   7.810   0.071   1.427
 4741TIP3   OH214165   1.288   3.578   5.501
 4741TIP3    H114166   1.373   3.623   5.504
 4741TIP3    H214167   1.250   3.605   5.417
 4742TIP3   OH214168   4.119   5.531   4.629
 4742TIP3    H114169   4.200   5.579   4.610
 4742TIP3    H214170   4.148   5.442   4.646
 4743TIP3   OH214171   7.551   4.125   5.108
 4743TIP3    H114172   7.613   4.082   5.050
 4743TIP3    H214173   7.606   4.170   5.172
 4744TIP3   OH214174   7.933   2.961   0.566
 4744TIP3    H114175   7.990   2.967   0.489
 4744TIP3    H214176   7.870   2.893   0.545
 4745TIP3   OH214177   7.324   1.527   4.316
 4745TIP3    H114178   7.250   1.572   4.274
 4745TIP3    H214179   7.295   1.513   4.406
 4746TIP3   OH214180   6.413   6.512   6.252
 4746TIP3    H114181   6.350   6.569   6.208
 4746TIP3    H214182   6.361   6.456   6.308
 4747TIP3   OH214183   2.122   6.488   4.417
 4747TIP3    H114184   2.163   6.413   4.461
 4747TIP3    H214185   2.044   6.506   4.469
 4748TIP3   OH214186   7.999   5.014   3.919
 4748TIP3    H114187   8.037   5.003   4.006
 4748TIP3    H214188   7.995   5.109   3.906
 4749TIP3   OH214189   0.365   7.315   1.801
 4749TIP3    H114190   0.368   7.384   1.735
 4749TIP3    H214191   0.409   7.241   1.760
 4750TIP3   OH214192   3.992   3.523   0.099
 4750TIP3    H114193   3.933   3.489   0.031
 4750TIP3    H214194   3.999   3.451   0.162
 4751TIP3   OH214195   4.704   2.817   6.814
 4751TIP3    H114196   4.636   2.885   6.812
 4751TIP3    H214197   4.760   2.837   6.739
 4752TIP3   OH214198   2.433   2.916   3.939
 4752TIP3    H114199   2.459   2.869   3.860
 4752TIP3    H214200   2.443   2.851   4.009
 4753TIP3   OH214201   7.438   0.725   3.292
 4753TIP3    H114202   7.412   0.650   3.238
 4753TIP3    H214203   7.505   0.690   3.351
 4754TIP3   OH214204   1.619   3.593   1.843
 4754TIP3    H114205   1.567   3.551   1.913
 4754TIP3    H214206   1.706   3.553   1.852
 4755TIP3   OH214207   2.031   4.720   2.778
 4755TIP3    H114208   2.056   4.783   2.845
 4755TIP3    H214209   1.984   4.652   2.826
 4756TIP3   OH214210   3.111   6.339   6.653
 4756TIP3    H114211   3.065   6.326   6.737
 4756TIP3    H214212   3.088   6.261   6.602
 4757TIP3   OH214213   4.907   7.169   1.837
 4757TIP3    H114214   4.860   7.141   1.916
 4757TIP3    H214215   4.994   7.193   1.868
 4758TIP3   OH214216   1.804   0.594   2.651
 4758TIP3    H114217   1.855   0.669   2.620
 4758TIP3    H214218   1.810   0.530   2.581
 4759TIP3   OH214219   7.065   2.341   2.214
 4759TIP3    H114220   7.110   2.257   2.208
 4759TIP3    H214221   7.124   2.403   2.169
 4760TIP3   OH214222   5.493   2.435   3.292
 4760TIP3    H114223   5.585   2.445   3.314
 4760TIP3    H214224   5.460   2.525   3.284
 4761TIP3   OH214225   0.777   4.684   4.274
 4761TIP3    H114226   0.817   4.645   4.195
 4761TIP3    H214227   0.845   4.677   4.341
 4762TIP3   OH214228   0.484   1.910   2.971
 4762TIP3    H114229   0.559   1.897   3.030
 4762TIP3    H214230   0.511   1.980   2.913
 4763TIP3   OH214231   3.879   6.693   1.289
 4763TIP3    H114232   3.921   6.613   1.258
 4763TIP3    H214233   3.942   6.731   1.350
 4764TIP3   OH214234   3.094   5.782   5.409
 4764TIP3    H114235   3.160   5.734   5.359
 4764TIP3    H214236   3.091   5.737   5.494
 4765TIP3   OH214237   7.786   4.825   2.426
 4765TIP3    H114238   7.700   4.868   2.420
 4765TIP3    H214239   7.802   4.792   2.338
 4766TIP3   OH214240   2.879   7.225   4.364
 4766TIP3    H114241   2.943   7.283   4.322
 4766TIP3    H214242   2.795   7.267   4.350
 4767TIP3   OH214243   1.512   0.642   0.456
 4767TIP3    H114244   1.474   0.728   0.437
 4767TIP3    H214245   1.556   0.617   0.375
 4768TIP3   OH214246   2.508   1.904   6.639
 4768TIP3    H114247   2.510   1.823   6.589
 4768TIP3    H214248   2.416   1.919   6.658
 4769TIP3   OH214249   6.186   4.043   0.035
 4769TIP3    H114250   6.199   4.009   0.124
 4769TIP3    H214251   6.114   4.107   0.045
 4770TIP3   OH214252   4.128   5.752   5.796
 4770TIP3    H114253   4.211   5.798   5.782
 4770TIP3    H214254   4.103   5.776   5.885
 4771TIP3   OH214255   5.506   5.566   0.752
 4771TIP3    H114256   5.491   5.660   0.753
 4771TIP3    H214257   5.450   5.533   0.682
 4772TIP3   OH214258   5.779   2.778   3.232
 4772TIP3    H114259   5.773   2.815   3.320
 4772TIP3    H214260   5.776   2.684   3.245
 4773TIP3   OH214261   6.503   2.981   6.403
 4773TIP3    H114262   6.577   3.009   6.348
 4773TIP3    H214263   6.491   2.889   6.379
 4774TIP3   OH214264   7.496   2.668   0.147
 4774TIP3    H114265   7.507   2.763   0.137
 4774TIP3    H214266   7.456   2.658   0.233
 4775TIP3   OH214267   3.101   6.884   0.571
 4775TIP3    H114268   3.070   6.948   0.507
 4775TIP3    H214269   3.171   6.837   0.525
 4776TIP3   OH214270   7.888   7.271   1.790
 4776TIP3    H114271   7.887   7.185   1.748
 4776TIP3    H214272   7.921   7.255   1.878
 4777TIP3   OH214273   2.354   3.182   1.074
 4777TIP3    H114274   2.438   3.221   1.098
 4777TIP3    H214275   2.370   3.087   1.075
 4778TIP3   OH214276   5.999   2.984   3.374
 4778TIP3    H114277   5.967   2.970   3.285
 4778TIP3    H214278   6.035   3.073   3.373
 4779TIP3   OH214279   0.803   4.156   5.654
 4779TIP3    H114280   0.882   4.165   5.708
 4779TIP3    H214281   0.820   4.077   5.601
 4780TIP3   OH214282   6.162   0.657   6.632
 4780TIP3    H114283   6.225   0.690   6.569
 4780TIP3    H214284   6.079   0.696   6.605
 4781TIP3   OH214285   6.590   5.225   5.420
 4781TIP3    H114286   6.585   5.320   5.423
 4781TIP3    H214287   6.508   5.195   5.458
 4782TIP3   OH214288   0.661   3.845   5.123
 4782TIP3    H114289   0.640   3.938   5.110
 4782TIP3    H214290   0.623   3.802   5.047
 4783TIP3   OH214291   6.047   1.215   3.177
 4783TIP3    H114292   6.091   1.175   3.252
 4783TIP3    H214293   6.110   1.209   3.105
 4784TIP3   OH214294   3.741   7.607   4.035
 4784TIP3    H114295   3.772   7.560   4.112
 4784TIP3    H214296   3.818   7.653   4.003
 4785TIP3   OH214297   3.655   3.031   2.136
 4785TIP3    H114298   3.723   3.073   2.189
 4785TIP3    H214299   3.602   3.104   2.103
 4786TIP3   OH214300   1.178   4.953   2.120
 4786TIP3    H114301   1.234   4.892   2.167
 4786TIP3    H214302   1.225   5.036   2.121
 4787TIP3   OH214303   2.108   5.862   1.537
 4787TIP3    H114304   2.084   5.770   1.551
 4787TIP3    H214305   2.180   5.859   1.473
 4788TIP3   OH214306   0.331   0.864   2.815
 4788TIP3    H114307   0.249   0.908   2.837
 4788TIP3    H214308   0.367   0.917   2.744
 4789TIP3   OH214309   2.400   5.381   2.065
 4789TIP3    H114310   2.381   5.328   1.987
 4789TIP3    H214311   2.316   5.421   2.087
 4790TIP3   OH214312   5.754   1.526   1.142
 4790TIP3    H114313   5.789   1.468   1.209
 4790TIP3    H214314   5.728   1.605   1.190
 4791TIP3   OH214315   4.274   2.945   5.321
 4791TIP3    H114316   4.311   2.859   5.300
 4791TIP3    H214317   4.284   2.953   5.415
 4792TIP3   OH214318   2.084   2.364   1.300
 4792TIP3    H114319   2.024   2.306   1.254
 4792TIP3    H214320   2.167   2.317   1.301
 4793TIP3   OH214321   0.794   3.635   5.840
 4793TIP3    H114322   0.816   3.633   5.933
 4793TIP3    H214323   0.716   3.580   5.833
 4794TIP3   OH214324   4.878   6.420   4.878
 4794TIP3    H114325   4.809   6.360   4.849
 4794TIP3    H214326   4.951   6.403   4.818
 4795TIP3   OH214327   1.351   6.432   2.973
 4795TIP3    H114328   1.282   6.389   3.023
 4795TIP3    H214329   1.319   6.521   2.958
 4796TIP3   OH214330   2.393   5.804   3.072
 4796TIP3    H114331   2.389   5.737   3.004
 4796TIP3    H214332   2.466   5.777   3.128
 4797TIP3   OH214333   0.023   4.824   1.809
 4797TIP3    H114334   0.046   4.883   1.737
 4797TIP3    H214335   0.108   4.799   1.846
 4798TIP3   OH214336   3.766   4.830   4.314
 4798TIP3    H114337   3.693   4.768   4.320
 4798TIP3    H214338   3.735   4.897   4.253
 4799TIP3   OH214339   3.668   1.501   2.678
 4799TIP3    H114340   3.700   1.472   2.763
 4799TIP3    H214341   3.687   1.595   2.675
 4800TIP3   OH214342   6.691   5.180   3.430
 4800TIP3    H114343   6.684   5.275   3.423
 4800TIP3    H214344   6.638   5.146   3.358
 4801TIP3   OH214345   6.442   2.233   5.189
 4801TIP3    H114346   6.380   2.305   5.178
 4801TIP3    H214347   6.392   2.154   5.166
 4802TIP3   OH214348   3.294   4.364   2.236
 4802TIP3    H114349   3.222   4.302   2.237
 4802TIP3    H214350   3.300   4.396   2.326
 4803TIP3   OH214351   6.847   6.612   1.216
 4803TIP3    H114352   6.871   6.585   1.128
 4803TIP3    H214353   6.844   6.531   1.267
 4804TIP3   OH214354   5.294   6.957   3.597
 4804TIP3    H114355   5.389   6.958   3.585
 4804TIP3    H214356   5.259   6.993   3.515
 4805TIP3   OH214357   4.796   2.792   2.541
 4805TIP3    H114358   4.781   2.874   2.587
 4805TIP3    H214359   4.814   2.818   2.451
 4806TIP3   OH214360   2.949   3.161   0.965
 4806TIP3    H114361   2.941   3.125   1.054
 4806TIP3    H214362   3.041   3.183   0.957
 4807TIP3   OH214363   3.697   6.872   3.490
 4807TIP3    H114364   3.781   6.886   3.446
 4807TIP3    H214365   3.634   6.864   3.418
 4808TIP3   OH214366   3.428   0.493   6.100
 4808TIP3    H114367   3.384   0.461   6.021
 4808TIP3    H214368   3.361   0.485   6.169
 4809TIP3   OH214369   1.245   1.995   1.166
 4809TIP3    H114370   1.268   1.988   1.258
 4809TIP3    H214371   1.306   1.936   1.121
 4810TIP3   OH214372   7.558   0.812   3.564
 4810TIP3    H114373   7.540   0.892   3.514
 4810TIP3    H214374   7.653   0.811   3.573
 4811TIP3   OH214375   3.452   3.837   3.437
 4811TIP3    H114376   3.527   3.788   3.471
 4811TIP3    H214377   3.462   3.925   3.474
 4812TIP3   OH214378   7.063   4.236   5.793
 4812TIP3    H114379   6.991   4.218   5.854
 4812TIP3    H214380   7.059   4.164   5.730
 4813TIP3   OH214381   7.403   3.006   5.757
 4813TIP3    H114382   7.307   3.003   5.763
 4813TIP3    H214383   7.419   3.064   5.682
 4814TIP3   OH214384   4.959   6.879   2.214
 4814TIP3    H114385   5.011   6.838   2.283
 4814TIP3    H214386   4.890   6.816   2.195
 4815TIP3   OH214387   2.186   1.608   4.036
 4815TIP3    H114388   2.270   1.565   4.053
 4815TIP3    H214389   2.123   1.557   4.088
 4816TIP3   OH214390   3.678   7.495   1.183
 4816TIP3    H114391   3.772   7.511   1.178
 4816TIP3    H214392   3.646   7.555   1.250
 4817TIP3   OH214393   0.478   6.540   0.502
 4817TIP3    H114394   0.521   6.613   0.548
 4817TIP3    H214395   0.504   6.462   0.551
 4818TIP3   OH214396   5.051   4.165   5.820
 4818TIP3    H114397   4.963   4.129   5.813
 4818TIP3    H214398   5.073   4.193   5.731
 4819TIP3   OH214399   3.549   7.684   5.391
 4819TIP3    H114400   3.637   7.723   5.396
 4819TIP3    H214401   3.562   7.592   5.411
 4820TIP3   OH214402   6.340   1.147   6.478
 4820TIP3    H114403   6.402   1.166   6.548
 4820TIP3    H214404   6.393   1.145   6.398
 4821TIP3   OH214405   7.061   5.753   5.134
 4821TIP3    H114406   7.129   5.779   5.071
 4821TIP3    H214407   6.980   5.755   5.083
 4822TIP3   OH214408   0.326   5.096   2.027
 4822TIP3    H114409   0.394   5.099   2.094
 4822TIP3    H214410   0.256   5.043   2.066
 4823TIP3   OH214411   6.663   3.289   0.568
 4823TIP3    H114412   6.597   3.355   0.590
 4823TIP3    H214413   6.724   3.335   0.509
 4824TIP3   OH214414   3.563   0.547   1.116
 4824TIP3    H114415   3.469   0.544   1.134
 4824TIP3    H214416   3.603   0.508   1.194
 4825TIP3   OH214417   5.826   3.889   5.312
 4825TIP3    H114418   5.772   3.963   5.339
 4825TIP3    H214419   5.911   3.927   5.293
 4826TIP3   OH214420   0.014   5.552   5.477
 4826TIP3    H114421   0.016   5.622   5.412
 4826TIP3    H214422   0.077   5.487   5.446
 4827TIP3   OH214423   4.109   4.011   6.345
 4827TIP3    H114424   4.155   4.071   6.286
 4827TIP3    H214425   4.030   4.059   6.371
 4828TIP3   OH214426   8.168   1.306   1.893
 4828TIP3    H114427   8.084   1.350   1.892
 4828TIP3    H214428   8.177   1.270   1.804
 4829TIP3   OH214429   5.302   5.637   1.626
 4829TIP3    H114430   5.323   5.708   1.686
 4829TIP3    H214431   5.206   5.635   1.624
 4830TIP3   OH214432   4.284   5.094   3.314
 4830TIP3    H114433   4.266   5.062   3.402
 4830TIP3    H214434   4.220   5.049   3.259
 4831TIP3   OH214435   4.683   7.604   2.816
 4831TIP3    H114436   4.747   7.671   2.789
 4831TIP3    H214437   4.687   7.538   2.747
 4832TIP3   OH214438   6.701   0.140   5.064
 4832TIP3    H114439   6.652   0.173   4.989
 4832TIP3    H214440   6.709   0.046   5.049
 4833TIP3   OH214441   3.953   6.489   4.923
 4833TIP3    H114442   3.921   6.478   5.013
 4833TIP3    H214443   3.923   6.410   4.878
 4834TIP3   OH214444   6.646   3.686   3.137
 4834TIP3    H114445   6.564   3.675   3.088
 4834TIP3    H214446   6.712   3.699   3.070
 4835TIP3   OH214447   0.320   6.473   0.285
 4835TIP3    H114448   0.347   6.396   0.236
 4835TIP3    H214449   0.374   6.473   0.364
 4836TIP3   OH214450   7.631   5.940   6.688
 4836TIP3    H114451   7.704   5.899   6.734
 4836TIP3    H214452   7.667   5.967   6.604
 4837TIP3   OH214453   4.747   2.583   1.894
 4837TIP3    H114454   4.702   2.628   1.823
 4837TIP3    H214455   4.840   2.594   1.874
 4838TIP3   OH214456   1.444   3.068   5.774
 4838TIP3    H114457   1.530   3.060   5.815
 4838TIP3    H214458   1.461   3.055   5.681
 4839TIP3   OH214459   7.535   7.001   0.724
 4839TIP3    H114460   7.535   7.091   0.756
 4839TIP3    H214461   7.489   7.005   0.640
 4840TIP3   OH214462   8.174   4.295   0.904
 4840TIP3    H114463   8.261   4.293   0.945
 4840TIP3    H214464   8.124   4.356   0.958
 4841TIP3   OH214465   8.061   1.253   3.803
 4841TIP3    H114466   8.016   1.230   3.722
 4841TIP3    H214467   8.137   1.195   3.805
 4842TIP3   OH214468   3.936   7.569   1.144
 4842TIP3    H114469   3.924   7.636   1.076
 4842TIP3    H214470   4.007   7.602   1.198
 4843TIP3   OH214471   3.991   3.808   2.741
 4843TIP3    H114472   3.952   3.794   2.827
 4843TIP3    H214473   3.916   3.811   2.682
 4844TIP3   OH214474   6.456   3.988   2.458
 4844TIP3    H114475   6.400   4.065   2.467
 4844TIP3    H214476   6.474   3.961   2.548
 4845TIP3   OH214477   6.556   5.274   1.286
 4845TIP3    H114478   6.628   5.332   1.264
 4845TIP3    H214479   6.569   5.253   1.378
 4846TIP3   OH214480   1.960   7.825   5.929
 4846TIP3    H114481   1.873   7.851   5.959
 4846TIP3    H214482   1.944   7.771   5.852
 4847TIP3   OH214483   0.992   6.069   5.588
 4847TIP3    H114484   1.066   6.130   5.581
 4847TIP3    H214485   0.947   6.076   5.504
 4848TIP3   OH214486   8.230   6.373   1.648
 4848TIP3    H114487   8.319   6.337   1.649
 4848TIP3    H214488   8.239   6.458   1.692
 4849TIP3   OH214489   3.518   5.663   2.960
 4849TIP3    H114490   3.478   5.658   3.047
 4849TIP3    H214491   3.590   5.725   2.970
 4850TIP3   OH214492   4.200   7.152   5.017
 4850TIP3    H114493   4.290   7.146   4.986
 4850TIP3    H214494   4.149   7.170   4.938
 4851TIP3   OH214495   7.535   5.001   3.768
 4851TIP3    H114496   7.584   5.077   3.736
 4851TIP3    H214497   7.592   4.963   3.835
 4852TIP3   OH214498   8.054   4.407   1.377
 4852TIP3    H114499   8.046   4.469   1.449
 4852TIP3    H214500   8.012   4.327   1.409
 4853TIP3   OH214501   8.002   5.402   1.054
 4853TIP3    H114502   7.914   5.375   1.027
 4853TIP3    H214503   7.992   5.494   1.078
 4854TIP3   OH214504   7.395   1.149   2.345
 4854TIP3    H114505   7.438   1.074   2.387
 4854TIP3    H214506   7.302   1.132   2.356
 4855TIP3   OH214507   0.911   2.460   4.686
 4855TIP3    H114508   0.928   2.449   4.779
 4855TIP3    H214509   0.991   2.427   4.643
 4856TIP3   OH214510   4.766   1.751   0.936
 4856TIP3    H114511   4.734   1.765   0.847
 4856TIP3    H214512   4.844   1.805   0.943
 4857TIP3   OH214513   5.671   5.129   1.068
 4857TIP3    H114514   5.736   5.188   1.108
 4857TIP3    H214515   5.713   5.098   0.988
 4858TIP3   OH214516   1.852   4.550   1.167
 4858TIP3    H114517   1.803   4.623   1.205
 4858TIP3    H214518   1.940   4.584   1.153
 4859TIP3   OH214519   4.329   5.939   1.961
 4859TIP3    H114520   4.341   5.952   1.867
 4859TIP3    H214521   4.264   6.005   1.986
 4860TIP3   OH214522   5.094   0.898   2.555
 4860TIP3    H114523   5.131   0.860   2.634
 4860TIP3    H214524   5.091   0.826   2.492
 4861TIP3   OH214525   7.429   6.612   2.315
 4861TIP3    H114526   7.446   6.518   2.317
 4861TIP3    H214527   7.334   6.619   2.317
 4862TIP3   OH214528   3.876   6.340   6.078
 4862TIP3    H114529   3.840   6.409   6.022
 4862TIP3    H214530   3.827   6.262   6.053
 4863TIP3   OH214531   2.353   6.365   4.278
 4863TIP3    H114532   2.398   6.449   4.280
 4863TIP3    H214533   2.260   6.386   4.285
 4864TIP3   OH214534   6.216   3.211   2.862
 4864TIP3    H114535   6.296   3.159   2.862
 4864TIP3    H214536   6.161   3.170   2.928
 4865TIP3   OH214537   0.742   0.209   0.524
 4865TIP3    H114538   0.820   0.162   0.556
 4865TIP3    H214539   0.775   0.295   0.498
 4866TIP3   OH214540   4.266   5.583   3.249
 4866TIP3    H114541   4.293   5.510   3.304
 4866TIP3    H214542   4.346   5.613   3.206
 4867TIP3   OH214543   4.038   6.403   1.536
 4867TIP3    H114544   4.070   6.374   1.451
 4867TIP3    H214545   4.054   6.498   1.537
 4868TIP3   OH214546   4.002   0.902   5.748
 4868TIP3    H114547   4.063   0.855   5.805
 4868TIP3    H214548   4.004   0.992   5.780
 4869TIP3   OH214549   4.863   1.320   3.097
 4869TIP3    H114550   4.865   1.378   3.173
 4869TIP3    H214551   4.937   1.262   3.110
 4870TIP3   OH214552   7.389   1.181   3.797
 4870TIP3    H114553   7.334   1.163   3.720
 4870TIP3    H214554   7.398   1.276   3.798
 4871TIP3   OH214555   5.769   4.013   1.209
 4871TIP3    H114556   5.820   3.934   1.187
 4871TIP3    H214557   5.829   4.066   1.262
 4872TIP3   OH214558   2.525   2.427   1.491
 4872TIP3    H114559   2.432   2.448   1.487
 4872TIP3    H214560   2.542   2.413   1.584
 4873TIP3   OH214561   5.091   3.579   2.959
 4873TIP3    H114562   5.087   3.657   2.905
 4873TIP3    H214563   5.165   3.529   2.923
 4874TIP3   OH214564   6.037   0.543   2.685
 4874TIP3    H114565   6.102   0.535   2.615
 4874TIP3    H214566   5.972   0.475   2.666
 4875TIP3   OH214567   2.564   4.450   1.558
 4875TIP3    H114568   2.582   4.505   1.482
 4875TIP3    H214569   2.614   4.370   1.542
 4876TIP3   OH214570   8.100   0.873   5.305
 4876TIP3    H114571   8.092   0.968   5.309
 4876TIP3    H214572   8.012   0.841   5.287
 4877TIP3   OH214573   3.538   6.207   5.674
 4877TIP3    H114574   3.483   6.280   5.645
 4877TIP3    H214575   3.482   6.130   5.665
 4878TIP3   OH214576   3.410   0.711   5.353
 4878TIP3    H114577   3.471   0.689   5.424
 4878TIP3    H214578   3.393   0.804   5.364
 4879TIP3   OH214579   4.030   2.210   0.629
 4879TIP3    H114580   4.051   2.154   0.555
 4879TIP3    H214581   4.091   2.182   0.698
 4880TIP3   OH214582   1.826   4.350   1.653
 4880TIP3    H114583   1.888   4.421   1.636
 4880TIP3    H214584   1.801   4.361   1.745
 4881TIP3   OH214585   6.413   2.124   6.136
 4881TIP3    H114586   6.338   2.141   6.194
 4881TIP3    H214587   6.457   2.209   6.130
 4882TIP3   OH214588   0.498   0.138   0.614
 4882TIP3    H114589   0.445   0.202   0.566
 4882TIP3    H214590   0.588   0.167   0.599
 4883TIP3   OH214591   3.751   3.584   4.805
 4883TIP3    H114592   3.767   3.667   4.761
 4883TIP3    H214593   3.697   3.606   4.881
 4884TIP3   OH214594   2.684   0.151   3.473
 4884TIP3    H114595   2.620   0.080   3.476
 4884TIP3    H214596   2.726   0.142   3.387
 4885TIP3   OH214597   5.536   4.252   4.019
 4885TIP3    H114598   5.566   4.226   3.931
 4885TIP3    H214599   5.484   4.178   4.049
 4886TIP3   OH214600   7.969   4.565   4.440
 4886TIP3    H114601   7.955   4.506   4.366
 4886TIP3    H214602   7.935   4.518   4.516
 4887TIP3   OH214603   4.517   7.560   6.269
 4887TIP3    H114604   4.580   7.631   6.255
 4887TIP3    H214605   4.571   7.481   6.272
 4888TIP3   OH214606   7.468   6.680   0.649
 4888TIP3    H114607   7.479   6.636   0.733
 4888TIP3    H214608   7.551   6.726   0.635
 4889TIP3   OH214609   2.199   0.280   4.172
 4889TIP3    H114610   2.112   0.256   4.204
 4889TIP3    H214611   2.205   0.374   4.188
 4890TIP3   OH214612   7.445   2.737   1.259
 4890TIP3    H114613   7.402   2.654   1.277
 4890TIP3    H214614   7.453   2.739   1.163
 4891TIP3   OH214615   1.002   5.038   4.579
 4891TIP3    H114616   0.979   5.028   4.672
 4891TIP3    H214617   0.957   4.966   4.536
 4892TIP3   OH214618   3.396   2.855   2.946
 4892TIP3    H114619   3.311   2.875   2.907
 4892TIP3    H214620   3.418   2.768   2.911
 4893TIP3   OH214621   2.996   4.603   6.108
 4893TIP3    H114622   2.964   4.515   6.089
 4893TIP3    H214623   3.091   4.595   6.107
 4894TIP3   OH214624   8.088   5.413   0.331
 4894TIP3    H114625   8.161   5.371   0.286
 4894TIP3    H214626   8.013   5.356   0.314
 4895TIP3   OH214627   0.677   7.788   6.291
 4895TIP3    H114628   0.648   7.878   6.273
 4895TIP3    H214629   0.633   7.763   6.372
 4896TIP3   OH214630   8.179   3.187   2.671
 4896TIP3    H114631   8.134   3.117   2.623
 4896TIP3    H214632   8.229   3.141   2.739
 4897TIP3   OH214633   3.236   2.054   4.163
 4897TIP3    H114634   3.218   1.995   4.236
 4897TIP3    H214635   3.290   2.123   4.201
 4898TIP3   OH214636   4.817   2.077   3.708
 4898TIP3    H114637   4.751   2.008   3.696
 4898TIP3    H214638   4.861   2.083   3.623
 4899TIP3   OH214639   6.358   5.674   1.482
 4899TIP3    H114640   6.449   5.666   1.512
 4899TIP3    H214641   6.352   5.612   1.409
 4900TIP3   OH214642   8.153   2.138   1.395
 4900TIP3    H114643   8.217   2.202   1.363
 4900TIP3    H214644   8.203   2.079   1.451
 4901TIP3   OH214645   0.503   5.171   6.335
 4901TIP3    H114646   0.422   5.147   6.290
 4901TIP3    H214647   0.485   5.154   6.428
 4902TIP3   OH214648   1.005   4.251   2.245
 4902TIP3    H114649   1.052   4.168   2.237
 4902TIP3    H214650   0.920   4.234   2.203
 4903TIP3   OH214651   1.054   4.745   2.882
 4903TIP3    H114652   1.069   4.800   2.959
 4903TIP3    H214653   1.140   4.734   2.843
 4904TIP3   OH214654   6.658   7.715   1.091
 4904TIP3    H114655   6.721   7.722   1.162
 4904TIP3    H214656   6.618   7.802   1.086
 4905TIP3   OH214657   1.563   2.175   4.854
 4905TIP3    H114658   1.611   2.183   4.771
 4905TIP3    H214659   1.536   2.265   4.874
 4906TIP3   OH214660   3.214   1.154   0.662
 4906TIP3    H114661   3.195   1.060   0.655
 4906TIP3    H214662   3.132   1.192   0.694
 4907TIP3   OH214663   2.753   7.444   0.455
 4907TIP3    H114664   2.777   7.498   0.380
 4907TIP3    H214665   2.836   7.406   0.484
 4908TIP3   OH214666   4.370   1.574   5.284
 4908TIP3    H114667   4.294   1.515   5.277
 4908TIP3    H214668   4.374   1.597   5.377
 4909TIP3   OH214669   3.104   7.287   2.692
 4909TIP3    H114670   3.149   7.233   2.756
 4909TIP3    H214671   3.154   7.369   2.690
 4910TIP3   OH214672   5.954   4.020   2.899
 4910TIP3    H114673   5.900   4.050   2.972
 4910TIP3    H214674   6.012   4.094   2.881
 4911TIP3   OH214675   7.798   1.385   2.526
 4911TIP3    H114676   7.735   1.356   2.460
 4911TIP3    H214677   7.796   1.481   2.521
 4912TIP3   OH214678   2.595   1.674   2.459
 4912TIP3    H114679   2.678   1.720   2.471
 4912TIP3    H214680   2.600   1.635   2.372
 4913TIP3   OH214681   4.128   2.164   6.388
 4913TIP3    H114682   4.214   2.126   6.367
 4913TIP3    H214683   4.149   2.244   6.436
 4914TIP3   OH214684   1.222   2.264  -0.010
 4914TIP3    H114685   1.170   2.312   0.055
 4914TIP3    H214686   1.233   2.177   0.028
 4915TIP3   OH214687   2.692   2.280   5.500
 4915TIP3    H114688   2.654   2.367   5.498
 4915TIP3    H214689   2.659   2.242   5.582
 4916TIP3   OH214690   5.974   1.074   6.227
 4916TIP3    H114691   5.891   1.028   6.212
 4916TIP3    H214692   5.990   1.122   6.146
 4917TIP3   OH214693   6.470   6.641   2.450
 4917TIP3    H114694   6.442   6.724   2.412
 4917TIP3    H214695   6.389   6.593   2.468
 4918TIP3   OH214696   6.751   7.113   2.015
 4918TIP3    H114697   6.709   7.129   2.099
 4918TIP3    H214698   6.765   7.019   2.012
 4919TIP3   OH214699   8.021   2.030   5.128
 4919TIP3    H114700   7.936   2.018   5.085
 4919TIP3    H214701   8.083   2.038   5.055
 4920TIP3   OH214702   7.805   3.162   0.376
 4920TIP3    H114703   7.818   3.107   0.298
 4920TIP3    H214704   7.872   3.132   0.437
 4921TIP3   OH214705   8.118   4.950   3.063
 4921TIP3    H114706   8.166   4.983   2.987
 4921TIP3    H214707   8.090   5.029   3.110
 4922TIP3   OH214708   1.344   0.411   0.318
 4922TIP3    H114709   1.378   0.499   0.302
 4922TIP3    H214710   1.422   0.360   0.342
 4923TIP3   OH214711   1.115   1.527   0.112
 4923TIP3    H114712   1.032   1.527   0.159
 4923TIP3    H214713   1.165   1.456   0.152
 4924TIP3   OH214714   5.778   2.118   5.630
 4924TIP3    H114715   5.840   2.186   5.608
 4924TIP3    H214716   5.701   2.164   5.664
 4925TIP3   OH214717   2.904   1.764   5.027
 4925TIP3    H114718   2.845   1.780   4.953
 4925TIP3    H214719   2.967   1.837   5.024
 4926TIP3   OH214720   3.125   2.548   2.024
 4926TIP3    H114721   3.096   2.590   2.105
 4926TIP3    H214722   3.220   2.551   2.028
 4927TIP3   OH214723   1.908   4.898   2.536
 4927TIP3    H114724   1.983   4.946   2.571
 4927TIP3    H214725   1.915   4.810   2.574
 4928TIP3   OH214726   7.007   5.648   0.880
 4928TIP3    H114727   7.098   5.648   0.911
 4928TIP3    H214728   6.960   5.698   0.947
 4929TIP3   OH214729   1.682   3.455   0.080
 4929TIP3    H114730   1.613   3.516   0.106
 4929TIP3    H214731   1.635   3.383   0.038
 4930TIP3   OH214732   6.954   0.470   2.884
 4930TIP3    H114733   7.030   0.411   2.896
 4930TIP3    H214734   6.878   0.413   2.897
 4931TIP3   OH214735   6.358   4.344   5.995
 4931TIP3    H114736   6.439   4.329   6.043
 4931TIP3    H214737   6.386   4.381   5.912
 4932TIP3   OH214738   1.684   6.112   0.246
 4932TIP3    H114739   1.612   6.134   0.306
 4932TIP3    H214740   1.671   6.019   0.228
 4933TIP3   OH214741   4.923   3.847   5.739
 4933TIP3    H114742   5.004   3.837   5.690
 4933TIP3    H214743   4.863   3.783   5.700
 4934TIP3   OH214744   4.065   4.076   2.169
 4934TIP3    H114745   4.144   4.103   2.123
 4934TIP3    H214746   4.035   4.154   2.215
 4935TIP3   OH214747   3.431   1.387   2.686
 4935TIP3    H114748   3.355   1.444   2.684
 4935TIP3    H214749   3.505   1.446   2.698
 4936TIP3   OH214750   7.750   3.879   3.679
 4936TIP3    H114751   7.814   3.901   3.611
 4936TIP3    H214752   7.778   3.795   3.713
 4937TIP3   OH214753   5.288   1.091   2.672
 4937TIP3    H114754   5.239   1.011   2.654
 4937TIP3    H214755   5.357   1.064   2.732
 4938TIP3   OH214756   5.396   5.703   3.585
 4938TIP3    H114757   5.462   5.647   3.544
 4938TIP3    H214758   5.390   5.779   3.528
 4939TIP3   OH214759   5.604   5.417   4.428
 4939TIP3    H114760   5.613   5.398   4.334
 4939TIP3    H214761   5.511   5.403   4.446
 4940TIP3   OH214762   4.108   0.577   5.186
 4940TIP3    H114763   4.062   0.620   5.114
 4940TIP3    H214764   4.049   0.507   5.213
 4941TIP3   OH214765   7.629   1.088   5.791
 4941TIP3    H114766   7.570   1.084   5.866
 4941TIP3    H214767   7.676   1.171   5.803
 4942TIP3   OH214768   2.863   3.152   0.443
 4942TIP3    H114769   2.874   3.206   0.522
 4942TIP3    H214770   2.782   3.185   0.403
 4943TIP3   OH214771   2.488   2.670   2.635
 4943TIP3    H114772   2.559   2.622   2.594
 4943TIP3    H214773   2.531   2.737   2.689
 4944TIP3   OH214774   2.551   4.857   5.820
 4944TIP3    H114775   2.549   4.923   5.889
 4944TIP3    H214776   2.644   4.833   5.812
 4945TIP3   OH214777   4.549   4.019   1.404
 4945TIP3    H114778   4.522   4.101   1.445
 4945TIP3    H214779   4.619   3.986   1.460
 4946TIP3   OH214780   0.613   4.135   4.675
 4946TIP3    H114781   0.670   4.097   4.609
 4946TIP3    H214782   0.655   4.113   4.759
 4947TIP3   OH214783   3.304   2.624   6.485
 4947TIP3    H114784   3.345   2.706   6.459
 4947TIP3    H214785   3.274   2.639   6.575
 4948TIP3   OH214786   2.567   6.749   5.044
 4948TIP3    H114787   2.524   6.720   5.124
 4948TIP3    H214788   2.516   6.708   4.974
 4949TIP3   OH214789   4.544   4.211   4.917
 4949TIP3    H114790   4.450   4.207   4.899
 4949TIP3    H214791   4.571   4.296   4.882
 4950TIP3   OH214792   5.883   4.214   1.020
 4950TIP3    H114793   5.898   4.184   1.110
 4950TIP3    H214794   5.821   4.151   0.984
 4951TIP3   OH214795   3.504   7.159   1.029
 4951TIP3    H114796   3.599   7.157   1.039
 4951TIP3    H214797   3.487   7.233   0.970
 4952TIP3   OH214798   1.175   7.250   4.293
 4952TIP3    H114799   1.266   7.221   4.294
 4952TIP3    H214800   1.125   7.173   4.321
 4953TIP3   OH214801   3.921   3.940   6.052
 4953TIP3    H114802   3.933   3.870   6.116
 4953TIP3    H214803   3.878   4.010   6.100
 4954TIP3   OH214804   6.091   3.299   2.628
 4954TIP3    H114805   6.098   3.216   2.581
 4954TIP3    H214806   6.134   3.283   2.712
 4955TIP3   OH214807   1.779   6.076   2.663
 4955TIP3    H114808   1.729   6.125   2.728
 4955TIP3    H214809   1.867   6.113   2.667
 4956TIP3   OH214810   2.449   7.303   3.345
 4956TIP3    H114811   2.382   7.286   3.279
 4956TIP3    H214812   2.402   7.299   3.428
 4957TIP3   OH214813   3.768   3.248   0.670
 4957TIP3    H114814   3.767   3.283   0.581
 4957TIP3    H214815   3.824   3.309   0.719
 4958TIP3   OH214816   2.071   6.846   4.536
 4958TIP3    H114817   2.164   6.860   4.555
 4958TIP3    H214818   2.063   6.861   4.442
 4959TIP3   OH214819   5.998   3.549   1.282
 4959TIP3    H114820   5.939   3.589   1.218
 4959TIP3    H214821   6.079   3.599   1.274
 4960TIP3   OH214822   7.749   7.824   3.044
 4960TIP3    H114823   7.724   7.842   3.135
 4960TIP3    H214824   7.672   7.846   2.993
 4961TIP3   OH214825   4.270   6.868   6.786
 4961TIP3    H114826   4.355   6.891   6.750
 4961TIP3    H214827   4.269   6.772   6.785
 4962TIP3   OH214828   7.993   5.202   2.058
 4962TIP3    H114829   8.022   5.280   2.011
 4962TIP3    H214830   7.969   5.140   1.989
 4963TIP3   OH214831   6.240   5.445   2.315
 4963TIP3    H114832   6.306   5.443   2.384
 4963TIP3    H214833   6.264   5.375   2.255
 4964TIP3   OH214834   7.322   0.953   4.401
 4964TIP3    H114835   7.271   1.011   4.459
 4964TIP3    H214836   7.280   0.963   4.316
 4965TIP3   OH214837   1.143   0.259   5.180
 4965TIP3    H114838   1.135   0.167   5.153
 4965TIP3    H214839   1.067   0.274   5.236
 4966TIP3   OH214840   4.409   2.666   0.969
 4966TIP3    H114841   4.345   2.596   0.962
 4966TIP3    H214842   4.485   2.635   0.919
 4967TIP3   OH214843   8.284   3.236   5.915
 4967TIP3    H114844   8.227   3.164   5.888
 4967TIP3    H214845   8.372   3.207   5.889
 4968TIP3   OH214846   8.104   2.844   2.713
 4968TIP3    H114847   8.161   2.863   2.787
 4968TIP3    H214848   8.015   2.860   2.746
 4969TIP3   OH214849   0.834   5.968   4.264
 4969TIP3    H114850   0.894   5.918   4.319
 4969TIP3    H214851   0.750   5.924   4.273
 4970TIP3   OH214852   7.604   6.752   2.525
 4970TIP3    H114853   7.608   6.657   2.538
 4970TIP3    H214854   7.578   6.762   2.433
 4971TIP3   OH214855   5.550   0.550   5.437
 4971TIP3    H114856   5.633   0.525   5.477
 4971TIP3    H214857   5.485   0.537   5.505
 4972TIP3   OH214858   7.099   6.014   1.271
 4972TIP3    H114859   7.151   5.953   1.324
 4972TIP3    H214860   7.033   6.048   1.332
 4973TIP3   OH214861   3.370   6.207   3.004
 4973TIP3    H114862   3.350   6.182   3.094
 4973TIP3    H214863   3.343   6.132   2.951
 4974TIP3   OH214864   1.237   5.366   6.032
 4974TIP3    H114865   1.330   5.355   6.013
 4974TIP3    H214866   1.216   5.294   6.090
 4975TIP3   OH214867   6.591   6.687   4.052
 4975TIP3    H114868   6.638   6.693   4.136
 4975TIP3    H214869   6.507   6.729   4.068
 4976TIP3   OH214870   8.059   7.533   6.610
 4976TIP3    H114871   8.020   7.597   6.552
 4976TIP3    H214872   8.109   7.585   6.673
 4977TIP3   OH214873   1.428   1.235   4.919
 4977TIP3    H114874   1.488   1.182   4.971
 4977TIP3    H214875   1.341   1.216   4.955
 4978TIP3   OH214876   2.900   7.604   2.924
 4978TIP3    H114877   2.827   7.626   2.982
 4978TIP3    H214878   2.869   7.623   2.836
 4979TIP3   OH214879   4.677   4.489   6.105
 4979TIP3    H114880   4.612   4.512   6.038
 4979TIP3    H214881   4.725   4.415   6.067
 4980TIP3   OH214882   3.373   0.900   2.820
 4980TIP3    H114883   3.373   0.954   2.741
 4980TIP3    H214884   3.387   0.962   2.892
 4981TIP3   OH214885   1.463   2.788   2.464
 4981TIP3    H114886   1.422   2.835   2.537
 4981TIP3    H214887   1.392   2.779   2.400
 4982TIP3   OH214888   7.864   0.838   3.596
 4982TIP3    H114889   7.958   0.856   3.594
 4982TIP3    H214890   7.831   0.873   3.514
 4983TIP3   OH214891   3.844   6.380   0.404
 4983TIP3    H114892   3.928   6.358   0.362
 4983TIP3    H214893   3.799   6.297   0.414
 4984TIP3   OH214894   7.087   0.793   6.045
 4984TIP3    H114895   7.064   0.738   6.119
 4984TIP3    H214896   7.145   0.860   6.082
 4985TIP3   OH214897   4.631   2.158   2.759
 4985TIP3    H114898   4.602   2.069   2.778
 4985TIP3    H214899   4.661   2.155   2.668
 4986TIP3   OH214900   3.017   4.325   2.751
 4986TIP3    H114901   2.937   4.282   2.782
 4986TIP3    H214902   3.054   4.367   2.829
 4987TIP3   OH214903   7.928   6.736   0.272
 4987TIP3    H114904   7.865   6.790   0.225
 4987TIP3    H214905   7.978   6.798   0.326
 4988TIP3   OH214906   6.644   6.585   6.374
 4988TIP3    H114907   6.554   6.563   6.349
 4988TIP3    H214908   6.635   6.633   6.456
 4989TIP3   OH214909   2.106   4.382   1.703
 4989TIP3    H114910   2.149   4.306   1.664
 4989TIP3    H214911   2.175   4.425   1.754
 4990TIP3   OH214912   2.427   5.134   5.807
 4990TIP3    H114913   2.485   5.115   5.881
 4990TIP3    H214914   2.461   5.078   5.737
 4991TIP3   OH214915   4.018   3.688   4.378
 4991TIP3    H114916   4.030   3.693   4.284
 4991TIP3    H214917   3.939   3.740   4.395
 4992TIP3   OH214918   4.755   3.120   4.192
 4992TIP3    H114919   4.760   3.211   4.219
 4992TIP3    H214920   4.819   3.074   4.247
 4993TIP3   OH214921   7.177   1.345   2.947
 4993TIP3    H114922   7.108   1.401   2.982
 4993TIP3    H214923   7.236   1.329   3.021
 4994TIP3   OH214924   6.943   5.273   1.101
 4994TIP3    H114925   7.010   5.341   1.089
 4994TIP3    H214926   6.985   5.207   1.156
 4995TIP3   OH214927   1.689   1.705   1.900
 4995TIP3    H114928   1.600   1.736   1.885
 4995TIP3    H214929   1.743   1.783   1.893
 4996TIP3   OH214930   3.117   0.672   2.640
 4996TIP3    H114931   3.111   0.767   2.626
 4996TIP3    H214932   3.203   0.649   2.605
 4997TIP3   OH214933   7.407   6.630   4.057
 4997TIP3    H114934   7.331   6.619   3.999
 4997TIP3    H214935   7.457   6.549   4.046
 4998TIP3   OH214936   4.903   5.505   4.018
 4998TIP3    H114937   4.858   5.492   3.935
 4998TIP3    H214938   4.849   5.458   4.082
 4999TIP3   OH214939   2.967   0.931   5.105
 4999TIP3    H114940   2.992   0.904   5.193
 4999TIP3    H214941   2.899   0.868   5.079
 5000TIP3   OH214942   6.832   7.485   5.347
 5000TIP3    H114943   6.796   7.397   5.332
 5000TIP3    H214944   6.850   7.487   5.441
 5001TIP3   OH214945   7.317   6.527   0.460
 5001TIP3    H114946   7.373   6.555   0.532
 5001TIP3    H214947   7.298   6.435   0.479
 5002TIP3   OH214948   5.937   0.326   4.771
 5002TIP3    H114949   5.991   0.266   4.823
 5002TIP3    H214950   5.868   0.354   4.832
 5003TIP3   OH214951   1.409   3.106   0.577
 5003TIP3    H114952   1.418   3.101   0.672
 5003TIP3    H214953   1.432   3.196   0.555
 5004TIP3   OH214954   3.670   0.756   5.673
 5004TIP3    H114955   3.654   0.665   5.696
 5004TIP3    H214956   3.733   0.751   5.601
 5005TIP3   OH214957   5.429   2.381   3.011
 5005TIP3    H114958   5.422   2.394   3.105
 5005TIP3    H214959   5.376   2.451   2.973
 5006TIP3   OH214960   0.366   1.590   2.998
 5006TIP3    H114961   0.350   1.659   3.063
 5006TIP3    H214962   0.297   1.603   2.933
 5007TIP3   OH214963   6.322   1.428   2.147
 5007TIP3    H114964   6.260   1.358   2.167
 5007TIP3    H214965   6.303   1.496   2.212
 5008TIP3   OH214966   1.533   3.265   1.306
 5008TIP3    H114967   1.598   3.319   1.350
 5008TIP3    H214968   1.524   3.304   1.219
 5009TIP3   OH214969   7.388   7.296   2.249
 5009TIP3    H114970   7.423   7.359   2.311
 5009TIP3    H214971   7.299   7.326   2.232
 5010TIP3   OH214972   6.510   0.496   5.605
 5010TIP3    H114973   6.505   0.415   5.554
 5010TIP3    H214974   6.573   0.550   5.558
 5011TIP3   OH214975   1.854   3.537   6.662
 5011TIP3    H114976   1.773   3.583   6.683
 5011TIP3    H214977   1.917   3.570   6.727
 5012TIP3   OH214978   4.348   1.534   2.189
 5012TIP3    H114979   4.268   1.560   2.236
 5012TIP3    H214980   4.419   1.569   2.243
 5013TIP3   OH214981   8.211   1.031   3.792
 5013TIP3    H114982   8.305   1.047   3.782
 5013TIP3    H214983   8.194   0.955   3.736
 5014TIP3   OH214984   6.422   1.469   6.726
 5014TIP3    H114985   6.336   1.492   6.760
 5014TIP3    H214986   6.453   1.547   6.681
 5015TIP3   OH214987   1.486   2.417   0.950
 5015TIP3    H114988   1.406   2.442   0.902
 5015TIP3    H214989   1.458   2.347   1.008
 5016TIP3   OH214990   3.749   2.790   5.790
 5016TIP3    H114991   3.721   2.715   5.738
 5016TIP3    H214992   3.701   2.782   5.872
 5017TIP3   OH214993   7.565   6.556   3.435
 5017TIP3    H114994   7.489   6.523   3.483
 5017TIP3    H214995   7.551   6.526   3.345
 5018TIP3   OH214996   5.502   4.784   1.027
 5018TIP3    H114997   5.569   4.793   1.095
 5018TIP3    H214998   5.549   4.745   0.953
 5019TIP3   OH214999   4.628   1.527   3.630
 5019TIP3    H115000   4.626   1.554   3.538
 5019TIP3    H215001   4.570   1.590   3.673
 5020TIP3   OH215002   1.106   5.338   1.442
 5020TIP3    H115003   1.052   5.302   1.512
 5020TIP3    H215004   1.182   5.280   1.438
 5021TIP3   OH215005   6.285   4.925   1.275
 5021TIP3    H115006   6.296   5.009   1.232
 5021TIP3    H215007   6.332   4.935   1.358
 5022TIP3   OH215008   7.477   6.184   5.484
 5022TIP3    H115009   7.410   6.253   5.476
 5022TIP3    H215010   7.450   6.135   5.562
 5023TIP3   OH215011   1.922   4.191   1.424
 5023TIP3    H115012   1.902   4.238   1.506
 5023TIP3    H215013   1.892   4.102   1.440
 5024TIP3   OH215014   3.063   6.590   5.715
 5024TIP3    H115015   3.096   6.559   5.631
 5024TIP3    H215016   2.997   6.655   5.692
 5025TIP3   OH215017   6.813   7.340   3.517
 5025TIP3    H115018   6.753   7.325   3.590
 5025TIP3    H215019   6.888   7.385   3.556
 5026TIP3   OH215020   0.760   6.895   4.608
 5026TIP3    H115021   0.844   6.932   4.583
 5026TIP3    H215022   0.778   6.803   4.625
 5027TIP3   OH215023   3.132   3.561   2.823
 5027TIP3    H115024   3.055   3.507   2.841
 5027TIP3    H215025   3.098   3.635   2.772
 5028TIP3   OH215026   8.256   5.080   2.829
 5028TIP3    H115027   8.273   5.173   2.810
 5028TIP3    H215028   8.312   5.033   2.767
 5029TIP3   OH215029   5.101   1.812   5.723
 5029TIP3    H115030   5.184   1.829   5.680
 5029TIP3    H215031   5.123   1.755   5.796
 5030TIP3   OH215032   1.432   1.814   1.093
 5030TIP3    H115033   1.402   1.729   1.059
 5030TIP3    H215034   1.526   1.803   1.106
 5031TIP3   OH215035   7.400   0.591   1.513
 5031TIP3    H115036   7.461   0.542   1.458
 5031TIP3    H215037   7.332   0.620   1.452
 5032TIP3   OH215038   2.005   3.216   4.620
 5032TIP3    H115039   2.069   3.264   4.673
 5032TIP3    H215040   1.980   3.278   4.551
 5033TIP3   OH215041   2.770   3.428   3.627
 5033TIP3    H115042   2.759   3.518   3.597
 5033TIP3    H215043   2.702   3.417   3.693
 5034TIP3   OH215044   6.739   4.227   2.078
 5034TIP3    H115045   6.739   4.222   1.982
 5034TIP3    H215046   6.665   4.173   2.105
 5035TIP3   OH215047   2.988   2.727   4.909
 5035TIP3    H115048   2.989   2.663   4.979
 5035TIP3    H215049   3.078   2.760   4.905
 5036TIP3   OH215050   3.542   0.233   1.779
 5036TIP3    H115051   3.595   0.224   1.858
 5036TIP3    H215052   3.569   0.161   1.722
 5037TIP3   OH215053   6.309   5.193   4.093
 5037TIP3    H115054   6.257   5.251   4.149
 5037TIP3    H215055   6.259   5.112   4.089
 5038TIP3   OH215056   5.521   4.459   6.223
 5038TIP3    H115057   5.525   4.486   6.132
 5038TIP3    H215058   5.428   4.458   6.244
 5039TIP3   OH215059   7.702   5.537   1.033
 5039TIP3    H115060   7.671   5.611   1.087
 5039TIP3    H215061   7.702   5.572   0.944
 5040TIP3   OH215062   6.853   2.169   0.587
 5040TIP3    H115063   6.912   2.111   0.635
 5040TIP3    H215064   6.815   2.113   0.519
 5041TIP3   OH215065   8.164   1.399   1.338
 5041TIP3    H115066   8.096   1.466   1.342
 5041TIP3    H215067   8.202   1.409   1.250
 5042TIP3   OH215068   1.310   3.071   0.159
 5042TIP3    H115069   1.361   3.007   0.110
 5042TIP3    H215070   1.240   3.097   0.098
 5043TIP3   OH215071   0.658   5.211   5.150
 5043TIP3    H115072   0.622   5.209   5.061
 5043TIP3    H215073   0.598   5.156   5.201
 5044TIP3   OH215074   0.914   0.679   4.153
 5044TIP3    H115075   0.912   0.608   4.217
 5044TIP3    H215076   0.974   0.648   4.084
 5045TIP3   OH215077   0.513   4.755   2.408
 5045TIP3    H115078   0.581   4.708   2.456
 5045TIP3    H215079   0.545   4.759   2.318
 5046TIP3   OH215080   0.559   5.467   3.612
 5046TIP3    H115081   0.613   5.542   3.587
 5046TIP3    H215082   0.487   5.505   3.661
 5047TIP3   OH215083   0.610   0.196   0.279
 5047TIP3    H115084   0.642   0.194   0.369
 5047TIP3    H215085   0.525   0.239   0.285
 5048TIP3   OH215086   5.348   1.626   4.897
 5048TIP3    H115087   5.327   1.588   4.812
 5048TIP3    H215088   5.380   1.714   4.876
 5049TIP3   OH215089   1.636   7.154   3.072
 5049TIP3    H115090   1.592   7.218   3.016
 5049TIP3    H215091   1.571   7.131   3.138
 5050TIP3   OH215092   6.878   6.300   4.641
 5050TIP3    H115093   6.960   6.282   4.686
 5050TIP3    H215094   6.833   6.362   4.698
 5051TIP3   OH215095   2.328   7.416   6.147
 5051TIP3    H115096   2.304   7.409   6.054
 5051TIP3    H215097   2.418   7.448   6.146
 5052TIP3   OH215098   1.053   3.525   3.250
 5052TIP3    H115099   1.075   3.501   3.339
 5052TIP3    H215100   1.060   3.443   3.200
 5053TIP3   OH215101   4.529   3.012   6.586
 5053TIP3    H115102   4.559   3.102   6.597
 5053TIP3    H215103   4.571   2.982   6.505
 5054TIP3   OH215104   5.815   2.261   1.267
 5054TIP3    H115105   5.865   2.222   1.339
 5054TIP3    H215106   5.741   2.202   1.255
 5055TIP3   OH215107   7.548   3.759   2.519
 5055TIP3    H115108   7.464   3.771   2.563
 5055TIP3    H215109   7.526   3.725   2.433
 5056TIP3   OH215110   7.366   4.546   5.142
 5056TIP3    H115111   7.360   4.452   5.159
 5056TIP3    H215112   7.318   4.587   5.214
 5057TIP3   OH215113   3.600   6.631   5.497
 5057TIP3    H115114   3.556   6.706   5.459
 5057TIP3    H215115   3.693   6.655   5.497
 5058TIP3   OH215116   0.485   7.696   0.228
 5058TIP3    H115117   0.473   7.608   0.261
 5058TIP3    H215118   0.462   7.691   0.135
 5059TIP3   OH215119   0.287   7.544   2.253
 5059TIP3    H115120   0.289   7.538   2.157
 5059TIP3    H215121   0.252   7.631   2.271
 5060TIP3   OH215122   3.339   2.852   1.126
 5060TIP3    H115123   3.257   2.852   1.077
 5060TIP3    H215124   3.407   2.864   1.060
 5061TIP3   OH215125   4.904   2.112   5.192
 5061TIP3    H115126   4.910   2.078   5.103
 5061TIP3    H215127   4.882   2.035   5.245
 5062TIP3   OH215128   5.329   7.004   6.314
 5062TIP3    H115129   5.305   7.069   6.381
 5062TIP3    H215130   5.284   6.924   6.341
 5063TIP3   OH215131   1.806   1.319   6.263
 5063TIP3    H115132   1.755   1.261   6.321
 5063TIP3    H215133   1.759   1.316   6.180
 5064TIP3   OH215134   0.700   2.469   5.374
 5064TIP3    H115135   0.634   2.440   5.437
 5064TIP3    H215136   0.766   2.400   5.375
 5065TIP3   OH215137   2.677   1.364   0.932
 5065TIP3    H115138   2.686   1.455   0.902
 5065TIP3    H215139   2.663   1.314   0.852
 5066TIP3   OH215140   1.668   5.038   3.111
 5066TIP3    H115141   1.639   4.968   3.170
 5066TIP3    H215142   1.607   5.110   3.128
 5067TIP3   OH215143   6.718   6.701   3.034
 5067TIP3    H115144   6.751   6.611   3.036
 5067TIP3    H215145   6.663   6.705   2.956
 5068TIP3   OH215146   2.500   3.189   5.367
 5068TIP3    H115147   2.431   3.128   5.396
 5068TIP3    H215148   2.557   3.136   5.311
 5069TIP3   OH215149   6.931   4.639   0.218
 5069TIP3    H115150   6.999   4.691   0.259
 5069TIP3    H215151   6.908   4.573   0.283
 5070TIP3   OH215152   6.926   2.542   1.779
 5070TIP3    H115153   6.911   2.636   1.765
 5070TIP3    H215154   6.921   2.531   1.874
 5071TIP3   OH215155   0.642   5.787   2.066
 5071TIP3    H115156   0.675   5.867   2.025
 5071TIP3    H215157   0.549   5.785   2.042
 5072TIP3   OH215158   3.825   1.237   3.204
 5072TIP3    H115159   3.902   1.226   3.260
 5072TIP3    H215160   3.782   1.151   3.205
 5073TIP3   OH215161   0.192   4.975   6.020
 5073TIP3    H115162   0.208   5.061   5.981
 5073TIP3    H215163   0.172   4.918   5.945
 5074TIP3   OH215164   3.064   6.521   6.230
 5074TIP3    H115165   3.126   6.494   6.298
 5074TIP3    H215166   3.048   6.614   6.246
 5075TIP3   OH215167   2.008   4.653   1.619
 5075TIP3    H115168   1.918   4.636   1.589
 5075TIP3    H215169   2.062   4.594   1.566
 5076TIP3   OH215170   5.517   3.747   0.629
 5076TIP3    H115171   5.595   3.700   0.660
 5076TIP3    H215172   5.551   3.814   0.570
 5077TIP3   OH215173   4.915   4.196   6.358
 5077TIP3    H115174   4.925   4.178   6.452
 5077TIP3    H215175   4.953   4.283   6.346
 5078TIP3   OH215176   5.489   5.664   6.024
 5078TIP3    H115177   5.466   5.754   6.046
 5078TIP3    H215178   5.575   5.670   5.983
 5079TIP3   OH215179   6.237   3.487   2.326
 5079TIP3    H115180   6.249   3.392   2.327
 5079TIP3    H215181   6.323   3.522   2.302
 5080TIP3   OH215182   6.204   5.143   3.155
 5080TIP3    H115183   6.145   5.137   3.230
 5080TIP3    H215184   6.204   5.236   3.132
 5081TIP3   OH215185   7.193   4.120   2.300
 5081TIP3    H115186   7.141   4.122   2.219
 5081TIP3    H215187   7.134   4.083   2.365
 5082TIP3   OH215188   5.441   4.972   0.435
 5082TIP3    H115189   5.430   4.884   0.400
 5082TIP3    H215190   5.362   4.987   0.488
 5083TIP3   OH215191   8.086   4.782   1.924
 5083TIP3    H115192   8.174   4.790   1.888
 5083TIP3    H215193   8.028   4.808   1.852
 5084TIP3   OH215194   1.014   0.697   0.270
 5084TIP3    H115195   0.925   0.717   0.242
 5084TIP3    H215196   1.004   0.623   0.330
 5085TIP3   OH215197   6.571   0.813   0.977
 5085TIP3    H115198   6.498   0.782   1.030
 5085TIP3    H215199   6.641   0.830   1.040
 5086TIP3   OH215200   5.774   3.812   4.462
 5086TIP3    H115201   5.680   3.830   4.464
 5086TIP3    H215202   5.783   3.723   4.497
 5087TIP3   OH215203   1.729   1.738   3.072
 5087TIP3    H115204   1.714   1.828   3.102
 5087TIP3    H215205   1.754   1.748   2.980
 5088TIP3   OH215206   3.572   2.218   1.403
 5088TIP3    H115207   3.611   2.205   1.316
 5088TIP3    H215208   3.641   2.195   1.464
 5089TIP3   OH215209   3.328   6.587   4.708
 5089TIP3    H115210   3.383   6.533   4.765
 5089TIP3    H215211   3.326   6.540   4.625
 5090TIP3   OH215212   8.115   7.307   1.243
 5090TIP3    H115213   8.156   7.255   1.174
 5090TIP3    H215214   8.134   7.397   1.219
 5091TIP3   OH215215   2.945   1.357   0.963
 5091TIP3    H115216   2.854   1.329   0.950
 5091TIP3    H215217   2.947   1.449   0.935
 5092TIP3   OH215218   3.599   6.496   5.135
 5092TIP3    H115219   3.538   6.447   5.190
 5092TIP3    H215220   3.566   6.586   5.138
 5093TIP3   OH215221   2.749   4.518   2.845
 5093TIP3    H115222   2.803   4.519   2.924
 5093TIP3    H215223   2.673   4.572   2.868
 5094TIP3   OH215224   7.944   4.837   1.115
 5094TIP3    H115225   7.991   4.920   1.104
 5094TIP3    H215226   8.010   4.770   1.097
 5095TIP3   OH215227   4.636   3.009   1.322
 5095TIP3    H115228   4.638   2.914   1.324
 5095TIP3    H215229   4.554   3.032   1.366
 5096TIP3   OH215230   1.363   5.381   1.696
 5096TIP3    H115231   1.439   5.328   1.718
 5096TIP3    H215232   1.288   5.328   1.722
 5097TIP3   OH215233   0.212   1.115   3.910
 5097TIP3    H115234   0.244   1.072   3.990
 5097TIP3    H215235   0.215   1.208   3.930
 5098TIP3   OH215236   5.528   0.974   5.302
 5098TIP3    H115237   5.531   0.881   5.277
 5098TIP3    H215238   5.591   0.981   5.374
 5099TIP3   OH215239   6.899   0.283   0.200
 5099TIP3    H115240   6.986   0.285   0.240
 5099TIP3    H215241   6.901   0.209   0.141
 5100TIP3   OH215242   1.782   5.978   1.920
 5100TIP3    H115243   1.750   5.932   1.843
 5100TIP3    H215244   1.821   6.058   1.886
 5101TIP3   OH215245   6.767   6.828   2.101
 5101TIP3    H115246   6.791   6.801   2.190
 5101TIP3    H215247   6.677   6.796   2.090
 5102TIP3   OH215248   6.849   6.760   3.310
 5102TIP3    H115249   6.830   6.722   3.224
 5102TIP3    H215250   6.923   6.819   3.294
 5103TIP3   OH215251   3.229   5.516   0.389
 5103TIP3    H115252   3.164   5.582   0.411
 5103TIP3    H215253   3.226   5.454   0.462
 5104TIP3   OH215254   3.996   1.726   5.260
 5104TIP3    H115255   4.054   1.717   5.184
 5104TIP3    H215256   3.911   1.696   5.229
 5105TIP3   OH215257   1.029   0.761   4.632
 5105TIP3    H115258   1.120   0.788   4.639
 5105TIP3    H215259   1.031   0.667   4.651
 5106TIP3   OH215260   7.889   2.333   4.099
 5106TIP3    H115261   7.835   2.403   4.063
 5106TIP3    H215262   7.873   2.258   4.042
 5107TIP3   OH215263   4.556   3.823   6.325
 5107TIP3    H115264   4.490   3.842   6.393
 5107TIP3    H215265   4.599   3.907   6.310
 5108TIP3   OH215266   6.249   6.958   3.732
 5108TIP3    H115267   6.260   6.886   3.795
 5108TIP3    H215268   6.319   7.019   3.754
 5109TIP3   OH215269   4.966   4.469   1.453
 5109TIP3    H115270   4.884   4.422   1.469
 5109TIP3    H215271   5.002   4.429   1.374
 5110TIP3   OH215272   4.228   3.772   3.672
 5110TIP3    H115273   4.149   3.826   3.685
 5110TIP3    H215274   4.222   3.744   3.581
 5111TIP3   OH215275   1.120   6.966   4.336
 5111TIP3    H115276   1.062   6.894   4.310
 5111TIP3    H215277   1.206   6.926   4.342
 5112TIP3   OH215278   6.043   3.589   0.734
 5112TIP3    H115279   6.087   3.659   0.781
 5112TIP3    H215280   6.086   3.509   0.764
 5113TIP3   OH215281   4.529   3.790   4.932
 5113TIP3    H115282   4.448   3.742   4.915
 5113TIP3    H215283   4.563   3.753   5.013
 5114TIP3   OH215284   3.012   2.562   5.119
 5114TIP3    H115285   3.096   2.554   5.165
 5114TIP3    H215286   2.946   2.554   5.188
 5115TIP3   OH215287   4.781   0.058   0.128
 5115TIP3    H115288   4.727   0.107   0.190
 5115TIP3    H215289   4.870   0.064   0.165
 5116TIP3   OH215290   0.336   4.448   4.409
 5116TIP3    H115291   0.404   4.515   4.396
 5116TIP3    H215292   0.383   4.365   4.403
 5117TIP3   OH215293   6.120   7.577   1.693
 5117TIP3    H115294   6.090   7.529   1.615
 5117TIP3    H215295   6.146   7.662   1.658
 5118TIP3   OH215296   4.855   3.497   5.775
 5118TIP3    H115297   4.850   3.488   5.870
 5118TIP3    H215298   4.873   3.409   5.743
 5119TIP3   OH215299   3.215   6.586   6.669
 5119TIP3    H115300   3.153   6.634   6.723
 5119TIP3    H215301   3.184   6.495   6.672
 5120TIP3   OH215302   3.737   1.575   2.405
 5120TIP3    H115303   3.674   1.585   2.334
 5120TIP3    H215304   3.684   1.556   2.482
 5121TIP3   OH215305   5.298   4.734   4.922
 5121TIP3    H115306   5.389   4.759   4.933
 5121TIP3    H215307   5.299   4.638   4.926
 5122TIP3   OH215308   8.007   1.610   5.831
 5122TIP3    H115309   7.928   1.662   5.846
 5122TIP3    H215310   8.061   1.663   5.774
 5123TIP3   OH215311   2.084   3.003   0.902
 5123TIP3    H115312   2.090   3.079   0.960
 5123TIP3    H215313   2.015   2.948   0.941
 5124TIP3   OH215314   4.396   2.547   6.030
 5124TIP3    H115315   4.438   2.475   5.982
 5124TIP3    H215316   4.336   2.503   6.090
 5125TIP3   OH215317   2.817   1.540   5.586
 5125TIP3    H115318   2.733   1.578   5.559
 5125TIP3    H215319   2.878   1.565   5.517
 5126TIP3   OH215320   7.163   7.059   5.761
 5126TIP3    H115321   7.202   6.971   5.764
 5126TIP3    H215322   7.132   7.068   5.670
 5127TIP3   OH215323   7.977   7.791   5.688
 5127TIP3    H115324   7.960   7.704   5.652
 5127TIP3    H215325   7.912   7.847   5.647
 5128TIP3   OH215326   4.672   7.518   4.855
 5128TIP3    H115327   4.742   7.515   4.790
 5128TIP3    H215328   4.628   7.602   4.840
 5129TIP3   OH215329   3.559   1.561   0.341
 5129TIP3    H115330   3.509   1.491   0.383
 5129TIP3    H215331   3.617   1.516   0.281
 5130TIP3   OH215332   7.100   2.499   6.554
 5130TIP3    H115333   7.134   2.415   6.583
 5130TIP3    H215334   7.152   2.564   6.601
 5131TIP3   OH215335   7.314   4.143   4.773
 5131TIP3    H115336   7.385   4.204   4.794
 5131TIP3    H215337   7.278   4.119   4.859
 5132TIP3   OH215338   2.576   5.469   0.296
 5132TIP3    H115339   2.630   5.391   0.291
 5132TIP3    H215340   2.546   5.472   0.387
 5133TIP3   OH215341   5.148   6.481   4.990
 5133TIP3    H115342   5.056   6.458   4.978
 5133TIP3    H215343   5.151   6.575   4.973
 5134TIP3   OH215344   3.188   2.772   2.791
 5134TIP3    H115345   3.172   2.777   2.696
 5134TIP3    H215346   3.195   2.678   2.808
 5135TIP3   OH215347   3.202   3.223   0.724
 5135TIP3    H115348   3.144   3.182   0.659
 5135TIP3    H215349   3.257   3.151   0.755
 5136TIP3   OH215350   2.343   7.431   4.255
 5136TIP3    H115351   2.341   7.444   4.160
 5136TIP3    H215352   2.427   7.468   4.282
 5137TIP3   OH215353   7.879   3.951   5.529
 5137TIP3    H115354   7.916   3.916   5.448
 5137TIP3    H215355   7.943   3.928   5.597
 5138TIP3   OH215356   1.466   3.958   0.913
 5138TIP3    H115357   1.505   4.026   0.970
 5138TIP3    H215358   1.377   3.948   0.945
 5139TIP3   OH215359   4.882   7.042   3.632
 5139TIP3    H115360   4.830   6.965   3.657
 5139TIP3    H215361   4.957   7.005   3.585
 5140TIP3   OH215362   4.535   2.040   1.143
 5140TIP3    H115363   4.465   2.048   1.078
 5140TIP3    H215364   4.494   1.995   1.217
 5141TIP3   OH215365   5.080   4.920   6.430
 5141TIP3    H115366   4.998   4.946   6.474
 5141TIP3    H215367   5.138   4.895   6.502
 5142TIP3   OH215368   0.454   1.645   0.637
 5142TIP3    H115369   0.524   1.674   0.578
 5142TIP3    H215370   0.499   1.601   0.709
 5143TIP3   OH215371   1.635   6.553   2.371
 5143TIP3    H115372   1.682   6.473   2.349
 5143TIP3    H215373   1.691   6.598   2.434
 5144TIP3   OH215374   2.854   2.382   4.266
 5144TIP3    H115375   2.908   2.339   4.333
 5144TIP3    H215376   2.881   2.474   4.269
 5145TIP3   OH215377   1.614   7.520   2.424
 5145TIP3    H115378   1.545   7.527   2.358
 5145TIP3    H215379   1.659   7.438   2.403
 5146TIP3   OH215380   4.838   3.454   6.042
 5146TIP3    H115381   4.777   3.382   6.058
 5146TIP3    H215382   4.790   3.533   6.066
 5147TIP3   OH215383   7.558   6.457   2.595
 5147TIP3    H115384   7.590   6.391   2.535
 5147TIP3    H215385   7.464   6.438   2.603
 5148TIP3   OH215386   2.274   5.631   5.865
 5148TIP3    H115387   2.215   5.703   5.844
 5148TIP3    H215388   2.248   5.561   5.805
 5149TIP3   OH215389   3.843   2.065   3.970
 5149TIP3    H115390   3.841   1.969   3.968
 5149TIP3    H215391   3.801   2.088   4.053
 5150TIP3   OH215392   2.184   4.023   4.647
 5150TIP3    H115393   2.110   4.080   4.664
 5150TIP3    H215394   2.239   4.031   4.725
 5151TIP3   OH215395   1.955   7.139   1.017
 5151TIP3    H115396   1.905   7.061   1.044
 5151TIP3    H215397   1.990   7.115   0.931
 5152TIP3   OH215398   5.836   1.451   5.815
 5152TIP3    H115399   5.763   1.390   5.823
 5152TIP3    H215400   5.798   1.536   5.837
 5153TIP3   OH215401   3.122   6.620   2.796
 5153TIP3    H115402   3.029   6.611   2.775
 5153TIP3    H215403   3.135   6.566   2.874
 5154TIP3   OH215404   2.265   7.120   1.053
 5154TIP3    H115405   2.282   7.084   0.966
 5154TIP3    H215406   2.323   7.071   1.112
 5155TIP3   OH215407   2.584   5.776   1.759
 5155TIP3    H115408   2.554   5.728   1.835
 5155TIP3    H215409   2.569   5.868   1.781
 5156TIP3   OH215410   4.412   3.777   6.545
 5156TIP3    H115411   4.378   3.695   6.580
 5156TIP3    H215412   4.462   3.815   6.617
 5157TIP3   OH215413   4.670   6.097   4.612
 5157TIP3    H115414   4.748   6.049   4.586
 5157TIP3    H215415   4.694   6.140   4.694
 5158TIP3   OH215416   7.451   3.226   3.671
 5158TIP3    H115417   7.517   3.276   3.623
 5158TIP3    H215418   7.465   3.135   3.645
 5159TIP3   OH215419   4.133   6.942   5.278
 5159TIP3    H115420   4.096   6.912   5.194
 5159TIP3    H215421   4.096   7.030   5.289
 5160TIP3   OH215422   7.632   0.103   4.733
 5160TIP3    H115423   7.682   0.163   4.678
 5160TIP3    H215424   7.677   0.019   4.725
 5161TIP3   OH215425   7.810   7.703   6.527
 5161TIP3    H115426   7.743   7.753   6.480
 5161TIP3    H215427   7.867   7.770   6.565
 5162TIP3   OH215428   7.185   2.905   2.151
 5162TIP3    H115429   7.183   2.989   2.197
 5162TIP3    H215430   7.236   2.923   2.071
 5163TIP3   OH215431   3.026   1.445   6.034
 5163TIP3    H115432   2.951   1.443   6.094
 5163TIP3    H215433   3.003   1.512   5.970
 5164TIP3   OH215434   7.207   3.148   1.370
 5164TIP3    H115435   7.284   3.152   1.312
 5164TIP3    H215436   7.216   3.065   1.416
 5165TIP3   OH215437   3.387   4.954   5.687
 5165TIP3    H115438   3.307   4.971   5.638
 5165TIP3    H215439   3.420   5.041   5.709
 5166TIP3   OH215440   5.731   4.502   3.871
 5166TIP3    H115441   5.799   4.496   3.938
 5166TIP3    H215442   5.722   4.596   3.855
 5167TIP3   OH215443   7.472   2.386   6.662
 5167TIP3    H115444   7.442   2.442   6.591
 5167TIP3    H215445   7.547   2.432   6.700
 5168TIP3   OH215446   5.019   2.092   2.022
 5168TIP3    H115447   5.027   2.041   2.102
 5168TIP3    H215448   5.104   2.082   1.978
 5169TIP3   OH215449   3.085   0.736   0.324
 5169TIP3    H115450   3.043   0.669   0.377
 5169TIP3    H215451   3.168   0.754   0.368
 5170TIP3   OH215452   2.265   1.970   6.479
 5170TIP3    H115453   2.347   1.978   6.430
 5170TIP3    H215454   2.206   1.924   6.419
 5171TIP3   OH215455   1.121   4.783   1.878
 5171TIP3    H115456   1.065   4.825   1.813
 5171TIP3    H215457   1.088   4.815   1.962
 5172TIP3   OH215458   4.769   5.244   5.046
 5172TIP3    H115459   4.731   5.266   4.961
 5172TIP3    H215460   4.765   5.325   5.096
 5173TIP3   OH215461   8.095   3.528   4.588
 5173TIP3    H115462   8.066   3.439   4.608
 5173TIP3    H215463   8.185   3.518   4.559
 5174TIP3   OH215464   4.367   4.282   6.239
 5174TIP3    H115465   4.275   4.274   6.214
 5174TIP3    H215466   4.415   4.276   6.156
 5175TIP3   OH215467   3.703   0.312   6.687
 5175TIP3    H115468   3.684   0.226   6.724
 5175TIP3    H215469   3.796   0.327   6.708
 5176TIP3   OH215470   0.481   2.169   6.310
 5176TIP3    H115471   0.456   2.260   6.293
 5176TIP3    H215472   0.453   2.122   6.232
 5177TIP3   OH215473   0.643   1.522   0.802
 5177TIP3    H115474   0.630   1.578   0.879
 5177TIP3    H215475   0.735   1.533   0.779
 5178TIP3   OH215476   0.623   1.441   4.106
 5178TIP3    H115477   0.609   1.449   4.200
 5178TIP3    H215478   0.587   1.355   4.084
 5179TIP3   OH215479   4.946   7.452   4.139
 5179TIP3    H115480   4.979   7.466   4.050
 5179TIP3    H215481   4.860   7.412   4.127
 5180TIP3   OH215482   0.726   1.608   4.889
 5180TIP3    H115483   0.785   1.655   4.948
 5180TIP3    H215484   0.783   1.551   4.838
 5181TIP3   OH215485   3.715   3.349   6.628
 5181TIP3    H115486   3.631   3.329   6.586
 5181TIP3    H215487   3.774   3.365   6.554
 5182TIP3   OH215488   0.490   0.372   4.188
 5182TIP3    H115489   0.497   0.279   4.169
 5182TIP3    H215490   0.395   0.388   4.191
 5183TIP3   OH215491   0.174   3.978   4.261
 5183TIP3    H115492   0.190   4.031   4.183
 5183TIP3    H215493   0.081   3.956   4.256
 5184TIP3   OH215494   4.998   7.248   4.330
 5184TIP3    H115495   4.985   7.331   4.285
 5184TIP3    H215496   4.962   7.182   4.270
 5185TIP3   OH215497   0.596   2.230   4.845
 5185TIP3    H115498   0.664   2.177   4.886
 5185TIP3    H215499   0.583   2.190   4.759
 5186TIP3   OH215500   2.513   1.916   2.107
 5186TIP3    H115501   2.480   1.832   2.138
 5186TIP3    H215502   2.490   1.978   2.175
 5187TIP3   OH215503   8.319   1.333   6.029
 5187TIP3    H115504   8.253   1.400   6.050
 5187TIP3    H215505   8.272   1.250   6.040
 5188TIP3   OH215506   2.363   6.043   5.915
 5188TIP3    H115507   2.445   6.051   5.867
 5188TIP3    H215508   2.311   6.117   5.886
 5189TIP3   OH215509   0.085   7.719   4.331
 5189TIP3    H115510   0.001   7.686   4.363
 5189TIP3    H215511   0.135   7.740   4.410
 5190TIP3   OH215512   5.154   2.671   4.025
 5190TIP3    H115513   5.117   2.739   3.969
 5190TIP3    H215514   5.086   2.603   4.027
 5191TIP3   OH215515   0.905   0.819   0.939
 5191TIP3    H115516   0.949   0.841   1.021
 5191TIP3    H215517   0.878   0.728   0.950
 5192TIP3   OH215518   0.747   0.146   5.831
 5192TIP3    H115519   0.776   0.237   5.831
 5192TIP3    H215520   0.822   0.097   5.798
 5193TIP3   OH215521   6.351   4.202   6.631
 5193TIP3    H115522   6.446   4.199   6.621
 5193TIP3    H215523   6.329   4.119   6.675
 5194TIP3   OH215524   5.387   2.883   0.604
 5194TIP3    H115525   5.412   2.929   0.524
 5194TIP3    H215526   5.356   2.798   0.574
 5195TIP3   OH215527   4.230   3.930   1.282
 5195TIP3    H115528   4.174   3.902   1.209
 5195TIP3    H215529   4.274   4.009   1.249
 5196TIP3   OH215530   0.714   0.599   2.637
 5196TIP3    H115531   0.737   0.518   2.591
 5196TIP3    H215532   0.668   0.651   2.571
 5197TIP3   OH215533   4.156   4.819   5.425
 5197TIP3    H115534   4.140   4.874   5.501
 5197TIP3    H215535   4.214   4.750   5.458
 5198TIP3   OH215536   7.387   5.737   2.422
 5198TIP3    H115537   7.358   5.751   2.512
 5198TIP3    H215538   7.331   5.796   2.370
 5199TIP3   OH215539   6.541   3.770   2.330
 5199TIP3    H115540   6.534   3.850   2.382
 5199TIP3    H215541   6.465   3.718   2.357
 5200TIP3   OH215542   0.543   1.410   1.575
 5200TIP3    H115543   0.619   1.392   1.521
 5200TIP3    H215544   0.529   1.504   1.567
 5201TIP3   OH215545   0.319   4.420   6.398
 5201TIP3    H115546   0.284   4.416   6.310
 5201TIP3    H215547   0.256   4.474   6.447
 5202TIP3   OH215548   2.828   4.863   2.904
 5202TIP3    H115549   2.922   4.853   2.919
 5202TIP3    H215550   2.822   4.932   2.838
 5203TIP3   OH215551   3.888   2.612   2.335
 5203TIP3    H115552   3.857   2.685   2.387
 5203TIP3    H215553   3.914   2.651   2.251
 5204TIP3   OH215554   3.963   3.737   6.261
 5204TIP3    H115555   3.902   3.726   6.334
 5204TIP3    H215556   4.049   3.743   6.302
 5205TIP3   OH215557   2.279   3.236   4.076
 5205TIP3    H115558   2.316   3.273   4.156
 5205TIP3    H215559   2.254   3.147   4.101
 5206TIP3   OH215560   6.742   2.499   2.896
 5206TIP3    H115561   6.746   2.494   2.800
 5206TIP3    H215562   6.715   2.411   2.923
 5207TIP3   OH215563   7.922   4.362   3.428
 5207TIP3    H115564   7.991   4.295   3.432
 5207TIP3    H215565   7.846   4.320   3.470
 5208TIP3   OH215566   6.307   6.227   3.860
 5208TIP3    H115567   6.400   6.228   3.840
 5208TIP3    H215568   6.269   6.168   3.795
 5209TIP3   OH215569   2.777   6.916   1.468
 5209TIP3    H115570   2.832   6.981   1.425
 5209TIP3    H215571   2.722   6.966   1.528
 5210TIP3   OH215572   6.401   6.549   0.670
 5210TIP3    H115573   6.481   6.599   0.657
 5210TIP3    H215574   6.424   6.484   0.737
 5211TIP3   OH215575   2.767   2.256   4.014
 5211TIP3    H115576   2.677   2.224   4.016
 5211TIP3    H215577   2.783   2.290   4.102
 5212TIP3   OH215578   0.368   0.149   4.445
 5212TIP3    H115579   0.377   0.063   4.404
 5212TIP3    H215580   0.281   0.179   4.419
 5213TIP3   OH215581   7.213   6.211   3.273
 5213TIP3    H115582   7.172   6.265   3.205
 5213TIP3    H215583   7.190   6.253   3.355
 5214TIP3   OH215584   1.956   4.944   5.752
 5214TIP3    H115585   1.871   4.982   5.734
 5214TIP3    H215586   2.005   5.013   5.797
 5215TIP3   OH215587   8.223   6.857   0.067
 5215TIP3    H115588   8.300   6.890   0.112
 5215TIP3    H215589   8.228   6.895  -0.021
 5216TIP3   OH215590   6.012   0.227   2.058
 5216TIP3    H115591   6.077   0.163   2.087
 5216TIP3    H215592   5.946   0.176   2.013
 5217TIP3   OH215593   1.295   5.498   2.293
 5217TIP3    H115594   1.254   5.532   2.373
 5217TIP3    H215595   1.363   5.561   2.273
 5218TIP3   OH215596   2.013   0.803   1.715
 5218TIP3    H115597   1.939   0.859   1.692
 5218TIP3    H215598   1.977   0.739   1.776
 5219TIP3   OH215599   0.971   4.211   0.017
 5219TIP3    H115600   0.879   4.234   0.030
 5219TIP3    H215601   0.973   4.169  -0.069
 5220TIP3   OH215602   1.343   2.525   5.422
 5220TIP3    H115603   1.407   2.466   5.460
 5220TIP3    H215604   1.391   2.607   5.408
 5221TIP3   OH215605   6.875   4.095   4.339
 5221TIP3    H115606   6.944   4.040   4.377
 5221TIP3    H215607   6.854   4.052   4.256
 5222TIP3   OH215608   5.289   4.032   4.069
 5222TIP3    H115609   5.217   4.057   4.011
 5222TIP3    H215610   5.280   4.089   4.145
 5223TIP3   OH215611   3.695   6.567   0.872
 5223TIP3    H115612   3.658   6.590   0.787
 5223TIP3    H215613   3.743   6.486   0.856
 5224TIP3   OH215614   0.653   4.931   3.395
 5224TIP3    H115615   0.567   4.948   3.432
 5224TIP3    H215616   0.650   4.839   3.369
 5225TIP3   OH215617   2.756   4.936   1.856
 5225TIP3    H115618   2.804   4.853   1.864
 5225TIP3    H215619   2.773   4.982   1.938
 5226TIP3   OH215620   3.244   2.401   6.373
 5226TIP3    H115621   3.247   2.494   6.393
 5226TIP3    H215622   3.269   2.358   6.454
 5227TIP3   OH215623   5.012   0.534   3.280
 5227TIP3    H115624   5.002   0.459   3.222
 5227TIP3    H215625   5.093   0.516   3.328
 5228TIP3   OH215626   8.244   7.441   3.645
 5228TIP3    H115627   8.308   7.498   3.688
 5228TIP3    H215628   8.177   7.425   3.711
 5229TIP3   OH215629   8.259   6.120   4.838
 5229TIP3    H115630   8.188   6.109   4.774
 5229TIP3    H215631   8.251   6.045   4.896
 5230TIP3   OH215632   7.355   1.278   4.208
 5230TIP3    H115633   7.370   1.365   4.247
 5230TIP3    H215634   7.393   1.218   4.272
 5231TIP3   OH215635   6.451   1.817   5.197
 5231TIP3    H115636   6.526   1.875   5.208
 5231TIP3    H215637   6.391   1.864   5.140
 5232TIP3   OH215638   1.115   6.334   3.129
 5232TIP3    H115639   1.181   6.281   3.174
 5232TIP3    H215640   1.118   6.419   3.173
 5233TIP3   OH215641   2.183   2.544   5.440
 5233TIP3    H115642   2.183   2.511   5.351
 5233TIP3    H215643   2.213   2.470   5.493
 5234TIP3   OH215644   3.175   0.147   4.708
 5234TIP3    H115645   3.267   0.160   4.684
 5234TIP3    H215646   3.176   0.145   4.804
 5235TIP3   OH215647   3.489   6.811   0.718
 5235TIP3    H115648   3.493   6.791   0.812
 5235TIP3    H215649   3.580   6.814   0.690
 5236TIP3   OH215650   4.717   2.346   3.806
 5236TIP3    H115651   4.768   2.271   3.779
 5236TIP3    H215652   4.627   2.314   3.808
 5237TIP3   OH215653   6.964   4.073   1.918
 5237TIP3    H115654   6.917   4.124   1.852
 5237TIP3    H215655   7.052   4.111   1.918
 5238TIP3   OH215656   6.681   5.452   6.132
 5238TIP3    H115657   6.642   5.365   6.125
 5238TIP3    H215658   6.766   5.444   6.088
 5239TIP3   OH215659   0.066   4.515   1.739
 5239TIP3    H115660   0.124   4.543   1.811
 5239TIP3    H215661  -0.016   4.494   1.783
 5240TIP3   OH215662   7.904   0.212   2.620
 5240TIP3    H115663   7.861   0.161   2.552
 5240TIP3    H215664   7.997   0.207   2.598
 5241TIP3   OH215665   1.673   1.220   2.941
 5241TIP3    H115666   1.669   1.315   2.951
 5241TIP3    H215667   1.584   1.190   2.957
 5242TIP3   OH215668   0.422   7.613   3.157
 5242TIP3    H115669   0.355   7.565   3.109
 5242TIP3    H215670   0.490   7.631   3.092
 5243TIP3   OH215671   4.123   5.123   0.336
 5243TIP3    H115672   4.056   5.132   0.403
 5243TIP3    H215673   4.077   5.091   0.259
 5244TIP3   OH215674   7.508   1.996   0.658
 5244TIP3    H115675   7.542   2.086   0.649
 5244TIP3    H215676   7.413   2.007   0.668
 5245TIP3   OH215677   0.983   7.588   5.113
 5245TIP3    H115678   1.007   7.597   5.020
 5245TIP3    H215679   0.985   7.494   5.129
 5246TIP3   OH215680   4.187   2.233   4.720
 5246TIP3    H115681   4.263   2.289   4.736
 5246TIP3    H215682   4.224   2.155   4.678
 5247TIP3   OH215683   5.700   3.273   5.428
 5247TIP3    H115684   5.662   3.359   5.445
 5247TIP3    H215685   5.760   3.287   5.355
 5248TIP3   OH215686   6.377   6.364   2.685
 5248TIP3    H115687   6.452   6.423   2.690
 5248TIP3    H215688   6.382   6.326   2.597
 5249TIP3   OH215689   6.200   1.687   5.721
 5249TIP3    H115690   6.207   1.591   5.717
 5249TIP3    H215691   6.115   1.706   5.681
 5250TIP3   OH215692   7.601   7.522   4.527
 5250TIP3    H115693   7.597   7.448   4.467
 5250TIP3    H215694   7.689   7.559   4.515
 5251TIP3   OH215695   0.968   6.160   0.280
 5251TIP3    H115696   0.908   6.129   0.212
 5251TIP3    H215697   0.948   6.254   0.288
 5252TIP3   OH215698   1.367   3.821   0.444
 5252TIP3    H115699   1.402   3.816   0.533
 5252TIP3    H215700   1.287   3.872   0.452
 5253TIP3   OH215701   5.944   7.331   6.221
 5253TIP3    H115702   5.993   7.282   6.155
 5253TIP3    H215703   5.986   7.417   6.224
 5254TIP3   OH215704   2.102   3.047   5.744
 5254TIP3    H115705   2.085   3.121   5.802
 5254TIP3    H215706   2.093   2.970   5.800
 5255TIP3   OH215707   1.705   3.179   2.557
 5255TIP3    H115708   1.798   3.183   2.580
 5255TIP3    H215709   1.702   3.198   2.463
 5256TIP3   OH215710   2.145   3.917   0.820
 5256TIP3    H115711   2.049   3.917   0.822
 5256TIP3    H215712   2.171   3.930   0.911
 5257TIP3   OH215713   3.118   6.065   6.196
 5257TIP3    H115714   3.170   6.090   6.120
 5257TIP3    H215715   3.127   5.970   6.202
 5258TIP3   OH215716   1.474   6.940   6.358
 5258TIP3    H115717   1.468   6.995   6.281
 5258TIP3    H215718   1.383   6.913   6.376
 5259TIP3   OH215719   6.034   6.543   1.308
 5259TIP3    H115720   5.960   6.593   1.275
 5259TIP3    H215721   6.109   6.577   1.259
 5260TIP3   OH215722   4.213   4.989   3.802
 5260TIP3    H115723   4.282   5.052   3.824
 5260TIP3    H215724   4.191   5.008   3.711
 5261TIP3   OH215725   6.807   4.959   6.367
 5261TIP3    H115726   6.713   4.973   6.370
 5261TIP3    H215727   6.834   4.996   6.283
 5262TIP3   OH215728   0.795   0.977   2.761
 5262TIP3    H115729   0.884   1.010   2.750
 5262TIP3    H215730   0.744   1.024   2.695
 5263TIP3   OH215731   0.953   0.814   3.777
 5263TIP3    H115732   0.876   0.810   3.833
 5263TIP3    H215733   0.918   0.833   3.690
 5264TIP3   OH215734   0.870   7.268   5.694
 5264TIP3    H115735   0.923   7.288   5.771
 5264TIP3    H215736   0.787   7.312   5.710
 5265TIP3   OH215737   6.488   4.149   3.792
 5265TIP3    H115738   6.542   4.072   3.811
 5265TIP3    H215739   6.400   4.122   3.816
 5266TIP3   OH215740   0.151   7.671   2.040
 5266TIP3    H115741   0.074   7.718   2.006
 5266TIP3    H215742   0.226   7.718   2.003
 5267TIP3   OH215743   6.453   4.166   0.424
 5267TIP3    H115744   6.408   4.251   0.430
 5267TIP3    H215745   6.546   4.189   0.415
 5268TIP3   OH215746   2.236   1.170   4.911
 5268TIP3    H115747   2.261   1.161   5.003
 5268TIP3    H215748   2.244   1.081   4.876
 5269TIP3   OH215749   1.575   5.529   3.686
 5269TIP3    H115750   1.629   5.552   3.762
 5269TIP3    H215751   1.604   5.590   3.618
 5270TIP3   OH215752   4.099   2.463   1.682
 5270TIP3    H115753   4.105   2.558   1.688
 5270TIP3    H215754   4.099   2.432   1.772
 5271TIP3   OH215755   3.799   4.699   4.019
 5271TIP3    H115756   3.720   4.737   3.982
 5271TIP3    H215757   3.769   4.620   4.065
 5272TIP3   OH215758   7.396   6.425   3.679
 5272TIP3    H115759   7.372   6.405   3.770
 5272TIP3    H215760   7.468   6.365   3.660
 5273TIP3   OH215761   7.000   4.820   0.429
 5273TIP3    H115762   6.937   4.826   0.500
 5273TIP3    H215763   6.998   4.906   0.387
 5274TIP3   OH215764   3.467   5.570   1.902
 5274TIP3    H115765   3.528   5.635   1.866
 5274TIP3    H215766   3.512   5.486   1.890
 5275TIP3   OH215767   3.265   0.265   0.406
 5275TIP3    H115768   3.351   0.285   0.444
 5275TIP3    H215769   3.258   0.170   0.412
 5276TIP3   OH215770   2.736   7.777   1.793
 5276TIP3    H115771   2.661   7.798   1.737
 5276TIP3    H215772   2.776   7.701   1.752
 5277TIP3   OH215773   4.368   1.290   0.388
 5277TIP3    H115774   4.390   1.260   0.299
 5277TIP3    H215775   4.357   1.385   0.379
 5278TIP3   OH215776   0.330   3.925   4.718
 5278TIP3    H115777   0.259   3.979   4.682
 5278TIP3    H215778   0.330   3.945   4.811
 5279TIP3   OH215779   7.143   2.123   2.502
 5279TIP3    H115780   7.114   2.053   2.445
 5279TIP3    H215781   7.207   2.082   2.560
 5280TIP3   OH215782   4.721   3.366   0.933
 5280TIP3    H115783   4.691   3.420   1.006
 5280TIP3    H215784   4.794   3.315   0.969
 5281TIP3   OH215785   2.283   0.011   1.525
 5281TIP3    H115786   2.318   0.099   1.510
 5281TIP3    H215787   2.322  -0.042   1.456
 5282TIP3   OH215788   7.613   3.014   2.838
 5282TIP3    H115789   7.554   3.077   2.796
 5282TIP3    H215790   7.554   2.952   2.882
 5283TIP3   OH215791   3.379   7.126   4.679
 5283TIP3    H115792   3.407   7.162   4.763
 5283TIP3    H215793   3.306   7.068   4.701
 5284TIP3   OH215794   6.616   1.834   2.047
 5284TIP3    H115795   6.581   1.747   2.027
 5284TIP3    H215796   6.643   1.869   1.962
 5285TIP3   OH215797   0.562   5.813   6.642
 5285TIP3    H115798   0.505   5.888   6.628
 5285TIP3    H215799   0.576   5.777   6.554
 5286TIP3   OH215800   1.135   4.420   4.383
 5286TIP3    H115801   1.047   4.405   4.419
 5286TIP3    H215802   1.191   4.361   4.434
 5287TIP3   OH215803   0.682   2.122   4.375
 5287TIP3    H115804   0.777   2.129   4.364
 5287TIP3    H215805   0.648   2.204   4.338
 5288TIP3   OH215806   4.166   5.045   4.594
 5288TIP3    H115807   4.166   5.033   4.689
 5288TIP3    H215808   4.105   4.979   4.561
 5289TIP3   OH215809   7.954   6.124   2.395
 5289TIP3    H115810   7.946   6.033   2.366
 5289TIP3    H215811   7.962   6.174   2.314
 5290TIP3   OH215812   1.053   0.895   1.466
 5290TIP3    H115813   1.124   0.884   1.529
 5290TIP3    H215814   0.995   0.821   1.483
 5291TIP3   OH215815   5.175   5.537   5.696
 5291TIP3    H115816   5.122   5.606   5.657
 5291TIP3    H215817   5.111   5.474   5.730
 5292TIP3   OH215818   4.364   3.418   5.909
 5292TIP3    H115819   4.379   3.512   5.908
 5292TIP3    H215820   4.319   3.401   5.991
 5293TIP3   OH215821   7.304   2.361   0.078
 5293TIP3    H115822   7.378   2.350   0.138
 5293TIP3    H215823   7.261   2.276   0.078
 5294TIP3   OH215824   1.239   1.134   1.640
 5294TIP3    H115825   1.215   1.176   1.722
 5294TIP3    H215826   1.246   1.041   1.662
 5295TIP3   OH215827   1.532   2.774   2.834
 5295TIP3    H115828   1.537   2.826   2.914
 5295TIP3    H215829   1.571   2.829   2.767
 5296TIP3   OH215830   2.469   0.269   1.767
 5296TIP3    H115831   2.548   0.323   1.764
 5296TIP3    H215832   2.491   0.192   1.715
 5297TIP3   OH215833   4.093   7.571   3.591
 5297TIP3    H115834   4.083   7.666   3.591
 5297TIP3    H215835   4.160   7.554   3.525
 5298TIP3   OH215836   5.063   4.733   5.069
 5298TIP3    H115837   5.154   4.743   5.043
 5298TIP3    H215838   5.066   4.709   5.161
 5299TIP3   OH215839   6.530   4.983   6.350
 5299TIP3    H115840   6.466   5.015   6.414
 5299TIP3    H215841   6.492   4.902   6.317
 5300TIP3   OH215842   7.915   4.001   1.720
 5300TIP3    H115843   7.949   3.952   1.645
 5300TIP3    H215844   7.976   3.980   1.791
 5301TIP3   OH215845   0.129   7.625   1.322
 5301TIP3    H115846   0.087   7.679   1.389
 5301TIP3    H215847   0.177   7.558   1.371
 5302TIP3   OH215848   1.607   5.861   4.390
 5302TIP3    H115849   1.660   5.931   4.352
 5302TIP3    H215850   1.667   5.814   4.449
 5303TIP3   OH215851   5.804   4.111   3.558
 5303TIP3    H115852   5.823   4.202   3.579
 5303TIP3    H215853   5.750   4.080   3.631
 5304TIP3   OH215854   0.782   4.862   2.587
 5304TIP3    H115855   0.849   4.918   2.547
 5304TIP3    H215856   0.768   4.792   2.523
 5305TIP3   OH215857   4.126   2.066   2.730
 5305TIP3    H115858   4.122   2.122   2.653
 5305TIP3    H215859   4.178   2.115   2.793
 5306TIP3   OH215860   5.884   4.581   4.102
 5306TIP3    H115861   5.942   4.520   4.147
 5306TIP3    H215862   5.877   4.656   4.160
 5307TIP3   OH215863   3.185   4.386   5.055
 5307TIP3    H115864   3.279   4.372   5.040
 5307TIP3    H215865   3.155   4.304   5.095
 5308TIP3   OH215866   0.166   3.081   0.205
 5308TIP3    H115867   0.258   3.077   0.232
 5308TIP3    H215868   0.168   3.060   0.111
 5309TIP3   OH215869   7.241   3.522   1.475
 5309TIP3    H115870   7.327   3.511   1.516
 5309TIP3    H215871   7.250   3.481   1.389
 5310TIP3   OH215872   8.164   3.343   3.369
 5310TIP3    H115873   8.073   3.352   3.339
 5310TIP3    H215874   8.208   3.421   3.336
 5311TIP3   OH215875   1.942   7.452   3.912
 5311TIP3    H115876   1.862   7.403   3.930
 5311TIP3    H215877   1.982   7.464   3.998
 5312TIP3   OH215878   5.054   3.585   5.412
 5312TIP3    H115879   5.051   3.650   5.341
 5312TIP3    H215880   5.038   3.502   5.368
 5313TIP3   OH215881   1.371   1.252   0.601
 5313TIP3    H115882   1.444   1.252   0.663
 5313TIP3    H215883   1.314   1.323   0.630
 5314TIP3   OH215884   3.992   7.783   3.280
 5314TIP3    H115885   4.033   7.829   3.207
 5314TIP3    H215886   4.039   7.814   3.358
 5315TIP3   OH215887   2.007   1.611   2.977
 5315TIP3    H115888   1.987   1.559   3.055
 5315TIP3    H215889   1.954   1.571   2.908
 5316TIP3   OH215890   6.471   5.878   4.404
 5316TIP3    H115891   6.408   5.893   4.334
 5316TIP3    H215892   6.467   5.957   4.457
 5317TIP3   OH215893   4.382   1.247   2.253
 5317TIP3    H115894   4.354   1.323   2.304
 5317TIP3    H215895   4.335   1.254   2.171
 5318TIP3   OH215896   1.126   3.414   1.944
 5318TIP3    H115897   1.117   3.440   2.036
 5318TIP3    H215898   1.094   3.489   1.894
 5319TIP3   OH215899   7.690   1.182   3.772
 5319TIP3    H115900   7.751   1.155   3.841
 5319TIP3    H215901   7.604   1.175   3.812
 5320TIP3   OH215902   7.403   2.458   1.639
 5320TIP3    H115903   7.460   2.383   1.657
 5320TIP3    H215904   7.454   2.514   1.581
 5321TIP3   OH215905   8.012   0.366   5.338
 5321TIP3    H115906   7.918   0.369   5.325
 5321TIP3    H215907   8.046   0.445   5.296
 5322TIP3   OH215908   1.438   6.588   0.110
 5322TIP3    H115909   1.442   6.529   0.036
 5322TIP3    H215910   1.432   6.531   0.187
 5323TIP3   OH215911   4.303   0.715   2.681
 5323TIP3    H115912   4.249   0.682   2.609
 5323TIP3    H215913   4.366   0.645   2.697
 5324TIP3   OH215914   2.458   0.418   4.566
 5324TIP3    H115915   2.459   0.370   4.649
 5324TIP3    H215916   2.542   0.398   4.526
 5325TIP3   OH215917   0.102   2.304   5.109
 5325TIP3    H115918   0.089   2.391   5.071
 5325TIP3    H215919   0.156   2.258   5.046
 5326TIP3   OH215920   1.708   0.045   1.684
 5326TIP3    H115921   1.699   0.061   1.590
 5326TIP3    H215922   1.792  -0.001   1.692
 5327TIP3   OH215923   1.120   6.544   6.306
 5327TIP3    H115924   1.209   6.511   6.324
 5327TIP3    H215925   1.080   6.477   6.252
 5328TIP3   OH215926   2.602   3.037   5.157
 5328TIP3    H115927   2.530   3.006   5.101
 5328TIP3    H215928   2.682   3.012   5.110
 5329TIP3   OH215929   5.835   1.249   3.807
 5329TIP3    H115930   5.745   1.227   3.832
 5329TIP3    H215931   5.866   1.307   3.876
 5330TIP3   OH215932   3.903   0.386   2.644
 5330TIP3    H115933   3.994   0.373   2.617
 5330TIP3    H215934   3.871   0.297   2.662
 5331TIP3   OH215935   5.031   6.629   0.657
 5331TIP3    H115936   4.992   6.712   0.629
 5331TIP3    H215937   5.123   6.649   0.673
 5332TIP3   OH215938   7.603   6.251   3.635
 5332TIP3    H115939   7.694   6.280   3.633
 5332TIP3    H215940   7.609   6.156   3.648
 5333TIP3   OH215941   0.834   1.279   1.994
 5333TIP3    H115942   0.881   1.265   1.912
 5333TIP3    H215943   0.745   1.249   1.975
 5334TIP3   OH215944   4.624   2.517   3.528
 5334TIP3    H115945   4.655   2.606   3.543
 5334TIP3    H215946   4.647   2.470   3.608
 5335TIP3   OH215947   3.103   3.072   1.945
 5335TIP3    H115948   3.071   3.162   1.958
 5335TIP3    H215949   3.095   3.031   2.031
 5336TIP3   OH215950   8.287   3.907   0.676
 5336TIP3    H115951   8.271   3.970   0.605
 5336TIP3    H215952   8.207   3.910   0.728
 5337TIP3   OH215953   7.465   2.350   0.868
 5337TIP3    H115954   7.370   2.336   0.871
 5337TIP3    H215955   7.476   2.420   0.803
 5338TIP3   OH215956   4.108   6.236   1.741
 5338TIP3    H115957   4.082   6.309   1.685
 5338TIP3    H215958   4.144   6.171   1.680
 5339TIP3   OH215959   5.244   1.287   3.911
 5339TIP3    H115960   5.304   1.308   3.982
 5339TIP3    H215961   5.291   1.314   3.831
 5340TIP3   OH215962   4.277   1.838   3.299
 5340TIP3    H115963   4.261   1.833   3.393
 5340TIP3    H215964   4.192   1.820   3.259
 5341TIP3   OH215965   3.271   3.533   6.039
 5341TIP3    H115966   3.314   3.547   5.955
 5341TIP3    H215967   3.300   3.446   6.066
 5342TIP3   OH215968   1.411   2.440   4.513
 5342TIP3    H115969   1.447   2.433   4.424
 5342TIP3    H215970   1.483   2.474   4.565
 5343TIP3   OH215971   8.139   4.943   2.370
 5343TIP3    H115972   8.175   4.859   2.343
 5343TIP3    H215973   8.045   4.935   2.356
 5344TIP3   OH215974   3.357   3.023   2.472
 5344TIP3    H115975   3.308   3.050   2.550
 5344TIP3    H215976   3.449   3.028   2.500
 5345TIP3   OH215977   5.376   7.690   3.722
 5345TIP3    H115978   5.309   7.759   3.722
 5345TIP3    H215979   5.403   7.683   3.814
 5346TIP3   OH215980   0.726   4.597   5.779
 5346TIP3    H115981   0.744   4.515   5.734
 5346TIP3    H215982   0.631   4.606   5.774
 5347TIP3   OH215983   0.132   5.690   4.003
 5347TIP3    H115984   0.204   5.648   3.955
 5347TIP3    H215985   0.077   5.618   4.032
 5348TIP3   OH215986   1.103   7.600   0.319
 5348TIP3    H115987   1.177   7.586   0.260
 5348TIP3    H215988   1.116   7.536   0.389
 5349TIP3   OH215989   5.016   3.279   1.480
 5349TIP3    H115990   5.040   3.358   1.528
 5349TIP3    H215991   4.953   3.235   1.537
 5350TIP3   OH215992   4.376   5.899   1.682
 5350TIP3    H115993   4.322   5.825   1.711
 5350TIP3    H215994   4.460   5.859   1.658
 5351TIP3   OH215995   7.530   3.350   4.581
 5351TIP3    H115996   7.561   3.400   4.656
 5351TIP3    H215997   7.546   3.407   4.506
 5352TIP3   OH215998   4.037   2.477   1.420
 5352TIP3    H115999   4.054   2.565   1.387
 5352TIP3    H216000   4.055   2.483   1.514
 5353TIP3   OH216001   2.117   6.799   6.010
 5353TIP3    H116002   2.083   6.831   6.093
 5353TIP3    H216003   2.044   6.811   5.948
 5354TIP3   OH216004   3.522   5.559   3.832
 5354TIP3    H116005   3.496   5.508   3.909
 5354TIP3    H216006   3.617   5.548   3.827
 5355TIP3   OH216007   7.745   4.675   1.005
 5355TIP3    H116008   7.674   4.659   1.068
 5355TIP3    H216009   7.800   4.741   1.048
 5356TIP3   OH216010   6.599   2.730   1.990
 5356TIP3    H116011   6.566   2.669   2.056
 5356TIP3    H216012   6.685   2.696   1.966
 5357TIP3   OH216013   6.978   0.648   6.259
 5357TIP3    H116014   7.044   0.621   6.324
 5357TIP3    H216015   6.895   0.615   6.295
 5358TIP3   OH216016   6.316   3.155   2.233
 5358TIP3    H116017   6.298   3.235   2.184
 5358TIP3    H216018   6.351   3.095   2.167
 5359TIP3   OH216019   0.965   5.171   3.481
 5359TIP3    H116020   0.931   5.198   3.396
 5359TIP3    H216021   0.914   5.092   3.503
 5360TIP3   OH216022   1.244   6.415   3.765
 5360TIP3    H116023   1.203   6.419   3.851
 5360TIP3    H216024   1.300   6.338   3.768
 5361TIP3   OH216025   5.753   5.657   5.966
 5361TIP3    H116026   5.829   5.600   5.981
 5361TIP3    H216027   5.788   5.746   5.973
 5362TIP3   OH216028   1.869   6.882   2.586
 5362TIP3    H116029   1.885   6.794   2.552
 5362TIP3    H216030   1.778   6.880   2.614
 5363TIP3   OH216031   6.964   0.852   0.769
 5363TIP3    H116032   7.035   0.818   0.714
 5363TIP3    H216033   7.006   0.878   0.850
 5364TIP3   OH216034   2.355   6.815   4.274
 5364TIP3    H116035   2.328   6.836   4.363
 5364TIP3    H216036   2.288   6.855   4.218
 5365TIP3   OH216037   6.249   7.482   6.717
 5365TIP3    H116038   6.322   7.533   6.753
 5365TIP3    H216039   6.209   7.541   6.652
 5366TIP3   OH216040   7.565   6.062   4.539
 5366TIP3    H116041   7.478   6.044   4.575
 5366TIP3    H216042   7.624   6.007   4.591
 5367TIP3   OH216043   1.743   4.022   0.328
 5367TIP3    H116044   1.797   4.003   0.405
 5367TIP3    H216045   1.743   4.118   0.322
 5368TIP3   OH216046   0.250   3.875   0.049
 5368TIP3    H116047   0.334   3.920   0.058
 5368TIP3    H216048   0.256   3.802   0.111
 5369TIP3   OH216049   6.739   0.987   1.302
 5369TIP3    H116050   6.827   0.978   1.339
 5369TIP3    H216051   6.754   1.010   1.211
 5370TIP3   OH216052   3.913   5.563   1.648
 5370TIP3    H116053   3.889   5.646   1.689
 5370TIP3    H216054   3.964   5.589   1.571
 5371TIP3   OH216055   1.884   3.617   4.949
 5371TIP3    H116056   1.869   3.580   4.862
 5371TIP3    H216057   1.976   3.598   4.968
 5372TIP3   OH216058   0.208   7.807   6.338
 5372TIP3    H116059   0.273   7.865   6.377
 5372TIP3    H216060   0.254   7.762   6.268
 5373TIP3   OH216061   6.402   2.050   4.287
 5373TIP3    H116062   6.447   2.132   4.264
 5373TIP3    H216063   6.371   2.016   4.203
 5374TIP3   OH216064   6.582   0.546   2.923
 5374TIP3    H116065   6.600   0.610   2.991
 5374TIP3    H216066   6.490   0.524   2.933
 5375TIP3   OH216067   6.152   2.773   4.369
 5375TIP3    H116068   6.058   2.767   4.353
 5375TIP3    H216069   6.181   2.847   4.317
 5376TIP3   OH216070   1.875   5.042   3.728
 5376TIP3    H116071   1.814   4.991   3.783
 5376TIP3    H216072   1.845   5.132   3.737
 5377TIP3   OH216073   1.666   4.398   3.078
 5377TIP3    H116074   1.703   4.445   3.003
 5377TIP3    H216075   1.740   4.385   3.137
 5378TIP3   OH216076   1.940   2.984   2.209
 5378TIP3    H116077   2.026   2.973   2.167
 5378TIP3    H216078   1.877   2.961   2.141
 5379TIP3   OH216079   3.484   5.173   4.379
 5379TIP3    H116080   3.414   5.237   4.389
 5379TIP3    H216081   3.564   5.223   4.395
 5380TIP3   OH216082   3.001   0.686   6.664
 5380TIP3    H116083   2.999   0.592   6.682
 5380TIP3    H216084   3.033   0.693   6.574
 5381TIP3   OH216085   5.894   1.963   4.551
 5381TIP3    H116086   5.970   1.927   4.596
 5381TIP3    H216087   5.907   1.939   4.459
 5382TIP3   OH216088   1.296   7.673   4.132
 5382TIP3    H116089   1.383   7.637   4.147
 5382TIP3    H216090   1.311   7.761   4.098
 5383TIP3   OH216091   6.934   1.407   4.229
 5383TIP3    H116092   6.862   1.456   4.270
 5383TIP3    H216093   7.007   1.415   4.291
 5384TIP3   OH216094   7.718   1.304   4.368
 5384TIP3    H116095   7.733   1.322   4.275
 5384TIP3    H216096   7.771   1.227   4.386
 5385TIP3   OH216097   6.699   1.306   1.715
 5385TIP3    H116098   6.770   1.363   1.745
 5385TIP3    H216099   6.711   1.225   1.764
 5386TIP3   OH216100   0.385   6.953   5.593
 5386TIP3    H116101   0.377   6.966   5.499
 5386TIP3    H216102   0.463   7.002   5.618
 5387TIP3   OH216103   4.699   2.169   2.490
 5387TIP3    H116104   4.624   2.132   2.444
 5387TIP3    H216105   4.761   2.096   2.498
 5388TIP3   OH216106   2.335   6.085   0.503
 5388TIP3    H116107   2.252   6.094   0.550
 5388TIP3    H216108   2.377   6.171   0.510
 5389TIP3   OH216109   0.150   1.227   3.034
 5389TIP3    H116110   0.151   1.189   2.947
 5389TIP3    H216111   0.239   1.258   3.049
 5390TIP3   OH216112   3.216   4.958   1.213
 5390TIP3    H116113   3.282   5.006   1.262
 5390TIP3    H216114   3.265   4.891   1.166
 5391TIP3   OH216115   5.769   3.678   1.470
 5391TIP3    H116116   5.738   3.650   1.384
 5391TIP3    H216117   5.804   3.598   1.509
 5392TIP3   OH216118   3.276   0.190   0.005
 5392TIP3    H116119   3.339   0.126  -0.029
 5392TIP3    H216120   3.329   0.258   0.045
 5393TIP3   OH216121   4.207   3.676   3.380
 5393TIP3    H116122   4.157   3.595   3.382
 5393TIP3    H216123   4.257   3.672   3.298
 5394TIP3   OH216124   5.129   0.940   4.273
 5394TIP3    H116125   5.099   1.015   4.221
 5394TIP3    H216126   5.059   0.875   4.266
 5395TIP3   OH216127   3.143   4.006   2.389
 5395TIP3    H116128   3.189   3.940   2.337
 5395TIP3    H216129   3.052   4.001   2.359
 5396TIP3   OH216130   1.546   3.647   3.816
 5396TIP3    H116131   1.573   3.576   3.874
 5396TIP3    H216132   1.528   3.721   3.875
 5397TIP3   OH216133   3.805   4.583   3.473
 5397TIP3    H116134   3.900   4.567   3.477
 5397TIP3    H216135   3.781   4.560   3.383
 5398TIP3   OH216136   5.080   6.093   1.579
 5398TIP3    H116137   5.115   6.016   1.534
 5398TIP3    H216138   5.027   6.138   1.513
 5399TIP3   OH216139   3.619   3.252   6.113
 5399TIP3    H116140   3.674   3.214   6.181
 5399TIP3    H216141   3.537   3.273   6.157
 5400TIP3   OH216142   1.022   1.845   6.206
 5400TIP3    H116143   0.954   1.877   6.266
 5400TIP3    H216144   1.049   1.922   6.157
 5401TIP3   OH216145   2.602   1.951   4.213
 5401TIP3    H116146   2.616   2.004   4.292
 5401TIP3    H216147   2.690   1.927   4.184
 5402TIP3   OH216148   7.438   6.504   3.178
 5402TIP3    H116149   7.377   6.433   3.157
 5402TIP3    H216150   7.409   6.577   3.124
 5403TIP3   OH216151   0.569   2.401   4.303
 5403TIP3    H116152   0.542   2.485   4.267
 5403TIP3    H216153   0.532   2.336   4.243
 5404TIP3   OH216154   3.386   2.385   4.575
 5404TIP3    H116155   3.397   2.321   4.504
 5404TIP3    H216156   3.363   2.466   4.531
 5405TIP3   OH216157   2.323   3.700   1.025
 5405TIP3    H116158   2.309   3.777   1.080
 5405TIP3    H216159   2.413   3.673   1.043
 5406TIP3   OH216160   0.835   7.682   3.256
 5406TIP3    H116161   0.795   7.747   3.199
 5406TIP3    H216162   0.778   7.679   3.333
 5407TIP3   OH216163   3.908   6.383   0.845
 5407TIP3    H116164   3.941   6.471   0.826
 5407TIP3    H216165   3.935   6.331   0.769
 5408TIP3   OH216166   0.925   6.534   4.811
 5408TIP3    H116167   0.882   6.478   4.747
 5408TIP3    H216168   0.996   6.480   4.846
 5409TIP3   OH216169   8.186   3.146   0.229
 5409TIP3    H116170   8.181   3.216   0.294
 5409TIP3    H216171   8.280   3.132   0.217
 5410TIP3   OH216172   5.975   3.729   3.511
 5410TIP3    H116173   5.916   3.788   3.558
 5410TIP3    H216174   5.988   3.772   3.426
 5411TIP3   OH216175   7.622   7.279   1.821
 5411TIP3    H116176   7.585   7.226   1.750
 5411TIP3    H216177   7.716   7.276   1.807
 5412TIP3   OH216178   7.602   6.362   0.954
 5412TIP3    H116179   7.572   6.301   0.886
 5412TIP3    H216180   7.542   6.347   1.027
 5413TIP3   OH216181   7.300   4.007   4.172
 5413TIP3    H116182   7.219   3.991   4.123
 5413TIP3    H216183   7.366   3.953   4.129
 5414TIP3   OH216184   1.675   5.106   6.272
 5414TIP3    H116185   1.591   5.063   6.284
 5414TIP3    H216186   1.739   5.041   6.302
 5415TIP3   OH216187   6.899   1.940   0.163
 5415TIP3    H116188   6.942   1.993   0.095
 5415TIP3    H216189   6.806   1.945   0.141
 5416TIP3   OH216190   0.642   4.865   5.169
 5416TIP3    H116191   0.556   4.893   5.200
 5416TIP3    H216192   0.692   4.848   5.248
 5417TIP3   OH216193   1.734   1.038   2.371
 5417TIP3    H116194   1.739   1.067   2.462
 5417TIP3    H216195   1.706   0.947   2.377
 5418TIP3   OH216196   4.523   0.544   2.721
 5418TIP3    H116197   4.544   0.565   2.813
 5418TIP3    H216198   4.598   0.493   2.691
 5419TIP3   OH216199   1.447   5.119   4.301
 5419TIP3    H116200   1.535   5.107   4.267
 5419TIP3    H216201   1.449   5.205   4.344
 5420TIP3   OH216202   2.245   2.151   2.520
 5420TIP3    H116203   2.316   2.092   2.546
 5420TIP3    H216204   2.183   2.094   2.475
 5421TIP3   OH216205   0.169   4.975   4.957
 5421TIP3    H116206   0.113   5.050   4.976
 5421TIP3    H216207   0.205   4.993   4.870
 5422TIP3   OH216208   2.867   0.825   1.696
 5422TIP3    H116209   2.892   0.866   1.614
 5422TIP3    H216210   2.818   0.893   1.743
 5423TIP3   OH216211   7.503   7.303   3.350
 5423TIP3    H116212   7.582   7.341   3.311
 5423TIP3    H216213   7.516   7.314   3.444
 5424TIP3   OH216214   6.051   0.792   6.187
 5424TIP3    H116215   6.019   0.882   6.193
 5424TIP3    H216216   6.007   0.756   6.110
 5425TIP3   OH216217   3.710   4.455   4.495
 5425TIP3    H116218   3.636   4.493   4.542
 5425TIP3    H216219   3.786   4.475   4.550
 5426TIP3   OH216220   1.331   6.216   5.216
 5426TIP3    H116221   1.343   6.161   5.294
 5426TIP3    H216222   1.302   6.300   5.250
 5427TIP3   OH216223   0.975   3.174   0.199
 5427TIP3    H116224   1.023   3.154   0.279
 5427TIP3    H216225   1.019   3.123   0.131
 5428TIP3   OH216226   4.921   3.995   0.573
 5428TIP3    H116227   4.891   3.931   0.637
 5428TIP3    H216228   4.959   3.943   0.503
 5429TIP3   OH216229   4.483   5.389   4.195
 5429TIP3    H116230   4.422   5.316   4.203
 5429TIP3    H216231   4.464   5.427   4.109
 5430TIP3   OH216232   0.413   0.549   0.548
 5430TIP3    H116233   0.367   0.465   0.545
 5430TIP3    H216234   0.488   0.537   0.489
 5431TIP3   OH216235   3.490   6.281   2.540
 5431TIP3    H116236   3.521   6.287   2.631
 5431TIP3    H216237   3.422   6.349   2.534
 5432TIP3   OH216238   7.131   5.386   6.637
 5432TIP3    H116239   7.214   5.430   6.622
 5432TIP3    H216240   7.081   5.447   6.692
 5433TIP3   OH216241   1.060   1.272   2.244
 5433TIP3    H116242   0.999   1.260   2.318
 5433TIP3    H216243   1.011   1.240   2.168
 5434TIP3   OH216244   3.750   0.434   2.108
 5434TIP3    H116245   3.789   0.507   2.059
 5434TIP3    H216246   3.789   0.441   2.195
 5435TIP3   OH216247   1.200   4.190   4.940
 5435TIP3    H116248   1.180   4.258   5.003
 5435TIP3    H216249   1.130   4.126   4.950
 5436TIP3   OH216250   1.438   6.386   0.285
 5436TIP3    H116251   1.387   6.432   0.352
 5436TIP3    H216252   1.477   6.312   0.331
 5437TIP3   OH216253   7.983   3.384   6.365
 5437TIP3    H116254   7.912   3.435   6.325
 5437TIP3    H216255   8.053   3.384   6.299
 5438TIP3   OH216256   3.887   3.100   1.446
 5438TIP3    H116257   3.896   3.185   1.403
 5438TIP3    H216258   3.816   3.056   1.399
 5439TIP3   OH216259   7.906   4.644   5.050
 5439TIP3    H116260   7.922   4.565   5.102
 5439TIP3    H216261   7.898   4.612   4.960
 5440TIP3   OH216262   5.849   5.263   1.213
 5440TIP3    H116263   5.907   5.239   1.285
 5440TIP3    H216264   5.837   5.357   1.222
 5441TIP3   OH216265   1.844   3.600   2.087
 5441TIP3    H116266   1.792   3.535   2.134
 5441TIP3    H216267   1.858   3.561   2.000
 5442TIP3   OH216268   5.531   0.753   5.102
 5442TIP3    H116269   5.532   0.808   5.024
 5442TIP3    H216270   5.438   0.732   5.115
 5443TIP3   OH216271   2.642   5.672   2.504
 5443TIP3    H116272   2.723   5.649   2.549
 5443TIP3    H216273   2.624   5.762   2.532
 5444TIP3   OH216274   2.204   4.916   3.268
 5444TIP3    H116275   2.282   4.873   3.234
 5444TIP3    H216276   2.190   4.991   3.211
 5445TIP3   OH216277   1.886   3.961   5.143
 5445TIP3    H116278   1.962   3.942   5.088
 5445TIP3    H216279   1.811   3.949   5.085
 5446TIP3   OH216280   1.131   5.198   4.194
 5446TIP3    H116281   1.212   5.146   4.189
 5446TIP3    H216282   1.064   5.135   4.221
 5447TIP3   OH216283   4.087   4.449   2.518
 5447TIP3    H116284   4.099   4.535   2.478
 5447TIP3    H216285   3.999   4.421   2.492
 5448TIP3   OH216286   4.236   0.561   3.540
 5448TIP3    H116287   4.289   0.481   3.540
 5448TIP3    H216288   4.240   0.592   3.630
 5449TIP3   OH216289   1.522   6.289   5.460
 5449TIP3    H116290   1.508   6.210   5.513
 5449TIP3    H216291   1.490   6.361   5.514
 5450TIP3   OH216292   1.262   7.204   1.944
 5450TIP3    H116293   1.305   7.149   2.009
 5450TIP3    H216294   1.209   7.266   1.995
 5451TIP3   OH216295   6.010   0.961   3.512
 5451TIP3    H116296   6.026   0.890   3.573
 5451TIP3    H216297   5.930   0.936   3.465
 5452TIP3   OH216298   0.551   1.295   0.677
 5452TIP3    H116299   0.633   1.250   0.657
 5452TIP3    H216300   0.577   1.383   0.705
 5453TIP3   OH216301   0.490   0.250   5.062
 5453TIP3    H116302   0.522   0.161   5.048
 5453TIP3    H216303   0.537   0.281   5.139
 5454TIP3   OH216304   6.743   0.263   0.446
 5454TIP3    H116305   6.667   0.211   0.422
 5454TIP3    H216306   6.788   0.280   0.363
 5455TIP3   OH216307   2.806   3.122   3.823
 5455TIP3    H116308   2.865   3.047   3.836
 5455TIP3    H216309   2.719   3.083   3.817
 5456TIP3   OH216310   2.943   0.946   6.250
 5456TIP3    H116311   2.894   1.022   6.220
 5456TIP3    H216312   3.034   0.964   6.225
 5457TIP3   OH216313   7.742   4.287   1.007
 5457TIP3    H116314   7.792   4.346   0.950
 5457TIP3    H216315   7.651   4.313   0.994
 5458TIP3   OH216316   7.075   0.626   1.795
 5458TIP3    H116317   7.008   0.667   1.740
 5458TIP3    H216318   7.121   0.699   1.836
 5459TIP3   OH216319   3.142   4.033   6.567
 5459TIP3    H116320   3.149   4.014   6.474
 5459TIP3    H216321   3.057   4.076   6.576
 5460TIP3   OH216322   3.756   2.913   4.263
 5460TIP3    H116323   3.770   2.819   4.252
 5460TIP3    H216324   3.738   2.945   4.175
 5461TIP3   OH216325   2.799   3.750   3.304
 5461TIP3    H116326   2.824   3.698   3.228
 5461TIP3    H216327   2.857   3.721   3.374
 5462TIP3   OH216328   1.598   7.047   6.582
 5462TIP3    H116329   1.679   7.098   6.589
 5462TIP3    H216330   1.573   7.054   6.490
 5463TIP3   OH216331   0.854   7.664   1.721
 5463TIP3    H116332   0.907   7.617   1.657
 5463TIP3    H216333   0.887   7.634   1.806
 5464TIP3   OH216334   7.772   0.576   3.599
 5464TIP3    H116335   7.819   0.522   3.662
 5464TIP3    H216336   7.813   0.663   3.605
 5465TIP3   OH216337   5.449   6.258   4.495
 5465TIP3    H116338   5.435   6.326   4.429
 5465TIP3    H216339   5.506   6.194   4.452
 5466TIP3   OH216340   3.063   0.718   6.392
 5466TIP3    H116341   3.133   0.702   6.328
 5466TIP3    H216342   3.034   0.808   6.373
 5467TIP3   OH216343   6.897   6.120   1.907
 5467TIP3    H116344   6.847   6.039   1.911
 5467TIP3    H216345   6.852   6.179   1.968
 5468TIP3   OH216346   6.115   7.702   1.305
 5468TIP3    H116347   6.090   7.794   1.308
 5468TIP3    H216348   6.182   7.697   1.237
 5469TIP3   OH216349   3.642   7.303   3.652
 5469TIP3    H116350   3.626   7.371   3.587
 5469TIP3    H216351   3.613   7.341   3.735
 5470TIP3   OH216352   7.056   6.844   3.892
 5470TIP3    H116353   7.001   6.919   3.870
 5470TIP3    H216354   7.145   6.875   3.881
 5471TIP3   OH216355   6.497   3.012   0.927
 5471TIP3    H116356   6.407   2.997   0.955
 5471TIP3    H216357   6.544   3.032   1.009
 5472TIP3   OH216358   7.176   5.046   0.545
 5472TIP3    H116359   7.219   4.966   0.574
 5472TIP3    H216360   7.221   5.071   0.464
 5473TIP3   OH216361   4.631   0.909   2.599
 5473TIP3    H116362   4.539   0.938   2.603
 5473TIP3    H216363   4.673   0.955   2.672
 5474TIP3   OH216364   4.349   1.142   5.835
 5474TIP3    H116365   4.261   1.154   5.871
 5474TIP3    H216366   4.343   1.173   5.745
 5475TIP3   OH216367   6.000   2.852   3.741
 5475TIP3    H116368   5.912   2.888   3.748
 5475TIP3    H216369   5.993   2.763   3.778
 5476TIP3   OH216370   6.949   6.518   0.995
 5476TIP3    H116371   7.039   6.487   0.986
 5476TIP3    H216372   6.895   6.445   0.965
 5477TIP3   OH216373   4.733   6.521   3.272
 5477TIP3    H116374   4.702   6.579   3.202
 5477TIP3    H216375   4.759   6.580   3.342
 5478TIP3   OH216376   4.135   1.691   0.300
 5478TIP3    H116377   4.177   1.606   0.285
 5478TIP3    H216378   4.207   1.752   0.314
 5479TIP3   OH216379   1.462   0.798   2.531
 5479TIP3    H116380   1.521   0.782   2.457
 5479TIP3    H216381   1.520   0.814   2.605
 5480TIP3   OH216382   2.638   2.158   6.611
 5480TIP3    H116383   2.703   2.141   6.542
 5480TIP3    H216384   2.599   2.072   6.628
 5481TIP3   OH216385   8.082   2.814   3.244
 5481TIP3    H116386   8.071   2.863   3.163
 5481TIP3    H216387   8.124   2.876   3.304
 5482TIP3   OH216388   5.183   0.966   0.361
 5482TIP3    H116389   5.207   0.935   0.448
 5482TIP3    H216390   5.168   0.886   0.311
 5483TIP3   OH216391   4.716   5.400   6.638
 5483TIP3    H116392   4.653   5.452   6.589
 5483TIP3    H216393   4.791   5.391   6.579
 5484TIP3   OH216394   7.055   6.757   5.122
 5484TIP3    H116395   7.105   6.783   5.044
 5484TIP3    H216396   6.963   6.773   5.098
 5485TIP3   OH216397   7.467   7.351   1.452
 5485TIP3    H116398   7.525   7.278   1.474
 5485TIP3    H216399   7.448   7.340   1.359
 5486TIP3   OH216400   5.929   7.285   2.723
 5486TIP3    H116401   5.938   7.373   2.760
 5486TIP3    H216402   5.873   7.239   2.786
 5487TIP3   OH216403   6.620   1.585   5.909
 5487TIP3    H116404   6.664   1.514   5.954
 5487TIP3    H216405   6.528   1.557   5.903
 5488TIP3   OH216406   5.305   0.829   0.577
 5488TIP3    H116407   5.263   0.868   0.653
 5488TIP3    H216408   5.397   0.855   0.583
 5489TIP3   OH216409   5.989   1.131   1.792
 5489TIP3    H116410   5.959   1.128   1.882
 5489TIP3    H216411   6.080   1.101   1.795
 5490TIP3   OH216412   2.567   0.704   4.718
 5490TIP3    H116413   2.631   0.730   4.651
 5490TIP3    H216414   2.483   0.701   4.671
 5491TIP3   OH216415   3.394   4.718   1.767
 5491TIP3    H116416   3.440   4.636   1.787
 5491TIP3    H216417   3.341   4.698   1.690
 5492TIP3   OH216418   2.778   7.623   1.106
 5492TIP3    H116419   2.701   7.620   1.050
 5492TIP3    H216420   2.845   7.667   1.052
 5493TIP3   OH216421   5.132   3.857   0.828
 5493TIP3    H116422   5.221   3.822   0.830
 5493TIP3    H216423   5.125   3.910   0.908
 5494TIP3   OH216424   7.904   1.619   0.724
 5494TIP3    H116425   7.948   1.595   0.805
 5494TIP3    H216426   7.975   1.641   0.663
 5495TIP3   OH216427   0.385   7.162   3.769
 5495TIP3    H116428   0.393   7.124   3.856
 5495TIP3    H216429   0.291   7.173   3.756
 5496TIP3   OH216430   0.266   7.206   6.578
 5496TIP3    H116431   0.171   7.213   6.577
 5496TIP3    H216432   0.289   7.197   6.671
 5497TIP3   OH216433   5.205   6.156   4.639
 5497TIP3    H116434   5.282   6.142   4.584
 5497TIP3    H216435   5.232   6.127   4.726
 5498TIP3   OH216436   7.992   4.142   3.847
 5498TIP3    H116437   8.035   4.084   3.784
 5498TIP3    H216438   7.904   4.105   3.857
 5499TIP3   OH216439   7.686   7.528   5.085
 5499TIP3    H116440   7.769   7.488   5.113
 5499TIP3    H216441   7.702   7.622   5.093
 5500TIP3   OH216442   6.132   5.610   6.735
 5500TIP3    H116443   6.138   5.628   6.641
 5500TIP3    H216444   6.044   5.577   6.748
 5501TIP3   OH216445   2.384   2.323   5.265
 5501TIP3    H116446   2.308   2.283   5.307
 5501TIP3    H216447   2.425   2.375   5.333
 5502TIP3   OH216448   0.342   7.665   6.716
 5502TIP3    H116449   0.357   7.571   6.716
 5502TIP3    H216450   0.396   7.698   6.644
 5503TIP3   OH216451   1.183   5.106   6.577
 5503TIP3    H116452   1.133   5.041   6.528
 5503TIP3    H216453   1.199   5.176   6.513
 5504TIP3   OH216454   2.090   7.388   0.699
 5504TIP3    H116455   2.015   7.432   0.740
 5504TIP3    H216456   2.070   7.390   0.605
 5505TIP3   OH216457   5.957   5.854   2.496
 5505TIP3    H116458   5.870   5.890   2.517
 5505TIP3    H216459   6.012   5.931   2.484
 5506TIP3   OH216460   2.096   1.893   0.891
 5506TIP3    H116461   2.065   1.890   0.801
 5506TIP3    H216462   2.108   1.986   0.910
 5507TIP3   OH216463   4.039   0.904   3.847
 5507TIP3    H116464   3.989   0.944   3.776
 5507TIP3    H216465   3.983   0.832   3.879
 5508TIP3   OH216466   3.155   1.617   1.138
 5508TIP3    H116467   3.228   1.571   1.097
 5508TIP3    H216468   3.093   1.634   1.067
 5509TIP3   OH216469   7.461   6.321   2.208
 5509TIP3    H116470   7.509   6.300   2.128
 5509TIP3    H216471   7.372   6.339   2.179
 5510TIP3   OH216472   1.567   4.324   1.561
 5510TIP3    H116473   1.644   4.351   1.611
 5510TIP3    H216474   1.561   4.230   1.577
 5511TIP3   OH216475   0.848   0.396   3.995
 5511TIP3    H116476   0.928   0.344   3.997
 5511TIP3    H216477   0.840   0.425   3.905
 5512TIP3   OH216478   5.939   2.621   3.878
 5512TIP3    H116479   5.849   2.594   3.862
 5512TIP3    H216480   5.963   2.580   3.961
 5513TIP3   OH216481   1.630   2.484   4.932
 5513TIP3    H116482   1.637   2.522   5.019
 5513TIP3    H216483   1.705   2.424   4.926
 5514TIP3   OH216484   7.804   1.165   0.753
 5514TIP3    H116485   7.762   1.179   0.668
 5514TIP3    H216486   7.897   1.156   0.732
 5515TIP3   OH216487   3.485   2.191   4.388
 5515TIP3    H116488   3.498   2.253   4.316
 5515TIP3    H216489   3.546   2.120   4.370
 5516TIP3   OH216490   3.003   6.970   6.711
 5516TIP3    H116491   2.967   6.985   6.624
 5516TIP3    H216492   3.067   6.900   6.698
 5517TIP3   OH216493   8.036   6.918   5.129
 5517TIP3    H116494   8.129   6.917   5.151
 5517TIP3    H216495   8.014   6.827   5.108
 5518TIP3   OH216496   2.585   6.710   0.684
 5518TIP3    H116497   2.561   6.801   0.667
 5518TIP3    H216498   2.617   6.711   0.775
 5519TIP3   OH216499   7.037   4.218   5.257
 5519TIP3    H116500   6.971   4.240   5.191
 5519TIP3    H216501   7.013   4.131   5.287
 5520TIP3   OH216502   3.037   4.945   5.098
 5520TIP3    H116503   3.049   4.901   5.013
 5520TIP3    H216504   2.994   4.879   5.153
 5521TIP3   OH216505   1.043   4.805   1.594
 5521TIP3    H116506   1.004   4.807   1.506
 5521TIP3    H216507   1.133   4.836   1.581
 5522TIP3   OH216508   4.403   7.241   0.124
 5522TIP3    H116509   4.362   7.316   0.082
 5522TIP3    H216510   4.461   7.278   0.190
 5523TIP3   OH216511   1.601   7.145   5.775
 5523TIP3    H116512   1.523   7.174   5.729
 5523TIP3    H216513   1.592   7.050   5.782
 5524TIP3   OH216514   0.772   5.149   5.617
 5524TIP3    H116515   0.770   5.075   5.556
 5524TIP3    H216516   0.831   5.212   5.576
 5525TIP3   OH216517   6.138   0.885   1.145
 5525TIP3    H116518   6.085   0.845   1.076
 5525TIP3    H216519   6.192   0.949   1.099
 5526TIP3   OH216520   4.492   3.349   2.342
 5526TIP3    H116521   4.400   3.330   2.324
 5526TIP3    H216522   4.492   3.395   2.425
 5527TIP3   OH216523   0.616   7.119   2.012
 5527TIP3    H116524   0.569   7.200   2.030
 5527TIP3    H216525   0.575   7.054   2.069
 5528TIP3   OH216526   7.763   0.021   0.892
 5528TIP3    H116527   7.790   0.112   0.898
 5528TIP3    H216528   7.736   0.009   0.801
 5529TIP3   OH216529   4.294   7.490   4.213
 5529TIP3    H116530   4.228   7.531   4.269
 5529TIP3    H216531   4.299   7.399   4.243
 5530TIP3   OH216532   2.255   2.938   2.390
 5530TIP3    H116533   2.318   3.007   2.408
 5530TIP3    H216534   2.230   2.951   2.298
 5531TIP3   OH216535   5.150   6.194   5.188
 5531TIP3    H116536   5.164   6.282   5.154
 5531TIP3    H216537   5.223   6.180   5.249
 5532TIP3   OH216538   1.984   6.321   3.729
 5532TIP3    H116539   1.974   6.236   3.687
 5532TIP3    H216540   2.063   6.358   3.688
 5533TIP3   OH216541   2.322   3.107   3.032
 5533TIP3    H116542   2.231   3.126   3.058
 5533TIP3    H216543   2.375   3.160   3.093
 5534TIP3   OH216544   2.715   5.603   2.161
 5534TIP3    H116545   2.780   5.595   2.231
 5534TIP3    H216546   2.727   5.524   2.108
 5535TIP3   OH216547   6.807   0.574   1.088
 5535TIP3    H116548   6.843   0.493   1.124
 5535TIP3    H216549   6.824   0.567   0.994
 5536TIP3   OH216550   8.272   1.788   0.891
 5536TIP3    H116551   8.337   1.830   0.947
 5536TIP3    H216552   8.223   1.861   0.853
 5537TIP3   OH216553   1.932   0.521   2.884
 5537TIP3    H116554   1.995   0.451   2.868
 5537TIP3    H216555   1.911   0.555   2.797
 5538TIP3   OH216556   1.320   1.150   2.978
 5538TIP3    H116557   1.309   1.158   3.073
 5538TIP3    H216558   1.300   1.059   2.959
 5539TIP3   OH216559   3.395   0.861   3.957
 5539TIP3    H116560   3.439   0.932   4.006
 5539TIP3    H216561   3.462   0.830   3.896
 5540TIP3   OH216562   2.192   1.894   2.685
 5540TIP3    H116563   2.129   1.959   2.718
 5540TIP3    H216564   2.253   1.882   2.758
 5541TIP3   OH216565   2.871   0.992   1.098
 5541TIP3    H116566   2.885   0.997   1.003
 5541TIP3    H216567   2.954   0.960   1.133
 5542TIP3   OH216568   6.327   1.450   5.666
 5542TIP3    H116569   6.302   1.441   5.574
 5542TIP3    H216570   6.406   1.396   5.675
 5543TIP3   OH216571   6.578   5.468   0.634
 5543TIP3    H116572   6.559   5.488   0.726
 5543TIP3    H216573   6.660   5.419   0.637
 5544TIP3   OH216574   0.528   4.380   2.460
 5544TIP3    H116575   0.622   4.377   2.475
 5544TIP3    H216576   0.509   4.473   2.447
 5545TIP3   OH216577   1.102   3.366   2.429
 5545TIP3    H116578   1.185   3.340   2.470
 5545TIP3    H216579   1.052   3.407   2.500
 5546TIP3   OH216580   2.581   3.900   1.132
 5546TIP3    H116581   2.594   3.808   1.153
 5546TIP3    H216582   2.654   3.922   1.075
 5547TIP3   OH216583   4.897   7.437   0.590
 5547TIP3    H116584   4.950   7.475   0.520
 5547TIP3    H216585   4.831   7.385   0.544
 5548TIP3   OH216586   8.044   2.485   6.567
 5548TIP3    H116587   8.104   2.470   6.494
 5548TIP3    H216588   8.072   2.569   6.604
 5549TIP3   OH216589   5.306   6.449   2.905
 5549TIP3    H116590   5.262   6.438   2.821
 5549TIP3    H216591   5.342   6.362   2.924
 5550TIP3   OH216592   4.010   1.377   2.620
 5550TIP3    H116593   3.952   1.398   2.694
 5550TIP3    H216594   4.066   1.454   2.611
 5551TIP3   OH216595   3.236   6.963   4.225
 5551TIP3    H116596   3.158   7.017   4.216
 5551TIP3    H216597   3.296   7.016   4.277
 5552TIP3   OH216598   4.872   0.262   5.104
 5552TIP3    H116599   4.933   0.211   5.052
 5552TIP3    H216600   4.924   0.336   5.136
 5553TIP3   OH216601   7.869   1.765   5.385
 5553TIP3    H116602   7.804   1.736   5.322
 5553TIP3    H216603   7.856   1.860   5.392
 5554TIP3   OH216604   7.278   1.313   5.457
 5554TIP3    H116605   7.358   1.261   5.450
 5554TIP3    H216606   7.290   1.385   5.395
 5555TIP3   OH216607   6.226   1.837   6.171
 5555TIP3    H116608   6.175   1.775   6.120
 5555TIP3    H216609   6.161   1.901   6.201
 5556TIP3   OH216610   7.553   2.638   0.725
 5556TIP3    H116611   7.575   2.623   0.817
 5556TIP3    H216612   7.497   2.715   0.726
 5557TIP3   OH216613   5.339   7.605   4.652
 5557TIP3    H116614   5.380   7.592   4.567
 5557TIP3    H216615   5.348   7.699   4.669
 5558TIP3   OH216616   5.450   7.153   1.776
 5558TIP3    H116617   5.500   7.170   1.856
 5558TIP3    H216618   5.424   7.239   1.745
 5559TIP3   OH216619   7.081   4.472   1.278
 5559TIP3    H116620   7.042   4.482   1.365
 5559TIP3    H216621   7.053   4.385   1.249
 5560TIP3   OH216622   2.242   6.347   2.801
 5560TIP3    H116623   2.254   6.361   2.708
 5560TIP3    H216624   2.331   6.341   2.837
 5561TIP3   OH216625   6.162   4.056   5.825
 5561TIP3    H116626   6.134   4.130   5.880
 5561TIP3    H216627   6.083   4.004   5.813
 5562TIP3   OH216628   1.837   3.691   0.755
 5562TIP3    H116629   1.860   3.782   0.771
 5562TIP3    H216630   1.814   3.656   0.841
 5563TIP3   OH216631   7.314   2.971   3.444
 5563TIP3    H116632   7.248   2.907   3.467
 5563TIP3    H216633   7.265   3.045   3.409
 5564TIP3   OH216634   8.062   0.096   5.351
 5564TIP3    H116635   8.026   0.084   5.439
 5564TIP3    H216636   8.060   0.190   5.337
 5565TIP3   OH216637   6.712   5.754   6.135
 5565TIP3    H116638   6.775   5.773   6.205
 5565TIP3    H216639   6.729   5.662   6.113
 5566TIP3   OH216640   7.539   5.572   1.395
 5566TIP3    H116641   7.536   5.630   1.471
 5566TIP3    H216642   7.604   5.612   1.337
 5567TIP3   OH216643   2.676   6.308   3.227
 5567TIP3    H116644   2.581   6.305   3.212
 5567TIP3    H216645   2.714   6.311   3.139
 5568TIP3   OH216646   6.552   2.018   5.924
 5568TIP3    H116647   6.482   1.963   5.889
 5568TIP3    H216648   6.509   2.073   5.989
 5569TIP3   OH216649   6.714   2.830   0.040
 5569TIP3    H116650   6.796   2.834  -0.009
 5569TIP3    H216651   6.728   2.761   0.105
 5570TIP3   OH216652   6.704   3.307   4.759
 5570TIP3    H116653   6.795   3.283   4.775
 5570TIP3    H216654   6.664   3.227   4.725
 5571TIP3   OH216655   2.141   1.486   2.532
 5571TIP3    H116656   2.121   1.453   2.444
 5571TIP3    H216657   2.113   1.577   2.531
 5572TIP3   OH216658   5.092   1.914   1.320
 5572TIP3    H116659   5.107   1.862   1.399
 5572TIP3    H216660   5.023   1.975   1.343
 5573TIP3   OH216661   4.448   1.279   0.755
 5573TIP3    H116662   4.454   1.222   0.832
 5573TIP3    H216663   4.529   1.262   0.707
 5574TIP3   OH216664   7.565   3.778   6.242
 5574TIP3    H116665   7.494   3.819   6.192
 5574TIP3    H216666   7.584   3.697   6.194
 5575TIP3   OH216667   5.511   3.442   3.112
 5575TIP3    H116668   5.528   3.350   3.134
 5575TIP3    H216669   5.541   3.451   3.022
 5576TIP3   OH216670   7.368   4.802   3.995
 5576TIP3    H116671   7.294   4.861   4.011
 5576TIP3    H216672   7.388   4.813   3.902
 5577TIP3   OH216673   7.916   3.427   1.455
 5577TIP3    H116674   7.871   3.509   1.476
 5577TIP3    H216675   7.959   3.445   1.371
 5578TIP3   OH216676   2.820   6.382   3.631
 5578TIP3    H116677   2.903   6.429   3.619
 5578TIP3    H216678   2.835   6.327   3.708
 5579TIP3   OH216679   3.610   4.882   4.598
 5579TIP3    H116680   3.555   4.921   4.530
 5579TIP3    H216681   3.660   4.956   4.634
 5580TIP3   OH216682   1.176   0.258   3.034
 5580TIP3    H116683   1.120   0.235   2.960
 5580TIP3    H216684   1.117   0.262   3.109
 5581TIP3   OH216685   5.362   0.212   2.804
 5581TIP3    H116686   5.454   0.223   2.828
 5581TIP3    H216687   5.341   0.291   2.754
 5582TIP3   OH216688   7.779   7.406   1.413
 5582TIP3    H116689   7.753   7.317   1.438
 5582TIP3    H216690   7.832   7.437   1.486
 5583TIP3   OH216691   1.889   0.664   4.713
 5583TIP3    H116692   1.803   0.699   4.690
 5583TIP3    H216693   1.921   0.623   4.633
 5584TIP3   OH216694   0.553   5.237   3.405
 5584TIP3    H116695   0.538   5.200   3.317
 5584TIP3    H216696   0.522   5.327   3.398
 5585TIP3   OH216697   2.963   5.944   2.764
 5585TIP3    H116698   3.023   5.874   2.789
 5585TIP3    H216699   2.915   5.964   2.845
 5586TIP3   OH216700   5.022   7.146   4.979
 5586TIP3    H116701   4.958   7.170   5.046
 5586TIP3    H216702   5.096   7.110   5.028
 5587TIP3   OH216703   5.778   4.980   4.599
 5587TIP3    H116704   5.859   4.994   4.648
 5587TIP3    H216705   5.712   4.960   4.665
 5588TIP3   OH216706   6.385   7.430   5.920
 5588TIP3    H116707   6.470   7.417   5.962
 5588TIP3    H216708   6.356   7.515   5.952
 5589TIP3   OH216709   5.961   2.362   5.538
 5589TIP3    H116710   5.907   2.342   5.461
 5589TIP3    H216711   6.050   2.371   5.503
 5590TIP3   OH216712   3.035   5.260   3.410
 5590TIP3    H116713   3.097   5.188   3.402
 5590TIP3    H216714   3.073   5.330   3.356
 5591TIP3   OH216715   6.468   2.269   1.729
 5591TIP3    H116716   6.511   2.343   1.686
 5591TIP3    H216717   6.445   2.210   1.657
 5592TIP3   OH216718   7.947   7.451   2.156
 5592TIP3    H116719   7.990   7.405   2.084
 5592TIP3    H216720   7.981   7.540   2.150
 5593TIP3   OH216721   1.736   3.858   0.111
 5593TIP3    H116722   1.652   3.816   0.092
 5593TIP3    H216723   1.722   3.905   0.193
 5594TIP3   OH216724   6.285   1.232   2.346
 5594TIP3    H116725   6.202   1.208   2.387
 5594TIP3    H216726   6.303   1.160   2.284
 5595TIP3   OH216727   3.025   5.692   0.164
 5595TIP3    H116728   2.940   5.654   0.142
 5595TIP3    H216729   3.034   5.767   0.105
 5596TIP3   OH216730   3.837   7.488   0.829
 5596TIP3    H116731   3.828   7.584   0.827
 5596TIP3    H216732   3.904   7.472   0.896
 5597TIP3   OH216733   4.244   1.741   6.316
 5597TIP3    H116734   4.200   1.792   6.248
 5597TIP3    H216735   4.269   1.660   6.273
 5598TIP3   OH216736   2.168   4.175   6.164
 5598TIP3    H116737   2.140   4.146   6.251
 5598TIP3    H216738   2.246   4.122   6.146
 5599TIP3   OH216739   3.829   5.866   3.853
 5599TIP3    H116740   3.781   5.783   3.850
 5599TIP3    H216741   3.877   5.868   3.771
 5600TIP3   OH216742   4.610   3.277   5.850
 5600TIP3    H116743   4.651   3.243   5.929
 5600TIP3    H216744   4.548   3.344   5.881
 5601TIP3   OH216745   3.293   1.208   4.806
 5601TIP3    H116746   3.206   1.219   4.768
 5601TIP3    H216747   3.297   1.115   4.832
 5602TIP3   OH216748   0.964   2.216   3.185
 5602TIP3    H116749   1.047   2.255   3.157
 5602TIP3    H216750   0.904   2.290   3.192
 5603TIP3   OH216751   0.200   6.453   4.746
 5603TIP3    H116752   0.285   6.455   4.703
 5603TIP3    H216753   0.211   6.391   4.818
 5604TIP3   OH216754   4.478   1.690   1.953
 5604TIP3    H116755   4.393   1.646   1.966
 5604TIP3    H216756   4.519   1.688   2.040
 5605TIP3   OH216757   6.488   2.088   3.091
 5605TIP3    H116758   6.455   2.077   3.001
 5605TIP3    H216759   6.409   2.089   3.145
 5606TIP3   OH216760   7.188   2.900   3.173
 5606TIP3    H116761   7.217   2.984   3.210
 5606TIP3    H216762   7.113   2.875   3.226
 5607TIP3   OH216763   1.144   1.945   1.680
 5607TIP3    H116764   1.175   2.000   1.608
 5607TIP3    H216765   1.221   1.896   1.708
 5608TIP3   OH216766   5.713   3.912   6.559
 5608TIP3    H116767   5.767   3.991   6.558
 5608TIP3    H216768   5.638   3.933   6.504
 5609TIP3   OH216769   4.011   7.736   4.925
 5609TIP3    H116770   4.017   7.643   4.946
 5609TIP3    H216771   3.962   7.739   4.844
 5610TIP3   OH216772   0.490   2.222   0.989
 5610TIP3    H116773   0.570   2.169   0.988
 5610TIP3    H216774   0.488   2.260   1.077
 5611TIP3   OH216775   8.180   1.365   3.032
 5611TIP3    H116776   8.231   1.445   3.044
 5611TIP3    H216777   8.091   1.396   3.015
 5612TIP3   OH216778   5.948   7.493   1.397
 5612TIP3    H116779   6.001   7.416   1.418
 5612TIP3    H216780   6.011   7.559   1.371
 5613TIP3   OH216781   4.465   3.370   0.153
 5613TIP3    H116782   4.550   3.401   0.123
 5613TIP3    H216783   4.406   3.444   0.139
 5614TIP3   OH216784   5.248   4.715   1.031
 5614TIP3    H116785   5.329   4.764   1.023
 5614TIP3    H216786   5.243   4.690   1.123
 5615TIP3   OH216787   0.013   1.180   0.237
 5615TIP3    H116788  -0.025   1.214   0.318
 5615TIP3    H216789   0.104   1.160   0.261
 5616TIP3   OH216790   0.009   1.251   0.845
 5616TIP3    H116791   0.085   1.199   0.869
 5616TIP3    H216792   0.045   1.333   0.812
 5617TIP3   OH216793   0.248   0.569   3.636
 5617TIP3    H116794   0.200   0.639   3.592
 5617TIP3    H216795   0.334   0.569   3.593
 5618TIP3   OH216796   7.143   7.238   0.018
 5618TIP3    H116797   7.129   7.220   0.111
 5618TIP3    H216798   7.237   7.256   0.011
 5619TIP3   OH216799   1.084   0.984   3.942
 5619TIP3    H116800   1.054   1.073   3.926
 5619TIP3    H216801   1.026   0.929   3.889
 5620TIP3   OH216802   3.793   5.733   4.984
 5620TIP3    H116803   3.763   5.653   4.940
 5620TIP3    H216804   3.847   5.777   4.919
 5621TIP3   OH216805   7.345   1.044   4.062
 5621TIP3    H116806   7.319   1.135   4.080
 5621TIP3    H216807   7.378   1.046   3.973
 5622TIP3   OH216808   0.033   0.220   3.215
 5622TIP3    H116809   0.086   0.225   3.136
 5622TIP3    H216810  -0.056   0.204   3.184
 5623TIP3   OH216811   7.711   1.655   5.930
 5623TIP3    H116812   7.761   1.736   5.934
 5623TIP3    H216813   7.644   1.665   5.998
 5624TIP3   OH216814   7.414   4.342   2.574
 5624TIP3    H116815   7.436   4.275   2.639
 5624TIP3    H216816   7.353   4.400   2.619
 5625TIP3   OH216817   2.444   1.015   0.371
 5625TIP3    H116818   2.387   0.974   0.436
 5625TIP3    H216819   2.408   1.104   0.362
 5626TIP3   OH216820   4.993   5.034   0.319
 5626TIP3    H116821   4.924   5.067   0.376
 5626TIP3    H216822   5.060   5.102   0.319
 5627TIP3   OH216823   7.159   6.295   6.372
 5627TIP3    H116824   7.204   6.231   6.427
 5627TIP3    H216825   7.195   6.379   6.399
 5628TIP3   OH216826   7.213   0.784   1.365
 5628TIP3    H116827   7.184   0.760   1.277
 5628TIP3    H216828   7.285   0.846   1.351
 5629TIP3   OH216829   0.831   6.715   1.739
 5629TIP3    H116830   0.862   6.627   1.762
 5629TIP3    H216831   0.742   6.718   1.772
 5630TIP3   OH216832   0.240   2.929   3.848
 5630TIP3    H116833   0.228   2.881   3.930
 5630TIP3    H216834   0.271   2.864   3.786
 5631TIP3   OH216835   0.490   4.655   4.749
 5631TIP3    H116836   0.555   4.681   4.814
 5631TIP3    H216837   0.413   4.632   4.802
 5632TIP3   OH216838   1.336   4.130   2.275
 5632TIP3    H116839   1.267   4.064   2.266
 5632TIP3    H216840   1.415   4.080   2.294
 5633TIP3   OH216841   6.741   3.492   4.508
 5633TIP3    H116842   6.693   3.495   4.590
 5633TIP3    H216843   6.689   3.435   4.451
 5634TIP3   OH216844   7.453   4.040   1.962
 5634TIP3    H116845   7.517   4.009   1.897
 5634TIP3    H216846   7.407   3.960   1.989
 5635TIP3   OH216847   6.260   2.777   3.644
 5635TIP3    H116848   6.168   2.803   3.635
 5635TIP3    H216849   6.307   2.828   3.578
 5636TIP3   OH216850   2.322   1.664   4.616
 5636TIP3    H116851   2.373   1.585   4.600
 5636TIP3    H216852   2.260   1.669   4.543
 5637TIP3   OH216853   5.098   5.285   4.179
 5637TIP3    H116854   5.003   5.300   4.184
 5637TIP3    H216855   5.108   5.192   4.199
 5638TIP3   OH216856   5.959   2.635   6.329
 5638TIP3    H116857   5.868   2.656   6.349
 5638TIP3    H216858   5.965   2.639   6.234
 5639TIP3   OH216859   8.036   4.041   0.927
 5639TIP3    H116860   7.945   4.069   0.917
 5639TIP3    H216861   8.087   4.112   0.889
 5640TIP3   OH216862   1.333   3.600   1.259
 5640TIP3    H116863   1.329   3.679   1.313
 5640TIP3    H216864   1.405   3.617   1.198
 5641TIP3   OH216865   7.621   3.261   6.246
 5641TIP3    H116866   7.674   3.332   6.209
 5641TIP3    H216867   7.622   3.277   6.341
 5642TIP3   OH216868   4.038   5.120   0.696
 5642TIP3    H116869   3.979   5.064   0.747
 5642TIP3    H216870   3.987   5.145   0.619
 5643TIP3   OH216871   2.748   7.321   2.984
 5643TIP3    H116872   2.793   7.240   3.008
 5643TIP3    H216873   2.785   7.345   2.899
 5644TIP3   OH216874   3.847   3.779   5.317
 5644TIP3    H116875   3.846   3.702   5.261
 5644TIP3    H216876   3.758   3.813   5.314
 5645TIP3   OH216877   6.355   7.081   2.084
 5645TIP3    H116878   6.382   7.167   2.052
 5645TIP3    H216879   6.306   7.043   2.011
 5646TIP3   OH216880   2.737   4.912   3.155
 5646TIP3    H116881   2.774   4.881   3.072
 5646TIP3    H216882   2.769   5.002   3.163
 5647TIP3   OH216883   0.932   7.442   3.645
 5647TIP3    H116884   0.997   7.504   3.613
 5647TIP3    H216885   0.857   7.453   3.587
 5648TIP3   OH216886   6.942   4.103   6.120
 5648TIP3    H116887   6.938   4.189   6.078
 5648TIP3    H216888   6.911   4.119   6.209
 5649TIP3   OH216889   4.405   6.563   2.750
 5649TIP3    H116890   4.420   6.596   2.661
 5649TIP3    H216891   4.392   6.641   2.803
 5650TIP3   OH216892   4.073   1.949   2.389
 5650TIP3    H116893   4.111   1.944   2.301
 5650TIP3    H216894   4.100   2.035   2.421
 5651TIP3   OH216895   4.539   0.117   5.670
 5651TIP3    H116896   4.533   0.111   5.575
 5651TIP3    H216897   4.558   0.210   5.687
 5652TIP3   OH216898   4.310   0.338   4.773
 5652TIP3    H116899   4.276   0.332   4.684
 5652TIP3    H216900   4.231   0.334   4.828
 5653TIP3   OH216901   5.409   3.030   4.787
 5653TIP3    H116902   5.357   3.017   4.865
 5653TIP3    H216903   5.455   3.113   4.802
 5654TIP3   OH216904   2.093   3.700   1.920
 5654TIP3    H116905   2.129   3.737   2.001
 5654TIP3    H216906   2.018   3.757   1.900
 5655TIP3   OH216907   0.146   2.230   3.887
 5655TIP3    H116908   0.221   2.290   3.888
 5655TIP3    H216909   0.078   2.276   3.936
 5656TIP3   OH216910   0.321   2.586   2.577
 5656TIP3    H116911   0.373   2.666   2.574
 5656TIP3    H216912   0.242   2.611   2.626
 5657TIP3   OH216913   0.751   5.754   3.785
 5657TIP3    H116914   0.827   5.786   3.735
 5657TIP3    H216915   0.678   5.760   3.724
 5658TIP3   OH216916   0.426   3.139   0.254
 5658TIP3    H116917   0.467   3.219   0.287
 5658TIP3    H216918   0.491   3.101   0.195
 5659TIP3   OH216919   4.423   2.989   0.125
 5659TIP3    H116920   4.508   3.024   0.098
 5659TIP3    H216921   4.361   3.024   0.061
 5660TIP3   OH216922   8.047   4.705   5.367
 5660TIP3    H116923   8.027   4.759   5.290
 5660TIP3    H216924   8.086   4.626   5.330
 5661TIP3   OH216925   0.094   4.203   2.373
 5661TIP3    H116926   0.008   4.186   2.412
 5661TIP3    H216927   0.082   4.284   2.324
 5662TIP3   OH216928   7.507   4.921   1.035
 5662TIP3    H116929   7.518   4.827   1.047
 5662TIP3    H216930   7.583   4.948   0.985
 5663TIP3   OH216931   4.837   0.886   3.518
 5663TIP3    H116932   4.899   0.855   3.453
 5663TIP3    H216933   4.854   0.980   3.526
 5664TIP3   OH216934   3.788   5.408   6.147
 5664TIP3    H116935   3.849   5.389   6.076
 5664TIP3    H216936   3.793   5.503   6.158
 5665TIP3   OH216937   6.304   4.034   4.186
 5665TIP3    H116938   6.396   4.057   4.197
 5665TIP3    H216939   6.303   3.939   4.183
 5666TIP3   OH216940   4.328   0.373   2.805
 5666TIP3    H116941   4.402   0.418   2.766
 5666TIP3    H216942   4.309   0.301   2.745
 5667TIP3   OH216943   0.200   3.571   6.611
 5667TIP3    H116944   0.219   3.488   6.655
 5667TIP3    H216945   0.269   3.630   6.640
 5668TIP3   OH216946   7.845   3.694   1.756
 5668TIP3    H116947   7.926   3.745   1.761
 5668TIP3    H216948   7.871   3.606   1.784
 5669TIP3   OH216949   3.834   5.029   5.171
 5669TIP3    H116950   3.835   5.118   5.208
 5669TIP3    H216951   3.847   4.972   5.247
 5670TIP3   OH216952   2.083   6.300   6.586
 5670TIP3    H116953   2.046   6.385   6.608
 5670TIP3    H216954   2.176   6.317   6.569
 5671TIP3   OH216955   2.951   6.044   3.665
 5671TIP3    H116956   2.958   6.084   3.752
 5671TIP3    H216957   2.877   5.985   3.672
 5672TIP3   OH216958   5.520   6.680   4.858
 5672TIP3    H116959   5.556   6.765   4.883
 5672TIP3    H216960   5.454   6.699   4.793
 5673TIP3   OH216961   1.416   0.278   2.560
 5673TIP3    H116962   1.479   0.241   2.498
 5673TIP3    H216963   1.339   0.222   2.551
 5674TIP3   OH216964   2.634   5.325   2.876
 5674TIP3    H116965   2.588   5.353   2.956
 5674TIP3    H216966   2.611   5.391   2.811
 5675TIP3   OH216967   5.262   6.988   0.799
 5675TIP3    H116968   5.325   7.035   0.744
 5675TIP3    H216969   5.228   7.054   0.859
 5676TIP3   OH216970   0.258   3.906   1.609
 5676TIP3    H116971   0.251   3.871   1.698
 5676TIP3    H216972   0.223   3.995   1.615
 5677TIP3   OH216973   2.855   1.902   1.139
 5677TIP3    H116974   2.911   1.858   1.203
 5677TIP3    H216975   2.884   1.993   1.142
 5678TIP3   OH216976   5.045   2.715   2.833
 5678TIP3    H116977   5.073   2.800   2.799
 5678TIP3    H216978   5.025   2.663   2.755
 5679TIP3   OH216979   4.172   6.607   6.550
 5679TIP3    H116980   4.082   6.627   6.574
 5679TIP3    H216981   4.217   6.598   6.634
 5680TIP3   OH216982   2.594   1.748   3.983
 5680TIP3    H116983   2.576   1.840   3.966
 5680TIP3    H216984   2.624   1.713   3.899
 5681TIP3   OH216985   0.602   4.614   3.649
 5681TIP3    H116986   0.626   4.664   3.727
 5681TIP3    H216987   0.667   4.544   3.645
 5682TIP3   OH216988   4.245   7.642   0.246
 5682TIP3    H116989   4.198   7.582   0.188
 5682TIP3    H216990   4.282   7.708   0.187
 5683TIP3   OH216991   0.872   6.653   4.509
 5683TIP3    H116992   0.879   6.561   4.485
 5683TIP3    H216993   0.956   6.691   4.484
 5684TIP3   OH216994   2.765   3.174   5.626
 5684TIP3    H116995   2.710   3.097   5.613
 5684TIP3    H216996   2.762   3.220   5.543
 5685TIP3   OH216997   1.886   6.412   2.695
 5685TIP3    H116998   1.806   6.462   2.675
 5685TIP3    H216999   1.930   6.464   2.762
 5686TIP3   OH217000   1.283   6.075   4.997
 5686TIP3    H117001   1.221   6.009   5.027
 5686TIP3    H217002   1.304   6.126   5.075
 5687TIP3   OH217003   5.807   7.830   1.085
 5687TIP3    H117004   5.770   7.758   1.034
 5687TIP3    H217005   5.763   7.824   1.170
 5688TIP3   OH217006   2.321   0.072   0.344
 5688TIP3    H117007   2.393   0.066   0.281
 5688TIP3    H217008   2.362   0.057   0.429
 5689TIP3   OH217009   5.967   5.616   1.544
 5689TIP3    H117010   5.964   5.711   1.556
 5689TIP3    H217011   6.029   5.585   1.609
 5690TIP3   OH217012   0.958   0.937   3.393
 5690TIP3    H117013   1.050   0.936   3.420
 5690TIP3    H217014   0.950   1.015   3.338
 5691TIP3   OH217015   4.604   0.015   1.064
 5691TIP3    H117016   4.658   0.093   1.075
 5691TIP3    H217017   4.562   0.002   1.149
 5692TIP3   OH217018   3.993   4.406   6.578
 5692TIP3    H117019   4.072   4.456   6.592
 5692TIP3    H217020   3.962   4.384   6.666
 5693TIP3   OH217021   7.080   1.257   0.112
 5693TIP3    H117022   7.048   1.304   0.035
 5693TIP3    H217023   7.014   1.190   0.129
 5694TIP3   OH217024   4.792   0.516   1.055
 5694TIP3    H117025   4.818   0.563   0.976
 5694TIP3    H217026   4.873   0.511   1.107
 5695TIP3   OH217027   5.370   2.457   1.570
 5695TIP3    H117028   5.328   2.454   1.484
 5695TIP3    H217029   5.369   2.549   1.594
 5696TIP3   OH217030  -0.032   3.589   4.833
 5696TIP3    H117031  -0.053   3.681   4.817
 5696TIP3    H217032   0.041   3.571   4.773
 5697TIP3   OH217033   8.024   4.999   4.206
 5697TIP3    H117034   8.026   5.077   4.261
 5697TIP3    H217035   8.073   4.933   4.256
 5698TIP3   OH217036   7.438   0.129   0.718
 5698TIP3    H117037   7.511   0.180   0.683
 5698TIP3    H217038   7.366   0.145   0.657
 5699TIP3   OH217039   6.491   1.078   5.955
 5699TIP3    H117040   6.482   0.998   6.008
 5699TIP3    H217041   6.550   1.054   5.884
 5700TIP3   OH217042   6.284   2.489   1.602
 5700TIP3    H117043   6.257   2.474   1.692
 5700TIP3    H217044   6.324   2.576   1.602
 5701TIP3   OH217045   3.677   4.028   2.870
 5701TIP3    H117046   3.726   4.061   2.795
 5701TIP3    H217047   3.588   4.063   2.859
 5702TIP3   OH217048   5.722   0.875   2.039
 5702TIP3    H117049   5.672   0.798   2.064
 5702TIP3    H217050   5.778   0.844   1.967
 5703TIP3   OH217051   6.922   5.000   0.879
 5703TIP3    H117052   6.932   4.952   0.796
 5703TIP3    H217053   6.998   5.058   0.882
 5704TIP3   OH217054   7.469   4.305   0.973
 5704TIP3    H117055   7.453   4.292   0.880
 5704TIP3    H217056   7.389   4.272   1.015
 5705TIP3   OH217057   1.460   4.254   5.201
 5705TIP3    H117058   1.374   4.296   5.208
 5705TIP3    H217059   1.499   4.264   5.288
 5706TIP3   OH217060   6.401   4.165   2.144
 5706TIP3    H117061   6.372   4.249   2.109
 5706TIP3    H217062   6.420   4.182   2.236
 5707TIP3   OH217063   4.362   5.456   5.123
 5707TIP3    H117064   4.318   5.468   5.207
 5707TIP3    H217065   4.365   5.362   5.110
 5708TIP3   OH217066   3.857   6.366   4.384
 5708TIP3    H117067   3.942   6.371   4.428
 5708TIP3    H217068   3.824   6.278   4.405
 5709TIP3   OH217069   5.730   3.307   6.203
 5709TIP3    H117070   5.740   3.353   6.286
 5709TIP3    H217071   5.798   3.239   6.206
 5710TIP3   OH217072   7.835   4.511   0.815
 5710TIP3    H117073   7.855   4.582   0.754
 5710TIP3    H217074   7.812   4.556   0.897
 5711TIP3   OH217075   5.085   2.485   0.916
 5711TIP3    H117076   5.162   2.438   0.884
 5711TIP3    H217077   5.117   2.538   0.988
 5712TIP3   OH217078   3.072   4.772   1.675
 5712TIP3    H117079   2.990   4.775   1.725
 5712TIP3    H217080   3.096   4.680   1.673
 5713TIP3   OH217081   4.734   1.470   6.258
 5713TIP3    H117082   4.767   1.431   6.177
 5713TIP3    H217083   4.737   1.564   6.244
 5714TIP3   OH217084   0.163   4.569   6.555
 5714TIP3    H117085   0.184   4.542   6.644
 5714TIP3    H217086   0.069   4.552   6.547
 5715TIP3   OH217087   6.524   3.589   3.424
 5715TIP3    H117088   6.523   3.658   3.490
 5715TIP3    H217089   6.546   3.635   3.343
 5716TIP3   OH217090   0.964   5.280   1.694
 5716TIP3    H117091   1.043   5.286   1.747
 5716TIP3    H217092   0.932   5.190   1.707
 5717TIP3   OH217093   3.774   0.956   1.863
 5717TIP3    H117094   3.802   1.016   1.933
 5717TIP3    H217095   3.776   1.010   1.784
 5718TIP3   OH217096   0.323   5.172   3.844
 5718TIP3    H117097   0.386   5.214   3.786
 5718TIP3    H217098   0.343   5.078   3.838
 5719TIP3   OH217099   1.025   3.585   2.872
 5719TIP3    H117100   0.942   3.554   2.908
 5719TIP3    H217101   1.037   3.672   2.912
 5720TIP3   OH217102   6.682   0.709   4.782
 5720TIP3    H117103   6.714   0.622   4.760
 5720TIP3    H217104   6.735   0.736   4.857
 5721TIP3   OH217105   1.290   7.023   5.283
 5721TIP3    H117106   1.310   6.936   5.250
 5721TIP3    H217107   1.339   7.030   5.365
 5722TIP3   OH217108   4.538   5.481   0.325
 5722TIP3    H117109   4.512   5.512   0.238
 5722TIP3    H217110   4.604   5.543   0.354
 5723TIP3   OH217111   5.854   3.279   5.845
 5723TIP3    H117112   5.915   3.319   5.783
 5723TIP3    H217113   5.860   3.185   5.827
 5724TIP3   OH217114   7.050   3.582   5.824
 5724TIP3    H117115   7.096   3.510   5.868
 5724TIP3    H217116   7.115   3.653   5.822
 5725TIP3   OH217117   4.986   6.913   3.408
 5725TIP3    H117118   5.013   6.828   3.372
 5725TIP3    H217119   4.959   6.963   3.331
 5726TIP3   OH217120   0.952   5.732   0.295
 5726TIP3    H117121   1.034   5.683   0.293
 5726TIP3    H217122   0.891   5.676   0.344
 5727TIP3   OH217123   5.366   4.873   1.947
 5727TIP3    H117124   5.357   4.839   1.858
 5727TIP3    H217125   5.278   4.865   1.984
 5728TIP3   OH217126   7.865   3.112   1.845
 5728TIP3    H117127   7.909   3.111   1.760
 5728TIP3    H217128   7.819   3.028   1.849
 5729TIP3   OH217129   6.881   1.072   0.144
 5729TIP3    H117130   6.799   1.099   0.103
 5729TIP3    H217131   6.869   0.979   0.164
 5730TIP3   OH217132   4.688   0.599   4.525
 5730TIP3    H117133   4.709   0.574   4.435
 5730TIP3    H217134   4.770   0.633   4.561
 5731TIP3   OH217135   3.096   4.983   0.225
 5731TIP3    H117136   3.011   4.970   0.184
 5731TIP3    H217137   3.150   4.911   0.192
 5732TIP3   OH217138   0.086   0.915   0.127
 5732TIP3    H117139   0.029   0.992   0.118
 5732TIP3    H217140   0.174   0.949   0.108
 5733TIP3   OH217141   7.323   4.180   4.397
 5733TIP3    H117142   7.328   4.123   4.320
 5733TIP3    H217143   7.341   4.268   4.364
 5734TIP3   OH217144   3.444   3.852   2.696
 5734TIP3    H117145   3.444   3.928   2.753
 5734TIP3    H217146   3.529   3.855   2.651
 5735TIP3   OH217147   1.470   2.275   5.534
 5735TIP3    H117148   1.433   2.247   5.451
 5735TIP3    H217149   1.402   2.257   5.598
 5736TIP3   OH217150   5.551   2.812   2.115
 5736TIP3    H117151   5.475   2.754   2.120
 5736TIP3    H217152   5.599   2.782   2.039
 5737TIP3   OH217153   3.187   6.849   2.256
 5737TIP3    H117154   3.094   6.869   2.242
 5737TIP3    H217155   3.230   6.935   2.254
 5738TIP3   OH217156   2.994   2.837   2.991
 5738TIP3    H117157   3.062   2.801   3.048
 5738TIP3    H217158   3.038   2.852   2.907
 5739TIP3   OH217159   4.800   3.935   2.965
 5739TIP3    H117160   4.829   3.972   2.882
 5739TIP3    H217161   4.802   3.841   2.952
 5740TIP3   OH217162   2.564   5.702   6.541
 5740TIP3    H117163   2.494   5.658   6.492
 5740TIP3    H217164   2.522   5.727   6.624
 5741TIP3   OH217165   8.247   1.639   4.544
 5741TIP3    H117166   8.254   1.626   4.639
 5741TIP3    H217167   8.262   1.553   4.506
 5742TIP3   OH217168   3.435   7.542   2.520
 5742TIP3    H117169   3.386   7.519   2.599
 5742TIP3    H217170   3.500   7.472   2.511
 5743TIP3   OH217171   3.473   4.755   6.149
 5743TIP3    H117172   3.509   4.679   6.195
 5743TIP3    H217173   3.511   4.830   6.195
 5744TIP3   OH217174   7.435   3.861   5.146
 5744TIP3    H117175   7.419   3.951   5.120
 5744TIP3    H217176   7.522   3.862   5.185
 5745TIP3   OH217177   4.667   5.918   0.730
 5745TIP3    H117178   4.666   5.933   0.824
 5745TIP3    H217179   4.639   6.001   0.692
 5746TIP3   OH217180   6.112   1.518   4.794
 5746TIP3    H117181   6.034   1.563   4.824
 5746TIP3    H217182   6.177   1.533   4.863
 5747TIP3   OH217183   0.153   0.963   5.957
 5747TIP3    H117184   0.071   0.914   5.950
 5747TIP3    H217185   0.174   0.987   5.867
 5748TIP3   OH217186   5.065   4.247   5.248
 5748TIP3    H117187   5.008   4.193   5.193
 5748TIP3    H217188   5.013   4.324   5.268
 5749TIP3   OH217189   1.841   6.261   6.161
 5749TIP3    H117190   1.825   6.344   6.206
 5749TIP3    H217191   1.920   6.226   6.202
 5750TIP3   OH217192   1.813   2.903   1.283
 5750TIP3    H117193   1.765   2.864   1.356
 5750TIP3    H217194   1.800   2.997   1.293
 5751TIP3   OH217195   2.694   5.643   6.034
 5751TIP3    H117196   2.654   5.671   5.952
 5751TIP3    H217197   2.718   5.725   6.077
 5752TIP3   OH217198   1.708   5.344   5.261
 5752TIP3    H117199   1.744   5.256   5.250
 5752TIP3    H217200   1.616   5.330   5.285
 5753TIP3   OH217201   8.001   7.391   4.957
 5753TIP3    H117202   8.037   7.305   4.939
 5753TIP3    H217203   7.919   7.394   4.906
 5754TIP3   OH217204   0.959   3.534   2.608
 5754TIP3    H117205   0.998   3.571   2.687
 5754TIP3    H217206   0.907   3.460   2.640
 5755TIP3   OH217207   1.291   0.946   4.682
 5755TIP3    H117208   1.380   0.982   4.685
 5755TIP3    H217209   1.236   1.019   4.657
 5756TIP3   OH217210   3.467   1.181   3.251
 5756TIP3    H117211   3.474   1.117   3.180
 5756TIP3    H217212   3.378   1.215   3.244
 5757TIP3   OH217213   0.052   0.624   2.247
 5757TIP3    H117214   0.097   0.598   2.166
 5757TIP3    H217215   0.033   0.717   2.235
 5758TIP3   OH217216   2.626   7.374   2.556
 5758TIP3    H117217   2.594   7.315   2.623
 5758TIP3    H217218   2.548   7.406   2.512
 5759TIP3   OH217219   6.810   5.341   0.627
 5759TIP3    H117220   6.889   5.395   0.634
 5759TIP3    H217221   6.826   5.284   0.552
 5760TIP3   OH217222   4.551   4.811   6.304
 5760TIP3    H117223   4.635   4.816   6.258
 5760TIP3    H217224   4.485   4.817   6.235
 5761TIP3   OH217225   0.116   6.085   2.134
 5761TIP3    H117226   0.179   6.122   2.072
 5761TIP3    H217227   0.038   6.068   2.081
 5762TIP3   OH217228   5.734   1.002   5.876
 5762TIP3    H117229   5.821   0.962   5.869
 5762TIP3    H217230   5.674   0.933   5.848
 5763TIP3   OH217231   0.412   1.321   3.026
 5763TIP3    H117232   0.383   1.412   3.019
 5763TIP3    H217233   0.475   1.322   3.098
 5764TIP3   OH217234   2.831   5.588   3.957
 5764TIP3    H117235   2.816   5.495   3.975
 5764TIP3    H217236   2.802   5.633   4.036
 5765TIP3   OH217237   4.698   1.847   2.726
 5765TIP3    H117238   4.752   1.775   2.693
 5765TIP3    H217239   4.618   1.805   2.758
 5766TIP3   OH217240   3.311   3.462   4.944
 5766TIP3    H117241   3.341   3.485   5.032
 5766TIP3    H217242   3.391   3.439   4.897
 5767TIP3   OH217243   4.924   7.360   1.431
 5767TIP3    H117244   4.897   7.416   1.503
 5767TIP3    H217245   4.990   7.302   1.469
 5768TIP3   OH217246   1.670   2.714   6.749
 5768TIP3    H117247   1.626   2.636   6.716
 5768TIP3    H217248   1.652   2.782   6.684
 5769TIP3   OH217249   1.904   3.767   4.010
 5769TIP3    H117250   1.942   3.850   4.039
 5769TIP3    H217251   1.831   3.752   4.071
 5770TIP3   OH217252   2.735   3.773   3.028
 5770TIP3    H117253   2.821   3.796   2.994
 5770TIP3    H217254   2.742   3.788   3.123
 5771TIP3   OH217255   3.102   3.293   2.299
 5771TIP3    H117256   3.082   3.303   2.392
 5771TIP3    H217257   3.135   3.203   2.292
 5772TIP3   OH217258   3.698   0.352   0.710
 5772TIP3    H117259   3.712   0.419   0.777
 5772TIP3    H217260   3.769   0.289   0.724
 5773TIP3   OH217261   3.767   4.262   3.800
 5773TIP3    H117262   3.764   4.245   3.705
 5773TIP3    H217263   3.741   4.179   3.840
 5774TIP3   OH217264   5.329   0.009   1.226
 5774TIP3    H117265   5.300  -0.046   1.152
 5774TIP3    H217266   5.253   0.015   1.283
 5775TIP3   OH217267   5.498   2.262   3.575
 5775TIP3    H117268   5.437   2.323   3.533
 5775TIP3    H217269   5.584   2.291   3.546
 5776TIP3   OH217270   0.713   0.196   1.783
 5776TIP3    H117271   0.661   0.274   1.767
 5776TIP3    H217272   0.666   0.149   1.851
 5777TIP3   OH217273   2.585   4.723   4.582
 5777TIP3    H117274   2.503   4.767   4.606
 5777TIP3    H217275   2.611   4.765   4.500
 5778TIP3   OH217276   3.177   2.317   4.253
 5778TIP3    H117277   3.267   2.338   4.227
 5778TIP3    H217278   3.127   2.321   4.172
 5779TIP3   OH217279   2.955   0.197   3.555
 5779TIP3    H117280   2.946   0.282   3.514
 5779TIP3    H217281   2.866   0.161   3.556
 5780TIP3   OH217282   6.208   0.585   2.450
 5780TIP3    H117283   6.254   0.642   2.511
 5780TIP3    H217284   6.252   0.500   2.458
 5781TIP3   OH217285   5.078   5.607   2.936
 5781TIP3    H117286   5.035   5.530   2.900
 5781TIP3    H217287   5.082   5.669   2.863
 5782TIP3   OH217288   7.493  -0.005   6.261
 5782TIP3    H117289   7.552   0.045   6.318
 5782TIP3    H217290   7.548  -0.074   6.223
 5783TIP3   OH217291   6.573   1.669   2.402
 5783TIP3    H117292   6.610   1.687   2.489
 5783TIP3    H217293   6.582   1.751   2.354
 5784TIP3   OH217294   8.077   6.624   6.679
 5784TIP3    H117295   7.996   6.665   6.650
 5784TIP3    H217296   8.054   6.577   6.759
 5785TIP3   OH217297   3.736   6.778   2.900
 5785TIP3    H117298   3.718   6.714   2.832
 5785TIP3    H217299   3.827   6.762   2.925
 5786TIP3   OH217300   6.871   7.015   5.861
 5786TIP3    H117301   6.843   7.066   5.784
 5786TIP3    H217302   6.966   7.008   5.852
 5787TIP3   OH217303   3.985   6.041   2.733
 5787TIP3    H117304   4.031   5.973   2.684
 5787TIP3    H217305   4.027   6.041   2.820
 5788TIP3   OH217306   5.200   6.224   1.301
 5788TIP3    H117307   5.231   6.136   1.323
 5788TIP3    H217308   5.126   6.238   1.360
 5789TIP3   OH217309   8.151   7.693   3.378
 5789TIP3    H117310   8.108   7.716   3.460
 5789TIP3    H217311   8.243   7.683   3.401
 5790TIP3   OH217312   3.756   2.273   4.659
 5790TIP3    H117313   3.732   2.357   4.620
 5790TIP3    H217314   3.691   2.211   4.625
 5791TIP3   OH217315   6.226   2.724   3.957
 5791TIP3    H117316   6.214   2.701   3.865
 5791TIP3    H217317   6.189   2.812   3.964
 5792TIP3   OH217318   8.206   3.844   0.926
 5792TIP3    H117319   8.134   3.907   0.928
 5792TIP3    H217320   8.261   3.867   1.001
 5793TIP3   OH217321   3.671   3.986   2.457
 5793TIP3    H117322   3.610   4.040   2.405
 5793TIP3    H217323   3.696   4.043   2.530
 5794TIP3   OH217324   0.780   3.722   0.283
 5794TIP3    H117325   0.796   3.719   0.377
 5794TIP3    H217326   0.767   3.630   0.258
 5795TIP3   OH217327   3.914   1.512   3.813
 5795TIP3    H117328   3.864   1.442   3.854
 5795TIP3    H217329   3.866   1.530   3.731
 5796TIP3   OH217330   0.229   5.277   4.841
 5796TIP3    H117331   0.252   5.279   4.934
 5796TIP3    H217332   0.194   5.365   4.824
 5797TIP3   OH217333   4.699   3.982   1.166
 5797TIP3    H117334   4.647   3.964   1.244
 5797TIP3    H217335   4.638   4.025   1.105
 5798TIP3   OH217336   6.186   4.888   4.164
 5798TIP3    H117337   6.176   4.891   4.069
 5798TIP3    H217338   6.115   4.942   4.198
 5799TIP3   OH217339   6.704   7.589   4.561
 5799TIP3    H117340   6.645   7.518   4.536
 5799TIP3    H217341   6.721   7.636   4.479
 5800TIP3   OH217342   1.217   7.037   6.538
 5800TIP3    H117343   1.272   7.112   6.559
 5800TIP3    H217344   1.176   7.013   6.621
 5801TIP3   OH217345   2.497   0.382   3.466
 5801TIP3    H117346   2.522   0.299   3.425
 5801TIP3    H217347   2.429   0.418   3.410
 5802TIP3   OH217348   2.159   0.254   2.111
 5802TIP3    H117349   2.075   0.253   2.064
 5802TIP3    H217350   2.203   0.174   2.082
 5803TIP3   OH217351   4.831   4.400   1.226
 5803TIP3    H117352   4.887   4.323   1.218
 5803TIP3    H217353   4.765   4.388   1.158
 5804TIP3   OH217354   7.176   6.659   2.469
 5804TIP3    H117355   7.205   6.696   2.553
 5804TIP3    H217356   7.199   6.566   2.474
 5805TIP3   OH217357   2.767   2.260   3.219
 5805TIP3    H117358   2.800   2.349   3.212
 5805TIP3    H217359   2.679   2.264   3.180
 5806TIP3   OH217360   1.437   1.696   2.734
 5806TIP3    H117361   1.452   1.613   2.689
 5806TIP3    H217362   1.524   1.723   2.764
 5807TIP3   OH217363   6.277   3.537   5.312
 5807TIP3    H117364   6.183   3.550   5.323
 5807TIP3    H217365   6.285   3.470   5.245
 5808TIP3   OH217366   7.215   3.815   5.805
 5808TIP3    H117367   7.254   3.857   5.729
 5808TIP3    H217368   7.211   3.884   5.872
 5809TIP3   OH217369   2.083   2.292   2.232
 5809TIP3    H117370   2.167   2.258   2.201
 5809TIP3    H217371   2.102   2.382   2.259
 5810TIP3   OH217372   2.684   0.517   3.842
 5810TIP3    H117373   2.777   0.510   3.863
 5810TIP3    H217374   2.660   0.430   3.810
 5811TIP3   OH217375   6.675   7.067   1.375
 5811TIP3    H117376   6.656   6.979   1.408
 5811TIP3    H217377   6.756   7.092   1.419
 5812TIP3   OH217378   2.961   3.897   3.002
 5812TIP3    H117379   3.045   3.851   2.991
 5812TIP3    H217380   2.986   3.987   3.025
 5813TIP3   OH217381   4.863   2.599   3.654
 5813TIP3    H117382   4.840   2.609   3.746
 5813TIP3    H217383   4.933   2.662   3.639
 5814TIP3   OH217384   3.882   6.717   0.962
 5814TIP3    H117385   3.851   6.742   1.049
 5814TIP3    H217386   3.822   6.648   0.934
 5815TIP3   OH217387   3.479   1.073   0.593
 5815TIP3    H117388   3.541   1.024   0.646
 5815TIP3    H217389   3.393   1.046   0.625
 5816TIP3   OH217390   0.386   6.055   2.529
 5816TIP3    H117391   0.432   5.987   2.481
 5816TIP3    H217392   0.334   6.101   2.462
 5817TIP3   OH217393   6.302   6.349   1.899
 5817TIP3    H117394   6.396   6.329   1.902
 5817TIP3    H217395   6.296   6.427   1.844
 5818TIP3   OH217396   4.873   7.488   5.032
 5818TIP3    H117397   4.816   7.462   4.959
 5818TIP3    H217398   4.875   7.584   5.028
 5819TIP3   OH217399   0.775   1.063   0.838
 5819TIP3    H117400   0.821   0.987   0.874
 5819TIP3    H217401   0.784   1.130   0.905
 5820TIP3   OH217402   6.723   4.629   0.056
 5820TIP3    H117403   6.796   4.649   0.115
 5820TIP3    H217404   6.751   4.661  -0.029
 5821TIP3   OH217405   1.883   1.237   1.307
 5821TIP3    H117406   1.927   1.303   1.253
 5821TIP3    H217407   1.894   1.269   1.397
 5822TIP3   OH217408   6.020   0.489   4.551
 5822TIP3    H117409   6.073   0.536   4.487
 5822TIP3    H217410   6.043   0.528   4.635
 5823TIP3   OH217411   3.116   0.415   0.211
 5823TIP3    H117412   3.177   0.484   0.182
 5823TIP3    H217413   3.171   0.354   0.261
 5824TIP3   OH217414   0.398   6.660   1.250
 5824TIP3    H117415   0.483   6.686   1.215
 5824TIP3    H217416   0.346   6.740   1.247
 5825TIP3   OH217417   1.747   4.379   0.899
 5825TIP3    H117418   1.664   4.424   0.915
 5825TIP3    H217419   1.746   4.303   0.957
 5826TIP3   OH217420   3.934   3.841   1.971
 5826TIP3    H117421   3.900   3.857   2.059
 5826TIP3    H217422   3.899   3.912   1.918
 5827TIP3   OH217423   5.740   2.926   6.614
 5827TIP3    H117424   5.816   2.918   6.556
 5827TIP3    H217425   5.726   2.837   6.647
 5828TIP3   OH217426   4.088   1.280   1.783
 5828TIP3    H117427   4.150   1.337   1.827
 5828TIP3    H217428   4.120   1.191   1.800
 5829TIP3   OH217429   0.854   2.521   0.072
 5829TIP3    H117430   0.787   2.468   0.029
 5829TIP3    H217431   0.896   2.460   0.133
 5830TIP3   OH217432   7.698   1.583   4.494
 5830TIP3    H117433   7.664   1.494   4.502
 5830TIP3    H217434   7.668   1.613   4.408
 5831TIP3   OH217435   6.565   1.922   2.293
 5831TIP3    H117436   6.622   1.940   2.219
 5831TIP3    H217437   6.485   1.889   2.254
 5832TIP3   OH217438   7.170   5.729   4.843
 5832TIP3    H117439   7.249   5.685   4.811
 5832TIP3    H217440   7.128   5.763   4.765
 5833TIP3   OH217441   2.526   1.595   6.716
 5833TIP3    H117442   2.613   1.634   6.716
 5833TIP3    H217443   2.508   1.577   6.624
 5834TIP3   OH217444   7.582   6.975   3.714
 5834TIP3    H117445   7.582   6.909   3.644
 5834TIP3    H217446   7.639   7.044   3.681
 5835TIP3   OH217447   5.914   6.339   5.983
 5835TIP3    H117448   5.876   6.381   5.906
 5835TIP3    H217449   5.858   6.366   6.055
 5836TIP3   OH217450   0.160   1.565   1.452
 5836TIP3    H117451   0.087   1.615   1.417
 5836TIP3    H217452   0.123   1.518   1.528
 5837TIP3   OH217453   4.718   1.282   3.650
 5837TIP3    H117454   4.727   1.376   3.641
 5837TIP3    H217455   4.775   1.245   3.582
 5838TIP3   OH217456   5.631   1.067   1.838
 5838TIP3    H117457   5.650   1.001   1.905
 5838TIP3    H217458   5.589   1.138   1.886
 5839TIP3   OH217459   5.052   7.189   3.980
 5839TIP3    H117460   5.128   7.133   3.966
 5839TIP3    H217461   5.083   7.255   4.042
 5840TIP3   OH217462   7.021   0.103   3.434
 5840TIP3    H117463   7.108   0.071   3.413
 5840TIP3    H217464   7.028   0.199   3.431
 5841TIP3   OH217465   7.582   6.839   0.250
 5841TIP3    H117466   7.528   6.788   0.189
 5841TIP3    H217467   7.648   6.880   0.195
 5842TIP3   OH217468   2.946   2.110   2.359
 5842TIP3    H117469   2.888   2.067   2.296
 5842TIP3    H217470   3.029   2.120   2.313
 5843TIP3   OH217471   4.218   6.796   5.885
 5843TIP3    H117472   4.255   6.708   5.894
 5843TIP3    H217473   4.152   6.788   5.817
 5844TIP3   OH217474   7.611   3.599   6.454
 5844TIP3    H117475   7.559   3.622   6.530
 5844TIP3    H217476   7.581   3.659   6.385
 5845TIP3   OH217477   0.756   1.695   5.474
 5845TIP3    H117478   0.752   1.623   5.537
 5845TIP3    H217479   0.758   1.652   5.388
 5846TIP3   OH217480   0.997   0.066   6.324
 5846TIP3    H117481   1.093   0.063   6.332
 5846TIP3    H217482   0.965   0.047   6.413
 5847TIP3   OH217483   7.471   1.462   0.494
 5847TIP3    H117484   7.462   1.524   0.422
 5847TIP3    H217485   7.538   1.500   0.551
 5848TIP3   OH217486   4.933   4.485   2.658
 5848TIP3    H117487   4.950   4.504   2.566
 5848TIP3    H217488   5.014   4.445   2.690
 5849TIP3   OH217489   0.324   2.132   5.270
 5849TIP3    H117490   0.343   2.226   5.268
 5849TIP3    H217491   0.231   2.125   5.253
 5850TIP3   OH217492   2.073   0.587   5.828
 5850TIP3    H117493   2.030   0.501   5.826
 5850TIP3    H217494   2.145   0.576   5.889
 5851TIP3   OH217495   5.739   7.655   0.601
 5851TIP3    H117496   5.730   7.658   0.696
 5851TIP3    H217497   5.825   7.692   0.584
 5852TIP3   OH217498   5.351   2.361   1.973
 5852TIP3    H117499   5.298   2.285   1.949
 5852TIP3    H217500   5.311   2.434   1.925
 5853TIP3   OH217501   1.075   1.350   6.141
 5853TIP3    H117502   1.095   1.440   6.169
 5853TIP3    H217503   0.993   1.328   6.186
 5854TIP3   OH217504   0.873   6.135   1.734
 5854TIP3    H117505   0.938   6.100   1.795
 5854TIP3    H217506   0.803   6.070   1.732
 5855TIP3   OH217507   0.891   7.749   0.327
 5855TIP3    H117508   0.959   7.683   0.338
 5855TIP3    H217509   0.820   7.703   0.282
 5856TIP3   OH217510   3.777   4.397   2.793
 5856TIP3    H117511   3.768   4.349   2.875
 5856TIP3    H217512   3.864   4.372   2.760
 5857TIP3   OH217513   2.267   7.385   5.890
 5857TIP3    H117514   2.199   7.434   5.844
 5857TIP3    H217515   2.295   7.318   5.828
 5858TIP3   OH217516   4.113   7.287   3.672
 5858TIP3    H117517   4.185   7.275   3.609
 5858TIP3    H217518   4.149   7.256   3.755
 5859TIP3   OH217519   4.343   4.632   5.485
 5859TIP3    H117520   4.395   4.665   5.558
 5859TIP3    H217521   4.384   4.549   5.461
 5860TIP3   OH217522   4.618   6.159   0.631
 5860TIP3    H117523   4.651   6.204   0.553
 5860TIP3    H217524   4.635   6.219   0.703
 5861TIP3   OH217525   1.393   3.432   4.909
 5861TIP3    H117526   1.352   3.358   4.865
 5861TIP3    H217527   1.476   3.398   4.942
 5862TIP3   OH217528   2.142   4.986   2.644
 5862TIP3    H117529   2.209   4.917   2.648
 5862TIP3    H217530   2.176   5.055   2.702
 5863TIP3   OH217531   6.172   3.592   6.280
 5863TIP3    H117532   6.151   3.685   6.275
 5863TIP3    H217533   6.117   3.550   6.214
 5864TIP3   OH217534   2.694   6.265   1.925
 5864TIP3    H117535   2.747   6.329   1.973
 5864TIP3    H217536   2.657   6.313   1.852
 5865TIP3   OH217537   5.934   2.233   1.564
 5865TIP3    H117538   5.903   2.320   1.588
 5865TIP3    H217539   5.998   2.248   1.494
 5866TIP3   OH217540   4.508   2.254   5.230
 5866TIP3    H117541   4.526   2.163   5.252
 5866TIP3    H217542   4.502   2.256   5.134
 5867TIP3   OH217543   2.143   0.865   3.738
 5867TIP3    H117544   2.087   0.810   3.683
 5867TIP3    H217545   2.087   0.939   3.763
 5868TIP3   OH217546   6.622   5.504   5.322
 5868TIP3    H117547   6.651   5.544   5.404
 5868TIP3    H217548   6.697   5.513   5.263
 5869TIP3   OH217549   1.541   6.397   2.766
 5869TIP3    H117550   1.586   6.315   2.787
 5869TIP3    H217551   1.469   6.401   2.829
 5870TIP3   OH217552   4.877   3.139   3.403
 5870TIP3    H117553   4.823   3.069   3.440
 5870TIP3    H217554   4.859   3.136   3.309
 5871TIP3   OH217555   6.619   0.615   5.083
 5871TIP3    H117556   6.710   0.588   5.089
 5871TIP3    H217557   6.575   0.542   5.039
 5872TIP3   OH217558   7.895   4.799   3.253
 5872TIP3    H117559   7.978   4.832   3.288
 5872TIP3    H217560   7.856   4.750   3.325
 5873TIP3   OH217561   6.267   3.757   0.803
 5873TIP3    H117562   6.346   3.744   0.749
 5873TIP3    H217563   6.274   3.691   0.872
 5874TIP3   OH217564   1.212   4.894   5.994
 5874TIP3    H117565   1.134   4.878   6.046
 5874TIP3    H217566   1.230   4.988   6.005
 5875TIP3   OH217567   3.629   5.680   6.774
 5875TIP3    H117568   3.629   5.627   6.694
 5875TIP3    H217569   3.660   5.621   6.842
 5876TIP3   OH217570   7.081   7.666   1.298
 5876TIP3    H117571   7.041   7.600   1.356
 5876TIP3    H217572   7.061   7.634   1.210
 5877TIP3   OH217573   2.860   4.064   1.637
 5877TIP3    H117574   2.845   4.017   1.555
 5877TIP3    H217575   2.772   4.090   1.665
 5878TIP3   OH217576   4.373   6.587   4.636
 5878TIP3    H117577   4.336   6.675   4.626
 5878TIP3    H217578   4.321   6.548   4.706
 5879TIP3   OH217579   8.086   0.932   3.428
 5879TIP3    H117580   8.136   0.941   3.346
 5879TIP3    H217581   8.011   0.991   3.417
 5880TIP3   OH217582   4.572   4.434   2.311
 5880TIP3    H117583   4.546   4.496   2.380
 5880TIP3    H217584   4.630   4.372   2.355
 5881TIP3   OH217585   3.042   6.067   0.562
 5881TIP3    H117586   3.000   6.152   0.548
 5881TIP3    H217587   3.075   6.043   0.476
 5882TIP3   OH217588   5.193   0.040   3.526
 5882TIP3    H117589   5.231   0.116   3.570
 5882TIP3    H217590   5.266  -0.022   3.518
 5883TIP3   OH217591   5.315   1.114   4.426
 5883TIP3    H117592   5.241   1.084   4.374
 5883TIP3    H217593   5.319   1.054   4.500
 5884TIP3   OH217594   5.845   6.268   3.755
 5884TIP3    H117595   5.768   6.290   3.807
 5884TIP3    H217596   5.897   6.211   3.812
 5885TIP3   OH217597   6.500   3.412   0.831
 5885TIP3    H117598   6.452   3.338   0.791
 5885TIP3    H217599   6.563   3.371   0.890
 5886TIP3   OH217600   1.329   0.863   5.725
 5886TIP3    H117601   1.412   0.823   5.699
 5886TIP3    H217602   1.339   0.879   5.819
 5887TIP3   OH217603   0.860   3.756   4.209
 5887TIP3    H117604   0.853   3.708   4.126
 5887TIP3    H217605   0.864   3.848   4.183
 5888TIP3   OH217606   0.627   3.857   3.153
 5888TIP3    H117607   0.553   3.817   3.198
 5888TIP3    H217608   0.652   3.930   3.209
 5889TIP3   OH217609   2.474   1.214   1.369
 5889TIP3    H117610   2.499   1.126   1.401
 5889TIP3    H217611   2.532   1.229   1.295
 5890TIP3   OH217612   5.362   5.769   4.877
 5890TIP3    H117613   5.363   5.807   4.965
 5890TIP3    H217614   5.345   5.676   4.891
 5891TIP3   OH217615   0.829   4.753   1.799
 5891TIP3    H117616   0.895   4.788   1.739
 5891TIP3    H217617   0.804   4.827   1.853
 5892TIP3   OH217618   7.774   5.916   4.081
 5892TIP3    H117619   7.726   5.869   4.150
 5892TIP3    H217620   7.737   6.004   4.081
 5893TIP3   OH217621   0.730   5.644   3.467
 5893TIP3    H117622   0.716   5.593   3.387
 5893TIP3    H217623   0.677   5.722   3.455
 5894TIP3   OH217624   6.491   5.367   6.585
 5894TIP3    H117625   6.457   5.281   6.563
 5894TIP3    H217626   6.451   5.426   6.521
 5895TIP3   OH217627   1.622   3.393   4.297
 5895TIP3    H117628   1.587   3.306   4.279
 5895TIP3    H217629   1.545   3.450   4.300
 5896TIP3   OH217630   4.159   2.083   0.407
 5896TIP3    H117631   4.090   2.060   0.345
 5896TIP3    H217632   4.203   2.001   0.425
 5897TIP3   OH217633   0.575   2.581   3.612
 5897TIP3    H117634   0.614   2.530   3.684
 5897TIP3    H217635   0.635   2.568   3.539
 5898TIP3   OH217636   6.768   4.328   1.049
 5898TIP3    H117637   6.702   4.290   0.991
 5898TIP3    H217638   6.822   4.382   0.991
 5899TIP3   OH217639   4.279   3.036   0.678
 5899TIP3    H117640   4.325   2.992   0.749
 5899TIP3    H217641   4.296   2.981   0.601
 5900TIP3   OH217642   4.293   6.184   5.174
 5900TIP3    H117643   4.200   6.188   5.197
 5900TIP3    H217644   4.300   6.239   5.095
 5901TIP3   OH217645   8.143   2.427   1.863
 5901TIP3    H117646   8.221   2.402   1.815
 5901TIP3    H217647   8.119   2.349   1.913
 5902TIP3   OH217648   2.782   6.509   4.826
 5902TIP3    H117649   2.853   6.447   4.808
 5902TIP3    H217650   2.772   6.559   4.745
 5903TIP3   OH217651   2.741   1.080   5.929
 5903TIP3    H117652   2.822   1.081   5.980
 5903TIP3    H217653   2.673   1.056   5.992
 5904TIP3   OH217654   7.347   3.912   3.483
 5904TIP3    H117655   7.422   3.854   3.494
 5904TIP3    H217656   7.325   3.940   3.572
 5905TIP3   OH217657   4.671   3.101   0.024
 5905TIP3    H117658   4.730   3.142   0.088
 5905TIP3    H217659   4.629   3.175  -0.020
 5906TIP3   OH217660   2.004   0.431   1.163
 5906TIP3    H117661   2.048   0.509   1.196
 5906TIP3    H217662   1.911   0.446   1.182
 5907TIP3   OH217663   3.052   3.316   2.570
 5907TIP3    H117664   3.090   3.260   2.638
 5907TIP3    H217665   2.960   3.327   2.596
 5908TIP3   OH217666   3.510   2.834   5.396
 5908TIP3    H117667   3.508   2.903   5.330
 5908TIP3    H217668   3.449   2.862   5.463
 5909TIP3   OH217669   1.134   3.631   0.631
 5909TIP3    H117670   1.175   3.688   0.565
 5909TIP3    H217671   1.041   3.630   0.606
 5910TIP3   OH217672   0.588   6.616   3.566
 5910TIP3    H117673   0.585   6.711   3.574
 5910TIP3    H217674   0.498   6.590   3.544
 5911TIP3   OH217675   0.222   5.940   6.451
 5911TIP3    H117676   0.269   5.999   6.391
 5911TIP3    H217677   0.174   5.881   6.393
 5912TIP3   OH217678   5.773   0.828   3.821
 5912TIP3    H117679   5.731   0.809   3.737
 5912TIP3    H217680   5.705   0.808   3.886
 5913TIP3   OH217681   7.482   2.938   0.647
 5913TIP3    H117682   7.401   2.973   0.683
 5913TIP3    H217683   7.488   2.977   0.560
 5914TIP3   OH217684   0.204   6.268   3.043
 5914TIP3    H117685   0.295   6.246   3.023
 5914TIP3    H217686   0.168   6.189   3.084
 5915TIP3   OH217687   2.004   5.036   2.136
 5915TIP3    H117688   2.077   5.051   2.197
 5915TIP3    H217689   1.979   4.945   2.150
 5916TIP3   OH217690   7.861   1.009   1.357
 5916TIP3    H117691   7.938   0.955   1.340
 5916TIP3    H217692   7.874   1.087   1.303
 5917TIP3   OH217693   3.268   5.248   4.027
 5917TIP3    H117694   3.209   5.215   4.094
 5917TIP3    H217695   3.284   5.173   3.970
 5918TIP3   OH217696   4.429   0.462   0.517
 5918TIP3    H117697   4.493   0.397   0.489
 5918TIP3    H217698   4.383   0.486   0.437
 5919TIP3   OH217699   3.685   6.558   0.560
 5919TIP3    H117700   3.735   6.489   0.516
 5919TIP3    H217701   3.729   6.639   0.532
 5920TIP3   OH217702   5.759   2.487   0.302
 5920TIP3    H117703   5.700   2.481   0.377
 5920TIP3    H217704   5.754   2.401   0.260
 5921TIP3   OH217705   0.712   7.133   5.162
 5921TIP3    H117706   0.805   7.110   5.161
 5921TIP3    H217707   0.694   7.162   5.072
 5922TIP3   OH217708   6.235   0.532   3.284
 5922TIP3    H117709   6.262   0.442   3.267
 5922TIP3    H217710   6.227   0.571   3.197
 5923TIP3   OH217711   5.836   6.963   2.038
 5923TIP3    H117712   5.888   7.015   2.099
 5923TIP3    H217713   5.765   7.021   2.011
 5924TIP3   OH217714   1.392   6.910   2.401
 5924TIP3    H117715   1.473   6.875   2.364
 5924TIP3    H217716   1.364   6.845   2.465
 5925TIP3   OH217717   2.066   2.890   6.530
 5925TIP3    H117718   2.021   2.805   6.523
 5925TIP3    H217719   2.019   2.936   6.599
 5926TIP3   OH217720   6.783   6.786   5.028
 5926TIP3    H117721   6.717   6.764   4.962
 5926TIP3    H217722   6.735   6.832   5.096
 5927TIP3   OH217723   1.695   7.717   6.479
 5927TIP3    H117724   1.732   7.722   6.567
 5927TIP3    H217725   1.600   7.716   6.492
 5928TIP3   OH217726   0.523   0.054   4.668
 5928TIP3    H117727   0.592   0.032   4.731
 5928TIP3    H217728   0.511  -0.025   4.617
 5929TIP3   OH217729   8.087   7.383   3.874
 5929TIP3    H117730   7.993   7.390   3.892
 5929TIP3    H217731   8.127   7.456   3.921
 5930TIP3   OH217732   7.497   2.307   3.858
 5930TIP3    H117733   7.485   2.293   3.764
 5930TIP3    H217734   7.535   2.226   3.890
 5931TIP3   OH217735   2.783   2.243   2.529
 5931TIP3    H117736   2.806   2.171   2.469
 5931TIP3    H217737   2.863   2.257   2.581
 5932TIP3   OH217738   2.985   0.325   4.622
 5932TIP3    H117739   2.927   0.351   4.693
 5932TIP3    H217740   3.049   0.266   4.663
 5933TIP3   OH217741   4.733   3.406   5.109
 5933TIP3    H117742   4.795   3.426   5.038
 5933TIP3    H217743   4.647   3.425   5.072
 5934TIP3   OH217744   4.675   4.086   6.310
 5934TIP3    H117745   4.614   4.158   6.327
 5934TIP3    H217746   4.761   4.127   6.307
 5935TIP3   OH217747   5.238   7.761   4.081
 5935TIP3    H117748   5.169   7.823   4.106
 5935TIP3    H217749   5.319   7.810   4.093
 5936TIP3   OH217750   4.254   5.052   2.003
 5936TIP3    H117751   4.238   5.091   2.089
 5936TIP3    H217752   4.245   4.958   2.018
 5937TIP3   OH217753   8.017   0.976   2.347
 5937TIP3    H117754   7.972   1.006   2.269
 5937TIP3    H217755   8.106   1.009   2.338
 5938TIP3   OH217756   5.691   7.378   6.299
 5938TIP3    H117757   5.678   7.365   6.393
 5938TIP3    H217758   5.786   7.374   6.288
 5939TIP3   OH217759   7.367   6.979   4.894
 5939TIP3    H117760   7.454   6.991   4.933
 5939TIP3    H217761   7.367   7.039   4.819
 5940TIP3   OH217762   2.569   6.453   4.526
 5940TIP3    H117763   2.561   6.523   4.460
 5940TIP3    H217764   2.652   6.410   4.505
 5941TIP3   OH217765   3.180   1.507   2.497
 5941TIP3    H117766   3.191   1.536   2.587
 5941TIP3    H217767   3.269   1.491   2.466
 5942TIP3   OH217768   4.627   1.796   0.509
 5942TIP3    H117769   4.692   1.819   0.575
 5942TIP3    H217770   4.670   1.813   0.425
 5943TIP3   OH217771   4.626   3.857   3.604
 5943TIP3    H117772   4.692   3.803   3.560
 5943TIP3    H217773   4.554   3.863   3.540
 5944TIP3   OH217774   7.243   0.097   6.120
 5944TIP3    H117775   7.202   0.011   6.110
 5944TIP3    H217776   7.336   0.078   6.132
 5945TIP3   OH217777   0.610   3.355   4.926
 5945TIP3    H117778   0.535   3.327   4.874
 5945TIP3    H217779   0.635   3.440   4.889
 5946TIP3   OH217780   7.311   5.092   6.113
 5946TIP3    H117781   7.331   5.068   6.023
 5946TIP3    H217782   7.386   5.143   6.142
 5947TIP3   OH217783   3.121   5.699   0.930
 5947TIP3    H117784   3.103   5.620   0.980
 5947TIP3    H217785   3.146   5.764   0.996
 5948TIP3   OH217786   6.630   3.133   0.002
 5948TIP3    H117787   6.662   3.075   0.071
 5948TIP3    H217788   6.537   3.114  -0.005
 5949TIP3   OH217789   1.471   4.818   2.946
 5949TIP3    H117790   1.491   4.909   2.924
 5949TIP3    H217791   1.431   4.783   2.867
 5950TIP3   OH217792   7.920   1.770   3.155
 5950TIP3    H117793   7.859   1.717   3.206
 5950TIP3    H217794   7.996   1.781   3.212
 5951TIP3   OH217795   6.326   1.575   4.286
 5951TIP3    H117796   6.351   1.502   4.342
 5951TIP3    H217797   6.396   1.581   4.221
 5952TIP3   OH217798   3.340   5.469   3.503
 5952TIP3    H117799   3.262   5.523   3.513
 5952TIP3    H217800   3.323   5.392   3.558
 5953TIP3   OH217801   7.150   5.458   1.075
 5953TIP3    H117802   7.235   5.426   1.106
 5953TIP3    H217803   7.144   5.547   1.109
 5954TIP3   OH217804   6.496   1.854   6.262
 5954TIP3    H117805   6.416   1.851   6.209
 5954TIP3    H217806   6.543   1.932   6.231
 5955TIP3   OH217807   3.935   6.212   2.166
 5955TIP3    H117808   3.980   6.130   2.185
 5955TIP3    H217809   3.866   6.217   2.233
 5956TIP3   OH217810   4.558   6.471   2.265
 5956TIP3    H117811   4.546   6.511   2.179
 5956TIP3    H217812   4.469   6.450   2.294
 5957TIP3   OH217813   6.528   4.605   1.677
 5957TIP3    H117814   6.527   4.614   1.581
 5957TIP3    H217815   6.547   4.512   1.692
 5958TIP3   OH217816   7.613   2.992   6.144
 5958TIP3    H117817   7.615   3.085   6.166
 5958TIP3    H217818   7.569   2.951   6.218
 5959TIP3   OH217819   6.095   5.032   1.554
 5959TIP3    H117820   6.129   4.981   1.480
 5959TIP3    H217821   6.000   5.028   1.544
 5960TIP3   OH217822   3.108   5.663   3.406
 5960TIP3    H117823   3.013   5.650   3.413
 5960TIP3    H217824   3.120   5.757   3.417
 5961TIP3   OH217825   4.096   3.859   3.149
 5961TIP3    H117826   4.006   3.846   3.120
 5961TIP3    H217827   4.147   3.865   3.067
 5962TIP3   OH217828   7.385   0.327   6.046
 5962TIP3    H117829   7.469   0.302   6.084
 5962TIP3    H217830   7.327   0.253   6.063
 5963TIP3   OH217831   0.505   2.430   2.409
 5963TIP3    H117832   0.447   2.472   2.473
 5963TIP3    H217833   0.450   2.364   2.367
 5964TIP3   OH217834   1.496   0.734   6.196
 5964TIP3    H117835   1.471   0.670   6.263
 5964TIP3    H217836   1.526   0.810   6.246
 5965TIP3   OH217837   0.590   3.702   6.228
 5965TIP3    H117838   0.660   3.658   6.181
 5965TIP3    H217839   0.512   3.648   6.212
 5966TIP3   OH217840   1.267   4.530   2.646
 5966TIP3    H117841   1.194   4.506   2.703
 5966TIP3    H217842   1.241   4.498   2.560
 5967TIP3   OH217843   7.869   4.520   1.638
 5967TIP3    H117844   7.914   4.603   1.623
 5967TIP3    H217845   7.932   4.468   1.688
 5968TIP3   OH217846   3.587   6.519   1.810
 5968TIP3    H117847   3.584   6.424   1.803
 5968TIP3    H217848   3.520   6.550   1.749
 5969TIP3   OH217849   0.371   6.125   6.317
 5969TIP3    H117850   0.448   6.122   6.260
 5969TIP3    H217851   0.365   6.216   6.346
 5970TIP3   OH217852   1.066   3.408   6.320
 5970TIP3    H117853   1.130   3.413   6.392
 5970TIP3    H217854   1.116   3.371   6.247
 5971TIP3   OH217855   0.796   4.540   0.788
 5971TIP3    H117856   0.824   4.627   0.816
 5971TIP3    H217857   0.709   4.528   0.826
 5972TIP3   OH217858   6.060   1.031   1.400
 5972TIP3    H117859   6.042   0.969   1.330
 5972TIP3    H217860   6.127   1.089   1.364
 5973TIP3   OH217861   4.617   6.791   6.410
 5973TIP3    H117862   4.712   6.782   6.418
 5973TIP3    H217863   4.582   6.714   6.455
 5974TIP3   OH217864   8.120   7.439   6.365
 5974TIP3    H117865   8.119   7.508   6.299
 5974TIP3    H217866   8.099   7.485   6.447
 5975TIP3   OH217867   4.804   5.754   6.296
 5975TIP3    H117868   4.897   5.745   6.278
 5975TIP3    H217869   4.786   5.847   6.285
 5976TIP3   OH217870   5.233   1.211   1.878
 5976TIP3    H117871   5.227   1.142   1.812
 5976TIP3    H217872   5.142   1.227   1.905
 5977TIP3   OH217873   4.674   0.317   0.061
 5977TIP3    H117874   4.740   0.387   0.058
 5977TIP3    H217875   4.722   0.238   0.036
 5978TIP3   OH217876   0.177   3.143   2.481
 5978TIP3    H117877   0.227   3.098   2.413
 5978TIP3    H217878   0.090   3.104   2.476
 5979TIP3   OH217879   1.634   6.763   0.615
 5979TIP3    H117880   1.594   6.679   0.637
 5979TIP3    H217881   1.569   6.808   0.562
 5980TIP3   OH217882   7.026   5.638   1.265
 5980TIP3    H117883   7.027   5.709   1.329
 5980TIP3    H217884   7.030   5.558   1.317
 5981TIP3   OH217885   2.996   1.143   6.042
 5981TIP3    H117886   3.041   1.184   5.969
 5981TIP3    H217887   2.965   1.215   6.096
 5982TIP3   OH217888   2.109   1.222   6.271
 5982TIP3    H117889   2.143   1.147   6.321
 5982TIP3    H217890   2.020   1.234   6.303
 5983TIP3   OH217891   3.155   3.304   3.801
 5983TIP3    H117892   3.232   3.249   3.809
 5983TIP3    H217893   3.103   3.263   3.732
 5984TIP3   OH217894   7.914   0.259   6.645
 5984TIP3    H117895   7.977   0.325   6.673
 5984TIP3    H217896   7.954   0.175   6.668
 5985TIP3   OH217897   3.096   5.744   1.929
 5985TIP3    H117898   3.014   5.774   1.968
 5985TIP3    H217899   3.150   5.822   1.922
 5986TIP3   OH217900   3.192   2.351   3.140
 5986TIP3    H117901   3.264   2.412   3.123
 5986TIP3    H217902   3.138   2.354   3.061
 5987TIP3   OH217903   1.567   7.403   6.106
 5987TIP3    H117904   1.621   7.479   6.129
 5987TIP3    H217905   1.622   7.351   6.048
 5988TIP3   OH217906   6.091   4.825   0.374
 5988TIP3    H117907   6.039   4.904   0.358
 5988TIP3    H217908   6.033   4.753   0.349
 5989TIP3   OH217909   5.975   6.042   1.735
 5989TIP3    H117910   6.052   6.098   1.734
 5989TIP3    H217911   5.988   5.984   1.810
 5990TIP3   OH217912   7.610   1.307   2.273
 5990TIP3    H117913   7.536   1.252   2.299
 5990TIP3    H217914   7.577   1.359   2.201
 5991TIP3   OH217915   5.815   4.631   1.145
 5991TIP3    H117916   5.733   4.590   1.173
 5991TIP3    H217917   5.884   4.580   1.189
 5992TIP3   OH217918   4.659   3.161   2.194
 5992TIP3    H117919   4.612   3.103   2.133
 5992TIP3    H217920   4.590   3.204   2.244
 5993TIP3   OH217921   1.118   0.693   2.079
 5993TIP3    H117922   1.054   0.761   2.059
 5993TIP3    H217923   1.127   0.644   1.997
 5994TIP3   OH217924   7.422   6.179   6.127
 5994TIP3    H117925   7.451   6.097   6.089
 5994TIP3    H217926   7.350   6.209   6.071
 5995TIP3   OH217927   3.711   3.984   3.837
 5995TIP3    H117928   3.739   3.984   3.929
 5995TIP3    H217929   3.793   3.978   3.787
 5996TIP3   OH217930   3.969   0.416   6.768
 5996TIP3    H117931   3.991   0.386   6.680
 5996TIP3    H217932   4.035   0.483   6.788
 5997TIP3   OH217933   3.760   0.603   4.676
 5997TIP3    H117934   3.700   0.604   4.601
 5997TIP3    H217935   3.779   0.695   4.692
 5998TIP3   OH217936   5.429   0.017   4.262
 5998TIP3    H117937   5.430   0.071   4.341
 5998TIP3    H217938   5.398   0.077   4.193
 5999TIP3   OH217939   7.375   4.420   3.268
 5999TIP3    H117940   7.414   4.333   3.281
 5999TIP3    H217941   7.441   4.470   3.222
 6000TIP3   OH217942   5.620   4.796   4.871
 6000TIP3    H117943   5.649   4.721   4.819
 6000TIP3    H217944   5.693   4.859   4.864
 6001TIP3   OH217945   4.853   3.722   5.029
 6001TIP3    H117946   4.937   3.738   5.074
 6001TIP3    H217947   4.861   3.770   4.946
 6002TIP3   OH217948   7.042   5.745   4.580
 6002TIP3    H117949   7.052   5.677   4.514
 6002TIP3    H217950   7.054   5.827   4.531
 6003TIP3   OH217951   5.349   6.504   6.604
 6003TIP3    H117952   5.301   6.506   6.522
 6003TIP3    H217953   5.287   6.468   6.668
 6004TIP3   OH217954   7.460   2.310   1.375
 6004TIP3    H117955   7.399   2.383   1.381
 6004TIP3    H217956   7.412   2.236   1.414
 6005TIP3   OH217957   1.730   2.877   5.894
 6005TIP3    H117958   1.679   2.880   5.975
 6005TIP3    H217959   1.696   2.802   5.846
 6006TIP3   OH217960   0.097   4.325   4.960
 6006TIP3    H117961   0.140   4.326   5.045
 6006TIP3    H217962   0.168   4.339   4.897
 6007TIP3   OH217963   3.514   1.774   6.528
 6007TIP3    H117964   3.588   1.828   6.555
 6007TIP3    H217965   3.487   1.811   6.444
 6008TIP3   OH217966   4.217   3.786   0.653
 6008TIP3    H117967   4.182   3.793   0.564
 6008TIP3    H217968   4.277   3.711   0.649
 6009TIP3   OH217969   5.554   7.378   4.692
 6009TIP3    H117970   5.526   7.396   4.782
 6009TIP3    H217971   5.472   7.359   4.646
 6010TIP3   OH217972   3.664   2.745   2.525
 6010TIP3    H117973   3.622   2.707   2.448
 6010TIP3    H217974   3.676   2.671   2.585
 6011TIP3   OH217975   2.157   4.155   3.881
 6011TIP3    H117976   2.191   4.078   3.835
 6011TIP3    H217977   2.136   4.217   3.811
 6012TIP3   OH217978   0.858   0.301   4.585
 6012TIP3    H117979   0.931   0.252   4.622
 6012TIP3    H217980   0.799   0.316   4.659
 6013TIP3   OH217981   5.215   1.242   1.089
 6013TIP3    H117982   5.203   1.163   1.142
 6013TIP3    H217983   5.159   1.227   1.013
 6014TIP3   OH217984   6.545   4.223   0.941
 6014TIP3    H117985   6.539   4.145   0.996
 6014TIP3    H217986   6.457   4.237   0.909
 6015TIP3   OH217987   6.130   7.540   3.540
 6015TIP3    H117988   6.174   7.611   3.587
 6015TIP3    H217989   6.170   7.460   3.574
 6016TIP3   OH217990   3.590   0.782   3.274
 6016TIP3    H117991   3.533   0.736   3.213
 6016TIP3    H217992   3.533   0.847   3.317
 6017TIP3   OH217993   6.483   0.320   2.294
 6017TIP3    H117994   6.578   0.314   2.301
 6017TIP3    H217995   6.453   0.229   2.296
 6018TIP3   OH217996   7.778   3.203   5.376
 6018TIP3    H117997   7.776   3.225   5.283
 6018TIP3    H217998   7.799   3.285   5.420
 6019TIP3   OH217999   4.289   0.920   3.271
 6019TIP3    H118000   4.300   0.961   3.357
 6019TIP3    H218001   4.287   0.994   3.210
 6020TIP3   OH218002   1.726   4.122   0.658
 6020TIP3    H118003   1.634   4.127   0.632
 6020TIP3    H218004   1.753   4.213   0.667
 6021TIP3   OH218005   3.861   5.071   6.233
 6021TIP3    H118006   3.909   5.088   6.151
 6021TIP3    H218007   3.821   4.985   6.220
 6022TIP3   OH218008   7.431   4.712   5.773
 6022TIP3    H118009   7.359   4.704   5.710
 6022TIP3    H218010   7.508   4.727   5.719
 6023TIP3   OH218011   4.011   4.453   2.024
 6023TIP3    H118012   4.065   4.409   1.957
 6023TIP3    H218013   3.963   4.519   1.975
 6024TIP3   OH218014   1.692   3.379   4.996
 6024TIP3    H118015   1.698   3.474   4.984
 6024TIP3    H218016   1.749   3.342   4.928
 6025TIP3   OH218017   1.790   2.846   2.417
 6025TIP3    H118018   1.832   2.787   2.480
 6025TIP3    H218019   1.853   2.853   2.345
 6026TIP3   OH218020   4.506   7.025   4.537
 6026TIP3    H118021   4.484   7.092   4.601
 6026TIP3    H218022   4.549   6.956   4.587
 6027TIP3   OH218023   1.451   4.516   3.698
 6027TIP3    H118024   1.363   4.478   3.694
 6027TIP3    H218025   1.457   4.555   3.785
 6028TIP3   OH218026   2.399   3.058   4.284
 6028TIP3    H118027   2.413   2.994   4.353
 6028TIP3    H218028   2.443   3.137   4.315
 6029TIP3   OH218029   6.044   0.447   0.873
 6029TIP3    H118030   6.027   0.354   0.858
 6029TIP3    H218031   6.127   0.463   0.829
 6030TIP3   OH218032   3.239   1.880   0.333
 6030TIP3    H118033   3.313   1.888   0.393
 6030TIP3    H218034   3.268   1.925   0.254
 6031TIP3   OH218035   4.657   6.244   1.962
 6031TIP3    H118036   4.652   6.233   2.057
 6031TIP3    H218037   4.656   6.155   1.927
 6032TIP3   OH218038   2.840   7.860   2.719
 6032TIP3    H118039   2.931   7.872   2.746
 6032TIP3    H218040   2.846   7.816   2.634
 6033TIP3   OH218041   2.000   6.085   3.558
 6033TIP3    H118042   1.930   6.021   3.546
 6033TIP3    H218043   1.996   6.141   3.481
 6034TIP3   OH218044   0.930   3.880   0.111
 6034TIP3    H118045   0.901   3.863   0.022
 6034TIP3    H218046   0.872   3.826   0.165
 6035TIP3   OH218047   2.245   6.961   2.587
 6035TIP3    H118048   2.252   6.968   2.492
 6035TIP3    H218049   2.324   6.915   2.613
 6036TIP3   OH218050   0.260   2.727   4.787
 6036TIP3    H118051   0.282   2.635   4.771
 6036TIP3    H218052   0.291   2.773   4.709
 6037TIP3   OH218053   2.272   7.279   4.498
 6037TIP3    H118054   2.307   7.335   4.429
 6037TIP3    H218055   2.329   7.202   4.498
 6038TIP3   OH218056   6.624   5.279   4.858
 6038TIP3    H118057   6.603   5.372   4.853
 6038TIP3    H218058   6.712   5.276   4.895
 6039TIP3   OH218059   6.722   4.424   5.322
 6039TIP3    H118060   6.753   4.495   5.378
 6039TIP3    H218061   6.745   4.344   5.370
 6040TIP3   OH218062   7.325   2.890   5.120
 6040TIP3    H118063   7.419   2.910   5.117
 6040TIP3    H218064   7.286   2.949   5.055
 6041TIP3   OH218065   7.270   6.540   4.460
 6041TIP3    H118066   7.200   6.555   4.524
 6041TIP3    H218067   7.295   6.448   4.472
 6042TIP3   OH218068   6.735   5.917   0.380
 6042TIP3    H118069   6.639   5.915   0.384
 6042TIP3    H218070   6.755   5.926   0.287
 6043TIP3   OH218071   3.085   5.252   4.939
 6043TIP3    H118072   3.046   5.173   4.902
 6043TIP3    H218073   3.177   5.230   4.952
 6044TIP3   OH218074   6.432   4.711   6.560
 6044TIP3    H118075   6.451   4.749   6.475
 6044TIP3    H218076   6.339   4.686   6.555
 6045TIP3   OH218077   6.105   2.745   3.304
 6045TIP3    H118078   6.071   2.832   3.324
 6045TIP3    H218079   6.173   2.730   3.371
 6046TIP3   OH218080   6.239   1.798   5.371
 6046TIP3    H118081   6.331   1.788   5.346
 6046TIP3    H218082   6.203   1.858   5.306
 6047TIP3   OH218083   3.517   6.307   0.197
 6047TIP3    H118084   3.601   6.271   0.226
 6047TIP3    H218085   3.521   6.400   0.218
 6048TIP3   OH218086   6.165   5.705   2.342
 6048TIP3    H118087   6.074   5.730   2.359
 6048TIP3    H218088   6.163   5.609   2.341
 6049TIP3   OH218089   1.028   3.822   1.630
 6049TIP3    H118090   0.994   3.882   1.696
 6049TIP3    H218091   0.950   3.780   1.593
 6050TIP3   OH218092   0.508   1.531   5.701
 6050TIP3    H118093   0.527   1.565   5.789
 6050TIP3    H218094   0.427   1.575   5.675
 6051TIP3   OH218095   8.075   6.783   2.971
 6051TIP3    H118096   8.085   6.878   2.966
 6051TIP3    H218097   8.090   6.763   3.063
 6052TIP3   OH218098   6.495   0.886   1.362
 6052TIP3    H118099   6.511   0.942   1.285
 6052TIP3    H218100   6.537   0.803   1.340
 6053TIP3   OH218101   4.189   7.605   5.632
 6053TIP3    H118102   4.110   7.657   5.647
 6053TIP3    H218103   4.208   7.565   5.717
 6054TIP3   OH218104   0.750   5.706   1.542
 6054TIP3    H118105   0.775   5.750   1.461
 6054TIP3    H218106   0.712   5.623   1.514
 6055TIP3   OH218107   3.771   6.263   1.538
 6055TIP3    H118108   3.805   6.205   1.607
 6055TIP3    H218109   3.845   6.321   1.517
 6056TIP3   OH218110   1.079   3.639   0.996
 6056TIP3    H118111   1.054   3.585   0.921
 6056TIP3    H218112   1.170   3.615   1.014
 6057TIP3   OH218113   6.518   2.849   4.753
 6057TIP3    H118114   6.578   2.923   4.741
 6057TIP3    H218115   6.431   2.884   4.731
 6058TIP3   OH218116   1.981   3.765   1.576
 6058TIP3    H118117   1.944   3.803   1.656
 6058TIP3    H218118   1.970   3.671   1.587
 6059TIP3   OH218119   2.369   2.500   2.126
 6059TIP3    H118120   2.360   2.589   2.160
 6059TIP3    H218121   2.429   2.507   2.053
 6060TIP3   OH218122   6.921   5.497   3.644
 6060TIP3    H118123   6.893   5.513   3.735
 6060TIP3    H218124   7.016   5.490   3.649
 6061TIP3   OH218125   4.993   5.996   0.430
 6061TIP3    H118126   5.012   6.010   0.337
 6061TIP3    H218127   4.919   6.055   0.448
 6062TIP3   OH218128   3.431   5.504   1.543
 6062TIP3    H118129   3.391   5.568   1.601
 6062TIP3    H218130   3.517   5.486   1.581
 6063TIP3   OH218131   2.108   6.154   5.965
 6063TIP3    H118132   2.159   6.076   5.986
 6063TIP3    H218133   2.105   6.203   6.048
 6064TIP3   OH218134   8.261   6.849   1.392
 6064TIP3    H118135   8.273   6.755   1.407
 6064TIP3    H218136   8.177   6.855   1.345
 6065TIP3   OH218137   3.907   1.848   0.518
 6065TIP3    H118138   3.926   1.874   0.428
 6065TIP3    H218139   3.992   1.820   0.553
 6066TIP3   OH218140   8.166   6.898   6.778
 6066TIP3    H118141   8.145   6.805   6.770
 6066TIP3    H218142   8.089   6.944   6.745
 6067TIP3   OH218143   0.154   3.553   4.636
 6067TIP3    H118144   0.099   3.526   4.563
 6067TIP3    H218145   0.225   3.604   4.595
 6068TIP3   OH218146   1.195   6.328   2.615
 6068TIP3    H118147   1.249   6.403   2.590
 6068TIP3    H218148   1.115   6.339   2.565
 6069TIP3   OH218149   8.203   1.117   2.093
 6069TIP3    H118150   8.217   1.154   2.180
 6069TIP3    H218151   8.192   1.194   2.036
 6070TIP3   OH218152   2.831   1.349   4.899
 6070TIP3    H118153   2.868   1.300   4.825
 6070TIP3    H218154   2.743   1.373   4.870
 6071TIP3   OH218155   5.349   6.781   1.722
 6071TIP3    H118156   5.338   6.855   1.663
 6071TIP3    H218157   5.330   6.704   1.668
 6072TIP3   OH218158   3.865   5.297   4.818
 6072TIP3    H118159   3.800   5.367   4.811
 6072TIP3    H218160   3.949   5.342   4.827
 6073TIP3   OH218161   0.073   3.449   0.106
 6073TIP3    H118162   0.081   3.490   0.192
 6073TIP3    H218163   0.010   3.504   0.059
 6074TIP3   OH218164   3.854   4.298   2.202
 6074TIP3    H118165   3.923   4.349   2.157
 6074TIP3    H218166   3.830   4.352   2.277
 6075TIP3   OH218167   7.941   3.111   6.411
 6075TIP3    H118168   7.969   3.084   6.323
 6075TIP3    H218169   7.942   3.207   6.408
 6076TIP3   OH218170   5.540   6.466   3.588
 6076TIP3    H118171   5.536   6.515   3.671
 6076TIP3    H218172   5.455   6.482   3.547
 6077TIP3   OH218173   5.167   7.146   3.418
 6077TIP3    H118174   5.124   7.119   3.337
 6077TIP3    H218175   5.213   7.227   3.394
 6078TIP3   OH218176   3.481   0.602   4.600
 6078TIP3    H118177   3.411   0.559   4.650
 6078TIP3    H218178   3.440   0.683   4.568
 6079TIP3   OH218179   0.454   3.071   5.433
 6079TIP3    H118180   0.484   3.128   5.503
 6079TIP3    H218181   0.532   3.055   5.380
 6080TIP3   OH218182   8.147   5.462   4.761
 6080TIP3    H118183   8.197   5.477   4.841
 6080TIP3    H218184   8.214   5.447   4.694
 6081TIP3   OH218185   1.306   2.763   2.044
 6081TIP3    H118186   1.365   2.688   2.051
 6081TIP3    H218187   1.219   2.725   2.033
 6082TIP3   OH218188   5.694   0.797   2.901
 6082TIP3    H118189   5.695   0.864   2.970
 6082TIP3    H218190   5.785   0.786   2.876
 6083TIP3   OH218191   0.160   0.906   3.270
 6083TIP3    H118192   0.109   0.831   3.241
 6083TIP3    H218193   0.113   0.982   3.235
 6084TIP3   OH218194   1.748   4.540   5.533
 6084TIP3    H118195   1.837   4.542   5.498
 6084TIP3    H218196   1.696   4.591   5.470
 6085TIP3   OH218197   4.671   5.810   3.805
 6085TIP3    H118198   4.710   5.874   3.745
 6085TIP3    H218199   4.666   5.855   3.889
 6086TIP3   OH218200   5.654   6.939   4.061
 6086TIP3    H118201   5.692   6.915   3.977
 6086TIP3    H218202   5.604   7.019   4.042
 6087TIP3   OH218203   6.410   3.164   3.112
 6087TIP3    H118204   6.415   3.247   3.064
 6087TIP3    H218205   6.501   3.134   3.116
 6088TIP3   OH218206   4.510   1.345   3.910
 6088TIP3    H118207   4.527   1.382   3.823
 6088TIP3    H218208   4.582   1.378   3.964
 6089TIP3   OH218209   7.396   5.957   4.772
 6089TIP3    H118210   7.418   5.864   4.769
 6089TIP3    H218211   7.325   5.963   4.836
 6090TIP3   OH218212   6.887   5.188   2.011
 6090TIP3    H118213   6.803   5.162   2.047
 6090TIP3    H218214   6.891   5.283   2.023
 6091TIP3   OH218215   2.141   4.728   6.234
 6091TIP3    H118216   2.179   4.789   6.170
 6091TIP3    H218217   2.200   4.733   6.309
 6092TIP3   OH218218   0.775   4.189   2.079
 6092TIP3    H118219   0.720   4.266   2.094
 6092TIP3    H218220   0.776   4.179   1.983
 6093TIP3   OH218221   7.612   0.665   4.634
 6093TIP3    H118222   7.572   0.751   4.649
 6093TIP3    H218223   7.551   0.619   4.577
 6094TIP3   OH218224   5.039   4.359   2.145
 6094TIP3    H118225   5.100   4.408   2.089
 6094TIP3    H218226   4.967   4.420   2.162
 6095TIP3   OH218227   1.545   2.884   1.628
 6095TIP3    H118228   1.549   2.937   1.548
 6095TIP3    H218229   1.560   2.947   1.699
 6096TIP3   OH218230   1.999   6.162   1.452
 6096TIP3    H118231   2.089   6.177   1.423
 6096TIP3    H218232   2.003   6.081   1.503
 6097TIP3   OH218233   0.663   7.813   5.985
 6097TIP3    H118234   0.688   7.757   6.059
 6097TIP3    H218235   0.571   7.834   6.001
 6098TIP3   OH218236   1.432   6.478   1.352
 6098TIP3    H118237   1.425   6.565   1.392
 6098TIP3    H218238   1.364   6.477   1.285
 6099TIP3   OH218239   2.204   0.769   6.048
 6099TIP3    H118240   2.182   0.720   6.127
 6099TIP3    H218241   2.125   0.764   5.994
 6100TIP3   OH218242   1.475   0.941   4.412
 6100TIP3    H118243   1.563   0.919   4.442
 6100TIP3    H218244   1.471   1.036   4.420
 6101TIP3   OH218245   6.054   5.816   2.999
 6101TIP3    H118246   6.114   5.771   2.940
 6101TIP3    H218247   6.079   5.908   2.993
 6102TIP3   OH218248   0.825   5.228   3.254
 6102TIP3    H118249   0.750   5.265   3.301
 6102TIP3    H218250   0.807   5.248   3.162
 6103TIP3   OH218251   1.265   6.323   4.606
 6103TIP3    H118252   1.309   6.399   4.568
 6103TIP3    H218253   1.247   6.266   4.531
 6104TIP3   OH218254   0.554   0.114   1.047
 6104TIP3    H118255   0.461   0.098   1.064
 6104TIP3    H218256   0.555   0.188   0.986
 6105TIP3   OH218257   8.248   7.727   5.727
 6105TIP3    H118258   8.155   7.748   5.716
 6105TIP3    H218259   8.276   7.782   5.800
 6106TIP3   OH218260   1.356   5.943   4.298
 6106TIP3    H118261   1.429   5.919   4.355
 6106TIP3    H218262   1.380   5.908   4.212
 6107TIP3   OH218263   3.157   2.734   3.172
 6107TIP3    H118264   3.158   2.749   3.266
 6107TIP3    H218265   3.241   2.692   3.154
 6108TIP3   OH218266   6.454   4.596   3.427
 6108TIP3    H118267   6.497   4.529   3.374
 6108TIP3    H218268   6.378   4.623   3.375
 6109TIP3   OH218269   2.966   0.380   2.780
 6109TIP3    H118270   2.992   0.300   2.825
 6109TIP3    H218271   2.898   0.353   2.718
 6110TIP3   OH218272   4.897   1.178   3.469
 6110TIP3    H118273   4.961   1.137   3.412
 6110TIP3    H218274   4.926   1.268   3.479
 6111TIP3   OH218275   5.333   6.096   2.137
 6111TIP3    H118276   5.248   6.060   2.161
 6111TIP3    H218277   5.323   6.191   2.147
 6112TIP3   OH218278   4.765   2.419   6.214
 6112TIP3    H118279   4.833   2.446   6.151
 6112TIP3    H218280   4.712   2.498   6.226
 6113TIP3   OH218281   3.939   0.435   3.495
 6113TIP3    H118282   3.924   0.525   3.467
 6113TIP3    H218283   3.940   0.384   3.414
 6114TIP3   OH218284   4.976   3.429   6.608
 6114TIP3    H118285   4.935   3.407   6.525
 6114TIP3    H218286   5.002   3.521   6.598
 6115TIP3   OH218287   7.459   3.165   2.659
 6115TIP3    H118288   7.461   3.227   2.586
 6115TIP3    H218289   7.372   3.178   2.698
 6116TIP3   OH218290   5.866   0.480   2.053
 6116TIP3    H118291   5.932   0.547   2.035
 6116TIP3    H218292   5.914   0.397   2.046
 6117TIP3   OH218293   1.063   3.196   5.708
 6117TIP3    H118294   1.003   3.271   5.711
 6117TIP3    H218295   1.124   3.216   5.638
 6118TIP3   OH218296   0.772   1.118   4.399
 6118TIP3    H118297   0.679   1.118   4.421
 6118TIP3    H218298   0.797   1.026   4.395
 6119TIP3   OH218299   4.585   7.564   5.137
 6119TIP3    H118300   4.657   7.572   5.075
 6119TIP3    H218301   4.627   7.565   5.223
 6120TIP3   OH218302   4.405   4.325   3.400
 6120TIP3    H118303   4.487   4.351   3.442
 6120TIP3    H218304   4.376   4.248   3.449
 6121TIP3   OH218305   5.094   5.810   3.232
 6121TIP3    H118306   5.112   5.792   3.140
 6121TIP3    H218307   5.168   5.864   3.261
 6122TIP3   OH218308   7.382   7.661   0.890
 6122TIP3    H118309   7.388   7.755   0.905
 6122TIP3    H218310   7.358   7.625   0.975
 6123TIP3   OH218311   0.237   6.403   6.293
 6123TIP3    H118312   0.143   6.424   6.299
 6123TIP3    H218313   0.280   6.466   6.349
 6124TIP3   OH218314   2.823   5.764   1.967
 6124TIP3    H118315   2.780   5.707   2.031
 6124TIP3    H218316   2.752   5.791   1.908
 6125TIP3   OH218317   4.472   1.996   6.567
 6125TIP3    H118318   4.440   1.956   6.648
 6125TIP3    H218319   4.496   2.085   6.592
 6126TIP3   OH218320   1.902   0.769   5.061
 6126TIP3    H118321   1.830   0.793   5.003
 6126TIP3    H218322   1.901   0.673   5.063
 6127TIP3   OH218323   7.474   6.997   1.412
 6127TIP3    H118324   7.548   6.949   1.375
 6127TIP3    H218325   7.434   7.040   1.336
 6128TIP3   OH218326   1.457   5.204   2.132
 6128TIP3    H118327   1.396   5.272   2.104
 6128TIP3    H218328   1.527   5.251   2.176
 6129TIP3   OH218329   2.953   1.349   4.118
 6129TIP3    H118330   2.893   1.424   4.121
 6129TIP3    H218331   2.959   1.327   4.025
 6130TIP3   OH218332   4.074   3.886   0.427
 6130TIP3    H118333   4.128   3.920   0.355
 6130TIP3    H218334   3.987   3.921   0.409
 6131TIP3   OH218335   2.888   3.684   1.245
 6131TIP3    H118336   2.898   3.718   1.156
 6131TIP3    H218337   2.964   3.717   1.292
 6132TIP3   OH218338   8.016   5.091   4.470
 6132TIP3    H118339   7.994   5.002   4.497
 6132TIP3    H218340   7.998   5.145   4.548
 6133TIP3   OH218341   3.944   2.011   6.525
 6133TIP3    H118342   3.957   1.927   6.480
 6133TIP3    H218343   4.001   2.072   6.480
 6134TIP3   OH218344   3.065   6.645   5.418
 6134TIP3    H118345   3.108   6.726   5.389
 6134TIP3    H218346   2.974   6.655   5.390
 6135TIP3   OH218347   1.717   5.393   2.273
 6135TIP3    H118348   1.735   5.448   2.349
 6135TIP3    H218349   1.804   5.374   2.237
 6136TIP3   OH218350   3.404   3.259   1.868
 6136TIP3    H118351   3.367   3.282   1.953
 6136TIP3    H218352   3.476   3.320   1.856
 6137TIP3   OH218353   1.755   5.574   2.459
 6137TIP3    H118354   1.817   5.632   2.503
 6137TIP3    H218355   1.706   5.533   2.531
 6138TIP3   OH218356   5.628   4.952   1.257
 6138TIP3    H118357   5.535   4.950   1.279
 6138TIP3    H218358   5.634   5.014   1.184
 6139TIP3   OH218359   4.709   2.908   3.457
 6139TIP3    H118360   4.638   2.950   3.409
 6139TIP3    H218361   4.761   2.864   3.390
 6140TIP3   OH218362   7.561   7.532   4.130
 6140TIP3    H118363   7.549   7.626   4.118
 6140TIP3    H218364   7.474   7.500   4.154
 6141TIP3   OH218365   7.289   2.486   2.089
 6141TIP3    H118366   7.377   2.454   2.071
 6141TIP3    H218367   7.259   2.522   2.005
 6142TIP3   OH218368   7.373   5.527   3.883
 6142TIP3    H118369   7.308   5.576   3.933
 6142TIP3    H218370   7.439   5.502   3.947
 6143TIP3   OH218371   0.054   6.972   6.536
 6143TIP3    H118372  -0.001   6.921   6.596
 6143TIP3    H218373   0.031   7.063   6.554
 6144TIP3   OH218374   6.257   3.081   6.471
 6144TIP3    H118375   6.202   3.037   6.407
 6144TIP3    H218376   6.343   3.040   6.461
 6145TIP3   OH218377   6.887   7.031   5.335
 6145TIP3    H118378   6.834   7.110   5.343
 6145TIP3    H218379   6.926   7.037   5.247
 6146TIP3   OH218380   3.110   6.395   2.980
 6146TIP3    H118381   3.145   6.325   2.925
 6146TIP3    H218382   3.150   6.381   3.065
 6147TIP3   OH218383   7.790   1.945   6.510
 6147TIP3    H118384   7.741   2.020   6.542
 6147TIP3    H218385   7.851   1.924   6.581
 6148TIP3   OH218386   4.418   2.873   4.196
 6148TIP3    H118387   4.475   2.914   4.132
 6148TIP3    H218388   4.444   2.911   4.280
 6149TIP3   OH218389   0.622   3.937   6.337
 6149TIP3    H118390   0.714   3.919   6.357
 6149TIP3    H218391   0.590   3.856   6.298
 6150TIP3   OH218392   4.191   3.190   5.265
 6150TIP3    H118393   4.110   3.181   5.315
 6150TIP3    H218394   4.230   3.102   5.269
 6151TIP3   OH218395   1.366   6.858   4.326
 6151TIP3    H118396   1.423   6.846   4.250
 6151TIP3    H218397   1.427   6.869   4.400
 6152TIP3   OH218398   7.797   2.714   5.232
 6152TIP3    H118399   7.752   2.765   5.299
 6152TIP3    H218400   7.839   2.643   5.280
 6153TIP3   OH218401   6.906   6.262   0.838
 6153TIP3    H118402   6.836   6.197   0.838
 6153TIP3    H218403   6.987   6.211   0.833
 6154TIP3   OH218404   3.699   2.545   5.639
 6154TIP3    H118405   3.650   2.554   5.557
 6154TIP3    H218406   3.722   2.452   5.642
 6155TIP3   OH218407   4.688   4.638   5.266
 6155TIP3    H118408   4.718   4.687   5.190
 6155TIP3    H218409   4.689   4.701   5.338
 6156TIP3   OH218410   7.841   2.943   5.488
 6156TIP3    H118411   7.840   3.028   5.444
 6156TIP3    H218412   7.750   2.913   5.484
 6157TIP3   OH218413   7.155   6.943   4.612
 6157TIP3    H118414   7.250   6.941   4.617
 6157TIP3    H218415   7.134   6.890   4.535
 6158TIP3   OH218416   6.321   3.549   0.455
 6158TIP3    H118417   6.416   3.548   0.452
 6158TIP3    H218418   6.295   3.461   0.426
 6159TIP3   OH218419   5.269   0.297   4.497
 6159TIP3    H118420   5.359   0.264   4.505
 6159TIP3    H218421   5.270   0.351   4.418
 6160TIP3   OH218422   0.041   3.102   6.215
 6160TIP3    H118423  -0.049   3.102   6.183
 6160TIP3    H218424   0.035   3.136   6.304
 6161TIP3   OH218425   7.100   6.757   1.744
 6161TIP3    H118426   7.052   6.699   1.804
 6161TIP3    H218427   7.074   6.727   1.657
 6162TIP3   OH218428   3.232   5.495   4.983
 6162TIP3    H118429   3.170   5.465   5.050
 6162TIP3    H218430   3.211   5.441   4.906
 6163TIP3   OH218431   0.240   1.411   4.530
 6163TIP3    H118432   0.196   1.383   4.610
 6163TIP3    H218433   0.251   1.506   4.541
 6164TIP3   OH218434   0.276   7.265   2.698
 6164TIP3    H118435   0.313   7.187   2.655
 6164TIP3    H218436   0.350   7.323   2.710
 6165TIP3   OH218437   5.849   4.644   2.740
 6165TIP3    H118438   5.754   4.645   2.729
 6165TIP3    H218439   5.863   4.654   2.834
 6166TIP3   OH218440   5.287   0.669   5.338
 6166TIP3    H118441   5.249   0.685   5.425
 6166TIP3    H218442   5.379   0.649   5.355
 6167TIP3   OH218443   1.722   6.793   5.148
 6167TIP3    H118444   1.705   6.702   5.173
 6167TIP3    H218445   1.647   6.817   5.093
 6168TIP3   OH218446   4.740   6.450   2.475
 6168TIP3    H118447   4.796   6.525   2.490
 6168TIP3    H218448   4.682   6.477   2.403
 6169TIP3   OH218449   0.023   2.361   5.388
 6169TIP3    H118450  -0.033   2.353   5.311
 6169TIP3    H218451   0.111   2.371   5.353
 6170TIP3   OH218452   3.395   6.361   5.246
 6170TIP3    H118453   3.346   6.391   5.323
 6170TIP3    H218454   3.328   6.324   5.188
 6171TIP3   OH218455   0.598   0.619   5.072
 6171TIP3    H118456   0.646   0.633   5.154
 6171TIP3    H218457   0.610   0.701   5.023
 6172TIP3   OH218458   0.678   1.767   2.006
 6172TIP3    H118459   0.588   1.739   2.022
 6172TIP3    H218460   0.720   1.761   2.092
 6173TIP3   OH218461   3.679   7.126   5.960
 6173TIP3    H118462   3.647   7.212   5.932
 6173TIP3    H218463   3.601   7.079   5.987
 6174TIP3   OH218464   4.849   3.685   3.567
 6174TIP3    H118465   4.840   3.608   3.511
 6174TIP3    H218466   4.939   3.680   3.600
 6175TIP3   OH218467   5.603   6.685   1.809
 6175TIP3    H118468   5.538   6.731   1.756
 6175TIP3    H218469   5.678   6.675   1.751
 6176TIP3   OH218470   8.084   0.014   5.630
 6176TIP3    H118471   8.048  -0.068   5.595
 6176TIP3    H218472   8.169   0.023   5.587
 6177TIP3   OH218473   0.383   7.045   5.254
 6177TIP3    H118474   0.375   6.955   5.286
 6177TIP3    H218475   0.466   7.046   5.208
 6178TIP3   OH218476   7.644   3.224   1.642
 6178TIP3    H118477   7.583   3.293   1.615
 6178TIP3    H218478   7.692   3.263   1.716
 6179TIP3   OH218479   0.468   6.170   5.219
 6179TIP3    H118480   0.498   6.257   5.196
 6179TIP3    H218481   0.443   6.176   5.311
 6180TIP3   OH218482   5.375   5.184   4.863
 6180TIP3    H118483   5.410   5.154   4.947
 6180TIP3    H218484   5.341   5.104   4.821
 6181TIP3   OH218485   1.460   7.474   3.073
 6181TIP3    H118486   1.522   7.485   3.145
 6181TIP3    H218487   1.427   7.562   3.056
 6182TIP3   OH218488   6.366   6.263   2.417
 6182TIP3    H118489   6.293   6.223   2.370
 6182TIP3    H218490   6.444   6.230   2.372
 6183TIP3   OH218491   1.082   0.971   2.696
 6183TIP3    H118492   1.116   0.952   2.783
 6183TIP3    H218493   1.157   0.962   2.638
 6184TIP3   OH218494   1.581   3.258   3.661
 6184TIP3    H118495   1.561   3.340   3.617
 6184TIP3    H218496   1.676   3.259   3.672
 6185TIP3   OH218497   2.581   5.397   4.535
 6185TIP3    H118498   2.645   5.343   4.583
 6185TIP3    H218499   2.568   5.351   4.453
 6186TIP3   OH218500   4.250   2.643   3.623
 6186TIP3    H118501   4.164   2.605   3.605
 6186TIP3    H218502   4.310   2.593   3.568
 6187TIP3   OH218503   2.509   4.176   2.972
 6187TIP3    H118504   2.517   4.247   2.909
 6187TIP3    H218505   2.554   4.208   3.050
 6188TIP3   OH218506   3.821   5.459   0.645
 6188TIP3    H118507   3.788   5.535   0.597
 6188TIP3    H218508   3.841   5.394   0.577
 6189TIP3   OH218509   7.879   4.601   2.269
 6189TIP3    H118510   7.893   4.540   2.341
 6189TIP3    H218511   7.803   4.566   2.222
 6190TIP3   OH218512   0.369   0.683   6.016
 6190TIP3    H118513   0.333   0.728   6.093
 6190TIP3    H218514   0.334   0.594   6.023
 6191TIP3   OH218515   2.309   6.230   5.251
 6191TIP3    H118516   2.221   6.196   5.269
 6191TIP3    H218517   2.351   6.234   5.336
 6192TIP3   OH218518   4.023   0.623   4.755
 6192TIP3    H118519   4.070   0.695   4.798
 6192TIP3    H218520   3.945   0.664   4.719
 6193TIP3   OH218521   0.140   4.525   0.556
 6193TIP3    H118522   0.157   4.431   0.544
 6193TIP3    H218523   0.060   4.541   0.506
 6194TIP3   OH218524   3.625   7.528   4.655
 6194TIP3    H118525   3.554   7.570   4.704
 6194TIP3    H218526   3.581   7.481   4.584
 6195TIP3   OH218527   1.066   3.420   4.859
 6195TIP3    H118528   1.057   3.325   4.869
 6195TIP3    H218529   0.995   3.456   4.912
 6196TIP3   OH218530   6.422   1.576   1.327
 6196TIP3    H118531   6.490   1.509   1.333
 6196TIP3    H218532   6.360   1.554   1.397
 6197TIP3   OH218533   4.649   0.501   4.978
 6197TIP3    H118534   4.681   0.434   4.918
 6197TIP3    H218535   4.621   0.452   5.055
 6198TIP3   OH218536   4.328   2.645   1.259
 6198TIP3    H118537   4.241   2.684   1.269
 6198TIP3    H218538   4.350   2.657   1.167
 6199TIP3   OH218539   4.658   2.150   6.048
 6199TIP3    H118540   4.746   2.162   6.012
 6199TIP3    H218541   4.670   2.156   6.143
 6200TIP3   OH218542   2.317   7.769   2.219
 6200TIP3    H118543   2.257   7.799   2.287
 6200TIP3    H218544   2.261   7.756   2.142
 6201TIP3   OH218545   2.629   3.099   0.762
 6201TIP3    H118546   2.594   3.186   0.780
 6201TIP3    H218547   2.554   3.050   0.726
 6202TIP3   OH218548   6.668   4.312   0.659
 6202TIP3    H118549   6.724   4.345   0.729
 6202TIP3    H218550   6.622   4.238   0.698
 6203TIP3   OH218551   5.391   3.738   3.605
 6203TIP3    H118552   5.300   3.744   3.577
 6203TIP3    H218553   5.388   3.688   3.687
 6204TIP3   OH218554   8.144   0.867   5.592
 6204TIP3    H118555   8.175   0.855   5.503
 6204TIP3    H218556   8.129   0.961   5.600
 6205TIP3   OH218557   5.038   4.349   3.876
 6205TIP3    H118558   5.037   4.259   3.907
 6205TIP3    H218559   4.949   4.366   3.847
 6206TIP3   OH218560   4.150   3.374   1.517
 6206TIP3    H118561   4.181   3.290   1.550
 6206TIP3    H218562   4.088   3.405   1.584
 6207TIP3   OH218563   0.222   7.141   0.761
 6207TIP3    H118564   0.183   7.110   0.679
 6207TIP3    H218565   0.206   7.235   0.761
 6208TIP3   OH218566   4.025   1.415   6.410
 6208TIP3    H118567   3.939   1.418   6.452
 6208TIP3    H218568   4.006   1.420   6.316
 6209TIP3   OH218569   5.502   5.800   4.475
 6209TIP3    H118570   5.458   5.850   4.544
 6209TIP3    H218571   5.551   5.733   4.521
 6210TIP3   OH218572   3.113   6.026   5.773
 6210TIP3    H118573   3.173   6.050   5.844
 6210TIP3    H218574   3.030   6.009   5.817
 6211TIP3   OH218575   4.103   6.659   2.804
 6211TIP3    H118576   4.158   6.631   2.878
 6211TIP3    H218577   4.111   6.587   2.741
 6212TIP3   OH218578   0.856   3.981   2.276
 6212TIP3    H118579   0.849   4.019   2.364
 6212TIP3    H218580   0.808   4.043   2.220
 6213TIP3   OH218581   1.455   5.791   6.479
 6213TIP3    H118582   1.424   5.704   6.501
 6213TIP3    H218583   1.440   5.799   6.385
 6214TIP3   OH218584   7.770   0.098   1.681
 6214TIP3    H118585   7.838   0.043   1.721
 6214TIP3    H218586   7.815   0.178   1.656
 6215TIP3   OH218587   0.455   3.436   0.918
 6215TIP3    H118588   0.478   3.346   0.897
 6215TIP3    H218589   0.382   3.456   0.860
 6216TIP3   OH218590   6.544   4.962   3.978
 6216TIP3    H118591   6.537   4.957   4.074
 6216TIP3    H218592   6.636   4.944   3.960
 6217TIP3   OH218593   3.306   0.982  -0.002
 6217TIP3    H118594   3.318   1.077   0.003
 6217TIP3    H218595   3.387   0.946   0.034
 6218TIP3   OH218596   1.214   3.308   4.250
 6218TIP3    H118597   1.298   3.355   4.254
 6218TIP3    H218598   1.221   3.253   4.173
 6219TIP3   OH218599   0.561   1.720   0.999
 6219TIP3    H118600   0.517   1.804   0.992
 6219TIP3    H218601   0.607   1.723   1.082
 6220TIP3   OH218602   0.277   2.674   1.877
 6220TIP3    H118603   0.185   2.679   1.902
 6220TIP3    H218604   0.292   2.754   1.825
 6221TIP3   OH218605   6.265   4.282   4.061
 6221TIP3    H118606   6.296   4.209   4.116
 6221TIP3    H218607   6.345   4.330   4.039
 6222TIP3   OH218608   5.984   1.069   4.553
 6222TIP3    H118609   6.079   1.080   4.545
 6222TIP3    H218610   5.950   1.091   4.467
 6223TIP3   OH218611   7.670   0.230   6.550
 6223TIP3    H118612   7.633   0.294   6.611
 6223TIP3    H218613   7.761   0.220   6.578
 6224TIP3   OH218614   4.666   3.199   6.792
 6224TIP3    H118615   4.619   3.228   6.714
 6224TIP3    H218616   4.759   3.205   6.768
 6225TIP3   OH218617   1.710   3.881   6.388
 6225TIP3    H118618   1.657   3.945   6.340
 6225TIP3    H218619   1.737   3.818   6.321
 6226TIP3   OH218620   5.787   5.445   0.708
 6226TIP3    H118621   5.697   5.474   0.725
 6226TIP3    H218622   5.789   5.429   0.613
 6227TIP3   OH218623   6.205   1.369   3.420
 6227TIP3    H118624   6.284   1.349   3.471
 6227TIP3    H218625   6.148   1.416   3.481
 6228TIP3   OH218626   4.999   2.829   3.836
 6228TIP3    H118627   5.052   2.872   3.769
 6228TIP3    H218628   4.926   2.889   3.851
 6229TIP3   OH218629   2.220   2.529   1.144
 6229TIP3    H118630   2.201   2.506   1.053
 6229TIP3    H218631   2.141   2.505   1.192
 6230TIP3   OH218632   3.176   1.362   3.689
 6230TIP3    H118633   3.227   1.324   3.618
 6230TIP3    H218634   3.168   1.455   3.667
 6231TIP3   OH218635   5.062   7.394   3.188
 6231TIP3    H118636   5.024   7.430   3.107
 6231TIP3    H218637   5.093   7.471   3.236
 6232TIP3   OH218638   5.654   5.287   2.435
 6232TIP3    H118639   5.624   5.321   2.519
 6232TIP3    H218640   5.712   5.354   2.400
 6233TIP3   OH218641   6.426   2.595   6.410
 6233TIP3    H118642   6.481   2.520   6.431
 6233TIP3    H218643   6.340   2.558   6.392
 6234TIP3   OH218644   0.090   4.410   3.819
 6234TIP3    H118645   0.086   4.505   3.811
 6234TIP3    H218646   0.021   4.379   3.760
 6235TIP3   OH218647   0.252   0.096   4.061
 6235TIP3    H118648   0.221   0.187   4.058
 6235TIP3    H218649   0.310   0.089   3.986
 6236TIP3   OH218650   0.128   3.373   2.266
 6236TIP3    H118651   0.059   3.397   2.203
 6236TIP3    H218652   0.089   3.390   2.352
 6237TIP3   OH218653   7.871   3.707   4.719
 6237TIP3    H118654   7.940   3.683   4.658
 6237TIP3    H218655   7.826   3.780   4.677
 6238TIP3   OH218656   3.129   7.419   6.092
 6238TIP3    H118657   3.222   7.406   6.108
 6238TIP3    H218658   3.107   7.356   6.023
 6239TIP3   OH218659   7.118   1.110   2.405
 6239TIP3    H118660   7.068   1.031   2.426
 6239TIP3    H218661   7.056   1.166   2.358
 6240TIP3   OH218662   8.180   1.959   2.983
 6240TIP3    H118663   8.140   1.951   3.070
 6240TIP3    H218664   8.221   1.873   2.968
 6241TIP3   OH218665   6.216   2.195   3.985
 6241TIP3    H118666   6.254   2.107   3.983
 6241TIP3    H218667   6.124   2.181   4.006
 6242TIP3   OH218668   7.687   6.541   1.165
 6242TIP3    H118669   7.713   6.523   1.256
 6242TIP3    H218670   7.682   6.454   1.125
 6243TIP3   OH218671   6.212   1.849   2.756
 6243TIP3    H118672   6.163   1.797   2.692
 6243TIP3    H218673   6.176   1.822   2.840
 6244TIP3   OH218674   6.030   7.800   2.520
 6244TIP3    H118675   6.069   7.785   2.606
 6244TIP3    H218676   6.016   7.895   2.516
 6245TIP3   OH218677   1.592   4.731   5.441
 6245TIP3    H118678   1.573   4.785   5.365
 6245TIP3    H218679   1.571   4.787   5.516
 6246TIP3   OH218680   8.187   3.562   0.865
 6246TIP3    H118681   8.214   3.654   0.867
 6246TIP3    H218682   8.134   3.555   0.785
 6247TIP3   OH218683   6.799   0.579   5.566
 6247TIP3    H118684   6.788   0.546   5.655
 6247TIP3    H218685   6.815   0.501   5.512
 6248TIP3   OH218686   7.375   3.435   5.628
 6248TIP3    H118687   7.392   3.357   5.575
 6248TIP3    H218688   7.321   3.404   5.701
 6249TIP3   OH218689   7.045   6.776   0.900
 6249TIP3    H118690   7.034   6.749   0.991
 6249TIP3    H218691   7.140   6.777   0.887
 6250TIP3   OH218692   6.188   2.553   2.048
 6250TIP3    H118693   6.122   2.614   2.015
 6250TIP3    H218694   6.214   2.503   1.970
 6251TIP3   OH218695   8.000   6.430   3.001
 6251TIP3    H118696   8.059   6.379   3.055
 6251TIP3    H218697   8.048   6.444   2.919
 6252TIP3   OH218698   5.351   6.879   6.608
 6252TIP3    H118699   5.339   6.837   6.693
 6252TIP3    H218700   5.291   6.832   6.550
 6253TIP3   OH218701   4.946   6.603   0.016
 6253TIP3    H118702   4.867   6.558   0.046
 6253TIP3    H218703   4.962   6.568  -0.072
 6254TIP3   OH218704   3.025   7.584   3.284
 6254TIP3    H118705   3.061   7.525   3.217
 6254TIP3    H218706   3.101   7.612   3.335
 6255TIP3   OH218707   1.900   5.499   3.933
 6255TIP3    H118708   1.951   5.530   4.007
 6255TIP3    H218709   1.942   5.538   3.856
 6256TIP3   OH218710   7.772   3.286   4.269
 6256TIP3    H118711   7.711   3.221   4.236
 6256TIP3    H218712   7.815   3.243   4.343
 6257TIP3   OH218713   1.004   4.767   3.887
 6257TIP3    H118714   0.936   4.800   3.946
 6257TIP3    H218715   0.965   4.774   3.800
 6258TIP3   OH218716   5.998   5.742   4.797
 6258TIP3    H118717   6.053   5.735   4.720
 6258TIP3    H218718   6.060   5.756   4.869
 6259TIP3   OH218719   6.180   6.918   3.160
 6259TIP3    H118720   6.107   6.974   3.185
 6259TIP3    H218721   6.228   6.904   3.242
 6260TIP3   OH218722   7.594   5.392   5.898
 6260TIP3    H118723   7.661   5.336   5.938
 6260TIP3    H218724   7.629   5.416   5.812
 6261TIP3   OH218725   1.356   0.189   5.013
 6261TIP3    H118726   1.369   0.284   5.012
 6261TIP3    H218727   1.293   0.175   5.084
 6262TIP3   OH218728   7.480   1.298   2.924
 6262TIP3    H118729   7.442   1.222   2.880
 6262TIP3    H218730   7.573   1.275   2.935
 6263TIP3   OH218731   0.338   0.675   1.125
 6263TIP3    H118732   0.257   0.683   1.175
 6263TIP3    H218733   0.407   0.675   1.192
 6264TIP3   OH218734   1.430   0.570   6.429
 6264TIP3    H118735   1.478   0.518   6.494
 6264TIP3    H218736   1.345   0.587   6.470
 6265TIP3   OH218737   0.478   7.375   0.806
 6265TIP3    H118738   0.511   7.316   0.874
 6265TIP3    H218739   0.384   7.378   0.820
 6266TIP3   OH218740   5.849   4.431   1.620
 6266TIP3    H118741   5.918   4.446   1.555
 6266TIP3    H218742   5.891   4.451   1.704
 6267TIP3   OH218743   2.272   3.971   0.585
 6267TIP3    H118744   2.190   3.994   0.541
 6267TIP3    H218745   2.249   3.970   0.678
 6268TIP3   OH218746   5.921   6.225   0.518
 6268TIP3    H118747   6.011   6.199   0.502
 6268TIP3    H218748   5.924   6.320   0.525
 6269TIP3   OH218749   2.208   4.913   4.475
 6269TIP3    H118750   2.262   4.887   4.550
 6269TIP3    H218751   2.128   4.862   4.485
 6270TIP3   OH218752   3.490   5.262   0.295
 6270TIP3    H118753   3.448   5.347   0.286
 6270TIP3    H218754   3.584   5.280   0.290
 6271TIP3   OH218755   7.236   6.260   4.429
 6271TIP3    H118756   7.148   6.298   4.432
 6271TIP3    H218757   7.223   6.168   4.451
 6272TIP3   OH218758   7.174   4.616   4.973
 6272TIP3    H118759   7.220   4.656   4.899
 6272TIP3    H218760   7.243   4.595   5.036
 6273TIP3   OH218761   1.650   5.744   3.538
 6273TIP3    H118762   1.707   5.771   3.466
 6273TIP3    H218763   1.571   5.798   3.527
 6274TIP3   OH218764   1.363   0.145   2.192
 6274TIP3    H118765   1.318   0.085   2.252
 6274TIP3    H218766   1.442   0.098   2.167
 6275TIP3   OH218767   2.150   3.004   3.299
 6275TIP3    H118768   2.184   3.077   3.351
 6275TIP3    H218769   2.183   2.925   3.344
 6276TIP3   OH218770   2.601   1.888   2.718
 6276TIP3    H118771   2.621   1.796   2.731
 6276TIP3    H218772   2.550   1.890   2.636
 6277TIP3   OH218773   8.202   1.368   1.077
 6277TIP3    H118774   8.263   1.441   1.086
 6277TIP3    H218775   8.238   1.314   1.006
 6278TIP3   OH218776   1.547   5.272   3.194
 6278TIP3    H118777   1.535   5.320   3.276
 6278TIP3    H218778   1.471   5.296   3.141
 6279TIP3   OH218779   1.799   4.639   0.557
 6279TIP3    H118780   1.794   4.665   0.465
 6279TIP3    H218781   1.754   4.710   0.604
 6280TIP3   OH218782   2.321   5.507   4.798
 6280TIP3    H118783   2.402   5.556   4.814
 6280TIP3    H218784   2.252   5.572   4.805
 6281TIP3   OH218785   5.717   3.369   1.598
 6281TIP3    H118786   5.813   3.367   1.603
 6281TIP3    H218787   5.693   3.450   1.643
 6282TIP3   OH218788   0.701   4.277   0.094
 6282TIP3    H118789   0.615   4.271   0.135
 6282TIP3    H218790   0.686   4.324   0.012
 6283TIP3   OH218791   2.548   1.948   1.328
 6283TIP3    H118792   2.558   1.854   1.315
 6283TIP3    H218793   2.603   1.969   1.403
 6284TIP3   OH218794   4.458   7.516   4.548
 6284TIP3    H118795   4.406   7.560   4.480
 6284TIP3    H218796   4.418   7.543   4.630
 6285TIP3   OH218797   4.346   3.560   5.509
 6285TIP3    H118798   4.251   3.547   5.510
 6285TIP3    H218799   4.381   3.476   5.479
 6286TIP3   OH218800   6.206   0.972   3.285
 6286TIP3    H118801   6.164   0.972   3.372
 6286TIP3    H218802   6.133   0.972   3.224
 6287TIP3   OH218803   0.203   6.134   1.259
 6287TIP3    H118804   0.179   6.223   1.235
 6287TIP3    H218805   0.297   6.130   1.246
 6288TIP3   OH218806   4.261   5.790   1.226
 6288TIP3    H118807   4.342   5.839   1.235
 6288TIP3    H218808   4.241   5.792   1.133
 6289TIP3   OH218809   5.335   2.119   1.326
 6289TIP3    H118810   5.332   2.211   1.297
 6289TIP3    H218811   5.255   2.081   1.292
 6290TIP3   OH218812   0.848   7.181   4.243
 6290TIP3    H118813   0.823   7.226   4.163
 6290TIP3    H218814   0.852   7.089   4.218
 6291TIP3   OH218815   2.889   7.465   5.070
 6291TIP3    H118816   2.894   7.445   5.164
 6291TIP3    H218817   2.834   7.543   5.065
 6292TIP3   OH218818   8.187   1.663   3.025
 6292TIP3    H118819   8.203   1.695   3.113
 6292TIP3    H218820   8.092   1.671   3.014
 6293TIP3   OH218821   2.028   1.263   5.998
 6293TIP3    H118822   2.066   1.245   6.084
 6293TIP3    H218823   2.089   1.223   5.936
 6294TIP3   OH218824   5.396   2.185   1.677
 6294TIP3    H118825   5.394   2.267   1.627
 6294TIP3    H218826   5.473   2.193   1.733
 6295TIP3   OH218827   2.526   5.471   0.590
 6295TIP3    H118828   2.538   5.533   0.663
 6295TIP3    H218829   2.613   5.433   0.577
 6296TIP3   OH218830   6.089   1.746   3.779
 6296TIP3    H118831   6.019   1.738   3.714
 6296TIP3    H218832   6.141   1.666   3.768
 6297TIP3   OH218833   5.786   6.409   4.337
 6297TIP3    H118834   5.693   6.399   4.315
 6297TIP3    H218835   5.807   6.498   4.309
 6298TIP3   OH218836   4.195   1.456   0.625
 6298TIP3    H118837   4.102   1.470   0.611
 6298TIP3    H218838   4.239   1.514   0.563
 6299TIP3   OH218839   3.572   0.143   4.059
 6299TIP3    H118840   3.652   0.090   4.060
 6299TIP3    H218841   3.501   0.079   4.060
 6300TIP3   OH218842   2.255   6.627   0.562
 6300TIP3    H118843   2.333   6.644   0.509
 6300TIP3    H218844   2.207   6.561   0.514
 6301TIP3   OH218845   2.671   6.856   0.387
 6301TIP3    H118846   2.636   6.922   0.327
 6301TIP3    H218847   2.750   6.824   0.344
 6302TIP3   OH218848   4.858   1.628   4.664
 6302TIP3    H118849   4.818   1.712   4.688
 6302TIP3    H218850   4.938   1.652   4.616
 6303TIP3   OH218851   0.391   0.425   5.423
 6303TIP3    H118852   0.460   0.367   5.390
 6303TIP3    H218853   0.416   0.512   5.391
 6304TIP3   OH218854   6.213   6.571   5.908
 6304TIP3    H118855   6.255   6.657   5.908
 6304TIP3    H218856   6.120   6.589   5.899
 6305TIP3   OH218857   5.267   3.846   0.304
 6305TIP3    H118858   5.251   3.756   0.334
 6305TIP3    H218859   5.279   3.896   0.385
 6306TIP3   OH218860   4.436   6.712   4.354
 6306TIP3    H118861   4.405   6.622   4.366
 6306TIP3    H218862   4.511   6.720   4.413
 6307TIP3   OH218863   0.673   3.603   5.269
 6307TIP3    H118864   0.625   3.610   5.352
 6307TIP3    H218865   0.649   3.682   5.221
 6308TIP3   OH218866   1.031   2.003   0.942
 6308TIP3    H118867   1.090   1.964   0.877
 6308TIP3    H218868   1.084   2.009   1.022
 6309TIP3   OH218869   2.871   2.316   4.946
 6309TIP3    H118870   2.840   2.399   4.981
 6309TIP3    H218871   2.925   2.279   5.016
 6310TIP3   OH218872   3.902   7.773   6.602
 6310TIP3    H118873   3.951   7.841   6.648
 6310TIP3    H218874   3.970   7.721   6.558
 6311TIP3   OH218875   4.284   7.186   6.722
 6311TIP3    H118876   4.308   7.101   6.760
 6311TIP3    H218877   4.188   7.185   6.721
 6312TIP3   OH218878   7.575   4.941   2.301
 6312TIP3    H118879   7.504   4.906   2.355
 6312TIP3    H218880   7.538   5.021   2.263
 6313TIP3   OH218881   4.163   2.773   4.226
 6313TIP3    H118882   4.104   2.846   4.248
 6313TIP3    H218883   4.248   2.815   4.212
 6314TIP3   OH218884   0.722   4.088   6.065
 6314TIP3    H118885   0.767   4.023   6.119
 6314TIP3    H218886   0.677   4.037   5.998
 6315TIP3   OH218887   2.762   4.454   4.507
 6315TIP3    H118888   2.678   4.478   4.546
 6315TIP3    H218889   2.819   4.529   4.522
 6316TIP3   OH218890   5.975   3.267   1.099
 6316TIP3    H118891   5.975   3.243   1.192
 6316TIP3    H218892   6.062   3.245   1.068
 6317TIP3   OH218893   0.814   3.341   6.250
 6317TIP3    H118894   0.837   3.282   6.179
 6317TIP3    H218895   0.898   3.358   6.294
 6318TIP3   OH218896   6.856   1.842   5.721
 6318TIP3    H118897   6.796   1.832   5.794
 6318TIP3    H218898   6.928   1.781   5.740
 6319TIP3   OH218899   1.686   4.906   4.240
 6319TIP3    H118900   1.683   4.916   4.335
 6319TIP3    H218901   1.779   4.893   4.220
 6320TIP3   OH218902   6.438   7.211   3.405
 6320TIP3    H118903   6.517   7.212   3.351
 6320TIP3    H218904   6.410   7.119   3.404
 6321TIP3   OH218905   2.343   0.550   1.459
 6321TIP3    H118906   2.431   0.564   1.425
 6321TIP3    H218907   2.330   0.622   1.521
 6322TIP3   OH218908   7.014   7.486   6.218
 6322TIP3    H118909   6.946   7.483   6.285
 6322TIP3    H218910   6.967   7.477   6.135
 6323TIP3   OH218911   5.519   4.717   0.377
 6323TIP3    H118912   5.602   4.758   0.354
 6323TIP3    H218913   5.507   4.737   0.470
 6324TIP3   OH218914   3.853   4.971   3.501
 6324TIP3    H118915   3.814   5.051   3.534
 6324TIP3    H218916   3.799   4.947   3.425
 6325TIP3   OH218917   6.589   6.444   1.884
 6325TIP3    H118918   6.594   6.371   1.945
 6325TIP3    H218919   6.594   6.522   1.938
 6326TIP3   OH218920   8.241   6.665   4.600
 6326TIP3    H118921   8.245   6.573   4.626
 6326TIP3    H218922   8.231   6.713   4.682
 6327TIP3   OH218923   8.073   0.246   2.162
 6327TIP3    H118924   7.993   0.269   2.210
 6327TIP3    H218925   8.124   0.327   2.162
 6328TIP3   OH218926   3.313   2.236   1.969
 6328TIP3    H118927   3.291   2.151   2.008
 6328TIP3    H218928   3.371   2.214   1.896
 6329TIP3   OH218929   3.602   1.812   5.318
 6329TIP3    H118930   3.656   1.795   5.241
 6329TIP3    H218931   3.512   1.812   5.285
 6330TIP3   OH218932   2.004   4.560   5.396
 6330TIP3    H118933   2.006   4.602   5.310
 6330TIP3    H218934   2.005   4.633   5.458
 6331TIP3   OH218935   6.265   2.408   5.582
 6331TIP3    H118936   6.242   2.318   5.559
 6331TIP3    H218937   6.360   2.413   5.572
 6332TIP3   OH218938   1.096   7.334   2.939
 6332TIP3    H118939   1.080   7.283   3.018
 6332TIP3    H218940   1.011   7.339   2.895
 6333TIP3   OH218941   5.066   3.718   6.211
 6333TIP3    H118942   5.059   3.763   6.295
 6333TIP3    H218943   4.987   3.744   6.163
 6334TIP3   OH218944   2.910   0.739   2.092
 6334TIP3    H118945   2.845   0.671   2.076
 6334TIP3    H218946   2.883   0.812   2.036
 6335TIP3   OH218947   6.592   1.087   1.541
 6335TIP3    H118948   6.653   1.061   1.610
 6335TIP3    H218949   6.600   1.018   1.474
 6336TIP3   OH218950   3.675   6.750   0.059
 6336TIP3    H118951   3.704   6.841   0.071
 6336TIP3    H218952   3.745   6.697   0.096
 6337TIP3   OH218953   1.461   4.981   4.554
 6337TIP3    H118954   1.396   5.036   4.597
 6337TIP3    H218955   1.444   4.993   4.460
 6338TIP3   OH218956   2.362   7.462   3.989
 6338TIP3    H118957   2.360   7.532   3.924
 6338TIP3    H218958   2.309   7.392   3.951
 6339TIP3   OH218959   4.962   3.057   4.348
 6339TIP3    H118960   4.987   3.076   4.439
 6339TIP3    H218961   5.040   3.015   4.311
 6340TIP3   OH218962   5.508   2.071   5.344
 6340TIP3    H118963   5.463   2.080   5.260
 6340TIP3    H218964   5.490   2.153   5.390
 6341TIP3   OH218965   3.846   1.798   6.800
 6341TIP3    H118966   3.798   1.858   6.743
 6341TIP3    H218967   3.860   1.720   6.746
 6342TIP3   OH218968   4.657   6.401   3.878
 6342TIP3    H118969   4.584   6.351   3.915
 6342TIP3    H218970   4.650   6.487   3.918
 6343TIP3   OH218971   0.438   4.085   2.713
 6343TIP3    H118972   0.456   4.031   2.636
 6343TIP3    H218973   0.490   4.045   2.783
 6344TIP3   OH218974   0.662   6.900   3.469
 6344TIP3    H118975   0.657   6.995   3.459
 6344TIP3    H218976   0.628   6.865   3.386
 6345TIP3   OH218977   4.890   5.999   3.675
 6345TIP3    H118978   4.852   6.062   3.614
 6345TIP3    H218979   4.973   5.975   3.634
 6346TIP3   OH218980   2.806   3.251   3.183
 6346TIP3    H118981   2.822   3.182   3.119
 6346TIP3    H218982   2.733   3.218   3.236
 6347TIP3   OH218983   8.071   5.129   1.093
 6347TIP3    H118984   8.036   5.217   1.076
 6347TIP3    H218985   8.059   5.116   1.187
 6348TIP3   OH218986   0.258   2.852   4.122
 6348TIP3    H118987   0.257   2.798   4.201
 6348TIP3    H218988   0.221   2.936   4.150
 6349TIP3   OH218989   7.053   7.846   6.305
 6349TIP3    H118990   7.095   7.914   6.357
 6349TIP3    H218991   7.103   7.767   6.324
 6350TIP3   OH218992   2.794   1.181   6.440
 6350TIP3    H118993   2.725   1.200   6.503
 6350TIP3    H218994   2.873   1.171   6.493
 6351TIP3   OH218995   0.448   7.448   0.344
 6351TIP3    H118996   0.386   7.377   0.362
 6351TIP3    H218997   0.534   7.409   0.361
 6352TIP3   OH218998   8.353   7.158   3.439
 6352TIP3    H118999   8.394   7.076   3.466
 6352TIP3    H219000   8.259   7.142   3.449
 6353TIP3   OH219001   2.649   0.852   0.397
 6353TIP3    H119002   2.593   0.911   0.348
 6353TIP3    H219003   2.664   0.778   0.339
 6354TIP3   OH219004   2.021   3.262   6.184
 6354TIP3    H119005   2.116   3.270   6.198
 6354TIP3    H219006   1.982   3.323   6.247
 6355TIP3   OH219007   5.211   1.234   5.046
 6355TIP3    H119008   5.152   1.161   5.030
 6355TIP3    H219009   5.178   1.304   4.991
 6356TIP3   OH219010   4.612   2.387   3.173
 6356TIP3    H119011   4.609   2.365   3.080
 6356TIP3    H219012   4.531   2.351   3.209
 6357TIP3   OH219013   0.376   0.896   0.925
 6357TIP3    H119014   0.393   0.981   0.966
 6357TIP3    H219015   0.297   0.910   0.873
 6358TIP3   OH219016   7.872   0.372   1.175
 6358TIP3    H119017   7.874   0.463   1.205
 6358TIP3    H219018   7.937   0.328   1.230
 6359TIP3   OH219019   4.177   1.069   3.003
 6359TIP3    H119020   4.104   1.028   3.049
 6359TIP3    H219021   4.188   1.017   2.923
 6360TIP3   OH219022   4.444   1.931   4.313
 6360TIP3    H119023   4.404   1.909   4.228
 6360TIP3    H219024   4.408   1.867   4.374
 6361TIP3   OH219025   7.396   3.828   0.951
 6361TIP3    H119026   7.425   3.911   0.913
 6361TIP3    H219027   7.348   3.854   1.030
 6362TIP3   OH219028   4.253   3.530   1.299
 6362TIP3    H119029   4.190   3.599   1.319
 6362TIP3    H219030   4.229   3.458   1.357
 6363TIP3   OH219031   4.281   2.213   2.902
 6363TIP3    H119032   4.260   2.228   2.994
 6363TIP3    H219033   4.350   2.277   2.881
 6364TIP3   OH219034   4.359   0.617   5.154
 6364TIP3    H119035   4.374   0.623   5.060
 6364TIP3    H219036   4.264   0.612   5.162
 6365TIP3   OH219037   1.571   2.992   2.261
 6365TIP3    H119038   1.645   2.955   2.309
 6365TIP3    H219039   1.512   2.918   2.247
 6366TIP3   OH219040   3.368   3.405   4.434
 6366TIP3    H119041   3.384   3.311   4.434
 6366TIP3    H219042   3.425   3.439   4.504
 6367TIP3   OH219043   3.789   1.486   2.014
 6367TIP3    H119044   3.817   1.396   2.034
 6367TIP3    H219045   3.808   1.535   2.093
 6368TIP3   OH219046   3.027   2.138   4.379
 6368TIP3    H119047   3.078   2.057   4.384
 6368TIP3    H219048   3.090   2.204   4.350
 6369TIP3   OH219049   1.763   7.126   5.216
 6369TIP3    H119050   1.678   7.117   5.174
 6369TIP3    H219051   1.812   7.185   5.159
 6370TIP3   OH219052   3.588   5.158   3.111
 6370TIP3    H119053   3.584   5.237   3.165
 6370TIP3    H219054   3.673   5.119   3.132
 6371TIP3   OH219055   2.802   5.711   2.948
 6371TIP3    H119056   2.881   5.718   3.001
 6371TIP3    H219057   2.771   5.802   2.941
 6372TIP3   OH219058   7.633   0.534   2.682
 6372TIP3    H119059   7.583   0.491   2.613
 6372TIP3    H219060   7.586   0.616   2.698
 6373TIP3   OH219061   5.992   5.230   4.621
 6373TIP3    H119062   5.950   5.312   4.650
 6373TIP3    H219063   6.083   5.254   4.605
 6374TIP3   OH219064   7.439   0.265   4.859
 6374TIP3    H119065   7.476   0.268   4.947
 6374TIP3    H219066   7.499   0.208   4.810
 6375TIP3   OH219067   3.136   0.223   3.332
 6375TIP3    H119068   3.101   0.211   3.420
 6375TIP3    H219069   3.105   0.146   3.284
 6376TIP3   OH219070   0.894   7.811   1.328
 6376TIP3    H119071   0.951   7.875   1.287
 6376TIP3    H219072   0.863   7.756   1.255
 6377TIP3   OH219073   6.077   1.362   5.883
 6377TIP3    H119074   6.003   1.398   5.834
 6377TIP3    H219075   6.041   1.342   5.969
 6378TIP3   OH219076   6.497   0.499   3.561
 6378TIP3    H119077   6.480   0.513   3.655
 6378TIP3    H219078   6.450   0.570   3.518
 6379TIP3   OH219079   7.016   0.592   0.185
 6379TIP3    H119080   7.053   0.507   0.208
 6379TIP3    H219081   7.059   0.616   0.103
 6380TIP3   OH219082   5.031   4.611   6.105
 6380TIP3    H119083   5.085   4.572   6.037
 6380TIP3    H219084   5.053   4.705   6.102
 6381TIP3   OH219085   6.896   2.087   3.439
 6381TIP3    H119086   6.908   2.165   3.386
 6381TIP3    H219087   6.802   2.084   3.457
 6382TIP3   OH219088   6.703   1.723   4.269
 6382TIP3    H119089   6.785   1.705   4.223
 6382TIP3    H219090   6.726   1.715   4.361
 6383TIP3   OH219091   1.083   1.506   3.231
 6383TIP3    H119092   1.057   1.518   3.322
 6383TIP3    H219093   1.161   1.449   3.236
 6384TIP3   OH219094   0.035   1.715   0.641
 6384TIP3    H119095   0.036   1.766   0.722
 6384TIP3    H219096   0.083   1.635   0.662
 6385TIP3   OH219097   0.818   4.963   1.111
 6385TIP3    H119098   0.865   5.039   1.077
 6385TIP3    H219099   0.727   4.976   1.083
 6386TIP3   OH219100   6.551   1.191   0.866
 6386TIP3    H119101   6.465   1.209   0.828
 6386TIP3    H219102   6.585   1.117   0.816
 6387TIP3   OH219103   5.640   3.098   4.183
 6387TIP3    H119104   5.686   3.161   4.128
 6387TIP3    H219105   5.663   3.122   4.273
 6388TIP3   OH219106   7.302   7.552   3.373
 6388TIP3    H119107   7.273   7.505   3.452
 6388TIP3    H219108   7.372   7.610   3.405
 6389TIP3   OH219109   3.694   5.944   2.447
 6389TIP3    H119110   3.667   5.918   2.535
 6389TIP3    H219111   3.623   5.999   2.415
 6390TIP3   OH219112   0.278   3.762   3.819
 6390TIP3    H119113   0.207   3.698   3.832
 6390TIP3    H219114   0.348   3.732   3.877
 6391TIP3   OH219115   7.495   0.405   2.483
 6391TIP3    H119116   7.444   0.462   2.427
 6391TIP3    H219117   7.539   0.345   2.423
 6392TIP3   OH219118   2.170   2.528   2.378
 6392TIP3    H119119   2.129   2.583   2.312
 6392TIP3    H219120   2.263   2.552   2.375
 6393TIP3   OH219121   2.043   6.530   2.883
 6393TIP3    H119122   2.121   6.489   2.846
 6393TIP3    H219123   2.061   6.624   2.876
 6394TIP3   OH219124   2.228   0.531   2.559
 6394TIP3    H119125   2.242   0.584   2.481
 6394TIP3    H219126   2.140   0.494   2.546
 6395TIP3   OH219127   4.271   5.853   3.087
 6395TIP3    H119128   4.302   5.816   3.170
 6395TIP3    H219129   4.253   5.945   3.108
 6396TIP3   OH219130   7.111   2.548   5.453
 6396TIP3    H119131   7.170   2.620   5.475
 6396TIP3    H219132   7.051   2.542   5.527
 6397TIP3   OH219133   6.035   1.899   5.201
 6397TIP3    H119134   5.997   1.932   5.120
 6397TIP3    H219135   5.965   1.847   5.241
 6398TIP3   OH219136   2.976   7.299   1.030
 6398TIP3    H119137   2.981   7.281   1.124
 6398TIP3    H219138   3.067   7.305   1.001
 6399TIP3   OH219139   0.027   6.840   0.573
 6399TIP3    H119140  -0.011   6.763   0.532
 6399TIP3    H219141  -0.003   6.836   0.664
 6400TIP3   OH219142   7.663   2.954   0.861
 6400TIP3    H119143   7.604   2.935   0.789
 6400TIP3    H219144   7.718   3.025   0.830
 6401TIP3   OH219145   4.670   4.043   2.334
 6401TIP3    H119146   4.612   4.081   2.269
 6401TIP3    H219147   4.750   4.096   2.329
 6402TIP3   OH219148   0.542   7.067   3.176
 6402TIP3    H119149   0.448   7.083   3.189
 6402TIP3    H219150   0.547   7.014   3.097
 6403TIP3   OH219151   1.180   2.061   5.456
 6403TIP3    H119152   1.213   2.132   5.401
 6403TIP3    H219153   1.134   2.004   5.396
 6404TIP3   OH219154   6.407   1.360   4.441
 6404TIP3    H119155   6.413   1.286   4.381
 6404TIP3    H219156   6.470   1.340   4.510
 6405TIP3   OH219157   1.890  -0.018   2.865
 6405TIP3    H119158   1.857   0.055   2.918
 6405TIP3    H219159   1.820  -0.037   2.803
 6406TIP3   OH219160   5.983   4.717   2.472
 6406TIP3    H119161   5.905   4.675   2.435
 6406TIP3    H219162   5.957   4.740   2.561
 6407TIP3   OH219163   2.076   2.270   4.731
 6407TIP3    H119164   2.007   2.241   4.671
 6407TIP3    H219165   2.104   2.191   4.777
 6408TIP3   OH219166   6.921   5.856   6.306
 6408TIP3    H119167   6.903   5.868   6.399
 6408TIP3    H219168   6.959   5.940   6.278
 6409TIP3   OH219169   1.786   2.365   3.527
 6409TIP3    H119170   1.857   2.429   3.520
 6409TIP3    H219171   1.723   2.406   3.585
 6410TIP3   OH219172   2.447   0.136   0.566
 6410TIP3    H119173   2.451   0.055   0.617
 6410TIP3    H219174   2.455   0.206   0.630
 6411TIP3   OH219175   5.444   1.490   1.207
 6411TIP3    H119176   5.483   1.574   1.182
 6411TIP3    H219177   5.517   1.441   1.245
 6412TIP3   OH219178   1.315   2.131   3.838
 6412TIP3    H119179   1.372   2.201   3.806
 6412TIP3    H219180   1.364   2.092   3.910
 6413TIP3   OH219181   3.522   6.003   0.181
 6413TIP3    H119182   3.462   5.928   0.177
 6413TIP3    H219183   3.467   6.078   0.160
 6414TIP3   OH219184   4.529   6.731   4.992
 6414TIP3    H119185   4.585   6.777   5.054
 6414TIP3    H219186   4.511   6.646   5.034
 6415TIP3   OH219187   3.989   3.393   2.078
 6415TIP3    H119188   4.024   3.466   2.026
 6415TIP3    H219189   4.048   3.388   2.153
 6416TIP3   OH219190   7.944   4.828   1.676
 6416TIP3    H119191   7.912   4.843   1.587
 6416TIP3    H219192   7.871   4.852   1.732
 6417TIP3   OH219193   4.303   5.731   2.297
 6417TIP3    H119194   4.342   5.658   2.346
 6417TIP3    H219195   4.306   5.703   2.206
 6418TIP3   OH219196   3.884   7.664   2.211
 6418TIP3    H119197   3.926   7.663   2.298
 6418TIP3    H219198   3.799   7.704   2.226
 6419TIP3   OH219199   3.644   6.142   6.648
 6419TIP3    H119200   3.728   6.188   6.646
 6419TIP3    H219201   3.625   6.122   6.556
 6420TIP3   OH219202   1.981   0.930   3.330
 6420TIP3    H119203   2.040   0.902   3.260
 6420TIP3    H219204   1.995   0.868   3.400
 6421TIP3   OH219205   2.452   4.350   0.399
 6421TIP3    H119206   2.410   4.360   0.314
 6421TIP3    H219207   2.437   4.434   0.443
 6422TIP3   OH219208   5.253   3.459   1.030
 6422TIP3    H119209   5.180   3.520   1.021
 6422TIP3    H219210   5.216   3.373   1.010
 6423TIP3   OH219211   5.196   7.510   3.565
 6423TIP3    H119212   5.172   7.427   3.607
 6423TIP3    H219213   5.265   7.546   3.621
 6424TIP3   OH219214   1.737   0.915   1.894
 6424TIP3    H119215   1.716   0.859   1.819
 6424TIP3    H219216   1.822   0.883   1.924
 6425TIP3   OH219217   2.776   5.426   6.664
 6425TIP3    H119218   2.681   5.430   6.665
 6425TIP3    H219219   2.800   5.452   6.575
 6426TIP3   OH219220   7.623   5.653   2.032
 6426TIP3    H119221   7.718   5.652   2.026
 6426TIP3    H219222   7.594   5.592   1.964
 6427TIP3   OH219223   2.258   6.143   1.393
 6427TIP3    H119224   2.325   6.182   1.336
 6427TIP3    H219225   2.306   6.115   1.470
 6428TIP3   OH219226   1.664   0.056   5.783
 6428TIP3    H119227   1.683   0.143   5.749
 6428TIP3    H219228   1.574   0.038   5.755
 6429TIP3   OH219229   1.801   4.947   0.036
 6429TIP3    H119230   1.762   5.026  -0.001
 6429TIP3    H219231   1.839   4.975   0.119
 6430TIP3   OH219232   2.167   3.651   4.994
 6430TIP3    H119233   2.177   3.742   4.968
 6430TIP3    H219234   2.196   3.601   4.918
 6431TIP3   OH219235   6.606   3.071   4.495
 6431TIP3    H119236   6.563   2.989   4.471
 6431TIP3    H219237   6.681   3.044   4.548
 6432TIP3   OH219238   3.819   2.997   5.191
 6432TIP3    H119239   3.841   3.023   5.281
 6432TIP3    H219240   3.891   2.939   5.165
 6433TIP3   OH219241   1.896   6.233   1.180
 6433TIP3    H119242   1.906   6.324   1.154
 6433TIP3    H219243   1.898   6.234   1.275
 6434TIP3   OH219244   2.929   1.748   3.854
 6434TIP3    H119245   2.886   1.824   3.891
 6434TIP3    H219246   3.001   1.784   3.801
 6435TIP3   OH219247   0.898   5.509   3.111
 6435TIP3    H119248   0.888   5.578   3.045
 6435TIP3    H219249   0.934   5.435   3.063
 6436TIP3   OH219250   6.422   4.639   5.148
 6436TIP3    H119251   6.516   4.622   5.153
 6436TIP3    H219252   6.409   4.678   5.061
 6437TIP3   OH219253   3.945   6.696   6.642
 6437TIP3    H119254   3.951   6.622   6.701
 6437TIP3    H219255   3.867   6.678   6.589
 6438TIP3   OH219256   6.426   6.371   4.357
 6438TIP3    H119257   6.387   6.297   4.310
 6438TIP3    H219258   6.494   6.404   4.298
 6439TIP3   OH219259   2.694   0.804   4.502
 6439TIP3    H119260   2.786   0.828   4.493
 6439TIP3    H219261   2.647   0.874   4.457
 6440TIP3   OH219262   6.345   0.692   1.117
 6440TIP3    H119263   6.266   0.661   1.073
 6440TIP3    H219264   6.315   0.759   1.177
 6441TIP3   OH219265   3.344   0.955   3.114
 6441TIP3    H119266   3.304   0.900   3.182
 6441TIP3    H219267   3.271   1.007   3.079
 6442TIP3   OH219268   5.658   2.157   0.908
 6442TIP3    H119269   5.595   2.121   0.970
 6442TIP3    H219270   5.633   2.249   0.900
 6443TIP3   OH219271   2.922   7.446   6.416
 6443TIP3    H119272   2.965   7.458   6.501
 6443TIP3    H219273   2.958   7.364   6.382
 6444TIP3   OH219274   7.482   1.620   5.801
 6444TIP3    H119275   7.522   1.534   5.812
 6444TIP3    H219276   7.555   1.681   5.800
 6445TIP3   OH219277   1.931   6.068   3.197
 6445TIP3    H119278   2.010   6.033   3.157
 6445TIP3    H219279   1.898   6.132   3.135
 6446TIP3   OH219280   2.092   2.069   5.836
 6446TIP3    H119281   2.122   1.981   5.814
 6446TIP3    H219282   2.164   2.107   5.886
 6447TIP3   OH219283   4.127   0.374   5.537
 6447TIP3    H119284   4.125   0.298   5.478
 6447TIP3    H219285   4.055   0.358   5.598
 6448TIP3   OH219286   2.570   1.928   0.152
 6448TIP3    H119287   2.659   1.899   0.168
 6448TIP3    H219288   2.520   1.847   0.142
 6449TIP3   OH219289   1.390   4.524   1.640
 6449TIP3    H119290   1.455   4.593   1.628
 6449TIP3    H219291   1.436   4.443   1.619
 6450TIP3   OH219292   0.717   4.998   1.504
 6450TIP3    H119293   0.762   4.923   1.466
 6450TIP3    H219294   0.738   5.071   1.445
 6451TIP3   OH219295   2.957   7.115   0.642
 6451TIP3    H119296   3.038   7.102   0.692
 6451TIP3    H219297   2.902   7.168   0.700
 6452TIP3   OH219298   0.350   1.413   2.232
 6452TIP3    H119299   0.408   1.489   2.223
 6452TIP3    H219300   0.265   1.450   2.256
 6453TIP3   OH219301   7.332   1.930   5.469
 6453TIP3    H119302   7.320   1.964   5.558
 6453TIP3    H219303   7.335   2.009   5.414
 6454TIP3   OH219304   0.073   4.704   2.226
 6454TIP3    H119305  -0.022   4.700   2.235
 6454TIP3    H219306   0.107   4.658   2.302
 6455TIP3   OH219307   7.202   1.051   0.250
 6455TIP3    H119308   7.262   1.107   0.298
 6455TIP3    H219309   7.153   1.110   0.192
 6456TIP3   OH219310   4.075   6.181   1.088
 6456TIP3    H119311   4.166   6.175   1.116
 6456TIP3    H219312   4.069   6.266   1.044
 6457TIP3   OH219313   3.111   5.840   1.433
 6457TIP3    H119314   3.016   5.850   1.441
 6457TIP3    H219315   3.141   5.923   1.396
 6458TIP3   OH219316   3.024   0.392   4.010
 6458TIP3    H119317   2.957   0.421   4.073
 6458TIP3    H219318   3.025   0.296   4.020
 6459TIP3   OH219319   1.631   4.607   5.794
 6459TIP3    H119320   1.704   4.668   5.782
 6459TIP3    H219321   1.637   4.547   5.720
 6460TIP3   OH219322   4.197   0.426   3.302
 6460TIP3    H119323   4.177   0.461   3.389
 6460TIP3    H219324   4.287   0.454   3.285
 6461TIP3   OH219325   7.031   4.980   3.086
 6461TIP3    H119326   7.024   5.044   3.156
 6461TIP3    H219327   7.100   5.015   3.029
 6462TIP3   OH219328   3.909   4.256   0.708
 6462TIP3    H119329   3.826   4.212   0.690
 6462TIP3    H219330   3.929   4.232   0.799
 6463TIP3   OH219331   5.679   6.047   4.434
 6463TIP3    H119332   5.635   5.998   4.364
 6463TIP3    H219333   5.709   5.980   4.495
 6464TIP3   OH219334   5.239   5.938   0.904
 6464TIP3    H119335   5.302   5.940   0.976
 6464TIP3    H219336   5.257   6.018   0.854
 6465TIP3   OH219337   7.734   7.284   2.234
 6465TIP3    H119338   7.682   7.332   2.298
 6465TIP3    H219339   7.811   7.338   2.219
 6466TIP3   OH219340   2.687   0.828   3.241
 6466TIP3    H119341   2.651   0.891   3.304
 6466TIP3    H219342   2.709   0.881   3.164
 6467TIP3   OH219343   5.635   7.273   2.552
 6467TIP3    H119344   5.639   7.308   2.641
 6467TIP3    H219345   5.642   7.351   2.496
 6468TIP3   OH219346   7.478   4.959   0.045
 6468TIP3    H119347   7.539   4.928  -0.022
 6468TIP3    H219348   7.445   5.042   0.011
 6469TIP3   OH219349   4.824   6.817   6.152
 6469TIP3    H119350   4.831   6.906   6.187
 6469TIP3    H219351   4.905   6.804   6.101
 6470TIP3   OH219352   4.747   6.320   6.341
 6470TIP3    H119353   4.696   6.266   6.401
 6470TIP3    H219354   4.681   6.370   6.291
 6471TIP3   OH219355   6.092   5.876   6.227
 6471TIP3    H119356   6.100   5.960   6.180
 6471TIP3    H219357   6.144   5.815   6.176
 6472TIP3   OH219358   4.915   0.500   1.720
 6472TIP3    H119359   4.879   0.569   1.664
 6472TIP3    H219360   4.856   0.499   1.796
 6473TIP3   OH219361   1.898   1.427   5.828
 6473TIP3    H119362   1.904   1.509   5.877
 6473TIP3    H219363   1.942   1.363   5.884
 6474TIP3   OH219364   5.807   3.126   1.830
 6474TIP3    H119365   5.729   3.096   1.878
 6474TIP3    H219366   5.850   3.187   1.889
 6475TIP3   OH219367   4.843   1.490   6.769
 6475TIP3    H119368   4.914   1.476   6.833
 6475TIP3    H219369   4.886   1.534   6.696
 6476TIP3   OH219370   5.010   5.346   0.528
 6476TIP3    H119371   4.932   5.386   0.490
 6476TIP3    H219372   5.024   5.394   0.610
 6477TIP3   OH219373   5.890   3.831   2.205
 6477TIP3    H119374   5.837   3.818   2.127
 6477TIP3    H219375   5.980   3.825   2.175
 6478TIP3   OH219376   1.685   0.954   4.693
 6478TIP3    H119377   1.648   1.041   4.708
 6478TIP3    H219378   1.741   0.965   4.616
 6479TIP3   OH219379   7.831   6.578   3.304
 6479TIP3    H119380   7.834   6.482   3.296
 6479TIP3    H219381   7.747   6.596   3.346
 6480TIP3   OH219382   5.991   5.849   0.300
 6480TIP3    H119383   6.042   5.797   0.238
 6480TIP3    H219384   5.996   5.801   0.382
 6481TIP3   OH219385   2.103   2.795   5.526
 6481TIP3    H119386   2.153   2.793   5.607
 6481TIP3    H219387   2.139   2.724   5.473
 6482TIP3   OH219388   3.849   0.590   6.450
 6482TIP3    H119389   3.860   0.658   6.517
 6482TIP3    H219390   3.761   0.557   6.463
 6483TIP3   OH219391   3.727   6.115   1.995
 6483TIP3    H119392   3.778   6.106   1.915
 6483TIP3    H219393   3.789   6.146   2.061
 6484TIP3   OH219394   2.553   2.002   0.422
 6484TIP3    H119395   2.502   1.927   0.455
 6484TIP3    H219396   2.540   2.000   0.327
 6485TIP3   OH219397   3.104   1.570   3.436
 6485TIP3    H119398   3.113   1.645   3.378
 6485TIP3    H219399   3.181   1.516   3.418
 6486TIP3   OH219400   3.005   1.608   5.813
 6486TIP3    H119401   3.096   1.617   5.785
 6486TIP3    H219402   2.960   1.568   5.739
 6487TIP3   OH219403   5.685   4.858   6.627
 6487TIP3    H119404   5.739   4.936   6.630
 6487TIP3    H219405   5.716   4.804   6.700
 6488TIP3   OH219406   0.452   5.514   5.819
 6488TIP3    H119407   0.515   5.586   5.805
 6488TIP3    H219408   0.411   5.535   5.903
 6489TIP3   OH219409   4.405   2.362   3.527
 6489TIP3    H119410   4.488   2.407   3.513
 6489TIP3    H219411   4.350   2.388   3.454
 6490TIP3   OH219412   7.717   2.332   6.414
 6490TIP3    H119413   7.727   2.301   6.504
 6490TIP3    H219414   7.756   2.263   6.360
 6491TIP3   OH219415   7.732   2.509   2.639
 6491TIP3    H119416   7.728   2.603   2.651
 6491TIP3    H219417   7.644   2.478   2.660
 6492TIP3   OH219418   6.495   2.488   0.627
 6492TIP3    H119419   6.536   2.402   0.638
 6492TIP3    H219420   6.402   2.469   0.615
 6493TIP3   OH219421   2.062   3.223   1.076
 6493TIP3    H119422   2.060   3.313   1.108
 6493TIP3    H219423   2.154   3.197   1.086
 6494TIP3   OH219424   4.398   4.197   0.376
 6494TIP3    H119425   4.446   4.187   0.294
 6494TIP3    H219426   4.465   4.189   0.444
 6495TIP3   OH219427   4.699   1.826   1.725
 6495TIP3    H119428   4.723   1.890   1.791
 6495TIP3    H219429   4.660   1.754   1.775
 6496TIP3   OH219430   6.329   0.781   3.081
 6496TIP3    H119431   6.250   0.815   3.039
 6496TIP3    H219432   6.314   0.795   3.174
 6497TIP3   OH219433   0.336   7.089   2.341
 6497TIP3    H119434   0.377   7.174   2.354
 6497TIP3    H219435   0.377   7.032   2.406
 6498TIP3   OH219436   3.420   1.354   0.484
 6498TIP3    H119437   3.417   1.304   0.402
 6498TIP3    H219438   3.399   1.290   0.552
 6499TIP3   OH219439   3.527   0.997   0.320
 6499TIP3    H119440   3.590   0.981   0.391
 6499TIP3    H219441   3.469   1.064   0.354
 6500TIP3   OH219442   1.040   7.113   5.325
 6500TIP3    H119443   1.022   7.073   5.410
 6500TIP3    H219444   1.133   7.095   5.309
 6501TIP3   OH219445   1.195   0.731   6.434
 6501TIP3    H119446   1.269   0.789   6.448
 6501TIP3    H219447   1.118   0.787   6.446
 6502TIP3   OH219448   5.350   1.542   2.016
 6502TIP3    H119449   5.331   1.452   2.041
 6502TIP3    H219450   5.264   1.582   2.002
 6503TIP3   OH219451   6.000   3.855   1.138
 6503TIP3    H119452   6.049   3.913   1.079
 6503TIP3    H219453   6.066   3.794   1.171
 6504TIP3   OH219454   3.960   1.806   4.875
 6504TIP3    H119455   4.045   1.848   4.884
 6504TIP3    H219456   3.942   1.809   4.781
 6505TIP3   OH219457   2.354   4.692   3.103
 6505TIP3    H119458   2.412   4.753   3.148
 6505TIP3    H219459   2.394   4.681   3.017
 6506TIP3   OH219460   5.666   4.244   5.603
 6506TIP3    H119461   5.757   4.258   5.630
 6506TIP3    H219462   5.640   4.328   5.564
 6507TIP3   OH219463   4.285   1.155   6.570
 6507TIP3    H119464   4.301   1.216   6.642
 6507TIP3    H219465   4.309   1.069   6.605
 6508TIP3   OH219466   6.788   7.606   1.906
 6508TIP3    H119467   6.745   7.527   1.871
 6508TIP3    H219468   6.876   7.577   1.929
 6509TIP3   OH219469   1.977   4.089   6.761
 6509TIP3    H119470   1.905   4.027   6.749
 6509TIP3    H219471   2.051   4.049   6.717
 6510TIP3   OH219472   3.785   5.032   4.919
 6510TIP3    H119473   3.790   5.034   5.015
 6510TIP3    H219474   3.771   5.123   4.894
 6511TIP3   OH219475   5.665   4.322   3.213
 6511TIP3    H119476   5.581   4.336   3.257
 6511TIP3    H219477   5.724   4.386   3.251
 6512TIP3   OH219478   4.464   5.621   4.018
 6512TIP3    H119479   4.519   5.699   4.008
 6512TIP3    H219480   4.435   5.601   3.929
 6513TIP3   OH219481   2.038   1.891   3.000
 6513TIP3    H119482   2.133   1.889   2.996
 6513TIP3    H219483   2.010   1.802   2.977
 6514TIP3   OH219484   0.180   4.690   4.981
 6514TIP3    H119485   0.148   4.681   4.891
 6514TIP3    H219486   0.170   4.784   5.000
 6515TIP3   OH219487   4.452   6.692   5.526
 6515TIP3    H119488   4.410   6.772   5.561
 6515TIP3    H219489   4.521   6.724   5.468
 6516TIP3   OH219490   0.203   4.315   5.237
 6516TIP3    H119491   0.297   4.308   5.220
 6516TIP3    H219492   0.195   4.306   5.332
 6517TIP3   OH219493   1.070   1.142   5.826
 6517TIP3    H119494   0.991   1.174   5.782
 6517TIP3    H219495   1.042   1.061   5.869
 6518TIP3   OH219496   6.652   0.803   5.605
 6518TIP3    H119497   6.620   0.813   5.515
 6518TIP3    H219498   6.720   0.735   5.599
 6519TIP3   OH219499   1.586   6.965   1.321
 6519TIP3    H119500   1.598   6.875   1.292
 6519TIP3    H219501   1.583   6.960   1.417
 6520TIP3   OH219502   2.117   5.720   4.459
 6520TIP3    H119503   2.208   5.690   4.455
 6520TIP3    H219504   2.072   5.671   4.391
 6521TIP3   OH219505   3.673   3.045   0.064
 6521TIP3    H119506   3.672   2.979   0.133
 6521TIP3    H219507   3.762   3.042   0.029
 6522TIP3   OH219508   7.941   0.852   6.494
 6522TIP3    H119509   7.931   0.890   6.581
 6522TIP3    H219510   7.954   0.927   6.436
 6523TIP3   OH219511   1.669   3.465   5.381
 6523TIP3    H119512   1.623   3.412   5.317
 6523TIP3    H219513   1.670   3.553   5.344
 6524TIP3   OH219514   2.700   0.143   4.660
 6524TIP3    H119515   2.709   0.123   4.753
 6524TIP3    H219516   2.609   0.173   4.651
 6525TIP3   OH219517   5.138   7.580   1.960
 6525TIP3    H119518   5.184   7.501   1.931
 6525TIP3    H219519   5.207   7.640   1.988
 6526TIP3   OH219520   5.282   1.395   4.467
 6526TIP3    H119521   5.315   1.306   4.458
 6526TIP3    H219522   5.226   1.408   4.390
 6527TIP3   OH219523   8.131   1.977   6.082
 6527TIP3    H119524   8.117   2.070   6.097
 6527TIP3    H219525   8.211   1.973   6.028
 6528TIP3   OH219526   5.527   7.479   1.014
 6528TIP3    H119527   5.509   7.388   1.035
 6528TIP3    H219528   5.448   7.510   0.969
 6529TIP3   OH219529   6.291   0.602   1.458
 6529TIP3    H119530   6.207   0.556   1.463
 6529TIP3    H219531   6.274   0.687   1.499
 6530TIP3   OH219532   1.241   5.895   5.530
 6530TIP3    H119533   1.207   5.964   5.587
 6530TIP3    H219534   1.256   5.821   5.589
 6531TIP3   OH219535   5.502   5.460   2.233
 6531TIP3    H119536   5.538   5.392   2.290
 6531TIP3    H219537   5.568   5.529   2.233
 6532TIP3   OH219538   0.549   4.768   2.125
 6532TIP3    H119539   0.511   4.852   2.149
 6532TIP3    H219540   0.558   4.773   2.029
 6533TIP3   OH219541   3.805   1.989   2.945
 6533TIP3    H119542   3.769   1.946   3.023
 6533TIP3    H219543   3.842   2.070   2.978
 6534TIP3   OH219544   2.951   6.843   4.104
 6534TIP3    H119545   2.899   6.769   4.073
 6534TIP3    H219546   3.008   6.865   4.030
 6535TIP3   OH219547   3.396   4.073   1.470
 6535TIP3    H119548   3.325   4.129   1.501
 6535TIP3    H219549   3.475   4.124   1.485
 6536TIP3   OH219550   1.059   5.299   0.805
 6536TIP3    H119551   1.106   5.382   0.795
 6536TIP3    H219552   0.989   5.303   0.740
 6537TIP3   OH219553   0.966   2.968   2.869
 6537TIP3    H119554   0.984   2.874   2.871
 6537TIP3    H219555   1.006   2.999   2.787
 6538TIP3   OH219556   2.518   2.078   2.978
 6538TIP3    H119557   2.584   2.115   2.919
 6538TIP3    H219558   2.487   2.153   3.029
 6539TIP3   OH219559   1.355   3.365   0.443
 6539TIP3    H119560   1.411   3.433   0.480
 6539TIP3    H219561   1.411   3.321   0.379
 6540TIP3   OH219562   0.515   6.931   2.959
 6540TIP3    H119563   0.457   6.964   2.890
 6540TIP3    H219564   0.496   6.837   2.962
 6541TIP3   OH219565   7.067   0.552   4.670
 6541TIP3    H119566   7.094   0.494   4.599
 6541TIP3    H219567   7.108   0.636   4.649
 6542TIP3   OH219568   3.804   4.931   0.705
 6542TIP3    H119569   3.804   4.967   0.617
 6542TIP3    H219570   3.720   4.956   0.742
 6543TIP3   OH219571   7.824   0.309   5.038
 6543TIP3    H119572   7.908   0.276   5.006
 6543TIP3    H219573   7.793   0.365   4.966
 6544TIP3   OH219574   7.771   2.233   2.645
 6544TIP3    H119575   7.777   2.326   2.625
 6544TIP3    H219576   7.688   2.205   2.605
 6545TIP3   OH219577   5.055   4.255   4.429
 6545TIP3    H119578   4.984   4.192   4.425
 6545TIP3    H219579   5.031   4.323   4.366
 6546TIP3   OH219580   1.527   4.665   4.219
 6546TIP3    H119581   1.557   4.754   4.235
 6546TIP3    H219582   1.468   4.646   4.293
 6547TIP3   OH219583   0.690   4.878   4.887
 6547TIP3    H119584   0.749   4.807   4.865
 6547TIP3    H219585   0.699   4.888   4.982
 6548TIP3   OH219586   4.844   2.837   0.814
 6548TIP3    H119587   4.880   2.847   0.902
 6548TIP3    H219588   4.824   2.743   0.807
 6549TIP3   OH219589   6.942   2.837   2.056
 6549TIP3    H119590   6.949   2.877   1.969
 6549TIP3    H219591   7.026   2.856   2.098
 6550TIP3   OH219592   6.081   0.925   4.799
 6550TIP3    H119593   6.083   0.954   4.708
 6550TIP3    H219594   6.062   0.831   4.793
 6551TIP3   OH219595   0.367   1.548   0.360
 6551TIP3    H119596   0.403   1.598   0.434
 6551TIP3    H219597   0.338   1.466   0.399
 6552TIP3   OH219598   1.985   0.651   0.171
 6552TIP3    H119599   1.895   0.666   0.144
 6552TIP3    H219600   1.978   0.602   0.252
 6553TIP3   OH219601   1.047   0.160   2.787
 6553TIP3    H119602   1.035   0.094   2.719
 6553TIP3    H219603   0.961   0.201   2.795
 6554TIP3   OH219604   7.330   2.541   3.457
 6554TIP3    H119605   7.258   2.601   3.437
 6554TIP3    H219606   7.358   2.566   3.546
 6555TIP3   OH219607   8.243   4.810   5.536
 6555TIP3    H119608   8.191   4.738   5.500
 6555TIP3    H219609   8.184   4.853   5.597
 6556TIP3   OH219610   6.235   5.476   0.302
 6556TIP3    H119611   6.296   5.499   0.233
 6556TIP3    H219612   6.290   5.450   0.376
 6557TIP3   OH219613   2.061   6.717   3.729
 6557TIP3    H119614   2.094   6.722   3.818
 6557TIP3    H219615   2.124   6.767   3.677
 6558TIP3   OH219616   4.121   4.050   2.672
 6558TIP3    H119617   4.101   3.960   2.696
 6558TIP3    H219618   4.180   4.042   2.597
 6559TIP3   OH219619   1.539   0.401   2.104
 6559TIP3    H119620   1.451   0.370   2.125
 6559TIP3    H219621   1.535   0.496   2.118
 6560TIP3   OH219622   2.693   3.056   4.466
 6560TIP3    H119623   2.766   3.111   4.436
 6560TIP3    H219624   2.691   2.983   4.403
 6561TIP3   OH219625   5.598   6.870   5.726
 6561TIP3    H119626   5.553   6.855   5.643
 6561TIP3    H219627   5.691   6.871   5.704
 6562TIP3   OH219628   4.988   0.493   1.255
 6562TIP3    H119629   5.062   0.442   1.289
 6562TIP3    H219630   4.925   0.494   1.327
 6563TIP3   OH219631   6.499   6.076   3.571
 6563TIP3    H119632   6.491   6.169   3.548
 6563TIP3    H219633   6.594   6.061   3.577
 6564TIP3   OH219634   1.828   3.259   6.648
 6564TIP3    H119635   1.752   3.251   6.590
 6564TIP3    H219636   1.854   3.351   6.640
 6565TIP3   OH219637   5.855   5.988   5.670
 6565TIP3    H119638   5.938   6.031   5.649
 6565TIP3    H219639   5.865   5.900   5.633
 6566TIP3   OH219640   6.722   5.222   2.456
 6566TIP3    H119641   6.655   5.158   2.430
 6566TIP3    H219642   6.803   5.189   2.416
 6567TIP3   OH219643   5.805   6.904   3.840
 6567TIP3    H119644   5.741   6.874   3.776
 6567TIP3    H219645   5.849   6.823   3.869
 6568TIP3   OH219646   0.559   4.629   2.697
 6568TIP3    H119647   0.617   4.698   2.731
 6568TIP3    H219648   0.474   4.672   2.688
 6569TIP3   OH219649   2.509   7.159   5.611
 6569TIP3    H119650   2.458   7.106   5.672
 6569TIP3    H219651   2.445   7.211   5.563
 6570TIP3   OH219652   0.100   0.038   1.312
 6570TIP3    H119653   0.032   0.003   1.255
 6570TIP3    H219654   0.077   0.130   1.322
 6571TIP3   OH219655   3.044   6.555   0.373
 6571TIP3    H119656   3.074   6.469   0.342
 6571TIP3    H219657   3.017   6.540   0.464
 6572TIP3   OH219658   3.917   0.607   4.364
 6572TIP3    H119659   3.924   0.557   4.282
 6572TIP3    H219660   4.005   0.639   4.381
 6573TIP3   OH219661   6.749   2.324   6.387
 6573TIP3    H119662   6.784   2.412   6.402
 6573TIP3    H219663   6.656   2.332   6.409
 6574TIP3   OH219664   0.617   6.443   2.089
 6574TIP3    H119665   0.613   6.492   2.007
 6574TIP3    H219666   0.705   6.460   2.123
 6575TIP3   OH219667   0.138   3.190   3.804
 6575TIP3    H119668   0.176   3.105   3.825
 6575TIP3    H219669   0.126   3.188   3.709
 6576TIP3   OH219670   0.368   4.103   6.283
 6576TIP3    H119671   0.424   4.034   6.318
 6576TIP3    H219672   0.308   4.125   6.354
 6577TIP3   OH219673   6.424   2.337   1.279
 6577TIP3    H119674   6.432   2.432   1.291
 6577TIP3    H219675   6.331   2.323   1.265
 6578TIP3   OH219676   6.512   7.377   4.476
 6578TIP3    H119677   6.427   7.342   4.504
 6578TIP3    H219678   6.574   7.306   4.489
 6579TIP3   OH219679   6.723   2.444   1.032
 6579TIP3    H119680   6.801   2.389   1.031
 6579TIP3    H219681   6.664   2.402   0.969
 6580TIP3   OH219682   2.664   2.827   3.796
 6580TIP3    H119683   2.650   2.784   3.880
 6580TIP3    H219684   2.736   2.778   3.756
 6581TIP3   OH219685   4.721   4.868   5.398
 6581TIP3    H119686   4.746   4.907   5.314
 6581TIP3    H219687   4.670   4.935   5.442
 6582TIP3   OH219688   7.401   5.055   4.388
 6582TIP3    H119689   7.428   5.029   4.301
 6582TIP3    H219690   7.311   5.086   4.377
 6583TIP3   OH219691   4.916   5.893   1.000
 6583TIP3    H119692   4.988   5.915   1.059
 6583TIP3    H219693   4.911   5.797   1.004
 6584TIP3   OH219694   7.919   3.870   5.192
 6584TIP3    H119695   7.839   3.862   5.245
 6584TIP3    H219696   7.909   3.804   5.124
 6585TIP3   OH219697   0.145   1.503   3.275
 6585TIP3    H119698   0.224   1.557   3.276
 6585TIP3    H219699   0.077   1.558   3.314
 6586TIP3   OH219700   6.124   6.178   6.680
 6586TIP3    H119701   6.201   6.205   6.629
 6586TIP3    H219702   6.116   6.085   6.663
 6587TIP3   OH219703   4.756   1.266   6.452
 6587TIP3    H119704   4.734   1.336   6.391
 6587TIP3    H219705   4.678   1.211   6.456
 6588TIP3   OH219706   3.537   4.336   5.852
 6588TIP3    H119707   3.548   4.273   5.781
 6588TIP3    H219708   3.468   4.299   5.907
 6589TIP3   OH219709   4.766   3.248   0.324
 6589TIP3    H119710   4.676   3.221   0.341
 6589TIP3    H219711   4.766   3.342   0.344
 6590TIP3   OH219712   3.175   0.457   6.252
 6590TIP3    H119713   3.153   0.543   6.217
 6590TIP3    H219714   3.090   0.420   6.279
 6591TIP3   OH219715   6.585   6.387   1.076
 6591TIP3    H119716   6.562   6.372   0.985
 6591TIP3    H219717   6.560   6.479   1.092
 6592TIP3   OH219718   4.700   4.873   0.077
 6592TIP3    H119719   4.689   4.831  -0.009
 6592TIP3    H219720   4.685   4.803   0.140
 6593TIP3   OH219721   5.185   6.743   2.032
 6593TIP3    H119722   5.134   6.663   2.047
 6593TIP3    H219723   5.121   6.813   2.028
 6594TIP3   OH219724   7.346   1.772   0.862
 6594TIP3    H119725   7.431   1.734   0.885
 6594TIP3    H219726   7.334   1.843   0.925
 6595TIP3   OH219727   4.228   1.955   2.177
 6595TIP3    H119728   4.231   1.980   2.085
 6595TIP3    H219729   4.306   1.901   2.190
 6596TIP3   OH219730   1.682   5.563   1.325
 6596TIP3    H119731   1.654   5.484   1.280
 6596TIP3    H219732   1.635   5.562   1.408
 6597TIP3   OH219733   1.702   6.612   2.637
 6597TIP3    H119734   1.623   6.572   2.674
 6597TIP3    H219735   1.686   6.707   2.643
 6598TIP3   OH219736   3.541   1.115   3.720
 6598TIP3    H119737   3.546   1.124   3.815
 6598TIP3    H219738   3.533   1.021   3.705
 6599TIP3   OH219739   6.047   3.283   6.273
 6599TIP3    H119740   6.043   3.350   6.205
 6599TIP3    H219741   6.137   3.250   6.269
 6600TIP3   OH219742   3.613   1.926   2.333
 6600TIP3    H119743   3.594   2.012   2.295
 6600TIP3    H219744   3.600   1.937   2.427
 6601TIP3   OH219745   8.258   0.734   0.379
 6601TIP3    H119746   8.236   0.823   0.354
 6601TIP3    H219747   8.354   0.733   0.384
 6602TIP3   OH219748   4.786   5.181   2.707
 6602TIP3    H119749   4.742   5.235   2.773
 6602TIP3    H219750   4.758   5.092   2.728
 6603TIP3   OH219751   1.475   2.156   6.612
 6603TIP3    H119752   1.484   2.223   6.544
 6603TIP3    H219753   1.537   2.182   6.680
 6604TIP3   OH219754   5.256   1.960   5.533
 6604TIP3    H119755   5.274   2.040   5.483
 6604TIP3    H219756   5.314   1.894   5.495
 6605TIP3   OH219757   7.958   3.897   6.742
 6605TIP3    H119758   8.053   3.888   6.736
 6605TIP3    H219759   7.945   3.965   6.808
 6606TIP3   OH219760   8.102   5.692   6.676
 6606TIP3    H119761   8.170   5.625   6.688
 6606TIP3    H219762   8.148   5.766   6.637
 6607TIP3   OH219763   5.798   3.441   2.254
 6607TIP3    H119764   5.841   3.512   2.206
 6607TIP3    H219765   5.753   3.484   2.326
 6608TIP3   OH219766   2.719   0.374   4.501
 6608TIP3    H119767   2.774   0.310   4.547
 6608TIP3    H219768   2.773   0.453   4.496
 6609TIP3   OH219769   7.494   6.847   4.635
 6609TIP3    H119770   7.465   6.794   4.709
 6609TIP3    H219771   7.520   6.931   4.675
 6610TIP3   OH219772   5.657   3.149   2.751
 6610TIP3    H119773   5.626   3.205   2.680
 6610TIP3    H219774   5.656   3.205   2.828
 6611TIP3   OH219775   3.367   6.416   0.407
 6611TIP3    H119776   3.394   6.329   0.377
 6611TIP3    H219777   3.446   6.454   0.445
 6612TIP3   OH219778   5.098   3.000   2.945
 6612TIP3    H119779   5.147   2.949   2.880
 6612TIP3    H219780   5.055   3.069   2.894
 6613TIP3   OH219781   5.621   0.112   3.105
 6613TIP3    H119782   5.616   0.152   3.018
 6613TIP3    H219783   5.615   0.186   3.166
 6614TIP3   OH219784   0.646   7.761   4.072
 6614TIP3    H119785   0.588   7.760   4.148
 6614TIP3    H219786   0.630   7.677   4.028
 6615TIP3   OH219787   0.079   5.927   2.784
 6615TIP3    H119788   0.148   5.970   2.836
 6615TIP3    H219789   0.084   5.835   2.809
 6616TIP3   OH219790   4.170   7.657   2.050
 6616TIP3    H119791   4.233   7.630   2.116
 6616TIP3    H219792   4.217   7.649   1.967
 6617TIP3   OH219793   7.261   0.724   4.534
 6617TIP3    H119794   7.301   0.804   4.500
 6617TIP3    H219795   7.189   0.706   4.474
 6618TIP3   OH219796   4.211   0.278   4.516
 6618TIP3    H119797   4.139   0.216   4.522
 6618TIP3    H219798   4.184   0.341   4.449
 6619TIP3   OH219799   6.031   0.131   1.194
 6619TIP3    H119800   6.067   0.075   1.125
 6619TIP3    H219801   6.105   0.185   1.222
 6620TIP3   OH219802   4.603   5.955   1.880
 6620TIP3    H119803   4.525   5.942   1.934
 6620TIP3    H219804   4.626   5.867   1.850
 6621TIP3   OH219805   0.313   5.394   0.641
 6621TIP3    H119806   0.346   5.386   0.731
 6621TIP3    H219807   0.315   5.487   0.623
 6622TIP3   OH219808   2.308   4.896   0.797
 6622TIP3    H119809   2.368   4.832   0.760
 6622TIP3    H219810   2.320   4.975   0.744
 6623TIP3   OH219811   2.392   1.548   5.030
 6623TIP3    H119812   2.369   1.522   5.119
 6623TIP3    H219813   2.310   1.584   4.995
 6624TIP3   OH219814   0.008   4.052   2.058
 6624TIP3    H119815  -0.045   4.126   2.089
 6624TIP3    H219816   0.098   4.085   2.057
 6625TIP3   OH219817   8.013   0.503   6.406
 6625TIP3    H119818   8.053   0.573   6.355
 6625TIP3    H219819   8.043   0.519   6.496
 6626TIP3   OH219820   5.510   3.973   3.565
 6626TIP3    H119821   5.486   3.978   3.473
 6626TIP3    H219822   5.463   3.896   3.598
 6627TIP3   OH219823   0.064   2.881   0.872
 6627TIP3    H119824   0.003   2.906   0.802
 6627TIP3    H219825   0.148   2.920   0.846
 6628TIP3   OH219826   3.217   3.910   4.976
 6628TIP3    H119827   3.131   3.877   5.002
 6628TIP3    H219828   3.259   3.836   4.931
 6629TIP3   OH219829   4.212   4.430   0.405
 6629TIP3    H119830   4.296   4.473   0.423
 6629TIP3    H219831   4.151   4.502   0.391
 6630TIP3   OH219832   2.912   6.845   5.627
 6630TIP3    H119833   2.881   6.935   5.616
 6630TIP3    H219834   2.833   6.795   5.646
 6631TIP3   OH219835   8.148   4.454   0.248
 6631TIP3    H119836   8.196   4.513   0.189
 6631TIP3    H219837   8.158   4.494   0.334
 6632TIP3   OH219838   3.867   3.400   0.893
 6632TIP3    H119839   3.879   3.310   0.922
 6632TIP3    H219840   3.922   3.452   0.952
 6633TIP3   OH219841   3.381   3.577   6.806
 6633TIP3    H119842   3.327   3.656   6.797
 6633TIP3    H219843   3.468   3.611   6.830
 6634TIP3   OH219844   2.653   6.213   6.767
 6634TIP3    H119845   2.676   6.237   6.857
 6634TIP3    H219846   2.688   6.284   6.713
 6635TIP3   OH219847   2.264   6.547   4.761
 6635TIP3    H119848   2.268   6.480   4.693
 6635TIP3    H219849   2.203   6.512   4.826
 6636TIP3   OH219850   2.941   7.575   2.190
 6636TIP3    H119851   2.888   7.639   2.143
 6636TIP3    H219852   3.032   7.601   2.173
 6637TIP3   OH219853   2.307   1.707   2.251
 6637TIP3    H119854   2.376   1.671   2.195
 6637TIP3    H219855   2.245   1.635   2.262
 6638TIP3   OH219856   3.508   0.085   4.440
 6638TIP3    H119857   3.514   0.181   4.445
 6638TIP3    H219858   3.417   0.068   4.415
 6639TIP3   OH219859   1.130   2.787   5.184
 6639TIP3    H119860   1.136   2.691   5.188
 6639TIP3    H219861   1.037   2.804   5.168
 6640TIP3   OH219862   4.484   1.819   4.605
 6640TIP3    H119863   4.474   1.806   4.699
 6640TIP3    H219864   4.576   1.841   4.593
 6641TIP3   OH219865   6.009   2.893   6.537
 6641TIP3    H119866   6.063   2.894   6.458
 6641TIP3    H219867   6.062   2.937   6.604
 6642TIP3   OH219868   5.331   7.271   3.138
 6642TIP3    H119869   5.349   7.229   3.054
 6642TIP3    H219870   5.255   7.328   3.121
 6643TIP3   OH219871   5.093   0.954   3.828
 6643TIP3    H119872   5.006   0.983   3.853
 6643TIP3    H219873   5.098   0.968   3.733
 6644TIP3   OH219874   4.572   6.517   5.734
 6644TIP3    H119875   4.554   6.424   5.725
 6644TIP3    H219876   4.547   6.555   5.649
 6645TIP3   OH219877   7.226   0.201   1.075
 6645TIP3    H119878   7.248   0.294   1.067
 6645TIP3    H219879   7.308   0.155   1.055
 6646TIP3   OH219880   2.932   3.471   3.886
 6646TIP3    H119881   2.973   3.385   3.886
 6646TIP3    H219882   2.839   3.453   3.897
 6647TIP3   OH219883   5.870   0.636   2.337
 6647TIP3    H119884   5.927   0.563   2.312
 6647TIP3    H219885   5.783   0.610   2.306
 6648TIP3   OH219886   5.852   1.897   2.538
 6648TIP3    H119887   5.910   1.877   2.465
 6648TIP3    H219888   5.780   1.834   2.530
 6649TIP3   OH219889   2.532   3.460   2.843
 6649TIP3    H119890   2.532   3.514   2.922
 6649TIP3    H219891   2.562   3.374   2.873
 6650TIP3   OH219892   3.691   5.933   0.465
 6650TIP3    H119893   3.641   5.990   0.523
 6650TIP3    H219894   3.701   5.984   0.384
 6651TIP3   OH219895   2.870   1.001   0.828
 6651TIP3    H119896   2.889   1.087   0.789
 6651TIP3    H219897   2.844   0.946   0.754
 6652TIP3   OH219898   1.983   0.977   6.499
 6652TIP3    H119899   2.077   0.962   6.507
 6652TIP3    H219900   1.942   0.895   6.525
 6653TIP3   OH219901   2.753   5.254   5.713
 6653TIP3    H119902   2.675   5.227   5.664
 6653TIP3    H219903   2.719   5.286   5.797
 6654TIP3   OH219904   1.561   7.175   4.126
 6654TIP3    H119905   1.489   7.196   4.185
 6654TIP3    H219906   1.634   7.153   4.184
 6655TIP3   OH219907   7.870   0.691   4.684
 6655TIP3    H119908   7.899   0.717   4.597
 6655TIP3    H219909   7.775   0.688   4.678
 6656TIP3   OH219910   1.722   5.637   6.136
 6656TIP3    H119911   1.655   5.699   6.166
 6656TIP3    H219912   1.777   5.622   6.213
 6657TIP3   OH219913   1.683   0.219  -0.024
 6657TIP3    H119914   1.695   0.126  -0.002
 6657TIP3    H219915   1.698   0.265   0.058
 6658TIP3   OH219916   1.809   0.090   0.976
 6658TIP3    H119917   1.846   0.173   0.947
 6658TIP3    H219918   1.716   0.109   0.990
 6659TIP3   OH219919   8.134   5.508   2.929
 6659TIP3    H119920   8.187   5.538   2.855
 6659TIP3    H219921   8.163   5.418   2.944
 6660TIP3   OH219922   5.366   4.585   1.525
 6660TIP3    H119923   5.455   4.620   1.514
 6660TIP3    H219924   5.379   4.500   1.567
 6661TIP3   OH219925   4.608   1.998   4.933
 6661TIP3    H119926   4.580   1.907   4.946
 6661TIP3    H219927   4.703   1.993   4.924
 6662TIP3   OH219928   1.327   6.062   3.993
 6662TIP3    H119929   1.389   5.989   4.000
 6662TIP3    H219930   1.311   6.089   4.083
 6663TIP3   OH219931   0.173   3.252   2.885
 6663TIP3    H119932   0.226   3.226   2.809
 6663TIP3    H219933   0.235   3.295   2.943
 6664TIP3   OH219934   4.975   6.500   0.388
 6664TIP3    H119935   5.015   6.484   0.302
 6664TIP3    H219936   5.041   6.552   0.435
 6665TIP3   OH219937   0.163   5.231   0.888
 6665TIP3    H119938   0.214   5.311   0.873
 6665TIP3    H219939   0.154   5.225   0.983
 6666TIP3   OH219940   2.710   1.880   4.852
 6666TIP3    H119941   2.635   1.828   4.823
 6666TIP3    H219942   2.671   1.959   4.891
 6667TIP3   OH219943   8.115   4.302   2.478
 6667TIP3    H119944   8.031   4.340   2.505
 6667TIP3    H219945   8.110   4.211   2.504
 6668TIP3   OH219946   4.357   7.542   3.938
 6668TIP3    H119947   4.439   7.495   3.928
 6668TIP3    H219948   4.316   7.503   4.016
 6669TIP3   OH219949   5.394   0.049   5.876
 6669TIP3    H119950   5.413   0.140   5.851
 6669TIP3    H219951   5.326   0.021   5.815
 6670TIP3   OH219952   0.722   7.373   0.380
 6670TIP3    H119953   0.796   7.324   0.343
 6670TIP3    H219954   0.763   7.439   0.436
 6671TIP3   OH219955   1.070   7.423   1.696
 6671TIP3    H119956   1.093   7.359   1.629
 6671TIP3    H219957   1.015   7.374   1.757
 6672TIP3   OH219958   1.670   0.579   4.559
 6672TIP3    H119959   1.583   0.619   4.563
 6672TIP3    H219960   1.721   0.636   4.502
 6673TIP3   OH219961   0.891   4.504   6.596
 6673TIP3    H119962   0.827   4.532   6.662
 6673TIP3    H219963   0.877   4.410   6.587
 6674TIP3   OH219964   2.222   4.547   4.860
 6674TIP3    H119965   2.310   4.583   4.863
 6674TIP3    H219966   2.212   4.501   4.944
 6675TIP3   OH219967   2.647   4.229   1.443
 6675TIP3    H119968   2.597   4.235   1.362
 6675TIP3    H219969   2.673   4.137   1.449
 6676TIP3   OH219970   0.276   4.415   5.675
 6676TIP3    H119971   0.296   4.502   5.710
 6676TIP3    H219972   0.351   4.361   5.700
 6677TIP3   OH219973   1.480   7.019   5.450
 6677TIP3    H119974   1.534   6.942   5.434
 6677TIP3    H219975   1.542   7.091   5.456
 6678TIP3   OH219976   2.180   4.262   3.429
 6678TIP3    H119977   2.089   4.278   3.405
 6678TIP3    H219978   2.230   4.296   3.354
 6679TIP3   OH219979   1.941   7.590   5.403
 6679TIP3    H119980   1.967   7.643   5.478
 6679TIP3    H219981   2.004   7.613   5.335
 6680TIP3   OH219982   0.813   1.975   0.326
 6680TIP3    H119983   0.764   1.985   0.244
 6680TIP3    H219984   0.832   2.065   0.354
 6681TIP3   OH219985   6.875   2.552   3.425
 6681TIP3    H119986   6.890   2.645   3.407
 6681TIP3    H219987   6.947   2.527   3.483
 6682TIP3   OH219988   0.947   6.448   1.773
 6682TIP3    H119989   1.032   6.438   1.730
 6682TIP3    H219990   0.896   6.372   1.745
 6683TIP3   OH219991   2.647   4.792   6.413
 6683TIP3    H119992   2.711   4.844   6.461
 6683TIP3    H219993   2.672   4.802   6.321
 6684TIP3   OH219994   5.525   3.959   5.406
 6684TIP3    H119995   5.592   3.998   5.348
 6684TIP3    H219996   5.562   3.875   5.432
 6685TIP3   OH219997   2.037   5.669   3.746
 6685TIP3    H119998   2.122   5.689   3.706
 6685TIP3    H219999   1.996   5.607   3.685
 6686TIP3   OH220000   7.765   1.117   1.031
 6686TIP3    H120001   7.774   1.136   0.938
 6686TIP3    H220002   7.675   1.145   1.053
 6687TIP3   OH220003   3.331   4.478   0.154
 6687TIP3    H120004   3.361   4.398   0.112
 6687TIP3    H220005   3.343   4.462   0.248
 6688TIP3   OH220006   1.604   2.213   2.964
 6688TIP3    H120007   1.576   2.302   2.944
 6688TIP3    H220008   1.576   2.198   3.054
 6689TIP3   OH220009   5.889   1.839   4.275
 6689TIP3    H120010   5.954   1.832   4.205
 6689TIP3    H220011   5.873   1.748   4.302
 6690TIP3   OH220012   2.083   5.545   6.123
 6690TIP3    H120013   2.039   5.565   6.041
 6690TIP3    H220014   2.131   5.625   6.145
 6691TIP3   OH220015   7.411   2.598   0.442
 6691TIP3    H120016   7.364   2.668   0.486
 6691TIP3    H220017   7.354   2.521   0.451
 6692TIP3   OH220018   1.796   0.681   5.921
 6692TIP3    H120019   1.823   0.704   6.010
 6692TIP3    H220020   1.877   0.652   5.879
 6693TIP3   OH220021   1.358   7.354   5.087
 6693TIP3    H120022   1.438   7.403   5.108
 6693TIP3    H220023   1.314   7.343   5.171
 6694TIP3   OH220024   3.436   6.621   5.874
 6694TIP3    H120025   3.433   6.557   5.802
 6694TIP3    H220026   3.375   6.587   5.938
 6695TIP3   OH220027   7.199   1.337   5.978
 6695TIP3    H120028   7.115   1.378   5.959
 6695TIP3    H220029   7.180   1.276   6.049
 6696TIP3   OH220030   4.560   1.987   5.239
 6696TIP3    H120031   4.576   1.993   5.145
 6696TIP3    H220032   4.634   1.936   5.272
 6697TIP3   OH220033   3.189   1.980   1.749
 6697TIP3    H120034   3.106   1.987   1.701
 6697TIP3    H220035   3.222   1.893   1.726
 6698TIP3   OH220036   6.691   3.194   6.445
 6698TIP3    H120037   6.596   3.204   6.452
 6698TIP3    H220038   6.724   3.284   6.443
 6699TIP3   OH220039   7.572   6.314   6.464
 6699TIP3    H120040   7.660   6.287   6.436
 6699TIP3    H220041   7.583   6.405   6.490
 6700TIP3   OH220042   2.816   5.416   5.417
 6700TIP3    H120043   2.894   5.370   5.387
 6700TIP3    H220044   2.743   5.369   5.376
 6701TIP3   OH220045   4.942   4.241   0.425
 6701TIP3    H120046   5.015   4.291   0.388
 6701TIP3    H220047   4.983   4.168   0.471
 6702TIP3   OH220048   4.485   6.567   1.724
 6702TIP3    H120049   4.565   6.588   1.676
 6702TIP3    H220050   4.415   6.606   1.672
 6703TIP3   OH220051   8.143   1.691   0.196
 6703TIP3    H120052   8.068   1.748   0.212
 6703TIP3    H220053   8.202   1.744   0.143
 6704TIP3   OH220054   3.534   1.021   5.636
 6704TIP3    H120055   3.622   0.997   5.605
 6704TIP3    H220056   3.549   1.071   5.716
 6705TIP3   OH220057   3.309   6.728   0.438
 6705TIP3    H120058   3.327   6.634   0.432
 6705TIP3    H220059   3.362   6.767   0.369
 6706TIP3   OH220060   3.453   1.271   0.791
 6706TIP3    H120061   3.488   1.233   0.710
 6706TIP3    H220062   3.358   1.254   0.785
 6707TIP3   OH220063   6.900   3.355   2.786
 6707TIP3    H120064   6.973   3.304   2.751
 6707TIP3    H220065   6.930   3.383   2.872
 6708TIP3   OH220066   4.321   5.035   1.630
 6708TIP3    H120067   4.250   5.083   1.673
 6708TIP3    H220068   4.398   5.051   1.684
 6709TIP3   OH220069   6.897   6.024   2.986
 6709TIP3    H120070   6.905   6.119   2.998
 6709TIP3    H220071   6.823   6.000   3.041
 6710TIP3   OH220072   2.380   6.239   5.498
 6710TIP3    H120073   2.353   6.304   5.563
 6710TIP3    H220074   2.316   6.169   5.506
 6711TIP3   OH220075   7.164   2.783   3.563
 6711TIP3    H120076   7.173   2.829   3.647
 6711TIP3    H220077   7.100   2.714   3.581
 6712TIP3   OH220078   1.269   7.316   2.734
 6712TIP3    H120079   1.233   7.334   2.820
 6712TIP3    H220080   1.201   7.269   2.687
 6713TIP3   OH220081   8.219   1.535   4.787
 6713TIP3    H120082   8.174   1.479   4.724
 6713TIP3    H220083   8.148   1.578   4.835
 6714TIP3   OH220084   5.963   6.328   3.169
 6714TIP3    H120085   5.891   6.381   3.136
 6714TIP3    H220086   6.024   6.391   3.207
 6715TIP3   OH220087   5.420   3.690   6.181
 6715TIP3    H120088   5.354   3.681   6.250
 6715TIP3    H220089   5.385   3.759   6.123
 6716TIP3   OH220090   1.844   7.697   3.002
 6716TIP3    H120091   1.767   7.727   2.954
 6716TIP3    H220092   1.899   7.775   3.010
 6717TIP3   OH220093   6.205   7.449   4.055
 6717TIP3    H120094   6.207   7.541   4.029
 6717TIP3    H220095   6.165   7.450   4.142
 6718TIP3   OH220096   6.669   6.144   5.273
 6718TIP3    H120097   6.605   6.116   5.338
 6718TIP3    H220098   6.717   6.064   5.250
 6719TIP3   OH220099   3.023   5.070   4.739
 6719TIP3    H120100   2.956   5.017   4.782
 6719TIP3    H220101   3.085   5.006   4.703
 6720TIP3   OH220102   0.693   7.779   4.836
 6720TIP3    H120103   0.647   7.710   4.883
 6720TIP3    H220104   0.655   7.860   4.869
 6721TIP3   OH220105   0.802   5.936   0.145
 6721TIP3    H120106   0.759   5.860   0.106
 6721TIP3    H220107   0.871   5.898   0.199
 6722TIP3   OH220108   1.371   7.823   5.587
 6722TIP3    H120109   1.386   7.883   5.514
 6722TIP3    H220110   1.398   7.737   5.553
 6723TIP3   OH220111   4.801   5.965   1.272
 6723TIP3    H120112   4.726   5.990   1.326
 6723TIP3    H220113   4.792   5.871   1.261
 6724TIP3   OH220114   2.964   2.315   2.005
 6724TIP3    H120115   3.046   2.361   2.021
 6724TIP3    H220116   2.896   2.378   2.024
 6725TIP3   OH220117   7.222   1.143   3.555
 6725TIP3    H120118   7.278   1.112   3.483
 6725TIP3    H220119   7.146   1.181   3.510
 6726TIP3   OH220120   6.637   5.169   6.098
 6726TIP3    H120121   6.583   5.122   6.162
 6726TIP3    H220122   6.711   5.110   6.082
 6727TIP3   OH220123   2.101   6.215   5.703
 6727TIP3    H120124   2.131   6.133   5.664
 6727TIP3    H220125   2.098   6.197   5.797
 6728TIP3   OH220126   6.741   0.353   3.279
 6728TIP3    H120127   6.799   0.350   3.355
 6728TIP3    H220128   6.800   0.350   3.204
 6729TIP3   OH220129   5.068   6.629   1.319
 6729TIP3    H120130   5.065   6.721   1.344
 6729TIP3    H220131   4.996   6.618   1.257
 6730TIP3   OH220132   5.437   6.793   4.266
 6730TIP3    H120133   5.364   6.744   4.229
 6730TIP3    H220134   5.515   6.743   4.239
 6731TIP3   OH220135   6.331   3.313   1.142
 6731TIP3    H120136   6.301   3.225   1.162
 6731TIP3    H220137   6.291   3.368   1.210
 6732TIP3   OH220138   3.700   2.575   5.163
 6732TIP3    H120139   3.773   2.545   5.110
 6732TIP3    H220140   3.649   2.631   5.105
 6733TIP3   OH220141   3.329   7.415   3.830
 6733TIP3    H120142   3.320   7.474   3.756
 6733TIP3    H220143   3.424   7.401   3.839
 6734TIP3   OH220144   2.622   5.105   0.801
 6734TIP3    H120145   2.614   5.035   0.735
 6734TIP3    H220146   2.655   5.180   0.751
 6735TIP3   OH220147   5.610   6.935   4.909
 6735TIP3    H120148   5.569   6.965   4.990
 6735TIP3    H220149   5.587   7.002   4.844
 6736TIP3   OH220150   1.544   1.702   2.393
 6736TIP3    H120151   1.454   1.708   2.359
 6736TIP3    H220152   1.599   1.704   2.315
 6737TIP3   OH220153   4.993   0.009   1.771
 6737TIP3    H120154   5.042   0.080   1.815
 6737TIP3    H220155   4.969  -0.050   1.842
 6738TIP3   OH220156   2.048   3.379   3.324
 6738TIP3    H120157   1.956   3.355   3.318
 6738TIP3    H220158   2.087   3.310   3.378
 6739TIP3   OH220159   6.067   1.169   6.506
 6739TIP3    H120160   6.162   1.166   6.500
 6739TIP3    H220161   6.037   1.141   6.419
 6740TIP3   OH220162   1.932   0.684   3.951
 6740TIP3    H120163   1.861   0.663   3.890
 6740TIP3    H220164   2.002   0.623   3.929
 6741TIP3   OH220165   4.229   6.476   4.834
 6741TIP3    H120166   4.279   6.398   4.860
 6741TIP3    H220167   4.147   6.468   4.882
 6742TIP3   OH220168   0.308   2.160   2.646
 6742TIP3    H120169   0.255   2.080   2.641
 6742TIP3    H220170   0.375   2.149   2.578
 6743TIP3   OH220171   7.081   6.253   1.128
 6743TIP3    H120172   6.990   6.248   1.156
 6743TIP3    H220173   7.124   6.180   1.171
 6744TIP3   OH220174   5.818   5.239   2.836
 6744TIP3    H120175   5.817   5.334   2.838
 6744TIP3    H220176   5.856   5.217   2.750
 6745TIP3   OH220177   3.819   6.748   6.376
 6745TIP3    H120178   3.742   6.692   6.367
 6745TIP3    H220179   3.886   6.706   6.322
 6746TIP3   OH220180   5.302   0.130   1.657
 6746TIP3    H120181   5.230   0.182   1.692
 6746TIP3    H220182   5.264   0.044   1.639
 6747TIP3   OH220183   2.556   2.793   6.338
 6747TIP3    H120184   2.468   2.825   6.319
 6747TIP3    H220185   2.592   2.768   6.253
 6748TIP3   OH220186   2.485   2.549   1.226
 6748TIP3    H120187   2.397   2.555   1.264
 6748TIP3    H220188   2.532   2.489   1.285
 6749TIP3   OH220189   4.693   7.357   6.391
 6749TIP3    H120190   4.635   7.283   6.369
 6749TIP3    H220191   4.780   7.318   6.400
 6750TIP3   OH220192   5.831   4.538   3.250
 6750TIP3    H120193   5.822   4.598   3.323
 6750TIP3    H220194   5.868   4.591   3.179
 6751TIP3   OH220195   6.294   3.059   1.271
 6751TIP3    H120196   6.298   2.987   1.208
 6751TIP3    H220197   6.244   3.024   1.345
 6752TIP3   OH220198   0.652   6.348   3.201
 6752TIP3    H120199   0.726   6.300   3.164
 6752TIP3    H220200   0.633   6.305   3.284
 6753TIP3   OH220201   6.306   3.459   1.389
 6753TIP3    H120202   6.278   3.401   1.459
 6753TIP3    H220203   6.389   3.497   1.420
 6754TIP3   OH220204   0.838   0.234   4.906
 6754TIP3    H120205   0.913   0.293   4.893
 6754TIP3    H220206   0.765   0.293   4.926
 6755TIP3   OH220207   4.056  -0.015   4.555
 6755TIP3    H120208   4.072  -0.008   4.649
 6755TIP3    H220209   4.117  -0.083   4.525
 6756TIP3   OH220210   4.999   3.192   2.783
 6756TIP3    H120211   5.073   3.203   2.722
 6756TIP3    H220212   4.922   3.216   2.731
 6757TIP3   OH220213   4.846   3.902   4.604
 6757TIP3    H120214   4.931   3.931   4.637
 6757TIP3    H220215   4.783   3.926   4.673
 6758TIP3   OH220216   1.237   7.349   5.349
 6758TIP3    H120217   1.233   7.351   5.444
 6758TIP3    H220218   1.147   7.333   5.321
 6759TIP3   OH220219   7.254   0.108   1.541
 6759TIP3    H120220   7.226   0.199   1.552
 6759TIP3    H220221   7.336   0.102   1.590
 6760TIP3   OH220222   0.978   7.045   5.577
 6760TIP3    H120223   1.015   7.006   5.656
 6760TIP3    H220224   0.920   7.114   5.609
 6761TIP3   OH220225   1.961   1.892   2.221
 6761TIP3    H120226   1.875   1.853   2.234
 6761TIP3    H220227   1.989   1.863   2.134
 6762TIP3   OH220228   4.279   1.726   2.857
 6762TIP3    H120229   4.244   1.815   2.853
 6762TIP3    H220230   4.326   1.723   2.940
 6763TIP3   OH220231   4.415   1.836   1.310
 6763TIP3    H120232   4.370   1.757   1.339
 6763TIP3    H220233   4.479   1.854   1.379
 6764TIP3   OH220234   1.198   3.478   3.482
 6764TIP3    H120235   1.234   3.389   3.484
 6764TIP3    H220236   1.224   3.515   3.566
 6765TIP3   OH220237   6.912   2.816   3.419
 6765TIP3    H120238   6.939   2.875   3.490
 6765TIP3    H220239   6.859   2.871   3.361
 6766TIP3   OH220240   2.497   0.005   5.339
 6766TIP3    H120241   2.418  -0.041   5.367
 6766TIP3    H220242   2.543   0.027   5.420
 6767TIP3   OH220243   0.515   1.184   4.520
 6767TIP3    H120244   0.563   1.195   4.602
 6767TIP3    H220245   0.455   1.111   4.537
 6768TIP3   OH220246   2.363   1.178   4.072
 6768TIP3    H120247   2.377   1.221   3.987
 6768TIP3    H220248   2.318   1.096   4.049
 6769TIP3   OH220249   4.407   6.564   0.393
 6769TIP3    H120250   4.496   6.599   0.395
 6769TIP3    H220251   4.358   6.625   0.337
 6770TIP3   OH220252   1.133   1.736   1.149
 6770TIP3    H120253   1.193   1.807   1.173
 6770TIP3    H220254   1.188   1.674   1.100
 6771TIP3   OH220255   2.914   4.494   1.501
 6771TIP3    H120256   2.836   4.537   1.534
 6771TIP3    H220257   2.985   4.529   1.554
 6772TIP3   OH220258   3.959   2.022   4.443
 6772TIP3    H120259   4.031   1.996   4.384
 6772TIP3    H220260   3.930   2.107   4.410
 6773TIP3   OH220261   0.016   3.798   1.481
 6773TIP3    H120262   0.027   3.822   1.389
 6773TIP3    H220263   0.102   3.815   1.520
 6774TIP3   OH220264   4.081   6.382   4.540
 6774TIP3    H120265   4.123   6.449   4.486
 6774TIP3    H220266   4.031   6.432   4.605
 6775TIP3   OH220267   3.968   4.813   1.588
 6775TIP3    H120268   4.013   4.877   1.643
 6775TIP3    H220269   3.966   4.852   1.501
 6776TIP3   OH220270   6.759   4.295   6.493
 6776TIP3    H120271   6.804   4.242   6.427
 6776TIP3    H220272   6.712   4.231   6.546
 6777TIP3   OH220273   5.044   6.502   4.200
 6777TIP3    H120274   5.096   6.433   4.240
 6777TIP3    H220275   4.974   6.456   4.153
 6778TIP3   OH220276   3.327   2.636   1.836
 6778TIP3    H120277   3.387   2.562   1.826
 6778TIP3    H220278   3.256   2.618   1.774
 6779TIP3   OH220279   0.162   5.321   5.392
 6779TIP3    H120280   0.137   5.229   5.398
 6779TIP3    H220281   0.235   5.329   5.455
 6780TIP3   OH220282   3.955   5.344   5.945
 6780TIP3    H120283   4.035   5.341   5.894
 6780TIP3    H220284   3.885   5.332   5.881
 6781TIP3   OH220285   1.968   5.907   0.802
 6781TIP3    H120286   1.907   5.940   0.867
 6781TIP3    H220287   2.046   5.882   0.852
 6782TIP3   OH220288   6.563   5.897   0.815
 6782TIP3    H120289   6.512   5.951   0.755
 6782TIP3    H220290   6.653   5.906   0.784
 6783TIP3   OH220291   5.665   5.025   2.353
 6783TIP3    H120292   5.738   5.021   2.291
 6783TIP3    H220293   5.657   5.117   2.375
 6784TIP3   OH220294   4.711   6.721   0.653
 6784TIP3    H120295   4.798   6.761   0.657
 6784TIP3    H220296   4.651   6.795   0.638
 6785TIP3   OH220297   2.899   2.508   3.150
 6785TIP3    H120298   2.817   2.547   3.119
 6785TIP3    H220299   2.949   2.490   3.070
 6786TIP3   OH220300   5.511   6.196   3.900
 6786TIP3    H120301   5.432   6.160   3.942
 6786TIP3    H220302   5.483   6.217   3.811
 6787TIP3   OH220303   6.145   7.756   5.179
 6787TIP3    H120304   6.232   7.717   5.191
 6787TIP3    H220305   6.118   7.783   5.267
 6788TIP3   OH220306   6.130   2.805   1.798
 6788TIP3    H120307   6.069   2.798   1.724
 6788TIP3    H220308   6.087   2.757   1.869
 6789TIP3   OH220309   6.712   1.648   3.645
 6789TIP3    H120310   6.636   1.626   3.592
 6789TIP3    H220311   6.689   1.730   3.689
 6790TIP3   OH220312   2.999   4.474   5.490
 6790TIP3    H120313   3.031   4.540   5.429
 6790TIP3    H220314   2.921   4.438   5.447
 6791TIP3   OH220315   3.919   1.274   2.887
 6791TIP3    H120316   3.973   1.282   2.966
 6791TIP3    H220317   3.857   1.204   2.907
 6792TIP3   OH220318   5.204   2.994   3.709
 6792TIP3    H120319   5.150   3.071   3.688
 6792TIP3    H220320   5.294   3.022   3.691
 6793TIP3   OH220321   2.419   5.563   6.100
 6793TIP3    H120322   2.334   5.598   6.126
 6793TIP3    H220323   2.444   5.614   6.023
 6794TIP3   OH220324   1.463   7.315   1.801
 6794TIP3    H120325   1.466   7.317   1.705
 6794TIP3    H220326   1.387   7.260   1.821
 6795TIP3   OH220327   3.027   7.410   0.473
 6795TIP3    H120328   3.074   7.450   0.399
 6795TIP3    H220329   3.067   7.449   0.551
 6796TIP3   OH220330   0.377   1.141   6.137
 6796TIP3    H120331   0.332   1.132   6.053
 6796TIP3    H220332   0.423   1.225   6.130
 6797TIP3   OH220333   1.588   2.986   4.485
 6797TIP3    H120334   1.549   2.927   4.549
 6797TIP3    H220335   1.650   3.039   4.536
 6798TIP3   OH220336   1.633   6.927   2.720
 6798TIP3    H120337   1.575   6.893   2.788
 6798TIP3    H220338   1.632   7.022   2.732
 6799TIP3   OH220339   1.689   1.051   1.281
 6799TIP3    H120340   1.643   1.111   1.222
 6799TIP3    H220341   1.769   1.098   1.305
 6800TIP3   OH220342   7.788   5.448   2.815
 6800TIP3    H120343   7.863   5.393   2.791
 6800TIP3    H220344   7.735   5.453   2.736
 6801TIP3   OH220345   5.075   7.484   2.236
 6801TIP3    H120346   5.094   7.515   2.148
 6801TIP3    H220347   5.159   7.484   2.281
 6802TIP3   OH220348   5.950   6.592   0.876
 6802TIP3    H120349   6.010   6.666   0.871
 6802TIP3    H220350   6.001   6.517   0.848
 6803TIP3   OH220351   8.262   3.909   1.191
 6803TIP3    H120352   8.201   3.967   1.237
 6803TIP3    H220353   8.347   3.931   1.230
 6804TIP3   OH220354   4.298   0.956   6.162
 6804TIP3    H120355   4.328   0.904   6.236
 6804TIP3    H220356   4.268   1.038   6.201
 6805TIP3   OH220357   2.933   3.491   4.349
 6805TIP3    H120358   2.869   3.439   4.301
 6805TIP3    H220359   2.913   3.582   4.326
 6806TIP3   OH220360   7.687   0.699   2.020
 6806TIP3    H120361   7.629   0.737   2.085
 6806TIP3    H220362   7.688   0.762   1.948
 6807TIP3   OH220363   0.932   1.164   6.679
 6807TIP3    H120364   0.842   1.197   6.675
 6807TIP3    H220365   0.986   1.241   6.693
 6808TIP3   OH220366   5.469   0.707   2.576
 6808TIP3    H120367   5.434   0.680   2.491
 6808TIP3    H220368   5.392   0.713   2.633
 6809TIP3   OH220369   0.259   6.058   1.515
 6809TIP3    H120370   0.235   6.077   1.425
 6809TIP3    H220371   0.352   6.037   1.512
 6810TIP3   OH220372   3.738   2.467   2.623
 6810TIP3    H120373   3.722   2.382   2.664
 6810TIP3    H220374   3.790   2.447   2.546
 6811TIP3   OH220375   1.459   2.649   0.428
 6811TIP3    H120376   1.543   2.603   0.426
 6811TIP3    H220377   1.482   2.740   0.445
 6812TIP3   OH220378   4.125   3.681   6.003
 6812TIP3    H120379   4.141   3.587   6.016
 6812TIP3    H220380   4.084   3.709   6.085
 6813TIP3   OH220381   5.547   7.203   4.362
 6813TIP3    H120382   5.480   7.165   4.307
 6813TIP3    H220383   5.587   7.128   4.406
 6814TIP3   OH220384   6.251   6.128   1.724
 6814TIP3    H120385   6.297   6.131   1.640
 6814TIP3    H220386   6.266   6.215   1.762
 6815TIP3   OH220387   6.736   6.849   1.693
 6815TIP3    H120388   6.809   6.911   1.684
 6815TIP3    H220389   6.670   6.898   1.742
 6816TIP3   OH220390   7.902   0.200   5.708
 6816TIP3    H120391   7.974   0.138   5.699
 6816TIP3    H220392   7.944   0.286   5.701
 6817TIP3   OH220393   0.054   2.260   6.497
 6817TIP3    H120394   0.077   2.314   6.421
 6817TIP3    H220395   0.126   2.276   6.559
 6818TIP3   OH220396   2.012   4.736   3.931
 6818TIP3    H120397   1.927   4.724   3.887
 6818TIP3    H220398   2.076   4.714   3.863
 6819TIP3   OH220399   2.196   1.966   5.465
 6819TIP3    H120400   2.123   1.911   5.489
 6819TIP3    H220401   2.253   1.910   5.412
 6820TIP3   OH220402   4.907   6.658   2.491
 6820TIP3    H120403   4.980   6.641   2.432
 6820TIP3    H220404   4.853   6.722   2.445
 6821TIP3   OH220405   6.460   3.674   4.023
 6821TIP3    H120406   6.443   3.586   3.989
 6821TIP3    H220407   6.386   3.692   4.081
 6822TIP3   OH220408   2.974   4.048   3.288
 6822TIP3    H120409   3.069   4.045   3.300
 6822TIP3    H220410   2.955   3.980   3.223
 6823TIP3   OH220411   4.885   4.412   5.380
 6823TIP3    H120412   4.924   4.499   5.376
 6823TIP3    H220413   4.861   4.401   5.472
 6824TIP3   OH220414   6.571   2.157   1.395
 6824TIP3    H120415   6.504   2.097   1.428
 6824TIP3    H220416   6.521   2.227   1.353
 6825TIP3   OH220417   5.131   3.020   6.530
 6825TIP3    H120418   5.213   2.982   6.563
 6825TIP3    H220419   5.159   3.091   6.473
 6826TIP3   OH220420   1.233   3.404   1.581
 6826TIP3    H120421   1.218   3.426   1.672
 6826TIP3    H220422   1.319   3.441   1.560
 6827TIP3   OH220423   3.230   0.465   3.330
 6827TIP3    H120424   3.170   0.498   3.397
 6827TIP3    H220425   3.204   0.374   3.318
 6828TIP3   OH220426   4.263   4.297   1.403
 6828TIP3    H120427   4.192   4.349   1.365
 6828TIP3    H220428   4.307   4.357   1.462
 6829TIP3   OH220429   3.740   2.831   1.830
 6829TIP3    H120430   3.651   2.863   1.816
 6829TIP3    H220431   3.750   2.830   1.925
 6830TIP3   OH220432   1.034   6.082   6.218
 6830TIP3    H120433   0.954   6.117   6.179
 6830TIP3    H220434   1.089   6.159   6.234
 6831TIP3   OH220435   0.249   3.571   1.532
 6831TIP3    H120436   0.265   3.613   1.617
 6831TIP3    H220437   0.288   3.484   1.541
 6832TIP3   OH220438   0.489   6.770   5.960
 6832TIP3    H120439   0.466   6.728   6.043
 6832TIP3    H220440   0.528   6.853   5.986
 6833TIP3   OH220441   5.351   3.615   3.264
 6833TIP3    H120442   5.381   3.552   3.198
 6833TIP3    H220443   5.256   3.611   3.260
 6834TIP3   OH220444   5.897   5.266   4.181
 6834TIP3    H120445   5.835   5.260   4.109
 6834TIP3    H220446   5.913   5.360   4.192
 6835TIP3   OH220447   4.357   2.791   6.521
 6835TIP3    H120448   4.317   2.755   6.600
 6835TIP3    H220449   4.395   2.875   6.550
 6836TIP3   OH220450   0.548   6.047   4.126
 6836TIP3    H120451   0.487   5.974   4.123
 6836TIP3    H220452   0.611   6.029   4.056
 6837TIP3   OH220453   6.448   5.631   0.238
 6837TIP3    H120454   6.491   5.659   0.157
 6837TIP3    H220455   6.447   5.709   0.293
 6838TIP3   OH220456   6.942   2.739   4.989
 6838TIP3    H120457   6.947   2.653   5.031
 6838TIP3    H220458   6.954   2.720   4.896
 6839TIP3   OH220459   3.475   2.433   1.732
 6839TIP3    H120460   3.559   2.395   1.757
 6839TIP3    H220461   3.439   2.373   1.667
 6840TIP3   OH220462   6.915   2.856   2.612
 6840TIP3    H120463   6.956   2.770   2.609
 6840TIP3    H220464   6.963   2.903   2.680
 6841TIP3   OH220465   2.265   1.360   4.722
 6841TIP3    H120466   2.254   1.290   4.786
 6841TIP3    H220467   2.202   1.427   4.749
 6842TIP3   OH220468   7.818   5.839   0.779
 6842TIP3    H120469   7.751   5.772   0.768
 6842TIP3    H220470   7.769   5.917   0.808
 6843TIP3   OH220471   0.477   6.472   0.890
 6843TIP3    H120472   0.536   6.475   0.814
 6843TIP3    H220473   0.431   6.389   0.881
 6844TIP3   OH220474   3.837   5.060   5.879
 6844TIP3    H120475   3.922   5.063   5.922
 6844TIP3    H220476   3.780   5.114   5.934
 6845TIP3   OH220477   3.763   7.505   1.607
 6845TIP3    H120478   3.852   7.481   1.583
 6845TIP3    H220479   3.768   7.524   1.700
 6846TIP3   OH220480   1.655   0.814   4.932
 6846TIP3    H120481   1.560   0.802   4.923
 6846TIP3    H220482   1.682   0.855   4.850
 6847TIP3   OH220483   3.067   1.196   4.437
 6847TIP3    H120484   2.973   1.192   4.416
 6847TIP3    H220485   3.106   1.129   4.381
 6848TIP3   OH220486   0.053   3.988   5.368
 6848TIP3    H120487  -0.029   4.009   5.323
 6848TIP3    H220488   0.076   4.068   5.415
 6849TIP3   OH220489   0.714   0.152   1.319
 6849TIP3    H120490   0.659   0.144   1.241
 6849TIP3    H220491   0.804   0.145   1.287
 6850TIP3   OH220492   5.074   1.670   2.453
 6850TIP3    H120493   5.087   1.591   2.400
 6850TIP3    H220494   5.162   1.695   2.481
 6851TIP3   OH220495   1.627   6.839   2.010
 6851TIP3    H120496   1.686   6.859   2.082
 6851TIP3    H220497   1.674   6.867   1.932
 6852TIP3   OH220498   5.619   0.959   6.678
 6852TIP3    H120499   5.626   1.000   6.592
 6852TIP3    H220500   5.550   0.893   6.668
 6853TIP3   OH220501   0.381   7.540   1.620
 6853TIP3    H120502   0.288   7.557   1.639
 6853TIP3    H220503   0.423   7.625   1.628
 6854TIP3   OH220504   3.504   2.781   2.093
 6854TIP3    H120505   3.478   2.804   2.004
 6854TIP3    H220506   3.557   2.855   2.122
 6855TIP3   OH220507   3.900   2.831   4.896
 6855TIP3    H120508   3.962   2.882   4.947
 6855TIP3    H220509   3.840   2.897   4.859
 6856TIP3   OH220510   7.251   4.699   1.216
 6856TIP3    H120511   7.201   4.630   1.260
 6856TIP3    H220512   7.191   4.773   1.213
 6857TIP3   OH220513   6.839   6.387   1.776
 6857TIP3    H120514   6.865   6.474   1.804
 6857TIP3    H220515   6.752   6.374   1.814
 6858TIP3   OH220516   0.801   6.719   5.408
 6858TIP3    H120517   0.787   6.753   5.496
 6858TIP3    H220518   0.714   6.695   5.377
 6859TIP3   OH220519   4.946   7.730   2.737
 6859TIP3    H120520   4.917   7.790   2.669
 6859TIP3    H220521   5.011   7.674   2.694
 6860TIP3   OH220522   3.077   3.557   0.352
 6860TIP3    H120523   3.038   3.479   0.310
 6860TIP3    H220524   3.081   3.534   0.445
 6861TIP3   OH220525   1.278   4.746   6.375
 6861TIP3    H120526   1.282   4.702   6.460
 6861TIP3    H220527   1.270   4.674   6.311
 6862TIP3   OH220528   1.704   0.108   4.673
 6862TIP3    H120529   1.778   0.048   4.659
 6862TIP3    H220530   1.629   0.051   4.688
 6863TIP3   OH220531   1.383   3.587   2.375
 6863TIP3    H120532   1.312   3.615   2.433
 6863TIP3    H220533   1.396   3.660   2.315
 6864TIP3   OH220534   1.803   0.869   0.706
 6864TIP3    H120535   1.748   0.934   0.662
 6864TIP3    H220536   1.763   0.785   0.683
 6865TIP3   OH220537   4.836   5.475   1.518
 6865TIP3    H120538   4.889   5.417   1.571
 6865TIP3    H220539   4.869   5.563   1.537
 6866TIP3   OH220540   6.039   7.463   3.257
 6866TIP3    H120541   5.943   7.471   3.263
 6866TIP3    H220542   6.070   7.484   3.345
 6867TIP3   OH220543   8.097   6.768   1.921
 6867TIP3    H120544   8.026   6.797   1.864
 6867TIP3    H220545   8.060   6.769   2.009
 6868TIP3   OH220546   4.850   2.397   5.243
 6868TIP3    H120547   4.849   2.306   5.214
 6868TIP3    H220548   4.942   2.414   5.264
 6869TIP3   OH220549   3.701   4.631   0.329
 6869TIP3    H120550   3.623   4.675   0.295
 6869TIP3    H220551   3.767   4.699   0.335
 6870TIP3   OH220552   6.366   0.931   6.811
 6870TIP3    H120553   6.278   0.897   6.800
 6870TIP3    H220554   6.420   0.878   6.752
 6871TIP3   OH220555   2.183   1.174   1.301
 6871TIP3    H120556   2.262   1.218   1.333
 6871TIP3    H220557   2.111   1.230   1.329
 6872TIP3   OH220558   1.986   3.261   0.084
 6872TIP3    H120559   1.967   3.354   0.085
 6872TIP3    H220560   2.069   3.253   0.131
 6873TIP3   OH220561   3.648   2.966   2.811
 6873TIP3    H120562   3.701   2.978   2.890
 6873TIP3    H220563   3.580   2.904   2.837
 6874TIP3   OH220564   2.697   0.994   2.989
 6874TIP3    H120565   2.610   0.985   2.951
 6874TIP3    H220566   2.745   1.049   2.927
 6875TIP3   OH220567   2.754   6.397   0.103
 6875TIP3    H120568   2.682   6.362   0.156
 6875TIP3    H220569   2.733   6.490   0.093
 6876TIP3   OH220570   0.629   5.052   0.374
 6876TIP3    H120571   0.575   5.125   0.345
 6876TIP3    H220572   0.579   4.974   0.352
 6877TIP3   OH220573   4.059   7.035   1.758
 6877TIP3    H120574   4.011   7.095   1.814
 6877TIP3    H220575   4.059   6.951   1.805
 6878TIP3   OH220576   7.855   0.039   2.940
 6878TIP3    H120577   7.797   0.007   2.872
 6878TIP3    H220578   7.819   0.124   2.965
 6879TIP3   OH220579   7.947   6.320   0.157
 6879TIP3    H120580   7.934   6.310   0.251
 6879TIP3    H220581   7.880   6.383   0.130
 6880TIP3   OH220582   1.959   2.197   6.083
 6880TIP3    H120583   1.883   2.246   6.051
 6880TIP3    H220584   1.972   2.128   6.018
 6881TIP3   OH220585   5.527   4.493   5.565
 6881TIP3    H120586   5.511   4.551   5.489
 6881TIP3    H220587   5.439   4.470   5.596
 6882TIP3   OH220588   6.621   7.444   6.033
 6882TIP3    H120589   6.622   7.530   6.076
 6882TIP3    H220590   6.706   7.439   5.989
 6883TIP3   OH220591   7.058   5.071   6.434
 6883TIP3    H120592   6.976   5.029   6.410
 6883TIP3    H220593   7.074   5.134   6.364
 6884TIP3   OH220594   1.228   6.749   5.458
 6884TIP3    H120595   1.287   6.716   5.390
 6884TIP3    H220596   1.149   6.775   5.411
 6885TIP3   OH220597   6.522   4.847   0.055
 6885TIP3    H120598   6.575   4.771   0.030
 6885TIP3    H220599   6.444   4.809   0.095
 6886TIP3   OH220600   4.772   7.729   6.724
 6886TIP3    H120601   4.863   7.709   6.705
 6886TIP3    H220602   4.729   7.644   6.727
 6887TIP3   OH220603   7.343   3.115   4.859
 6887TIP3    H120604   7.432   3.119   4.894
 6887TIP3    H220605   7.353   3.080   4.771
 6888TIP3   OH220606   6.526   6.022   2.057
 6888TIP3    H120607   6.439   5.994   2.030
 6888TIP3    H220608   6.562   6.069   1.981
 6889TIP3   OH220609   7.405   6.438   6.252
 6889TIP3    H120610   7.435   6.429   6.342
 6889TIP3    H220611   7.394   6.348   6.221
 6890TIP3   OH220612   6.216   3.282   3.351
 6890TIP3    H120613   6.271   3.256   3.277
 6890TIP3    H220614   6.127   3.280   3.316
 6891TIP3   OH220615   5.784   5.831   6.556
 6891TIP3    H120616   5.849   5.894   6.524
 6891TIP3    H220617   5.732   5.880   6.620
 6892TIP3   OH220618   6.043   4.968   3.001
 6892TIP3    H120619   6.061   4.893   3.058
 6892TIP3    H220620   6.069   5.045   3.052
 6893TIP3   OH220621   1.437   6.301   4.252
 6893TIP3    H120622   1.431   6.341   4.339
 6893TIP3    H220623   1.520   6.253   4.254
 6894TIP3   OH220624   4.251   0.477   0.300
 6894TIP3    H120625   4.156   0.464   0.292
 6894TIP3    H220626   4.279   0.500   0.211
 6895TIP3   OH220627   4.432   1.748   3.097
 6895TIP3    H120628   4.463   1.829   3.057
 6895TIP3    H220629   4.374   1.777   3.168
 6896TIP3   OH220630   2.141   1.231   3.232
 6896TIP3    H120631   2.208   1.239   3.164
 6896TIP3    H220632   2.163   1.150   3.277
 6897TIP3   OH220633   1.870   5.083   3.291
 6897TIP3    H120634   1.942   5.098   3.230
 6897TIP3    H220635   1.799   5.050   3.236
 6898TIP3   OH220636   2.106   5.587   1.526
 6898TIP3    H120637   2.146   5.580   1.440
 6898TIP3    H220638   2.045   5.514   1.530
 6899TIP3   OH220639   0.776   0.342   2.537
 6899TIP3    H120640   0.832   0.280   2.491
 6899TIP3    H220641   0.794   0.326   2.630
 6900TIP3   OH220642   6.119   2.068   0.293
 6900TIP3    H120643   6.099   2.130   0.363
 6900TIP3    H220644   6.166   1.997   0.337
 6901TIP3   OH220645   0.481   2.663   2.072
 6901TIP3    H120646   0.427   2.681   1.995
 6901TIP3    H220647   0.461   2.734   2.132
 6902TIP3   OH220648   3.912   6.098   3.183
 6902TIP3    H120649   3.865   6.162   3.129
 6902TIP3    H220650   3.862   6.017   3.174
 6903TIP3   OH220651   5.463   1.005   2.446
 6903TIP3    H120652   5.519   0.957   2.506
 6903TIP3    H220653   5.386   1.028   2.498
 6904TIP3   OH220654   3.985   1.502   6.088
 6904TIP3    H120655   4.059   1.531   6.035
 6904TIP3    H220656   3.925   1.577   6.089
 6905TIP3   OH220657   4.083   2.857   3.140
 6905TIP3    H120658   4.010   2.803   3.110
 6905TIP3    H220659   4.098   2.919   3.068
 6906TIP3   OH220660   2.835   0.553   5.876
 6906TIP3    H120661   2.852   0.468   5.917
 6906TIP3    H220662   2.892   0.614   5.922
 6907TIP3   OH220663   6.689   3.079   2.028
 6907TIP3    H120664   6.601   3.056   1.998
 6907TIP3    H220665   6.747   3.052   1.957
 6908TIP3   OH220666   3.083   4.119   1.757
 6908TIP3    H120667   3.064   4.200   1.804
 6908TIP3    H220668   3.003   4.099   1.709
 6909TIP3   OH220669   4.127   7.419   0.631
 6909TIP3    H120670   4.172   7.396   0.550
 6909TIP3    H220671   4.094   7.507   0.616
 6910TIP3   OH220672   6.041   5.169   1.892
 6910TIP3    H120673   6.077   5.245   1.939
 6910TIP3    H220674   6.005   5.205   1.811
 6911TIP3   OH220675   2.781   5.269   3.562
 6911TIP3    H120676   2.854   5.266   3.501
 6911TIP3    H220677   2.704   5.285   3.508
 6912TIP3   OH220678   5.356   4.488   0.575
 6912TIP3    H120679   5.331   4.522   0.660
 6912TIP3    H220680   5.451   4.479   0.580
 6913TIP3   OH220681   1.231   3.420   2.876
 6913TIP3    H120682   1.298   3.438   2.809
 6913TIP3    H220683   1.182   3.502   2.883
 6914TIP3   OH220684   4.940   6.103   0.804
 6914TIP3    H120685   4.944   6.033   0.869
 6914TIP3    H220686   4.851   6.138   0.812
 6915TIP3   OH220687   5.161   5.256   1.862
 6915TIP3    H120688   5.217   5.287   1.934
 6915TIP3    H220689   5.107   5.188   1.902
 6916TIP3   OH220690   6.209   2.834   2.360
 6916TIP3    H120691   6.179   2.915   2.402
 6916TIP3    H220692   6.298   2.854   2.332
 6917TIP3   OH220693   5.212   3.898   2.278
 6917TIP3    H120694   5.141   3.869   2.221
 6917TIP3    H220695   5.258   3.818   2.302
 6918TIP3   OH220696   1.207   6.852   6.337
 6918TIP3    H120697   1.183   6.910   6.409
 6918TIP3    H220698   1.181   6.765   6.367
 6919TIP3   OH220699   3.790   2.207   1.596
 6919TIP3    H120700   3.827   2.118   1.594
 6919TIP3    H220701   3.765   2.220   1.687
 6920TIP3   OH220702   2.559   6.317   1.611
 6920TIP3    H120703   2.624   6.380   1.644
 6920TIP3    H220704   2.608   6.236   1.598
 6921TIP3   OH220705   0.873   1.014   4.715
 6921TIP3    H120706   0.879   1.089   4.657
 6921TIP3    H220707   0.927   0.946   4.673
 6922TIP3   OH220708   8.237   0.511   0.217
 6922TIP3    H120709   8.238   0.568   0.294
 6922TIP3    H220710   8.217   0.569   0.144
 6923TIP3   OH220711   4.727   3.722   0.274
 6923TIP3    H120712   4.813   3.762   0.290
 6923TIP3    H220713   4.684   3.724   0.359
 6924TIP3   OH220714   5.400   2.021   6.323
 6924TIP3    H120715   5.402   1.959   6.396
 6924TIP3    H220716   5.335   2.087   6.350
 6925TIP3   OH220717   5.623   0.683   3.651
 6925TIP3    H120718   5.581   0.600   3.629
 6925TIP3    H220719   5.656   0.717   3.568
 6926TIP3   OH220720   6.020   0.067   3.961
 6926TIP3    H120721   6.074   0.042   3.886
 6926TIP3    H220722   5.986  -0.016   3.995
 6927TIP3   OH220723   3.103   7.589   4.738
 6927TIP3    H120724   3.096   7.637   4.656
 6927TIP3    H220725   3.019   7.543   4.746
 6928TIP3   OH220726   1.563   0.410   6.618
 6928TIP3    H120727   1.654   0.440   6.621
 6928TIP3    H220728   1.522   0.453   6.693
 6929TIP3   OH220729   7.460   1.405   1.814
 6929TIP3    H120730   7.490   1.485   1.772
 6929TIP3    H220731   7.371   1.391   1.780
 6930TIP3   OH220732   2.531   6.599   0.415
 6930TIP3    H120733   2.544   6.678   0.363
 6930TIP3    H220734   2.577   6.617   0.498
 6931TIP3   OH220735   4.424   6.411   3.577
 6931TIP3    H120736   4.517   6.420   3.596
 6931TIP3    H220737   4.407   6.317   3.580
 6932TIP3   OH220738   1.497   3.051   3.001
 6932TIP3    H120739   1.566   3.017   3.058
 6932TIP3    H220740   1.478   3.138   3.035
 6933TIP3   OH220741   5.523   0.182   0.751
 6933TIP3    H120742   5.472   0.158   0.828
 6933TIP3    H220743   5.495   0.271   0.730
 6934TIP3   OH220744   1.128   2.950   6.573
 6934TIP3    H120745   1.126   2.882   6.506
 6934TIP3    H220746   1.053   3.006   6.554
 6935TIP3   OH220747   8.181   3.289   0.956
 6935TIP3    H120748   8.170   3.380   0.929
 6935TIP3    H220749   8.182   3.240   0.874
 6936TIP3   OH220750   6.665   3.854   4.834
 6936TIP3    H120751   6.659   3.854   4.739
 6936TIP3    H220752   6.599   3.791   4.863
 6937TIP3   OH220753   7.947   1.017   2.904
 6937TIP3    H120754   8.012   1.002   2.972
 6937TIP3    H220755   7.939   0.933   2.858
 6938TIP3   OH220756   1.524   0.313   5.968
 6938TIP3    H120757   1.508   0.397   5.925
 6938TIP3    H220758   1.526   0.335   6.061
 6939TIP3   OH220759   2.620   1.202   2.379
 6939TIP3    H120760   2.633   1.240   2.466
 6939TIP3    H220761   2.682   1.249   2.323
 6940TIP3   OH220762   4.226   2.979   5.960
 6940TIP3    H120763   4.212   2.887   5.938
 6940TIP3    H220764   4.138   3.015   5.973
 6941TIP3   OH220765   0.368   4.550   1.094
 6941TIP3    H120766   0.333   4.639   1.100
 6941TIP3    H220767   0.405   4.533   1.181
 6942TIP3   OH220768   0.578   0.918   4.148
 6942TIP3    H120769   0.518   0.868   4.092
 6942TIP3    H220770   0.549   0.898   4.237
 6943TIP3   OH220771   0.858   3.933   1.807
 6943TIP3    H120772   0.775   3.981   1.797
 6943TIP3    H220773   0.867   3.922   1.902
 6944TIP3   OH220774   5.683   0.910   1.151
 6944TIP3    H120775   5.713   0.996   1.121
 6944TIP3    H220776   5.598   0.927   1.191
 6945TIP3   OH220777   5.422   3.038   1.046
 6945TIP3    H120778   5.357   3.104   1.069
 6945TIP3    H220779   5.376   2.979   0.986
 6946TIP3   OH220780   3.661   5.805   5.776
 6946TIP3    H120781   3.600   5.798   5.702
 6946TIP3    H220782   3.727   5.738   5.758
 6947TIP3   OH220783   7.927   4.949   0.726
 6947TIP3    H120784   7.890   4.865   0.701
 6947TIP3    H220785   7.864   4.985   0.789
 6948TIP3   OH220786   1.351   6.204   3.212
 6948TIP3    H120787   1.420   6.143   3.185
 6948TIP3    H220788   1.383   6.241   3.294
 6949TIP3   OH220789   1.265   2.542   0.241
 6949TIP3    H120790   1.308   2.602   0.301
 6949TIP3    H220791   1.291   2.455   0.272
 6950TIP3   OH220792   3.191   3.354   6.489
 6950TIP3    H120793   3.228   3.387   6.571
 6950TIP3    H220794   3.100   3.386   6.490
 6951TIP3   OH220795   0.857   7.074   1.195
 6951TIP3    H120796   0.901   7.054   1.278
 6951TIP3    H220797   0.884   7.164   1.176
 6952TIP3   OH220798   2.315   3.636   3.718
 6952TIP3    H120799   2.269   3.615   3.800
 6952TIP3    H220800   2.320   3.732   3.718
 6953TIP3   OH220801   1.235   2.578   4.914
 6953TIP3    H120802   1.275   2.551   4.997
 6953TIP3    H220803   1.141   2.562   4.927
 6954TIP3   OH220804   1.175   4.672   5.097
 6954TIP3    H120805   1.226   4.624   5.031
 6954TIP3    H220806   1.232   4.673   5.174
 6955TIP3   OH220807   4.415   5.615   1.347
 6955TIP3    H120808   4.439   5.553   1.278
 6955TIP3    H220809   4.351   5.673   1.307
 6956TIP3   OH220810   2.347   4.606   5.904
 6956TIP3    H120811   2.432   4.607   5.860
 6956TIP3    H220812   2.359   4.548   5.979
 6957TIP3   OH220813   1.930   2.218   1.122
 6957TIP3    H120814   1.892   2.224   1.035
 6957TIP3    H220815   2.013   2.172   1.109
 6958TIP3   OH220816   6.288   3.881   5.052
 6958TIP3    H120817   6.353   3.841   5.110
 6958TIP3    H220818   6.339   3.940   4.997
 6959TIP3   OH220819   6.786   5.873   3.606
 6959TIP3    H120820   6.804   5.799   3.663
 6959TIP3    H220821   6.862   5.878   3.549
 6960TIP3   OH220822   0.416   4.248   1.704
 6960TIP3    H120823   0.470   4.299   1.764
 6960TIP3    H220824   0.350   4.310   1.673
 6961TIP3   OH220825   7.596   3.585   1.882
 6961TIP3    H120826   7.672   3.526   1.878
 6961TIP3    H220827   7.603   3.637   1.802
 6962TIP3   OH220828   5.625   4.781   1.955
 6962TIP3    H120829   5.530   4.789   1.965
 6962TIP3    H220830   5.649   4.709   2.013
 6963TIP3   OH220831   6.446   2.230   0.419
 6963TIP3    H120832   6.389   2.255   0.347
 6963TIP3    H220833   6.411   2.276   0.495
 6964TIP3   OH220834   7.103   5.913   1.022
 6964TIP3    H120835   7.104   5.957   1.107
 6964TIP3    H220836   7.143   5.828   1.039
 6965TIP3   OH220837   5.490   5.820   3.313
 6965TIP3    H120838   5.525   5.761   3.246
 6965TIP3    H220839   5.562   5.831   3.374
 6966TIP3   OH220840   2.860   7.200   0.191
 6966TIP3    H120841   2.848   7.286   0.150
 6966TIP3    H220842   2.774   7.178   0.226
 6967TIP3   OH220843   1.025   5.247   4.907
 6967TIP3    H120844   1.107   5.259   4.861
 6967TIP3    H220845   0.996   5.159   4.884
 6968TIP3   OH220846   4.784   0.215   6.814
 6968TIP3    H120847   4.796   0.304   6.849
 6968TIP3    H220848   4.736   0.229   6.732
 6969TIP3   OH220849   2.237   0.117   0.048
 6969TIP3    H120850   2.314   0.084   0.095
 6969TIP3    H220851   2.165   0.061   0.078
 6970TIP3   OH220852   7.402   5.415   1.207
 6970TIP3    H120853   7.460   5.478   1.250
 6970TIP3    H220854   7.461   5.355   1.162
 6971TIP3   OH220855   0.678  -0.003   4.915
 6971TIP3    H120856   0.659  -0.023   5.007
 6971TIP3    H220857   0.740   0.070   4.918
 6972TIP3   OH220858   3.622   2.553   6.091
 6972TIP3    H120859   3.691   2.517   6.035
 6972TIP3    H220860   3.561   2.481   6.103
 6973TIP3   OH220861   6.468   2.332   6.410
 6973TIP3    H120862   6.382   2.291   6.421
 6973TIP3    H220863   6.496   2.304   6.323
 6974TIP3   OH220864   6.888   5.895   6.579
 6974TIP3    H120865   6.942   5.854   6.647
 6974TIP3    H220866   6.841   5.965   6.625
 6975TIP3   OH220867   0.739   5.400   0.206
 6975TIP3    H120868   0.744   5.460   0.280
 6975TIP3    H220869   0.646   5.395   0.185
 6976TIP3   OH220870   1.910   2.258   5.253
 6976TIP3    H120871   1.869   2.293   5.333
 6976TIP3    H220872   2.002   2.249   5.276
 6977TIP3   OH220873   0.664   0.741   4.571
 6977TIP3    H120874   0.737   0.744   4.510
 6977TIP3    H220875   0.586   0.744   4.516
 6978TIP3   OH220876   8.090   1.161   0.734
 6978TIP3    H120877   8.076   1.088   0.795
 6978TIP3    H220878   8.174   1.198   0.760
 6979TIP3   OH220879   3.436   1.276   1.085
 6979TIP3    H120880   3.347   1.243   1.079
 6979TIP3    H220881   3.475   1.253   1.000
 6980TIP3   OH220882   3.082   2.257   0.720
 6980TIP3    H120883   3.002   2.281   0.674
 6980TIP3    H220884   3.084   2.315   0.796
 6981TIP3   OH220885   2.305   7.002   0.427
 6981TIP3    H120886   2.308   7.093   0.457
 6981TIP3    H220887   2.320   7.007   0.333
 6982TIP3   OH220888   8.074   3.530   6.582
 6982TIP3    H120889   8.063   3.478   6.502
 6982TIP3    H220890   8.000   3.505   6.637
 6983TIP3   OH220891   0.109   4.991   4.066
 6983TIP3    H120892   0.204   4.995   4.060
 6983TIP3    H220893   0.092   4.936   4.143
 6984TIP3   OH220894   4.341   0.172   4.988
 6984TIP3    H120895   4.432   0.183   5.015
 6984TIP3    H220896   4.333   0.222   4.907
 6985TIP3   OH220897   4.036   4.704   5.791
 6985TIP3    H120898   4.126   4.736   5.787
 6985TIP3    H220899   3.984   4.781   5.812
 6986TIP3   OH220900   1.313   2.760   6.253
 6986TIP3    H120901   1.297   2.692   6.188
 6986TIP3    H220902   1.362   2.827   6.205
 6987TIP3   OH220903   1.259   2.679   3.368
 6987TIP3    H120904   1.342   2.726   3.377
 6987TIP3    H220905   1.254   2.656   3.276
 6988TIP3   OH220906   6.968   3.737   3.194
 6988TIP3    H120907   6.972   3.832   3.183
 6988TIP3    H220908   7.016   3.721   3.275
 6989TIP3   OH220909   3.026   7.643   4.240
 6989TIP3    H120910   3.093   7.710   4.229
 6989TIP3    H220911   2.994   7.627   4.151
 6990TIP3   OH220912   8.016   0.356   0.325
 6990TIP3    H120913   8.074   0.389   0.257
 6990TIP3    H220914   7.928   0.360   0.287
 6991TIP3   OH220915   1.552   3.950   2.568
 6991TIP3    H120916   1.546   3.947   2.472
 6991TIP3    H220917   1.467   3.920   2.599
 6992TIP3   OH220918   6.077   6.111   5.960
 6992TIP3    H120919   6.029   6.192   5.978
 6992TIP3    H220920   6.028   6.070   5.890
 6993TIP3   OH220921   4.768   5.994   4.327
 6993TIP3    H120922   4.768   5.901   4.304
 6993TIP3    H220923   4.856   6.011   4.360
 6994TIP3   OH220924   6.341   0.357   2.066
 6994TIP3    H120925   6.343   0.262   2.050
 6994TIP3    H220926   6.396   0.370   2.143
 6995TIP3   OH220927   7.126   2.697   1.501
 6995TIP3    H120928   7.167   2.781   1.520
 6995TIP3    H220929   7.042   2.700   1.547
 6996TIP3   OH220930   4.386   1.291   4.736
 6996TIP3    H120931   4.386   1.373   4.687
 6996TIP3    H220932   4.472   1.252   4.720
 6997TIP3   OH220933   2.120   1.779   5.973
 6997TIP3    H120934   2.097   1.719   6.044
 6997TIP3    H220935   2.204   1.817   6.001
 6998TIP3   OH220936   5.929   0.759   2.814
 6998TIP3    H120937   5.938   0.847   2.776
 6998TIP3    H220938   5.979   0.702   2.755
 6999TIP3   OH220939   5.911   2.256   6.328
 6999TIP3    H120940   5.855   2.328   6.300
 6999TIP3    H220941   5.965   2.293   6.397
 7000TIP3   OH220942   0.962   1.480   1.280
 7000TIP3    H120943   1.026   1.410   1.284
 7000TIP3    H220944   0.952   1.498   1.186
 7001TIP3   OH220945   1.185   1.182   4.622
 7001TIP3    H120946   1.189   1.176   4.527
 7001TIP3    H220947   1.099   1.221   4.640
 7002TIP3   OH220948   8.166   4.699   1.052
 7002TIP3    H120949   8.166   4.608   1.021
 7002TIP3    H220950   8.255   4.713   1.083
 7003TIP3   OH220951   2.647   7.694   1.461
 7003TIP3    H120952   2.586   7.737   1.401
 7003TIP3    H220953   2.594   7.671   1.537
 7004TIP3   OH220954   4.870   0.558   5.185
 7004TIP3    H120955   4.855   0.621   5.255
 7004TIP3    H220956   4.799   0.573   5.123
 7005TIP3   OH220957   3.421   1.933   1.071
 7005TIP3    H120958   3.396   2.012   1.118
 7005TIP3    H220959   3.371   1.937   0.989
 7006TIP3   OH220960   4.112   5.349   4.937
 7006TIP3    H120961   4.085   5.421   4.995
 7006TIP3    H220962   4.152   5.392   4.861
 7007TIP3   OH220963   6.152   4.683   1.268
 7007TIP3    H120964   6.145   4.640   1.183
 7007TIP3    H220965   6.224   4.746   1.258
 7008TIP3   OH220966   8.091   4.215   0.086
 7008TIP3    H120967   8.158   4.191   0.021
 7008TIP3    H220968   8.139   4.264   0.152
 7009TIP3   OH220969   8.285   0.580   5.481
 7009TIP3    H120970   8.354   0.630   5.525
 7009TIP3    H220971   8.229   0.549   5.552
 7010TIP3   OH220972   3.667   2.071   0.155
 7010TIP3    H120973   3.682   2.141   0.218
 7010TIP3    H220974   3.664   1.991   0.208
 7011TIP3   OH220975   4.319   1.224   5.578
 7011TIP3    H120976   4.226   1.241   5.566
 7011TIP3    H220977   4.341   1.162   5.508
 7012TIP3   OH220978   4.072   5.041   1.039
 7012TIP3    H120979   4.019   4.963   1.056
 7012TIP3    H220980   4.014   5.114   1.061
 7013TIP3   OH220981   1.685   5.240   3.479
 7013TIP3    H120982   1.717   5.209   3.394
 7013TIP3    H220983   1.621   5.308   3.457
 7014TIP3   OH220984   4.532   4.778   5.625
 7014TIP3    H120985   4.520   4.866   5.587
 7014TIP3    H220986   4.626   4.761   5.615
 7015TIP3   OH220987   4.235   0.543   1.073
 7015TIP3    H120988   4.323   0.508   1.089
 7015TIP3    H220989   4.195   0.481   1.012
 7016TIP3   OH220990   4.218   5.155   5.372
 7016TIP3    H120991   4.248   5.064   5.371
 7016TIP3    H220992   4.185   5.171   5.284
 7017TIP3   OH220993   7.196   7.426   1.059
 7017TIP3    H120994   7.152   7.499   1.015
 7017TIP3    H220995   7.258   7.469   1.119
 7018TIP3   OH220996   7.130   6.046   5.196
 7018TIP3    H120997   7.191   5.977   5.225
 7018TIP3    H220998   7.106   6.092   5.277
 7019TIP3   OH220999   1.722   7.217   1.787
 7019TIP3    H121000   1.730   7.132   1.743
 7019TIP3    H221001   1.637   7.250   1.760
 7020TIP3   OH221002   7.685   6.265   6.051
 7020TIP3    H121003   7.725   6.180   6.034
 7020TIP3    H221004   7.605   6.245   6.099
 7021TIP3   OH221005   0.534   5.097   1.166
 7021TIP3    H121006   0.534   5.131   1.077
 7021TIP3    H221007   0.504   5.007   1.158
 7022TIP3   OH221008   7.663   4.972   6.223
 7022TIP3    H121009   7.619   4.889   6.242
 7022TIP3    H221010   7.639   4.992   6.133
 7023TIP3   OH221011   3.918   5.531   0.151
 7023TIP3    H121012   4.013   5.542   0.152
 7023TIP3    H221013   3.884   5.620   0.156
 7024TIP3   OH221014   5.141   1.964   6.182
 7024TIP3    H121015   5.191   1.970   6.100
 7024TIP3    H221016   5.150   2.051   6.221
 7025TIP3   OH221017   3.537   2.067   4.671
 7025TIP3    H121018   3.512   2.028   4.755
 7025TIP3    H221019   3.459   2.114   4.642
 7026TIP3   OH221020   5.455   4.504   4.055
 7026TIP3    H121021   5.464   4.410   4.045
 7026TIP3    H221022   5.545   4.537   4.061
 7027TIP3   OH221023   5.523   4.080   2.313
 7027TIP3    H121024   5.466   4.089   2.389
 7027TIP3    H221025   5.573   4.162   2.309
 7028TIP3   OH221026   6.472   3.516   2.179
 7028TIP3    H121027   6.552   3.471   2.207
 7028TIP3    H221028   6.500   3.571   2.106
 7029TIP3   OH221029   3.892   2.319   6.731
 7029TIP3    H121030   3.822   2.285   6.675
 7029TIP3    H221031   3.869   2.411   6.743
 7030TIP3   OH221032   3.906   2.323   2.347
 7030TIP3    H121033   3.921   2.416   2.331
 7030TIP3    H221034   3.988   2.292   2.384
 7031TIP3   OH221035   3.718   7.026   6.415
 7031TIP3    H121036   3.703   7.026   6.510
 7031TIP3    H221037   3.768   6.946   6.399
 7032TIP3   OH221038   7.785   5.438   3.093
 7032TIP3    H121039   7.792   5.409   3.002
 7032TIP3    H221040   7.722   5.510   3.091
 7033TIP3   OH221041   5.218   1.006   5.578
 7033TIP3    H121042   5.243   0.915   5.587
 7033TIP3    H221043   5.300   1.055   5.583
 7034TIP3   OH221044   0.382   0.287   0.390
 7034TIP3    H121045   0.297   0.330   0.380
 7034TIP3    H221046   0.361   0.194   0.404
 7035TIP3   OH221047   0.940   7.003   1.810
 7035TIP3    H121048   1.032   6.989   1.787
 7035TIP3    H221049   0.930   6.958   1.894
 7036TIP3   OH221050   8.109   5.988   1.714
 7036TIP3    H121051   8.071   6.060   1.665
 7036TIP3    H221052   8.190   5.967   1.666
 7037TIP3   OH221053   1.540   5.934   2.403
 7037TIP3    H121054   1.506   6.023   2.411
 7037TIP3    H221055   1.633   5.945   2.381
 7038TIP3   OH221056   6.975   2.003   4.016
 7038TIP3    H121057   7.000   1.980   4.106
 7038TIP3    H221058   6.929   1.926   3.984
 7039TIP3   OH221059   7.159   3.246   0.079
 7039TIP3    H121060   7.081   3.225   0.130
 7039TIP3    H221061   7.193   3.161   0.050
 7040TIP3   OH221062   2.474   1.639   0.426
 7040TIP3    H121063   2.517   1.692   0.493
 7040TIP3    H221064   2.394   1.607   0.468
 7041TIP3   OH221065   2.463   1.481   2.622
 7041TIP3    H121066   2.502   1.558   2.580
 7041TIP3    H221067   2.392   1.517   2.676
 7042TIP3   OH221068   7.672   1.320   6.527
 7042TIP3    H121069   7.696   1.351   6.615
 7042TIP3    H221070   7.676   1.225   6.533
 7043TIP3   OH221071   4.048   3.565   4.675
 7043TIP3    H121072   4.005   3.507   4.612
 7043TIP3    H221073   4.120   3.513   4.711
 7044TIP3   OH221074   3.458   4.717   5.560
 7044TIP3    H121075   3.407   4.795   5.582
 7044TIP3    H221076   3.460   4.666   5.641
 7045TIP3   OH221077   1.280   7.196   3.754
 7045TIP3    H121078   1.216   7.212   3.824
 7045TIP3    H221079   1.324   7.115   3.780
 7046TIP3   OH221080   3.746   3.164   4.418
 7046TIP3    H121081   3.834   3.172   4.456
 7046TIP3    H221082   3.744   3.076   4.381
 7047TIP3   OH221083   2.199   1.319   3.795
 7047TIP3    H121084   2.192   1.312   3.699
 7047TIP3    H221085   2.123   1.270   3.828
 7048TIP3   OH221086   2.163   7.802   3.007
 7048TIP3    H121087   2.144   7.782   2.915
 7048TIP3    H221088   2.240   7.858   3.003
 7049TIP3   OH221089   6.088   4.176   0.729
 7049TIP3    H121090   5.993   4.181   0.734
 7049TIP3    H221091   6.106   4.097   0.679
 7050TIP3   OH221092   5.976   2.003   4.969
 7050TIP3    H121093   6.001   1.960   4.887
 7050TIP3    H221094   5.881   2.008   4.966
 7051TIP3   OH221095   4.423   6.278   4.907
 7051TIP3    H121096   4.407   6.230   4.825
 7051TIP3    H221097   4.518   6.291   4.909
 7052TIP3   OH221098   0.514   5.750   3.640
 7052TIP3    H121099   0.437   5.745   3.582
 7052TIP3    H221100   0.486   5.810   3.710
 7053TIP3   OH221101   7.708   4.872   0.330
 7053TIP3    H121102   7.700   4.927   0.408
 7053TIP3    H221103   7.745   4.930   0.264
 7054TIP3   OH221104   1.190   1.238   1.175
 7054TIP3    H121105   1.189   1.333   1.182
 7054TIP3    H221106   1.212   1.220   1.084
 7055TIP3   OH221107   2.450   2.642   0.269
 7055TIP3    H121108   2.447   2.681   0.356
 7055TIP3    H221109   2.543   2.631   0.250
 7056TIP3   OH221110   0.131   3.969   3.332
 7056TIP3    H121111   0.086   3.916   3.266
 7056TIP3    H221112   0.092   4.056   3.323
 7057TIP3   OH221113   2.823   2.775   6.010
 7057TIP3    H121114   2.780   2.695   6.040
 7057TIP3    H221115   2.916   2.755   6.013
 7058TIP3   OH221116   2.026   4.889   0.520
 7058TIP3    H121117   2.062   4.815   0.569
 7058TIP3    H221118   1.998   4.951   0.587
 7059TIP3   OH221119   8.163   0.160   2.521
 7059TIP3    H121120   8.159   0.233   2.458
 7059TIP3    H221121   8.254   0.130   2.516
 7060TIP3   OH221122   3.538   5.150   1.022
 7060TIP3    H121123   3.578   5.193   1.097
 7060TIP3    H221124   3.509   5.221   0.965
 7061TIP3   OH221125   3.371   2.988   6.713
 7061TIP3    H121126   3.442   3.007   6.774
 7061TIP3    H221127   3.292   2.987   6.768
 7062TIP3   OH221128   6.197   6.202   0.534
 7062TIP3    H121129   6.255   6.272   0.505
 7062TIP3    H221130   6.198   6.139   0.461
 7063TIP3   OH221131   1.028   7.589   3.089
 7063TIP3    H121132   1.039   7.494   3.091
 7063TIP3    H221133   0.991   7.610   3.174
 7064TIP3   OH221134   3.202   0.590   4.296
 7064TIP3    H121135   3.192   0.631   4.382
 7064TIP3    H221136   3.161   0.504   4.306
 7065TIP3   OH221137   6.966   3.243   4.757
 7065TIP3    H121138   7.020   3.322   4.757
 7065TIP3    H221139   7.028   3.171   4.745
 7066TIP3   OH221140   3.221   7.100   3.291
 7066TIP3    H121141   3.309   7.101   3.252
 7066TIP3    H221142   3.219   7.019   3.342
 7067TIP3   OH221143   1.896   6.855   5.824
 7067TIP3    H121144   1.930   6.938   5.790
 7067TIP3    H221145   1.853   6.814   5.749
 7068TIP3   OH221146   0.865   0.699   5.726
 7068TIP3    H121147   0.903   0.755   5.659
 7068TIP3    H221148   0.858   0.755   5.804
 7069TIP3   OH221149   1.578   4.580   4.519
 7069TIP3    H121150   1.587   4.525   4.597
 7069TIP3    H221151   1.666   4.583   4.482
 7070TIP3   OH221152   5.844   5.437   4.764
 7070TIP3    H121153   5.842   5.407   4.854
 7070TIP3    H221154   5.887   5.523   4.768
 7071TIP3   OH221155   1.799   1.362   6.690
 7071TIP3    H121156   1.767   1.323   6.771
 7071TIP3    H221157   1.745   1.440   6.678
 7072TIP3   OH221158   2.809   1.105   4.717
 7072TIP3    H121159   2.903   1.115   4.728
 7072TIP3    H221160   2.781   1.048   4.788
 7073TIP3   OH221161   8.056   2.372   3.756
 7073TIP3    H121162   8.127   2.344   3.814
 7073TIP3    H221163   7.985   2.397   3.816
 7074TIP3   OH221164   6.137   6.442   6.139
 7074TIP3    H121165   6.181   6.509   6.086
 7074TIP3    H221166   6.071   6.405   6.081
 7075TIP3   OH221167   1.779   2.753   0.164
 7075TIP3    H121168   1.756   2.732   0.255
 7075TIP3    H221169   1.794   2.847   0.164
 7076TIP3   OH221170   0.948   4.602   1.048
 7076TIP3    H121171   1.005   4.594   0.971
 7076TIP3    H221172   0.887   4.528   1.039
 7077TIP3   OH221173   4.915   2.310   2.666
 7077TIP3    H121174   4.830   2.289   2.629
 7077TIP3    H221175   4.935   2.398   2.635
 7078TIP3   OH221176   6.972   6.469   2.139
 7078TIP3    H121177   6.884   6.433   2.124
 7078TIP3    H221178   6.961   6.530   2.212
 7079TIP3   OH221179   4.520   0.985   1.638
 7079TIP3    H121180   4.526   0.945   1.725
 7079TIP3    H221181   4.609   0.980   1.603
 7080TIP3   OH221182   1.238   1.836   0.868
 7080TIP3    H121183   1.253   1.793   0.784
 7080TIP3    H221184   1.220   1.765   0.928
 7081TIP3   OH221185   4.195   7.472   2.528
 7081TIP3    H121186   4.283   7.489   2.563
 7081TIP3    H221187   4.166   7.393   2.574
 7082TIP3   OH221188   5.558   5.784   2.307
 7082TIP3    H121189   5.546   5.865   2.356
 7082TIP3    H221190   5.652   5.766   2.314
 7083TIP3   OH221191   1.317   1.054   1.346
 7083TIP3    H121192   1.263   1.110   1.289
 7083TIP3    H221193   1.359   1.115   1.407
 7084TIP3   OH221194   2.810   1.623   3.030
 7084TIP3    H121195   2.813   1.618   3.125
 7084TIP3    H221196   2.806   1.717   3.011
 7085TIP3   OH221197   7.032   5.029   4.869
 7085TIP3    H121198   7.003   4.960   4.928
 7085TIP3    H221199   7.127   5.026   4.873
 7086TIP3   OH221200   5.969   7.327   5.517
 7086TIP3    H121201   6.015   7.250   5.483
 7086TIP3    H221202   5.902   7.291   5.575
 7087TIP3   OH221203   1.024   7.597   4.162
 7087TIP3    H121204   0.974   7.583   4.081
 7087TIP3    H221205   1.116   7.593   4.135
 7088TIP3   OH221206   0.914   1.300   4.242
 7088TIP3    H121207   0.889   1.381   4.288
 7088TIP3    H221208   0.853   1.234   4.275
 7089TIP3   OH221209   7.663   0.813   5.825
 7089TIP3    H121210   7.700   0.895   5.791
 7089TIP3    H221211   7.582   0.839   5.869
 7090TIP3   OH221212   1.404   2.281   1.829
 7090TIP3    H121213   1.442   2.209   1.880
 7090TIP3    H221214   1.311   2.261   1.825
 7091TIP3   OH221215   6.412   3.543   6.154
 7091TIP3    H121216   6.387   3.452   6.138
 7091TIP3    H221217   6.345   3.577   6.212
 7092TIP3   OH221218   4.285   4.770   3.071
 7092TIP3    H121219   4.315   4.682   3.094
 7092TIP3    H221220   4.365   4.818   3.049
 7093TIP3   OH221221   5.646   1.234   4.972
 7093TIP3    H121222   5.709   1.171   4.936
 7093TIP3    H221223   5.576   1.179   5.008
 7094TIP3   OH221224   5.589   3.162   3.120
 7094TIP3    H121225   5.659   3.128   3.066
 7094TIP3    H221226   5.536   3.086   3.142
 7095TIP3   OH221227   7.500   1.783   3.399
 7095TIP3    H121228   7.452   1.842   3.458
 7095TIP3    H221229   7.439   1.713   3.379
 7096TIP3   OH221230   1.570   6.360   3.121
 7096TIP3    H121231   1.491   6.398   3.082
 7096TIP3    H221232   1.543   6.337   3.210
 7097TIP3   OH221233   7.354   1.207   0.426
 7097TIP3    H121234   7.260   1.225   0.423
 7097TIP3    H221235   7.393   1.289   0.457
 7098TIP3   OH221236   6.105   1.763   2.029
 7098TIP3    H121237   6.094   1.672   2.001
 7098TIP3    H221238   6.059   1.815   1.963
 7099TIP3   OH221239   4.512   6.981   0.274
 7099TIP3    H121240   4.464   7.048   0.322
 7099TIP3    H221241   4.475   6.984   0.186
 7100TIP3   OH221242   6.341   0.547   4.532
 7100TIP3    H121243   6.291   0.554   4.451
 7100TIP3    H221244   6.407   0.616   4.526
 7101TIP3   OH221245   4.168   1.213   3.706
 7101TIP3    H121246   4.214   1.205   3.790
 7101TIP3    H221247   4.076   1.201   3.727
 7102TIP3   OH221248   4.153   5.524   3.650
 7102TIP3    H121249   4.169   5.501   3.559
 7102TIP3    H221250   4.060   5.506   3.663
 7103TIP3   OH221251   7.931   1.452   3.064
 7103TIP3    H121252   7.899   1.479   2.978
 7103TIP3    H221253   7.867   1.487   3.125
 7104TIP3   OH221254   3.174   6.488   5.971
 7104TIP3    H121255   3.129   6.554   5.918
 7104TIP3    H221256   3.166   6.520   6.061
 7105TIP3   OH221257   3.694   0.806   6.310
 7105TIP3    H121258   3.788   0.789   6.302
 7105TIP3    H221259   3.655   0.720   6.325
 7106TIP3   OH221260   1.398   3.098   4.952
 7106TIP3    H121261   1.362   3.013   4.928
 7106TIP3    H221262   1.467   3.114   4.888
 7107TIP3   OH221263   7.834   1.045   5.060
 7107TIP3    H121264   7.743   1.072   5.069
 7107TIP3    H221265   7.830   0.958   5.020
 7108TIP3   OH221266   2.044   6.132   5.329
 7108TIP3    H121267   1.959   6.174   5.317
 7108TIP3    H221268   2.029   6.065   5.396
 7109TIP3   OH221269   2.529   4.392   6.306
 7109TIP3    H121270   2.506   4.314   6.355
 7109TIP3    H221271   2.624   4.400   6.317
 7110TIP3   OH221272   3.127   1.840   4.795
 7110TIP3    H121273   3.059   1.851   4.728
 7110TIP3    H221274   3.121   1.748   4.820
 7111TIP3   OH221275   3.918   4.517   3.819
 7111TIP3    H121276   3.960   4.534   3.734
 7111TIP3    H221277   3.850   4.453   3.800
 7112TIP3   OH221278   6.518   6.657   0.983
 7112TIP3    H121279   6.434   6.684   0.947
 7112TIP3    H221280   6.582   6.717   0.943
 7113TIP3   OH221281   5.647   5.134   0.492
 7113TIP3    H121282   5.563   5.090   0.477
 7113TIP3    H221283   5.632   5.189   0.569
 7114TIP3   OH221284   7.778   0.563   6.570
 7114TIP3    H121285   7.764   0.472   6.594
 7114TIP3    H221286   7.839   0.560   6.496
 7115TIP3   OH221287   2.639   1.359   2.095
 7115TIP3    H121288   2.683   1.389   2.016
 7115TIP3    H221289   2.634   1.264   2.085
 7116TIP3   OH221290   6.808   5.755   1.066
 7116TIP3    H121291   6.716   5.734   1.051
 7116TIP3    H221292   6.819   5.747   1.160
 7117TIP3   OH221293   3.588   5.787   1.762
 7117TIP3    H121294   3.600   5.792   1.667
 7117TIP3    H221295   3.502   5.826   1.778
 7118TIP3   OH221296   8.208   7.488   0.578
 7118TIP3    H121297   8.193   7.518   0.667
 7118TIP3    H221298   8.292   7.526   0.554
 7119TIP3   OH221299   0.567   2.975   0.091
 7119TIP3    H121300   0.572   2.979  -0.005
 7119TIP3    H221301   0.554   2.882   0.109
 7120TIP3   OH221302   8.225   5.501   0.031
 7120TIP3    H121303   8.135   5.475   0.011
 7120TIP3    H221304   8.218   5.545   0.116
 7121TIP3   OH221305   8.039   5.043   1.360
 7121TIP3    H121306   8.121   5.024   1.406
 7121TIP3    H221307   7.989   4.962   1.365
 7122TIP3   OH221308   4.000   4.022   5.786
 7122TIP3    H121309   4.023   4.112   5.762
 7122TIP3    H221310   3.962   4.030   5.874
 7123TIP3   OH221311   1.305   0.313   4.717
 7123TIP3    H121312   1.234   0.251   4.732
 7123TIP3    H221313   1.325   0.347   4.804
 7124TIP3   OH221314   1.070   2.721   0.896
 7124TIP3    H121315   1.154   2.691   0.932
 7124TIP3    H221316   1.063   2.813   0.923
 7125TIP3   OH221317   3.817   1.803   5.489
 7125TIP3    H121318   3.735   1.785   5.442
 7125TIP3    H221319   3.882   1.818   5.421
 7126TIP3   OH221320   0.108   0.906   2.476
 7126TIP3    H121321   0.100   0.847   2.550
 7126TIP3    H221322   0.198   0.938   2.480
 7127TIP3   OH221323   5.133   4.060   3.291
 7127TIP3    H121324   5.060   4.001   3.311
 7127TIP3    H221325   5.093   4.147   3.291
 7128TIP3   OH221326   3.895   2.412   0.759
 7128TIP3    H121327   3.929   2.348   0.696
 7128TIP3    H221328   3.974   2.455   0.793
 7129TIP3   OH221329   7.178   6.977   1.510
 7129TIP3    H121330   7.219   7.008   1.429
 7129TIP3    H221331   7.217   6.890   1.524
 7130TIP3   OH221332   3.877   1.525   4.896
 7130TIP3    H121333   3.842   1.472   4.824
 7130TIP3    H221334   3.941   1.583   4.855
 7131TIP3   OH221335   1.732   2.743   2.022
 7131TIP3    H121336   1.796   2.708   1.959
 7131TIP3    H221337   1.720   2.672   2.085
 7132TIP3   OH221338   7.036   2.282   4.484
 7132TIP3    H121339   6.965   2.247   4.538
 7132TIP3    H221340   7.106   2.301   4.546
 7133TIP3   OH221341   1.858   2.503   1.420
 7133TIP3    H121342   1.794   2.489   1.350
 7133TIP3    H221343   1.936   2.454   1.392
 7134TIP3   OH221344   2.506   4.578   3.584
 7134TIP3    H121345   2.533   4.572   3.676
 7134TIP3    H221346   2.525   4.668   3.559
 7135TIP3   OH221347   0.811   2.972   1.478
 7135TIP3    H121348   0.768   3.042   1.527
 7135TIP3    H221349   0.893   3.011   1.448
 7136TIP3   OH221350   3.613   5.373   1.232
 7136TIP3    H121351   3.529   5.340   1.264
 7136TIP3    H221352   3.678   5.331   1.288
 7137TIP3   OH221353   0.986   6.260   3.411
 7137TIP3    H121354   1.058   6.217   3.456
 7137TIP3    H221355   1.013   6.352   3.404
 7138TIP3   OH221356   7.238   3.193   3.299
 7138TIP3    H121357   7.274   3.251   3.366
 7138TIP3    H221358   7.244   3.242   3.218
 7139TIP3   OH221359   1.822   7.679   2.351
 7139TIP3    H121360   1.876   7.617   2.400
 7139TIP3    H221361   1.732   7.649   2.365
 7140TIP3   OH221362   7.082   1.763   6.653
 7140TIP3    H121363   7.016   1.696   6.673
 7140TIP3    H221364   7.097   1.807   6.736
 7141TIP3   OH221365   4.763   0.168   2.312
 7141TIP3    H121366   4.672   0.196   2.325
 7141TIP3    H221367   4.777   0.177   2.217
 7142TIP3   OH221368   0.943   6.807   6.691
 7142TIP3    H121369   1.017   6.781   6.746
 7142TIP3    H221370   0.933   6.735   6.629
 7143TIP3   OH221371   0.465   0.430   5.693
 7143TIP3    H121372   0.522   0.366   5.736
 7143TIP3    H221373   0.453   0.396   5.605
 7144TIP3   OH221374   6.985   7.432   1.741
 7144TIP3    H121375   6.938   7.492   1.683
 7144TIP3    H221376   7.075   7.464   1.739
 7145TIP3   OH221377   3.791   5.753   4.280
 7145TIP3    H121378   3.830   5.709   4.355
 7145TIP3    H221379   3.800   5.689   4.208
 7146TIP3   OH221380   5.895   7.450   4.315
 7146TIP3    H121381   5.858   7.379   4.366
 7146TIP3    H221382   5.985   7.458   4.345
 7147TIP3   OH221383   5.109   7.714   6.702
 7147TIP3    H121384   5.198   7.718   6.666
 7147TIP3    H221385   5.057   7.674   6.632
 7148TIP3   OH221386   7.407   4.628   1.814
 7148TIP3    H121387   7.435   4.686   1.743
 7148TIP3    H221388   7.430   4.675   1.894
 7149TIP3   OH221389   5.760   1.244   2.441
 7149TIP3    H121390   5.707   1.166   2.422
 7149TIP3    H221391   5.806   1.263   2.359
 7150TIP3   OH221392   7.246   7.699   5.217
 7150TIP3    H121393   7.338   7.714   5.238
 7150TIP3    H221394   7.201   7.701   5.301
 7151TIP3   OH221395   6.878   7.309   0.650
 7151TIP3    H121396   6.814   7.329   0.582
 7151TIP3    H221397   6.889   7.214   0.647
 7152TIP3   OH221398   5.011   2.919   5.668
 7152TIP3    H121399   4.967   2.966   5.597
 7152TIP3    H221400   4.954   2.931   5.743
 7153TIP3   OH221401   0.691   2.234   2.071
 7153TIP3    H121402   0.687   2.321   2.110
 7153TIP3    H221403   0.661   2.175   2.141
 7154TIP3   OH221404   7.221   5.884   3.780
 7154TIP3    H121405   7.233   5.831   3.702
 7154TIP3    H221406   7.289   5.951   3.775
 7155TIP3   OH221407   4.553   2.917   5.665
 7155TIP3    H121408   4.589   2.870   5.740
 7155TIP3    H221409   4.477   2.865   5.639
 7156TIP3   OH221410   6.832   3.639   0.595
 7156TIP3    H121411   6.841   3.573   0.526
 7156TIP3    H221412   6.870   3.597   0.673
 7157TIP3   OH221413   0.208   3.064   6.719
 7157TIP3    H121414   0.228   3.158   6.722
 7157TIP3    H221415   0.288   3.024   6.685
 7158TIP3   OH221416   3.383   6.319   0.768
 7158TIP3    H121417   3.355   6.408   0.745
 7158TIP3    H221418   3.308   6.281   0.814
 7159TIP3   OH221419   7.695   3.087   2.204
 7159TIP3    H121420   7.643   3.162   2.176
 7159TIP3    H221421   7.678   3.080   2.298
 7160TIP3   OH221422   7.875   6.245   3.803
 7160TIP3    H121423   7.915   6.314   3.856
 7160TIP3    H221424   7.902   6.265   3.713
 7161TIP3   OH221425   4.802   4.372   5.624
 7161TIP3    H121426   4.771   4.426   5.697
 7161TIP3    H221427   4.772   4.283   5.645
 7162TIP3   OH221428   6.479   6.201   5.949
 7162TIP3    H121429   6.550   6.244   5.997
 7162TIP3    H221430   6.427   6.157   6.017
 7163TIP3   OH221431   3.775   7.255   1.090
 7163TIP3    H121432   3.725   7.332   1.118
 7163TIP3    H221433   3.866   7.285   1.088
 7164TIP3   OH221434   0.828   5.344   0.639
 7164TIP3    H121435   0.884   5.335   0.562
 7164TIP3    H221436   0.776   5.264   0.641
 7165TIP3   OH221437   0.114   4.683   4.707
 7165TIP3    H121438   0.132   4.606   4.652
 7165TIP3    H221439   0.021   4.676   4.727
 7166TIP3   OH221440   2.032   6.701   3.460
 7166TIP3    H121441   2.025   6.638   3.532
 7166TIP3    H221442   1.970   6.668   3.395
 7167TIP3   OH221443   0.556   3.486   2.717
 7167TIP3    H121444   0.573   3.554   2.652
 7167TIP3    H221445   0.639   3.478   2.765
 7168TIP3   OH221446   1.328   6.592   1.684
 7168TIP3    H121447   1.247   6.640   1.668
 7168TIP3    H221448   1.301   6.502   1.700
 7169TIP3   OH221449   8.245   2.491   1.150
 7169TIP3    H121450   8.255   2.485   1.245
 7169TIP3    H221451   8.246   2.585   1.131
 7170TIP3   OH221452   7.118   7.786   2.149
 7170TIP3    H121453   7.083   7.708   2.106
 7170TIP3    H221454   7.200   7.757   2.188
 7171TIP3   OH221455   1.367   0.525   2.296
 7171TIP3    H121456   1.301   0.589   2.271
 7171TIP3    H221457   1.333   0.442   2.263
 7172TIP3   OH221458   6.157   3.332   0.752
 7172TIP3    H121459   6.206   3.250   0.748
 7172TIP3    H221460   6.130   3.349   0.662
 7173TIP3   OH221461   5.032   5.963   2.371
 7173TIP3    H121462   4.953   5.932   2.327
 7173TIP3    H221463   5.006   6.045   2.412
 7174TIP3   OH221464   5.162   6.323   6.737
 7174TIP3    H121465   5.103   6.282   6.673
 7174TIP3    H221466   5.117   6.312   6.821
 7175TIP3   OH221467   0.347   6.918   1.874
 7175TIP3    H121468   0.268   6.870   1.900
 7175TIP3    H221469   0.341   7.000   1.923
 7176TIP3   OH221470   5.421   1.425   3.733
 7176TIP3    H121471   5.416   1.483   3.657
 7176TIP3    H221472   5.494   1.459   3.784
 7177TIP3   OH221473   0.782   0.753   4.810
 7177TIP3    H121474   0.717   0.735   4.742
 7177TIP3    H221475   0.830   0.829   4.778
 7178TIP3   OH221476   4.674   3.050   1.044
 7178TIP3    H121477   4.584   3.045   1.014
 7178TIP3    H221478   4.668   3.052   1.140
 7179TIP3   OH221479   7.208   7.259   5.927
 7179TIP3    H121480   7.117   7.291   5.925
 7179TIP3    H221481   7.203   7.173   5.886
 7180TIP3   OH221482   7.349   7.618   1.165
 7180TIP3    H121483   7.432   7.610   1.212
 7180TIP3    H221484   7.303   7.690   1.210
 7181TIP3   OH221485   0.962   5.950   0.478
 7181TIP3    H121486   0.966   6.022   0.415
 7181TIP3    H221487   0.974   5.871   0.425
 7182TIP3   OH221488   3.356   0.468   5.244
 7182TIP3    H121489   3.291   0.493   5.178
 7182TIP3    H221490   3.381   0.550   5.285
 7183TIP3   OH221491   3.595   7.403   3.886
 7183TIP3    H121492   3.663   7.340   3.908
 7183TIP3    H221493   3.638   7.488   3.895
 7184TIP3   OH221494   4.698   6.187   4.891
 7184TIP3    H121495   4.640   6.120   4.925
 7184TIP3    H221496   4.786   6.157   4.915
 7185TIP3   OH221497   7.046   6.617   0.013
 7185TIP3    H121498   7.105   6.541   0.011
 7185TIP3    H221499   7.067   6.662   0.094
 7186TIP3   OH221500   3.352   5.732   4.506
 7186TIP3    H121501   3.308   5.727   4.591
 7186TIP3    H221502   3.287   5.699   4.444
 7187TIP3   OH221503   3.569   1.465   1.604
 7187TIP3    H121504   3.651   1.432   1.567
 7187TIP3    H221505   3.596   1.517   1.680
 7188TIP3   OH221506   6.605   3.852   3.914
 7188TIP3    H121507   6.571   3.780   3.967
 7188TIP3    H221508   6.535   3.870   3.851
 7189TIP3   OH221509   5.237   2.616   5.741
 7189TIP3    H121510   5.143   2.632   5.751
 7189TIP3    H221511   5.278   2.699   5.764
 7190TIP3   OH221512   2.283   4.071   4.898
 7190TIP3    H121513   2.334   3.996   4.926
 7190TIP3    H221514   2.282   4.130   4.974
 7191TIP3   OH221515   2.784   3.301   2.636
 7191TIP3    H121516   2.710   3.259   2.679
 7191TIP3    H221517   2.746   3.345   2.560
 7192TIP3   OH221518   5.319   5.017   5.116
 7192TIP3    H121519   5.295   5.000   5.207
 7192TIP3    H221520   5.240   5.054   5.077
 7193TIP3   OH221521   2.241   5.871   2.181
 7193TIP3    H121522   2.169   5.809   2.169
 7193TIP3    H221523   2.318   5.816   2.193
 7194TIP3   OH221524   2.148   5.432   1.769
 7194TIP3    H121525   2.060   5.425   1.807
 7194TIP3    H221526   2.144   5.510   1.714
 7195TIP3   OH221527   1.399   0.657   4.576
 7195TIP3    H121528   1.361   0.579   4.618
 7195TIP3    H221529   1.349   0.730   4.612
 7196TIP3   OH221530   2.373   6.402   6.558
 7196TIP3    H121531   2.335   6.485   6.589
 7196TIP3    H221532   2.410   6.362   6.637
 7197TIP3   OH221533   2.956   6.228   4.076
 7197TIP3    H121534   3.040   6.198   4.040
 7197TIP3    H221535   2.980   6.296   4.139
 7198TIP3   OH221536   4.110   7.334   1.866
 7198TIP3    H121537   4.083   7.274   1.797
 7198TIP3    H221538   4.031   7.349   1.918
 7199TIP3   OH221539   2.723   2.536   6.056
 7199TIP3    H121540   2.750   2.483   5.980
 7199TIP3    H221541   2.745   2.481   6.132
 7200TIP3   OH221542   0.644   7.030   5.974
 7200TIP3    H121543   0.691   7.096   6.026
 7200TIP3    H221544   0.660   7.056   5.883
 7201TIP3   OH221545   4.505   6.004   5.223
 7201TIP3    H121546   4.529   5.947   5.151
 7201TIP3    H221547   4.439   6.063   5.187
 7202TIP3   OH221548   4.903   4.539   0.404
 7202TIP3    H121549   4.986   4.495   0.385
 7202TIP3    H221550   4.929   4.617   0.454
 7203TIP3   OH221551   5.039   7.691   3.382
 7203TIP3    H121552   5.085   7.626   3.436
 7203TIP3    H221553   4.978   7.732   3.443
 7204TIP3   OH221554   0.810   1.097   2.245
 7204TIP3    H121555   0.744   1.049   2.194
 7204TIP3    H221556   0.875   1.031   2.268
 7205TIP3   OH221557   8.213   6.037   1.983
 7205TIP3    H121558   8.128   6.002   2.009
 7205TIP3    H221559   8.203   6.060   1.891
 7206TIP3   OH221560   5.613   7.216   5.450
 7206TIP3    H121561   5.522   7.232   5.475
 7206TIP3    H221562   5.627   7.269   5.372
 7207TIP3   OH221563   0.662   6.511   5.635
 7207TIP3    H121564   0.685   6.604   5.623
 7207TIP3    H221565   0.654   6.501   5.730
 7208TIP3   OH221566   7.298   6.373   1.958
 7208TIP3    H121567   7.252   6.309   2.012
 7208TIP3    H221568   7.249   6.374   1.875
 7209TIP3   OH221569   1.786   5.129   6.664
 7209TIP3    H121570   1.746   5.057   6.614
 7209TIP3    H221571   1.827   5.086   6.739
 7210TIP3   OH221572   3.476   3.870   4.380
 7210TIP3    H121573   3.423   3.791   4.371
 7210TIP3    H221574   3.426   3.926   4.439
 7211TIP3   OH221575   6.941   2.032   6.068
 7211TIP3    H121576   7.032   2.061   6.075
 7211TIP3    H221577   6.893   2.111   6.043
 7212TIP3   OH221578   6.781   6.984   3.519
 7212TIP3    H121579   6.769   6.918   3.451
 7212TIP3    H221580   6.819   7.059   3.473
 7213TIP3   OH221581   0.025   5.904   1.581
 7213TIP3    H121582   0.114   5.940   1.578
 7213TIP3    H221583  -0.011   5.922   1.495
 7214TIP3   OH221584   7.414   2.232   6.255
 7214TIP3    H121585   7.425   2.308   6.312
 7214TIP3    H221586   7.354   2.175   6.303
 7215TIP3   OH221587   5.006   2.414   3.107
 7215TIP3    H121588   4.923   2.388   3.068
 7215TIP3    H221589   5.001   2.510   3.111
 7216TIP3   OH221590   5.532   1.331   3.184
 7216TIP3    H121591   5.506   1.280   3.107
 7216TIP3    H221592   5.623   1.308   3.199
 7217TIP3   OH221593   0.728   7.681   2.350
 7217TIP3    H121594   0.653   7.707   2.404
 7217TIP3    H221595   0.762   7.602   2.392
 7218TIP3   OH221596   3.325   6.844   4.794
 7218TIP3    H121597   3.241   6.890   4.796
 7218TIP3    H221598   3.307   6.761   4.750
 7219TIP3   OH221599   2.034   5.181   1.033
 7219TIP3    H121600   2.077   5.097   1.019
 7219TIP3    H221601   2.104   5.240   1.060
 7220TIP3   OH221602   4.205   1.955   4.983
 7220TIP3    H121603   4.164   2.031   5.024
 7220TIP3    H221604   4.242   1.905   5.056
 7221TIP3   OH221605   6.843   7.690   3.803
 7221TIP3    H121606   6.802   7.607   3.826
 7221TIP3    H221607   6.839   7.693   3.707
 7222TIP3   OH221608   5.595   6.587   6.766
 7222TIP3    H121609   5.658   6.633   6.710
 7222TIP3    H221610   5.518   6.575   6.711
 7223TIP3   OH221611   5.916   7.366   4.789
 7223TIP3    H121612   5.968   7.289   4.814
 7223TIP3    H221613   5.887   7.347   4.700
 7224TIP3   OH221614   5.317   7.499   4.384
 7224TIP3    H121615   5.226   7.510   4.357
 7224TIP3    H221616   5.315   7.428   4.448
 7225TIP3   OH221617   8.185   6.396   2.791
 7225TIP3    H121618   8.212   6.482   2.758
 7225TIP3    H221619   8.210   6.335   2.722
 7226TIP3   OH221620   1.665   4.426   3.955
 7226TIP3    H121621   1.626   4.513   3.954
 7226TIP3    H221622   1.717   4.425   4.036
 7227TIP3   OH221623   7.073   6.189   0.013
 7227TIP3    H121624   7.153   6.239   0.028
 7227TIP3    H221625   7.062   6.188  -0.082
 7228TIP3   OH221626   0.364   5.228   2.541
 7228TIP3    H121627   0.420   5.154   2.522
 7228TIP3    H221628   0.310   5.199   2.615
 7229TIP3   OH221629   3.444   0.298   0.851
 7229TIP3    H121630   3.420   0.213   0.815
 7229TIP3    H221631   3.531   0.316   0.813
 7230TIP3   OH221632   7.576   2.333   2.448
 7230TIP3    H121633   7.501   2.383   2.415
 7230TIP3    H221634   7.651   2.370   2.403
 7231TIP3   OH221635   6.537   0.486   6.131
 7231TIP3    H121636   6.456   0.537   6.135
 7231TIP3    H221637   6.510   0.400   6.099
 7232TIP3   OH221638   2.578   7.078   2.915
 7232TIP3    H121639   2.574   7.165   2.875
 7232TIP3    H221640   2.671   7.065   2.936
 7233TIP3   OH221641   4.166   5.894   0.975
 7233TIP3    H121642   4.110   5.851   0.911
 7233TIP3    H221643   4.112   5.964   1.011
 7234TIP3   OH221644   4.784   3.464   0.490
 7234TIP3    H121645   4.787   3.544   0.437
 7234TIP3    H221646   4.693   3.459   0.521
 7235TIP3   OH221647   6.861   0.116   3.073
 7235TIP3    H121648   6.794   0.140   3.009
 7235TIP3    H221649   6.926   0.066   3.023
 7236TIP3   OH221650   4.414   6.267   6.006
 7236TIP3    H121651   4.420   6.181   6.048
 7236TIP3    H221652   4.321   6.275   5.981
 7237TIP3   OH221653   2.029   0.122   3.219
 7237TIP3    H121654   1.967   0.195   3.223
 7237TIP3    H221655   2.096   0.144   3.284
 7238TIP3   OH221656   7.046   1.931   4.265
 7238TIP3    H121657   6.967   1.954   4.314
 7238TIP3    H221658   7.102   1.887   4.330
 7239TIP3   OH221659   2.977   3.274   1.545
 7239TIP3    H121660   3.062   3.304   1.577
 7239TIP3    H221661   2.930   3.355   1.524
 7240TIP3   OH221662   0.334   6.036   4.886
 7240TIP3    H121663   0.287   5.979   4.825
 7240TIP3    H221664   0.347   5.982   4.964
 7241TIP3   OH221665   3.875   2.705   3.105
 7241TIP3    H121666   3.790   2.682   3.068
 7241TIP3    H221667   3.937   2.646   3.062
 7242TIP3   OH221668   0.111   3.082   1.963
 7242TIP3    H121669   0.181   3.022   1.936
 7242TIP3    H221670   0.030   3.030   1.953
 7243TIP3   OH221671   7.618   6.203   1.629
 7243TIP3    H121672   7.536   6.244   1.655
 7243TIP3    H221673   7.653   6.166   1.710
 7244TIP3   OH221674   7.174   6.567   1.309
 7244TIP3    H121675   7.266   6.547   1.325
 7244TIP3    H221676   7.162   6.548   1.216
 7245TIP3   OH221677   3.350   5.110   0.096
 7245TIP3    H121678   3.296   5.063   0.159
 7245TIP3    H221679   3.410   5.163   0.149
 7246TIP3   OH221680   1.734   6.505   5.511
 7246TIP3    H121681   1.765   6.420   5.541
 7246TIP3    H221682   1.688   6.487   5.429
 7247TIP3   OH221683   5.708   2.366   5.393
 7247TIP3    H121684   5.621   2.328   5.402
 7247TIP3    H221685   5.697   2.439   5.332
 7248TIP3   OH221686   8.082   1.350   5.656
 7248TIP3    H121687   8.007   1.366   5.598
 7248TIP3    H221688   8.109   1.437   5.684
 7249TIP3   OH221689   2.616   3.244   1.159
 7249TIP3    H121690   2.630   3.185   1.233
 7249TIP3    H221691   2.668   3.322   1.180
 7250TIP3   OH221692   4.946   2.845   5.088
 7250TIP3    H121693   4.927   2.937   5.069
 7250TIP3    H221694   4.909   2.830   5.175
 7251TIP3   OH221695   1.364   1.998   4.654
 7251TIP3    H121696   1.410   2.057   4.714
 7251TIP3    H221697   1.348   1.919   4.706
 7252TIP3   OH221698   6.010   2.163   3.650
 7252TIP3    H121699   5.958   2.160   3.731
 7252TIP3    H221700   6.039   2.254   3.644
 7253TIP3   OH221701   7.598   0.242   2.262
 7253TIP3    H121702   7.606   0.251   2.167
 7253TIP3    H221703   7.550   0.160   2.274
 7254TIP3   OH221704   4.736   2.304   4.450
 7254TIP3    H121705   4.801   2.348   4.395
 7254TIP3    H221706   4.657   2.357   4.440
 7255TIP3   OH221707   3.965   1.607   5.608
 7255TIP3    H121708   3.968   1.555   5.528
 7255TIP3    H221709   3.905   1.679   5.588
 7256TIP3   OH221710   6.341   5.686   2.065
 7256TIP3    H121711   6.253   5.712   2.095
 7256TIP3    H221712   6.390   5.669   2.146
 7257TIP3   OH221713   2.056   0.341   6.217
 7257TIP3    H121714   2.114   0.314   6.145
 7257TIP3    H221715   1.972   0.299   6.198
 7258TIP3   OH221716   6.125   2.956   1.456
 7258TIP3    H121717   6.073   2.996   1.525
 7258TIP3    H221718   6.061   2.908   1.403
 7259TIP3   OH221719   7.001   6.866   4.329
 7259TIP3    H121720   7.022   6.954   4.296
 7259TIP3    H221721   7.071   6.810   4.294
 7260TIP3   OH221722   3.880   2.545   4.897
 7260TIP3    H121723   3.960   2.522   4.850
 7260TIP3    H221724   3.880   2.641   4.900
 7261TIP3   OH221725   4.311   6.621   1.520
 7261TIP3    H121726   4.236   6.622   1.579
 7261TIP3    H221727   4.286   6.680   1.449
 7262TIP3   OH221728   2.279   3.807   6.236
 7262TIP3    H121729   2.318   3.837   6.317
 7262TIP3    H221730   2.255   3.715   6.253
 7263TIP3   OH221731   1.813   5.586   5.345
 7263TIP3    H121732   1.799   5.491   5.348
 7263TIP3    H221733   1.750   5.616   5.279
 7264TIP3   OH221734   6.499   1.591   4.057
 7264TIP3    H121735   6.560   1.641   4.111
 7264TIP3    H221736   6.477   1.650   3.985
 7265TIP3   OH221737   1.397   3.997   5.055
 7265TIP3    H121738   1.317   4.005   5.004
 7265TIP3    H221739   1.389   4.065   5.123
 7266TIP3   OH221740   4.382   2.300   1.648
 7266TIP3    H121741   4.383   2.285   1.743
 7266TIP3    H221742   4.292   2.327   1.630
 7267TIP3   OH221743   2.658   2.443   0.544
 7267TIP3    H121744   2.649   2.512   0.477
 7267TIP3    H221745   2.751   2.420   0.541
 7268TIP3   OH221746   0.685   2.962   4.017
 7268TIP3    H121747   0.718   2.909   3.944
 7268TIP3    H221748   0.757   3.023   4.036
 7269TIP3   OH221749   5.242   4.735   4.419
 7269TIP3    H121750   5.273   4.713   4.331
 7269TIP3    H221751   5.294   4.811   4.445
 7270TIP3   OH221752   1.339   4.271   0.342
 7270TIP3    H121753   1.286   4.215   0.285
 7270TIP3    H221754   1.276   4.309   0.403
 7271TIP3   OH221755   5.430   2.324   5.448
 7271TIP3    H121756   5.367   2.358   5.385
 7271TIP3    H221757   5.384   2.325   5.532
 7272TIP3   OH221758   0.603   2.537   4.879
 7272TIP3    H121759   0.627   2.562   4.790
 7272TIP3    H221760   0.583   2.444   4.874
 7273TIP3   OH221761   0.180   4.886   1.574
 7273TIP3    H121762   0.191   4.912   1.482
 7273TIP3    H221763   0.268   4.866   1.605
 7274TIP3   OH221764   1.701   3.732   4.195
 7274TIP3    H121765   1.718   3.767   4.283
 7274TIP3    H221766   1.616   3.769   4.171
 7275TIP3   OH221767   4.809   6.184   3.487
 7275TIP3    H121768   4.900   6.171   3.461
 7275TIP3    H221769   4.761   6.195   3.405
 7276TIP3   OH221770   0.494   5.636   2.394
 7276TIP3    H121771   0.489   5.552   2.347
 7276TIP3    H221772   0.429   5.691   2.351
 7277TIP3   OH221773   4.653   5.621   5.143
 7277TIP3    H121774   4.647   5.649   5.234
 7277TIP3    H221775   4.570   5.575   5.127
 7278TIP3   OH221776   2.466   4.731   5.576
 7278TIP3    H121777   2.447   4.643   5.609
 7278TIP3    H221778   2.497   4.779   5.653
 7279TIP3   OH221779   4.172   1.813   0.639
 7279TIP3    H121780   4.145   1.749   0.705
 7279TIP3    H221781   4.227   1.875   0.687
 7280TIP3   OH221782   2.129   2.885   1.256
 7280TIP3    H121783   2.174   2.867   1.174
 7280TIP3    H221784   2.037   2.865   1.239
 7281TIP3   OH221785   1.634   4.660   6.722
 7281TIP3    H121786   1.595   4.592   6.668
 7281TIP3    H221787   1.725   4.666   6.691
 7282TIP3   OH221788   2.883   3.020   1.588
 7282TIP3    H121789   2.913   3.108   1.611
 7282TIP3    H221790   2.854   2.982   1.670
 7283TIP3   OH221791   0.827   2.384   5.685
 7283TIP3    H121792   0.891   2.442   5.644
 7283TIP3    H221793   0.880   2.318   5.730
 7284TIP3   OH221794   5.502   3.643   5.199
 7284TIP3    H121795   5.518   3.579   5.268
 7284TIP3    H221796   5.453   3.594   5.132
 7285TIP3   OH221797   5.084   0.809   3.354
 7285TIP3    H121798   5.041   0.730   3.320
 7285TIP3    H221799   5.158   0.824   3.296
 7286TIP3   OH221800   3.779   6.516   2.473
 7286TIP3    H121801   3.746   6.583   2.413
 7286TIP3    H221802   3.748   6.544   2.559
 7287TIP3   OH221803   8.093   7.302   3.474
 7287TIP3    H121804   8.008   7.333   3.505
 7287TIP3    H221805   8.157   7.345   3.531
 7288TIP3   OH221806   6.202   1.635   1.180
 7288TIP3    H121807   6.297   1.634   1.193
 7288TIP3    H221808   6.166   1.657   1.266
 7289TIP3   OH221809   6.676   3.488   2.893
 7289TIP3    H121810   6.735   3.440   2.951
 7289TIP3    H221811   6.694   3.453   2.806
 7290TIP3   OH221812   2.131   2.576   6.352
 7290TIP3    H121813   2.180   2.518   6.293
 7290TIP3    H221814   2.051   2.529   6.372
 7291TIP3   OH221815   7.453   2.097   2.492
 7291TIP3    H121816   7.483   2.187   2.501
 7291TIP3    H221817   7.440   2.084   2.398
 7292TIP3   OH221818   0.463   4.018   4.202
 7292TIP3    H121819   0.401   4.011   4.129
 7292TIP3    H221820   0.413   4.060   4.272
 7293TIP3   OH221821   5.103   3.364   3.325
 7293TIP3    H121822   5.188   3.379   3.366
 7293TIP3    H221823   5.118   3.293   3.263
 7294TIP3   OH221824   3.372   6.672   1.369
 7294TIP3    H121825   3.381   6.611   1.442
 7294TIP3    H221826   3.434   6.641   1.303
 7295TIP3   OH221827   0.629   0.433   4.838
 7295TIP3    H121828   0.536   0.421   4.856
 7295TIP3    H221829   0.662   0.480   4.915
 7296TIP3   OH221830   5.782   2.504   3.243
 7296TIP3    H121831   5.814   2.465   3.161
 7296TIP3    H221832   5.848   2.479   3.308
 7297TIP3   OH221833   5.102   3.246   5.039
 7297TIP3    H121834   5.020   3.203   5.017
 7297TIP3    H221835   5.127   3.293   4.959
 7298TIP3   OH221836   1.221   7.372   5.636
 7298TIP3    H121837   1.255   7.284   5.626
 7298TIP3    H221838   1.174   7.370   5.720
 7299TIP3   OH221839   7.911   2.218   1.507
 7299TIP3    H121840   8.002   2.196   1.485
 7299TIP3    H221841   7.916   2.306   1.544
 7300TIP3   OH221842   0.440   4.185   2.277
 7300TIP3    H121843   0.382   4.126   2.326
 7300TIP3    H221844   0.485   4.235   2.344
 7301TIP3   OH221845   1.055   5.435   4.116
 7301TIP3    H121846   1.010   5.469   4.193
 7301TIP3    H221847   1.087   5.349   4.143
 7302TIP3   OH221848   1.441   7.145   2.550
 7302TIP3    H121849   1.448   7.061   2.505
 7302TIP3    H221850   1.347   7.160   2.559
 7303TIP3   OH221851   4.786   3.629   2.215
 7303TIP3    H121852   4.822   3.704   2.262
 7303TIP3    H221853   4.695   3.623   2.246
 7304TIP3   OH221854   0.116   3.288   1.750
 7304TIP3    H121855   0.105   3.207   1.800
 7304TIP3    H221856   0.032   3.332   1.756
 7305TIP3   OH221857   8.166   3.652   1.190
 7305TIP3    H121858   8.194   3.632   1.101
 7305TIP3    H221859   8.179   3.747   1.198
 7306TIP3   OH221860   2.960   3.507   6.386
 7306TIP3    H121861   2.995   3.507   6.297
 7306TIP3    H221862   2.971   3.597   6.416
 7307TIP3   OH221863   5.678   0.531   2.755
 7307TIP3    H121864   5.626   0.555   2.678
 7307TIP3    H221865   5.689   0.614   2.803
 7308TIP3   OH221866   5.631   0.349   1.763
 7308TIP3    H121867   5.593   0.434   1.740
 7308TIP3    H221868   5.687   0.328   1.688
 7309TIP3   OH221869   7.055   2.247   0.358
 7309TIP3    H121870   7.059   2.158   0.394
 7309TIP3    H221871   7.006   2.238   0.276
 7310TIP3   OH221872   3.818   3.283   3.973
 7310TIP3    H121873   3.875   3.284   3.897
 7310TIP3    H221874   3.877   3.296   4.047
 7311TIP3   OH221875   4.621   3.020   6.309
 7311TIP3    H121876   4.654   2.932   6.292
 7311TIP3    H221877   4.532   3.020   6.273
 7312TIP3   OH221878   5.281   4.751   1.721
 7312TIP3    H121879   5.188   4.761   1.700
 7312TIP3    H221880   5.320   4.713   1.643
 7313TIP3   OH221881   6.346   4.405   1.556
 7313TIP3    H121882   6.427   4.358   1.572
 7313TIP3    H221883   6.340   4.411   1.460
 7314TIP3   OH221884   5.015   7.127   3.185
 7314TIP3    H121885   5.010   7.221   3.167
 7314TIP3    H221886   5.021   7.086   3.098
 7315TIP3   OH221887   7.510   5.673   3.693
 7315TIP3    H121888   7.451   5.622   3.749
 7315TIP3    H221889   7.579   5.703   3.751
 7316TIP3   OH221890   4.611   4.972   6.818
 7316TIP3    H121891   4.605   4.880   6.844
 7316TIP3    H221892   4.588   4.973   6.725
 7317TIP3   OH221893   5.743   6.262   4.741
 7317TIP3    H121894   5.671   6.228   4.687
 7317TIP3    H221895   5.805   6.190   4.747
 7318TIP3   OH221896   1.997   4.342   0.000
 7318TIP3    H121897   2.008   4.252   0.028
 7318TIP3    H221898   1.908   4.365   0.027
 7319TIP3   OH221899   5.452   6.232   6.659
 7319TIP3    H121900   5.378   6.273   6.704
 7319TIP3    H221901   5.498   6.305   6.618
 7320TIP3   OH221902   6.958   4.423   6.804
 7320TIP3    H121903   7.015   4.359   6.762
 7320TIP3    H221904   6.926   4.478   6.733
 7321TIP3   OH221905   1.981   2.634   0.798
 7321TIP3    H121906   1.993   2.697   0.869
 7321TIP3    H221907   2.069   2.600   0.781
 7322TIP3   OH221908   2.298   6.544   3.173
 7322TIP3    H121909   2.329   6.570   3.259
 7322TIP3    H221910   2.209   6.580   3.167
 7323TIP3   OH221911   6.711   6.499   2.472
 7323TIP3    H121912   6.692   6.474   2.562
 7323TIP3    H221913   6.656   6.576   2.456
 7324TIP3   OH221914   7.936   3.576   0.096
 7324TIP3    H121915   7.994   3.636   0.050
 7324TIP3    H221916   7.889   3.530   0.027
 7325TIP3   OH221917   0.642   1.727   1.481
 7325TIP3    H121918   0.588   1.760   1.553
 7325TIP3    H221919   0.729   1.762   1.497
 7326TIP3   OH221920   2.745   5.981   2.948
 7326TIP3    H121921   2.691   6.033   2.889
 7326TIP3    H221922   2.712   6.002   3.035
 7327TIP3   OH221923   2.704   6.069   1.611
 7327TIP3    H121924   2.766   6.059   1.683
 7327TIP3    H221925   2.757   6.098   1.537
 7328TIP3   OH221926   4.940   3.704   4.009
 7328TIP3    H121927   4.870   3.764   3.986
 7328TIP3    H221928   5.002   3.710   3.937
 7329TIP3   OH221929   7.996   2.065   3.937
 7329TIP3    H121930   8.010   2.087   4.029
 7329TIP3    H221931   8.063   2.000   3.918
 7330TIP3   OH221932   7.533   6.215   0.721
 7330TIP3    H121933   7.443   6.186   0.736
 7330TIP3    H221934   7.527   6.274   0.646
 7331TIP3   OH221935   7.182   7.624   2.811
 7331TIP3    H121936   7.114   7.557   2.825
 7331TIP3    H221937   7.264   7.574   2.814
 7332TIP3   OH221938   5.545   1.546   1.741
 7332TIP3    H121939   5.610   1.475   1.740
 7332TIP3    H221940   5.478   1.515   1.802
 7333TIP3   OH221941   0.063   5.956   3.989
 7333TIP3    H121942   0.078   5.862   3.992
 7333TIP3    H221943   0.012   5.970   3.909
 7334TIP3   OH221944   0.093   0.021   1.942
 7334TIP3    H121945   0.101  -0.074   1.943
 7334TIP3    H221946   0.062   0.042   1.854
 7335TIP3   OH221947   6.974   3.285   5.463
 7335TIP3    H121948   6.910   3.308   5.395
 7335TIP3    H221949   6.932   3.310   5.545
 7336TIP3   OH221950   7.920   6.256   0.954
 7336TIP3    H121951   7.861   6.248   1.030
 7336TIP3    H221952   8.008   6.255   0.992
 7337TIP3   OH221953   5.170   0.128   3.010
 7337TIP3    H121954   5.213   0.052   3.048
 7337TIP3    H221955   5.232   0.161   2.945
 7338TIP3   OH221956   0.250   3.671   6.216
 7338TIP3    H121957   0.259   3.593   6.270
 7338TIP3    H221958   0.211   3.736   6.275
 7339TIP3   OH221959   7.603   4.459   0.197
 7339TIP3    H121960   7.689   4.443   0.158
 7339TIP3    H221961   7.542   4.456   0.123
 7340TIP3   OH221962   8.310   0.427   4.553
 7340TIP3    H121963   8.331   0.469   4.637
 7340TIP3    H221964   8.224   0.387   4.567
 7341TIP3   OH221965   7.497   0.155   1.647
 7341TIP3    H121966   7.587   0.165   1.616
 7341TIP3    H221967   7.507   0.137   1.741
 7342TIP3   OH221968   0.138   7.404   1.951
 7342TIP3    H121969   0.136   7.494   1.982
 7342TIP3    H221970   0.224   7.395   1.910
 7343TIP3   OH221971   4.311   7.463   0.811
 7343TIP3    H121972   4.335   7.555   0.820
 7343TIP3    H221973   4.225   7.465   0.768
 7344TIP3   OH221974   0.510   7.713   4.582
 7344TIP3    H121975   0.567   7.643   4.616
 7344TIP3    H221976   0.441   7.721   4.648
 7345TIP3   OH221977   6.948   6.500   0.633
 7345TIP3    H121978   6.911   6.439   0.697
 7345TIP3    H221979   6.944   6.585   0.677
 7346TIP3   OH221980   6.835   4.281   5.050
 7346TIP3    H121981   6.797   4.219   4.987
 7346TIP3    H221982   6.763   4.342   5.069
 7347TIP3   OH221983   4.899   7.751   3.609
 7347TIP3    H121984   4.924   7.833   3.653
 7347TIP3    H221985   4.815   7.728   3.648
 7348TIP3   OH221986   2.018   7.513   2.437
 7348TIP3    H121987   2.010   7.454   2.362
 7348TIP3    H221988   2.100   7.486   2.480
 7349TIP3   OH221989   4.098   1.066   4.281
 7349TIP3    H121990   4.020   1.091   4.230
 7349TIP3    H221991   4.167   1.056   4.215
 7350TIP3   OH221992   3.313   4.469   2.495
 7350TIP3    H121993   3.353   4.517   2.568
 7350TIP3    H221994   3.248   4.412   2.536
 7351TIP3   OH221995   4.242   2.356   6.182
 7351TIP3    H121996   4.247   2.261   6.179
 7351TIP3    H221997   4.286   2.380   6.263
 7352TIP3   OH221998   5.484   2.749   2.862
 7352TIP3    H121999   5.488   2.820   2.926
 7352TIP3    H222000   5.404   2.702   2.883
 7353TIP3   OH222001   5.756   5.773   5.010
 7353TIP3    H122002   5.708   5.839   4.960
 7353TIP3    H222003   5.847   5.785   4.985
 7354TIP3   OH222004   5.582   7.493   0.208
 7354TIP3    H122005   5.615   7.442   0.134
 7354TIP3    H222006   5.607   7.442   0.285
 7355TIP3   OH222007   3.149   2.012   6.358
 7355TIP3    H122008   3.225   2.014   6.417
 7355TIP3    H222009   3.139   1.920   6.335
 7356TIP3   OH222010   0.310   6.537   3.610
 7356TIP3    H122011   0.277   6.520   3.698
 7356TIP3    H222012   0.247   6.599   3.573
 7357TIP3   OH222013   2.047   3.970   4.903
 7357TIP3    H122014   2.072   3.921   4.825
 7357TIP3    H222015   2.111   4.041   4.908
 7358TIP3   OH222016   5.938   7.199   2.439
 7358TIP3    H122017   5.990   7.262   2.489
 7358TIP3    H222018   5.860   7.185   2.493
 7359TIP3   OH222019   7.685   5.026   0.558
 7359TIP3    H122020   7.596   5.047   0.588
 7359TIP3    H222021   7.742   5.052   0.630
 7360TIP3   OH222022   2.080   5.363   5.294
 7360TIP3    H122023   2.091   5.442   5.241
 7360TIP3    H222024   1.991   5.334   5.275
 7361TIP3   OH222025   2.138   3.242   6.493
 7361TIP3    H122026   2.212   3.214   6.440
 7361TIP3    H222027   2.123   3.170   6.554
 7362TIP3   OH222028   0.103   4.261   0.644
 7362TIP3    H122029   0.038   4.299   0.704
 7362TIP3    H222030   0.169   4.223   0.702
 7363TIP3   OH222031   5.158   2.329   2.815
 7363TIP3    H122032   5.125   2.311   2.727
 7363TIP3    H222033   5.216   2.255   2.834
 7364TIP3   OH222034   2.156   5.085   2.362
 7364TIP3    H122035   2.105   5.098   2.441
 7364TIP3    H222036   2.204   5.003   2.377
 7365TIP3   OH222037   1.816   6.256   5.643
 7365TIP3    H122038   1.814   6.169   5.603
 7365TIP3    H222039   1.909   6.277   5.651
 7366TIP3   OH222040   6.827   1.246   0.375
 7366TIP3    H122041   6.756   1.229   0.437
 7366TIP3    H222042   6.805   1.195   0.298
 7367TIP3   OH222043   2.557   4.850   3.555
 7367TIP3    H122044   2.516   4.906   3.622
 7367TIP3    H222045   2.495   4.849   3.483
 7368TIP3   OH222046   4.251   3.061   2.299
 7368TIP3    H122047   4.173   3.054   2.354
 7368TIP3    H222048   4.258   3.155   2.280
 7369TIP3   OH222049   5.720   7.458   3.753
 7369TIP3    H122050   5.790   7.395   3.766
 7369TIP3    H222051   5.642   7.404   3.735
 7370TIP3   OH222052   6.199   2.079   1.009
 7370TIP3    H122053   6.119   2.131   1.021
 7370TIP3    H222054   6.236   2.070   1.097
 7371TIP3   OH222055   7.449   5.506   0.338
 7371TIP3    H122056   7.508   5.434   0.313
 7371TIP3    H222057   7.434   5.553   0.257
 7372TIP3   OH222058   2.562   3.779   0.533
 7372TIP3    H122059   2.520   3.807   0.451
 7372TIP3    H222060   2.493   3.784   0.598
 7373TIP3   OH222061   8.116   3.825   6.131
 7373TIP3    H122062   8.106   3.810   6.225
 7373TIP3    H222063   8.184   3.892   6.124
 7374TIP3   OH222064   0.680   3.352   1.986
 7374TIP3    H122065   0.640   3.376   1.903
 7374TIP3    H222066   0.607   3.319   2.039
 7375TIP3   OH222067   4.018   5.788   2.080
 7375TIP3    H122068   4.098   5.734   2.076
 7375TIP3    H222069   3.947   5.725   2.083
 7376TIP3   OH222070   7.974   6.314   6.774
 7376TIP3    H122071   8.029   6.337   6.699
 7376TIP3    H222072   8.004   6.227   6.800
 7377TIP3   OH222073   6.576   1.349   1.297
 7377TIP3    H122074   6.578   1.260   1.331
 7377TIP3    H222075   6.653   1.391   1.337
 7378TIP3   OH222076   6.085   3.884   2.610
 7378TIP3    H122077   6.063   3.821   2.679
 7378TIP3    H222078   6.156   3.937   2.648
 7379TIP3   OH222079   0.131   5.856   5.990
 7379TIP3    H122080   0.083   5.827   5.912
 7379TIP3    H222081   0.223   5.837   5.970
 7380TIP3   OH222082   5.764   6.193   6.359
 7380TIP3    H122083   5.849   6.161   6.388
 7380TIP3    H222084   5.715   6.207   6.440
 7381TIP3   OH222085   6.259   1.949   5.028
 7381TIP3    H122086   6.175   1.954   5.074
 7381TIP3    H222087   6.249   2.009   4.954
 7382TIP3   OH222088   4.006   2.928   1.098
 7382TIP3    H122089   3.994   2.955   1.189
 7382TIP3    H222090   4.083   2.975   1.069
 7383TIP3   OH222091   0.329   6.782   5.318
 7383TIP3    H122092   0.237   6.761   5.335
 7383TIP3    H222093   0.372   6.696   5.310
 7384TIP3   OH222094   7.826   6.300   1.816
 7384TIP3    H122095   7.874   6.269   1.738
 7384TIP3    H222096   7.893   6.344   1.869
 7385TIP3   OH222097   6.733   2.539   4.857
 7385TIP3    H122098   6.708   2.450   4.832
 7385TIP3    H222099   6.781   2.572   4.782
 7386TIP3   OH222100   2.651   0.797   3.789
 7386TIP3    H122101   2.703   0.725   3.825
 7386TIP3    H222102   2.581   0.754   3.740
 7387TIP3   OH222103   2.593   2.866   0.076
 7387TIP3    H122104   2.581   2.917   0.156
 7387TIP3    H222105   2.684   2.836   0.080
 7388TIP3   OH222106   8.238   4.805   5.912
 7388TIP3    H122107   8.314   4.764   5.871
 7388TIP3    H222108   8.224   4.886   5.863
 7389TIP3   OH222109   6.085  -0.006   6.062
 7389TIP3    H122110   6.144  -0.051   6.122
 7389TIP3    H222111   6.087   0.086   6.090
 7390TIP3   OH222112   6.052   3.437   6.055
 7390TIP3    H122113   6.039   3.366   5.992
 7390TIP3    H222114   6.080   3.511   6.001
 7391TIP3   OH222115   6.715   4.537   5.838
 7391TIP3    H122116   6.624   4.536   5.810
 7391TIP3    H222117   6.732   4.628   5.862
 7392TIP3   OH222118   3.460   1.456   0.065
 7392TIP3    H122119   3.449   1.538   0.018
 7392TIP3    H222120   3.555   1.451   0.081
 7393TIP3   OH222121   6.192   0.726   5.198
 7393TIP3    H122122   6.264   0.760   5.146
 7393TIP3    H222123   6.153   0.804   5.237
 7394TIP3   OH222124   0.744   2.600   5.830
 7394TIP3    H122125   0.689   2.565   5.900
 7394TIP3    H222126   0.753   2.528   5.768
 7395TIP3   OH222127   4.572   7.343   3.871
 7395TIP3    H122128   4.657   7.307   3.845
 7395TIP3    H222129   4.536   7.379   3.790
 7396TIP3   OH222130   3.229   7.624   2.164
 7396TIP3    H122131   3.214   7.637   2.070
 7396TIP3    H222132   3.281   7.543   2.168
 7397TIP3   OH222133   6.034   3.215   2.269
 7397TIP3    H122134   6.079   3.150   2.323
 7397TIP3    H222135   5.970   3.255   2.328
 7398TIP3   OH222136   4.013   6.653   3.835
 7398TIP3    H122137   4.054   6.608   3.761
 7398TIP3    H222138   3.979   6.734   3.797
 7399TIP3   OH222139   3.482   3.380   0.938
 7399TIP3    H122140   3.538   3.306   0.912
 7399TIP3    H222141   3.394   3.344   0.939
 7400TIP3   OH222142   4.429   0.126   3.183
 7400TIP3    H122143   4.451   0.117   3.090
 7400TIP3    H222144   4.429   0.220   3.198
 7401TIP3   OH222145   3.996   2.184   0.206
 7401TIP3    H122146   4.016   2.213   0.117
 7401TIP3    H222147   3.929   2.244   0.237
 7402TIP3   OH222148   4.911   1.585   0.338
 7402TIP3    H122149   4.907   1.562   0.431
 7402TIP3    H222150   4.967   1.519   0.299
 7403TIP3   OH222151   4.298   2.672   3.072
 7403TIP3    H122152   4.233   2.738   3.092
 7403TIP3    H222153   4.252   2.610   3.015
 7404TIP3   OH222154   5.823   3.214   2.475
 7404TIP3    H122155   5.739   3.254   2.454
 7404TIP3    H222156   5.837   3.235   2.568
 7405TIP3   OH222157   2.159   1.615   0.952
 7405TIP3    H122158   2.106   1.554   0.902
 7405TIP3    H222159   2.131   1.702   0.923
 7406TIP3   OH222160   7.556   1.983   3.225
 7406TIP3    H122161   7.487   1.996   3.160
 7406TIP3    H222162   7.535   1.898   3.265
 7407TIP3   OH222163   3.391   7.162   0.761
 7407TIP3    H122164   3.483   7.138   0.752
 7407TIP3    H222165   3.373   7.218   0.686
 7408TIP3   OH222166   6.970   2.819   6.314
 7408TIP3    H122167   6.948   2.909   6.294
 7408TIP3    H222168   6.993   2.820   6.407
 7409TIP3   OH222169   1.902   6.780   1.064
 7409TIP3    H122170   1.989   6.808   1.034
 7409TIP3    H222171   1.883   6.837   1.138
 7410TIP3   OH222172   6.199   4.903   3.887
 7410TIP3    H122173   6.178   4.854   3.808
 7410TIP3    H222174   6.295   4.910   3.886
 7411TIP3   OH222175   7.705   3.922   0.083
 7411TIP3    H122176   7.761   3.960   0.150
 7411TIP3    H222177   7.638   3.988   0.067
 7412TIP3   OH222178   4.736   2.778   6.321
 7412TIP3    H122179   4.815   2.735   6.290
 7412TIP3    H222180   4.669   2.709   6.322
 7413TIP3   OH222181   1.451   0.214   0.642
 7413TIP3    H122182   1.464   0.287   0.703
 7413TIP3    H222183   1.529   0.216   0.586
 7414TIP3   OH222184   1.369   4.326   3.968
 7414TIP3    H122185   1.299   4.390   3.983
 7414TIP3    H222186   1.446   4.380   3.947
 7415TIP3   OH222187   1.221   7.561   1.361
 7415TIP3    H122188   1.244   7.557   1.454
 7415TIP3    H222189   1.288   7.510   1.316
 7416TIP3   OH222190   4.250   7.390   0.385
 7416TIP3    H122191   4.195   7.343   0.322
 7416TIP3    H222192   4.244   7.482   0.359
 7417TIP3   OH222193   7.065   3.579   1.685
 7417TIP3    H122194   7.107   3.542   1.607
 7417TIP3    H222195   6.975   3.599   1.657
 7418TIP3   OH222196   5.592   2.000   2.019
 7418TIP3    H122197   5.610   1.921   1.968
 7418TIP3    H222198   5.653   1.995   2.093
 7419TIP3   OH222199   5.390   1.620   3.086
 7419TIP3    H122200   5.403   1.567   3.007
 7419TIP3    H222201   5.347   1.561   3.148
 7420TIP3   OH222202   1.320   7.405   6.264
 7420TIP3    H122203   1.290   7.433   6.350
 7420TIP3    H222204   1.416   7.406   6.270
 7421TIP3   OH222205   5.270   0.541   0.543
 7421TIP3    H122206   5.263   0.636   0.542
 7421TIP3    H222207   5.184   0.510   0.514
 7422TIP3   OH222208   0.952   1.842   2.948
 7422TIP3    H122209   1.044   1.818   2.936
 7422TIP3    H222210   0.913   1.826   2.862
 7423TIP3   OH222211   0.760   0.406   5.551
 7423TIP3    H122212   0.699   0.480   5.555
 7423TIP3    H222213   0.817   0.418   5.626
 7424TIP3   OH222214   0.448   1.555   6.239
 7424TIP3    H122215   0.414   1.641   6.263
 7424TIP3    H222216   0.538   1.554   6.269
 7425TIP3   OH222217   7.481   3.219   6.640
 7425TIP3    H122218   7.534   3.238   6.718
 7425TIP3    H222219   7.526   3.264   6.569
 7426TIP3   OH222220   1.718   0.257   4.143
 7426TIP3    H122221   1.720   0.294   4.231
 7426TIP3    H222222   1.667   0.176   4.151
 7427TIP3   OH222223   2.300   3.839   2.051
 7427TIP3    H122224   2.344   3.910   2.098
 7427TIP3    H222225   2.285   3.874   1.963
 7428TIP3   OH222226   0.909   1.825   1.544
 7428TIP3    H122227   0.968   1.842   1.617
 7428TIP3    H222228   0.933   1.890   1.478
 7429TIP3   OH222229   5.554   0.203   6.254
 7429TIP3    H122230   5.608   0.162   6.322
 7429TIP3    H222231   5.480   0.143   6.243
 7430TIP3   OH222232   6.926   2.272   3.976
 7430TIP3    H122233   6.927   2.177   3.989
 7430TIP3    H222234   6.965   2.284   3.889
 7431TIP3   OH222235   3.578   1.152   6.477
 7431TIP3    H122236   3.555   1.105   6.397
 7431TIP3    H222237   3.530   1.235   6.472
 7432TIP3   OH222238   6.853   1.982   2.384
 7432TIP3    H122239   6.760   1.969   2.366
 7432TIP3    H222240   6.879   2.055   2.328
 7433TIP3   OH222241   4.015   7.409   5.466
 7433TIP3    H122242   4.078   7.446   5.404
 7433TIP3    H222243   4.058   7.414   5.551
 7434TIP3   OH222244   0.282   1.398   4.096
 7434TIP3    H122245   0.329   1.317   4.117
 7434TIP3    H222246   0.278   1.445   4.180
 7435TIP3   OH222247   7.972   1.267   3.508
 7435TIP3    H122248   8.002   1.317   3.433
 7435TIP3    H222249   7.877   1.279   3.509
 7436TIP3   OH222250   5.246   7.066   5.093
 7436TIP3    H122251   5.259   7.157   5.066
 7436TIP3    H222252   5.333   7.037   5.120
 7437TIP3   OH222253   2.182   1.637   4.891
 7437TIP3    H122254   2.164   1.653   4.799
 7437TIP3    H222255   2.112   1.681   4.938
 7438TIP3   OH222256   5.906   4.009   5.784
 7438TIP3    H122257   5.933   4.079   5.725
 7438TIP3    H222258   5.829   3.970   5.742
 7439TIP3   OH222259   5.690   6.201   4.121
 7439TIP3    H122260   5.653   6.144   4.187
 7439TIP3    H222261   5.627   6.199   4.049
 7440TIP3   OH222262   1.420   2.833   5.229
 7440TIP3    H122263   1.471   2.806   5.153
 7440TIP3    H222264   1.330   2.811   5.208
 7441TIP3   OH222265   7.899   4.173   6.646
 7441TIP3    H122266   7.832   4.110   6.671
 7441TIP3    H222267   7.862   4.259   6.669
 7442TIP3   OH222268   5.966   1.539   2.647
 7442TIP3    H122269   6.017   1.473   2.694
 7442TIP3    H222270   5.880   1.538   2.690
 7443TIP3   OH222271   3.262   7.795   2.705
 7443TIP3    H122272   3.333   7.769   2.764
 7443TIP3    H222273   3.206   7.718   2.700
 7444TIP3   OH222274   5.250   1.522   2.826
 7444TIP3    H122275   5.290   1.479   2.750
 7444TIP3    H222276   5.199   1.593   2.788
 7445TIP3   OH222277   7.150   5.054   5.605
 7445TIP3    H122278   7.084   5.122   5.592
 7445TIP3    H222279   7.203   5.058   5.525
 7446TIP3   OH222280   3.799   3.516   0.464
 7446TIP3    H122281   3.740   3.582   0.501
 7446TIP3    H222282   3.885   3.539   0.499
 7447TIP3   OH222283   7.770   3.403   2.992
 7447TIP3    H122284   7.805   3.365   2.911
 7447TIP3    H222285   7.689   3.355   3.008
 7448TIP3   OH222286   5.573   5.546   3.428
 7448TIP3    H122287   5.642   5.593   3.382
 7448TIP3    H222288   5.610   5.528   3.514
 7449TIP3   OH222289   4.303   5.688   2.030
 7449TIP3    H122290   4.308   5.777   1.995
 7449TIP3    H222291   4.354   5.636   1.969
 7450TIP3   OH222292   6.496   7.536   6.532
 7450TIP3    H122293   6.507   7.622   6.572
 7450TIP3    H222294   6.401   7.522   6.532
 7451TIP3   OH222295   4.986   3.125   0.461
 7451TIP3    H122296   4.924   3.147   0.391
 7451TIP3    H222297   4.970   3.190   0.529
 7452TIP3   OH222298   0.965   3.324   4.149
 7452TIP3    H122299   1.051   3.310   4.189
 7452TIP3    H222300   0.945   3.241   4.105
 7453TIP3   OH222301   1.295   7.553   2.572
 7453TIP3    H122302   1.280   7.479   2.630
 7453TIP3    H222303   1.237   7.622   2.606
 7454TIP3   OH222304   5.830   0.752   1.828
 7454TIP3    H122305   5.844   0.775   1.736
 7454TIP3    H222306   5.862   0.662   1.836
 7455TIP3   OH222307   6.513   4.798   6.016
 7455TIP3    H122308   6.429   4.783   5.973
 7455TIP3    H222309   6.500   4.764   6.105
 7456TIP3   OH222310   5.712   6.630   5.903
 7456TIP3    H122311   5.654   6.697   5.865
 7456TIP3    H222312   5.716   6.562   5.836
 7457TIP3   OH222313   2.843   6.274   0.608
 7457TIP3    H122314   2.909   6.335   0.642
 7457TIP3    H222315   2.826   6.303   0.519
 7458TIP3   OH222316   3.292   6.079   6.766
 7458TIP3    H122317   3.213   6.040   6.727
 7458TIP3    H222318   3.307   6.028   6.846
 7459TIP3   OH222319   8.269   7.292   0.928
 7459TIP3    H122320   8.292   7.229   0.995
 7459TIP3    H222321   8.221   7.241   0.862
 7460TIP3   OH222322   3.331   1.789   5.287
 7460TIP3    H122323   3.278   1.808   5.210
 7460TIP3    H222324   3.284   1.829   5.360
 7461TIP3   OH222325   6.927   2.149   6.465
 7461TIP3    H122326   6.863   2.214   6.435
 7461TIP3    H222327   6.876   2.068   6.475
 7462TIP3   OH222328   1.074   2.102   6.109
 7462TIP3    H122329   1.100   2.190   6.083
 7462TIP3    H222330   0.983   2.094   6.082
 7463TIP3   OH222331   2.005   4.198   4.702
 7463TIP3    H122332   1.974   4.182   4.791
 7463TIP3    H222333   1.963   4.280   4.676
 7464TIP3   OH222334   2.215   2.978   2.104
 7464TIP3    H122335   2.220   3.017   2.017
 7464TIP3    H222336   2.252   2.890   2.092
 7465TIP3   OH222337   3.442   3.663   4.052
 7465TIP3    H122338   3.462   3.614   4.132
 7465TIP3    H222339   3.484   3.614   3.982
 7466TIP3   OH222340   6.819   2.005   4.433
 7466TIP3    H122341   6.736   1.958   4.441
 7466TIP3    H222342   6.819   2.067   4.507
 7467TIP3   OH222343   8.295   3.793   3.127
 7467TIP3    H122344   8.345   3.802   3.046
 7467TIP3    H222345   8.215   3.844   3.111
 7468TIP3   OH222346   2.825   0.354   4.833
 7468TIP3    H122347   2.755   0.414   4.861
 7468TIP3    H222348   2.816   0.279   4.892
 7469TIP3   OH222349   2.649   1.109   1.846
 7469TIP3    H122350   2.683   1.195   1.821
 7469TIP3    H222351   2.557   1.110   1.817
 7470TIP3   OH222352   2.842   2.942   0.747
 7470TIP3    H122353   2.756   2.984   0.742
 7470TIP3    H222354   2.887   2.969   0.667
 7471TIP3   OH222355   4.434   1.997   1.885
 7471TIP3    H122356   4.383   1.961   1.812
 7471TIP3    H222357   4.502   1.931   1.901
 7472TIP3   OH222358   3.335   5.996   0.523
 7472TIP3    H122359   3.254   6.037   0.492
 7472TIP3    H222360   3.357   5.932   0.455
 7473TIP3   OH222361   7.689   1.652   5.220
 7473TIP3    H122362   7.691   1.658   5.125
 7473TIP3    H222363   7.636   1.575   5.239
 7474TIP3   OH222364   3.957   3.762   4.122
 7474TIP3    H122365   3.996   3.849   4.118
 7474TIP3    H222366   3.954   3.732   4.031
 7475TIP3   OH222367   4.795   4.796   4.418
 7475TIP3    H122368   4.734   4.723   4.430
 7475TIP3    H222369   4.802   4.806   4.323
 7476TIP3   OH222370   2.353   3.726   0.710
 7476TIP3    H122371   2.377   3.684   0.793
 7476TIP3    H222372   2.279   3.782   0.731
 7477TIP3   OH222373   0.534   5.536   2.644
 7477TIP3    H122374   0.497   5.564   2.560
 7477TIP3    H222375   0.542   5.617   2.695
 7478TIP3   OH222376   4.541   2.775   0.633
 7478TIP3    H122377   4.569   2.746   0.719
 7478TIP3    H222378   4.587   2.858   0.620
 7479TIP3   OH222379   7.454   6.976   0.444
 7479TIP3    H122380   7.420   7.041   0.382
 7479TIP3    H222381   7.482   6.903   0.390
 7480TIP3   OH222382   3.898   4.338   4.139
 7480TIP3    H122383   3.874   4.247   4.122
 7480TIP3    H222384   3.927   4.372   4.055
 7481TIP3   OH222385   3.767   7.002   1.179
 7481TIP3    H122386   3.775   7.091   1.144
 7481TIP3    H222387   3.848   6.989   1.229
 7482TIP3   OH222388   6.094   5.554   5.739
 7482TIP3    H122389   6.039   5.495   5.688
 7482TIP3    H222390   6.056   5.554   5.826
 7483TIP3   OH222391   5.051   0.046   4.992
 7483TIP3    H122392   5.086   0.131   4.965
 7483TIP3    H222393   5.125  -0.015   4.984
 7484TIP3   OH222394   2.653   7.601   5.051
 7484TIP3    H122395   2.615   7.525   5.007
 7484TIP3    H222396   2.584   7.666   5.050
 7485TIP3   OH222397   7.309   0.587   2.057
 7485TIP3    H122398   7.386   0.561   2.007
 7485TIP3    H222399   7.277   0.665   2.013
 7486TIP3   OH222400   2.049   5.677   2.499
 7486TIP3    H122401   2.006   5.693   2.416
 7486TIP3    H222402   2.106   5.602   2.482
 7487TIP3   OH222403   2.422   4.040   6.117
 7487TIP3    H122404   2.497   4.018   6.062
 7487TIP3    H222405   2.391   3.955   6.150
 7488TIP3   OH222406   7.545   6.382   4.675
 7488TIP3    H122407   7.619   6.375   4.735
 7488TIP3    H222408   7.483   6.316   4.704
 7489TIP3   OH222409   6.494   0.712   6.341
 7489TIP3    H122410   6.581   0.741   6.367
 7489TIP3    H222411   6.471   0.644   6.404
 7490TIP3   OH222412   2.006   4.314   3.669
 7490TIP3    H122413   1.919   4.354   3.669
 7490TIP3    H222414   2.066   4.386   3.690
 7491TIP3   OH222415   2.270   4.065   3.566
 7491TIP3    H122416   2.254   4.141   3.510
 7491TIP3    H222417   2.185   4.042   3.602
 7492TIP3   OH222418   4.156   1.826   1.143
 7492TIP3    H122419   4.067   1.829   1.178
 7492TIP3    H222420   4.204   1.893   1.191
 7493TIP3   OH222421   5.773   2.782   0.278
 7493TIP3    H122422   5.685   2.754   0.256
 7493TIP3    H222423   5.817   2.703   0.310
 7494TIP3   OH222424   8.055   2.610   0.957
 7494TIP3    H122425   8.132   2.654   0.994
 7494TIP3    H222426   7.993   2.681   0.938
 7495TIP3   OH222427   1.493   3.916   4.111
 7495TIP3    H122428   1.522   3.997   4.152
 7495TIP3    H222429   1.397   3.923   4.109
 7496TIP3   OH222430   3.643   2.276   6.662
 7496TIP3    H122431   3.623   2.367   6.640
 7496TIP3    H222432   3.601   2.262   6.746
 7497TIP3   OH222433   7.053   5.434   1.443
 7497TIP3    H122434   7.133   5.381   1.442
 7497TIP3    H222435   7.040   5.456   1.535
 7498TIP3   OH222436   1.457   6.067   5.618
 7498TIP3    H122437   1.448   6.040   5.710
 7498TIP3    H222438   1.468   5.986   5.569
 7499TIP3   OH222439   2.231   6.884   1.854
 7499TIP3    H122440   2.189   6.970   1.862
 7499TIP3    H222441   2.307   6.900   1.799
 7500TIP3   OH222442   4.904   0.687   0.873
 7500TIP3    H122443   4.931   0.773   0.839
 7500TIP3    H222444   4.902   0.630   0.796
 7501TIP3   OH222445   0.568   5.342   5.467
 7501TIP3    H122446   0.651   5.387   5.482
 7501TIP3    H222447   0.591   5.249   5.469
 7502TIP3   OH222448   0.904   0.404   1.616
 7502TIP3    H122449   0.952   0.397   1.699
 7502TIP3    H222450   0.966   0.376   1.549
 7503TIP3   OH222451   6.283   6.932   3.462
 7503TIP3    H122452   6.255   6.955   3.551
 7503TIP3    H222453   6.344   6.859   3.474
 7504TIP3   OH222454   2.530   6.727   1.984
 7504TIP3    H122455   2.503   6.803   2.036
 7504TIP3    H222456   2.532   6.654   2.045
 7505TIP3   OH222457   5.851   3.237   4.035
 7505TIP3    H122458   5.874   3.265   3.946
 7505TIP3    H222459   5.878   3.309   4.091
 7506TIP3   OH222460   2.867   7.043   2.910
 7506TIP3    H122461   2.934   7.008   2.968
 7506TIP3    H222462   2.915   7.092   2.843
 7507TIP3   OH222463   2.215   0.278   3.348
 7507TIP3    H122464   2.302   0.244   3.327
 7507TIP3    H222465   2.205   0.355   3.292
 7508TIP3   OH222466   2.878   1.914   6.655
 7508TIP3    H122467   2.960   1.908   6.704
 7508TIP3    H222468   2.902   1.963   6.576
 7509TIP3   OH222469   5.770   1.276   6.523
 7509TIP3    H122470   5.866   1.269   6.532
 7509TIP3    H222471   5.742   1.186   6.508
 7510TIP3   OH222472   6.905   7.543   5.635
 7510TIP3    H122473   6.941   7.511   5.718
 7510TIP3    H222474   6.843   7.611   5.661
 7511TIP3   OH222475   5.355   0.475   4.319
 7511TIP3    H122476   5.385   0.472   4.228
 7511TIP3    H222477   5.435   0.484   4.370
 7512TIP3   OH222478   3.639   0.449   3.616
 7512TIP3    H122479   3.604   0.451   3.705
 7512TIP3    H222480   3.606   0.529   3.575
 7513TIP3   OH222481   3.236   3.167   1.081
 7513TIP3    H122482   3.285   3.092   1.048
 7513TIP3    H222483   3.196   3.136   1.163
 7514TIP3   OH222484   2.998   5.046   0.890
 7514TIP3    H122485   3.020   5.137   0.910
 7514TIP3    H222486   2.918   5.028   0.939
 7515TIP3   OH222487   7.337   4.833   0.622
 7515TIP3    H122488   7.350   4.745   0.658
 7515TIP3    H222489   7.324   4.818   0.528
 7516TIP3   OH222490   8.216   3.427   6.183
 7516TIP3    H122491   8.271   3.450   6.107
 7516TIP3    H222492   8.258   3.473   6.256
 7517TIP3   OH222493   2.417   4.802   2.620
 7517TIP3    H122494   2.331   4.765   2.602
 7517TIP3    H222495   2.479   4.742   2.578
 7518TIP3   OH222496   5.126   7.255   1.653
 7518TIP3    H122497   5.173   7.285   1.731
 7518TIP3    H222498   5.180   7.183   1.620
 7519TIP3   OH222499   2.317   3.070   1.862
 7519TIP3    H122500   2.331   3.129   1.788
 7519TIP3    H222501   2.328   2.982   1.825
 7520TIP3   OH222502   0.185   6.518   5.070
 7520TIP3    H122503   0.211   6.588   5.011
 7520TIP3    H222504   0.175   6.441   5.014
 7521TIP3   OH222505   8.240   6.248   2.306
 7521TIP3    H122506   8.288   6.181   2.258
 7521TIP3    H222507   8.155   6.253   2.263
 7522TIP3   OH222508   1.260   1.753   0.624
 7522TIP3    H122509   1.189   1.817   0.623
 7522TIP3    H222510   1.295   1.755   0.535
 7523TIP3   OH222511   0.862   7.469   2.498
 7523TIP3    H122512   0.811   7.399   2.539
 7523TIP3    H222513   0.878   7.531   2.568
 7524TIP3   OH222514   3.205   1.252   3.316
 7524TIP3    H122515   3.261   1.259   3.393
 7524TIP3    H222516   3.122   1.218   3.349
 7525TIP3   OH222517   0.673   1.558   2.312
 7525TIP3    H122518   0.654   1.466   2.331
 7525TIP3    H222519   0.737   1.555   2.242
 7526TIP3   OH222520   2.886   4.277   3.637
 7526TIP3    H122521   2.881   4.368   3.609
 7526TIP3    H222522   2.801   4.261   3.679
 7527TIP3   OH222523   2.019   0.918   1.378
 7527TIP3    H122524   2.006   0.984   1.309
 7527TIP3    H222525   1.972   0.953   1.453
 7528TIP3   OH222526   1.087   4.296   4.100
 7528TIP3    H122527   1.089   4.390   4.086
 7528TIP3    H222528   1.124   4.283   4.187
 7529TIP3   OH222529   4.027   7.255   6.042
 7529TIP3    H122530   3.975   7.193   5.991
 7529TIP3    H222531   4.004   7.237   6.133
 7530TIP3   OH222532   7.144   7.684   5.509
 7530TIP3    H122533   7.114   7.775   5.510
 7530TIP3    H222534   7.076   7.635   5.555
 7531TIP3   OH222535   5.222   6.698   6.062
 7531TIP3    H122536   5.297   6.742   6.022
 7531TIP3    H222537   5.146   6.748   6.032
 7532TIP3   OH222538   7.875   3.189   2.550
 7532TIP3    H122539   7.794   3.144   2.527
 7532TIP3    H222540   7.925   3.192   2.469
 7533TIP3   OH222541   2.731   0.242   5.368
 7533TIP3    H122542   2.741   0.319   5.424
 7533TIP3    H222543   2.645   0.253   5.327
 7534TIP3   OH222544   0.570   4.497   6.327
 7534TIP3    H122545   0.587   4.424   6.268
 7534TIP3    H222546   0.493   4.471   6.377
 7535TIP3   OH222547   4.814   2.185   4.688
 7535TIP3    H122548   4.780   2.236   4.762
 7535TIP3    H222549   4.795   2.240   4.611
 7536TIP3   OH222550   7.103   1.887   2.356
 7536TIP3    H122551   7.119   1.798   2.388
 7536TIP3    H222552   7.015   1.908   2.387
 7537TIP3   OH222553   0.070   3.867   5.042
 7537TIP3    H122554   0.120   3.789   5.066
 7537TIP3    H222555   0.034   3.847   4.956
 7538TIP3   OH222556   3.236   0.886   1.622
 7538TIP3    H122557   3.170   0.834   1.667
 7538TIP3    H222558   3.278   0.825   1.562
 7539TIP3   OH222559   1.533   4.566   6.028
 7539TIP3    H122560   1.584   4.581   5.948
 7539TIP3    H222561   1.493   4.651   6.047
 7540TIP3   OH222562   4.551   4.448   4.778
 7540TIP3    H122563   4.543   4.529   4.828
 7540TIP3    H222564   4.471   4.445   4.725
 7541TIP3   OH222565   7.077   4.618   0.609
 7541TIP3    H122566   7.074   4.696   0.553
 7541TIP3    H222567   7.106   4.651   0.694
 7542TIP3   OH222568   4.160   1.135   0.437
 7542TIP3    H122569   4.088   1.187   0.400
 7542TIP3    H222570   4.235   1.195   0.437
 7543TIP3   OH222571   7.194   0.270   2.607
 7543TIP3    H122572   7.171   0.220   2.685
 7543TIP3    H222573   7.231   0.352   2.640
 7544TIP3   OH222574   6.872   6.934   3.102
 7544TIP3    H122575   6.939   6.963   3.039
 7544TIP3    H222576   6.815   6.878   3.051
 7545TIP3   OH222577   5.266   1.840   2.945
 7545TIP3    H122578   5.281   1.764   3.002
 7545TIP3    H222579   5.209   1.807   2.875
 7546TIP3   OH222580   6.708   7.555   0.645
 7546TIP3    H122581   6.654   7.485   0.680
 7546TIP3    H222582   6.660   7.587   0.569
 7547TIP3   OH222583   6.647   6.792   1.432
 7547TIP3    H122584   6.685   6.784   1.519
 7547TIP3    H222585   6.670   6.710   1.388
 7548TIP3   OH222586   1.518   4.561   2.725
 7548TIP3    H122587   1.431   4.546   2.687
 7548TIP3    H222588   1.530   4.490   2.788
 7549TIP3   OH222589   4.366   7.185   3.942
 7549TIP3    H122590   4.425   7.258   3.923
 7549TIP3    H222591   4.424   7.110   3.955
 7550TIP3   OH222592   7.062   6.885   4.885
 7550TIP3    H122593   7.107   6.923   4.810
 7550TIP3    H222594   6.994   6.949   4.908
 7551TIP3   OH222595   5.545   7.615   5.631
 7551TIP3    H122596   5.551   7.645   5.722
 7551TIP3    H222597   5.536   7.696   5.580
 7552TIP3   OH222598   2.352   5.765  -0.012
 7552TIP3    H122599   2.407   5.826   0.039
 7552TIP3    H222600   2.293   5.727   0.053
 7553TIP3   OH222601   1.704   5.266   4.253
 7553TIP3    H122602   1.669   5.290   4.167
 7553TIP3    H222603   1.771   5.201   4.236
 7554TIP3   OH222604   3.049   1.805   1.334
 7554TIP3    H122605   3.095   1.801   1.418
 7554TIP3    H222606   3.076   1.726   1.288
 7555TIP3   OH222607   5.470   7.136   6.628
 7555TIP3    H122608   5.413   7.194   6.576
 7555TIP3    H222609   5.420   7.055   6.636
 7556TIP3   OH222610   2.414   2.740   0.574
 7556TIP3    H122611   2.405   2.807   0.641
 7556TIP3    H222612   2.433   2.660   0.624
 7557TIP3   OH222613   4.802   3.009   5.863
 7557TIP3    H122614   4.836   2.981   5.948
 7557TIP3    H222615   4.713   2.973   5.859
 7558TIP3   OH222616   7.528   7.301   6.287
 7558TIP3    H122617   7.439   7.325   6.260
 7558TIP3    H222618   7.518   7.263   6.374
 7559TIP3   OH222619   6.333   4.771   2.841
 7559TIP3    H122620   6.323   4.862   2.871
 7559TIP3    H222621   6.302   4.772   2.751
 7560TIP3   OH222622   0.715   1.474   3.852
 7560TIP3    H122623   0.697   1.477   3.946
 7560TIP3    H222624   0.641   1.426   3.815
 7561TIP3   OH222625   7.755   2.622   6.528
 7561TIP3    H122626   7.782   2.533   6.550
 7561TIP3    H222627   7.803   2.643   6.447
 7562TIP3   OH222628   4.397   3.101   1.429
 7562TIP3    H122629   4.396   3.137   1.518
 7562TIP3    H222630   4.421   3.176   1.374
 7563TIP3   OH222631   8.006   6.372   3.990
 7563TIP3    H122632   8.099   6.376   4.010
 7563TIP3    H222633   7.962   6.399   4.070
 7564TIP3   OH222634   7.967   1.877  -0.004
 7564TIP3    H122635   7.892   1.873   0.055
 7564TIP3    H222636   7.990   1.970  -0.007
 7565TIP3   OH222637   5.767   4.844   3.605
 7565TIP3    H122638   5.764   4.828   3.699
 7565TIP3    H222639   5.690   4.799   3.570
 7566TIP3   OH222640   0.208   6.717   4.900
 7566TIP3    H122641   0.142   6.774   4.940
 7566TIP3    H222642   0.210   6.744   4.808
 7567TIP3   OH222643   1.860   7.159   6.490
 7567TIP3    H122644   1.814   7.188   6.411
 7567TIP3    H222645   1.934   7.218   6.497
 7568TIP3   OH222646   1.376   7.234   6.654
 7568TIP3    H122647   1.439   7.163   6.646
 7568TIP3    H222648   1.418   7.298   6.712
 7569TIP3   OH222649   1.569   7.481   3.532
 7569TIP3    H122650   1.602   7.565   3.562
 7569TIP3    H222651   1.501   7.503   3.469
 7570TIP3   OH222652   2.320   7.712   4.468
 7570TIP3    H122653   2.371   7.674   4.396
 7570TIP3    H222654   2.327   7.647   4.538
 7571TIP3   OH222655   7.140   7.774   4.154
 7571TIP3    H122656   7.214   7.744   4.101
 7571TIP3    H222657   7.165   7.753   4.244
 7572TIP3   OH222658   2.374   2.668   4.391
 7572TIP3    H122659   2.284   2.675   4.358
 7572TIP3    H222660   2.399   2.577   4.374
 7573TIP3   OH222661   2.143   5.794   1.037
 7573TIP3    H122662   2.103   5.728   1.094
 7573TIP3    H222663   2.139   5.875   1.089
 7574TIP3   OH222664   6.465   6.161   6.706
 7574TIP3    H122665   6.442   6.095   6.640
 7574TIP3    H222666   6.452   6.116   6.789
 7575TIP3   OH222667   4.884   6.120   5.244
 7575TIP3    H122668   4.978   6.124   5.229
 7575TIP3    H222669   4.849   6.197   5.198
 7576TIP3   OH222670   6.212   3.075   5.363
 7576TIP3    H122671   6.128   3.081   5.408
 7576TIP3    H222672   6.277   3.081   5.433
 7577TIP3   OH222673   3.954   3.167   5.383
 7577TIP3    H122674   3.999   3.158   5.467
 7577TIP3    H222675   3.901   3.246   5.392
 7578TIP3   OH222676   4.393   3.587   0.705
 7578TIP3    H122677   4.408   3.521   0.638
 7578TIP3    H222678   4.476   3.593   0.752
 7579TIP3   OH222679   0.350   6.352   2.153
 7579TIP3    H122680   0.442   6.369   2.133
 7579TIP3    H222681   0.319   6.301   2.079
 7580TIP3   OH222682   7.606   3.207   5.858
 7580TIP3    H122683   7.550   3.131   5.839
 7580TIP3    H222684   7.627   3.244   5.772
 7581TIP3   OH222685   4.094   7.704   6.099
 7581TIP3    H122686   4.160   7.643   6.134
 7581TIP3    H222687   4.091   7.685   6.005
 7582TIP3   OH222688   5.466   2.177   4.822
 7582TIP3    H122689   5.499   2.148   4.737
 7582TIP3    H222690   5.391   2.120   4.839
 7583TIP3   OH222691   5.778   7.523   1.683
 7583TIP3    H122692   5.705   7.576   1.651
 7583TIP3    H222693   5.857   7.569   1.654
 7584TIP3   OH222694   1.047   0.580   1.326
 7584TIP3    H122695   1.004   0.638   1.389
 7584TIP3    H222696   1.073   0.504   1.377
 7585TIP3   OH222697   5.470   0.901   5.949
 7585TIP3    H122698   5.488   0.811   5.924
 7585TIP3    H222699   5.409   0.933   5.882
 7586TIP3   OH222700   8.113   0.253   1.883
 7586TIP3    H122701   8.108   0.293   1.970
 7586TIP3    H222702   8.114   0.327   1.823
 7587TIP3   OH222703   6.374   5.923   0.112
 7587TIP3    H122704   6.441   5.904   0.046
 7587TIP3    H222705   6.399   6.008   0.148
 7588TIP3   OH222706   3.408   0.559   0.361
 7588TIP3    H122707   3.499   0.542   0.389
 7588TIP3    H222708   3.410   0.545   0.266
 7589TIP3   OH222709   0.524   2.367   5.139
 7589TIP3    H122710   0.476   2.315   5.075
 7589TIP3    H222711   0.457   2.397   5.200
 7590TIP3   OH222712   5.388   0.078   2.460
 7590TIP3    H122713   5.478   0.049   2.473
 7590TIP3    H222714   5.334   0.006   2.493
 7591TIP3   OH222715   1.224   0.206   5.880
 7591TIP3    H122716   1.280   0.128   5.876
 7591TIP3    H222717   1.260   0.265   5.813
 7592TIP3   OH222718   4.773   5.057   1.667
 7592TIP3    H122719   4.798   5.086   1.579
 7592TIP3    H222720   4.686   5.094   1.681
 7593TIP3   OH222721   1.751   4.351   3.715
 7593TIP3    H122722   1.698   4.371   3.792
 7593TIP3    H222723   1.689   4.354   3.642
 7594TIP3   OH222724   6.740   6.281   2.091
 7594TIP3    H122725   6.692   6.209   2.132
 7594TIP3    H222726   6.702   6.360   2.129
 7595TIP3   OH222727   7.346   0.465   3.174
 7595TIP3    H122728   7.408   0.396   3.151
 7595TIP3    H222729   7.322   0.447   3.264
 7596TIP3   OH222730   6.911   3.091   0.183
 7596TIP3    H122731   6.880   3.017   0.130
 7596TIP3    H222732   6.939   3.051   0.265
 7597TIP3   OH222733   0.257   2.204   4.278
 7597TIP3    H122734   0.169   2.221   4.244
 7597TIP3    H222735   0.260   2.250   4.362
 7598TIP3   OH222736   7.218   0.187   0.559
 7598TIP3    H122737   7.245   0.272   0.524
 7598TIP3    H222738   7.132   0.204   0.598
 7599TIP3   OH222739   2.875   0.009   5.427
 7599TIP3    H122740   2.872  -0.014   5.519
 7599TIP3    H222741   2.840   0.098   5.423
 7600TIP3   OH222742   5.269   3.211   2.062
 7600TIP3    H122743   5.340   3.147   2.071
 7600TIP3    H222744   5.308   3.294   2.091
 7601TIP3   OH222745   3.937   0.641   3.123
 7601TIP3    H122746   3.974   0.705   3.063
 7601TIP3    H222747   3.953   0.677   3.210
 7602TIP3   OH222748   5.864   3.485   3.410
 7602TIP3    H122749   5.828   3.550   3.350
 7602TIP3    H222750   5.882   3.535   3.490
 7603TIP3   OH222751   7.754   7.248   6.157
 7603TIP3    H122752   7.673   7.277   6.199
 7603TIP3    H222753   7.735   7.159   6.126
 7604TIP3   OH222754   3.572   7.250   1.733
 7604TIP3    H122755   3.548   7.160   1.757
 7604TIP3    H222756   3.602   7.244   1.643
 7605TIP3   OH222757   8.257   0.687   3.262
 7605TIP3    H122758   8.186   0.628   3.290
 7605TIP3    H222759   8.212   0.758   3.216
 7606TIP3   OH222760   5.405   6.971   5.493
 7606TIP3    H122761   5.489   6.962   5.449
 7606TIP3    H222762   5.406   7.058   5.532
 7607TIP3   OH222763   1.227   0.538   0.565
 7607TIP3    H122764   1.277   0.496   0.495
 7607TIP3    H222765   1.240   0.632   0.551
 7608TIP3   OH222766   3.069   2.669   2.275
 7608TIP3    H122767   3.149   2.720   2.290
 7608TIP3    H222768   3.037   2.647   2.362
 7609TIP3   OH222769   1.359   3.111   6.616
 7609TIP3    H122770   1.276   3.071   6.589
 7609TIP3    H222771   1.344   3.205   6.605
 7610TIP3   OH222772   5.403   0.483   4.985
 7610TIP3    H122773   5.433   0.461   4.897
 7610TIP3    H222774   5.365   0.570   4.977
 7611TIP3   OH222775   3.971   4.802   1.133
 7611TIP3    H122776   3.881   4.770   1.135
 7611TIP3    H222777   4.006   4.771   1.049
 7612TIP3   OH222778   3.046   0.592   2.961
 7612TIP3    H122779   3.126   0.628   3.000
 7612TIP3    H222780   2.979   0.605   3.028
 7613TIP3   OH222781   3.368   6.996   5.928
 7613TIP3    H122782   3.376   7.007   5.833
 7613TIP3    H222783   3.429   6.925   5.949
 7614TIP3   OH222784   6.741   4.858   1.537
 7614TIP3    H122785   6.731   4.934   1.479
 7614TIP3    H222786   6.685   4.791   1.498
 7615TIP3   OH222787   6.314   6.888   4.743
 7615TIP3    H122788   6.313   6.805   4.792
 7615TIP3    H222789   6.314   6.861   4.651
 7616TIP3   OH222790   1.438   4.849   5.705
 7616TIP3    H122791   1.349   4.881   5.700
 7616TIP3    H222792   1.434   4.775   5.766
 7617TIP3   OH222793   5.743   3.917   3.973
 7617TIP3    H122794   5.838   3.926   3.982
 7617TIP3    H222795   5.714   3.880   4.056
 7618TIP3   OH222796   6.903   4.993   3.401
 7618TIP3    H122797   6.833   5.058   3.410
 7618TIP3    H222798   6.983   5.045   3.393
 7619TIP3   OH222799   4.441   6.576   0.750
 7619TIP3    H122800   4.393   6.520   0.690
 7619TIP3    H222801   4.495   6.632   0.694
 7620TIP3   OH222802   1.032   7.272   6.628
 7620TIP3    H122803   1.060   7.202   6.687
 7620TIP3    H222804   0.941   7.289   6.653
 7621TIP3   OH222805   8.161   7.231   5.264
 7621TIP3    H122806   8.075   7.202   5.232
 7621TIP3    H222807   8.200   7.151   5.300
 7622TIP3   OH222808   5.962   2.069   4.093
 7622TIP3    H122809   5.946   2.025   4.176
 7622TIP3    H222810   5.925   2.010   4.027
 7623TIP3   OH222811   5.649   1.128   4.544
 7623TIP3    H122812   5.712   1.138   4.615
 7623TIP3    H222813   5.629   1.035   4.542
 7624TIP3   OH222814   3.310   3.655   4.341
 7624TIP3    H122815   3.316   3.569   4.384
 7624TIP3    H222816   3.216   3.669   4.329
 7625TIP3   OH222817   7.087   6.658   4.690
 7625TIP3    H122818   7.008   6.611   4.717
 7625TIP3    H222819   7.087   6.738   4.742
 7626TIP3   OH222820   4.613   2.963   4.034
 7626TIP3    H122821   4.649   2.980   3.947
 7626TIP3    H222822   4.636   3.039   4.086
 7627TIP3   OH222823   6.368   4.298   4.368
 7627TIP3    H122824   6.306   4.362   4.333
 7627TIP3    H222825   6.316   4.244   4.428
 7628TIP3   OH222826   7.224   5.959   6.499
 7628TIP3    H122827   7.150   5.899   6.512
 7628TIP3    H222828   7.233   5.964   6.404
 7629TIP3   OH222829   6.096   6.874   0.601
 7629TIP3    H122830   6.049   6.868   0.685
 7629TIP3    H222831   6.092   6.967   0.579
 7630TIP3   OH222832   1.798   2.268   5.745
 7630TIP3    H122833   1.716   2.227   5.719
 7630TIP3    H222834   1.781   2.302   5.833
 7631TIP3   OH222835   7.108   5.876   0.044
 7631TIP3    H122836   7.065   5.961   0.045
 7631TIP3    H222837   7.037   5.812   0.055
 7632TIP3   OH222838   1.309   7.130   0.972
 7632TIP3    H122839   1.385   7.104   0.921
 7632TIP3    H222840   1.345   7.179   1.046
 7633TIP3   OH222841   3.338   3.843   1.625
 7633TIP3    H122842   3.394   3.795   1.564
 7633TIP3    H222843   3.330   3.930   1.588
 7634TIP3   OH222844   5.588   0.259   0.258
 7634TIP3    H122845   5.549   0.233   0.342
 7634TIP3    H222846   5.513   0.280   0.203
 7635TIP3   OH222847   2.459   1.013   2.867
 7635TIP3    H122848   2.405   1.058   2.932
 7635TIP3    H222849   2.494   1.084   2.813
 7636TIP3   OH222850   0.087   2.788   2.166
 7636TIP3    H122851   0.018   2.799   2.231
 7636TIP3    H222852   0.048   2.816   2.084
 7637TIP3   OH222853   2.127   6.022   2.458
 7637TIP3    H122854   2.118   6.110   2.494
 7637TIP3    H222855   2.175   5.974   2.525
 7638TIP3   OH222856   1.520   1.180   1.966
 7638TIP3    H122857   1.519   1.092   2.002
 7638TIP3    H222858   1.560   1.234   2.034
 7639TIP3   OH222859   4.436   3.822   3.386
 7639TIP3    H122860   4.350   3.779   3.388
 7639TIP3    H222861   4.447   3.851   3.296
 7640TIP3   OH222862   4.234   3.287   3.849
 7640TIP3    H122863   4.299   3.237   3.801
 7640TIP3    H222864   4.229   3.244   3.935
 7641TIP3   OH222865   7.088   1.130   1.169
 7641TIP3    H122866   7.108   1.043   1.134
 7641TIP3    H222867   7.076   1.185   1.092
 7642TIP3   OH222868   1.298   5.408   0.520
 7642TIP3    H122869   1.329   5.340   0.579
 7642TIP3    H222870   1.351   5.398   0.441
 7643TIP3   OH222871   5.938   3.145   5.031
 7643TIP3    H122872   5.916   3.058   5.064
 7643TIP3    H222873   6.016   3.131   4.976
 7644TIP3   OH222874   0.255   1.345   6.662
 7644TIP3    H122875   0.177   1.394   6.636
 7644TIP3    H222876   0.297   1.401   6.728
 7645TIP3   OH222877   7.946   1.490   0.062
 7645TIP3    H122878   8.014   1.540   0.108
 7645TIP3    H222879   7.987   1.467  -0.022
 7646TIP3   OH222880   5.689   6.705   4.195
 7646TIP3    H122881   5.678   6.792   4.157
 7646TIP3    H222882   5.783   6.686   4.187
 7647TIP3   OH222883   0.097   6.557   6.682
 7647TIP3    H122884   0.171   6.512   6.723
 7647TIP3    H222885   0.032   6.565   6.752
 7648TIP3   OH222886   6.309   6.898   2.632
 7648TIP3    H122887   6.233   6.908   2.575
 7648TIP3    H222888   6.276   6.921   2.719
 7649TIP3   OH222889   2.881   1.584   3.585
 7649TIP3    H122890   2.905   1.655   3.645
 7649TIP3    H222891   2.960   1.570   3.533
 7650TIP3   OH222892   3.395   7.593   4.826
 7650TIP3    H122893   3.418   7.624   4.913
 7650TIP3    H222894   3.310   7.551   4.836
 7651TIP3   OH222895   6.839   2.016   1.448
 7651TIP3    H122896   6.757   2.062   1.468
 7651TIP3    H222897   6.836   1.937   1.502
 7652TIP3   OH222898   5.517   0.322   2.535
 7652TIP3    H122899   5.591   0.293   2.588
 7652TIP3    H222900   5.483   0.242   2.495
 7653TIP3   OH222901   2.388   5.163   4.115
 7653TIP3    H122902   2.293   5.177   4.113
 7653TIP3    H222903   2.399   5.082   4.165
 7654TIP3   OH222904   2.975   5.102   5.809
 7654TIP3    H122905   2.905   5.137   5.863
 7654TIP3    H222906   2.950   5.125   5.719
 7655TIP3   OH222907   6.913   7.761   4.887
 7655TIP3    H122908   6.941   7.700   4.955
 7655TIP3    H222909   6.915   7.847   4.930
 7656TIP3   OH222910   7.730   2.178   6.671
 7656TIP3    H122911   7.677   2.197   6.748
 7656TIP3    H222912   7.820   2.180   6.702
 7657TIP3   OH222913   5.647   0.736   5.779
 7657TIP3    H122914   5.639   0.675   5.705
 7657TIP3    H222915   5.707   0.692   5.839
 7658TIP3   OH222916   0.836   2.319   4.237
 7658TIP3    H122917   0.780   2.394   4.218
 7658TIP3    H222918   0.866   2.289   4.151
 7659TIP3   OH222919   3.181   1.916   5.510
 7659TIP3    H122920   3.180   1.995   5.456
 7659TIP3    H222921   3.088   1.900   5.531
 7660TIP3   OH222922   6.233   5.294   5.286
 7660TIP3    H122923   6.317   5.292   5.241
 7660TIP3    H222924   6.243   5.232   5.358
 7661TIP3   OH222925   3.633   5.735   6.145
 7661TIP3    H122926   3.623   5.808   6.083
 7661TIP3    H222927   3.544   5.704   6.161
 7662TIP3   OH222928   4.628   7.059   6.305
 7662TIP3    H122929   4.704   7.055   6.246
 7662TIP3    H222930   4.627   6.973   6.348
 7663TIP3   OH222931   0.805   6.228   1.248
 7663TIP3    H122932   0.790   6.213   1.341
 7663TIP3    H222933   0.789   6.321   1.235
 7664TIP3   OH222934   5.658   6.331   0.753
 7664TIP3    H122935   5.685   6.302   0.665
 7664TIP3    H222936   5.609   6.257   0.788
 7665TIP3   OH222937   7.776   3.673   2.840
 7665TIP3    H122938   7.723   3.714   2.908
 7665TIP3    H222939   7.769   3.579   2.857
 7666TIP3   OH222940   7.274   5.904   6.237
 7666TIP3    H122941   7.351   5.900   6.180
 7666TIP3    H222942   7.205   5.860   6.188
 7667TIP3   OH222943   0.184   7.410   0.794
 7667TIP3    H122944   0.170   7.470   0.720
 7667TIP3    H222945   0.106   7.420   0.848
 7668TIP3   OH222946   4.249   7.149   1.460
 7668TIP3    H122947   4.287   7.225   1.416
 7668TIP3    H222948   4.305   7.076   1.433
 7669TIP3   OH222949   4.217   5.566   2.613
 7669TIP3    H122950   4.273   5.613   2.676
 7669TIP3    H222951   4.277   5.542   2.542
 7670TIP3   OH222952   1.283   2.573   6.052
 7670TIP3    H122953   1.349   2.612   5.995
 7670TIP3    H222954   1.212   2.547   5.993
 7671TIP3   OH222955   4.113   2.504   2.557
 7671TIP3    H122956   4.155   2.424   2.524
 7671TIP3    H222957   4.029   2.508   2.512
 7672TIP3   OH222958   1.310   2.772   1.572
 7672TIP3    H122959   1.307   2.684   1.610
 7672TIP3    H222960   1.387   2.812   1.612
 7673TIP3   OH222961   5.416   6.064   0.352
 7673TIP3    H122962   5.501   6.085   0.390
 7673TIP3    H222963   5.354   6.073   0.425
 7674TIP3   OH222964   2.842   5.205   3.163
 7674TIP3    H122965   2.898   5.231   3.236
 7674TIP3    H222966   2.828   5.286   3.114
 7675TIP3   OH222967   0.441   6.356   5.711
 7675TIP3    H122968   0.490   6.427   5.670
 7675TIP3    H222969   0.410   6.392   5.794
 7676TIP3   OH222970   6.367   3.261   6.142
 7676TIP3    H122971   6.292   3.249   6.084
 7676TIP3    H222972   6.426   3.188   6.120
 7677TIP3   OH222973   3.096   4.278  -0.011
 7677TIP3    H122974   3.190   4.260  -0.012
 7677TIP3    H222975   3.078   4.312   0.077
 7678TIP3   OH222976   2.122   3.601   5.612
 7678TIP3    H122977   2.163   3.681   5.645
 7678TIP3    H222978   2.058   3.578   5.679
 7679TIP3   OH222979   5.002   2.711   6.287
 7679TIP3    H122980   5.041   2.692   6.202
 7679TIP3    H222981   5.055   2.660   6.349
 7680TIP3   OH222982   1.917   6.983   0.307
 7680TIP3    H122983   1.965   6.902   0.318
 7680TIP3    H222984   1.826   6.956   0.291
 7681TIP3   OH222985   3.290   6.830   2.745
 7681TIP3    H122986   3.245   6.745   2.745
 7681TIP3    H222987   3.371   6.813   2.696
 7682TIP3   OH222988   8.151   5.147   3.450
 7682TIP3    H122989   8.095   5.207   3.501
 7682TIP3    H222990   8.240   5.167   3.480
 7683TIP3   OH222991   3.773   0.468   0.946
 7683TIP3    H122992   3.845   0.508   0.994
 7683TIP3    H222993   3.697   0.478   1.004
 7684TIP3   OH222994   4.629   5.880   5.865
 7684TIP3    H122995   4.686   5.803   5.868
 7684TIP3    H222996   4.680   5.950   5.906
 7685TIP3   OH222997   4.526   5.038   5.589
 7685TIP3    H122998   4.610   5.062   5.628
 7685TIP3    H222999   4.513   5.101   5.518
 7686TIP3   OH223000   8.112   2.523   5.514
 7686TIP3    H123001   8.164   2.488   5.441
 7686TIP3    H223002   8.163   2.500   5.592
 7687TIP3   OH223003   7.994   0.853   0.497
 7687TIP3    H123004   8.064   0.910   0.464
 7687TIP3    H223005   7.961   0.808   0.420
 7688TIP3   OH223006   3.861   4.760   3.674
 7688TIP3    H123007   3.854   4.849   3.638
 7688TIP3    H223008   3.832   4.703   3.603
 7689TIP3   OH223009   7.993   2.103   2.544
 7689TIP3    H123010   7.939   2.161   2.597
 7689TIP3    H223011   8.056   2.065   2.605
 7690TIP3   OH223012   7.900   5.845   2.340
 7690TIP3    H123013   7.938   5.771   2.386
 7690TIP3    H223014   7.808   5.820   2.325
 7691TIP3   OH223015   5.688   4.130   4.277
 7691TIP3    H123016   5.750   4.121   4.205
 7691TIP3    H223017   5.671   4.224   4.284
 7692TIP3   OH223018   6.952   6.134   5.416
 7692TIP3    H123019   6.914   6.151   5.502
 7692TIP3    H223020   6.877   6.115   5.359
 7693TIP3   OH223021   5.773   2.230   2.596
 7693TIP3    H123022   5.721   2.152   2.574
 7693TIP3    H223023   5.727   2.302   2.552
 7694TIP3   OH223024   1.685   0.273   5.037
 7694TIP3    H123025   1.689   0.326   4.957
 7694TIP3    H223026   1.591   0.255   5.048
 7695TIP3   OH223027   5.976   7.397   3.919
 7695TIP3    H123028   5.969   7.482   3.876
 7695TIP3    H223029   6.055   7.404   3.973
 7696TIP3   OH223030   7.621   3.856   0.730
 7696TIP3    H123031   7.614   3.915   0.806
 7696TIP3    H223032   7.612   3.914   0.654
 7697TIP3   OH223033   2.160   2.169   1.919
 7697TIP3    H123034   2.095   2.215   1.972
 7697TIP3    H223035   2.133   2.185   1.829
 7698TIP3   OH223036   3.449   5.354   3.250
 7698TIP3    H123037   3.422   5.394   3.332
 7698TIP3    H223038   3.418   5.414   3.182
 7699TIP3   OH223039   3.905   7.763   5.304
 7699TIP3    H123040   3.886   7.755   5.397
 7699TIP3    H223041   3.958   7.842   5.296
 7700TIP3   OH223042   7.547   5.040   5.167
 7700TIP3    H123043   7.504   4.971   5.217
 7700TIP3    H223044   7.601   4.993   5.103
 7701TIP3   OH223045   0.408   4.576   0.547
 7701TIP3    H123046   0.461   4.502   0.577
 7701TIP3    H223047   0.322   4.560   0.585
 7702TIP3   OH223048   0.815   5.402   3.770
 7702TIP3    H123049   0.729   5.378   3.736
 7702TIP3    H223050   0.803   5.404   3.865
 7703TIP3   OH223051   6.466   1.063   1.144
 7703TIP3    H123052   6.536   1.096   1.086
 7703TIP3    H223053   6.389   1.060   1.088
 7704TIP3   OH223054   1.404   0.232   4.480
 7704TIP3    H123055   1.322   0.246   4.433
 7704TIP3    H223056   1.381   0.248   4.572
 7705TIP3   OH223057   0.105   5.221   3.580
 7705TIP3    H123058   0.052   5.171   3.641
 7705TIP3    H223059   0.133   5.298   3.630
 7706TIP3   OH223060   8.197   2.950   3.711
 7706TIP3    H123061   8.248   2.935   3.791
 7706TIP3    H223062   8.263   2.956   3.642
 7707TIP3   OH223063   3.961   7.751   5.817
 7707TIP3    H123064   3.924   7.669   5.850
 7707TIP3    H223065   3.900   7.818   5.847
 7708TIP3   OH223066   6.360   0.219   4.422
 7708TIP3    H123067   6.448   0.239   4.454
 7708TIP3    H223068   6.337   0.294   4.367
 7709TIP3   OH223069   3.500   4.423   4.977
 7709TIP3    H123070   3.568   4.465   4.925
 7709TIP3    H223071   3.424   4.480   4.968
 7710TIP3   OH223072   1.381   0.228   6.688
 7710TIP3    H123073   1.315   0.268   6.632
 7710TIP3    H223074   1.464   0.268   6.662
 7711TIP3   OH223075   0.228   6.889   1.347
 7711TIP3    H123076   0.132   6.895   1.350
 7711TIP3    H223077   0.255   6.901   1.438
 7712TIP3   OH223078   5.780   7.209   4.966
 7712TIP3    H123079   5.836   7.285   4.982
 7712TIP3    H223080   5.754   7.216   4.874
 7713TIP3   OH223081   5.668   5.494   4.978
 7713TIP3    H123082   5.713   5.578   4.980
 7713TIP3    H223083   5.586   5.513   4.933
 7714TIP3   OH223084   3.361   1.404   6.788
 7714TIP3    H123085   3.302   1.443   6.852
 7714TIP3    H223086   3.426   1.473   6.770
 7715TIP3   OH223087   3.742   0.107   4.910
 7715TIP3    H123088   3.656   0.089   4.949
 7715TIP3    H223089   3.723   0.148   4.826
 7716TIP3   OH223090   3.757   6.069   5.835
 7716TIP3    H123091   3.678   6.112   5.802
 7716TIP3    H223092   3.738   5.975   5.827
 7717TIP3   OH223093   2.077   4.868   0.950
 7717TIP3    H123094   2.076   4.812   1.027
 7717TIP3    H223095   2.166   4.862   0.916
 7718TIP3   OH223096   8.267   5.399   2.288
 7718TIP3    H123097   8.310   5.314   2.278
 7718TIP3    H223098   8.174   5.378   2.298
 7719TIP3   OH223099   1.937   6.383   3.394
 7719TIP3    H123100   1.886   6.427   3.462
 7719TIP3    H223101   1.891   6.404   3.312
 7720TIP3   OH223102   2.866   3.837   0.029
 7720TIP3    H123103   2.917   3.892  -0.031
 7720TIP3    H223104   2.898   3.862   0.116
 7721TIP3   OH223105   5.538   4.266   0.924
 7721TIP3    H123106   5.450   4.278   0.961
 7721TIP3    H223107   5.583   4.348   0.943
 7722TIP3   OH223108   1.849   1.448   0.269
 7722TIP3    H123109   1.811   1.372   0.313
 7722TIP3    H223110   1.841   1.428   0.176
 7723TIP3   OH223111   7.851   1.735   3.922
 7723TIP3    H123112   7.937   1.773   3.907
 7723TIP3    H223113   7.834   1.681   3.845
 7724TIP3   OH223114   2.050   4.117   2.762
 7724TIP3    H123115   1.976   4.060   2.740
 7724TIP3    H223116   2.108   4.111   2.685
 7725TIP3   OH223117   7.174   3.201   3.699
 7725TIP3    H123118   7.270   3.205   3.700
 7725TIP3    H223119   7.146   3.292   3.707
 7726TIP3   OH223120   6.553   3.824   5.729
 7726TIP3    H123121   6.526   3.916   5.727
 7726TIP3    H223122   6.558   3.803   5.822
 7727TIP3   OH223123   7.137   3.171   2.287
 7727TIP3    H123124   7.111   3.237   2.222
 7727TIP3    H223125   7.065   3.171   2.350
 7728TIP3   OH223126   5.455   6.856   1.992
 7728TIP3    H123127   5.363   6.857   2.016
 7728TIP3    H223128   5.456   6.829   1.900
 7729TIP3   OH223129   1.634   6.765   0.987
 7729TIP3    H123130   1.727   6.772   0.965
 7729TIP3    H223131   1.633   6.750   1.081
 7730TIP3   OH223132   6.780   1.577   3.185
 7730TIP3    H123133   6.702   1.528   3.159
 7730TIP3    H223134   6.748   1.666   3.199
 7731TIP3   OH223135   1.060   2.487   2.331
 7731TIP3    H123136   1.010   2.405   2.338
 7731TIP3    H223137   1.136   2.464   2.277
 7732TIP3   OH223138   6.840   2.176   4.646
 7732TIP3    H123139   6.752   2.207   4.626
 7732TIP3    H223140   6.861   2.216   4.730
 7733TIP3   OH223141   1.874   3.213   5.699
 7733TIP3    H123142   1.819   3.287   5.673
 7733TIP3    H223143   1.925   3.246   5.773
 7734TIP3   OH223144   7.129   5.214   3.181
 7734TIP3    H123145   7.118   5.308   3.194
 7734TIP3    H223146   7.206   5.206   3.126
 7735TIP3   OH223147   6.849   3.418   4.982
 7735TIP3    H123148   6.772   3.462   4.946
 7735TIP3    H223149   6.911   3.415   4.908
 7736TIP3   OH223150   6.245   0.507   2.899
 7736TIP3    H123151   6.214   0.588   2.938
 7736TIP3    H223152   6.166   0.463   2.868
 7737TIP3   OH223153   6.721   4.175   2.675
 7737TIP3    H123154   6.699   4.104   2.736
 7737TIP3    H223155   6.763   4.241   2.730
 7738TIP3   OH223156   0.030   6.678   3.896
 7738TIP3    H123157  -0.034   6.720   3.840
 7738TIP3    H223158   0.114   6.716   3.870
 7739TIP3   OH223159   8.208   7.484   5.365
 7739TIP3    H123160   8.137   7.424   5.342
 7739TIP3    H223161   8.215   7.478   5.460
 7740TIP3   OH223162   1.183   2.551   1.420
 7740TIP3    H123163   1.271   2.571   1.387
 7740TIP3    H223164   1.140   2.636   1.426
 7741TIP3   OH223165   0.857   2.738   1.102
 7741TIP3    H123166   0.905   2.779   1.030
 7741TIP3    H223167   0.789   2.801   1.125
 7742TIP3   OH223168   0.145   0.594   1.316
 7742TIP3    H123169   0.169   0.655   1.385
 7742TIP3    H223170   0.112   0.517   1.362
 7743TIP3   OH223171   5.809   1.748   5.255
 7743TIP3    H123172   5.756   1.790   5.323
 7743TIP3    H223173   5.756   1.674   5.226
 7744TIP3   OH223174   1.612   6.689   1.237
 7744TIP3    H123175   1.688   6.680   1.293
 7744TIP3    H223176   1.547   6.628   1.273
 7745TIP3   OH223177   8.270   6.323   3.799
 7745TIP3    H123178   8.247   6.353   3.887
 7745TIP3    H223179   8.316   6.241   3.812
 7746TIP3   OH223180   0.479   5.898   1.206
 7746TIP3    H123181   0.489   5.987   1.173
 7746TIP3    H223182   0.551   5.849   1.168
 7747TIP3   OH223183   0.803   4.673   3.004
 7747TIP3    H123184   0.873   4.682   3.069
 7747TIP3    H223185   0.839   4.710   2.924
 7748TIP3   OH223186   6.961   7.045   0.871
 7748TIP3    H123187   6.992   6.956   0.886
 7748TIP3    H223188   7.034   7.101   0.898
 7749TIP3   OH223189   3.139   6.297   5.659
 7749TIP3    H123190   3.145   6.202   5.662
 7749TIP3    H223191   3.125   6.323   5.750
 7750TIP3   OH223192   2.472   6.657   5.293
 7750TIP3    H123193   2.454   6.728   5.354
 7750TIP3    H223194   2.386   6.631   5.260
 7751TIP3   OH223195   7.384   3.494   3.317
 7751TIP3    H123196   7.433   3.567   3.278
 7751TIP3    H223197   7.451   3.433   3.346
 7752TIP3   OH223198   1.057   1.143   5.358
 7752TIP3    H123199   1.128   1.192   5.318
 7752TIP3    H223200   1.099   1.092   5.428
 7753TIP3   OH223201   5.405   3.188   5.670
 7753TIP3    H123202   5.326   3.243   5.669
 7753TIP3    H223203   5.472   3.243   5.709
 7754TIP3   OH223204   3.371   4.112   4.522
 7754TIP3    H123205   3.431   4.130   4.595
 7754TIP3    H223206   3.373   4.191   4.468
 7755TIP3   OH223207   5.906   4.644   3.479
 7755TIP3    H123208   5.878   4.575   3.538
 7755TIP3    H223209   5.860   4.722   3.510
 7756TIP3   OH223210   6.760   5.920   1.632
 7756TIP3    H123211   6.796   5.914   1.721
 7756TIP3    H223212   6.668   5.942   1.645
 7757TIP3   OH223213   6.740   1.866   3.915
 7757TIP3    H123214   6.678   1.895   3.982
 7757TIP3    H223215   6.720   1.919   3.839
 7758TIP3   OH223216   5.182   3.128   0.280
 7758TIP3    H123217   5.121   3.086   0.220
 7758TIP3    H223218   5.136   3.129   0.364
 7759TIP3   OH223219   1.595   5.676   0.160
 7759TIP3    H123220   1.645   5.594   0.154
 7759TIP3    H223221   1.505   5.651   0.136
 7760TIP3   OH223222   4.658   4.364   1.971
 7760TIP3    H123223   4.713   4.424   2.022
 7760TIP3    H223224   4.637   4.413   1.892
 7761TIP3   OH223225   0.951   2.959   1.974
 7761TIP3    H123226   0.942   3.053   1.959
 7761TIP3    H223227   0.902   2.918   1.903
 7762TIP3   OH223228   4.619   7.275   5.571
 7762TIP3    H123229   4.577   7.359   5.557
 7762TIP3    H223230   4.621   7.234   5.484
 7763TIP3   OH223231   6.609   5.162   0.702
 7763TIP3    H123232   6.674   5.231   0.692
 7763TIP3    H223233   6.598   5.127   0.614
 7764TIP3   OH223234   1.513   0.676   4.003
 7764TIP3    H123235   1.422   0.706   3.999
 7764TIP3    H223236   1.507   0.581   4.005
 7765TIP3   OH223237   3.871   1.074   6.088
 7765TIP3    H123238   3.799   1.125   6.123
 7765TIP3    H223239   3.855   1.071   5.994
 7766TIP3   OH223240   7.887   4.063   0.275
 7766TIP3    H123241   7.909   3.972   0.296
 7766TIP3    H223242   7.965   4.097   0.232
 7767TIP3   OH223243   5.998   4.031   0.345
 7767TIP3    H123244   5.938   3.979   0.291
 7767TIP3    H223245   6.021   4.106   0.290
 7768TIP3   OH223246   5.798   1.743   3.074
 7768TIP3    H123247   5.847   1.825   3.083
 7768TIP3    H223248   5.712   1.763   3.113
 7769TIP3   OH223249   3.283   4.291   2.967
 7769TIP3    H123250   3.242   4.374   2.942
 7769TIP3    H223251   3.331   4.311   3.047
 7770TIP3   OH223252   3.596   5.117   0.681
 7770TIP3    H123253   3.585   5.199   0.730
 7770TIP3    H223254   3.665   5.136   0.617
 7771TIP3   OH223255   2.427   7.346   4.917
 7771TIP3    H123256   2.481   7.318   4.842
 7771TIP3    H223257   2.361   7.278   4.925
 7772TIP3   OH223258   3.641   2.491   4.546
 7772TIP3    H123259   3.564   2.456   4.590
 7772TIP3    H223260   3.635   2.586   4.558
 7773TIP3   OH223261   7.730   3.771   4.147
 7773TIP3    H123262   7.765   3.807   4.228
 7773TIP3    H223263   7.712   3.679   4.168
 7774TIP3   OH223264   3.934   6.932   3.377
 7774TIP3    H123265   3.911   7.008   3.431
 7774TIP3    H223266   3.980   6.970   3.302
 7775TIP3   OH223267   5.457   2.979   2.619
 7775TIP3    H123268   5.517   3.017   2.682
 7775TIP3    H223269   5.460   2.885   2.636
 7776TIP3   OH223270   1.789   5.632   6.392
 7776TIP3    H123271   1.798   5.537   6.404
 7776TIP3    H223272   1.853   5.670   6.452
 7777TIP3   OH223273   6.751   7.716   6.607
 7777TIP3    H123274   6.672   7.765   6.627
 7777TIP3    H223275   6.789   7.697   6.693
 7778TIP3   OH223276   5.095   1.926   3.468
 7778TIP3    H123277   5.127   1.935   3.378
 7778TIP3    H223278   5.022   1.864   3.461
 7779TIP3   OH223279   6.906   1.325   2.735
 7779TIP3    H123280   6.885   1.352   2.824
 7779TIP3    H223281   6.845   1.255   2.716
 7780TIP3   OH223282   2.649   3.430   3.915
 7780TIP3    H123283   2.555   3.413   3.910
 7780TIP3    H223284   2.690   3.347   3.889
 7781TIP3   OH223285   1.205   6.143   4.421
 7781TIP3    H123286   1.122   6.103   4.396
 7781TIP3    H223287   1.271   6.092   4.375
 7782TIP3   OH223288   2.108   5.334   0.698
 7782TIP3    H123289   2.175   5.269   0.716
 7782TIP3    H223290   2.140   5.414   0.741
 7783TIP3   OH223291   1.708   1.447   1.816
 7783TIP3    H123292   1.625   1.411   1.849
 7783TIP3    H223293   1.710   1.537   1.848
 7784TIP3   OH223294   3.111   3.514   1.779
 7784TIP3    H123295   3.072   3.578   1.719
 7784TIP3    H223296   3.039   3.488   1.836
 7785TIP3   OH223297   7.763   6.038   0.386
 7785TIP3    H123298   7.747   6.020   0.294
 7785TIP3    H223299   7.789   6.130   0.389
 7786TIP3   OH223300   4.070   4.027   4.086
 7786TIP3    H123301   4.098   4.098   4.028
 7786TIP3    H223302   3.980   4.007   4.059
 7787TIP3   OH223303   7.864   1.194   1.716
 7787TIP3    H123304   7.908   1.133   1.775
 7787TIP3    H223305   7.907   1.278   1.733
 7788TIP3   OH223306   4.152   3.481   0.798
 7788TIP3    H123307   4.234   3.517   0.765
 7788TIP3    H223308   4.119   3.427   0.726
 7789TIP3   OH223309   1.260   2.253   0.337
 7789TIP3    H123310   1.263   2.184   0.269
 7789TIP3    H223311   1.311   2.217   0.409
 7790TIP3   OH223312   3.766   1.078   1.617
 7790TIP3    H123313   3.670   1.085   1.615
 7790TIP3    H223314   3.797   1.166   1.599
 7791TIP3   OH223315   2.887   3.057   2.508
 7791TIP3    H123316   2.867   3.014   2.591
 7791TIP3    H223317   2.854   3.146   2.518
 7792TIP3   OH223318   3.726   6.089   3.454
 7792TIP3    H123319   3.751   5.997   3.465
 7792TIP3    H223320   3.794   6.125   3.396
 7793TIP3   OH223321   1.645   7.653   0.997
 7793TIP3    H123322   1.703   7.726   1.014
 7793TIP3    H223323   1.641   7.646   0.902
 7794TIP3   OH223324   5.585   1.226   5.847
 7794TIP3    H123325   5.501   1.197   5.812
 7794TIP3    H223326   5.643   1.150   5.837
 7795TIP3   OH223327   2.688   3.660   5.160
 7795TIP3    H123328   2.695   3.615   5.076
 7795TIP3    H223329   2.608   3.625   5.200
 7796TIP3   OH223330   7.565   4.393   6.543
 7796TIP3    H123331   7.491   4.398   6.482
 7796TIP3    H223332   7.550   4.465   6.605
 7797TIP3   OH223333   6.870   2.578   2.060
 7797TIP3    H123334   6.870   2.524   2.140
 7797TIP3    H223335   6.897   2.665   2.091
 7798TIP3   OH223336   2.138   7.382   0.977
 7798TIP3    H123337   2.151   7.367   0.883
 7798TIP3    H223338   2.086   7.462   0.981
 7799TIP3   OH223339   3.907   7.239   5.050
 7799TIP3    H123340   3.961   7.160   5.046
 7799TIP3    H223341   3.935   7.284   5.129
 7800TIP3   OH223342   6.130   1.646   6.712
 7800TIP3    H123343   6.101   1.693   6.634
 7800TIP3    H223344   6.067   1.574   6.721
 7801TIP3   OH223345   7.601   2.322   4.358
 7801TIP3    H123346   7.675   2.372   4.391
 7801TIP3    H223347   7.612   2.234   4.396
 7802TIP3   OH223348   3.141   4.431   4.786
 7802TIP3    H123349   3.131   4.420   4.881
 7802TIP3    H223350   3.057   4.401   4.750
 7803TIP3   OH223351   4.456   0.618   1.588
 7803TIP3    H123352   4.458   0.543   1.647
 7803TIP3    H223353   4.446   0.580   1.501
 7804TIP3   OH223354   7.222   0.169   4.121
 7804TIP3    H123355   7.147   0.227   4.130
 7804TIP3    H223356   7.276   0.189   4.198
 7805TIP3   OH223357   8.279   2.362   0.284
 7805TIP3    H123358   8.329   2.424   0.336
 7805TIP3    H223359   8.203   2.340   0.339
 7806TIP3   OH223360   1.047   4.988   0.120
 7806TIP3    H123361   1.005   5.042   0.187
 7806TIP3    H223362   1.000   4.905   0.122
 7807TIP3   OH223363   3.870   4.675   1.841
 7807TIP3    H123364   3.823   4.744   1.886
 7807TIP3    H223365   3.891   4.711   1.755
 7808TIP3   OH223366   3.190   5.223   1.111
 7808TIP3    H123367   3.171   5.237   1.018
 7808TIP3    H223368   3.170   5.130   1.125
 7809TIP3   OH223369   5.748   4.791   3.877
 7809TIP3    H123370   5.686   4.860   3.901
 7809TIP3    H223371   5.830   4.817   3.918
 7810TIP3   OH223372   6.312   2.913   0.558
 7810TIP3    H123373   6.343   2.847   0.496
 7810TIP3    H223374   6.217   2.898   0.564
 7811TIP3   OH223375   7.204   2.357   4.706
 7811TIP3    H123376   7.220   2.450   4.721
 7811TIP3    H223377   7.156   2.328   4.784
 7812TIP3   OH223378   5.628   6.387   1.271
 7812TIP3    H123379   5.649   6.476   1.299
 7812TIP3    H223380   5.666   6.380   1.184
 7813TIP3   OH223381   3.995   0.111   2.546
 7813TIP3    H123382   3.920   0.086   2.491
 7813TIP3    H223383   4.044   0.173   2.493
 7814TIP3   OH223384   7.165   2.397   4.273
 7814TIP3    H123385   7.121   2.370   4.353
 7814TIP3    H223386   7.188   2.315   4.229
 7815TIP3   OH223387   3.587   0.366   4.465
 7815TIP3    H123388   3.570   0.455   4.497
 7815TIP3    H223389   3.574   0.373   4.370
 7816TIP3   OH223390   1.442   4.669   3.455
 7816TIP3    H123391   1.445   4.605   3.526
 7816TIP3    H223392   1.393   4.743   3.493
 7817TIP3   OH223393   5.776   1.225   2.932
 7817TIP3    H123394   5.852   1.282   2.940
 7817TIP3    H223395   5.702   1.285   2.924
 7818TIP3   OH223396   4.665   1.302   6.744
 7818TIP3    H123397   4.735   1.355   6.782
 7818TIP3    H223398   4.615   1.363   6.691
 7819TIP3   OH223399   2.027   2.374   0.139
 7819TIP3    H123400   1.946   2.421   0.122
 7819TIP3    H223401   2.056   2.405   0.224
 7820TIP3   OH223402   0.892   2.604   4.306
 7820TIP3    H123403   0.956   2.592   4.376
 7820TIP3    H223404   0.905   2.529   4.248
 7821TIP3   OH223405   4.326   0.663   3.768
 7821TIP3    H123406   4.282   0.696   3.847
 7821TIP3    H223407   4.362   0.578   3.795
 7822TIP3   OH223408   6.257   4.589   4.281
 7822TIP3    H123409   6.186   4.528   4.259
 7822TIP3    H223410   6.246   4.661   4.219
 7823TIP3   OH223411   2.153   5.473   2.097
 7823TIP3    H123412   2.082   5.409   2.089
 7823TIP3    H223413   2.110   5.557   2.085
 7824TIP3   OH223414   1.744   0.217   3.752
 7824TIP3    H123415   1.680   0.276   3.713
 7824TIP3    H223416   1.794   0.272   3.813
 7825TIP3   OH223417   2.061   2.776   4.955
 7825TIP3    H123418   2.104   2.793   5.038
 7825TIP3    H223419   2.050   2.681   4.952
 7826TIP3   OH223420   0.267   2.723   6.439
 7826TIP3    H123421   0.294   2.690   6.525
 7826TIP3    H223422   0.311   2.666   6.376
 7827TIP3   OH223423   6.929   2.255   0.982
 7827TIP3    H123424   7.023   2.247   0.996
 7827TIP3    H223425   6.896   2.166   0.989
 7828TIP3   OH223426   7.233   4.762   3.121
 7828TIP3    H123427   7.306   4.821   3.101
 7828TIP3    H223428   7.155   4.814   3.104
 7829TIP3   OH223429   3.999   5.601   1.365
 7829TIP3    H123430   4.043   5.517   1.353
 7829TIP3    H223431   3.926   5.599   1.303
 7830TIP3   OH223432   7.939   2.864   0.956
 7830TIP3    H123433   7.893   2.884   1.038
 7830TIP3    H223434   7.929   2.943   0.904
 7831TIP3   OH223435   0.729   0.270   6.594
 7831TIP3    H123436   0.772   0.318   6.523
 7831TIP3    H223437   0.780   0.190   6.604
 7832TIP3   OH223438   0.652   6.673   2.819
 7832TIP3    H123439   0.638   6.688   2.912
 7832TIP3    H223440   0.580   6.616   2.792
 7833TIP3   OH223441   4.439   6.118   3.334
 7833TIP3    H123442   4.524   6.156   3.309
 7833TIP3    H223443   4.375   6.161   3.278
 7834TIP3   OH223444   1.147   7.630   2.078
 7834TIP3    H123445   1.148   7.721   2.107
 7834TIP3    H223446   1.054   7.608   2.071
 7835TIP3   OH223447   4.952   6.886   0.612
 7835TIP3    H123448   4.999   6.929   0.541
 7835TIP3    H223449   4.918   6.959   0.665
 7836TIP3   OH223450   7.609   1.176   1.906
 7836TIP3    H123451   7.686   1.214   1.863
 7836TIP3    H223452   7.541   1.242   1.896
 7837TIP3   OH223453   3.129   7.174   5.941
 7837TIP3    H123454   3.071   7.123   5.885
 7837TIP3    H223455   3.212   7.125   5.940
 7838TIP3   OH223456   7.768   4.585   3.395
 7838TIP3    H123457   7.839   4.539   3.440
 7838TIP3    H223458   7.725   4.635   3.464
 7839TIP3   OH223459   1.674   4.063   4.988
 7839TIP3    H123460   1.638   4.036   4.904
 7839TIP3    H223461   1.598   4.085   5.041
 7840TIP3   OH223462   3.317   5.359   2.057
 7840TIP3    H123463   3.343   5.447   2.084
 7840TIP3    H223464   3.393   5.305   2.076
 7841TIP3   OH223465   4.800   3.519   4.845
 7841TIP3    H123466   4.822   3.593   4.901
 7841TIP3    H223467   4.844   3.537   4.762
 7842TIP3   OH223468   2.688   0.451   3.266
 7842TIP3    H123469   2.619   0.492   3.213
 7842TIP3    H223470   2.660   0.464   3.356
 7843TIP3   OH223471   7.673   3.810   5.328
 7843TIP3    H123472   7.710   3.722   5.327
 7843TIP3    H223473   7.616   3.810   5.405
 7844TIP3   OH223474   7.090   7.229   3.439
 7844TIP3    H123475   7.029   7.302   3.449
 7844TIP3    H223476   7.088   7.184   3.523
 7845TIP3   OH223477   0.360   7.410   1.392
 7845TIP3    H123478   0.453   7.406   1.370
 7845TIP3    H223479   0.358   7.449   1.480
 7846TIP3   OH223480   4.345   4.540   3.237
 7846TIP3    H123481   4.325   4.471   3.174
 7846TIP3    H223482   4.375   4.492   3.315
 7847TIP3   OH223483   1.322   4.948   0.244
 7847TIP3    H123484   1.229   4.956   0.223
 7847TIP3    H223485   1.347   4.862   0.209
 7848TIP3   OH223486   0.435   1.697   6.627
 7848TIP3    H123487   0.478   1.743   6.555
 7848TIP3    H223488   0.484   1.616   6.638
 7849TIP3   OH223489   2.076   1.425   1.441
 7849TIP3    H123490   2.079   1.515   1.408
 7849TIP3    H223491   2.013   1.428   1.513
 7850TIP3   OH223492   3.451   2.966   4.057
 7850TIP3    H123493   3.531   3.019   4.053
 7850TIP3    H223494   3.416   2.980   4.145
 7851TIP3   OH223495   5.659   1.337   6.082
 7851TIP3    H123496   5.584   1.307   6.133
 7851TIP3    H223497   5.636   1.317   5.991
 7852TIP3   OH223498   3.821   6.686   3.242
 7852TIP3    H123499   3.833   6.601   3.199
 7852TIP3    H223500   3.907   6.707   3.277
 7853TIP3   OH223501   4.734   4.973   0.376
 7853TIP3    H123502   4.702   4.973   0.286
 7853TIP3    H223503   4.734   4.881   0.402
 7854TIP3   OH223504   7.540   4.995   4.831
 7854TIP3    H123505   7.555   5.064   4.767
 7854TIP3    H223506   7.595   4.923   4.803
 7855TIP3   OH223507   6.287   0.163   0.302
 7855TIP3    H123508   6.226   0.233   0.278
 7855TIP3    H223509   6.281   0.100   0.231
 7856TIP3   OH223510   4.763   4.079   5.747
 7856TIP3    H123511   4.688   4.033   5.784
 7856TIP3    H223512   4.818   4.009   5.710
 7857TIP3   OH223513   2.338   5.244   4.739
 7857TIP3    H123514   2.428   5.211   4.740
 7857TIP3    H223515   2.347   5.339   4.732
 7858TIP3   OH223516   7.756   3.763   1.390
 7858TIP3    H123517   7.838   3.788   1.433
 7858TIP3    H223518   7.776   3.765   1.297
 7859TIP3   OH223519   7.666   5.718   2.288
 7859TIP3    H123520   7.674   5.729   2.193
 7859TIP3    H223521   7.625   5.632   2.298
 7860TIP3   OH223522   5.401   1.446   5.536
 7860TIP3    H123523   5.331   1.498   5.496
 7860TIP3    H223524   5.380   1.355   5.515
 7861TIP3   OH223525   5.486   1.991   0.184
 7861TIP3    H123526   5.525   2.037   0.258
 7861TIP3    H223527   5.535   1.910   0.176
 7862TIP3   OH223528   6.550   4.392   6.306
 7862TIP3    H123529   6.606   4.364   6.379
 7862TIP3    H223530   6.469   4.422   6.347
 7863TIP3   OH223531   6.584   1.063   4.931
 7863TIP3    H123532   6.508   1.119   4.947
 7863TIP3    H223533   6.620   1.045   5.017
 7864TIP3   OH223534   5.859   3.583   5.678
 7864TIP3    H123535   5.768   3.593   5.651
 7864TIP3    H223536   5.861   3.611   5.770
 7865TIP3   OH223537   4.533   2.548   2.273
 7865TIP3    H123538   4.495   2.520   2.190
 7865TIP3    H223539   4.508   2.480   2.335
 7866TIP3   OH223540   6.091   4.594   4.512
 7866TIP3    H123541   6.114   4.523   4.573
 7866TIP3    H223542   6.171   4.606   4.460
 7867TIP3   OH223543   3.117   1.464   1.574
 7867TIP3    H123544   3.198   1.446   1.525
 7867TIP3    H223545   3.049   1.422   1.522
 7868TIP3   OH223546   1.920   6.923   6.192
 7868TIP3    H123547   1.830   6.915   6.222
 7868TIP3    H223548   1.941   7.016   6.204
 7869TIP3   OH223549   8.034   0.247   4.862
 7869TIP3    H123550   8.014   0.328   4.815
 7869TIP3    H223551   8.117   0.217   4.824
 7870TIP3   OH223552   3.987   2.336   2.822
 7870TIP3    H123553   4.055   2.269   2.826
 7870TIP3    H223554   3.968   2.346   2.729
 7871TIP3   OH223555   3.090   7.010   1.612
 7871TIP3    H123556   3.027   7.080   1.593
 7871TIP3    H223557   3.137   6.996   1.530
 7872TIP3   OH223558   0.061   2.779   0.396
 7872TIP3    H123559   0.152   2.807   0.396
 7872TIP3    H223560   0.065   2.683   0.395
 7873TIP3   OH223561   1.922   6.432   5.166
 7873TIP3    H123562   1.874   6.498   5.115
 7873TIP3    H223563   1.856   6.391   5.221
 7874TIP3   OH223564   3.054   3.503   5.661
 7874TIP3    H123565   3.084   3.428   5.713
 7874TIP3    H223566   3.115   3.507   5.587
 7875TIP3   OH223567   1.263   1.700   1.485
 7875TIP3    H123568   1.238   1.629   1.425
 7875TIP3    H223569   1.250   1.663   1.572
 7876TIP3   OH223570   2.806   1.487   0.720
 7876TIP3    H123571   2.874   1.553   0.704
 7876TIP3    H223572   2.759   1.481   0.636
 7877TIP3   OH223573   7.307   0.534   2.329
 7877TIP3    H123574   7.338   0.569   2.245
 7877TIP3    H223575   7.241   0.469   2.305
 7878TIP3   OH223576   4.478   0.383   3.471
 7878TIP3    H123577   4.502   0.474   3.485
 7878TIP3    H223578   4.546   0.349   3.414
 7879TIP3   OH223579   1.521   5.166   1.712
 7879TIP3    H123580   1.542   5.123   1.796
 7879TIP3    H223581   1.540   5.100   1.646
 7880TIP3   OH223582   4.630   1.364   1.323
 7880TIP3    H123583   4.684   1.441   1.344
 7880TIP3    H223584   4.590   1.339   1.406
 7881TIP3   OH223585   4.928   1.776   6.094
 7881TIP3    H123586   4.887   1.823   6.021
 7881TIP3    H223587   5.003   1.831   6.119
 7882TIP3   OH223588   1.795   3.990   2.704
 7882TIP3    H123589   1.800   3.945   2.619
 7882TIP3    H223590   1.701   3.988   2.726
 7883TIP3   OH223591   3.844   3.814   2.979
 7883TIP3    H123592   3.781   3.885   2.986
 7883TIP3    H223593   3.816   3.750   3.044
 7884TIP3   OH223594   0.092   2.894   3.525
 7884TIP3    H123595   0.119   2.803   3.514
 7884TIP3    H223596   0.070   2.923   3.436
 7885TIP3   OH223597   5.838   2.481   0.900
 7885TIP3    H123598   5.786   2.560   0.884
 7885TIP3    H223599   5.895   2.474   0.823
 7886TIP3   OH223600   4.746   4.281   2.553
 7886TIP3    H123601   4.794   4.345   2.605
 7886TIP3    H223602   4.813   4.235   2.503
 7887TIP3   OH223603   5.058   6.094   2.086
 7887TIP3    H123604   5.078   6.109   1.994
 7887TIP3    H223605   5.071   6.180   2.127
 7888TIP3   OH223606   3.092   3.752   1.445
 7888TIP3    H123607   3.165   3.792   1.399
 7888TIP3    H223608   3.107   3.774   1.538
 7889TIP3   OH223609   1.327   5.704   3.654
 7889TIP3    H123610   1.396   5.682   3.717
 7889TIP3    H223611   1.286   5.620   3.633
 7890TIP3   OH223612   8.019   5.285   3.945
 7890TIP3    H123613   7.945   5.323   3.993
 7890TIP3    H223614   8.081   5.259   4.013
 7891TIP3   OH223615   4.852   3.699   2.810
 7891TIP3    H123616   4.922   3.645   2.776
 7891TIP3    H223617   4.832   3.662   2.896
 7892TIP3   OH223618   2.956   4.312   3.267
 7892TIP3    H123619   3.016   4.356   3.327
 7892TIP3    H223620   2.963   4.219   3.289
 7893TIP3   OH223621   4.546   3.542   2.718
 7893TIP3    H123622   4.463   3.557   2.674
 7893TIP3    H223623   4.559   3.621   2.772
 7894TIP3   OH223624   3.948   0.465   0.280
 7894TIP3    H123625   3.917   0.492   0.366
 7894TIP3    H223626   3.979   0.546   0.239
 7895TIP3   OH223627   7.480   1.537   3.039
 7895TIP3    H123628   7.479   1.606   2.972
 7895TIP3    H223629   7.470   1.456   2.990
 7896TIP3   OH223630   7.023   5.507   4.358
 7896TIP3    H123631   7.004   5.435   4.297
 7896TIP3    H223632   7.017   5.468   4.445
 7897TIP3   OH223633   5.014   2.748   0.369
 7897TIP3    H123634   4.980   2.696   0.442
 7897TIP3    H223635   4.937   2.784   0.327
 7898TIP3   OH223636   2.115   5.824   6.667
 7898TIP3    H123637   2.025   5.794   6.660
 7898TIP3    H223638   2.163   5.770   6.604
 7899TIP3   OH223639   2.812   5.098   6.285
 7899TIP3    H123640   2.865   5.021   6.261
 7899TIP3    H223641   2.864   5.143   6.351
 7900TIP3   OH223642   5.629   1.482   6.313
 7900TIP3    H123643   5.633   1.450   6.222
 7900TIP3    H223644   5.618   1.577   6.305
 7901TIP3   OH223645   0.857   6.633   4.093
 7901TIP3    H123646   0.784   6.572   4.095
 7901TIP3    H223647   0.901   6.615   4.010
 7902TIP3   OH223648   1.371   1.792   0.391
 7902TIP3    H123649   1.329   1.797   0.305
 7902TIP3    H223650   1.462   1.771   0.371
 7903TIP3   OH223651   0.114   0.382   6.163
 7903TIP3    H123652   0.093   0.475   6.171
 7903TIP3    H223653   0.204   0.380   6.129
 7904TIP3   OH223654   1.723   1.554   1.324
 7904TIP3    H123655   1.763   1.563   1.410
 7904TIP3    H223656   1.736   1.639   1.282
 7905TIP3   OH223657   6.172   6.211   1.046
 7905TIP3    H123658   6.254   6.181   1.085
 7905TIP3    H223659   6.106   6.148   1.077
 7906TIP3   OH223660   3.026   2.590   6.514
 7906TIP3    H123661   3.028   2.666   6.456
 7906TIP3    H223662   3.102   2.602   6.571
 7907TIP3   OH223663   5.395   2.711   1.668
 7907TIP3    H123664   5.395   2.791   1.615
 7907TIP3    H223665   5.482   2.711   1.709
 7908TIP3   OH223666   2.081   5.351   4.311
 7908TIP3    H123667   2.014   5.284   4.301
 7908TIP3    H223668   2.152   5.307   4.357
 7909TIP3   OH223669   1.621   1.091   5.052
 7909TIP3    H123670   1.695   1.060   4.999
 7909TIP3    H223671   1.661   1.122   5.133
 7910TIP3   OH223672   8.240   5.207   4.837
 7910TIP3    H123673   8.299   5.279   4.816
 7910TIP3    H223674   8.267   5.136   4.780
 7911TIP3   OH223675   2.276   0.140   5.550
 7911TIP3    H123676   2.204   0.167   5.607
 7911TIP3    H223677   2.235   0.122   5.466
 7912TIP3   OH223678   1.081   4.142   3.304
 7912TIP3    H123679   1.089   4.123   3.397
 7912TIP3    H223680   1.160   4.103   3.265
 7913TIP3   OH223681   1.299   3.575   3.995
 7913TIP3    H123682   1.301   3.656   4.046
 7913TIP3    H223683   1.357   3.516   4.043
 7914TIP3   OH223684   6.267   3.381   2.053
 7914TIP3    H123685   6.330   3.449   2.078
 7914TIP3    H223686   6.300   3.348   1.969
 7915TIP3   OH223687   2.094   3.731   1.290
 7915TIP3    H123688   2.064   3.743   1.380
 7915TIP3    H223689   2.183   3.767   1.289
 7916TIP3   OH223690   1.048   6.702   4.290
 7916TIP3    H123691   0.969   6.709   4.236
 7916TIP3    H223692   1.112   6.661   4.232
 7917TIP3   OH223693   6.940   2.314   3.289
 7917TIP3    H123694   6.927   2.408   3.300
 7917TIP3    H223695   6.888   2.292   3.211
 7918TIP3   OH223696   3.360   0.357   2.226
 7918TIP3    H123697   3.361   0.446   2.261
 7918TIP3    H223698   3.364   0.301   2.304
 7919TIP3   OH223699   3.306   6.978   1.087
 7919TIP3    H123700   3.377   7.041   1.087
 7919TIP3    H223701   3.280   6.972   0.995
 7920TIP3   OH223702   1.646   2.792   3.097
 7920TIP3    H123703   1.737   2.808   3.121
 7920TIP3    H223704   1.596   2.821   3.172
 7921TIP3   OH223705   1.462   6.768   4.621
 7921TIP3    H123706   1.528   6.722   4.673
 7921TIP3    H223707   1.397   6.701   4.599
 7922TIP3   OH223708   1.568   1.784   4.311
 7922TIP3    H123709   1.491   1.813   4.263
 7922TIP3    H223710   1.600   1.863   4.355
 7923TIP3   OH223711   0.271   4.587   3.318
 7923TIP3    H123712   0.289   4.603   3.410
 7923TIP3    H223713   0.221   4.663   3.289
 7924TIP3   OH223714   7.404  -0.037   4.854
 7924TIP3    H123715   7.352   0.039   4.879
 7924TIP3    H223716   7.484  -0.001   4.817
 7925TIP3   OH223717   3.884   2.325   5.118
 7925TIP3    H123718   3.931   2.270   5.055
 7925TIP3    H223719   3.946   2.396   5.139
 7926TIP3   OH223720   7.912   3.439   3.275
 7926TIP3    H123721   7.907   3.476   3.187
 7926TIP3    H223722   7.889   3.512   3.333
 7927TIP3   OH223723   5.996   0.878   5.828
 7927TIP3    H123724   6.019   0.936   5.756
 7927TIP3    H223725   6.080   0.844   5.860
 7928TIP3   OH223726   0.186   1.186   2.768
 7928TIP3    H123727   0.128   1.122   2.726
 7928TIP3    H223728   0.182   1.262   2.711
 7929TIP3   OH223729   3.137   4.594   5.262
 7929TIP3    H123730   3.159   4.521   5.205
 7929TIP3    H223731   3.219   4.644   5.268
 7930TIP3   OH223732   7.252   6.391   2.507
 7930TIP3    H123733   7.297   6.311   2.482
 7930TIP3    H223734   7.159   6.369   2.502
 7931TIP3   OH223735   0.198   7.084   4.597
 7931TIP3    H123736   0.281   7.044   4.625
 7931TIP3    H223737   0.157   7.113   4.679
 7932TIP3   OH223738   5.765   3.162   3.652
 7932TIP3    H123739   5.719   3.213   3.585
 7932TIP3    H223740   5.809   3.227   3.706
 7933TIP3   OH223741   6.923   3.531   6.146
 7933TIP3    H123742   6.843   3.524   6.198
 7933TIP3    H223743   6.977   3.594   6.194
 7934TIP3   OH223744   1.314   1.609   4.453
 7934TIP3    H123745   1.336   1.557   4.376
 7934TIP3    H223746   1.267   1.685   4.419
 7935TIP3   OH223747   4.763   2.483   0.325
 7935TIP3    H123748   4.814   2.491   0.244
 7935TIP3    H223749   4.729   2.393   0.323
 7936TIP3   OH223750   0.955   5.339   6.321
 7936TIP3    H123751   1.044   5.343   6.356
 7936TIP3    H223752   0.956   5.264   6.260
 7937TIP3   OH223753   8.266   6.353   5.181
 7937TIP3    H123754   8.205   6.405   5.130
 7937TIP3    H223755   8.328   6.318   5.117
 7938TIP3   OH223756   0.794   4.105   2.529
 7938TIP3    H123757   0.708   4.069   2.552
 7938TIP3    H223758   0.779   4.199   2.524
 7939TIP3   OH223759   5.135   5.162   5.842
 7939TIP3    H123760   5.195   5.153   5.769
 7939TIP3    H223761   5.083   5.240   5.821
 7940TIP3   OH223762   2.160   7.096   0.029
 7940TIP3    H123763   2.238   7.150   0.040
 7940TIP3    H223764   2.186   7.029  -0.034
 7941TIP3   OH223765   6.969   4.895   5.277
 7941TIP3    H123766   6.984   4.873   5.369
 7941TIP3    H223767   6.915   4.974   5.279
 7942TIP3   OH223768   1.987   0.409   2.494
 7942TIP3    H123769   1.913   0.370   2.539
 7942TIP3    H223770   2.026   0.337   2.445
 7943TIP3   OH223771   6.602   6.446   6.081
 7943TIP3    H123772   6.533   6.478   6.139
 7943TIP3    H223773   6.606   6.512   6.011
 7944TIP3   OH223774   3.897   7.400   3.462
 7944TIP3    H123775   3.814   7.415   3.508
 7944TIP3    H223776   3.961   7.452   3.511
 7945TIP3   OH223777   3.650   2.498   0.630
 7945TIP3    H123778   3.584   2.494   0.699
 7945TIP3    H223779   3.728   2.460   0.671
 7946TIP3   OH223780   5.222   4.197   3.519
 7946TIP3    H123781   5.296   4.192   3.459
 7946TIP3    H223782   5.158   4.251   3.474
 7947TIP3   OH223783   2.519   4.415   5.394
 7947TIP3    H123784   2.541   4.413   5.300
 7947TIP3    H223785   2.461   4.340   5.406
 7948TIP3   OH223786   7.097   0.460   5.670
 7948TIP3    H123787   7.057   0.383   5.712
 7948TIP3    H223788   7.187   0.461   5.704
 7949TIP3   OH223789   7.399   3.616   5.269
 7949TIP3    H123790   7.408   3.698   5.220
 7949TIP3    H223791   7.315   3.581   5.241
 7950TIP3   OH223792   4.239   2.951   5.591
 7950TIP3    H123793   4.241   2.874   5.647
 7950TIP3    H223794   4.294   3.015   5.637
 7951TIP3   OH223795   0.756   5.978   3.495
 7951TIP3    H123796   0.817   5.923   3.543
 7951TIP3    H223797   0.790   5.982   3.406
 7952TIP3   OH223798   1.663   0.046   2.701
 7952TIP3    H123799   1.649  -0.045   2.676
 7952TIP3    H223800   1.576   0.076   2.730
 7953TIP3   OH223801   1.770   5.178   0.939
 7953TIP3    H123802   1.855   5.186   0.980
 7953TIP3    H223803   1.750   5.267   0.909
 7954TIP3   OH223804   1.137   6.479   1.072
 7954TIP3    H123805   1.187   6.559   1.085
 7954TIP3    H223806   1.200   6.417   1.036
 7955TIP3   OH223807   6.408   3.726   6.752
 7955TIP3    H123808   6.367   3.682   6.826
 7955TIP3    H223809   6.405   3.662   6.681
 7956TIP3   OH223810   1.322   2.793   4.379
 7956TIP3    H123811   1.331   2.808   4.285
 7956TIP3    H223812   1.407   2.819   4.415
 7957TIP3   OH223813   5.406   2.784   3.948
 7957TIP3    H123814   5.318   2.749   3.936
 7957TIP3    H223815   5.438   2.741   4.027
 7958TIP3   OH223816   2.640   1.813   5.584
 7958TIP3    H123817   2.561   1.787   5.632
 7958TIP3    H223818   2.640   1.757   5.506
 7959TIP3   OH223819   2.857   2.522   1.508
 7959TIP3    H123820   2.876   2.616   1.500
 7959TIP3    H223821   2.800   2.515   1.585
 7960TIP3   OH223822   1.889   7.534   0.514
 7960TIP3    H123823   1.881   7.512   0.422
 7960TIP3    H223824   1.799   7.527   0.548
 7961TIP3   OH223825   2.263   6.432   1.374
 7961TIP3    H123826   2.243   6.340   1.392
 7961TIP3    H223827   2.224   6.448   1.288
 7962TIP3   OH223828   2.284   6.281   4.007
 7962TIP3    H123829   2.341   6.299   4.082
 7962TIP3    H223830   2.199   6.261   4.046
 7963TIP3   OH223831   1.837   1.709   4.558
 7963TIP3    H123832   1.795   1.665   4.632
 7963TIP3    H223833   1.777   1.780   4.536
 7964TIP3   OH223834   1.241   2.745   1.105
 7964TIP3    H123835   1.246   2.817   1.168
 7964TIP3    H223836   1.311   2.763   1.043
 7965TIP3   OH223837   6.129   7.481   0.768
 7965TIP3    H123838   6.065   7.513   0.704
 7965TIP3    H223839   6.204   7.540   0.759
 7966TIP3   OH223840   5.611   7.457   4.275
 7966TIP3    H123841   5.619   7.369   4.313
 7966TIP3    H223842   5.520   7.483   4.294
 7967TIP3   OH223843   3.943   0.621   1.722
 7967TIP3    H123844   4.004   0.551   1.746
 7967TIP3    H223845   3.858   0.578   1.715
 7968TIP3   OH223846   2.916   4.765   6.486
 7968TIP3    H123847   2.919   4.819   6.407
 7968TIP3    H223848   2.987   4.701   6.473
 7969TIP3   OH223849   4.109   1.212   0.772
 7969TIP3    H123850   4.089   1.149   0.842
 7969TIP3    H223851   4.032   1.208   0.714
 7970TIP3   OH223852   1.177   4.507   1.803
 7970TIP3    H123853   1.265   4.496   1.768
 7970TIP3    H223854   1.161   4.602   1.798
 7971TIP3   OH223855   5.038   6.159   1.826
 7971TIP3    H123856   5.109   6.223   1.827
 7971TIP3    H223857   5.042   6.118   1.740
 7972TIP3   OH223858   0.547   5.178   3.677
 7972TIP3    H123859   0.525   5.158   3.586
 7972TIP3    H223860   0.567   5.272   3.677
 7973TIP3   OH223861   4.980   4.941   2.626
 7973TIP3    H123862   5.074   4.931   2.639
 7973TIP3    H223863   4.951   4.994   2.700
 7974TIP3   OH223864   1.181   0.304   6.515
 7974TIP3    H123865   1.108   0.353   6.476
 7974TIP3    H223866   1.194   0.230   6.456
 7975TIP3   OH223867   1.948   4.802   5.492
 7975TIP3    H123868   1.994   4.831   5.571
 7975TIP3    H223869   1.876   4.864   5.482
 7976TIP3   OH223870   2.431   6.180   4.815
 7976TIP3    H123871   2.484   6.100   4.814
 7976TIP3    H223872   2.486   6.244   4.860
 7977TIP3   OH223873   4.526   7.318   2.401
 7977TIP3    H123874   4.572   7.386   2.353
 7977TIP3    H223875   4.501   7.254   2.334
 7978TIP3   OH223876   2.246   5.668   5.526
 7978TIP3    H123877   2.206   5.674   5.439
 7978TIP3    H223878   2.327   5.621   5.512
 7979TIP3   OH223879   7.782   0.070   4.148
 7979TIP3    H123880   7.802   0.159   4.117
 7979TIP3    H223881   7.695   0.052   4.113
 7980TIP3   OH223882   0.308   1.332   1.257
 7980TIP3    H123883   0.299   1.426   1.241
 7980TIP3    H223884   0.288   1.322   1.350
 7981TIP3   OH223885   5.304   5.855   2.415
 7981TIP3    H123886   5.330   5.796   2.344
 7981TIP3    H223887   5.218   5.887   2.389
 7982TIP3   OH223888   7.716   3.530   2.291
 7982TIP3    H123889   7.739   3.622   2.273
 7982TIP3    H223890   7.657   3.535   2.366
 7983TIP3   OH223891   8.220   2.604   4.434
 7983TIP3    H123892   8.182   2.568   4.514
 7983TIP3    H223893   8.153   2.591   4.367
 7984TIP3   OH223894   6.370   1.474   0.483
 7984TIP3    H123895   6.435   1.520   0.535
 7984TIP3    H223896   6.287   1.491   0.527
 7985TIP3   OH223897   7.684   2.701   3.354
 7985TIP3    H123898   7.651   2.615   3.329
 7985TIP3    H223899   7.757   2.683   3.413
 7986TIP3   OH223900   1.198   0.947   3.479
 7986TIP3    H123901   1.223   1.011   3.546
 7986TIP3    H223902   1.245   0.867   3.504
 7987TIP3   OH223903   1.008   6.318   6.638
 7987TIP3    H123904   1.092   6.360   6.622
 7987TIP3    H223905   0.944   6.387   6.624
 7988TIP3   OH223906   0.510   4.823   1.011
 7988TIP3    H123907   0.533   4.811   0.919
 7988TIP3    H223908   0.561   4.757   1.057
 7989TIP3   OH223909   3.782   1.215   4.824
 7989TIP3    H123910   3.753   1.229   4.734
 7989TIP3    H223911   3.716   1.259   4.877
 7990TIP3   OH223912   4.146   0.861   4.826
 7990TIP3    H123913   4.096   0.940   4.848
 7990TIP3    H223914   4.228   0.894   4.790
 7991TIP3   OH223915   7.978   3.035   3.987
 7991TIP3    H123916   7.928   3.097   3.934
 7991TIP3    H223917   7.956   2.949   3.951
 7992TIP3   OH223918   0.008   3.468   4.426
 7992TIP3    H123919  -0.002   3.503   4.337
 7992TIP3    H223920  -0.001   3.373   4.416
 7993TIP3   OH223921   4.150   7.482   3.136
 7993TIP3    H123922   4.067   7.528   3.147
 7993TIP3    H223923   4.217   7.548   3.151
 7994TIP3   OH223924   0.916   3.226   1.986
 7994TIP3    H123925   0.838   3.279   2.005
 7994TIP3    H223926   0.985   3.290   1.967
 7995TIP3   OH223927   2.483   4.156   1.875
 7995TIP3    H123928   2.518   4.109   1.800
 7995TIP3    H223929   2.517   4.245   1.866
 7996TIP3   OH223930   0.098   3.984   3.608
 7996TIP3    H123931   0.160   4.048   3.643
 7996TIP3    H223932   0.124   3.974   3.516
 7997TIP3   OH223933   1.116   1.569   5.226
 7997TIP3    H123934   1.147   1.490   5.183
 7997TIP3    H223935   1.101   1.543   5.317
 7998TIP3   OH223936   7.632   2.420   1.182
 7998TIP3    H123937   7.575   2.365   1.235
 7998TIP3    H223938   7.688   2.465   1.246
 7999TIP3   OH223939   1.417   6.255   4.833
 7999TIP3    H123940   1.383   6.181   4.884
 7999TIP3    H223941   1.358   6.262   4.758
 8000TIP3   OH223942   2.604   1.343   5.222
 8000TIP3    H123943   2.511   1.357   5.208
 8000TIP3    H223944   2.622   1.258   5.182
 8001TIP3   OH223945   1.176   0.912   2.951
 8001TIP3    H123946   1.130   0.869   3.023
 8001TIP3    H223947   1.187   0.843   2.885
 8002TIP3   OH223948   7.125   4.569   3.682
 8002TIP3    H123949   7.172   4.648   3.709
 8002TIP3    H223950   7.150   4.556   3.590
 8003TIP3   OH223951   1.821   3.035   4.139
 8003TIP3    H123952   1.834   3.070   4.227
 8003TIP3    H223953   1.731   3.003   4.138
 8004TIP3   OH223954   5.437   5.219   0.941
 8004TIP3    H123955   5.414   5.312   0.949
 8004TIP3    H223956   5.522   5.212   0.984
 8005TIP3   OH223957   2.367   7.457   2.431
 8005TIP3    H123958   2.300   7.426   2.491
 8005TIP3    H223959   2.342   7.423   2.346
 8006TIP3   OH223960   4.453   4.632   6.583
 8006TIP3    H123961   4.443   4.724   6.607
 8006TIP3    H223962   4.489   4.591   6.662
 8007TIP3   OH223963   0.947   3.209   1.415
 8007TIP3    H123964   0.916   3.255   1.337
 8007TIP3    H223965   0.906   3.255   1.489
 8008TIP3   OH223966   1.649   6.880   2.298
 8008TIP3    H123967   1.732   6.920   2.327
 8008TIP3    H223968   1.672   6.789   2.279
 8009TIP3   OH223969   1.485   4.597   0.495
 8009TIP3    H123970   1.562   4.654   0.500
 8009TIP3    H223971   1.411   4.657   0.502
 8010TIP3   OH223972   6.271   5.242   1.565
 8010TIP3    H123973   6.218   5.172   1.602
 8010TIP3    H223974   6.338   5.197   1.513
 8011TIP3   OH223975   3.217   1.598   2.756
 8011TIP3    H123976   3.284   1.651   2.800
 8011TIP3    H223977   3.146   1.591   2.819
 8012TIP3   OH223978   4.581   3.433   4.696
 8012TIP3    H123979   4.647   3.466   4.756
 8012TIP3    H223980   4.597   3.480   4.614
 8013TIP3   OH223981   7.508   1.194   1.050
 8013TIP3    H123982   7.494   1.154   0.964
 8013TIP3    H223983   7.441   1.261   1.057
 8014TIP3   OH223984   2.435   3.190   2.383
 8014TIP3    H123985   2.509   3.201   2.323
 8014TIP3    H223986   2.476   3.163   2.466
 8015TIP3   OH223987   3.280   2.746   4.958
 8015TIP3    H123988   3.303   2.668   4.907
 8015TIP3    H223989   3.325   2.818   4.913
 8016TIP3   OH223990   4.876   4.304   0.904
 8016TIP3    H123991   4.897   4.393   0.934
 8016TIP3    H223992   4.959   4.269   0.872
 8017TIP3   OH223993   2.103   2.417   1.747
 8017TIP3    H123994   2.109   2.497   1.695
 8017TIP3    H223995   2.181   2.367   1.723
 8018TIP3   OH223996   7.765   7.528   2.644
 8018TIP3    H123997   7.788   7.506   2.735
 8018TIP3    H223998   7.822   7.602   2.622
 8019TIP3   OH223999  -0.051   3.691   2.848
 8019TIP3    H124000   0.042   3.674   2.831
 8019TIP3    H224001  -0.090   3.604   2.853
 8020TIP3   OH224002   3.012   3.775   5.649
 8020TIP3    H124003   3.024   3.772   5.554
 8020TIP3    H224004   3.011   3.684   5.676
 8021TIP3   OH224005   3.952   3.426   4.212
 8021TIP3    H124006   4.004   3.348   4.235
 8021TIP3    H224007   4.016   3.487   4.174
 8022TIP3   OH224008   5.611   7.523   5.382
 8022TIP3    H124009   5.560   7.579   5.324
 8022TIP3    H224010   5.579   7.544   5.470
 8023TIP3   OH224011   2.279   7.762   5.818
 8023TIP3    H124012   2.281   7.814   5.738
 8023TIP3    H224013   2.270   7.826   5.889
 8024TIP3   OH224014   0.460   6.042   6.574
 8024TIP3    H124015   0.531   6.095   6.537
 8024TIP3    H224016   0.390   6.047   6.509
 8025TIP3   OH224017   6.168   5.607   0.739
 8025TIP3    H124018   6.198   5.679   0.794
 8025TIP3    H224019   6.104   5.561   0.793
 8026TIP3   OH224020   2.664   4.401   3.430
 8026TIP3    H124021   2.750   4.443   3.434
 8026TIP3    H224022   2.608   4.454   3.487
 8027TIP3   OH224023   5.104   1.383   0.372
 8027TIP3    H124024   5.169   1.336   0.322
 8027TIP3    H224025   5.138   1.384   0.461
 8028TIP3   OH224026   1.089   3.637   5.312
 8028TIP3    H124027   1.118   3.584   5.237
 8028TIP3    H224028   1.040   3.709   5.273
 8029TIP3   OH224029   8.037   1.225   2.529
 8029TIP3    H124030   7.960   1.280   2.524
 8029TIP3    H224031   8.004   1.136   2.519
 8030TIP3   OH224032   3.530   2.029   5.107
 8030TIP3    H124033   3.613   2.022   5.060
 8030TIP3    H224034   3.465   1.989   5.049
 8031TIP3   OH224035   6.119   6.350   2.140
 8031TIP3    H124036   6.055   6.421   2.146
 8031TIP3    H224037   6.171   6.371   2.062
 8032TIP3   OH224038  -0.003   7.226   2.691
 8032TIP3    H124039   0.090   7.208   2.705
 8032TIP3    H224040  -0.017   7.208   2.598
 8033TIP3   OH224041   8.229   7.144   3.946
 8033TIP3    H124042   8.282   7.136   3.867
 8033TIP3    H224043   8.174   7.221   3.930
 8034TIP3   OH224044   3.521   3.426   5.916
 8034TIP3    H124045   3.492   3.366   5.984
 8034TIP3    H224046   3.563   3.497   5.963
 8035TIP3   OH224047   6.328   2.712   6.665
 8035TIP3    H124048   6.333   2.644   6.732
 8035TIP3    H224049   6.362   2.670   6.586
 8036TIP3   OH224050   7.063   5.976   2.136
 8036TIP3    H124051   7.145   5.994   2.089
 8036TIP3    H224052   7.007   5.934   2.071
 8037TIP3   OH224053   5.818   4.925   5.757
 8037TIP3    H124054   5.834   4.834   5.732
 8037TIP3    H224055   5.755   4.921   5.828
 8038TIP3   OH224056   4.377   5.636   6.104
 8038TIP3    H124057   4.337   5.550   6.119
 8038TIP3    H224058   4.445   5.619   6.039
 8039TIP3   OH224059   7.328   0.147   6.675
 8039TIP3    H124060   7.247   0.198   6.685
 8039TIP3    H224061   7.315   0.097   6.594
 8040TIP3   OH224062   0.624   2.061   4.635
 8040TIP3    H124063   0.662   2.082   4.550
 8040TIP3    H224064   0.531   2.048   4.618
 8041TIP3   OH224065   5.706   7.542   4.016
 8041TIP3    H124066   5.710   7.511   3.925
 8041TIP3    H224067   5.614   7.528   4.041
 8042TIP3   OH224068   2.692   0.589   2.038
 8042TIP3    H124069   2.738   0.522   1.988
 8042TIP3    H224070   2.617   0.613   1.983
 8043TIP3   OH224071   0.876   5.740   2.912
 8043TIP3    H124072   0.781   5.731   2.907
 8043TIP3    H224073   0.893   5.826   2.873
 8044TIP3   OH224074   0.956   2.486   6.501
 8044TIP3    H124075   0.883   2.428   6.523
 8044TIP3    H224076   0.995   2.508   6.586
 8045TIP3   OH224077   2.840   7.091   2.086
 8045TIP3    H124078   2.906   7.118   2.150
 8045TIP3    H224079   2.890   7.044   2.019
 8046TIP3   OH224080   7.350   6.625   4.762
 8046TIP3    H124081   7.359   6.535   4.731
 8046TIP3    H224082   7.263   6.651   4.732
 8047TIP3   OH224083   1.536   0.381   3.696
 8047TIP3    H124084   1.513   0.373   3.789
 8047TIP3    H224085   1.452   0.395   3.652
 8048TIP3   OH224086   2.984   5.024   2.129
 8048TIP3    H124087   3.029   5.077   2.063
 8048TIP3    H224088   2.892   5.046   2.118
 8049TIP3   OH224089   2.848   0.606   2.386
 8049TIP3    H124090   2.889   0.529   2.347
 8049TIP3    H224091   2.766   0.616   2.339
 8050TIP3   OH224092   1.545   7.456   0.203
 8050TIP3    H124093   1.549   7.377   0.257
 8050TIP3    H224094   1.523   7.526   0.264
 8051TIP3   OH224095   8.249   4.758   0.303
 8051TIP3    H124096   8.244   4.710   0.221
 8051TIP3    H224097   8.342   4.756   0.326
 8052TIP3   OH224098   6.321   6.911   5.689
 8052TIP3    H124099   6.320   7.006   5.699
 8052TIP3    H224100   6.414   6.887   5.692
 8053TIP3   OH224101   1.727   3.425   2.253
 8053TIP3    H124102   1.640   3.386   2.247
 8053TIP3    H224103   1.785   3.351   2.274
 8054TIP3   OH224104   6.410   0.279   2.871
 8054TIP3    H124105   6.344   0.345   2.892
 8054TIP3    H224106   6.360   0.202   2.844
 8055TIP3   OH224107   4.650   0.309   6.015
 8055TIP3    H124108   4.719   0.314   5.948
 8055TIP3    H224109   4.578   0.263   5.973
 8056TIP3   OH224110   0.910   1.529   2.140
 8056TIP3    H124111   0.944   1.604   2.090
 8056TIP3    H224112   0.885   1.465   2.073
 8057TIP3   OH224113   4.173   4.579   4.861
 8057TIP3    H124114   4.107   4.511   4.876
 8057TIP3    H224115   4.148   4.618   4.777
 8058TIP3   OH224116   8.311   3.183   1.453
 8058TIP3    H124117   8.227   3.185   1.499
 8058TIP3    H224118   8.327   3.275   1.429
 8059TIP3   OH224119   3.885   1.957   1.595
 8059TIP3    H124120   3.980   1.949   1.601
 8059TIP3    H224121   3.854   1.867   1.584
 8060TIP3   OH224122   5.107   5.464   6.272
 8060TIP3    H124123   5.124   5.395   6.336
 8060TIP3    H224124   5.163   5.536   6.299
 8061TIP3   OH224125   2.182   7.455   1.724
 8061TIP3    H124126   2.107   7.418   1.771
 8061TIP3    H224127   2.209   7.529   1.778
 8062TIP3   OH224128   5.389   3.330   1.290
 8062TIP3    H124129   5.423   3.404   1.339
 8062TIP3    H224130   5.325   3.368   1.230
 8063TIP3   OH224131   1.468   5.640   4.361
 8063TIP3    H124132   1.529   5.713   4.371
 8063TIP3    H224133   1.479   5.613   4.269
 8064TIP3   OH224134   0.970   5.654   2.051
 8064TIP3    H124135   1.061   5.681   2.054
 8064TIP3    H224136   0.964   5.599   1.973
 8065TIP3   OH224137   0.209   5.503   5.155
 8065TIP3    H124138   0.228   5.532   5.245
 8065TIP3    H224139   0.248   5.416   5.150
 8066TIP3   OH224140   3.345   7.461   2.785
 8066TIP3    H124141   3.397   7.382   2.796
 8066TIP3    H224142   3.400   7.531   2.821
 8067TIP3   OH224143   3.893   4.540   1.530
 8067TIP3    H124144   3.905   4.631   1.556
 8067TIP3    H224145   3.969   4.520   1.475
 8068TIP3   OH224146   6.475   6.731   3.426
 8068TIP3    H124147   6.524   6.796   3.375
 8068TIP3    H224148   6.529   6.653   3.424
 8069TIP3   OH224149   4.305   1.518   3.402
 8069TIP3    H124150   4.252   1.522   3.481
 8069TIP3    H224151   4.242   1.501   3.332
 8070TIP3   OH224152   0.242   6.187   2.351
 8070TIP3    H124153   0.301   6.240   2.297
 8070TIP3    H224154   0.188   6.140   2.287
 8071TIP3   OH224155   0.223   2.680   5.922
 8071TIP3    H124156   0.222   2.768   5.959
 8071TIP3    H224157   0.196   2.691   5.831
 8072TIP3   OH224158   5.945   2.298   4.913
 8072TIP3    H124159   5.985   2.311   4.999
 8072TIP3    H224160   5.939   2.203   4.904
 8073TIP3   OH224161   0.181   2.560   1.547
 8073TIP3    H124162   0.134   2.643   1.536
 8073TIP3    H224163   0.271   2.586   1.566
 8074TIP3   OH224164   7.701   5.122   5.982
 8074TIP3    H124165   7.793   5.136   6.004
 8074TIP3    H224166   7.702   5.094   5.890
 8075TIP3   OH224167   6.926   6.668   2.335
 8075TIP3    H124168   6.861   6.718   2.385
 8075TIP3    H224169   7.011   6.699   2.367
 8076TIP3   OH224170   2.600   3.752   2.231
 8076TIP3    H124171   2.548   3.829   2.206
 8076TIP3    H224172   2.546   3.707   2.295
 8077TIP3   OH224173   0.835   7.662   5.827
 8077TIP3    H124174   0.837   7.569   5.849
 8077TIP3    H224175   0.772   7.700   5.889
 8078TIP3   OH224176   1.694   4.888   3.896
 8078TIP3    H124177   1.695   4.890   3.992
 8078TIP3    H224178   1.728   4.801   3.874
 8079TIP3   OH224179   0.587   2.399   1.573
 8079TIP3    H124180   0.666   2.426   1.525
 8079TIP3    H224181   0.597   2.305   1.584
 8080TIP3   OH224182   4.204   4.061   1.525
 8080TIP3    H124183   4.235   4.001   1.458
 8080TIP3    H224184   4.184   4.142   1.478
 8081TIP3   OH224185   6.846   1.609   2.766
 8081TIP3    H124186   6.873   1.680   2.708
 8081TIP3    H224187   6.842   1.531   2.709
 8082TIP3   OH224188   5.028   4.688   1.617
 8082TIP3    H124189   5.005   4.615   1.561
 8082TIP3    H224190   4.945   4.716   1.656
 8083TIP3   OH224191   4.857   5.129   5.398
 8083TIP3    H124192   4.939   5.177   5.381
 8083TIP3    H224193   4.827   5.101   5.312
 8084TIP3   OH224194   0.068   0.373   2.866
 8084TIP3    H124195   0.080   0.393   2.773
 8084TIP3    H224196   0.005   0.438   2.897
 8085TIP3   OH224197   3.857   1.402   5.745
 8085TIP3    H124198   3.814   1.442   5.820
 8085TIP3    H224199   3.898   1.476   5.699
 8086TIP3   OH224200   7.401   5.245   4.959
 8086TIP3    H124201   7.453   5.168   4.938
 8086TIP3    H224202   7.446   5.285   5.034
 8087TIP3   OH224203   7.385   5.979   4.336
 8087TIP3    H124204   7.412   5.937   4.255
 8087TIP3    H224205   7.466   6.007   4.378
 8088TIP3   OH224206   5.416   1.564   2.441
 8088TIP3    H124207   5.470   1.551   2.363
 8088TIP3    H224208   5.394   1.657   2.439
 8089TIP3   OH224209   1.059   0.154   4.666
 8089TIP3    H124210   1.030   0.123   4.580
 8089TIP3    H224211   1.048   0.079   4.724
 8090TIP3   OH224212   1.886   2.702   6.543
 8090TIP3    H124213   1.853   2.643   6.476
 8090TIP3    H224214   1.822   2.774   6.546
 8091TIP3   OH224215   0.400   6.845   2.476
 8091TIP3    H124216   0.311   6.814   2.486
 8091TIP3    H224217   0.448   6.771   2.438
 8092TIP3   OH224218   1.317   4.800   2.713
 8092TIP3    H124219   1.313   4.716   2.668
 8092TIP3    H224220   1.296   4.865   2.645
 8093TIP3   OH224221   0.542   4.398   4.852
 8093TIP3    H124222   0.589   4.363   4.927
 8093TIP3    H224223   0.526   4.490   4.875
 8094TIP3   OH224224   4.408   1.555   0.408
 8094TIP3    H124225   4.427   1.641   0.371
 8094TIP3    H224226   4.482   1.537   0.466
 8095TIP3   OH224227   3.400   5.881   3.958
 8095TIP3    H124228   3.433   5.926   4.036
 8095TIP3    H224229   3.351   5.806   3.992
 8096TIP3   OH224230   5.176   5.032   4.245
 8096TIP3    H124231   5.264   5.058   4.218
 8096TIP3    H224232   5.177   4.937   4.243
 8097TIP3   OH224233   1.629   2.639   5.416
 8097TIP3    H124234   1.592   2.727   5.422
 8097TIP3    H224235   1.707   2.642   5.471
 8098TIP3   OH224236   0.190   0.799   1.839
 8098TIP3    H124237   0.274   0.788   1.794
 8098TIP3    H224238   0.181   0.894   1.851
 8099TIP3   OH224239   0.346   4.307   3.252
 8099TIP3    H124240   0.349   4.402   3.246
 8099TIP3    H224241   0.315   4.278   3.166
 8100TIP3   OH224242   5.545   2.597   2.638
 8100TIP3    H124243   5.518   2.509   2.665
 8100TIP3    H224244   5.541   2.649   2.719
 8101TIP3   OH224245   2.532   6.942   6.324
 8101TIP3    H124246   2.524   6.851   6.297
 8101TIP3    H224247   2.442   6.972   6.334
 8102TIP3   OH224248   7.705   2.881   5.914
 8102TIP3    H124249   7.680   2.937   5.987
 8102TIP3    H224250   7.655   2.800   5.926
 8103TIP3   OH224251   6.849   4.551   6.583
 8103TIP3    H124252   6.847   4.458   6.559
 8103TIP3    H224253   6.757   4.575   6.596
 8104TIP3   OH224254   6.874   3.309   1.172
 8104TIP3    H124255   6.905   3.223   1.145
 8104TIP3    H224256   6.800   3.328   1.114
 8105TIP3   OH224257   3.054   5.735   4.566
 8105TIP3    H124258   3.048   5.641   4.547
 8105TIP3    H224259   2.989   5.749   4.636
 8106TIP3   OH224260   4.292   6.841   0.512
 8106TIP3    H124261   4.301   6.913   0.450
 8106TIP3    H224262   4.371   6.844   0.565
 8107TIP3   OH224263   6.777   3.244   3.515
 8107TIP3    H124264   6.802   3.328   3.475
 8107TIP3    H224265   6.740   3.268   3.600
 8108TIP3   OH224266   7.095   0.165   3.753
 8108TIP3    H124267   7.053   0.248   3.774
 8108TIP3    H224268   7.036   0.098   3.788
 8109TIP3   OH224269   6.305   7.182   6.297
 8109TIP3    H124270   6.393   7.206   6.267
 8109TIP3    H224271   6.321   7.124   6.372
 8110TIP3   OH224272   5.258   1.986   5.940
 8110TIP3    H124273   5.295   2.073   5.932
 8110TIP3    H224274   5.315   1.930   5.888
 8111TIP3   OH224275   4.107   5.618   4.101
 8111TIP3    H124276   4.104   5.713   4.088
 8111TIP3    H224277   4.016   5.590   4.091
 8112TIP3   OH224278   6.638   4.513   4.609
 8112TIP3    H124279   6.558   4.493   4.657
 8112TIP3    H224280   6.609   4.522   4.518
 8113TIP3   OH224281   5.962   1.413   5.568
 8113TIP3    H124282   5.905   1.437   5.641
 8113TIP3    H224283   5.993   1.497   5.533
 8114TIP3   OH224284   6.003   0.362   2.945
 8114TIP3    H124285   6.043   0.283   2.982
 8114TIP3    H224286   5.932   0.329   2.889
 8115TIP3   OH224287   0.554   3.489   5.770
 8115TIP3    H124288   0.504   3.562   5.805
 8115TIP3    H224289   0.583   3.440   5.847
 8116TIP3   OH224290   2.025   1.239   2.095
 8116TIP3    H124291   1.978   1.311   2.052
 8116TIP3    H224292   2.002   1.246   2.187
 8117TIP3   OH224293   1.526   6.509   0.630
 8117TIP3    H124294   1.463   6.496   0.558
 8117TIP3    H224295   1.520   6.429   0.682
 8118TIP3   OH224296   2.822   1.233   1.342
 8118TIP3    H124297   2.798   1.185   1.263
 8118TIP3    H224298   2.803   1.324   1.322
 8119TIP3   OH224299   6.020   1.587   2.389
 8119TIP3    H124300   5.989   1.576   2.479
 8119TIP3    H224301   6.114   1.571   2.395
 8120TIP3   OH224302   2.486   2.151   3.301
 8120TIP3    H124303   2.445   2.207   3.235
 8120TIP3    H224304   2.453   2.063   3.281
 8121TIP3   OH224305   3.162   4.938   5.525
 8121TIP3    H124306   3.077   4.982   5.526
 8121TIP3    H224307   3.182   4.926   5.432
 8122TIP3   OH224308   4.130   3.228   5.647
 8122TIP3    H124309   4.220   3.206   5.672
 8122TIP3    H224310   4.076   3.182   5.711
 8123TIP3   OH224311   5.415   5.400   3.291
 8123TIP3    H124312   5.324   5.427   3.300
 8123TIP3    H224313   5.462   5.456   3.354
 8124TIP3   OH224314   1.784   1.842   0.892
 8124TIP3    H124315   1.696   1.826   0.858
 8124TIP3    H224316   1.841   1.832   0.816
 8125TIP3   OH224317   6.925   1.373   1.858
 8125TIP3    H124318   6.960   1.291   1.893
 8125TIP3    H224319   7.003   1.423   1.833
 8126TIP3   OH224320   2.240   0.928   3.234
 8126TIP3    H124321   2.268   0.894   3.149
 8126TIP3    H224322   2.226   0.850   3.288
 8127TIP3   OH224323   2.237   4.244   0.933
 8127TIP3    H124324   2.309   4.196   0.892
 8127TIP3    H224325   2.202   4.300   0.863
 8128TIP3   OH224326   2.861   1.766   2.387
 8128TIP3    H124327   2.927   1.705   2.354
 8128TIP3    H224328   2.842   1.823   2.313
 8129TIP3   OH224329   6.395   4.765   6.284
 8129TIP3    H124330   6.390   4.670   6.282
 8129TIP3    H224331   6.306   4.794   6.269
 8130TIP3   OH224332   1.317   5.799   2.840
 8130TIP3    H124333   1.271   5.719   2.865
 8130TIP3    H224334   1.272   5.830   2.762
 8131TIP3   OH224335   2.777   1.220   3.446
 8131TIP3    H124336   2.866   1.186   3.432
 8131TIP3    H224337   2.778   1.252   3.537
 8132TIP3   OH224338   3.931   2.408   0.463
 8132TIP3    H124339   3.995   2.364   0.519
 8132TIP3    H224340   3.875   2.337   0.431
 8133TIP3   OH224341   4.408   3.418   4.212
 8133TIP3    H124342   4.375   3.342   4.164
 8133TIP3    H224343   4.391   3.492   4.155
 8134TIP3   OH224344   1.713   7.470   1.215
 8134TIP3    H124345   1.693   7.542   1.156
 8134TIP3    H224346   1.686   7.391   1.167
 8135TIP3   OH224347   1.414   5.275   2.761
 8135TIP3    H124348   1.470   5.204   2.792
 8135TIP3    H224349   1.336   5.232   2.727
 8136TIP3   OH224350   6.359   5.536   6.388
 8136TIP3    H124351   6.264   5.547   6.383
 8136TIP3    H224352   6.394   5.604   6.330
 8137TIP3   OH224353   7.496   2.008   5.056
 8137TIP3    H124354   7.488   2.090   5.105
 8137TIP3    H224355   7.406   1.980   5.042
 8138TIP3   OH224356   7.188   2.508   1.058
 8138TIP3    H124357   7.209   2.417   1.077
 8138TIP3    H224358   7.119   2.530   1.120
 8139TIP3   OH224359   0.411   6.332   4.584
 8139TIP3    H124360   0.460   6.401   4.539
 8139TIP3    H224361   0.380   6.275   4.514
 8140TIP3   OH224362   6.594   1.234   0.505
 8140TIP3    H124363   6.565   1.319   0.540
 8140TIP3    H224364   6.520   1.204   0.453
 8141TIP3   OH224365   7.107   0.370   2.139
 8141TIP3    H124366   7.025   0.415   2.157
 8141TIP3    H224367   7.155   0.429   2.081
 8142TIP3   OH224368   3.112   7.672   0.335
 8142TIP3    H124369   3.207   7.684   0.332
 8142TIP3    H224370   3.081   7.748   0.384
 8143TIP3   OH224371   6.692   5.697   2.388
 8143TIP3    H124372   6.719   5.716   2.478
 8143TIP3    H224373   6.609   5.742   2.378
 8144TIP3   OH224374   1.366   3.134   1.499
 8144TIP3    H124375   1.413   3.191   1.439
 8144TIP3    H224376   1.317   3.193   1.556
 8145TIP3   OH224377   6.913   6.337   5.964
 8145TIP3    H124378   6.916   6.417   5.911
 8145TIP3    H224379   6.911   6.368   6.054
 8146TIP3   OH224380   5.112   0.900   4.697
 8146TIP3    H124381   5.074   0.983   4.671
 8146TIP3    H224382   5.194   0.924   4.739
 8147TIP3   OH224383   7.064   4.715   2.857
 8147TIP3    H124384   7.055   4.632   2.810
 8147TIP3    H224385   7.118   4.693   2.933
 8148TIP3   OH224386   3.655   5.643   0.549
 8148TIP3    H124387   3.682   5.712   0.489
 8148TIP3    H224388   3.595   5.687   0.610
 8149TIP3   OH224389   7.614   5.871   0.535
 8149TIP3    H124390   7.655   5.949   0.496
 8149TIP3    H224391   7.593   5.815   0.461
 8150TIP3   OH224392   2.400   2.322   1.877
 8150TIP3    H124393   2.465   2.294   1.942
 8150TIP3    H224394   2.316   2.299   1.916
 8151TIP3   OH224395   2.101   6.398   4.952
 8151TIP3    H124396   2.173   6.378   5.012
 8151TIP3    H224397   2.022   6.387   5.006
 8152TIP3   OH224398   5.278   4.682   2.719
 8152TIP3    H124399   5.275   4.776   2.702
 8152TIP3    H224400   5.205   4.666   2.779
 8153TIP3   OH224401   6.455   2.590   0.926
 8153TIP3    H124402   6.534   2.597   0.980
 8153TIP3    H224403   6.486   2.553   0.843
 8154TIP3   OH224404   1.384   6.937   5.943
 8154TIP3    H124405   1.400   7.008   6.005
 8154TIP3    H224406   1.469   6.923   5.901
 8155TIP3   OH224407   3.577   3.907   5.317
 8155TIP3    H124408   3.605   3.997   5.300
 8155TIP3    H224409   3.493   3.898   5.270
 8156TIP3   OH224410   5.628   1.412   0.105
 8156TIP3    H124411   5.706   1.365   0.074
 8156TIP3    H224412   5.630   1.401   0.200
 8157TIP3   OH224413   0.777   6.558   3.366
 8157TIP3    H124414   0.712   6.574   3.434
 8157TIP3    H224415   0.729   6.511   3.297
 8158TIP3   OH224416   5.463   4.959   0.796
 8158TIP3    H124417   5.542   5.013   0.797
 8158TIP3    H224418   5.444   4.943   0.888
 8159TIP3   OH224419   7.792   2.259   6.073
 8159TIP3    H124420   7.775   2.352   6.090
 8159TIP3    H224421   7.866   2.238   6.129
 8160TIP3   OH224422   4.390   1.433   5.886
 8160TIP3    H124423   4.299   1.456   5.871
 8160TIP3    H224424   4.389   1.338   5.902
 8161TIP3   OH224425   2.200   0.716   5.641
 8161TIP3    H124426   2.143   0.700   5.565
 8161TIP3    H224427   2.154   0.675   5.714
 8162TIP3   OH224428   0.785   1.537   5.256
 8162TIP3    H124429   0.859   1.574   5.209
 8162TIP3    H224430   0.790   1.443   5.240
 8163TIP3   OH224431   1.133   1.164   4.347
 8163TIP3    H124432   1.074   1.227   4.305
 8163TIP3    H224433   1.095   1.079   4.327
 8164TIP3   OH224434   2.811   6.097   0.818
 8164TIP3    H124435   2.790   6.163   0.752
 8164TIP3    H224436   2.768   6.018   0.787
 8165TIP3   OH224437   2.516   0.858   1.649
 8165TIP3    H124438   2.545   0.805   1.724
 8165TIP3    H224439   2.434   0.818   1.622
 8166TIP3   OH224440   0.746   2.750   6.616
 8166TIP3    H124441   0.813   2.742   6.548
 8166TIP3    H224442   0.795   2.767   6.697
 8167TIP3   OH224443   6.099   6.260   0.120
 8167TIP3    H124444   6.145   6.327   0.169
 8167TIP3    H224445   6.016   6.301   0.095
 8168TIP3   OH224446   5.433   2.200   4.065
 8168TIP3    H124447   5.353   2.233   4.025
 8168TIP3    H224448   5.491   2.181   3.992
 8169TIP3   OH224449   0.958   3.135   3.385
 8169TIP3    H124450   0.982   3.161   3.474
 8169TIP3    H224451   1.034   3.086   3.353
 8170TIP3   OH224452   1.084   2.179   5.112
 8170TIP3    H124453   1.105   2.099   5.065
 8170TIP3    H224454   1.002   2.210   5.074
 8171TIP3   OH224455   3.719   3.524   2.482
 8171TIP3    H124456   3.684   3.435   2.480
 8171TIP3    H224457   3.810   3.515   2.455
 8172TIP3   OH224458   3.134   6.089   3.891
 8172TIP3    H124459   3.153   6.145   3.816
 8172TIP3    H224460   3.220   6.063   3.924
 8173TIP3   OH224461   6.015   0.867   0.552
 8173TIP3    H124462   6.101   0.899   0.577
 8173TIP3    H224463   6.003   0.787   0.603
 8174TIP3   OH224464   2.109   7.221   1.289
 8174TIP3    H124465   2.053   7.284   1.334
 8174TIP3    H224466   2.170   7.190   1.357
 8175TIP3   OH224467   7.039   1.389   5.037
 8175TIP3    H124468   6.956   1.341   5.042
 8175TIP3    H224469   7.044   1.436   5.121
 8176TIP3   OH224470   2.815   6.510   1.031
 8176TIP3    H124471   2.883   6.576   1.040
 8176TIP3    H224472   2.850   6.433   1.075
 8177TIP3   OH224473   4.143   4.147   6.075
 8177TIP3    H124474   4.102   4.233   6.076
 8177TIP3    H224475   4.071   4.085   6.081
 8178TIP3   OH224476   0.790   1.863   6.385
 8178TIP3    H124477   0.843   1.859   6.465
 8178TIP3    H224478   0.782   1.957   6.367
 8179TIP3   OH224479   0.317   6.839   6.598
 8179TIP3    H124480   0.242   6.888   6.565
 8179TIP3    H224481   0.348   6.890   6.673
 8180TIP3   OH224482   0.622   5.769   5.404
 8180TIP3    H124483   0.669   5.852   5.412
 8180TIP3    H224484   0.556   5.772   5.474
 8181TIP3   OH224485   3.320   7.624   3.994
 8181TIP3    H124486   3.284   7.554   3.940
 8181TIP3    H224487   3.370   7.579   4.062
 8182TIP3   OH224488   0.720   5.214   4.218
 8182TIP3    H124489   0.625   5.210   4.212
 8182TIP3    H224490   0.738   5.230   4.310
 8183TIP3   OH224491   7.884   4.414   4.170
 8183TIP3    H124492   7.919   4.326   4.158
 8183TIP3    H224493   7.840   4.434   4.088
 8184TIP3   OH224494   1.013   0.474   2.208
 8184TIP3    H124495   1.052   0.481   2.295
 8184TIP3    H224496   1.017   0.562   2.172
 8185TIP3   OH224497   5.519   3.076   5.452
 8185TIP3    H124498   5.456   3.114   5.514
 8185TIP3    H224499   5.594   3.136   5.455
 8186TIP3   OH224500   6.855   5.651   2.921
 8186TIP3    H124501   6.833   5.644   3.014
 8186TIP3    H224502   6.943   5.690   2.920
 8187TIP3   OH224503   6.629   2.193   3.350
 8187TIP3    H124504   6.539   2.161   3.363
 8187TIP3    H224505   6.638   2.266   3.411
 8188TIP3   OH224506   1.353   3.724   2.120
 8188TIP3    H124507   1.350   3.629   2.104
 8188TIP3    H224508   1.297   3.761   2.053
 8189TIP3   OH224509   5.793   4.134   1.572
 8189TIP3    H124510   5.756   4.215   1.605
 8189TIP3    H224511   5.840   4.159   1.493
 8190TIP3   OH224512   5.615   7.279   5.190
 8190TIP3    H124513   5.576   7.354   5.145
 8190TIP3    H224514   5.683   7.248   5.130
 8191TIP3   OH224515   4.840   7.138   0.223
 8191TIP3    H124516   4.785   7.066   0.191
 8191TIP3    H224517   4.897   7.159   0.150
 8192TIP3   OH224518   4.474   2.064   0.120
 8192TIP3    H124519   4.511   2.080   0.033
 8192TIP3    H224520   4.548   2.077   0.180
 8193TIP3   OH224521   2.614   7.176   1.227
 8193TIP3    H124522   2.654   7.260   1.251
 8193TIP3    H224523   2.586   7.138   1.311
 8194TIP3   OH224524   3.184   0.484   0.534
 8194TIP3    H124525   3.197   0.394   0.505
 8194TIP3    H224526   3.249   0.535   0.487
 8195TIP3   OH224527   3.930   3.056   3.798
 8195TIP3    H124528   3.969   3.127   3.746
 8195TIP3    H224529   3.869   3.013   3.738
 8196TIP3   OH224530   6.733   7.355   1.807
 8196TIP3    H124531   6.726   7.260   1.806
 8196TIP3    H224532   6.826   7.373   1.792
 8197TIP3   OH224533   2.785   5.554   1.695
 8197TIP3    H124534   2.731   5.628   1.723
 8197TIP3    H224535   2.857   5.551   1.757
 8198TIP3   OH224536   1.251   6.634   4.506
 8198TIP3    H124537   1.166   6.637   4.550
 8198TIP3    H224538   1.236   6.677   4.421
 8199TIP3   OH224539   6.247   2.414   0.565
 8199TIP3    H124540   6.195   2.343   0.604
 8199TIP3    H224541   6.208   2.428   0.479
 8200TIP3   OH224542   1.959   5.623   3.309
 8200TIP3    H124543   2.015   5.651   3.237
 8200TIP3    H224544   1.874   5.608   3.268
 8201TIP3   OH224545   1.155   7.620   0.779
 8201TIP3    H124546   1.074   7.662   0.751
 8201TIP3    H224547   1.156   7.630   0.874
 8202TIP3   OH224548   0.756   2.125   6.334
 8202TIP3    H124549   0.758   2.196   6.397
 8202TIP3    H224550   0.669   2.130   6.294
 8203TIP3   OH224551   3.383   5.919   1.603
 8203TIP3    H124552   3.341   6.004   1.621
 8203TIP3    H224553   3.440   5.935   1.528
 8204TIP3   OH224554   4.964   1.440   3.518
 8204TIP3    H124555   4.930   1.521   3.479
 8204TIP3    H224556   5.022   1.470   3.588
 8205TIP3   OH224557   1.901   0.651   1.930
 8205TIP3    H124558   1.890   0.556   1.931
 8205TIP3    H224559   1.854   0.682   2.007
 8206TIP3   OH224560   4.873   5.297   2.211
 8206TIP3    H124561   4.838   5.316   2.298
 8206TIP3    H224562   4.892   5.383   2.174
 8207TIP3   OH224563   5.242   4.569   1.263
 8207TIP3    H124564   5.296   4.591   1.339
 8207TIP3    H224565   5.271   4.482   1.238
 8208TIP3   OH224566   5.119   5.236   5.341
 8208TIP3    H124567   5.169   5.299   5.393
 8208TIP3    H224568   5.173   5.157   5.342
 8209TIP3   OH224569   5.577   4.948  -0.015
 8209TIP3    H124570   5.489   4.919   0.009
 8209TIP3    H224571   5.575   5.043  -0.001
 8210TIP3   OH224572   3.647   2.061   4.208
 8210TIP3    H124573   3.582   2.093   4.145
 8210TIP3    H224574   3.643   1.965   4.200
 8211TIP3   OH224575   4.238   4.472   1.774
 8211TIP3    H124576   4.232   4.442   1.683
 8211TIP3    H224577   4.310   4.534   1.775
 8212TIP3   OH224578   2.617   7.001   1.703
 8212TIP3    H124579   2.668   6.976   1.780
 8212TIP3    H224580   2.562   6.925   1.685
 8213TIP3   OH224581   1.208   6.001   0.624
 8213TIP3    H124582   1.264   5.945   0.571
 8213TIP3    H224583   1.120   5.966   0.612
 8214TIP3   OH224584   2.888   4.039   3.888
 8214TIP3    H124585   2.957   4.102   3.907
 8214TIP3    H224586   2.934   3.963   3.853
 8215TIP3   OH224587   6.484   0.978   3.278
 8215TIP3    H124588   6.498   1.055   3.334
 8215TIP3    H224589   6.390   0.980   3.258
 8216TIP3   OH224590   1.617   1.561   4.131
 8216TIP3    H124591   1.595   1.625   4.199
 8216TIP3    H224592   1.691   1.512   4.167
 8217TIP3   OH224593   6.732   4.583   1.874
 8217TIP3    H124594   6.802   4.536   1.828
 8217TIP3    H224595   6.659   4.584   1.812
 8218TIP3   OH224596   2.332   1.081   5.179
 8218TIP3    H124597   2.398   1.078   5.249
 8218TIP3    H224598   2.253   1.044   5.220
 8219TIP3   OH224599   4.446   1.966   5.492
 8219TIP3    H124600   4.495   2.003   5.418
 8219TIP3    H224601   4.484   2.007   5.569
 8220TIP3   OH224602   2.747   6.412   5.773
 8220TIP3    H124603   2.796   6.428   5.853
 8220TIP3    H224604   2.779   6.328   5.741
 8221TIP3   OH224605   7.593   2.254   1.673
 8221TIP3    H124606   7.539   2.229   1.748
 8221TIP3    H224607   7.670   2.297   1.713
 8222TIP3   OH224608   0.829   3.513   3.709
 8222TIP3    H124609   0.841   3.534   3.801
 8222TIP3    H224610   0.806   3.420   3.708
 8223TIP3   OH224611   8.284   5.499   6.275
 8223TIP3    H124612   8.202   5.478   6.230
 8223TIP3    H224613   8.336   5.419   6.269
 8224TIP3   OH224614   7.021   2.243   3.678
 8224TIP3    H124615   7.085   2.183   3.717
 8224TIP3    H224616   6.982   2.193   3.606
 8225TIP3   OH224617   3.467   7.123   3.439
 8225TIP3    H124618   3.522   7.115   3.361
 8225TIP3    H224619   3.511   7.189   3.493
 8226TIP3   OH224620   1.903   6.142   6.451
 8226TIP3    H124621   1.958   6.212   6.486
 8226TIP3    H224622   1.956   6.063   6.457
 8227TIP3   OH224623   0.873   2.641   2.223
 8227TIP3    H124624   0.931   2.587   2.276
 8227TIP3    H224625   0.816   2.578   2.179
 8228TIP3   OH224626   5.434   5.977   3.588
 8228TIP3    H124627   5.472   6.042   3.528
 8228TIP3    H224628   5.508   5.947   3.640
 8229TIP3   OH224629   2.592   1.360   0.514
 8229TIP3    H124630   2.679   1.369   0.476
 8229TIP3    H224631   2.537   1.420   0.464
 8230TIP3   OH224632   2.776   3.521   0.894
 8230TIP3    H124633   2.792   3.608   0.856
 8230TIP3    H224634   2.850   3.507   0.953
 8231TIP3   OH224635   6.916   3.815   2.548
 8231TIP3    H124636   6.866   3.780   2.475
 8231TIP3    H224637   6.918   3.745   2.613
 8232TIP3   OH224638   2.476   3.862   4.842
 8232TIP3    H124639   2.552   3.918   4.859
 8232TIP3    H224640   2.470   3.858   4.746
 8233TIP3   OH224641   0.766   0.707   1.182
 8233TIP3    H124642   0.720   0.781   1.221
 8233TIP3    H224643   0.858   0.730   1.188
 8234TIP3   OH224644   0.417   4.178   4.489
 8234TIP3    H124645   0.471   4.159   4.566
 8234TIP3    H224646   0.336   4.129   4.503
 8235TIP3   OH224647   5.505   3.659   1.936
 8235TIP3    H124648   5.516   3.722   2.008
 8235TIP3    H224649   5.450   3.590   1.973
 8236TIP3   OH224650   3.038   2.406   2.918
 8236TIP3    H124651   2.999   2.370   2.838
 8236TIP3    H224652   3.119   2.447   2.889
 8237TIP3   OH224653   6.640   5.588   4.407
 8237TIP3    H124654   6.677   5.664   4.363
 8237TIP3    H224655   6.674   5.513   4.357
 8238TIP3   OH224656   6.476   5.346   5.133
 8238TIP3    H124657   6.525   5.394   5.200
 8238TIP3    H224658   6.530   5.269   5.114
 8239TIP3   OH224659   4.017   1.091   4.900
 8239TIP3    H124660   4.068   1.165   4.932
 8239TIP3    H224661   3.941   1.131   4.858
 8240TIP3   OH224662   1.023   6.518   1.348
 8240TIP3    H124663   1.053   6.445   1.402
 8240TIP3    H224664   1.077   6.513   1.269
 8241TIP3   OH224665   4.963   6.442   5.520
 8241TIP3    H124666   5.050   6.437   5.558
 8241TIP3    H224667   4.908   6.388   5.577
 8242TIP3   OH224668   5.903  -0.015   3.032
 8242TIP3    H124669   5.884  -0.070   3.108
 8242TIP3    H224670   5.819  -0.009   2.985
 8243TIP3   OH224671   6.093   5.662   6.415
 8243TIP3    H124672   6.033   5.606   6.365
 8243TIP3    H224673   6.097   5.743   6.364
 8244TIP3   OH224674   5.210   2.260   4.476
 8244TIP3    H124675   5.173   2.291   4.559
 8244TIP3    H224676   5.196   2.333   4.415
 8245TIP3   OH224677   3.624   2.735   4.642
 8245TIP3    H124678   3.605   2.828   4.631
 8245TIP3    H224679   3.605   2.717   4.735
 8246TIP3   OH224680   5.603   2.454   1.424
 8246TIP3    H124681   5.600   2.435   1.330
 8246TIP3    H224682   5.527   2.407   1.460
 8247TIP3   OH224683   6.602   5.777   6.460
 8247TIP3    H124684   6.620   5.745   6.549
 8247TIP3    H224685   6.641   5.865   6.458
 8248TIP3   OH224686   0.641   4.996   4.575
 8248TIP3    H124687   0.663   4.916   4.624
 8248TIP3    H224688   0.630   4.966   4.485
 8249TIP3   OH224689   4.115   4.720   4.624
 8249TIP3    H124690   4.198   4.729   4.579
 8249TIP3    H224691   4.055   4.776   4.574
 8250TIP3   OH224692   7.030   5.862   0.432
 8250TIP3    H124693   7.042   5.804   0.357
 8250TIP3    H224694   6.935   5.878   0.434
 8251TIP3   OH224695   4.493   3.164   4.647
 8251TIP3    H124696   4.550   3.138   4.719
 8251TIP3    H224697   4.500   3.260   4.644
 8252TIP3   OH224698   4.562   5.536   4.529
 8252TIP3    H124699   4.477   5.581   4.527
 8252TIP3    H224700   4.581   5.528   4.622
 8253TIP3   OH224701   1.330   2.248   6.012
 8253TIP3    H124702   1.248   2.298   6.006
 8253TIP3    H224703   1.354   2.231   5.922
 8254TIP3   OH224704   7.236   5.462   5.172
 8254TIP3    H124705   7.299   5.397   5.201
 8254TIP3    H224706   7.280   5.546   5.183
 8255TIP3   OH224707   3.244   1.475   0.750
 8255TIP3    H124708   3.207   1.494   0.837
 8255TIP3    H224709   3.335   1.504   0.757
 8256TIP3   OH224710   1.363   5.205   6.223
 8256TIP3    H124711   1.436   5.227   6.166
 8256TIP3    H224712   1.385   5.119   6.258
 8257TIP3   OH224713   1.354   4.167   4.198
 8257TIP3    H124714   1.364   4.199   4.109
 8257TIP3    H224715   1.443   4.162   4.232
 8258TIP3   OH224716   6.330   7.149   5.813
 8258TIP3    H124717   6.310   7.135   5.905
 8258TIP3    H224718   6.374   7.234   5.811
 8259TIP3   OH224719   6.799   5.969   0.663
 8259TIP3    H124720   6.778   5.948   0.572
 8259TIP3    H224721   6.893   5.952   0.671
 8260TIP3   OH224722   0.953   7.330   5.172
 8260TIP3    H124723   0.981   7.241   5.195
 8260TIP3    H224724   0.924   7.368   5.255
 8261TIP3   OH224725   7.058   5.267   3.882
 8261TIP3    H124726   7.085   5.251   3.791
 8261TIP3    H224727   6.967   5.295   3.875
 8262TIP3   OH224728   7.184   2.190   1.687
 8262TIP3    H124729   7.096   2.215   1.657
 8262TIP3    H224730   7.221   2.140   1.615
 8263TIP3   OH224731   3.395   6.096   1.357
 8263TIP3    H124732   3.450   6.060   1.288
 8263TIP3    H224733   3.441   6.175   1.385
 8264TIP3   OH224734   3.499   7.812   6.621
 8264TIP3    H124735   3.493   7.812   6.526
 8264TIP3    H224736   3.419   7.767   6.650
 8265TIP3   OH224737   2.041   5.871   2.958
 8265TIP3    H124738   1.987   5.933   2.910
 8265TIP3    H224739   2.054   5.798   2.897
 8266TIP3   OH224740   5.531   0.292   5.804
 8266TIP3    H124741   5.482   0.366   5.770
 8266TIP3    H224742   5.622   0.315   5.791
 8267TIP3   OH224743   0.690   6.793   1.322
 8267TIP3    H124744   0.753   6.813   1.391
 8267TIP3    H224745   0.731   6.825   1.242
 8268TIP3   OH224746   7.282   2.931   0.070
 8268TIP3    H124747   7.361   2.941   0.123
 8268TIP3    H224748   7.254   2.840   0.086
 8269TIP3   OH224749   5.106   7.786   6.347
 8269TIP3    H124750   5.039   7.752   6.406
 8269TIP3    H224751   5.104   7.727   6.272
 8270TIP3   OH224752   2.026   7.744   6.638
 8270TIP3    H124753   1.941   7.742   6.682
 8270TIP3    H224754   2.090   7.742   6.709
 8271TIP3   OH224755   6.544   3.686   0.927
 8271TIP3    H124756   6.508   3.600   0.904
 8271TIP3    H224757   6.564   3.726   0.842
 8272TIP3   OH224758   3.562   1.658   6.096
 8272TIP3    H124759   3.480   1.691   6.059
 8272TIP3    H224760   3.606   1.736   6.131
 8273TIP3   OH224761   8.080   5.041   0.264
 8273TIP3    H124762   8.080   5.081   0.352
 8273TIP3    H224763   8.167   5.003   0.255
 8274TIP3   OH224764   6.351   2.056   2.868
 8274TIP3    H124765   6.305   2.132   2.834
 8274TIP3    H224766   6.307   1.981   2.827
 8275TIP3   OH224767   2.128   0.836   2.816
 8275TIP3    H124768   2.038   0.850   2.843
 8275TIP3    H224769   2.162   0.771   2.878
 8276TIP3   OH224770   3.548   6.862   4.595
 8276TIP3    H124771   3.476   6.838   4.653
 8276TIP3    H224772   3.596   6.930   4.643
 8277TIP3   OH224773   6.134   1.366   1.356
 8277TIP3    H124774   6.209   1.333   1.306
 8277TIP3    H224775   6.172   1.402   1.436
 8278TIP3   OH224776   3.084   6.774   4.600
 8278TIP3    H124777   3.142   6.745   4.529
 8278TIP3    H224778   2.996   6.761   4.564
 8279TIP3   OH224779   1.432   3.807   0.085
 8279TIP3    H124780   1.409   3.719   0.114
 8279TIP3    H224781   1.360   3.862   0.116
 8280TIP3   OH224782   8.195   2.167   5.509
 8280TIP3    H124783   8.238   2.242   5.468
 8280TIP3    H224784   8.108   2.164   5.469
 8281TIP3   OH224785   8.186   5.677   2.388
 8281TIP3    H124786   8.249   5.731   2.435
 8281TIP3    H224787   8.239   5.625   2.327
 8282TIP3   OH224788   6.973   6.265   0.259
 8282TIP3    H124789   6.963   6.360   0.255
 8282TIP3    H224790   6.994   6.239   0.169
 8283TIP3   OH224791   3.213   5.911   1.082
 8283TIP3    H124792   3.286   5.968   1.106
 8283TIP3    H224793   3.168   5.959   1.013
 8284TIP3   OH224794   7.742   7.308   0.548
 8284TIP3    H124795   7.767   7.220   0.522
 8284TIP3    H224796   7.778   7.317   0.637
 8285TIP3   OH224797   4.128   0.148   2.906
 8285TIP3    H124798   4.165   0.178   2.823
 8285TIP3    H224799   4.115   0.228   2.957
 8286TIP3   OH224800   1.779   4.659   1.469
 8286TIP3    H124801   1.781   4.712   1.389
 8286TIP3    H224802   1.692   4.675   1.506
 8287TIP3   OH224803   6.417   5.231   5.915
 8287TIP3    H124804   6.501   5.208   5.874
 8287TIP3    H224805   6.430   5.208   6.008
 8288TIP3   OH224806   1.242   1.427   2.131
 8288TIP3    H124807   1.175   1.371   2.170
 8288TIP3    H224808   1.255   1.497   2.195
 8289TIP3   OH224809   3.399   3.342   1.375
 8289TIP3    H124810   3.429   3.252   1.372
 8289TIP3    H224811   3.368   3.354   1.465
 8290TIP3   OH224812   6.543   5.329   3.992
 8290TIP3    H124813   6.473   5.267   4.014
 8290TIP3    H224814   6.498   5.411   3.974
 8291TIP3   OH224815   7.399   6.993   2.690
 8291TIP3    H124816   7.491   6.984   2.713
 8291TIP3    H224817   7.399   7.012   2.596
 8292TIP3   OH224818   6.790   6.718   3.622
 8292TIP3    H124819   6.869   6.689   3.577
 8292TIP3    H224820   6.777   6.808   3.594
 8293TIP3   OH224821   1.544   4.056   5.738
 8293TIP3    H124822   1.596   4.114   5.793
 8293TIP3    H224823   1.454   4.068   5.768
 8294TIP3   OH224824   1.744   4.685   2.327
 8294TIP3    H124825   1.738   4.680   2.423
 8294TIP3    H224826   1.690   4.612   2.296
 8295TIP3   OH224827   0.496   6.401   1.266
 8295TIP3    H124828   0.469   6.492   1.252
 8295TIP3    H224829   0.549   6.404   1.346
 8296TIP3   OH224830   7.858   1.406   5.072
 8296TIP3    H124831   7.797   1.437   5.005
 8296TIP3    H224832   7.926   1.474   5.075
 8297TIP3   OH224833   2.100   6.287   6.210
 8297TIP3    H124834   2.124   6.372   6.247
 8297TIP3    H224835   2.150   6.223   6.261
 8298TIP3   OH224836   3.293   3.780   3.010
 8298TIP3    H124837   3.376   3.809   3.047
 8298TIP3    H224838   3.292   3.816   2.921
 8299TIP3   OH224839   6.857   7.228   5.676
 8299TIP3    H124840   6.919   7.248   5.606
 8299TIP3    H224841   6.878   7.291   5.745
 8300TIP3   OH224842   6.258   0.260   1.321
 8300TIP3    H124843   6.253   0.345   1.277
 8300TIP3    H224844   6.348   0.255   1.353
 8301TIP3   OH224845   2.906   3.292   5.115
 8301TIP3    H124846   2.835   3.288   5.051
 8301TIP3    H224847   2.944   3.204   5.115
 8302TIP3   OH224848   7.120   4.332   4.935
 8302TIP3    H124849   7.037   4.331   4.984
 8302TIP3    H224850   7.146   4.425   4.936
 8303TIP3   OH224851   4.048   0.364   1.827
 8303TIP3    H124852   3.995   0.285   1.840
 8303TIP3    H224853   4.125   0.333   1.779
 8304TIP3   OH224854   6.569   5.475   3.023
 8304TIP3    H124855   6.533   5.499   3.108
 8304TIP3    H224856   6.620   5.396   3.039
 8305TIP3   OH224857   1.593   4.134   1.105
 8305TIP3    H124858   1.675   4.177   1.128
 8305TIP3    H224859   1.545   4.128   1.188
 8306TIP3   OH224860   2.710   1.629   0.262
 8306TIP3    H124861   2.728   1.537   0.278
 8306TIP3    H224862   2.619   1.640   0.290
 8307TIP3   OH224863   0.408   6.352   3.420
 8307TIP3    H124864   0.483   6.341   3.478
 8307TIP3    H224865   0.342   6.395   3.475
 8308TIP3   OH224866   7.941   2.493   3.120
 8308TIP3    H124867   7.907   2.420   3.172
 8308TIP3    H224868   8.036   2.489   3.133
 8309TIP3   OH224869   2.485   0.774   6.597
 8309TIP3    H124870   2.544   0.743   6.665
 8309TIP3    H224871   2.541   0.826   6.539
 8310TIP3   OH224872   1.996   3.171   0.433
 8310TIP3    H124873   2.038   3.231   0.495
 8310TIP3    H224874   2.044   3.183   0.351
 8311TIP3   OH224875   2.010   3.229   1.883
 8311TIP3    H124876   1.986   3.140   1.856
 8311TIP3    H224877   2.097   3.242   1.846
 8312TIP3   OH224878   2.722   5.371   2.356
 8312TIP3    H124879   2.703   5.465   2.364
 8312TIP3    H224880   2.817   5.365   2.371
 8313TIP3   OH224881   6.386   7.689   5.445
 8313TIP3    H124882   6.456   7.754   5.436
 8313TIP3    H224883   6.413   7.636   5.520
 8314TIP3   OH224884   2.199   7.268   3.855
 8314TIP3    H124885   2.114   7.308   3.872
 8314TIP3    H224886   2.214   7.285   3.762
 8315TIP3   OH224887   3.983   6.829   2.594
 8315TIP3    H124888   4.029   6.781   2.663
 8315TIP3    H224889   4.041   6.822   2.518
 8316TIP3   OH224890   4.443   2.328   4.376
 8316TIP3    H124891   4.491   2.301   4.298
 8316TIP3    H224892   4.378   2.390   4.344
 8317TIP3   OH224893   3.793   6.063   5.075
 8317TIP3    H124894   3.765   5.976   5.048
 8317TIP3    H224895   3.712   6.110   5.095
 8318TIP3   OH224896   4.013   2.866   2.194
 8318TIP3    H124897   4.072   2.872   2.270
 8318TIP3    H224898   3.958   2.944   2.201
 8319TIP3   OH224899   6.766   5.877   1.917
 8319TIP3    H124900   6.787   5.847   2.005
 8319TIP3    H224901   6.679   5.841   1.899
 8320TIP3   OH224902   4.571   6.772   3.153
 8320TIP3    H124903   4.505   6.835   3.181
 8320TIP3    H224904   4.648   6.825   3.131
 8321TIP3   OH224905   0.416   7.701   6.196
 8321TIP3    H124906   0.442   7.609   6.194
 8321TIP3    H224907   0.462   7.737   6.272
 8322TIP3   OH224908   0.238   4.799   2.501
 8322TIP3    H124909   0.314   4.770   2.450
 8322TIP3    H224910   0.271   4.805   2.591
 8323TIP3   OH224911   0.238   5.572   3.160
 8323TIP3    H124912   0.189   5.508   3.212
 8323TIP3    H224913   0.306   5.520   3.117
 8324TIP3   OH224914   6.893   2.700   5.631
 8324TIP3    H124915   6.895   2.733   5.542
 8324TIP3    H224916   6.848   2.768   5.681
 8325TIP3   OH224917   1.236   6.195   5.508
 8325TIP3    H124918   1.301   6.147   5.559
 8325TIP3    H224919   1.245   6.286   5.537
 8326TIP3   OH224920   6.372   5.764   4.717
 8326TIP3    H124921   6.442   5.746   4.779
 8326TIP3    H224922   6.371   5.688   4.659
 8327TIP3   OH224923   5.520   4.835   5.120
 8327TIP3    H124924   5.556   4.848   5.032
 8327TIP3    H224925   5.452   4.902   5.128
 8328TIP3   OH224926   3.218   7.260   2.401
 8328TIP3    H124927   3.182   7.279   2.487
 8328TIP3    H224928   3.266   7.178   2.413
 8329TIP3   OH224929   7.524   3.331   3.050
 8329TIP3    H124930   7.548   3.290   3.133
 8329TIP3    H224931   7.429   3.321   3.045
 8330TIP3   OH224932   6.418   0.476   6.516
 8330TIP3    H124933   6.332   0.465   6.556
 8330TIP3    H224934   6.427   0.400   6.458
 8331TIP3   OH224935   2.307   0.628   1.154
 8331TIP3    H124936   2.387   0.641   1.205
 8331TIP3    H224937   2.336   0.630   1.063
 8332TIP3   OH224938   0.409   3.371   2.947
 8332TIP3    H124939   0.459   3.314   3.005
 8332TIP3    H224940   0.475   3.409   2.888
 8333TIP3   OH224941   5.808   0.713   1.292
 8333TIP3    H124942   5.720   0.690   1.322
 8333TIP3    H224943   5.796   0.791   1.239
 8334TIP3   OH224944   5.041   4.091   3.950
 8334TIP3    H124945   5.021   4.057   3.863
 8334TIP3    H224946   4.971   4.058   4.006
 8335TIP3   OH224947   6.215   6.249   3.335
 8335TIP3    H124948   6.289   6.297   3.371
 8335TIP3    H224949   6.138   6.292   3.373
 8336TIP3   OH224950   7.649   3.922   4.916
 8336TIP3    H124951   7.693   3.928   4.832
 8336TIP3    H224952   7.659   3.831   4.942
 8337TIP3   OH224953   0.726   5.628   0.383
 8337TIP3    H124954   0.650   5.651   0.436
 8337TIP3    H224955   0.701   5.650   0.293
 8338TIP3   OH224956   0.003   6.420   1.223
 8338TIP3    H124957  -0.001   6.495   1.282
 8338TIP3    H224958   0.077   6.439   1.165
 8339TIP3   OH224959   3.879   4.868   5.396
 8339TIP3    H124960   3.974   4.868   5.382
 8339TIP3    H224961   3.867   4.907   5.483
 8340TIP3   OH224962   5.720   6.730   0.960
 8340TIP3    H124963   5.684   6.811   0.923
 8340TIP3    H224964   5.802   6.716   0.912
 8341TIP3   OH224965   1.272   0.191   0.988
 8341TIP3    H124966   1.241   0.272   1.028
 8341TIP3    H224967   1.324   0.149   1.056
 8342TIP3   OH224968   3.046   6.478   4.450
 8342TIP3    H124969   3.098   6.553   4.418
 8342TIP3    H224970   3.111   6.415   4.479
 8343TIP3   OH224971   3.765   3.240   5.061
 8343TIP3    H124972   3.794   3.153   5.087
 8343TIP3    H224973   3.820   3.263   4.986
 8344TIP3   OH224974   5.383   1.355   6.102
 8344TIP3    H124975   5.360   1.442   6.133
 8344TIP3    H224976   5.365   1.357   6.008
 8345TIP3   OH224977   1.527   0.561   1.489
 8345TIP3    H124978   1.493   0.626   1.426
 8345TIP3    H224979   1.515   0.602   1.574
 8346TIP3   OH224980   0.893   1.862   1.878
 8346TIP3    H124981   0.813   1.839   1.924
 8346TIP3    H224982   0.949   1.785   1.886
 8347TIP3   OH224983   5.609   6.272   5.408
 8347TIP3    H124984   5.668   6.309   5.474
 8347TIP3    H224985   5.663   6.210   5.360
 8348TIP3   OH224986   0.136   4.568   5.390
 8348TIP3    H124987   0.061   4.622   5.365
 8348TIP3    H224988   0.104   4.478   5.382
 8349TIP3   OH224989   8.112   6.629   5.378
 8349TIP3    H124990   8.129   6.543   5.417
 8349TIP3    H224991   8.046   6.668   5.435
 8350TIP3   OH224992   1.521   1.490   6.383
 8350TIP3    H124993   1.497   1.525   6.469
 8350TIP3    H224994   1.602   1.536   6.360
 8351TIP3   OH224995   1.400   2.162   0.549
 8351TIP3    H124996   1.399   2.133   0.640
 8351TIP3    H224997   1.489   2.140   0.518
 8352TIP3   OH224998   4.616   5.584   1.094
 8352TIP3    H124999   4.581   5.633   1.020
 8352TIP3    H225000   4.685   5.530   1.057
 8353TIP3   OH225001   8.124   4.824   6.752
 8353TIP3    H125002   8.188   4.753   6.764
 8353TIP3    H225003   8.040   4.780   6.746
 8354TIP3   OH225004   4.855   2.819   1.101
 8354TIP3    H125005   4.786   2.886   1.100
 8354TIP3    H225006   4.808   2.736   1.106
 8355TIP3   OH225007   7.659   3.857   4.406
 8355TIP3    H125008   7.643   3.775   4.452
 8355TIP3    H225009   7.614   3.924   4.458
 8356TIP3   OH225010   1.154   7.489   3.363
 8356TIP3    H125011   1.194   7.414   3.406
 8356TIP3    H225012   1.135   7.550   3.435
 8357TIP3   OH225013   5.664   6.823   0.221
 8357TIP3    H125014   5.601   6.851   0.154
 8357TIP3    H225015   5.640   6.874   0.299
 8358TIP3   OH225016   5.959   4.872   4.913
 8358TIP3    H125017   5.905   4.945   4.882
 8358TIP3    H225018   6.004   4.841   4.835
 8359TIP3   OH225019   7.496   0.096   0.972
 8359TIP3    H125020   7.486   0.111   0.878
 8359TIP3    H225021   7.591   0.096   0.986
 8360TIP3   OH225022   6.144   4.206   6.279
 8360TIP3    H125023   6.228   4.175   6.245
 8360TIP3    H225024   6.086   4.205   6.203
 8361TIP3   OH225025   1.174   3.041   5.927
 8361TIP3    H125026   1.144   3.073   5.842
 8361TIP3    H225027   1.266   3.020   5.914
 8362TIP3   OH225028   1.219   6.865   5.705
 8362TIP3    H125029   1.225   6.815   5.624
 8362TIP3    H225030   1.279   6.821   5.765
 8363TIP3   OH225031   0.956   5.856   3.635
 8363TIP3    H125032   1.007   5.934   3.656
 8363TIP3    H225033   1.020   5.784   3.636
 8364TIP3   OH225034  -0.011   0.600   1.683
 8364TIP3    H125035   0.017   0.522   1.635
 8364TIP3    H225036   0.071   0.642   1.709
 8365TIP3   OH225037   7.910   3.162   3.246
 8365TIP3    H125038   7.892   3.255   3.263
 8365TIP3    H225039   7.934   3.159   3.153
 8366TIP3   OH225040   5.684   4.410   4.386
 8366TIP3    H125041   5.684   4.495   4.341
 8366TIP3    H225042   5.614   4.417   4.451
 8367TIP3   OH225043   3.337   5.181   4.982
 8367TIP3    H125044   3.404   5.224   4.929
 8367TIP3    H225045   3.335   5.091   4.950
 8368TIP3   OH225046   7.655   2.967   1.529
 8368TIP3    H125047   7.744   2.945   1.499
 8368TIP3    H225048   7.666   3.047   1.580
 8369TIP3   OH225049   4.623   1.521   0.574
 8369TIP3    H125050   4.640   1.615   0.569
 8369TIP3    H225051   4.554   1.513   0.641
 8370TIP3   OH225052   1.957   4.309   6.414
 8370TIP3    H125053   1.896   4.291   6.342
 8370TIP3    H225054   1.950   4.404   6.428
 8371TIP3   OH225055   6.379   3.866   4.569
 8371TIP3    H125056   6.456   3.901   4.524
 8371TIP3    H225057   6.414   3.829   4.651
 8372TIP3   OH225058   7.116   6.185   4.695
 8372TIP3    H125059   7.119   6.124   4.621
 8372TIP3    H225060   7.129   6.130   4.772
 8373TIP3   OH225061   3.509   3.304   4.828
 8373TIP3    H125062   3.444   3.234   4.827
 8373TIP3    H225063   3.593   3.259   4.827
 8374TIP3   OH225064   4.345   7.737   4.347
 8374TIP3    H125065   4.250   7.726   4.352
 8374TIP3    H225066   4.374   7.670   4.286
 8375TIP3   OH225067   3.787   2.911   3.604
 8375TIP3    H125068   3.809   2.837   3.548
 8375TIP3    H225069   3.693   2.924   3.590
 8376TIP3   OH225070   5.933   4.179   1.331
 8376TIP3    H125071   6.017   4.136   1.341
 8376TIP3    H225072   5.952   4.272   1.335
 8377TIP3   OH225073   3.728   7.798   4.876
 8377TIP3    H125074   3.692   7.748   4.949
 8377TIP3    H225075   3.777   7.734   4.825
 8378TIP3   OH225076   2.344   1.102   1.838
 8378TIP3    H125077   2.360   1.009   1.852
 8378TIP3    H225078   2.354   1.141   1.925
 8379TIP3   OH225079   2.334   6.655   2.775
 8379TIP3    H125080   2.260   6.679   2.718
 8379TIP3    H225081   2.324   6.711   2.852
 8380TIP3   OH225082   6.757   1.511   5.120
 8380TIP3    H125083   6.713   1.448   5.178
 8380TIP3    H225084   6.844   1.522   5.158
 8381TIP3   OH225085   2.475   3.863   6.387
 8381TIP3    H125086   2.510   3.805   6.454
 8381TIP3    H225087   2.551   3.883   6.332
 8382TIP3   OH225088   6.588   2.260   4.635
 8382TIP3    H125089   6.531   2.253   4.712
 8382TIP3    H225090   6.545   2.325   4.580
 8383TIP3   OH225091   7.904   0.263   0.933
 8383TIP3    H125092   7.903   0.302   1.020
 8383TIP3    H225093   7.892   0.336   0.873
 8384TIP3   OH225094   7.604   0.815   4.012
 8384TIP3    H125095   7.527   0.811   3.955
 8384TIP3    H225096   7.568   0.811   4.101
 8385TIP3   OH225097   6.089   4.752   0.847
 8385TIP3    H125098   6.162   4.811   0.865
 8385TIP3    H225099   6.017   4.784   0.902
 8386TIP3   OH225100   4.698   1.454   4.522
 8386TIP3    H125101   4.750   1.449   4.441
 8386TIP3    H225102   4.752   1.506   4.582
 8387TIP3   OH225103   2.839   6.945   0.886
 8387TIP3    H125104   2.773   6.995   0.934
 8387TIP3    H225105   2.922   6.967   0.929
 8388TIP3   OH225106   1.801   3.736   3.720
 8388TIP3    H125107   1.710   3.707   3.718
 8388TIP3    H225108   1.814   3.767   3.810
 8389TIP3   OH225109   3.458   2.414   5.814
 8389TIP3    H125110   3.452   2.408   5.909
 8389TIP3    H225111   3.542   2.457   5.797
 8390TIP3   OH225112   7.821   4.809   1.432
 8390TIP3    H125113   7.900   4.764   1.405
 8390TIP3    H225114   7.751   4.746   1.416
 8391TIP3   OH225115   3.857   4.435   0.933
 8391TIP3    H125116   3.782   4.380   0.911
 8391TIP3    H225117   3.835   4.521   0.897
 8392TIP3   OH225118   3.821   2.460   2.036
 8392TIP3    H125119   3.837   2.550   2.007
 8392TIP3    H225120   3.772   2.469   2.117
 8393TIP3   OH225121   5.030   4.082   3.657
 8393TIP3    H125122   4.986   4.017   3.602
 8393TIP3    H225123   5.110   4.104   3.609
 8394TIP3   OH225124   4.849   2.953   2.332
 8394TIP3    H125125   4.931   2.976   2.288
 8394TIP3    H225126   4.787   3.021   2.306
 8395TIP3   OH225127   1.786   7.133   2.255
 8395TIP3    H125128   1.875   7.098   2.263
 8395TIP3    H225129   1.773   7.184   2.336
 8396TIP3   OH225130   4.270   6.700   1.217
 8396TIP3    H125131   4.304   6.685   1.128
 8396TIP3    H225132   4.183   6.660   1.216
 8397TIP3   OH225133   6.519   5.963   6.196
 8397TIP3    H125134   6.547   5.871   6.192
 8397TIP3    H225135   6.435   5.964   6.150
 8398TIP3   OH225136   2.454   0.352   4.117
 8398TIP3    H125137   2.496   0.325   4.199
 8398TIP3    H225138   2.365   0.316   4.124
 8399TIP3   OH225139   1.066   5.232   3.743
 8399TIP3    H125140   1.043   5.181   3.665
 8399TIP3    H225141   0.988   5.284   3.761
 8400TIP3   OH225142   0.481   7.350   2.333
 8400TIP3    H125143   0.431   7.423   2.369
 8400TIP3    H225144   0.481   7.364   2.238
 8401TIP3   OH225145   0.257   0.952   4.118
 8401TIP3    H125146   0.275   0.897   4.042
 8401TIP3    H225147   0.185   0.907   4.163
 8402TIP3   OH225148   7.889   6.544   2.308
 8402TIP3    H125149   7.823   6.477   2.326
 8402TIP3    H225150   7.946   6.543   2.385
 8403TIP3   OH225151   7.144   0.882   0.463
 8403TIP3    H125152   7.227   0.896   0.509
 8403TIP3    H225153   7.146   0.942   0.389
 8404TIP3   OH225154   6.601   2.572   3.460
 8404TIP3    H125155   6.696   2.574   3.463
 8404TIP3    H225156   6.573   2.652   3.503
 8405TIP3   OH225157   6.662   6.689   5.461
 8405TIP3    H125158   6.589   6.687   5.523
 8405TIP3    H225159   6.670   6.598   5.432
 8406TIP3   OH225160   3.891   3.382   5.907
 8406TIP3    H125161   3.825   3.338   5.854
 8406TIP3    H225162   3.943   3.312   5.945
 8407TIP3   OH225163   4.357   4.532   0.858
 8407TIP3    H125164   4.324   4.457   0.908
 8407TIP3    H225165   4.289   4.548   0.793
 8408TIP3   OH225166   4.479   7.447   3.211
 8408TIP3    H125167   4.507   7.363   3.248
 8408TIP3    H225168   4.541   7.463   3.140
 8409TIP3   OH225169   3.072   1.031   3.685
 8409TIP3    H125170   3.102   1.048   3.774
 8409TIP3    H225171   2.981   1.061   3.684
 8410TIP3   OH225172   6.512   1.053   3.013
 8410TIP3    H125173   6.498   1.028   3.104
 8410TIP3    H225174   6.427   1.084   2.983
 8411TIP3   OH225175   1.408   6.940   3.898
 8411TIP3    H125176   1.484   6.969   3.949
 8411TIP3    H225177   1.414   6.845   3.897
 8412TIP3   OH225178   8.060   4.490   5.747
 8412TIP3    H125179   8.127   4.558   5.745
 8412TIP3    H225180   8.017   4.501   5.832
 8413TIP3   OH225181   7.726   1.388   3.460
 8413TIP3    H125182   7.762   1.474   3.480
 8413TIP3    H225183   7.649   1.380   3.516
 8414TIP3   OH225184   0.691   4.211   6.628
 8414TIP3    H125185   0.631   4.138   6.612
 8414TIP3    H225186   0.747   4.214   6.550
 8415TIP3   OH225187   1.903   0.997   4.535
 8415TIP3    H125188   1.947   0.956   4.609
 8415TIP3    H225189   1.968   1.057   4.499
 8416TIP3   OH225190   7.146   7.038   2.641
 8416TIP3    H125191   7.099   7.080   2.713
 8416TIP3    H225192   7.236   7.030   2.672
 8417TIP3   OH225193   7.441   6.020   5.746
 8417TIP3    H125194   7.487   5.988   5.823
 8417TIP3    H225195   7.471   5.962   5.675
 8418TIP3   OH225196   6.037   7.158   3.485
 8418TIP3    H125197   6.026   7.128   3.395
 8418TIP3    H225198   5.960   7.213   3.501
 8419TIP3   OH225199   0.024   4.678   2.655
 8419TIP3    H125200   0.046   4.690   2.748
 8419TIP3    H225201   0.048   4.761   2.614
 8420TIP3   OH225202   5.839   6.850   5.592
 8420TIP3    H125203   5.922   6.838   5.639
 8420TIP3    H225204   5.829   6.770   5.540
 8421TIP3   OH225205   6.394   3.144   0.708
 8421TIP3    H125206   6.375   3.066   0.656
 8421TIP3    H225207   6.446   3.112   0.782
 8422TIP3   OH225208   6.826   1.267   3.985
 8422TIP3    H125209   6.871   1.311   4.057
 8422TIP3    H225210   6.775   1.337   3.942
 8423TIP3   OH225211   5.608   4.790   0.620
 8423TIP3    H125212   5.550   4.855   0.660
 8423TIP3    H225213   5.686   4.840   0.596
 8424TIP3   OH225214   5.524   3.904   5.753
 8424TIP3    H125215   5.469   3.963   5.701
 8424TIP3    H225216   5.565   3.960   5.818
 8425TIP3   OH225217   1.800   6.009   5.493
 8425TIP3    H125218   1.842   5.923   5.485
 8425TIP3    H225219   1.706   5.991   5.489
 8426TIP3   OH225220   8.192   6.926   2.659
 8426TIP3    H125221   8.135   6.925   2.582
 8426TIP3    H225222   8.196   7.019   2.684
 8427TIP3   OH225223   1.690   0.311   5.702
 8427TIP3    H125224   1.597   0.322   5.725
 8427TIP3    H225225   1.721   0.399   5.684
 8428TIP3   OH225226   5.903   0.102   0.548
 8428TIP3    H125227   5.909   0.160   0.472
 8428TIP3    H225228   5.810   0.078   0.553
 8429TIP3   OH225229   7.622   4.813   5.619
 8429TIP3    H125230   7.696   4.765   5.583
 8429TIP3    H225231   7.653   4.903   5.628
 8430TIP3   OH225232   1.313   6.771   1.413
 8430TIP3    H125233   1.372   6.798   1.483
 8430TIP3    H225234   1.225   6.784   1.450
 8431TIP3   OH225235   8.026   2.698   4.663
 8431TIP3    H125236   8.052   2.723   4.752
 8431TIP3    H225237   8.054   2.606   4.655
 8432TIP3   OH225238   7.718   3.591   0.602
 8432TIP3    H125239   7.744   3.647   0.528
 8432TIP3    H225240   7.666   3.648   0.658
 8433TIP3   OH225241   2.610   5.612   5.069
 8433TIP3    H125242   2.607   5.573   4.982
 8433TIP3    H225243   2.529   5.582   5.111
 8434TIP3   OH225244   6.119   1.274   5.104
 8434TIP3    H125245   6.100   1.365   5.079
 8434TIP3    H225246   6.041   1.225   5.078
 8435TIP3   OH225247   4.758   4.956   2.865
 8435TIP3    H125248   4.775   4.863   2.874
 8435TIP3    H225249   4.783   4.993   2.950
 8436TIP3   OH225250   2.447   5.017   1.236
 8436TIP3    H125251   2.403   5.076   1.297
 8436TIP3    H225252   2.522   4.983   1.284
 8437TIP3   OH225253   0.407   3.766   6.708
 8437TIP3    H125254   0.451   3.752   6.792
 8437TIP3    H225255   0.462   3.831   6.663
 8438TIP3   OH225256   8.218   7.579   2.313
 8438TIP3    H125257   8.163   7.513   2.356
 8438TIP3    H225258   8.156   7.639   2.272
 8439TIP3   OH225259   2.689   2.014   1.554
 8439TIP3    H125260   2.782   1.998   1.570
 8439TIP3    H225261   2.660   2.066   1.629
 8440TIP3   OH225262   5.904   4.381   2.733
 8440TIP3    H125263   5.912   4.477   2.734
 8440TIP3    H225264   5.985   4.351   2.774
 8441TIP3   OH225265   5.521   6.323  -0.014
 8441TIP3    H125266   5.547   6.282   0.069
 8441TIP3    H225267   5.452   6.384   0.010
 8442TIP3   OH225268   7.266   4.094   0.218
 8442TIP3    H125269   7.225   4.070   0.301
 8442TIP3    H225270   7.329   4.024   0.201
 8443TIP3   OH225271   8.195   0.164   6.534
 8443TIP3    H125272   8.124   0.228   6.522
 8443TIP3    H225273   8.266   0.215   6.573
 8444TIP3   OH225274   3.159   3.739   0.706
 8444TIP3    H125275   3.115   3.654   0.702
 8444TIP3    H225276   3.253   3.717   0.699
 8445TIP3   OH225277   7.613   0.573   5.678
 8445TIP3    H125278   7.637   0.626   5.754
 8445TIP3    H225279   7.560   0.631   5.624
 8446TIP3   OH225280   6.185   7.052   6.062
 8446TIP3    H125281   6.204   7.112   6.135
 8446TIP3    H225282   6.091   7.036   6.067
 8447TIP3   OH225283   0.240   5.215   3.115
 8447TIP3    H125284   0.328   5.191   3.142
 8447TIP3    H225285   0.183   5.182   3.185
 8448TIP3   OH225286   3.056   2.912   6.296
 8448TIP3    H125287   3.139   2.935   6.338
 8448TIP3    H225288   3.071   2.826   6.259
 8449TIP3   OH225289   2.397   5.753   1.081
 8449TIP3    H125290   2.304   5.756   1.059
 8449TIP3    H225291   2.434   5.831   1.039
 8450TIP3   OH225292   8.119   6.239   1.322
 8450TIP3    H125293   8.043   6.298   1.319
 8450TIP3    H225294   8.192   6.293   1.290
 8451TIP3   OH225295   4.300   5.736   2.834
 8451TIP3    H125296   4.290   5.757   2.927
 8451TIP3    H225297   4.261   5.811   2.789
 8452TIP3   OH225298   4.012   6.256   5.170
 8452TIP3    H125299   3.964   6.338   5.177
 8452TIP3    H225300   3.950   6.195   5.131
 8453TIP3   OH225301   2.576   6.388   0.856
 8453TIP3    H125302   2.563   6.410   0.948
 8453TIP3    H225303   2.669   6.407   0.839
 8454TIP3   OH225304   6.846   4.324   5.968
 8454TIP3    H125305   6.817   4.368   6.048
 8454TIP3    H225306   6.827   4.385   5.898
 8455TIP3   OH225307   2.513   2.002   6.344
 8455TIP3    H125308   2.512   1.955   6.261
 8455TIP3    H225309   2.585   1.961   6.393
 8456TIP3   OH225310   7.337   7.292   0.532
 8456TIP3    H125311   7.420   7.336   0.549
 8456TIP3    H225312   7.362   7.214   0.481
 8457TIP3   OH225313   2.008   1.902   0.207
 8457TIP3    H125314   2.099   1.883   0.230
 8457TIP3    H225315   1.988   1.839   0.137
 8458TIP3   OH225316   0.484   6.921   2.141
 8458TIP3    H125317   0.434   6.840   2.132
 8458TIP3    H225318   0.421   6.984   2.176
 8459TIP3   OH225319   2.330   7.375  -0.030
 8459TIP3    H125320   2.284   7.459  -0.022
 8459TIP3    H225321   2.388   7.372   0.045
 8460TIP3   OH225322   1.883   6.946   1.627
 8460TIP3    H125323   1.969   6.915   1.599
 8460TIP3    H225324   1.851   6.999   1.553
 8461TIP3   OH225325   4.942   2.564   2.608
 8461TIP3    H125326   4.988   2.546   2.525
 8461TIP3    H225327   4.897   2.647   2.592
 8462TIP3   OH225328   3.846   4.092   6.712
 8462TIP3    H125329   3.784   4.032   6.754
 8462TIP3    H225330   3.930   4.046   6.716
 8463TIP3   OH225331   1.367   2.273   4.155
 8463TIP3    H125332   1.384   2.280   4.061
 8463TIP3    H225333   1.452   2.291   4.196
 8464TIP3   OH225334   2.353   5.136   0.641
 8464TIP3    H125335   2.402   5.102   0.566
 8464TIP3    H225336   2.420   5.169   0.700
 8465TIP3   OH225337   0.402   1.002   5.274
 8465TIP3    H125338   0.418   1.061   5.201
 8465TIP3    H225339   0.377   1.059   5.346
 8466TIP3   OH225340   0.250   0.455   5.900
 8466TIP3    H125341   0.307   0.473   5.825
 8466TIP3    H225342   0.178   0.402   5.864
 8467TIP3   OH225343   0.304   6.064   3.345
 8467TIP3    H125344   0.320   6.156   3.367
 8467TIP3    H225345   0.217   6.063   3.305
 8468TIP3   OH225346   5.184   4.351   0.383
 8468TIP3    H125347   5.196   4.307   0.299
 8468TIP3    H225348   5.272   4.378   0.409
 8469TIP3   OH225349   7.145   1.517   2.075
 8469TIP3    H125350   7.122   1.524   1.983
 8469TIP3    H225351   7.233   1.555   2.081
 8470TIP3   OH225352   7.355   7.877   5.017
 8470TIP3    H125353   7.299   7.955   5.011
 8470TIP3    H225354   7.307   7.818   5.074
 8471TIP3   OH225355   3.476   0.643   4.264
 8471TIP3    H125356   3.491   0.552   4.238
 8471TIP3    H225357   3.381   0.649   4.279
 8472TIP3   OH225358   6.556   5.569   4.843
 8472TIP3    H125359   6.564   5.601   4.933
 8472TIP3    H225360   6.633   5.605   4.798
 8473TIP3   OH225361   2.743   1.360   3.680
 8473TIP3    H125362   2.662   1.391   3.720
 8473TIP3    H225363   2.777   1.437   3.635
 8474TIP3   OH225364   1.601   5.059   0.284
 8474TIP3    H125365   1.636   5.080   0.197
 8474TIP3    H225366   1.512   5.029   0.267
 8475TIP3   OH225367   5.289   5.384   4.021
 8475TIP3    H125368   5.221   5.334   4.066
 8475TIP3    H225369   5.251   5.471   4.010
 8476TIP3   OH225370   0.351   7.387   5.695
 8476TIP3    H125371   0.301   7.329   5.637
 8476TIP3    H225372   0.323   7.475   5.671
 8477TIP3   OH225373   1.664   0.852   2.700
 8477TIP3    H125374   1.724   0.778   2.704
 8477TIP3    H225375   1.651   0.878   2.792
 8478TIP3   OH225376   2.459   0.574   3.671
 8478TIP3    H125377   2.468   0.508   3.602
 8478TIP3    H225378   2.537   0.561   3.726
 8479TIP3   OH225379   1.486   0.384   1.091
 8479TIP3    H125380   1.391   0.389   1.096
 8479TIP3    H225381   1.504   0.368   0.998
 8480TIP3   OH225382   2.406   7.640   4.938
 8480TIP3    H125383   2.364   7.554   4.940
 8480TIP3    H225384   2.435   7.651   4.847
 8481TIP3   OH225385   2.987   7.188   3.692
 8481TIP3    H125386   3.047   7.227   3.629
 8481TIP3    H225387   2.952   7.111   3.646
 8482TIP3   OH225388   6.510   0.241   5.387
 8482TIP3    H125389   6.505   0.268   5.295
 8482TIP3    H225390   6.436   0.183   5.400
 8483TIP3   OH225391   7.047   7.261   3.092
 8483TIP3    H125392   7.073   7.351   3.108
 8483TIP3    H225393   7.006   7.233   3.174
 8484TIP3   OH225394   5.944   6.037   4.061
 8484TIP3    H125395   5.867   5.981   4.059
 8484TIP3    H225396   5.915   6.116   4.108
 8485TIP3   OH225397   0.566   3.161   2.209
 8485TIP3    H125398   0.610   3.076   2.204
 8485TIP3    H225399   0.474   3.142   2.191
 8486TIP3   OH225400   2.222   1.355   3.518
 8486TIP3    H125401   2.282   1.424   3.489
 8486TIP3    H225402   2.226   1.289   3.449
 8487TIP3   OH225403   6.936   6.945   6.220
 8487TIP3    H125404   6.844   6.940   6.196
 8487TIP3    H225405   6.952   7.038   6.236
 8488TIP3   OH225406   7.755   6.805   0.696
 8488TIP3    H125407   7.768   6.770   0.784
 8488TIP3    H225408   7.702   6.884   0.709
 8489TIP3   OH225409   2.190   7.024   4.073
 8489TIP3    H125410   2.165   7.095   4.014
 8489TIP3    H225411   2.284   7.036   4.086
 8490TIP3   OH225412   3.168   0.212   2.087
 8490TIP3    H125413   3.201   0.220   1.997
 8490TIP3    H225414   3.223   0.271   2.138
 8491TIP3   OH225415   7.688   0.846   1.796
 8491TIP3    H125416   7.699   0.911   1.726
 8491TIP3    H225417   7.597   0.817   1.789
 8492TIP3   OH225418   4.930   5.838   5.301
 8492TIP3    H125419   4.905   5.925   5.269
 8492TIP3    H225420   4.879   5.827   5.382
 8493TIP3   OH225421   6.523   5.711   5.759
 8493TIP3    H125422   6.432   5.736   5.774
 8493TIP3    H225423   6.572   5.793   5.764
 8494TIP3   OH225424   7.279   2.370   0.494
 8494TIP3    H125425   7.208   2.322   0.453
 8494TIP3    H225426   7.300   2.320   0.573
 8495TIP3   OH225427   2.518   0.641   3.133
 8495TIP3    H125428   2.471   0.703   3.077
 8495TIP3    H225429   2.581   0.694   3.180
 8496TIP3   OH225430   4.635   2.286   1.141
 8496TIP3    H125431   4.727   2.288   1.117
 8496TIP3    H225432   4.611   2.193   1.137
 8497TIP3   OH225433   7.737   4.306   3.941
 8497TIP3    H125434   7.720   4.212   3.944
 8497TIP3    H225435   7.658   4.346   3.977
 8498TIP3   OH225436   2.218   3.375   4.743
 8498TIP3    H125437   2.310   3.352   4.728
 8498TIP3    H225438   2.202   3.449   4.685
 8499TIP3   OH225439   2.667   4.802   6.128
 8499TIP3    H125440   2.743   4.809   6.071
 8499TIP3    H225441   2.605   4.748   6.078
 8500TIP3   OH225442   7.396   4.045   2.952
 8500TIP3    H125443   7.450   4.067   3.027
 8500TIP3    H225444   7.423   4.107   2.884
 8501TIP3   OH225445   5.405   3.134   2.386
 8501TIP3    H125446   5.480   3.083   2.415
 8501TIP3    H225447   5.352   3.072   2.335
 8502TIP3   OH225448   1.479   1.692   3.364
 8502TIP3    H125449   1.568   1.660   3.370
 8502TIP3    H225450   1.470   1.721   3.273
 8503TIP3   OH225451   3.298   0.209   3.992
 8503TIP3    H125452   3.232   0.237   3.929
 8503TIP3    H225453   3.286   0.114   3.999
 8504TIP3   OH225454   2.093   0.769   1.043
 8504TIP3    H125455   2.011   0.772   1.093
 8504TIP3    H225456   2.159   0.745   1.108
 8505TIP3   OH225457   6.158   2.999   3.945
 8505TIP3    H125458   6.067   2.972   3.957
 8505TIP3    H225459   6.168   3.009   3.851
 8506TIP3   OH225460   6.850   7.343   4.356
 8506TIP3    H125461   6.892   7.380   4.433
 8506TIP3    H225462   6.790   7.277   4.391
 8507TIP3   OH225463   3.078   0.934   2.565
 8507TIP3    H125464   3.115   1.022   2.570
 8507TIP3    H225465   3.102   0.902   2.478
 8508TIP3   OH225466   5.124   4.228   5.548
 8508TIP3    H125467   5.066   4.262   5.480
 8508TIP3    H225468   5.173   4.158   5.504
 8509TIP3   OH225469   3.317   7.061   2.095
 8509TIP3    H125470   3.238   7.114   2.092
 8509TIP3    H225471   3.387   7.119   2.066
 8510TIP3   OH225472   1.469   6.596   5.449
 8510TIP3    H125473   1.392   6.602   5.505
 8510TIP3    H225474   1.536   6.646   5.495
 8511TIP3   OH225475   7.466   7.032   2.438
 8511TIP3    H125476   7.520   7.103   2.403
 8511TIP3    H225477   7.443   6.980   2.361
 8512TIP3   OH225478   3.389   7.395   2.225
 8512TIP3    H125479   3.433   7.439   2.299
 8512TIP3    H225480   3.326   7.337   2.267
 8513TIP3   OH225481   0.946   0.454   6.467
 8513TIP3    H125482   0.897   0.532   6.493
 8513TIP3    H225483   0.959   0.465   6.372
 8514TIP3   OH225484   0.876   0.147   4.127
 8514TIP3    H125485   0.969   0.171   4.131
 8514TIP3    H225486   0.831   0.226   4.158
 8515TIP3   OH225487   1.568   5.028   1.080
 8515TIP3    H125488   1.575   5.091   1.151
 8515TIP3    H225489   1.622   5.065   1.010
 8516TIP3   OH225490   7.931   5.855   0.514
 8516TIP3    H125491   7.897   5.884   0.599
 8516TIP3    H225492   7.891   5.913   0.450
 8517TIP3   OH225493   6.254   2.721   2.624
 8517TIP3    H125494   6.284   2.633   2.601
 8517TIP3    H225495   6.225   2.758   2.540
 8518TIP3   OH225496   0.772   2.267   5.123
 8518TIP3    H125497   0.805   2.251   5.212
 8518TIP3    H225498   0.689   2.313   5.136
 8519TIP3   OH225499   3.142   6.352   0.908
 8519TIP3    H125500   3.207   6.302   0.957
 8519TIP3    H225501   3.059   6.305   0.922
 8520TIP3   OH225502   7.672   6.524   5.892
 8520TIP3    H125503   7.634   6.583   5.957
 8520TIP3    H225504   7.690   6.444   5.940
 8521TIP3   OH225505   3.409   0.670   6.441
 8521TIP3    H125506   3.462   0.748   6.451
 8521TIP3    H225507   3.365   0.681   6.356
 8522TIP3   OH225508   3.887   1.155   3.777
 8522TIP3    H125509   3.894   1.204   3.859
 8522TIP3    H225510   3.797   1.124   3.775
 8523TIP3   OH225511   3.533   7.669   6.164
 8523TIP3    H125512   3.583   7.709   6.236
 8523TIP3    H225513   3.600   7.643   6.101
 8524TIP3   OH225514   0.779   7.087   0.295
 8524TIP3    H125515   0.825   7.078   0.211
 8524TIP3    H225516   0.694   7.046   0.280
 8525TIP3   OH225517   1.939   0.768   3.569
 8525TIP3    H125518   1.868   0.825   3.597
 8525TIP3    H225519   1.897   0.683   3.553
 8526TIP3   OH225520   2.569   6.202   4.257
 8526TIP3    H125521   2.484   6.237   4.282
 8526TIP3    H225522   2.632   6.253   4.308
 8527TIP3   OH225523   7.034   4.666   2.309
 8527TIP3    H125524   7.007   4.574   2.310
 8527TIP3    H225525   7.022   4.695   2.399
 8528TIP3   OH225526   5.384   4.949   1.368
 8528TIP3    H125527   5.295   4.922   1.391
 8528TIP3    H225528   5.402   5.024   1.425
 8529TIP3   OH225529   7.654   1.972   3.589
 8529TIP3    H125530   7.565   1.936   3.596
 8529TIP3    H225531   7.678   1.959   3.498
 8530TIP3   OH225532   0.375   4.899   4.045
 8530TIP3    H125533   0.423   4.981   4.051
 8530TIP3    H225534   0.367   4.869   4.136
 8531TIP3   OH225535   3.557   6.945   0.444
 8531TIP3    H125536   3.623   7.004   0.482
 8531TIP3    H225537   3.492   6.935   0.514
 8532TIP3   OH225538   4.050   5.055   6.043
 8532TIP3    H125539   4.098   4.975   6.064
 8532TIP3    H225540   4.117   5.116   6.012
 8533TIP3   OH225541   1.956   6.420   3.977
 8533TIP3    H125542   1.973   6.350   4.039
 8533TIP3    H225543   1.985   6.385   3.893
 8534TIP3   OH225544   0.192   7.181   1.386
 8534TIP3    H125545   0.262   7.122   1.359
 8534TIP3    H225546   0.236   7.266   1.397
 8535TIP3   OH225547   2.200   5.480   2.377
 8535TIP3    H125548   2.285   5.524   2.374
 8535TIP3    H225549   2.173   5.473   2.285
 8536TIP3   OH225550   0.805   6.310   4.634
 8536TIP3    H125551   0.855   6.334   4.556
 8536TIP3    H225552   0.739   6.249   4.603
 8537TIP3   OH225553   4.362   4.804   1.483
 8537TIP3    H125554   4.347   4.887   1.530
 8537TIP3    H225555   4.372   4.830   1.392
 8538TIP3   OH225556   0.897   6.595   0.988
 8538TIP3    H125557   0.970   6.539   1.013
 8538TIP3    H225558   0.931   6.684   0.997
 8539TIP3   OH225559   1.462   5.528   4.073
 8539TIP3    H125560   1.377   5.558   4.041
 8539TIP3    H225561   1.463   5.434   4.055
 8540TIP3   OH225562   0.912   3.893   5.860
 8540TIP3    H125563   0.845   3.828   5.835
 8540TIP3    H225564   0.995   3.851   5.838
 8541TIP3   OH225565   4.879   7.614   6.186
 8541TIP3    H125566   4.964   7.596   6.146
 8541TIP3    H225567   4.830   7.533   6.175
 8542TIP3   OH225568   6.442   3.031   3.801
 8542TIP3    H125569   6.514   2.982   3.761
 8542TIP3    H225570   6.388   3.059   3.728
 8543TIP3   OH225571   4.067   5.679   3.006
 8543TIP3    H125572   4.147   5.712   3.048
 8543TIP3    H225573   4.000   5.743   3.030
 8544TIP3   OH225574   5.480   2.783   3.673
 8544TIP3    H125575   5.474   2.865   3.623
 8544TIP3    H225576   5.421   2.797   3.748
 8545TIP3   OH225577   1.308   2.743   4.119
 8545TIP3    H125578   1.263   2.670   4.163
 8545TIP3    H225579   1.263   2.752   4.036
 8546TIP3   OH225580   2.033   1.511   4.669
 8546TIP3    H125581   1.937   1.513   4.674
 8546TIP3    H225582   2.053   1.552   4.585
 8547TIP3   OH225583   1.283   4.253   4.541
 8547TIP3    H125584   1.263   4.187   4.608
 8547TIP3    H225585   1.377   4.244   4.525
 8548TIP3   OH225586   5.017   7.651   5.837
 8548TIP3    H125587   4.952   7.706   5.794
 8548TIP3    H225588   5.032   7.579   5.776
 8549TIP3   OH225589   6.036   2.433   3.642
 8549TIP3    H125590   6.008   2.463   3.555
 8549TIP3    H225591   5.984   2.485   3.703
 8550TIP3   OH225592   6.906   4.991   0.167
 8550TIP3    H125593   6.943   4.929   0.105
 8550TIP3    H225594   6.971   5.061   0.173
 8551TIP3   OH225595   2.306   0.705   2.341
 8551TIP3    H125596   2.346   0.674   2.259
 8551TIP3    H225597   2.367   0.771   2.374
 8552TIP3   OH225598  -0.026   1.950   1.568
 8552TIP3    H125599   0.007   1.970   1.656
 8552TIP3    H225600  -0.071   1.866   1.578
 8553TIP3   OH225601   4.487   1.778   2.518
 8553TIP3    H125602   4.556   1.833   2.556
 8553TIP3    H225603   4.408   1.802   2.566
 8554TIP3   OH225604   0.427   2.109   6.573
 8554TIP3    H125605   0.443   2.128   6.481
 8554TIP3    H225606   0.376   2.183   6.605
 8555TIP3   OH225607   4.785   0.638   2.505
 8555TIP3    H125608   4.815   0.553   2.473
 8555TIP3    H225609   4.821   0.645   2.593
 8556TIP3   OH225610   5.646   6.287   1.527
 8556TIP3    H125611   5.730   6.326   1.551
 8556TIP3    H225612   5.640   6.301   1.432
 8557TIP3   OH225613   5.227   4.299   4.636
 8557TIP3    H125614   5.178   4.278   4.556
 8557TIP3    H225615   5.240   4.394   4.632
 8558TIP3   OH225616   0.745   2.514   4.079
 8558TIP3    H125617   0.709   2.530   3.992
 8558TIP3    H225618   0.730   2.595   4.127
 8559TIP3   OH225619   7.506   7.271   0.833
 8559TIP3    H125620   7.533   7.358   0.805
 8559TIP3    H225621   7.579   7.240   0.886
 8560TIP3   OH225622   0.598   3.430   3.166
 8560TIP3    H125623   0.546   3.443   3.246
 8560TIP3    H225624   0.677   3.387   3.197
 8561TIP3   OH225625   7.807   1.167   6.050
 8561TIP3    H125626   7.886   1.119   6.027
 8561TIP3    H225627   7.804   1.240   5.988
 8562TIP3   OH225628   3.284   0.275   1.854
 8562TIP3    H125629   3.379   0.280   1.842
 8562TIP3    H225630   3.251   0.246   1.769
 8563TIP3   OH225631   8.096   5.760   3.901
 8563TIP3    H125632   8.077   5.718   3.985
 8563TIP3    H225633   8.140   5.842   3.925
 8564TIP3   OH225634   7.990   6.554   5.811
 8564TIP3    H125635   8.072   6.508   5.795
 8564TIP3    H225636   7.922   6.487   5.805
 8565TIP3   OH225637   3.248   5.974   1.849
 8565TIP3    H125638   3.314   5.978   1.780
 8565TIP3    H225639   3.191   6.049   1.833
 8566TIP3   OH225640   0.485   1.023   6.686
 8566TIP3    H125641   0.522   1.091   6.742
 8566TIP3    H225642   0.439   0.964   6.746
 8567TIP3   OH225643   7.522   6.718   4.397
 8567TIP3    H125644   7.474   6.710   4.480
 8567TIP3    H225645   7.526   6.629   4.363
 8568TIP3   OH225646   7.977   1.452   4.366
 8568TIP3    H125647   7.900   1.439   4.422
 8568TIP3    H225648   7.952   1.524   4.307
 8569TIP3   OH225649   3.437   7.051   3.158
 8569TIP3    H125650   3.485   7.134   3.160
 8569TIP3    H225651   3.500   6.987   3.190
 8570TIP3   OH225652   1.758   1.464   4.717
 8570TIP3    H125653   1.719   1.473   4.804
 8570TIP3    H225654   1.706   1.396   4.674
 8571TIP3   OH225655   2.857   6.647   2.701
 8571TIP3    H125656   2.855   6.553   2.684
 8571TIP3    H225657   2.779   6.682   2.656
 8572TIP3   OH225658   4.511   4.365   6.462
 8572TIP3    H125659   4.533   4.458   6.466
 8572TIP3    H225660   4.447   4.358   6.391
 8573TIP3   OH225661   7.850   2.240   5.605
 8573TIP3    H125662   7.875   2.309   5.666
 8573TIP3    H225663   7.922   2.235   5.543
 8574TIP3   OH225664   2.799   3.724   4.529
 8574TIP3    H125665   2.853   3.752   4.455
 8574TIP3    H225666   2.780   3.805   4.577
 8575TIP3   OH225667   7.619   4.352   1.619
 8575TIP3    H125668   7.677   4.287   1.581
 8575TIP3    H225669   7.669   4.434   1.615
 8576TIP3   OH225670   3.934   6.894   3.719
 8576TIP3    H125671   3.844   6.924   3.720
 8576TIP3    H225672   3.979   6.954   3.660
 8577TIP3   OH225673   2.646   6.834   3.845
 8577TIP3    H125674   2.555   6.849   3.819
 8577TIP3    H225675   2.685   6.790   3.770
 8578TIP3   OH225676   6.553   7.521   2.988
 8578TIP3    H125677   6.489   7.557   2.926
 8578TIP3    H225678   6.634   7.569   2.969
 8579TIP3   OH225679   5.148   4.192   1.926
 8579TIP3    H125680   5.073   4.177   1.983
 8579TIP3    H225681   5.121   4.262   1.867
 8580TIP3   OH225682   7.230   1.481   0.213
 8580TIP3    H125683   7.190   1.401   0.178
 8580TIP3    H225684   7.308   1.495   0.159
 8581TIP3   OH225685   5.094   7.540   2.571
 8581TIP3    H125686   5.081   7.446   2.562
 8581TIP3    H225687   5.173   7.559   2.521
 8582TIP3   OH225688   7.918   4.327   4.891
 8582TIP3    H125689   7.981   4.308   4.960
 8582TIP3    H225690   7.967   4.316   4.810
 8583TIP3   OH225691   6.051   2.556   0.353
 8583TIP3    H125692   6.035   2.609   0.274
 8583TIP3    H225693   5.995   2.479   0.342
 8584TIP3   OH225694   1.877   3.273   2.877
 8584TIP3    H125695   1.898   3.247   2.787
 8584TIP3    H225696   1.955   3.247   2.927
 8585TIP3   OH225697   1.841   3.205   4.837
 8585TIP3    H125698   1.879   3.135   4.889
 8585TIP3    H225699   1.907   3.225   4.771
 8586TIP3   OH225700   7.690   6.458   4.069
 8586TIP3    H125701   7.771   6.465   4.119
 8586TIP3    H225702   7.623   6.437   4.134
 8587TIP3   OH225703   2.264   1.600   3.750
 8587TIP3    H125704   2.207   1.642   3.814
 8587TIP3    H225705   2.264   1.507   3.775
 8588TIP3   OH225706   0.846   7.259   3.941
 8588TIP3    H125707   0.930   7.236   3.981
 8588TIP3    H225708   0.839   7.203   3.864
 8589TIP3   OH225709   4.725   4.038   1.926
 8589TIP3    H125710   4.660   4.024   1.857
 8589TIP3    H225711   4.709   4.127   1.956
 8590TIP3   OH225712   0.550   6.540   1.839
 8590TIP3    H125713   0.562   6.635   1.837
 8590TIP3    H225714   0.457   6.528   1.822
 8591TIP3   OH225715   3.247   0.214   1.351
 8591TIP3    H125716   3.317   0.188   1.291
 8591TIP3    H225717   3.167   0.205   1.300
 8592TIP3   OH225718   1.136   3.920   2.585
 8592TIP3    H125719   1.148   4.011   2.557
 8592TIP3    H225720   1.060   3.922   2.643
 8593TIP3   OH225721   5.261   2.736   2.070
 8593TIP3    H125722   5.288   2.812   2.018
 8593TIP3    H225723   5.257   2.664   2.008
 8594TIP3   OH225724   0.601   2.929   2.973
 8594TIP3    H125725   0.646   2.863   3.026
 8594TIP3    H225726   0.654   2.938   2.894
 8595TIP3   OH225727   3.252   5.555   6.551
 8595TIP3    H125728   3.278   5.636   6.593
 8595TIP3    H225729   3.156   5.560   6.547
 8596TIP3   OH225730   6.386   5.958   6.463
 8596TIP3    H125731   6.430   5.975   6.380
 8596TIP3    H225732   6.407   5.868   6.484
 8597TIP3   OH225733   0.744   5.066   6.261
 8597TIP3    H125734   0.716   4.982   6.227
 8597TIP3    H225735   0.663   5.111   6.286
 8598TIP3   OH225736   0.493   2.349   1.247
 8598TIP3    H125737   0.568   2.406   1.261
 8598TIP3    H225738   0.419   2.408   1.235
 8599TIP3   OH225739   0.153   1.939   1.081
 8599TIP3    H125740   0.146   1.915   1.173
 8599TIP3    H225741   0.112   2.025   1.074
 8600TIP3   OH225742   2.629   7.224   5.089
 8600TIP3    H125743   2.607   7.173   5.167
 8600TIP3    H225744   2.546   7.235   5.043
 8601TIP3   OH225745   2.388   5.554   5.198
 8601TIP3    H125746   2.298   5.580   5.176
 8601TIP3    H225747   2.381   5.516   5.286
 8602TIP3   OH225748   4.713   1.536   2.498
 8602TIP3    H125749   4.631   1.581   2.516
 8602TIP3    H225750   4.698   1.446   2.528
 8603TIP3   OH225751   2.028   1.335   2.730
 8603TIP3    H125752   1.953   1.390   2.751
 8603TIP3    H225753   2.071   1.381   2.657
 8604TIP3   OH225754   2.344   3.331   4.494
 8604TIP3    H125755   2.406   3.357   4.425
 8604TIP3    H225756   2.399   3.312   4.570
 8605TIP3   OH225757   0.392   2.355   3.075
 8605TIP3    H125758   0.365   2.336   3.165
 8605TIP3    H225759   0.319   2.404   3.038
 8606TIP3   OH225760   2.730   0.097   4.922
 8606TIP3    H125761   2.650   0.050   4.949
 8606TIP3    H225762   2.799   0.059   4.975
 8607TIP3   OH225763   3.862   2.457   1.184
 8607TIP3    H125764   3.860   2.467   1.279
 8607TIP3    H225765   3.954   2.446   1.163
 8608TIP3   OH225766   4.680   0.773   4.949
 8608TIP3    H125767   4.769   0.782   4.914
 8608TIP3    H225768   4.674   0.681   4.975
 8609TIP3   OH225769   3.798   1.918   4.672
 8609TIP3    H125770   3.733   1.976   4.710
 8609TIP3    H225771   3.837   1.969   4.600
 8610TIP3   OH225772   7.455   6.221   0.238
 8610TIP3    H125773   7.411   6.304   0.222
 8610TIP3    H225774   7.384   6.158   0.252
 8611TIP3   OH225775   3.130   3.021   4.497
 8611TIP3    H125776   3.109   3.114   4.504
 8611TIP3    H225777   3.050   2.976   4.522
 8612TIP3   OH225778   0.987   7.171   3.602
 8612TIP3    H125779   0.987   7.262   3.633
 8612TIP3    H225780   0.921   7.128   3.657
 8613TIP3   OH225781   7.417   1.549   1.234
 8613TIP3    H125782   7.414   1.488   1.160
 8613TIP3    H225783   7.405   1.494   1.311
 8614TIP3   OH225784   0.686   4.261   0.446
 8614TIP3    H125785   0.759   4.223   0.397
 8614TIP3    H225786   0.616   4.269   0.381
 8615TIP3   OH225787   4.837   7.345   0.865
 8615TIP3    H125788   4.812   7.388   0.783
 8615TIP3    H225789   4.907   7.400   0.900
 8616TIP3   OH225790   6.763   7.420   4.793
 8616TIP3    H125791   6.752   7.444   4.701
 8616TIP3    H225792   6.676   7.395   4.823
 8617TIP3   OH225793   5.570   5.707   5.196
 8617TIP3    H125794   5.573   5.614   5.177
 8617TIP3    H225795   5.636   5.746   5.140
 8618TIP3   OH225796   5.683   5.780   1.928
 8618TIP3    H125797   5.751   5.846   1.932
 8618TIP3    H225798   5.609   5.819   1.975
 8619TIP3   OH225799   1.890   3.595   2.932
 8619TIP3    H125800   1.912   3.537   3.004
 8619TIP3    H225801   1.920   3.681   2.961
 8620TIP3   OH225802   2.421   5.627   2.363
 8620TIP3    H125803   2.498   5.634   2.420
 8620TIP3    H225804   2.443   5.678   2.286
 8621TIP3   OH225805   5.804   0.103   1.935
 8621TIP3    H125806   5.714   0.109   1.902
 8621TIP3    H225807   5.851   0.056   1.866
 8622TIP3   OH225808   1.710   0.971   3.622
 8622TIP3    H125809   1.637   0.939   3.676
 8622TIP3    H225810   1.668   1.020   3.552
 8623TIP3   OH225811   6.495   0.778   4.461
 8623TIP3    H125812   6.454   0.833   4.394
 8623TIP3    H225813   6.512   0.837   4.534
 8624TIP3   OH225814   3.044   2.548   4.518
 8624TIP3    H125815   3.041   2.489   4.594
 8624TIP3    H225816   3.136   2.545   4.490
 8625TIP3   OH225817   0.171   4.262   1.948
 8625TIP3    H125818   0.250   4.252   1.895
 8625TIP3    H225819   0.201   4.302   2.029
 8626TIP3   OH225820   3.037   2.539   1.249
 8626TIP3    H125821   3.128   2.565   1.235
 8626TIP3    H225822   2.986   2.617   1.225
 8627TIP3   OH225823   4.540   3.844   2.819
 8627TIP3    H125824   4.535   3.921   2.763
 8627TIP3    H225825   4.589   3.872   2.896
 8628TIP3   OH225826   0.228   3.221   0.668
 8628TIP3    H125827   0.257   3.130   0.663
 8628TIP3    H225828   0.218   3.248   0.576
 8629TIP3   OH225829   7.527   0.085   5.942
 8629TIP3    H125830   7.522  -0.002   5.980
 8629TIP3    H225831   7.615   0.117   5.964
 8630TIP3   OH225832   8.107   3.261   4.686
 8630TIP3    H125833   8.199   3.234   4.682
 8630TIP3    H225834   8.062   3.201   4.627
 8631TIP3   OH225835   5.618   0.074   5.466
 8631TIP3    H125836   5.695   0.130   5.474
 8631TIP3    H225837   5.622   0.016   5.542
 8632TIP3   OH225838   2.364   6.419   5.049
 8632TIP3    H125839   2.372   6.374   5.133
 8632TIP3    H225840   2.449   6.407   5.007
 8633TIP3   OH225841   4.531   7.299   4.677
 8633TIP3    H125842   4.571   7.350   4.747
 8633TIP3    H225843   4.505   7.364   4.612
 8634TIP3   OH225844   3.518   1.122   2.250
 8634TIP3    H125845   3.517   1.128   2.155
 8634TIP3    H225846   3.611   1.129   2.274
 8635TIP3   OH225847   1.927   5.024   1.763
 8635TIP3    H125848   1.981   5.025   1.683
 8635TIP3    H225849   1.972   4.964   1.822
 8636TIP3   OH225850   1.555   0.632   5.234
 8636TIP3    H125851   1.484   0.581   5.272
 8636TIP3    H225852   1.522   0.722   5.234
 8637TIP3   OH225853   0.086   1.965   3.249
 8637TIP3    H125854   0.044   1.884   3.278
 8637TIP3    H225855   0.123   1.945   3.164
 8638TIP3   OH225856   1.130   0.588   4.027
 8638TIP3    H125857   1.144   0.584   3.933
 8638TIP3    H225858   1.172   0.670   4.054
 8639TIP3   OH225859   0.859   3.268   2.628
 8639TIP3    H125860   0.909   3.215   2.690
 8639TIP3    H225861   0.768   3.250   2.648
 8640TIP3   OH225862   3.014   6.005   4.361
 8640TIP3    H125863   3.090   6.003   4.304
 8640TIP3    H225864   2.944   5.964   4.311
 8641TIP3   OH225865   0.272   4.167   6.537
 8641TIP3    H125866   0.275   4.174   6.632
 8641TIP3    H225867   0.319   4.244   6.505
 8642TIP3   OH225868   1.523   5.626   4.718
 8642TIP3    H125869   1.506   5.705   4.768
 8642TIP3    H225870   1.614   5.635   4.689
 8643TIP3   OH225871   7.828   0.057   4.411
 8643TIP3    H125872   7.797   0.086   4.326
 8643TIP3    H225873   7.761  -0.004   4.442
 8644TIP3   OH225874   6.657   3.123   5.425
 8644TIP3    H125875   6.642   3.212   5.395
 8644TIP3    H225876   6.748   3.104   5.402
 8645TIP3   OH225877   3.423   3.634   0.673
 8645TIP3    H125878   3.427   3.539   0.681
 8645TIP3    H225879   3.514   3.662   0.672
 8646TIP3   OH225880   7.777   5.481   2.523
 8646TIP3    H125881   7.686   5.469   2.494
 8646TIP3    H225882   7.810   5.392   2.535
 8647TIP3   OH225883   4.172   3.562   0.349
 8647TIP3    H125884   4.109   3.610   0.403
 8647TIP3    H225885   4.131   3.477   0.334
 8648TIP3   OH225886   6.155   3.077   6.710
 8648TIP3    H125887   6.087   3.126   6.756
 8648TIP3    H225888   6.181   3.135   6.638
 8649TIP3   OH225889   3.315   1.448   4.599
 8649TIP3    H125890   3.332   1.359   4.632
 8649TIP3    H225891   3.399   1.477   4.563
 8650TIP3   OH225892   5.667   6.043   6.694
 8650TIP3    H125893   5.601   6.113   6.696
 8650TIP3    H225894   5.734   6.071   6.757
 8651TIP3   OH225895   1.076   3.730   6.220
 8651TIP3    H125896   1.161   3.758   6.186
 8651TIP3    H225897   1.094   3.705   6.311
 8652TIP3   OH225898   6.662   7.743   4.792
 8652TIP3    H125899   6.755   7.753   4.812
 8652TIP3    H225900   6.660   7.686   4.716
 8653TIP3   OH225901   3.397   6.627   3.206
 8653TIP3    H125902   3.415   6.592   3.294
 8653TIP3    H225903   3.309   6.594   3.186
 8654TIP3   OH225904   3.813   7.737   5.561
 8654TIP3    H125905   3.848   7.695   5.640
 8654TIP3    H225906   3.758   7.809   5.594
 8655TIP3   OH225907   4.190   1.488   0.129
 8655TIP3    H125908   4.117   1.447   0.082
 8655TIP3    H225909   4.202   1.573   0.087
 8656TIP3   OH225910   1.361   7.532   1.592
 8656TIP3    H125911   1.438   7.587   1.580
 8656TIP3    H225912   1.386   7.470   1.660
 8657TIP3   OH225913   5.275   7.122   2.614
 8657TIP3    H125914   5.331   7.130   2.537
 8657TIP3    H225915   5.266   7.028   2.628
 8658TIP3   OH225916   4.010   6.800   5.063
 8658TIP3    H125917   4.091   6.763   5.030
 8658TIP3    H225918   3.960   6.725   5.096
 8659TIP3   OH225919   3.537   1.356   4.855
 8659TIP3    H125920   3.539   1.356   4.951
 8659TIP3    H225921   3.463   1.300   4.833
 8660TIP3   OH225922   1.510   4.122   0.478
 8660TIP3    H125923   1.556   4.076   0.407
 8660TIP3    H225924   1.452   4.183   0.432
 8661TIP3   OH225925   3.633   6.957   6.664
 8661TIP3    H125926   3.707   6.968   6.724
 8661TIP3    H225927   3.586   6.882   6.699
 8662TIP3   OH225928   5.355   6.660   5.168
 8662TIP3    H125929   5.321   6.683   5.254
 8662TIP3    H225930   5.287   6.688   5.107
 8663TIP3   OH225931   6.269   1.465   0.943
 8663TIP3    H125932   6.359   1.482   0.972
 8663TIP3    H225933   6.218   1.535   0.984
 8664TIP3   OH225934   7.251   6.983   0.196
 8664TIP3    H125935   7.206   7.055   0.238
 8664TIP3    H225936   7.301   7.024   0.125
 8665TIP3   OH225937   2.728   6.457   1.745
 8665TIP3    H125938   2.758   6.497   1.827
 8665TIP3    H225939   2.795   6.480   1.681
 8666TIP3   OH225940   1.159   7.832   6.504
 8666TIP3    H125941   1.208   7.862   6.581
 8666TIP3    H225942   1.097   7.769   6.539
 8667TIP3   OH225943   4.591   5.225   1.110
 8667TIP3    H125944   4.504   5.265   1.119
 8667TIP3    H225945   4.646   5.274   1.171
 8668TIP3   OH225946   7.690   1.440   4.855
 8668TIP3    H125947   7.694   1.416   4.762
 8668TIP3    H225948   7.660   1.531   4.854
 8669TIP3   OH225949   7.001   5.012   3.937
 8669TIP3    H125950   7.006   5.107   3.945
 8669TIP3    H225951   7.063   4.979   4.003
 8670TIP3   OH225952   2.934   4.891   1.333
 8670TIP3    H125953   2.877   4.850   1.267
 8670TIP3    H225954   3.015   4.909   1.287
 8671TIP3   OH225955   6.775   1.390   0.840
 8671TIP3    H125956   6.690   1.373   0.881
 8671TIP3    H225957   6.801   1.306   0.804
 8672TIP3   OH225958   1.369   3.599   4.579
 8672TIP3    H125959   1.288   3.649   4.564
 8672TIP3    H225960   1.398   3.626   4.666
 8673TIP3   OH225961   0.211   2.113   0.307
 8673TIP3    H125962   0.158   2.162   0.370
 8673TIP3    H225963   0.259   2.049   0.360
 8674TIP3   OH225964   3.428   6.388   4.518
 8674TIP3    H125965   3.521   6.386   4.540
 8674TIP3    H225966   3.423   6.436   4.435
 8675TIP3   OH225967   2.905   7.787   1.474
 8675TIP3    H125968   2.890   7.878   1.449
 8675TIP3    H225969   2.818   7.748   1.477
 8676TIP3   OH225970   5.739   4.921   4.185
 8676TIP3    H125971   5.821   4.928   4.134
 8676TIP3    H225972   5.721   5.010   4.214
 8677TIP3   OH225973   6.930   1.844   5.135
 8677TIP3    H125974   6.840   1.872   5.153
 8677TIP3    H225975   6.933   1.831   5.040
 8678TIP3   OH225976   3.243   0.419   3.700
 8678TIP3    H125977   3.184   0.352   3.733
 8678TIP3    H225978   3.277   0.462   3.779
 8679TIP3   OH225979   5.316   3.465   6.640
 8679TIP3    H125980   5.266   3.534   6.684
 8679TIP3    H225981   5.316   3.392   6.701
 8680TIP3   OH225982   1.983   0.011   5.814
 8680TIP3    H125983   2.018   0.079   5.872
 8680TIP3    H225984   2.058  -0.047   5.797
 8681TIP3   OH225985   8.239   5.955   6.569
 8681TIP3    H125986   8.330   5.930   6.580
 8681TIP3    H225987   8.216   5.924   6.481
 8682TIP3   OH225988   1.635   5.547   2.053
 8682TIP3    H125989   1.659   5.482   2.119
 8682TIP3    H225990   1.682   5.520   1.974
 8683TIP3   OH225991   0.753   0.135   4.389
 8683TIP3    H125992   0.769   0.048   4.427
 8683TIP3    H225993   0.795   0.196   4.450
 8684TIP3   OH225994   0.802   5.601   4.658
 8684TIP3    H125995   0.821   5.693   4.640
 8684TIP3    H225996   0.886   5.557   4.649
 8685TIP3   OH225997   0.280   4.453   1.590
 8685TIP3    H125998   0.204   4.494   1.632
 8685TIP3    H225999   0.347   4.521   1.589
 8686TIP3   OH226000   0.291   3.569   4.947
 8686TIP3    H126001   0.355   3.624   4.902
 8686TIP3    H226002   0.315   3.479   4.924
 8687TIP3   OH226003   7.483   1.893   2.668
 8687TIP3    H126004   7.450   1.838   2.597
 8687TIP3    H226005   7.478   1.982   2.634
 8688TIP3   OH226006   3.536   7.438   0.756
 8688TIP3    H126007   3.526   7.377   0.682
 8688TIP3    H226008   3.631   7.444   0.768
 8689TIP3   OH226009   8.031   5.545   4.485
 8689TIP3    H126010   8.072   5.502   4.560
 8689TIP3    H226011   8.077   5.628   4.476
 8690TIP3   OH226012   3.315   1.391   3.026
 8690TIP3    H126013   3.378   1.390   2.954
 8690TIP3    H226014   3.253   1.461   3.002
 8691TIP3   OH226015   3.088   2.472   0.935
 8691TIP3    H126016   2.995   2.493   0.946
 8691TIP3    H226017   3.133   2.556   0.940
 8692TIP3   OH226018   7.333   1.092   0.835
 8692TIP3    H126019   7.317   1.037   0.758
 8692TIP3    H226020   7.309   1.181   0.806
 8693TIP3   OH226021   3.336   5.132   6.062
 8693TIP3    H126022   3.335   5.037   6.053
 8693TIP3    H226023   3.257   5.162   6.016
 8694TIP3   OH226024   7.668   1.698   1.445
 8694TIP3    H126025   7.617   1.618   1.435
 8694TIP3    H226026   7.621   1.764   1.394
 8695TIP3   OH226027   3.650   7.145   0.714
 8695TIP3    H126028   3.730   7.194   0.694
 8695TIP3    H226029   3.682   7.062   0.752
 8696TIP3   OH226030   1.606   5.126   0.544
 8696TIP3    H126031   1.694   5.164   0.547
 8696TIP3    H226032   1.595   5.099   0.453
 8697TIP3   OH226033   2.108   3.971   3.201
 8697TIP3    H126034   2.077   4.058   3.226
 8697TIP3    H226035   2.168   3.988   3.128
 8698TIP3   OH226036   1.886   1.952   5.987
 8698TIP3    H126037   1.976   1.917   5.986
 8698TIP3    H226038   1.847   1.920   5.906
 8699TIP3   OH226039   6.148   5.955   5.407
 8699TIP3    H126040   6.095   5.908   5.471
 8699TIP3    H226041   6.117   5.923   5.322
 8700TIP3   OH226042   1.678   7.788   1.285
 8700TIP3    H126043   1.657   7.751   1.371
 8700TIP3    H226044   1.612   7.752   1.226
 8701TIP3   OH226045   2.619   7.739   2.865
 8701TIP3    H126046   2.552   7.806   2.848
 8701TIP3    H226047   2.700   7.778   2.834
 8702TIP3   OH226048   4.096   4.965   6.758
 8702TIP3    H126049   4.023   5.026   6.757
 8702TIP3    H226050   4.171   5.017   6.785
 8703TIP3   OH226051   6.889   1.999   1.041
 8703TIP3    H126052   6.900   1.923   0.984
 8703TIP3    H226053   6.949   1.984   1.114
 8704TIP3   OH226054   5.995   3.660   4.772
 8704TIP3    H126055   5.980   3.582   4.719
 8704TIP3    H226056   6.059   3.633   4.838
 8705TIP3   OH226057   5.045   0.236   1.947
 8705TIP3    H126058   5.065   0.272   2.033
 8705TIP3    H226059   5.090   0.294   1.885
 8706TIP3   OH226060   5.215   6.518   6.373
 8706TIP3    H126061   5.141   6.457   6.371
 8706TIP3    H226062   5.245   6.523   6.282
 8707TIP3   OH226063   2.768   0.701   6.125
 8707TIP3    H126064   2.826   0.730   6.056
 8707TIP3    H226065   2.699   0.651   6.080
 8708TIP3   OH226066   2.080   1.576   1.805
 8708TIP3    H126067   2.135   1.504   1.773
 8708TIP3    H226068   2.086   1.642   1.736
 8709TIP3   OH226069   7.795   0.993   4.625
 8709TIP3    H126070   7.705   1.017   4.649
 8709TIP3    H226071   7.794   0.989   4.530
 8710TIP3   OH226072   8.077   4.056   1.374
 8710TIP3    H126073   8.036   4.093   1.453
 8710TIP3    H226074   8.028   4.095   1.301
 8711TIP3   OH226075   6.084   5.819   4.302
 8711TIP3    H126076   6.027   5.765   4.247
 8711TIP3    H226077   6.162   5.833   4.249
 8712TIP3   OH226078   8.064   1.435   3.330
 8712TIP3    H126079   8.040   1.452   3.239
 8712TIP3    H226080   8.091   1.521   3.364
 8713TIP3   OH226081   0.936   2.753   4.626
 8713TIP3    H126082   1.030   2.770   4.618
 8713TIP3    H226083   0.930   2.680   4.687
 8714TIP3   OH226084   6.157   6.075   0.297
 8714TIP3    H126085   6.142   6.131   0.220
 8714TIP3    H226086   6.110   5.994   0.277
 8715TIP3   OH226087   2.403   7.736   2.548
 8715TIP3    H126088   2.366   7.711   2.464
 8715TIP3    H226089   2.416   7.653   2.594
 8716TIP3   OH226090   7.301   7.298   1.883
 8716TIP3    H126091   7.375   7.257   1.840
 8716TIP3    H226092   7.293   7.251   1.967
 8717TIP3   OH226093   3.022   5.732   3.111
 8717TIP3    H126094   3.100   5.787   3.108
 8717TIP3    H226095   2.975   5.761   3.189
 8718TIP3   OH226096   4.071   2.800   0.153
 8718TIP3    H126097   4.048   2.756   0.235
 8718TIP3    H226098   4.159   2.769   0.132
 8719TIP3   OH226099   4.020   2.777   5.834
 8719TIP3    H126100   4.050   2.697   5.792
 8719TIP3    H226101   3.925   2.776   5.823
 8720TIP3   OH226102   3.317   2.101   3.649
 8720TIP3    H126103   3.273   2.182   3.675
 8720TIP3    H226104   3.314   2.103   3.553
 8721TIP3   OH226105   1.834   5.856   3.708
 8721TIP3    H126106   1.898   5.790   3.683
 8721TIP3    H226107   1.759   5.841   3.650
 8722TIP3   OH226108   0.609   2.029   0.631
 8722TIP3    H126109   0.644   2.023   0.720
 8722TIP3    H226110   0.633   1.946   0.590
 8723TIP3   OH226111   5.490   0.289   5.185
 8723TIP3    H126112   5.464   0.320   5.098
 8723TIP3    H226113   5.502   0.369   5.236
 8724TIP3   OH226114   2.575   3.791   6.119
 8724TIP3    H126115   2.606   3.708   6.155
 8724TIP3    H226116   2.489   3.771   6.081
 8725TIP3   OH226117   2.513   1.249   5.838
 8725TIP3    H126118   2.557   1.311   5.779
 8725TIP3    H226119   2.583   1.204   5.884
 8726TIP3   OH226120   4.345   4.323   5.693
 8726TIP3    H126121   4.361   4.248   5.751
 8726TIP3    H226122   4.352   4.399   5.750
 8727TIP3   OH226123   8.135   6.228   3.157
 8727TIP3    H126124   8.109   6.159   3.218
 8727TIP3    H226125   8.171   6.182   3.082
 8728TIP3   OH226126   5.950   7.854   1.857
 8728TIP3    H126127   5.970   7.765   1.830
 8728TIP3    H226128   5.875   7.880   1.804
 8729TIP3   OH226129   0.076   1.579   4.138
 8729TIP3    H126130   0.163   1.584   4.098
 8729TIP3    H226131   0.026   1.524   4.078
 8730TIP3   OH226132   1.301   5.954   1.279
 8730TIP3    H126133   1.321   6.046   1.263
 8730TIP3    H226134   1.288   5.917   1.192
 8731TIP3   OH226135   5.502   6.433   4.277
 8731TIP3    H126136   5.462   6.500   4.331
 8731TIP3    H226137   5.434   6.407   4.215
 8732TIP3   OH226138   5.822   6.761   4.578
 8732TIP3    H126139   5.829   6.787   4.670
 8732TIP3    H226140   5.766   6.684   4.579
 8733TIP3   OH226141   3.353   4.963   6.622
 8733TIP3    H126142   3.299   4.963   6.701
 8733TIP3    H226143   3.302   5.013   6.559
 8734TIP3   OH226144   7.355   0.952   3.388
 8734TIP3    H126145   7.396   0.869   3.411
 8734TIP3    H226146   7.359   0.955   3.292
 8735TIP3   OH226147   3.241   2.305   4.954
 8735TIP3    H126148   3.146   2.308   4.939
 8735TIP3    H226149   3.274   2.385   4.913
 8736TIP3   OH226150   2.512   1.668   2.983
 8736TIP3    H126151   2.440   1.608   3.004
 8736TIP3    H226152   2.557   1.628   2.909
 8737TIP3   OH226153   4.212   0.236   1.441
 8737TIP3    H126154   4.164   0.177   1.383
 8737TIP3    H226155   4.158   0.315   1.445
 8738TIP3   OH226156   3.967   3.153   1.861
 8738TIP3    H126157   3.972   3.235   1.812
 8738TIP3    H226158   3.901   3.170   1.929
 8739TIP3   OH226159   7.344   3.625   3.682
 8739TIP3    H126160   7.417   3.605   3.624
 8739TIP3    H226161   7.370   3.590   3.767
 8740TIP3   OH226162   2.664   5.377   0.928
 8740TIP3    H126163   2.722   5.374   1.004
 8740TIP3    H226164   2.712   5.429   0.863
 8741TIP3   OH226165   5.353   7.505   3.344
 8741TIP3    H126166   5.288   7.529   3.411
 8741TIP3    H226167   5.340   7.569   3.274
 8742TIP3   OH226168   4.619   4.641   3.749
 8742TIP3    H126169   4.632   4.557   3.794
 8742TIP3    H226170   4.630   4.707   3.817
 8743TIP3   OH226171   5.610   0.133   4.878
 8743TIP3    H126172   5.689   0.080   4.870
 8743TIP3    H226173   5.640   0.223   4.886
 8744TIP3   OH226174   6.887   3.718   0.322
 8744TIP3    H126175   6.872   3.697   0.414
 8744TIP3    H226176   6.945   3.794   0.323
 8745TIP3   OH226177   3.253   1.450   6.203
 8745TIP3    H126178   3.163   1.453   6.169
 8745TIP3    H226179   3.251   1.381   6.270
 8746TIP3   OH226180   7.379   2.134   6.683
 8746TIP3    H126181   7.291   2.144   6.649
 8746TIP3    H226182   7.414   2.223   6.688
 8747TIP3   OH226183   2.987   6.435   3.249
 8747TIP3    H126184   2.973   6.424   3.155
 8747TIP3    H226185   2.914   6.388   3.290
 8748TIP3   OH226186   4.773   1.829   0.276
 8748TIP3    H126187   4.692   1.800   0.234
 8748TIP3    H226188   4.839   1.765   0.249
 8749TIP3   OH226189   2.443   3.605   3.040
 8749TIP3    H126190   2.368   3.655   3.006
 8749TIP3    H226191   2.471   3.653   3.118
 8750TIP3   OH226192   5.314   1.923   3.983
 8750TIP3    H126193   5.294   1.956   3.895
 8750TIP3    H226194   5.284   1.992   4.042
 8751TIP3   OH226195   2.127   1.916   3.378
 8751TIP3    H126196   2.044   1.870   3.371
 8751TIP3    H226197   2.106   2.008   3.361
 8752TIP3   OH226198   1.845   4.396   2.615
 8752TIP3    H126199   1.838   4.490   2.599
 8752TIP3    H226200   1.759   4.361   2.589
 8753TIP3   OH226201   2.835   6.619   4.547
 8753TIP3    H126202   2.840   6.693   4.487
 8753TIP3    H226203   2.884   6.549   4.502
 8754TIP3   OH226204   0.150   0.148   2.475
 8754TIP3    H126205   0.157   0.171   2.382
 8754TIP3    H226206   0.237   0.164   2.510
 8755TIP3   OH226207   0.273   0.598   1.629
 8755TIP3    H126208   0.369   0.602   1.634
 8755TIP3    H226209   0.248   0.681   1.589
 8756TIP3   OH226210   2.664   7.260   1.653
 8756TIP3    H126211   2.639   7.173   1.684
 8756TIP3    H226212   2.597   7.283   1.589
 8757TIP3   OH226213   4.093   3.819   2.312
 8757TIP3    H126214   4.154   3.865   2.370
 8757TIP3    H226215   4.055   3.888   2.258
 8758TIP3   OH226216   4.131   7.301   4.037
 8758TIP3    H126217   4.118   7.256   4.121
 8758TIP3    H226218   4.195   7.247   3.991
 8759TIP3   OH226219   1.702   4.622   3.425
 8759TIP3    H126220   1.716   4.711   3.457
 8759TIP3    H226221   1.608   4.617   3.410
 8760TIP3   OH226222   0.715   2.122   6.642
 8760TIP3    H126223   0.634   2.100   6.596
 8760TIP3    H226224   0.702   2.211   6.673
 8761TIP3   OH226225   7.376   0.962   0.579
 8761TIP3    H126226   7.359   1.049   0.542
 8761TIP3    H226227   7.470   0.949   0.567
 8762TIP3   OH226228   4.721   0.708   3.698
 8762TIP3    H126229   4.626   0.704   3.695
 8762TIP3    H226230   4.744   0.781   3.641
 8763TIP3   OH226231   6.994   1.429   3.603
 8763TIP3    H126232   7.072   1.400   3.651
 8763TIP3    H226233   7.024   1.506   3.555
 8764TIP3   OH226234   7.524   6.389   2.880
 8764TIP3    H126235   7.561   6.435   2.804
 8764TIP3    H226236   7.430   6.406   2.875
 8765TIP3   OH226237   3.681   3.919   6.338
 8765TIP3    H126238   3.682   3.999   6.390
 8765TIP3    H226239   3.716   3.945   6.253
 8766TIP3   OH226240   2.341   5.251   1.808
 8766TIP3    H126241   2.288   5.174   1.830
 8766TIP3    H226242   2.276   5.318   1.784
 8767TIP3   OH226243   3.552   5.951   4.176
 8767TIP3    H126244   3.634   5.911   4.206
 8767TIP3    H226245   3.497   5.952   4.254
 8768TIP3   OH226246   6.754   0.403   4.786
 8768TIP3    H126247   6.819   0.350   4.740
 8768TIP3    H226248   6.670   0.360   4.768
 8769TIP3   OH226249   0.424   7.020   0.530
 8769TIP3    H126250   0.332   7.044   0.521
 8769TIP3    H226251   0.445   7.041   0.621
 8770TIP3   OH226252   4.684   1.367   5.015
 8770TIP3    H126253   4.725   1.379   4.930
 8770TIP3    H226254   4.640   1.282   5.009
 8771TIP3   OH226255   6.217   4.601   0.590
 8771TIP3    H126256   6.290   4.545   0.616
 8771TIP3    H226257   6.207   4.663   0.662
 8772TIP3   OH226258   4.101   5.344   1.216
 8772TIP3    H126259   4.069   5.285   1.284
 8772TIP3    H226260   4.033   5.341   1.148
 8773TIP3   OH226261   0.081   1.300   4.754
 8773TIP3    H126262  -0.014   1.295   4.744
 8773TIP3    H226263   0.099   1.257   4.838
 8774TIP3   OH226264   4.065   6.275   0.252
 8774TIP3    H126265   4.155   6.306   0.259
 8774TIP3    H226266   4.049   6.268   0.157
 8775TIP3   OH226267   4.226   0.336   6.252
 8775TIP3    H126268   4.194   0.245   6.249
 8775TIP3    H226269   4.146   0.388   6.266
 8776TIP3   OH226270   6.616   6.929   6.172
 8776TIP3    H126271   6.588   6.901   6.260
 8776TIP3    H226272   6.610   7.025   6.175
 8777TIP3   OH226273   1.983   1.454   3.618
 8777TIP3    H126274   2.073   1.435   3.589
 8777TIP3    H226275   1.935   1.374   3.600
 8778TIP3   OH226276   5.473   4.195   4.740
 8778TIP3    H126277   5.390   4.225   4.703
 8778TIP3    H226278   5.453   4.108   4.775
 8779TIP3   OH226279   1.421   0.635   1.731
 8779TIP3    H126280   1.363   0.560   1.747
 8779TIP3    H226281   1.438   0.671   1.818
 8780TIP3   OH226282   0.879   6.250   3.057
 8780TIP3    H126283   0.865   6.313   2.987
 8780TIP3    H226284   0.972   6.259   3.079
 8781TIP3   OH226285   1.267   4.378   1.335
 8781TIP3    H126286   1.351   4.422   1.351
 8781TIP3    H226287   1.256   4.382   1.240
 8782TIP3   OH226288   6.564   6.678   6.616
 8782TIP3    H126289   6.519   6.593   6.616
 8782TIP3    H226290   6.595   6.689   6.705
 8783TIP3   OH226291   7.648   4.848   6.520
 8783TIP3    H126292   7.715   4.917   6.529
 8783TIP3    H226293   7.693   4.777   6.475
 8784TIP3   OH226294   6.198   1.242   4.111
 8784TIP3    H126295   6.160   1.179   4.051
 8784TIP3    H226296   6.212   1.193   4.192
 8785TIP3   OH226297   0.800   2.099   1.791
 8785TIP3    H126298   0.782   2.146   1.872
 8785TIP3    H226299   0.854   2.025   1.818
 8786TIP3   OH226300   7.298   6.614   6.085
 8786TIP3    H126301   7.252   6.687   6.128
 8786TIP3    H226302   7.314   6.551   6.156
 8787TIP3   OH226303   0.764   7.207   6.149
 8787TIP3    H126304   0.845   7.190   6.198
 8787TIP3    H226305   0.778   7.293   6.110
 8788TIP3   OH226306   5.167   7.569   1.518
 8788TIP3    H126307   5.175   7.554   1.424
 8788TIP3    H226308   5.164   7.481   1.556
 8789TIP3   OH226309   4.457   1.149   0.973
 8789TIP3    H126310   4.396   1.077   0.986
 8789TIP3    H226311   4.504   1.156   1.056
 8790TIP3   OH226312   0.915   2.794   3.364
 8790TIP3    H126313   0.986   2.857   3.349
 8790TIP3    H226314   0.848   2.845   3.410
 8791TIP3   OH226315   6.531   7.008   3.014
 8791TIP3    H126316   6.569   7.089   2.980
 8791TIP3    H226317   6.463   6.984   2.950
 8792TIP3   OH226318   0.278   5.988   5.152
 8792TIP3    H126319   0.343   6.058   5.146
 8792TIP3    H226320   0.239   5.998   5.239
 8793TIP3   OH226321   7.623   2.099   1.972
 8793TIP3    H126322   7.671   2.179   1.950
 8793TIP3    H226323   7.531   2.122   1.961
 8794TIP3   OH226324   3.431   5.190   6.411
 8794TIP3    H126325   3.372   5.260   6.384
 8794TIP3    H226326   3.518   5.223   6.389
 8795TIP3   OH226327   8.080   6.027   6.788
 8795TIP3    H126328   8.119   6.001   6.705
 8795TIP3    H226329   8.136   5.987   6.855
 8796TIP3   OH226330   5.307   5.384   5.461
 8796TIP3    H126331   5.268   5.462   5.499
 8796TIP3    H226332   5.354   5.342   5.534
 8797TIP3   OH226333   4.685   7.579   2.111
 8797TIP3    H126334   4.599   7.539   2.101
 8797TIP3    H226335   4.728   7.565   2.026
 8798TIP3   OH226336   1.929   5.289   2.093
 8798TIP3    H126337   1.947   5.196   2.109
 8798TIP3    H226338   1.921   5.296   1.998
 8799TIP3   OH226339   2.143   6.225   3.320
 8799TIP3    H126340   2.073   6.287   3.337
 8799TIP3    H226341   2.203   6.235   3.395
 8800TIP3   OH226342   0.425   2.878   0.389
 8800TIP3    H126343   0.507   2.837   0.362
 8800TIP3    H226344   0.431   2.968   0.355
 8801TIP3   OH226345   0.167   6.204   6.610
 8801TIP3    H126346   0.120   6.132   6.652
 8801TIP3    H226347   0.143   6.198   6.518
 8802TIP3   OH226348   0.323   2.335   4.535
 8802TIP3    H126349   0.279   2.386   4.604
 8802TIP3    H226350   0.416   2.348   4.553
 8803TIP3   OH226351   1.341   1.328   2.411
 8803TIP3    H126352   1.254   1.369   2.413
 8803TIP3    H226353   1.324   1.239   2.381
 8804TIP3   OH226354   5.502   7.030   5.150
 8804TIP3    H126355   5.528   6.967   5.216
 8804TIP3    H226356   5.535   7.114   5.182
 8805TIP3   OH226357   2.854   5.726   5.059
 8805TIP3    H126358   2.777   5.670   5.070
 8805TIP3    H226359   2.856   5.779   5.139
 8806TIP3   OH226360   0.929   4.183   4.605
 8806TIP3    H126361   0.907   4.260   4.552
 8806TIP3    H226362   0.878   4.112   4.566
 8807TIP3   OH226363   5.425   5.143   4.183
 8807TIP3    H126364   5.424   5.215   4.120
 8807TIP3    H226365   5.497   5.164   4.242
 8808TIP3   OH226366   4.024   2.804   6.682
 8808TIP3    H126367   3.993   2.731   6.629
 8808TIP3    H226368   4.115   2.782   6.703
 8809TIP3   OH226369   1.803   1.989   5.708
 8809TIP3    H126370   1.721   2.020   5.746
 8809TIP3    H226371   1.869   2.048   5.742
 8810TIP3   OH226372   2.205   6.006   4.687
 8810TIP3    H126373   2.255   5.992   4.606
 8810TIP3    H226374   2.256   6.070   4.736
 8811TIP3   OH226375   3.736   1.627   1.240
 8811TIP3    H126376   3.716   1.667   1.155
 8811TIP3    H226377   3.684   1.547   1.241
 8812TIP3   OH226378   4.345   2.743   4.741
 8812TIP3    H126379   4.395   2.700   4.672
 8812TIP3    H226380   4.292   2.807   4.695
 8813TIP3   OH226381   2.158   7.615   3.218
 8813TIP3    H126382   2.158   7.527   3.179
 8813TIP3    H226383   2.142   7.674   3.144
 8814TIP3   OH226384   0.191   4.901   4.520
 8814TIP3    H126385   0.176   4.858   4.604
 8814TIP3    H226386   0.118   4.873   4.465
 8815TIP3   OH226387   4.228   3.937   1.948
 8815TIP3    H126388   4.213   3.872   1.879
 8815TIP3    H226389   4.144   3.943   1.993
 8816TIP3   OH226390   5.715   3.539   1.829
 8816TIP3    H126391   5.694   3.467   1.888
 8816TIP3    H226392   5.654   3.609   1.854
 8817TIP3   OH226393   0.760   0.441   3.083
 8817TIP3    H126394   0.794   0.523   3.046
 8817TIP3    H226395   0.665   0.448   3.074
 8818TIP3   OH226396   4.764   1.376   4.067
 8818TIP3    H126397   4.839   1.388   4.008
 8818TIP3    H226398   4.785   1.430   4.143
 8819TIP3   OH226399   6.552   3.924   1.080
 8819TIP3    H126400   6.534   3.854   1.017
 8819TIP3    H226401   6.544   3.882   1.165
 8820TIP3   OH226402   1.157   5.013   3.319
 8820TIP3    H126403   1.061   5.018   3.324
 8820TIP3    H226404   1.183   5.097   3.281
 8821TIP3   OH226405   6.749   1.703   4.533
 8821TIP3    H126406   6.683   1.735   4.595
 8821TIP3    H226407   6.832   1.739   4.564
 8822TIP3   OH226408   5.040   1.739   6.496
 8822TIP3    H126409   4.967   1.683   6.470
 8822TIP3    H226410   5.004   1.828   6.494
 8823TIP3   OH226411   0.994   2.813   4.146
 8823TIP3    H126412   0.997   2.780   4.056
 8823TIP3    H226413   0.963   2.740   4.198
 8824TIP3   OH226414   4.009   4.456   5.945
 8824TIP3    H126415   4.102   4.436   5.952
 8824TIP3    H226416   4.006   4.541   5.902
 8825TIP3   OH226417   0.330   0.253   2.868
 8825TIP3    H126418   0.245   0.297   2.860
 8825TIP3    H226419   0.308   0.167   2.903
 8826TIP3   OH226420   0.788   4.237   1.810
 8826TIP3    H126421   0.762   4.176   1.741
 8826TIP3    H226422   0.841   4.303   1.766
 8827TIP3   OH226423   2.792   6.510   2.032
 8827TIP3    H126424   2.857   6.562   1.984
 8827TIP3    H226425   2.820   6.515   2.123
 8828TIP3   OH226426   2.757   7.652   5.949
 8828TIP3    H126427   2.726   7.739   5.925
 8828TIP3    H226428   2.718   7.634   6.034
 8829TIP3   OH226429   4.835   2.139   3.426
 8829TIP3    H126430   4.852   2.133   3.332
 8829TIP3    H226431   4.825   2.233   3.442
 8830TIP3   OH226432   2.134   0.948   5.297
 8830TIP3    H126433   2.148   0.857   5.272
 8830TIP3    H226434   2.051   0.973   5.256
 8831TIP3   OH226435   7.733   5.266   1.006
 8831TIP3    H126436   7.718   5.360   1.007
 8831TIP3    H226437   7.698   5.236   1.090
 8832TIP3   OH226438   3.910   1.216   3.471
 8832TIP3    H126439   3.922   1.225   3.566
 8832TIP3    H226440   3.996   1.235   3.435
 8833TIP3   OH226441  -0.012   5.507   0.937
 8833TIP3    H126442   0.082   5.499   0.918
 8833TIP3    H226443  -0.029   5.601   0.931
 8834TIP3   OH226444   6.836   0.002   1.679
 8834TIP3    H126445   6.913   0.052   1.703
 8834TIP3    H226446   6.867  -0.058   1.610
 8835TIP3   OH226447   3.309   5.678   5.914
 8835TIP3    H126448   3.313   5.600   5.970
 8835TIP3    H226449   3.362   5.743   5.960
 8836TIP3   OH226450   5.726   7.607   0.879
 8836TIP3    H126451   5.668   7.560   0.939
 8836TIP3    H226452   5.804   7.551   0.873
 8837TIP3   OH226453   2.154   3.034   4.378
 8837TIP3    H126454   2.163   3.031   4.473
 8837TIP3    H226455   2.244   3.040   4.346
 8838TIP3   OH226456   6.774   0.315   2.290
 8838TIP3    H126457   6.811   0.304   2.377
 8838TIP3    H226458   6.807   0.399   2.260
 8839TIP3   OH226459   6.369   2.805   5.455
 8839TIP3    H126460   6.428   2.825   5.383
 8839TIP3    H226461   6.341   2.891   5.488
 8840TIP3   OH226462   0.830   2.832   1.766
 8840TIP3    H126463   0.902   2.846   1.705
 8840TIP3    H226464   0.753   2.867   1.721
 8841TIP3   OH226465   1.728   4.578   1.848
 8841TIP3    H126466   1.812   4.569   1.893
 8841TIP3    H226467   1.690   4.490   1.853
 8842TIP3   OH226468   2.713   1.367   2.970
 8842TIP3    H126469   2.643   1.364   3.035
 8842TIP3    H226470   2.757   1.451   2.986
 8843TIP3   OH226471   1.718   0.745   1.683
 8843TIP3    H126472   1.759   0.700   1.609
 8843TIP3    H226473   1.657   0.807   1.642
 8844TIP3   OH226474   6.586   0.295   0.151
 8844TIP3    H126475   6.582   0.305   0.056
 8844TIP3    H226476   6.680   0.303   0.172
 8845TIP3   OH226477   2.663   7.186   0.383
 8845TIP3    H126478   2.655   7.124   0.455
 8845TIP3    H226479   2.707   7.262   0.421
 8846TIP3   OH226480   3.630   4.703   2.408
 8846TIP3    H126481   3.546   4.693   2.364
 8846TIP3    H226482   3.668   4.782   2.369
 8847TIP3   OH226483   6.970   4.533   1.723
 8847TIP3    H126484   7.006   4.459   1.674
 8847TIP3    H226485   7.036   4.551   1.790
 8848TIP3   OH226486   6.005   5.335   6.493
 8848TIP3    H126487   6.034   5.325   6.402
 8848TIP3    H226488   5.909   5.344   6.486
 8849TIP3   OH226489   5.425   7.390   6.206
 8849TIP3    H126490   5.519   7.393   6.221
 8849TIP3    H226491   5.387   7.445   6.274
 8850TIP3   OH226492   7.245   0.767   6.820
 8850TIP3    H126493   7.297   0.846   6.811
 8850TIP3    H226494   7.159   0.789   6.783
 8851TIP3   OH226495   3.748   2.122   0.710
 8851TIP3    H126496   3.838   2.147   0.689
 8851TIP3    H226497   3.756   2.033   0.745
 8852TIP3   OH226498   1.577   3.983   1.902
 8852TIP3    H126499   1.485   3.959   1.895
 8852TIP3    H226500   1.607   3.942   1.982
 8853TIP3   OH226501   2.930   5.297   4.011
 8853TIP3    H126502   2.839   5.273   3.992
 8853TIP3    H226503   2.961   5.337   3.930
 8854TIP3   OH226504   4.449   1.966   2.941
 8854TIP3    H126505   4.492   2.026   3.003
 8854TIP3    H226506   4.395   2.024   2.887
 8855TIP3   OH226507   1.824   4.222   6.202
 8855TIP3    H126508   1.748   4.166   6.185
 8855TIP3    H226509   1.896   4.179   6.155
 8856TIP3   OH226510   1.720   3.395   0.814
 8856TIP3    H126511   1.779   3.320   0.802
 8856TIP3    H226512   1.779   3.468   0.832
 8857TIP3   OH226513   4.521   5.251   5.879
 8857TIP3    H126514   4.612   5.228   5.897
 8857TIP3    H226515   4.518   5.346   5.884
 8858TIP3   OH226516   6.505   7.359   4.908
 8858TIP3    H126517   6.462   7.273   4.899
 8858TIP3    H226518   6.447   7.419   4.862
 8859TIP3   OH226519   7.084   5.828   2.912
 8859TIP3    H126520   7.049   5.916   2.929
 8859TIP3    H226521   7.145   5.840   2.839
 8860TIP3   OH226522   6.076   1.486   1.934
 8860TIP3    H126523   6.093   1.399   1.969
 8860TIP3    H226524   5.982   1.487   1.917
 8861TIP3   OH226525   5.012   0.469   0.047
 8861TIP3    H126526   4.941   0.530   0.064
 8861TIP3    H226527   5.088   0.524   0.028
 8862TIP3   OH226528   3.839   5.051   3.037
 8862TIP3    H126529   3.810   5.005   2.958
 8862TIP3    H226530   3.927   5.082   3.016
 8863TIP3   OH226531   7.300   7.508   4.242
 8863TIP3    H126532   7.299   7.579   4.306
 8863TIP3    H226533   7.278   7.430   4.293
 8864TIP3   OH226534   7.488   5.848   5.543
 8864TIP3    H126535   7.578   5.816   5.536
 8864TIP3    H226536   7.434   5.769   5.536
 8865TIP3   OH226537   3.654   0.455   0.345
 8865TIP3    H126538   3.711   0.510   0.399
 8865TIP3    H226539   3.709   0.428   0.272
 8866TIP3   OH226540   0.167   1.905   1.351
 8866TIP3    H126541   0.095   1.893   1.412
 8866TIP3    H226542   0.242   1.864   1.394
 8867TIP3   OH226543   1.908   7.462   5.831
 8867TIP3    H126544   1.834   7.483   5.775
 8867TIP3    H226545   1.984   7.497   5.785
 8868TIP3   OH226546   6.937   0.197   4.681
 8868TIP3    H126547   6.898   0.116   4.650
 8868TIP3    H226548   6.976   0.175   4.765
 8869TIP3   OH226549   2.024   5.662   2.776
 8869TIP3    H126550   2.046   5.674   2.684
 8869TIP3    H226551   1.937   5.700   2.785
 8870TIP3   OH226552   1.491   4.851   5.230
 8870TIP3    H126553   1.414   4.876   5.280
 8870TIP3    H226554   1.457   4.805   5.153
 8871TIP3   OH226555   5.989   0.552   5.569
 8871TIP3    H126556   5.968   0.492   5.498
 8871TIP3    H226557   6.067   0.597   5.540
 8872TIP3   OH226558   7.177   1.315   0.726
 8872TIP3    H126559   7.151   1.324   0.634
 8872TIP3    H226560   7.129   1.385   0.771
 8873TIP3   OH226561   5.057   6.065   4.163
 8873TIP3    H126562   4.968   6.092   4.186
 8873TIP3    H226563   5.061   5.972   4.188
 8874TIP3   OH226564   7.911   2.721   1.622
 8874TIP3    H126565   7.879   2.752   1.537
 8874TIP3    H226566   7.835   2.679   1.662
 8875TIP3   OH226567   7.560   0.388   4.136
 8875TIP3    H126568   7.512   0.470   4.124
 8875TIP3    H226569   7.532   0.356   4.223
 8876TIP3   OH226570   7.733   1.654   2.544
 8876TIP3    H126571   7.776   1.738   2.531
 8876TIP3    H226572   7.683   1.665   2.625
 8877TIP3   OH226573   7.756   2.748   0.556
 8877TIP3    H126574   7.691   2.726   0.623
 8877TIP3    H226575   7.713   2.730   0.473
 8878TIP3   OH226576   5.651   4.427   0.367
 8878TIP3    H126577   5.643   4.500   0.429
 8878TIP3    H226578   5.711   4.366   0.410
 8879TIP3   OH226579   1.689   1.138   2.665
 8879TIP3    H126580   1.725   1.154   2.752
 8879TIP3    H226581   1.665   1.046   2.666
 8880TIP3   OH226582   3.462   7.025   5.134
 8880TIP3    H126583   3.441   7.065   5.218
 8880TIP3    H226584   3.449   7.095   5.070
 8881TIP3   OH226585   2.961   6.134   5.211
 8881TIP3    H126586   2.870   6.140   5.182
 8881TIP3    H226587   2.977   6.215   5.258
 8882TIP3   OH226588   3.090   0.753   5.650
 8882TIP3    H126589   3.084   0.672   5.600
 8882TIP3    H226590   3.183   0.775   5.650
 8883TIP3   OH226591   3.312   6.873   3.456
 8883TIP3    H126592   3.356   6.950   3.490
 8883TIP3    H226593   3.309   6.812   3.530
 8884TIP3   OH226594   5.075   3.670   3.204
 8884TIP3    H126595   5.097   3.638   3.117
 8884TIP3    H226596   4.985   3.641   3.219
 8885TIP3   OH226597   7.561   6.253   1.931
 8885TIP3    H126598   7.499   6.319   1.902
 8885TIP3    H226599   7.646   6.297   1.928
 8886TIP3   OH226600   3.772   1.043   4.317
 8886TIP3    H126601   3.826   1.014   4.244
 8886TIP3    H226602   3.737   0.962   4.355
 8887TIP3   OH226603   1.987   1.580   6.150
 8887TIP3    H126604   1.957   1.489   6.155
 8887TIP3    H226605   1.970   1.615   6.238
 8888TIP3   OH226606   5.674   1.530   6.649
 8888TIP3    H126607   5.598   1.558   6.701
 8888TIP3    H226608   5.734   1.605   6.652
 8889TIP3   OH226609   6.130   3.667   5.933
 8889TIP3    H126610   6.156   3.709   5.851
 8889TIP3    H226611   6.089   3.736   5.984
 8890TIP3   OH226612   7.701   5.459   5.025
 8890TIP3    H126613   7.670   5.495   5.108
 8890TIP3    H226614   7.658   5.513   4.958
 8891TIP3   OH226615   3.324   0.391   6.577
 8891TIP3    H126616   3.234   0.360   6.562
 8891TIP3    H226617   3.375   0.350   6.507
 8892TIP3   OH226618   0.005   1.609   3.583
 8892TIP3    H126619   0.086   1.644   3.621
 8892TIP3    H226620  -0.002   1.654   3.499
 8893TIP3   OH226621   5.121   3.093   3.959
 8893TIP3    H126622   5.108   3.028   4.028
 8893TIP3    H226623   5.133   3.041   3.879
 8894TIP3   OH226624   4.621   1.243   0.483
 8894TIP3    H126625   4.643   1.335   0.470
 8894TIP3    H226626   4.533   1.234   0.446
 8895TIP3   OH226627   4.563   5.238   4.456
 8895TIP3    H126628   4.628   5.275   4.516
 8895TIP3    H226629   4.547   5.308   4.392
 8896TIP3   OH226630   6.497   4.870   2.096
 8896TIP3    H126631   6.578   4.848   2.141
 8896TIP3    H226632   6.485   4.799   2.032
 8897TIP3   OH226633   2.413   5.472   3.625
 8897TIP3    H126634   2.362   5.544   3.588
 8897TIP3    H226635   2.461   5.511   3.698
 8898TIP3   OH226636   1.234   5.733   2.006
 8898TIP3    H126637   1.290   5.785   2.063
 8898TIP3    H226638   1.277   5.737   1.920
 8899TIP3   OH226639   0.362   5.482   3.923
 8899TIP3    H126640   0.305   5.467   3.999
 8899TIP3    H226641   0.442   5.519   3.960
 8900TIP3   OH226642   0.224   7.621   2.728
 8900TIP3    H126643   0.136   7.585   2.716
 8900TIP3    H226644   0.282   7.554   2.693
 8901TIP3   OH226645   6.673   4.797   4.659
 8901TIP3    H126646   6.672   4.703   4.642
 8901TIP3    H226647   6.690   4.837   4.574
 8902TIP3   OH226648   8.005   3.447   4.165
 8902TIP3    H126649   7.950   3.370   4.175
 8902TIP3    H226650   8.063   3.427   4.092
 8903TIP3   OH226651   3.156   1.418   0.042
 8903TIP3    H126652   3.249   1.417   0.063
 8903TIP3    H226653   3.135   1.510   0.025
 8904TIP3   OH226654   5.341   7.156   6.089
 8904TIP3    H126655   5.310   7.097   6.158
 8904TIP3    H226656   5.388   7.225   6.136
 8905TIP3   OH226657   7.768   1.654   3.463
 8905TIP3    H126658   7.708   1.729   3.466
 8905TIP3    H226659   7.853   1.691   3.487
 8906TIP3   OH226660   5.880   6.275   5.510
 8906TIP3    H126661   5.952   6.247   5.566
 8906TIP3    H226662   5.909   6.253   5.421
 8907TIP3   OH226663   7.775   0.947   3.354
 8907TIP3    H126664   7.749   1.038   3.340
 8907TIP3    H226665   7.790   0.913   3.266
 8908TIP3   OH226666   5.976   5.210   6.209
 8908TIP3    H126667   5.883   5.232   6.215
 8908TIP3    H226668   5.984   5.164   6.125
 8909TIP3   OH226669   4.013   5.022   4.288
 8909TIP3    H126670   3.952   5.089   4.257
 8909TIP3    H226671   3.975   4.992   4.371
 8910TIP3   OH226672   5.235   5.703   0.289
 8910TIP3    H126673   5.157   5.706   0.234
 8910TIP3    H226674   5.305   5.736   0.233
 8911TIP3   OH226675   0.928   2.487   1.743
 8911TIP3    H126676   0.850   2.505   1.796
 8911TIP3    H226677   0.988   2.558   1.765
 8912TIP3   OH226678   7.106   6.699   6.282
 8912TIP3    H126679   7.058   6.681   6.363
 8912TIP3    H226680   7.189   6.736   6.312
 8913TIP3   OH226681   1.712   2.606   1.662
 8913TIP3    H126682   1.671   2.692   1.651
 8913TIP3    H226683   1.678   2.554   1.590
 8914TIP3   OH226684   1.957   1.721   3.692
 8914TIP3    H126685   1.968   1.639   3.643
 8914TIP3    H226686   1.921   1.695   3.776
 8915TIP3   OH226687   8.040   1.629   2.443
 8915TIP3    H126688   8.055   1.577   2.522
 8915TIP3    H226689   8.051   1.720   2.471
 8916TIP3   OH226690   6.482   2.820   4.415
 8916TIP3    H126691   6.439   2.750   4.463
 8916TIP3    H226692   6.438   2.821   4.330
 8917TIP3   OH226693   3.278   1.161   5.821
 8917TIP3    H126694   3.312   1.183   5.735
 8917TIP3    H226695   3.197   1.112   5.804
 8918TIP3   OH226696   7.661   2.257   3.554
 8918TIP3    H126697   7.691   2.168   3.573
 8918TIP3    H226698   7.566   2.249   3.546
 8919TIP3   OH226699   2.534   6.596   4.216
 8919TIP3    H126700   2.515   6.606   4.123
 8919TIP3    H226701   2.513   6.681   4.254
 8920TIP3   OH226702   6.276   5.867   5.762
 8920TIP3    H126703   6.269   5.831   5.673
 8920TIP3    H226704   6.204   5.930   5.767
 8921TIP3   OH226705   4.199   3.646   2.722
 8921TIP3    H126706   4.140   3.714   2.691
 8921TIP3    H226707   4.162   3.618   2.806
 8922TIP3   OH226708   6.787   6.952   2.813
 8922TIP3    H126709   6.813   6.904   2.734
 8922TIP3    H226710   6.739   6.887   2.865
 8923TIP3   OH226711   7.806   3.361   5.161
 8923TIP3    H126712   7.893   3.330   5.186
 8923TIP3    H226713   7.801   3.344   5.067
 8924TIP3   OH226714   7.307   6.812   0.871
 8924TIP3    H126715   7.354   6.894   0.860
 8924TIP3    H226716   7.375   6.748   0.893
 8925TIP3   OH226717   7.431   1.093   0.107
 8925TIP3    H126718   7.357   1.058   0.156
 8925TIP3    H226719   7.507   1.077   0.162
 8926TIP3   OH226720   1.371   6.055   0.836
 8926TIP3    H126721   1.423   5.974   0.825
 8926TIP3    H226722   1.293   6.040   0.783
 8927TIP3   OH226723   0.441   0.814   1.734
 8927TIP3    H126724   0.497   0.812   1.657
 8927TIP3    H226725   0.502   0.814   1.808
 8928TIP3   OH226726   0.950   0.639   2.967
 8928TIP3    H126727   0.997   0.684   3.038
 8928TIP3    H226728   0.890   0.704   2.933
 8929TIP3   OH226729   0.194   7.629   5.638
 8929TIP3    H126730   0.257   7.691   5.674
 8929TIP3    H226731   0.109   7.669   5.652
 8930TIP3   OH226732   5.398   5.455   5.199
 8930TIP3    H126733   5.360   5.431   5.283
 8930TIP3    H226734   5.485   5.416   5.199
 8931TIP3   OH226735   0.935   6.036   5.318
 8931TIP3    H126736   0.992   6.098   5.272
 8931TIP3    H226737   0.846   6.063   5.294
 8932TIP3   OH226738   4.453   2.377   2.483
 8932TIP3    H126739   4.519   2.311   2.461
 8932TIP3    H226740   4.373   2.327   2.500
 8933TIP3   OH226741   2.598   5.945   4.744
 8933TIP3    H126742   2.559   5.914   4.662
 8933TIP3    H226743   2.681   5.985   4.718
 8934TIP3   OH226744   1.316   1.891   3.167
 8934TIP3    H126745   1.237   1.915   3.216
 8934TIP3    H226746   1.381   1.957   3.192
 8935TIP3   OH226747   6.282   5.160   0.411
 8935TIP3    H126748   6.299   5.251   0.434
 8935TIP3    H226749   6.187   5.156   0.397
 8936TIP3   OH226750   1.867   3.660   6.305
 8936TIP3    H126751   1.926   3.633   6.376
 8936TIP3    H226752   1.907   3.624   6.226
 8937TIP3   OH226753   0.303   3.992   3.977
 8937TIP3    H126754   0.227   4.044   3.952
 8937TIP3    H226755   0.299   3.915   3.921
 8938TIP3   OH226756   3.306   1.992   2.130
 8938TIP3    H126757   3.321   2.018   2.221
 8938TIP3    H226758   3.302   1.897   2.133
 8939TIP3   OH226759   0.088   5.080   0.270
 8939TIP3    H126760   0.160   5.026   0.239
 8939TIP3    H226761   0.122   5.122   0.349
 8940TIP3   OH226762   7.377   1.669   2.527
 8940TIP3    H126763   7.382   1.589   2.578
 8940TIP3    H226764   7.314   1.650   2.458
 8941TIP3   OH226765   0.162   7.277   4.183
 8941TIP3    H126766   0.202   7.197   4.217
 8941TIP3    H226767   0.198   7.347   4.238
 8942TIP3   OH226768   3.845   6.535   5.893
 8942TIP3    H126769   3.833   6.623   5.857
 8942TIP3    H226770   3.917   6.498   5.842
 8943TIP3   OH226771   3.837   4.467   1.212
 8943TIP3    H126772   3.843   4.454   1.117
 8943TIP3    H226773   3.786   4.547   1.222
 8944TIP3   OH226774   8.054   4.039   2.513
 8944TIP3    H126775   8.038   3.976   2.442
 8944TIP3    H226776   8.109   3.993   2.575
 8945TIP3   OH226777   4.118   0.613   6.512
 8945TIP3    H126778   4.035   0.600   6.467
 8945TIP3    H226779   4.137   0.528   6.553
 8946TIP3   OH226780   7.283   6.400   5.066
 8946TIP3    H126781   7.367   6.445   5.074
 8946TIP3    H226782   7.284   6.363   4.978
 8947TIP3   OH226783   0.014   3.441   3.039
 8947TIP3    H126784  -0.062   3.406   2.993
 8947TIP3    H226785   0.090   3.405   2.993
 8948TIP3   OH226786   3.484   5.969   4.442
 8948TIP3    H126787   3.559   5.975   4.501
 8948TIP3    H226788   3.431   5.897   4.478
 8949TIP3   OH226789   2.596   3.059   0.265
 8949TIP3    H126790   2.675   3.019   0.302
 8949TIP3    H226791   2.607   3.153   0.279
 8950TIP3   OH226792   3.312   2.576   1.225
 8950TIP3    H126793   3.399   2.543   1.205
 8950TIP3    H226794   3.317   2.670   1.207
 8951TIP3   OH226795   6.714   2.059   5.584
 8951TIP3    H126796   6.787   2.121   5.587
 8951TIP3    H226797   6.752   1.975   5.609
 8952TIP3   OH226798   7.845   5.230   4.978
 8952TIP3    H126799   7.819   5.231   4.886
 8952TIP3    H226800   7.829   5.320   5.008
 8953TIP3   OH226801   3.365   6.549   1.629
 8953TIP3    H126802   3.320   6.626   1.664
 8953TIP3    H226803   3.300   6.480   1.629
 8954TIP3   OH226804   5.231   0.176   4.122
 8954TIP3    H126805   5.204   0.143   4.036
 8954TIP3    H226806   5.188   0.262   4.129
 8955TIP3   OH226807   7.141   6.240   6.689
 8955TIP3    H126808   7.234   6.214   6.689
 8955TIP3    H226809   7.102   6.186   6.757
 8956TIP3   OH226810   5.919   3.437   4.207
 8956TIP3    H126811   5.915   3.367   4.272
 8956TIP3    H226812   5.900   3.517   4.256
 8957TIP3   OH226813   7.828   2.524   5.460
 8957TIP3    H126814   7.906   2.472   5.481
 8957TIP3    H226815   7.786   2.540   5.544
 8958TIP3   OH226816   5.267   6.120   0.092
 8958TIP3    H126817   5.327   6.078   0.154
 8958TIP3    H226818   5.312   6.115   0.008
 8959TIP3   OH226819   4.685   4.338   5.203
 8959TIP3    H126820   4.757   4.349   5.265
 8959TIP3    H226821   4.648   4.425   5.192
 8960TIP3   OH226822   1.456   7.695   0.390
 8960TIP3    H126823   1.429   7.631   0.456
 8960TIP3    H226824   1.487   7.770   0.441
 8961TIP3   OH226825   5.933   3.887   6.054
 8961TIP3    H126826   5.916   3.917   5.965
 8961TIP3    H226827   5.847   3.887   6.097
 8962TIP3   OH226828   7.241   6.020   0.476
 8962TIP3    H126829   7.276   5.986   0.393
 8962TIP3    H226830   7.172   5.958   0.501
 8963TIP3   OH226831   5.936   0.912   3.223
 8963TIP3    H126832   5.916   0.826   3.259
 8963TIP3    H226833   5.874   0.921   3.150
 8964TIP3   OH226834  -0.010   6.383   4.592
 8964TIP3    H126835   0.077   6.384   4.633
 8964TIP3    H226836  -0.012   6.300   4.544
 8965TIP3   OH226837   0.955   5.570   3.616
 8965TIP3    H126838   0.907   5.500   3.659
 8965TIP3    H226839   0.902   5.592   3.539
 8966TIP3   OH226840   2.485   5.430   5.733
 8966TIP3    H126841   2.482   5.334   5.732
 8966TIP3    H226842   2.550   5.452   5.666
 8967TIP3   OH226843   4.683   6.574   0.120
 8967TIP3    H126844   4.603   6.613   0.085
 8967TIP3    H226845   4.700   6.622   0.201
 8968TIP3   OH226846   7.033   1.850   2.095
 8968TIP3    H126847   7.074   1.885   2.175
 8968TIP3    H226848   6.968   1.788   2.128
 8969TIP3   OH226849   5.035   5.792   4.606
 8969TIP3    H126850   5.008   5.724   4.544
 8969TIP3    H226851   4.993   5.872   4.573
 8970TIP3   OH226852   7.328   7.089   6.396
 8970TIP3    H126853   7.350   6.997   6.378
 8970TIP3    H226854   7.378   7.110   6.476
 8971TIP3   OH226855   2.834   2.724   1.222
 8971TIP3    H126856   2.826   2.791   1.154
 8971TIP3    H226857   2.846   2.773   1.303
 8972TIP3   OH226858   5.263   6.576   1.543
 8972TIP3    H126859   5.187   6.578   1.485
 8972TIP3    H226860   5.283   6.483   1.553
 8973TIP3   OH226861   5.081   6.804   3.920
 8973TIP3    H126862   5.092   6.725   3.867
 8973TIP3    H226863   5.127   6.872   3.872
 8974TIP3   OH226864   1.574   1.462   4.427
 8974TIP3    H126865   1.528   1.545   4.433
 8974TIP3    H226866   1.511   1.402   4.388
 8975TIP3   OH226867   5.509   1.502   3.382
 8975TIP3    H126868   5.420   1.482   3.411
 8975TIP3    H226869   5.515   1.465   3.294
 8976TIP3   OH226870   4.151   6.310   5.978
 8976TIP3    H126871   4.084   6.290   5.912
 8976TIP3    H226872   4.101   6.330   6.057
 8977TIP3   OH226873   3.302   1.512   5.286
 8977TIP3    H126874   3.248   1.548   5.216
 8977TIP3    H226875   3.349   1.587   5.322
 8978TIP3   OH226876   5.051   7.547   2.928
 8978TIP3    H126877   4.984   7.599   2.885
 8978TIP3    H226878   5.125   7.549   2.867
 8979TIP3   OH226879   3.422   3.292   6.297
 8979TIP3    H126880   3.459   3.230   6.360
 8979TIP3    H226881   3.371   3.353   6.351
 8980TIP3   OH226882   2.742   3.371   5.820
 8980TIP3    H126883   2.737   3.319   5.740
 8980TIP3    H226884   2.791   3.316   5.882
 8981TIP3   OH226885   3.830   2.233   3.042
 8981TIP3    H126886   3.735   2.231   3.036
 8981TIP3    H226887   3.857   2.289   2.970
 8982TIP3   OH226888   4.986   5.475   0.776
 8982TIP3    H126889   4.992   5.431   0.861
 8982TIP3    H226890   5.038   5.554   0.786
 8983TIP3   OH226891   2.375   4.017   2.711
 8983TIP3    H126892   2.428   3.941   2.734
 8983TIP3    H226893   2.402   4.086   2.772
 8984TIP3   OH226894   6.771   1.609   6.617
 8984TIP3    H126895   6.808   1.604   6.529
 8984TIP3    H226896   6.677   1.619   6.603
 8985TIP3   OH226897   6.681   0.314   2.588
 8985TIP3    H126898   6.743   0.242   2.602
 8985TIP3    H226899   6.682   0.362   2.671
 8986TIP3   OH226900   3.746   1.166   0.204
 8986TIP3    H126901   3.772   1.139   0.116
 8986TIP3    H226902   3.669   1.113   0.223
 8987TIP3   OH226903   0.900   2.051   0.071
 8987TIP3    H126904   0.891   1.961   0.040
 8987TIP3    H226905   0.864   2.104   0.001
 8988TIP3   OH226906   5.284   4.364   3.780
 8988TIP3    H126907   5.201   4.345   3.824
 8988TIP3    H226908   5.293   4.294   3.715
 8989TIP3   OH226909   7.251   2.622   5.153
 8989TIP3    H126910   7.174   2.625   5.211
 8989TIP3    H226911   7.277   2.714   5.143
 8990TIP3   OH226912   0.253   0.203   0.047
 8990TIP3    H126913   0.169   0.243   0.024
 8990TIP3    H226914   0.309   0.277   0.070
 8991TIP3   OH226915   6.432   6.427   6.699
 8991TIP3    H126916   6.440   6.457   6.789
 8991TIP3    H226917   6.452   6.333   6.703
 8992TIP3   OH226918   7.850   2.042   1.716
 8992TIP3    H126919   7.765   2.002   1.699
 8992TIP3    H226920   7.858   2.110   1.649
 8993TIP3   OH226921   2.026   1.434   0.803
 8993TIP3    H126922   2.033   1.344   0.770
 8993TIP3    H226923   1.946   1.468   0.762
 8994TIP3   OH226924   1.601   2.051   2.748
 8994TIP3    H126925   1.637   2.103   2.676
 8994TIP3    H226926   1.595   2.112   2.821
 8995TIP3   OH226927   0.161   1.729   6.578
 8995TIP3    H126928   0.133   1.644   6.613
 8995TIP3    H226929   0.257   1.724   6.579
 8996TIP3   OH226930   7.789   4.035   6.349
 8996TIP3    H126931   7.821   3.953   6.386
 8996TIP3    H226932   7.860   4.065   6.292
 8997TIP3   OH226933   2.922   5.582   2.352
 8997TIP3    H126934   2.933   5.598   2.445
 8997TIP3    H226935   3.011   5.584   2.317
 8998TIP3   OH226936   5.188   2.215   3.140
 8998TIP3    H126937   5.198   2.227   3.235
 8998TIP3    H226938   5.147   2.296   3.110
 8999TIP3   OH226939   4.527   3.931   5.581
 8999TIP3    H126940   4.608   3.905   5.537
 8999TIP3    H226941   4.536   3.895   5.670
 9000TIP3   OH226942   0.401   5.061   1.420
 9000TIP3    H126943   0.473   5.063   1.357
 9000TIP3    H226944   0.330   5.016   1.374
 9001TIP3   OH226945   2.801   2.535   3.401
 9001TIP3    H126946   2.835   2.457   3.446
 9001TIP3    H226947   2.854   2.541   3.321
 9002TIP3   OH226948   5.009   5.200   6.094
 9002TIP3    H126949   5.050   5.202   6.007
 9002TIP3    H226950   5.074   5.242   6.151
 9003TIP3   OH226951   0.722   7.522   0.797
 9003TIP3    H126952   0.653   7.457   0.784
 9003TIP3    H226953   0.724   7.537   0.892
 9004TIP3   OH226954   1.939   0.306   3.978
 9004TIP3    H126955   1.865   0.305   4.039
 9004TIP3    H226956   1.981   0.221   3.991
 9005TIP3   OH226957   6.629   7.431   1.117
 9005TIP3    H126958   6.675   7.488   1.054
 9005TIP3    H226959   6.566   7.489   1.160
 9006TIP3   OH226960   5.826   5.359   0.406
 9006TIP3    H126961   5.791   5.444   0.380
 9006TIP3    H226962   5.749   5.302   0.411
 9007TIP3   OH226963   6.037   0.012   1.469
 9007TIP3    H126964   6.061   0.023   1.377
 9007TIP3    H226965   5.965  -0.051   1.467
 9008TIP3   OH226966   0.872   5.083   5.878
 9008TIP3    H126967   0.842   5.139   5.806
 9008TIP3    H226968   0.904   5.004   5.835
 9009TIP3   OH226969   3.842   7.501   4.321
 9009TIP3    H126970   3.748   7.519   4.318
 9009TIP3    H226971   3.848   7.406   4.335
 9010TIP3   OH226972   7.698   1.022   1.580
 9010TIP3    H126973   7.745   1.000   1.499
 9010TIP3    H226974   7.741   1.101   1.612
 9011TIP3   OH226975   2.145   4.515   2.198
 9011TIP3    H126976   2.228   4.559   2.181
 9011TIP3    H226977   2.167   4.445   2.259
 9012TIP3   OH226978   5.496   0.438   0.628
 9012TIP3    H126979   5.417   0.460   0.578
 9012TIP3    H226980   5.512   0.515   0.683
 9013TIP3   OH226981   7.139   6.506   5.281
 9013TIP3    H126982   7.180   6.432   5.237
 9013TIP3    H226983   7.145   6.578   5.219
 9014TIP3   OH226984   5.451   5.144   3.645
 9014TIP3    H126985   5.388   5.210   3.675
 9014TIP3    H226986   5.400   5.089   3.586
 9015TIP3   OH226987   2.049   6.674   1.744
 9015TIP3    H126988   2.100   6.750   1.771
 9015TIP3    H226989   1.969   6.710   1.707
 9016TIP3   OH226990   6.106   6.198   6.309
 9016TIP3    H126991   6.141   6.240   6.387
 9016TIP3    H226992   6.137   6.253   6.237
 9017TIP3   OH226993   1.288   5.977   3.612
 9017TIP3    H126994   1.298   5.884   3.635
 9017TIP3    H226995   1.235   5.976   3.533
 9018TIP3   OH226996   7.123   4.732   0.837
 9018TIP3    H126997   7.169   4.799   0.888
 9018TIP3    H226998   7.088   4.671   0.903
 9019TIP3   OH226999   1.483   1.805   5.209
 9019TIP3    H127000   1.500   1.863   5.283
 9019TIP3    H227001   1.569   1.795   5.167
 9020TIP3   OH227002   3.091   2.512   2.639
 9020TIP3    H127003   3.103   2.423   2.605
 9020TIP3    H227004   3.139   2.568   2.579
 9021TIP3   OH227005   5.533   0.313   3.277
 9021TIP3    H127006   5.452   0.264   3.287
 9021TIP3    H227007   5.505   0.403   3.260
 9022TIP3   OH227008   1.121   5.232   2.617
 9022TIP3    H127009   1.097   5.284   2.541
 9022TIP3    H227010   1.158   5.152   2.581
 9023TIP3   OH227011   5.804   0.258   6.759
 9023TIP3    H127012   5.869   0.205   6.803
 9023TIP3    H227013   5.854   0.328   6.717
 9024TIP3   OH227014   0.932   0.718   2.544
 9024TIP3    H127015   0.857   0.684   2.591
 9024TIP3    H227016   0.934   0.811   2.565
 9025TIP3   OH227017   2.471   7.018   6.014
 9025TIP3    H127018   2.439   7.046   5.929
 9025TIP3    H227019   2.551   6.968   5.994
 9026TIP3   OH227020   5.301   5.867   4.628
 9026TIP3    H127021   5.331   5.854   4.718
 9026TIP3    H227022   5.207   5.845   4.632
 9027TIP3   OH227023   4.933   4.407   0.050
 9027TIP3    H127024   4.976   4.422  -0.034
 9027TIP3    H227025   4.961   4.479   0.106
 9028TIP3   OH227026   0.389   5.973   3.782
 9028TIP3    H127027   0.301   5.997   3.754
 9028TIP3    H227028   0.441   6.052   3.766
 9029TIP3   OH227029   5.536   6.346   2.535
 9029TIP3    H127030   5.500   6.327   2.449
 9029TIP3    H227031   5.631   6.348   2.521
 9030TIP3   OH227032   1.721   2.422   1.188
 9030TIP3    H127033   1.778   2.348   1.165
 9030TIP3    H227034   1.637   2.381   1.210
 9031TIP3   OH227035   4.483   0.439   3.847
 9031TIP3    H127036   4.537   0.481   3.914
 9031TIP3    H227037   4.527   0.356   3.829
 9032TIP3   OH227038   3.446   1.064   2.544
 9032TIP3    H127039   3.357   1.099   2.553
 9032TIP3    H227040   3.501   1.142   2.536
 9033TIP3   OH227041   5.199   1.645   1.408
 9033TIP3    H127042   5.215   1.681   1.320
 9033TIP3    H227043   5.287   1.627   1.442
 9034TIP3   OH227044   3.805   4.217   1.294
 9034TIP3    H127045   3.812   4.229   1.389
 9034TIP3    H227046   3.833   4.301   1.257
 9035TIP3   OH227047   3.127   3.983   0.906
 9035TIP3    H127048   3.100   4.017   0.991
 9035TIP3    H227049   3.155   3.893   0.924
 9036TIP3   OH227050   5.145   6.668   2.362
 9036TIP3    H127051   5.214   6.618   2.405
 9036TIP3    H227052   5.191   6.728   2.304
 9037TIP3   OH227053   5.159   6.990   4.738
 9037TIP3    H127054   5.179   7.059   4.801
 9037TIP3    H227055   5.154   7.035   4.654
 9038TIP3   OH227056   6.512   1.661   6.496
 9038TIP3    H127057   6.569   1.708   6.435
 9038TIP3    H227058   6.426   1.661   6.455
 9039TIP3   OH227059   6.323   4.283   0.809
 9039TIP3    H127060   6.342   4.202   0.763
 9039TIP3    H227061   6.227   4.286   0.813
 9040TIP3   OH227062   2.164   0.362   1.545
 9040TIP3    H127063   2.078   0.367   1.503
 9040TIP3    H227064   2.218   0.425   1.498
 9041TIP3   OH227065   5.134   5.393   0.247
 9041TIP3    H127066   5.171   5.400   0.335
 9041TIP3    H227067   5.048   5.435   0.253
 9042TIP3   OH227068   7.721   4.902   1.827
 9042TIP3    H127069   7.656   4.884   1.894
 9042TIP3    H227070   7.772   4.975   1.862
 9043TIP3   OH227071   7.222   0.071   0.247
 9043TIP3    H127072   7.170   0.092   0.169
 9043TIP3    H227073   7.211   0.147   0.305
 9044TIP3   OH227074   5.364   0.073   5.017
 9044TIP3    H127075   5.303   0.144   4.994
 9044TIP3    H227076   5.450   0.105   4.989
 9045TIP3   OH227077   4.386   1.483   2.795
 9045TIP3    H127078   4.349   1.395   2.787
 9045TIP3    H227079   4.310   1.540   2.807
 9046TIP3   OH227080   1.192   7.328   2.410
 9046TIP3    H127081   1.207   7.416   2.446
 9046TIP3    H227082   1.106   7.303   2.442
 9047TIP3   OH227083   0.297   1.056   1.396
 9047TIP3    H127084   0.342   1.102   1.467
 9047TIP3    H227085   0.220   1.111   1.377
 9048TIP3   OH227086   0.241   5.810   2.026
 9048TIP3    H127087   0.223   5.753   1.951
 9048TIP3    H227088   0.198   5.893   2.005
 9049TIP3   OH227089   5.580   4.635   2.750
 9049TIP3    H127090   5.573   4.587   2.833
 9049TIP3    H227091   5.489   4.652   2.724
 9050TIP3   OH227092   0.676   1.179   6.534
 9050TIP3    H127093   0.623   1.250   6.497
 9050TIP3    H227094   0.613   1.110   6.554
 9051TIP3   OH227095   6.118   1.776   1.430
 9051TIP3    H127096   6.050   1.728   1.477
 9051TIP3    H227097   6.190   1.784   1.492
 9052TIP3   OH227098   0.994   2.113   6.739
 9052TIP3    H127099   0.905   2.110   6.705
 9052TIP3    H227100   1.048   2.134   6.663
 9053TIP3   OH227101   0.904   1.710   5.071
 9053TIP3    H127102   0.993   1.676   5.058
 9053TIP3    H227103   0.914   1.805   5.066
 9054TIP3   OH227104   5.086   0.194   1.143
 9054TIP3    H127105   5.001   0.192   1.187
 9054TIP3    H227106   5.144   0.237   1.205
 9055TIP3   OH227107   4.360   6.118   5.434
 9055TIP3    H127108   4.330   6.205   5.408
 9055TIP3    H227109   4.427   6.095   5.370
 9056TIP3   OH227110   5.202   0.738   0.202
 9056TIP3    H127111   5.179   0.741   0.109
 9056TIP3    H227112   5.297   0.735   0.203
 9057TIP3   OH227113   4.909   7.034   1.584
 9057TIP3    H127114   4.946   7.093   1.650
 9057TIP3    H227115   4.821   7.068   1.568
 9058TIP3   OH227116   4.216   3.751   6.373
 9058TIP3    H127117   4.168   3.833   6.385
 9058TIP3    H227118   4.285   3.754   6.440
 9059TIP3   OH227119   2.301   6.654   3.458
 9059TIP3    H127120   2.223   6.709   3.457
 9059TIP3    H227121   2.347   6.679   3.537
 9060TIP3   OH227122   4.454   6.093   3.756
 9060TIP3    H127123   4.517   6.091   3.685
 9060TIP3    H227124   4.489   6.155   3.819
 9061TIP3   OH227125   6.267   1.945   1.254
 9061TIP3    H127126   6.222   1.881   1.309
 9061TIP3    H227127   6.338   1.895   1.213
 9062TIP3   OH227128   3.800   6.345   4.096
 9062TIP3    H127129   3.844   6.346   4.181
 9062TIP3    H227130   3.821   6.259   4.059
 9063TIP3   OH227131   6.364   0.701   0.484
 9063TIP3    H127132   6.335   0.741   0.402
 9063TIP3    H227133   6.391   0.612   0.460
 9064TIP3   OH227134   0.500   4.087   2.000
 9064TIP3    H127135   0.487   4.104   2.093
 9064TIP3    H227136   0.523   4.172   1.963
 9065TIP3   OH227137   5.543   5.305   3.912
 9065TIP3    H127138   5.469   5.360   3.938
 9065TIP3    H227139   5.507   5.246   3.845
 9066TIP3   OH227140   7.093   5.474   0.685
 9066TIP3    H127141   7.078   5.531   0.761
 9066TIP3    H227142   7.147   5.526   0.626
 9067TIP3   OH227143   6.826   4.393   3.458
 9067TIP3    H127144   6.874   4.424   3.534
 9067TIP3    H227145   6.737   4.378   3.490
 9068TIP3   OH227146   8.169   3.392   2.466
 9068TIP3    H127147   8.199   3.330   2.533
 9068TIP3    H227148   8.119   3.338   2.405
 9069TIP3   OH227149   5.434   4.488   6.669
 9069TIP3    H127150   5.350   4.531   6.682
 9069TIP3    H227151   5.412   4.399   6.640
 9070TIP3   OH227152   1.501   4.862   2.493
 9070TIP3    H127153   1.534   4.776   2.519
 9070TIP3    H227154   1.474   4.903   2.575
 9071TIP3   OH227155   2.608   6.634   3.387
 9071TIP3    H127156   2.525   6.679   3.399
 9071TIP3    H227157   2.650   6.679   3.314
 9072TIP3   OH227158   0.107   1.664   2.856
 9072TIP3    H127159   0.027   1.641   2.902
 9072TIP3    H227160   0.079   1.681   2.766
 9073TIP3   OH227161   6.631   1.970   3.678
 9073TIP3    H127162   6.615   1.961   3.584
 9073TIP3    H227163   6.551   2.009   3.712
 9074TIP3   OH227164   6.077   7.810   3.276
 9074TIP3    H127165   6.044   7.899   3.265
 9074TIP3    H227166   6.113   7.787   3.190
 9075TIP3   OH227167   5.497   3.161   6.345
 9075TIP3    H127168   5.478   3.113   6.426
 9075TIP3    H227169   5.412   3.167   6.301
 9076TIP3   OH227170   0.866   1.261   6.290
 9076TIP3    H127171   0.882   1.330   6.354
 9076TIP3    H227172   0.792   1.212   6.326
 9077TIP3   OH227173   4.524   4.034   0.941
 9077TIP3    H127174   4.519   4.119   0.986
 9077TIP3    H227175   4.434   4.015   0.916
 9078TIP3   OH227176   3.774   1.849   3.443
 9078TIP3    H127177   3.783   1.758   3.469
 9078TIP3    H227178   3.724   1.890   3.513
 9079TIP3   OH227179   0.459   3.502   6.060
 9079TIP3    H127180   0.505   3.433   6.109
 9079TIP3    H227181   0.374   3.463   6.039
 9080TIP3   OH227182   2.048   3.489   1.138
 9080TIP3    H127183   2.062   3.581   1.160
 9080TIP3    H227184   1.953   3.479   1.137
 9081TIP3   OH227185   6.040   2.674   4.603
 9081TIP3    H127186   6.068   2.701   4.690
 9081TIP3    H227187   6.080   2.739   4.544
 9082TIP3   OH227188   4.189   2.050   1.310
 9082TIP3    H127189   4.259   2.008   1.359
 9082TIP3    H227190   4.204   2.144   1.322
 9083TIP3   OH227191   7.791   2.410   2.234
 9083TIP3    H127192   7.851   2.337   2.245
 9083TIP3    H227193   7.846   2.481   2.201
 9084TIP3   OH227194   4.452   6.256   3.983
 9084TIP3    H127195   4.413   6.339   4.010
 9084TIP3    H227196   4.423   6.193   4.049
 9085TIP3   OH227197   6.033   2.304   6.597
 9085TIP3    H127198   6.099   2.256   6.646
 9085TIP3    H227199   5.952   2.255   6.609
 9086TIP3   OH227200   0.286   6.780   3.115
 9086TIP3    H127201   0.282   6.755   3.023
 9086TIP3    H227202   0.264   6.700   3.162
 9087TIP3   OH227203   0.608   5.394   1.109
 9087TIP3    H127204   0.530   5.445   1.132
 9087TIP3    H227205   0.600   5.313   1.160
 9088TIP3   OH227206   5.138   1.472   4.244
 9088TIP3    H127207   5.163   1.435   4.160
 9088TIP3    H227208   5.133   1.566   4.229
 9089TIP3   OH227209   7.147   0.632   4.116
 9089TIP3    H127210   7.166   0.726   4.123
 9089TIP3    H227211   7.102   0.611   4.197
 9090TIP3   OH227212   1.050   2.843   6.088
 9090TIP3    H127213   1.112   2.885   6.029
 9090TIP3    H227214   1.085   2.860   6.176
 9091TIP3   OH227215   6.462   4.399   5.295
 9091TIP3    H127216   6.441   4.315   5.254
 9091TIP3    H227217   6.558   4.404   5.291
 9092TIP3   OH227218   7.066   2.708   5.958
 9092TIP3    H127219   6.981   2.705   6.002
 9092TIP3    H227220   7.073   2.623   5.915
 9093TIP3   OH227221   8.219   4.434   2.762
 9093TIP3    H127222   8.136   4.443   2.808
 9093TIP3    H227223   8.227   4.515   2.710
 9094TIP3   OH227224   7.669   0.358   0.656
 9094TIP3    H127225   7.750   0.310   0.637
 9094TIP3    H227226   7.678   0.440   0.606
 9095TIP3   OH227227   1.079   1.896   5.201
 9095TIP3    H127228   1.097   1.809   5.237
 9095TIP3    H227229   1.108   1.892   5.110
 9096TIP3   OH227230   1.095   7.652   4.866
 9096TIP3    H127231   1.181   7.688   4.841
 9096TIP3    H227232   1.033   7.719   4.840
 9097TIP3   OH227233   7.281   2.081   0.784
 9097TIP3    H127234   7.229   2.162   0.783
 9097TIP3    H227235   7.358   2.103   0.836
 9098TIP3   OH227236   3.910   0.536   3.747
 9098TIP3    H127237   3.898   0.469   3.814
 9098TIP3    H227238   3.890   0.491   3.665
 9099TIP3   OH227239   5.677   7.737   3.271
 9099TIP3    H127240   5.756   7.714   3.320
 9099TIP3    H227241   5.610   7.750   3.339
 9100TIP3   OH227242   2.129   7.130   1.832
 9100TIP3    H127243   2.038   7.130   1.862
 9100TIP3    H227244   2.180   7.145   1.912
 9101TIP3   OH227245   2.172   5.982   4.165
 9101TIP3    H127246   2.126   5.935   4.095
 9101TIP3    H227247   2.257   6.004   4.127
 9102TIP3   OH227248   5.035   6.514   1.998
 9102TIP3    H127249   5.119   6.489   1.961
 9102TIP3    H227250   4.987   6.554   1.926
 9103TIP3   OH227251   3.648   3.653   4.405
 9103TIP3    H127252   3.658   3.587   4.337
 9103TIP3    H227253   3.641   3.604   4.487
 9104TIP3   OH227254   6.697   2.672   0.273
 9104TIP3    H127255   6.744   2.735   0.327
 9104TIP3    H227256   6.737   2.588   0.294
 9105TIP3   OH227257   5.562   4.080   1.406
 9105TIP3    H127258   5.571   4.158   1.461
 9105TIP3    H227259   5.651   4.065   1.372
 9106TIP3   OH227260   2.825   6.954   6.035
 9106TIP3    H127261   2.848   7.033   6.083
 9106TIP3    H227262   2.776   6.985   5.959
 9107TIP3   OH227263   2.641   4.347   0.198
 9107TIP3    H127264   2.589   4.340   0.278
 9107TIP3    H227265   2.680   4.435   0.203
 9108TIP3   OH227266   4.009   2.345   4.549
 9108TIP3    H127267   3.923   2.303   4.555
 9108TIP3    H227268   4.068   2.287   4.598
 9109TIP3   OH227269   8.100   1.645   0.513
 9109TIP3    H127270   8.066   1.726   0.473
 9109TIP3    H227271   8.173   1.674   0.567
 9110TIP3   OH227272   4.614   2.752   1.337
 9110TIP3    H127273   4.554   2.679   1.324
 9110TIP3    H227274   4.701   2.711   1.341
 9111TIP3   OH227275   0.420   0.842   3.902
 9111TIP3    H127276   0.380   0.868   3.819
 9111TIP3    H227277   0.403   0.748   3.909
 9112TIP3   OH227278   3.129   0.237   2.442
 9112TIP3    H127279   3.087   0.183   2.510
 9112TIP3    H227280   3.192   0.291   2.490
 9113TIP3   OH227281   3.622   7.531   0.465
 9113TIP3    H127282   3.549   7.473   0.486
 9113TIP3    H227283   3.608   7.609   0.519
 9114TIP3   OH227284   4.071   6.881   0.721
 9114TIP3    H127285   4.077   6.974   0.744
 9114TIP3    H227286   4.137   6.869   0.652
 9115TIP3   OH227287   5.527   0.426   3.606
 9115TIP3    H127288   5.450   0.413   3.661
 9115TIP3    H227289   5.556   0.337   3.584
 9116TIP3   OH227290   0.492   1.764   4.490
 9116TIP3    H127291   0.459   1.841   4.444
 9116TIP3    H227292   0.586   1.763   4.473
 9117TIP3   OH227293   0.409   4.925   3.520
 9117TIP3    H127294   0.399   4.831   3.531
 9117TIP3    H227295   0.371   4.962   3.600
 9118TIP3   OH227296   8.150   3.977   3.702
 9118TIP3    H127297   8.236   3.988   3.661
 9118TIP3    H227298   8.159   3.900   3.758
 9119TIP3   OH227299   5.350   4.382   3.242
 9119TIP3    H127300   5.284   4.359   3.177
 9119TIP3    H227301   5.319   4.465   3.280
 9120TIP3   OH227302   8.050   4.216   1.593
 9120TIP3    H127303   8.079   4.285   1.652
 9120TIP3    H227304   7.993   4.161   1.646
 9121TIP3   OH227305   3.384   4.222   6.113
 9121TIP3    H127306   3.361   4.305   6.156
 9121TIP3    H227307   3.320   4.212   6.043
 9122TIP3   OH227308   5.515   6.011   4.183
 9122TIP3    H127309   5.456   5.967   4.122
 9122TIP3    H227310   5.464   6.020   4.264
 9123TIP3   OH227311   3.995   0.860   1.598
 9123TIP3    H127312   3.940   0.920   1.648
 9123TIP3    H227313   3.990   0.777   1.645
 9124TIP3   OH227314   3.821   5.577   2.593
 9124TIP3    H127315   3.881   5.539   2.658
 9124TIP3    H227316   3.826   5.518   2.518
 9125TIP3   OH227317   0.399   6.038   0.678
 9125TIP3    H127318   0.382   6.033   0.772
 9125TIP3    H227319   0.314   6.026   0.637
 9126TIP3   OH227320   1.858   5.903   3.391
 9126TIP3    H127321   1.910   5.826   3.367
 9126TIP3    H227322   1.882   5.969   3.327
 9127TIP3   OH227323   7.650   1.863   5.560
 9127TIP3    H127324   7.564   1.823   5.549
 9127TIP3    H227325   7.648   1.940   5.502
 9128TIP3   OH227326   8.270   2.537   5.765
 9128TIP3    H127327   8.206   2.568   5.829
 9128TIP3    H227328   8.285   2.446   5.789
 9129TIP3   OH227329   8.085   7.059   4.851
 9129TIP3    H127330   8.049   7.031   4.936
 9129TIP3    H227331   8.011   7.053   4.790
 9130TIP3   OH227332   2.264   7.408   2.157
 9130TIP3    H127333   2.292   7.488   2.111
 9130TIP3    H227334   2.169   7.416   2.162
 9131TIP3   OH227335   2.996   3.961   0.648
 9131TIP3    H127336   3.054   3.887   0.632
 9131TIP3    H227337   2.999   3.974   0.742
 9132TIP3   OH227338   4.696   0.980   0.907
 9132TIP3    H127339   4.679   1.068   0.939
 9132TIP3    H227340   4.735   0.934   0.981
 9133TIP3   OH227341   3.819   5.618   2.042
 9133TIP3    H127342   3.797   5.525   2.048
 9133TIP3    H227343   3.755   5.662   2.096
 9134TIP3   OH227344   8.271   3.024   3.320
 9134TIP3    H127345   8.275   3.001   3.227
 9134TIP3    H227346   8.233   3.112   3.321
 9135TIP3   OH227347   3.541   0.484   5.689
 9135TIP3    H127348   3.613   0.435   5.728
 9135TIP3    H227349   3.504   0.425   5.624
 9136TIP3   OH227350   0.779   3.604   4.806
 9136TIP3    H127351   0.736   3.677   4.760
 9136TIP3    H227352   0.776   3.532   4.744
 9137TIP3   OH227353   1.629   4.429   6.263
 9137TIP3    H127354   1.586   4.444   6.179
 9137TIP3    H227355   1.694   4.362   6.244
 9138TIP3   OH227356   5.861   0.836   6.717
 9138TIP3    H127357   5.873   0.826   6.623
 9138TIP3    H227358   5.788   0.896   6.726
 9139TIP3   OH227359   6.040   6.206   3.565
 9139TIP3    H127360   6.092   6.143   3.615
 9139TIP3    H227361   5.981   6.245   3.630
 9140TIP3   OH227362   4.986   1.778   1.844
 9140TIP3    H127363   4.940   1.734   1.773
 9140TIP3    H227364   4.925   1.845   1.875
 9141TIP3   OH227365   0.785   2.138   6.054
 9141TIP3    H127366   0.727   2.063   6.039
 9141TIP3    H227367   0.792   2.145   6.149
 9142TIP3   OH227368   3.499   0.975   3.444
 9142TIP3    H127369   3.413   0.956   3.482
 9142TIP3    H227370   3.491   1.064   3.410
 9143TIP3   OH227371   3.395   0.452   1.467
 9143TIP3    H127372   3.330   0.382   1.460
 9143TIP3    H227373   3.460   0.431   1.400
 9144TIP3   OH227374   0.537   0.461   3.889
 9144TIP3    H127375   0.566   0.469   3.980
 9144TIP3    H227376   0.616   0.473   3.838
 9145TIP3   OH227377   5.435   4.993   6.784
 9145TIP3    H127378   5.454   5.086   6.773
 9145TIP3    H227379   5.425   4.960   6.695
 9146TIP3   OH227380   3.717   2.193   2.210
 9146TIP3    H127381   3.804   2.225   2.232
 9146TIP3    H227382   3.718   2.183   2.115
 9147TIP3   OH227383   6.929   6.615   2.727
 9147TIP3    H127384   6.902   6.569   2.807
 9147TIP3    H227385   6.946   6.545   2.664
 9148TIP3   OH227386   2.225   2.935   5.255
 9148TIP3    H127387   2.231   2.989   5.333
 9148TIP3    H227388   2.144   2.884   5.266
 9149TIP3   OH227389   7.382   6.362   3.953
 9149TIP3    H127390   7.348   6.273   3.947
 9149TIP3    H227391   7.381   6.382   4.046
 9150TIP3   OH227392   7.862   2.513   5.745
 9150TIP3    H127393   7.792   2.541   5.805
 9150TIP3    H227394   7.941   2.555   5.778
 9151TIP3   OH227395   3.986   5.870   6.441
 9151TIP3    H127396   3.908   5.823   6.471
 9151TIP3    H227397   3.985   5.861   6.346
 9152TIP3   OH227398   2.423   2.398   4.406
 9152TIP3    H127399   2.373   2.320   4.386
 9152TIP3    H227400   2.458   2.382   4.494
 9153TIP3   OH227401   1.724   4.976   1.598
 9153TIP3    H127402   1.788   5.012   1.659
 9153TIP3    H227403   1.750   4.885   1.587
 9154TIP3   OH227404   1.999   5.914   3.956
 9154TIP3    H127405   1.939   5.920   3.882
 9154TIP3    H227406   1.955   5.856   4.017
 9155TIP3   OH227407   4.894   3.742   0.680
 9155TIP3    H127408   4.944   3.667   0.650
 9155TIP3    H227409   4.957   3.796   0.728
 9156TIP3   OH227410   5.629   4.073   5.968
 9156TIP3    H127411   5.672   4.010   6.026
 9156TIP3    H227412   5.693   4.144   5.960
 9157TIP3   OH227413   2.699   3.543   6.255
 9157TIP3    H127414   2.793   3.530   6.267
 9157TIP3    H227415   2.675   3.609   6.320
 9158TIP3   OH227416   0.482   5.466   1.860
 9158TIP3    H127417   0.439   5.474   1.946
 9158TIP3    H227418   0.436   5.393   1.818
 9159TIP3   OH227419   1.896   1.285   3.088
 9159TIP3    H127420   1.838   1.244   3.024
 9159TIP3    H227421   1.972   1.227   3.092
 9160TIP3   OH227422   6.090   0.003   5.369
 9160TIP3    H127423   6.096   0.056   5.290
 9160TIP3    H227424   6.177  -0.036   5.379
 9161TIP3   OH227425   4.789   7.764   4.076
 9161TIP3    H127426   4.813   7.678   4.042
 9161TIP3    H227427   4.694   7.767   4.068
 9162TIP3   OH227428   1.496   0.969   3.810
 9162TIP3    H127429   1.446   1.045   3.841
 9162TIP3    H227430   1.535   0.932   3.889
 9163TIP3   OH227431   0.340   2.260   4.940
 9163TIP3    H127432   0.288   2.180   4.934
 9163TIP3    H227433   0.427   2.234   4.911
 9164TIP3   OH227434   5.956   0.623   0.628
 9164TIP3    H127435   5.944   0.572   0.708
 9164TIP3    H227436   5.906   0.575   0.561
 9165TIP3   OH227437   6.322   4.694   3.134
 9165TIP3    H127438   6.312   4.704   3.039
 9165TIP3    H227439   6.415   4.679   3.147
 9166TIP3   OH227440   6.258   0.834   3.675
 9166TIP3    H127441   6.248   0.850   3.581
 9166TIP3    H227442   6.174   0.797   3.702
 9167TIP3   OH227443   0.574   7.084   6.322
 9167TIP3    H127444   0.621   7.154   6.278
 9167TIP3    H227445   0.617   7.076   6.407
 9168TIP3   OH227446   6.164   5.727   0.118
 9168TIP3    H127447   6.198   5.652   0.069
 9168TIP3    H227448   6.230   5.795   0.108
 9169TIP3   OH227449   3.987   7.030   2.808
 9169TIP3    H127450   3.994   6.986   2.892
 9169TIP3    H227451   4.005   6.962   2.743
 9170TIP3   OH227452   2.218   3.007   6.293
 9170TIP3    H127453   2.175   3.007   6.379
 9170TIP3    H227454   2.301   3.053   6.308
 9171TIP3   OH227455   6.845   7.430   0.899
 9171TIP3    H127456   6.873   7.397   0.814
 9171TIP3    H227457   6.798   7.357   0.939
 9172TIP3   OH227458   0.494   0.832   4.382
 9172TIP3    H127459   0.433   0.886   4.432
 9172TIP3    H227460   0.444   0.753   4.362
 9173TIP3   OH227461   5.924   3.203   4.369
 9173TIP3    H127462   5.906   3.110   4.356
 9173TIP3    H227463   6.013   3.206   4.404
 9174TIP3   OH227464   6.391   5.820   5.201
 9174TIP3    H127465   6.337   5.746   5.231
 9174TIP3    H227466   6.400   5.876   5.278
 9175TIP3   OH227467   2.173   0.692   5.189
 9175TIP3    H127468   2.237   0.686   5.118
 9175TIP3    H227469   2.089   0.701   5.145
 9176TIP3   OH227470   5.192   3.258   2.601
 9176TIP3    H127471   5.268   3.226   2.552
 9176TIP3    H227472   5.132   3.291   2.534
 9177TIP3   OH227473   6.060   1.681   0.834
 9177TIP3    H127474   6.089   1.628   0.761
 9177TIP3    H227475   6.104   1.765   0.822
 9178TIP3   OH227476   2.314   6.667   6.635
 9178TIP3    H127477   2.281   6.754   6.613
 9178TIP3    H227478   2.351   6.678   6.723
 9179TIP3   OH227479   0.058   7.494   6.617
 9179TIP3    H127480   0.045   7.587   6.638
 9179TIP3    H227481   0.079   7.494   6.523
 9180TIP3   OH227482   6.221   4.766   0.091
 9180TIP3    H127483   6.223   4.861   0.078
 9180TIP3    H227484   6.218   4.755   0.186
 9181TIP3   OH227485   6.613   3.506   2.595
 9181TIP3    H127486   6.526   3.546   2.587
 9181TIP3    H227487   6.600   3.416   2.564
 9182TIP3   OH227488   5.320   5.689   4.268
 9182TIP3    H127489   5.310   5.733   4.183
 9182TIP3    H227490   5.370   5.751   4.321
 9183TIP3   OH227491   2.366   2.236   6.379
 9183TIP3    H127492   2.423   2.163   6.357
 9183TIP3    H227493   2.414   2.286   6.445
 9184TIP3   OH227494   1.342   5.567   6.561
 9184TIP3    H127495   1.269   5.602   6.612
 9184TIP3    H227496   1.399   5.525   6.625
 9185TIP3   OH227497   2.240   6.111   1.002
 9185TIP3    H127498   2.188   6.055   1.060
 9185TIP3    H227499   2.324   6.066   0.994
 9186TIP3   OH227500   8.077   7.436   2.488
 9186TIP3    H127501   8.019   7.512   2.485
 9186TIP3    H227502   8.018   7.361   2.495
 9187TIP3   OH227503   2.788   0.907   2.299
 9187TIP3    H127504   2.838   0.848   2.243
 9187TIP3    H227505   2.854   0.963   2.340
 9188TIP3   OH227506   2.039   2.114   1.685
 9188TIP3    H127507   1.980   2.185   1.661
 9188TIP3    H227508   2.088   2.095   1.605
 9189TIP3   OH227509   2.822   5.491   6.378
 9189TIP3    H127510   2.842   5.584   6.381
 9189TIP3    H227511   2.885   5.454   6.316
 9190TIP3   OH227512   7.281   1.762   5.946
 9190TIP3    H127513   7.358   1.720   5.907
 9190TIP3    H227514   7.307   1.854   5.957
 9191TIP3   OH227515   2.612   4.314   4.046
 9191TIP3    H127516   2.640   4.381   4.108
 9191TIP3    H227517   2.521   4.295   4.069
 9192TIP3   OH227518   6.695   6.543   3.839
 9192TIP3    H127519   6.638   6.600   3.890
 9192TIP3    H227520   6.719   6.595   3.762
 9193TIP3   OH227521   4.741   2.766   4.209
 9193TIP3    H127522   4.759   2.708   4.135
 9193TIP3    H227523   4.690   2.838   4.171
 9194TIP3   OH227524   6.252   3.962   6.716
 9194TIP3    H127525   6.240   3.942   6.623
 9194TIP3    H227526   6.314   3.896   6.746
 9195TIP3   OH227527   4.508   0.111   2.460
 9195TIP3    H127528   4.553   0.129   2.542
 9195TIP3    H227529   4.526   0.018   2.443
 9196TIP3   OH227530   6.291   0.108   1.610
 9196TIP3    H127531   6.210   0.104   1.558
 9196TIP3    H227532   6.284   0.190   1.657
 9197TIP3   OH227533   1.243   2.443   1.088
 9197TIP3    H127534   1.285   2.394   1.159
 9197TIP3    H227535   1.246   2.534   1.117
 9198TIP3   OH227536   1.178   3.503   5.746
 9198TIP3    H127537   1.090   3.470   5.729
 9198TIP3    H227538   1.215   3.520   5.660
 9199TIP3   OH227539   0.615   2.393   6.736
 9199TIP3    H127540   0.687   2.401   6.799
 9199TIP3    H227541   0.537   2.417   6.786
 9200TIP3   OH227542   7.599   7.547   5.486
 9200TIP3    H127543   7.566   7.508   5.405
 9200TIP3    H227544   7.619   7.473   5.543
 9201TIP3   OH227545   1.172   0.517   5.421
 9201TIP3    H127546   1.146   0.600   5.382
 9201TIP3    H227547   1.149   0.524   5.513
 9202TIP3   OH227548   3.837   6.445   2.816
 9202TIP3    H127549   3.800   6.357   2.827
 9202TIP3    H227550   3.930   6.429   2.799
 9203TIP3   OH227551   3.414   6.847   6.343
 9203TIP3    H127552   3.464   6.767   6.328
 9203TIP3    H227553   3.478   6.910   6.376
 9204TIP3   OH227554   1.031   5.728   3.284
 9204TIP3    H127555   0.950   5.775   3.305
 9204TIP3    H227556   1.004   5.637   3.272
 9205TIP3   OH227557   7.523   1.385   1.432
 9205TIP3    H127558   7.606   1.385   1.384
 9205TIP3    H227559   7.509   1.292   1.454
 9206TIP3   OH227560   4.664   4.932   5.914
 9206TIP3    H127561   4.691   4.889   5.995
 9206TIP3    H227562   4.682   5.025   5.929
 9207TIP3   OH227563   6.858   0.894   6.507
 9207TIP3    H127564   6.830   0.935   6.589
 9207TIP3    H227565   6.937   0.846   6.531
 9208TIP3   OH227566   2.913   5.952   2.136
 9208TIP3    H127567   2.881   5.885   2.075
 9208TIP3    H227568   2.947   6.022   2.080
 9209TIP3   OH227569   0.267   5.580   4.803
 9209TIP3    H127570   0.249   5.628   4.722
 9209TIP3    H227571   0.253   5.645   4.872
 9210TIP3   OH227572   5.336   1.189   1.441
 9210TIP3    H127573   5.400   1.199   1.512
 9210TIP3    H227574   5.382   1.136   1.375
 9211TIP3   OH227575   6.298   0.472   4.989
 9211TIP3    H127576   6.209   0.501   5.010
 9211TIP3    H227577   6.312   0.499   4.899
 9212TIP3   OH227578   6.098   0.713   4.043
 9212TIP3    H127579   6.016   0.675   4.074
 9212TIP3    H227580   6.119   0.663   3.963
 9213TIP3   OH227581   4.515   3.744   2.263
 9213TIP3    H127582   4.460   3.747   2.340
 9213TIP3    H227583   4.508   3.832   2.225
 9214TIP3   OH227584   5.342   6.856   2.296
 9214TIP3    H127585   5.372   6.944   2.318
 9214TIP3    H227586   5.422   6.803   2.296
 9215TIP3   OH227587   3.838   4.789   2.230
 9215TIP3    H127588   3.931   4.777   2.215
 9215TIP3    H227589   3.832   4.835   2.314
 9216TIP3   OH227590   5.819   5.239   3.906
 9216TIP3    H127591   5.730   5.275   3.907
 9216TIP3    H227592   5.829   5.205   3.817
 9217TIP3   OH227593   8.249   5.338   5.228
 9217TIP3    H127594   8.286   5.258   5.190
 9217TIP3    H227595   8.291   5.345   5.314
 9218TIP3   OH227596   4.138   1.577   5.847
 9218TIP3    H127597   4.107   1.579   5.757
 9218TIP3    H227598   4.189   1.658   5.857
 9219TIP3   OH227599   4.973   6.595   5.262
 9219TIP3    H127600   5.043   6.660   5.268
 9219TIP3    H227601   4.982   6.542   5.340
 9220TIP3   OH227602   6.623   2.056   1.137
 9220TIP3    H127603   6.715   2.033   1.137
 9220TIP3    H227604   6.608   2.095   1.223
 9221TIP3   OH227605   6.150   2.045   4.389
 9221TIP3    H127606   6.133   1.955   4.416
 9221TIP3    H227607   6.235   2.042   4.345
 9222TIP3   OH227608   3.079   4.566   1.135
 9222TIP3    H127609   3.006   4.578   1.075
 9222TIP3    H227610   3.111   4.655   1.151
 9223TIP3   OH227611   6.601   3.071   3.401
 9223TIP3    H127612   6.661   3.134   3.441
 9223TIP3    H227613   6.606   3.090   3.307
 9224TIP3   OH227614   7.496   3.077   4.613
 9224TIP3    H127615   7.524   3.167   4.631
 9224TIP3    H227616   7.480   3.075   4.519
 9225TIP3   OH227617   3.017   2.708   0.612
 9225TIP3    H127618   2.990   2.733   0.701
 9225TIP3    H227619   3.019   2.790   0.563
 9226TIP3   OH227620   5.057   7.044   0.379
 9226TIP3    H127621   4.979   7.099   0.374
 9226TIP3    H227622   5.047   6.982   0.307
 9227TIP3   OH227623   4.566   0.283   2.040
 9227TIP3    H127624   4.643   0.230   2.017
 9227TIP3    H227625   4.492   0.222   2.035
 9228TIP3   OH227626   3.498   4.107   2.277
 9228TIP3    H127627   3.511   4.101   2.182
 9228TIP3    H227628   3.435   4.037   2.297
 9229TIP3   OH227629   5.228   5.284   6.697
 9229TIP3    H127630   5.171   5.208   6.709
 9229TIP3    H227631   5.301   5.270   6.756
 9230TIP3   OH227632   4.939   4.574   0.944
 9230TIP3    H127633   4.988   4.582   0.861
 9230TIP3    H227634   4.882   4.650   0.945
 9231TIP3   OH227635   1.823   5.968   4.254
 9231TIP3    H127636   1.878   5.973   4.333
 9231TIP3    H227637   1.875   5.916   4.192
 9232TIP3   OH227638   2.288   0.258   3.779
 9232TIP3    H127639   2.265   0.174   3.817
 9232TIP3    H227640   2.384   0.263   3.785
 9233TIP3   OH227641   7.874   0.737   5.604
 9233TIP3    H127642   7.966   0.748   5.580
 9233TIP3    H227643   7.836   0.824   5.594
 9234TIP3   OH227644   0.989   0.940   1.742
 9234TIP3    H127645   0.906   0.921   1.787
 9234TIP3    H227646   0.964   0.956   1.651
 9235TIP3   OH227647   4.907   4.795   4.180
 9235TIP3    H127648   4.991   4.757   4.155
 9235TIP3    H227649   4.844   4.723   4.168
 9236TIP3   OH227650   3.443   4.083   6.624
 9236TIP3    H127651   3.377   4.014   6.623
 9236TIP3    H227652   3.452   4.109   6.533
 9237TIP3   OH227653   7.809   6.006   5.976
 9237TIP3    H127654   7.815   6.028   5.884
 9237TIP3    H227655   7.767   5.920   5.978
 9238TIP3   OH227656   5.528   4.476   3.677
 9238TIP3    H127657   5.590   4.496   3.747
 9238TIP3    H227658   5.469   4.411   3.715
 9239TIP3   OH227659   7.324   7.761  -0.021
 9239TIP3    H127660   7.416   7.761   0.005
 9239TIP3    H227661   7.279   7.713   0.049
 9240TIP3   OH227662   7.159   4.766   5.567
 9240TIP3    H127663   7.065   4.760   5.555
 9240TIP3    H227664   7.173   4.853   5.606
 9241TIP3   OH227665   6.828   0.131   6.183
 9241TIP3    H127666   6.873   0.181   6.114
 9241TIP3    H227667   6.821   0.042   6.148
 9242TIP3   OH227668   7.366   0.292   1.345
 9242TIP3    H127669   7.441   0.340   1.380
 9242TIP3    H227670   7.391   0.200   1.352
 9243TIP3   OH227671   0.841   5.146   0.198
 9243TIP3    H127672   0.826   5.240   0.209
 9243TIP3    H227673   0.766   5.104   0.240
 9244TIP3   OH227674   3.420   1.659   4.305
 9244TIP3    H127675   3.398   1.593   4.238
 9244TIP3    H227676   3.335   1.693   4.333
 9245TIP3   OH227677   0.655   4.685   1.186
 9245TIP3    H127678   0.748   4.663   1.195
 9245TIP3    H227679   0.612   4.636   1.257
 9246TIP3   OH227680   5.851   4.673   0.232
 9246TIP3    H127681   5.798   4.606   0.189
 9246TIP3    H227682   5.895   4.628   0.303
 9247TIP3   OH227683   5.050   6.110   3.383
 9247TIP3    H127684   5.137   6.069   3.386
 9247TIP3    H227685   5.006   6.066   3.310
 9248TIP3   OH227686   2.364   3.858   4.072
 9248TIP3    H127687   2.302   3.787   4.088
 9248TIP3    H227688   2.364   3.869   3.977
 9249TIP3   OH227689   1.386   1.226   3.869
 9249TIP3    H127690   1.447   1.263   3.805
 9249TIP3    H227691   1.300   1.242   3.831
 9250TIP3   OH227692   8.017   4.761   6.381
 9250TIP3    H127693   7.968   4.843   6.384
 9250TIP3    H227694   8.043   4.752   6.289
 9251TIP3   OH227695   8.219   6.366   6.199
 9251TIP3    H127696   8.226   6.367   6.103
 9251TIP3    H227697   8.156   6.436   6.219
 9252TIP3   OH227698   8.310   7.346   5.055
 9252TIP3    H127699   8.288   7.330   5.147
 9252TIP3    H227700   8.227   7.367   5.014
 9253TIP3   OH227701   1.454   7.045   2.146
 9253TIP3    H127702   1.536   6.998   2.133
 9253TIP3    H227703   1.408   6.996   2.215
 9254TIP3   OH227704   7.521   6.943   3.350
 9254TIP3    H127705   7.431   6.952   3.381
 9254TIP3    H227706   7.519   6.976   3.261
 9255TIP3   OH227707   6.593   0.769   2.141
 9255TIP3    H127708   6.558   0.688   2.105
 9255TIP3    H227709   6.582   0.833   2.072
 9256TIP3   OH227710   0.691   3.821   4.648
 9256TIP3    H127711   0.761   3.886   4.661
 9256TIP3    H227712   0.656   3.840   4.561
 9257TIP3   OH227713   3.380   5.080   1.671
 9257TIP3    H127714   3.387   5.004   1.728
 9257TIP3    H227715   3.288   5.080   1.644
 9258TIP3   OH227716   4.062   7.798   4.561
 9258TIP3    H127717   4.100   7.720   4.520
 9258TIP3    H227718   3.983   7.765   4.605
 9259TIP3   OH227719   8.234   0.081   4.126
 9259TIP3    H127720   8.286   0.074   4.046
 9259TIP3    H227721   8.224   0.176   4.139
 9260TIP3   OH227722   1.723   2.312   5.997
 9260TIP3    H127723   1.658   2.374   6.032
 9260TIP3    H227724   1.689   2.226   6.021
 9261TIP3   OH227725   1.694   4.282   5.776
 9261TIP3    H127726   1.609   4.325   5.774
 9261TIP3    H227727   1.744   4.330   5.841
 9262TIP3   OH227728   3.864   2.720   3.414
 9262TIP3    H127729   3.873   2.625   3.426
 9262TIP3    H227730   3.820   2.730   3.330
 9263TIP3   OH227731   0.258   4.770   0.900
 9263TIP3    H127732   0.347   4.788   0.928
 9263TIP3    H227733   0.233   4.846   0.848
 9264TIP3   OH227734   0.938   0.186   2.069
 9264TIP3    H127735   0.996   0.111   2.068
 9264TIP3    H227736   0.968   0.242   1.998
 9265TIP3   OH227737   4.611   0.611   2.979
 9265TIP3    H127738   4.657   0.540   3.024
 9265TIP3    H227739   4.555   0.650   3.047
 9266TIP3   OH227740   4.847   5.349   2.503
 9266TIP3    H127741   4.839   5.433   2.549
 9266TIP3    H227742   4.801   5.287   2.559
 9267TIP3   OH227743   5.864   5.733   2.216
 9267TIP3    H127744   5.845   5.792   2.143
 9267TIP3    H227745   5.948   5.693   2.192
 9268TIP3   OH227746   1.573   2.971   1.936
 9268TIP3    H127747   1.530   2.994   2.018
 9268TIP3    H227748   1.612   2.885   1.953
 9269TIP3   OH227749   4.389   0.157   3.673
 9269TIP3    H127750   4.468   0.155   3.727
 9269TIP3    H227751   4.401   0.233   3.616
 9270TIP3   OH227752   6.800   4.311   4.083
 9270TIP3    H127753   6.841   4.397   4.097
 9270TIP3    H227754   6.861   4.249   4.124
 9271TIP3   OH227755   6.411   2.305   2.213
 9271TIP3    H127756   6.321   2.280   2.236
 9271TIP3    H227757   6.426   2.264   2.127
 9272TIP3   OH227758   1.924   0.248   1.960
 9272TIP3    H127759   1.912   0.307   1.886
 9272TIP3    H227760   1.882   0.167   1.932
 9273TIP3   OH227761   5.629   2.127   4.245
 9273TIP3    H127762   5.560   2.180   4.204
 9273TIP3    H227763   5.671   2.082   4.171
 9274TIP3   OH227764   6.170   2.104   2.351
 9274TIP3    H127765   6.119   2.024   2.338
 9274TIP3    H227766   6.159   2.154   2.270
 9275TIP3   OH227767   7.708   1.416   4.105
 9275TIP3    H127768   7.719   1.322   4.094
 9275TIP3    H227769   7.798   1.450   4.108
 9276TIP3   OH227770   2.181   6.636   5.215
 9276TIP3    H127771   2.224   6.572   5.158
 9276TIP3    H227772   2.091   6.603   5.224
 9277TIP3   OH227773   5.290   2.670   0.478
 9277TIP3    H127774   5.304   2.585   0.434
 9277TIP3    H227775   5.212   2.705   0.435
 9278TIP3   OH227776   3.621   4.292   0.694
 9278TIP3    H127777   3.643   4.376   0.653
 9278TIP3    H227778   3.541   4.310   0.744
 9279TIP3   OH227779   6.003   2.590   6.040
 9279TIP3    H127780   5.916   2.626   6.024
 9279TIP3    H227781   6.024   2.542   5.960
 9280TIP3   OH227782   3.205   3.459   3.075
 9280TIP3    H127783   3.228   3.509   2.997
 9280TIP3    H227784   3.217   3.520   3.147
 9281TIP3   OH227785   3.385   5.934   5.626
 9281TIP3    H127786   3.296   5.901   5.637
 9281TIP3    H227787   3.437   5.855   5.609
 9282TIP3   OH227788   2.789   7.623   0.240
 9282TIP3    H127789   2.727   7.696   0.239
 9282TIP3    H227790   2.873   7.663   0.218
 9283TIP3   OH227791   5.310   6.003   4.353
 9283TIP3    H127792   5.220   5.995   4.321
 9283TIP3    H227793   5.306   5.976   4.445
 9284TIP3   OH227794   0.071   5.827   2.523
 9284TIP3    H127795   0.061   5.879   2.603
 9284TIP3    H227796   0.163   5.840   2.498
 9285TIP3   OH227797   2.142   6.750   2.106
 9285TIP3    H127798   2.206   6.781   2.042
 9285TIP3    H227799   2.186   6.676   2.150
 9286TIP3   OH227800   8.156   6.990   5.412
 9286TIP3    H127801   8.204   6.925   5.361
 9286TIP3    H227802   8.071   6.950   5.428
 9287TIP3   OH227803   0.760   4.116   1.353
 9287TIP3    H127804   0.736   4.028   1.325
 9287TIP3    H227805   0.678   4.164   1.355
 9288TIP3   OH227806   6.992   1.523   5.268
 9288TIP3    H127807   6.937   1.485   5.336
 9288TIP3    H227808   7.020   1.608   5.303
 9289TIP3   OH227809   7.578   6.371   0.494
 9289TIP3    H127810   7.602   6.463   0.498
 9289TIP3    H227811   7.530   6.362   0.412
 9290TIP3   OH227812   8.246   7.439   4.262
 9290TIP3    H127813   8.312   7.381   4.223
 9290TIP3    H227814   8.223   7.500   4.191
 9291TIP3   OH227815   0.714   5.099   0.652
 9291TIP3    H127816   0.692   5.080   0.561
 9291TIP3    H227817   0.675   5.027   0.701
 9292TIP3   OH227818   0.334   0.318   1.314
 9292TIP3    H127819   0.315   0.346   1.225
 9292TIP3    H227820   0.249   0.298   1.353
 9293TIP3   OH227821   5.271   5.914   1.432
 9293TIP3    H127822   5.256   5.847   1.366
 9293TIP3    H227823   5.333   5.875   1.493
 9294TIP3   OH227824   4.114   6.569   0.498
 9294TIP3    H127825   4.209   6.578   0.493
 9294TIP3    H227826   4.080   6.643   0.448
 9295TIP3   OH227827   4.787   5.663   5.872
 9295TIP3    H127828   4.813   5.582   5.829
 9295TIP3    H227829   4.824   5.657   5.960
 9296TIP3   OH227830   3.040   3.311   0.245
 9296TIP3    H127831   2.974   3.312   0.175
 9296TIP3    H227832   3.040   3.220   0.275
 9297TIP3   OH227833   5.051   2.094   1.676
 9297TIP3    H127834   4.979   2.084   1.737
 9297TIP3    H227835   5.034   2.178   1.632
 9298TIP3   OH227836   6.019   5.628   2.641
 9298TIP3    H127837   6.080   5.666   2.704
 9298TIP3    H227838   5.999   5.699   2.580
 9299TIP3   OH227839   1.322   6.173   2.127
 9299TIP3    H127840   1.323   6.254   2.076
 9299TIP3    H227841   1.391   6.119   2.086
 9300TIP3   OH227842   3.256   4.648   4.299
 9300TIP3    H127843   3.270   4.606   4.384
 9300TIP3    H227844   3.337   4.630   4.250
 9301TIP3   OH227845   8.283   2.204   4.675
 9301TIP3    H127846   8.315   2.138   4.737
 9301TIP3    H227847   8.284   2.160   4.591
 9302TIP3   OH227848   5.726   5.547   2.374
 9302TIP3    H127849   5.701   5.599   2.450
 9302TIP3    H227850   5.808   5.586   2.345
 9303TIP3   OH227851   4.148   2.742   1.677
 9303TIP3    H127852   4.218   2.782   1.625
 9303TIP3    H227853   4.070   2.792   1.653
 9304TIP3   OH227854   0.646   1.610   3.126
 9304TIP3    H127855   0.553   1.598   3.143
 9304TIP3    H227856   0.688   1.537   3.172
 9305TIP3   OH227857   7.044   4.321   4.672
 9305TIP3    H127858   7.075   4.319   4.762
 9305TIP3    H227859   7.080   4.241   4.632
 9306TIP3   OH227860   0.725   2.855   0.802
 9306TIP3    H127861   0.797   2.914   0.823
 9306TIP3    H227862   0.723   2.852   0.706
 9307TIP3   OH227863   2.615   6.547   3.646
 9307TIP3    H127864   2.607   6.550   3.551
 9307TIP3    H227865   2.685   6.484   3.662
 9308TIP3   OH227866   2.646   3.485   3.329
 9308TIP3    H127867   2.721   3.478   3.271
 9308TIP3    H227868   2.678   3.535   3.404
 9309TIP3   OH227869   3.569   3.982   6.011
 9309TIP3    H127870   3.558   3.997   5.917
 9309TIP3    H227871   3.513   4.047   6.053
 9310TIP3   OH227872   3.993   1.170   5.793
 9310TIP3    H127873   3.950   1.255   5.779
 9310TIP3    H227874   4.045   1.183   5.872
 9311TIP3   OH227875   1.451   3.830   3.261
 9311TIP3    H127876   1.540   3.817   3.228
 9311TIP3    H227877   1.408   3.746   3.245
 9312TIP3   OH227878   0.812   1.119   6.049
 9312TIP3    H127879   0.893   1.141   6.095
 9312TIP3    H227880   0.744   1.121   6.117
 9313TIP3   OH227881   6.288   6.976   2.904
 9313TIP3    H127882   6.225   7.025   2.850
 9313TIP3    H227883   6.244   6.966   2.988
 9314TIP3   OH227884   5.492   3.053   6.615
 9314TIP3    H127885   5.578   3.010   6.614
 9314TIP3    H227886   5.511   3.143   6.643
 9315TIP3   OH227887   2.079   1.672   5.724
 9315TIP3    H127888   2.087   1.713   5.811
 9315TIP3    H227889   2.013   1.724   5.679
 9316TIP3   OH227890   5.822   2.495   1.582
 9316TIP3    H127891   5.781   2.484   1.668
 9316TIP3    H227892   5.748   2.498   1.521
 9317TIP3   OH227893   4.491   5.753   4.746
 9317TIP3    H127894   4.408   5.765   4.791
 9317TIP3    H227895   4.471   5.768   4.654
 9318TIP3   OH227896   0.569   3.220   4.220
 9318TIP3    H127897   0.484   3.265   4.222
 9318TIP3    H227898   0.556   3.147   4.158
 9319TIP3   OH227899   0.997   6.980   4.574
 9319TIP3    H127900   1.041   6.912   4.625
 9319TIP3    H227901   1.053   6.993   4.497
 9320TIP3   OH227902   2.706   7.115   2.387
 9320TIP3    H127903   2.666   7.179   2.445
 9320TIP3    H227904   2.801   7.129   2.396
 9321TIP3   OH227905   5.208   7.074   1.276
 9321TIP3    H127906   5.237   7.165   1.264
 9321TIP3    H227907   5.193   7.042   1.187
 9322TIP3   OH227908   7.663   6.806   3.524
 9322TIP3    H127909   7.649   6.714   3.502
 9322TIP3    H227910   7.617   6.855   3.455
 9323TIP3   OH227911   0.059   1.089   6.521
 9323TIP3    H127912   0.102   1.131   6.446
 9323TIP3    H227913  -0.006   1.153   6.550
 9324TIP3   OH227914   8.232   2.414   4.014
 9324TIP3    H127915   8.146   2.445   4.044
 9324TIP3    H227916   8.282   2.493   3.998
 9325TIP3   OH227917   2.539   1.583   3.679
 9325TIP3    H127918   2.451   1.598   3.715
 9325TIP3    H227919   2.528   1.590   3.584
 9326TIP3   OH227920   7.933   3.113   0.800
 9326TIP3    H127921   7.916   3.097   0.708
 9326TIP3    H227922   7.915   3.206   0.813
 9327TIP3   OH227923   0.893   1.960   2.495
 9327TIP3    H127924   0.918   2.047   2.524
 9327TIP3    H227925   0.974   1.923   2.460
 9328TIP3   OH227926   1.669   2.927   6.575
 9328TIP3    H127927   1.631   2.950   6.490
 9328TIP3    H227928   1.638   2.995   6.635
 9329TIP3   OH227929   5.213   2.060   4.890
 9329TIP3    H127930   5.214   1.978   4.842
 9329TIP3    H227931   5.149   2.115   4.844
 9330TIP3   OH227932   6.674   0.661   6.566
 9330TIP3    H127933   6.683   0.746   6.522
 9330TIP3    H227934   6.637   0.682   6.652
 9331TIP3   OH227935   6.430   5.817   2.869
 9331TIP3    H127936   6.431   5.891   2.930
 9331TIP3    H227937   6.514   5.773   2.884
 9332TIP3   OH227938   4.969   5.575   6.044
 9332TIP3    H127939   4.973   5.501   5.984
 9332TIP3    H227940   5.012   5.544   6.124
 9333TIP3   OH227941   2.580   3.627   1.058
 9333TIP3    H127942   2.586   3.566   1.131
 9333TIP3    H227943   2.626   3.584   0.986
 9334TIP3   OH227944   2.664   1.274   4.016
 9334TIP3    H127945   2.739   1.285   3.958
 9334TIP3    H227946   2.643   1.363   4.046
 9335TIP3   OH227947  -0.017   3.718   5.378
 9335TIP3    H127948   0.031   3.674   5.307
 9335TIP3    H227949   0.009   3.810   5.371
 9336TIP3   OH227950   1.576   5.835   0.395
 9336TIP3    H127951   1.559   5.773   0.466
 9336TIP3    H227952   1.581   5.780   0.317
 9337TIP3   OH227953   0.340   5.487   2.092
 9337TIP3    H127954   0.247   5.486   2.071
 9337TIP3    H227955   0.345   5.455   2.182
 9338TIP3   OH227956   3.772   7.619   5.120
 9338TIP3    H127957   3.826   7.642   5.044
 9338TIP3    H227958   3.816   7.660   5.194
 9339TIP3   OH227959   3.569   4.911   0.894
 9339TIP3    H127960   3.551   4.877   0.981
 9339TIP3    H227961   3.570   5.007   0.905
 9340TIP3   OH227962   4.765   0.393   2.665
 9340TIP3    H127963   4.720   0.309   2.670
 9340TIP3    H227964   4.858   0.372   2.675
 9341TIP3   OH227965   5.979   2.045   1.287
 9341TIP3    H127966   5.969   1.959   1.245
 9341TIP3    H227967   6.073   2.063   1.282
 9342TIP3   OH227968   7.655   3.521   4.201
 9342TIP3    H127969   7.565   3.492   4.218
 9342TIP3    H227970   7.710   3.453   4.240
 9343TIP3   OH227971   6.882   5.067   6.092
 9343TIP3    H127972   6.953   5.128   6.073
 9343TIP3    H227973   6.891   4.998   6.026
 9344TIP3   OH227974   5.659   1.220   5.275
 9344TIP3    H127975   5.719   1.150   5.249
 9344TIP3    H227976   5.572   1.188   5.252
 9345TIP3   OH227977   6.707   4.751   5.159
 9345TIP3    H127978   6.801   4.766   5.169
 9345TIP3    H227979   6.687   4.781   5.070
 9346TIP3   OH227980   6.163   7.831   6.702
 9346TIP3    H127981   6.255   7.856   6.689
 9346TIP3    H227982   6.135   7.799   6.616
 9347TIP3   OH227983   2.508   2.827   2.120
 9347TIP3    H127984   2.528   2.921   2.117
 9347TIP3    H227985   2.567   2.792   2.187
 9348TIP3   OH227986   5.471   5.992   2.997
 9348TIP3    H127987   5.428   5.908   3.013
 9348TIP3    H227988   5.485   6.029   3.084
 9349TIP3   OH227989   0.536   6.188   3.754
 9349TIP3    H127990   0.530   6.283   3.762
 9349TIP3    H227991   0.556   6.173   3.662
 9350TIP3   OH227992   4.400   2.651   4.020
 9350TIP3    H127993   4.338   2.586   4.053
 9350TIP3    H227994   4.430   2.697   4.099
 9351TIP3   OH227995   6.344   3.251   4.642
 9351TIP3    H127996   6.357   3.272   4.549
 9351TIP3    H227997   6.332   3.156   4.644
 9352TIP3   OH227998   2.507   5.784   2.146
 9352TIP3    H127999   2.582   5.726   2.144
 9352TIP3    H228000   2.525   5.850   2.079
 9353TIP3   OH228001   3.076   6.490   3.645
 9353TIP3    H128002   3.084   6.576   3.605
 9353TIP3    H228003   3.145   6.438   3.604
 9354TIP3   OH228004   5.468   6.420   6.122
 9354TIP3    H128005   5.378   6.404   6.093
 9354TIP3    H228006   5.466   6.507   6.161
 9355TIP3   OH228007   6.775   4.480   2.277
 9355TIP3    H128008   6.743   4.486   2.367
 9355TIP3    H228009   6.707   4.521   2.225
 9356TIP3   OH228010   5.775   1.365   4.578
 9356TIP3    H128011   5.750   1.398   4.664
 9356TIP3    H228012   5.697   1.319   4.546
 9357TIP3   OH228013   1.590   6.250   1.063
 9357TIP3    H128014   1.545   6.292   0.990
 9357TIP3    H228015   1.667   6.305   1.079
 9358TIP3   OH228016   4.906   0.535   2.186
 9358TIP3    H128017   4.999   0.522   2.203
 9358TIP3    H228018   4.869   0.560   2.271
 9359TIP3   OH228019   5.248   6.147   3.997
 9359TIP3    H128020   5.213   6.098   4.072
 9359TIP3    H228021   5.170   6.177   3.950
 9360TIP3   OH228022   7.926   0.569   4.117
 9360TIP3    H128023   7.920   0.641   4.054
 9360TIP3    H228024   7.860   0.590   4.184
 9361TIP3   OH228025   1.054   3.237   1.059
 9361TIP3    H128026   1.099   3.265   0.980
 9361TIP3    H228027   1.117   3.252   1.130
 9362TIP3   OH228028   7.062   7.081   5.105
 9362TIP3    H128029   7.117   7.013   5.066
 9362TIP3    H228030   7.113   7.161   5.096
 9363TIP3   OH228031   7.085   4.776   2.566
 9363TIP3    H128032   7.020   4.846   2.562
 9363TIP3    H228033   7.092   4.755   2.659
 9364TIP3   OH228034   3.450   5.064   3.547
 9364TIP3    H128035   3.382   5.128   3.565
 9364TIP3    H228036   3.532   5.109   3.565
 9365TIP3   OH228037   5.998   1.209   2.594
 9365TIP3    H128038   6.023   1.151   2.522
 9365TIP3    H228039   5.926   1.261   2.559
 9366TIP3   OH228040   2.472   2.635   5.033
 9366TIP3    H128041   2.448   2.723   5.062
 9366TIP3    H228042   2.435   2.628   4.945
 9367TIP3   OH228043   7.485   3.347   0.681
 9367TIP3    H128044   7.476   3.427   0.732
 9367TIP3    H228045   7.547   3.370   0.612
 9368TIP3   OH228046   5.524   6.640   0.764
 9368TIP3    H128047   5.495   6.550   0.781
 9368TIP3    H228048   5.576   6.664   0.841
 9369TIP3   OH228049   8.109   4.726   2.185
 9369TIP3    H128050   8.096   4.752   2.094
 9369TIP3    H228051   8.027   4.685   2.211
 9370TIP3   OH228052   7.331   3.788   1.484
 9370TIP3    H128053   7.401   3.808   1.546
 9370TIP3    H228054   7.315   3.694   1.496
 9371TIP3   OH228055   1.560   1.761   1.528
 9371TIP3    H128056   1.500   1.719   1.467
 9371TIP3    H228057   1.505   1.790   1.600
 9372TIP3   OH228058   1.802   4.899   3.495
 9372TIP3    H128059   1.828   4.924   3.583
 9372TIP3    H228060   1.827   4.973   3.440
 9373TIP3   OH228061   6.669   5.695   6.707
 9373TIP3    H128062   6.581   5.726   6.729
 9373TIP3    H228063   6.667   5.601   6.725
 9374TIP3   OH228064   2.174   0.662   1.942
 9374TIP3    H128065   2.191   0.609   1.865
 9374TIP3    H228066   2.079   0.665   1.949
 9375TIP3   OH228067   3.341   6.246   1.087
 9375TIP3    H128068   3.405   6.186   1.124
 9375TIP3    H228069   3.392   6.323   1.061
 9376TIP3   OH228070   6.750   2.885   3.789
 9376TIP3    H128071   6.762   2.820   3.858
 9376TIP3    H228072   6.789   2.965   3.825
 9377TIP3   OH228073   4.132   0.698   5.422
 9377TIP3    H128074   4.129   0.611   5.461
 9377TIP3    H228075   4.146   0.682   5.329
 9378TIP3   OH228076   3.292   0.888   3.614
 9378TIP3    H128077   3.216   0.938   3.646
 9378TIP3    H228078   3.260   0.798   3.608
 9379TIP3   OH228079   4.366   3.672   0.205
 9379TIP3    H128080   4.286   3.627   0.233
 9379TIP3    H228081   4.415   3.687   0.286
 9380TIP3   OH228082   7.201   2.118   6.370
 9380TIP3    H128083   7.124   2.174   6.385
 9380TIP3    H228084   7.175   2.032   6.402
 9381TIP3   OH228085   4.197   5.624   4.954
 9381TIP3    H128086   4.270   5.584   5.000
 9381TIP3    H228087   4.124   5.621   5.016
 9382TIP3   OH228088   0.347   7.413   4.594
 9382TIP3    H128089   0.312   7.359   4.666
 9382TIP3    H228090   0.323   7.502   4.618
 9383TIP3   OH228091   0.124   3.281   0.408
 9383TIP3    H128092   0.146   3.224   0.334
 9383TIP3    H228093   0.029   3.271   0.419
 9384TIP3   OH228094   3.588   1.481   0.702
 9384TIP3    H128095   3.525   1.465   0.632
 9384TIP3    H228096   3.560   1.423   0.773
 9385TIP3   OH228097   0.954   7.348   4.897
 9385TIP3    H128098   0.935   7.326   4.988
 9385TIP3    H228099   1.049   7.351   4.892
 9386TIP3   OH228100   5.393   6.623   2.506
 9386TIP3    H128101   5.384   6.528   2.504
 9386TIP3    H228102   5.476   6.640   2.460
 9387TIP3   OH228103   4.639   5.082   3.577
 9387TIP3    H128104   4.575   5.017   3.607
 9387TIP3    H228105   4.670   5.123   3.657
 9388TIP3   OH228106   4.051   4.243   1.057
 9388TIP3    H128107   3.987   4.309   1.030
 9388TIP3    H228108   4.008   4.160   1.043
 9389TIP3   OH228109   3.813   4.559   6.450
 9389TIP3    H128110   3.864   4.621   6.501
 9389TIP3    H228111   3.864   4.478   6.452
 9390TIP3   OH228112   5.674   2.066   6.319
 9390TIP3    H128113   5.687   2.148   6.271
 9390TIP3    H228114   5.581   2.047   6.308
 9391TIP3   OH228115   3.187   2.399   0.300
 9391TIP3    H128116   3.112   2.448   0.266
 9391TIP3    H228117   3.150   2.340   0.365
 9392TIP3   OH228118   5.309   1.025   6.470
 9392TIP3    H128119   5.275   1.012   6.381
 9392TIP3    H228120   5.240   1.074   6.515
 9393TIP3   OH228121   4.282   3.933   0.236
 9393TIP3    H128122   4.329   3.850   0.243
 9393TIP3    H228123   4.341   3.989   0.186
 9394TIP3   OH228124   6.107   6.964   1.644
 9394TIP3    H128125   6.134   6.969   1.553
 9394TIP3    H228126   6.163   7.026   1.690
 9395TIP3   OH228127   2.760   4.176   2.537
 9395TIP3    H128128   2.808   4.107   2.582
 9395TIP3    H228129   2.813   4.255   2.550
 9396TIP3   OH228130   0.509   4.222   5.725
 9396TIP3    H128131   0.571   4.149   5.723
 9396TIP3    H228132   0.522   4.262   5.811
 9397TIP3   OH228133   2.360   6.641   0.965
 9397TIP3    H128134   2.430   6.688   0.919
 9397TIP3    H228135   2.288   6.637   0.902
 9398TIP3   OH228136   8.064   7.025   3.416
 9398TIP3    H128137   8.023   7.111   3.422
 9398TIP3    H228138   8.027   6.976   3.489
 9399TIP3   OH228139   2.405   1.698   1.064
 9399TIP3    H128140   2.326   1.684   1.012
 9399TIP3    H228141   2.411   1.620   1.119
 9400TIP3   OH228142   4.004   1.620   1.807
 9400TIP3    H128143   3.950   1.689   1.846
 9400TIP3    H228144   3.961   1.538   1.832
 9401TIP3   OH228145   5.095   2.125   5.738
 9401TIP3    H128146   5.133   2.192   5.680
 9401TIP3    H228147   5.158   2.053   5.735
 9402TIP3   OH228148   4.150   7.535   5.251
 9402TIP3    H128149   4.191   7.594   5.314
 9402TIP3    H228150   4.100   7.592   5.193
 9403TIP3   OH228151   3.406   6.349   3.856
 9403TIP3    H128152   3.471   6.420   3.854
 9403TIP3    H228153   3.422   6.304   3.939
 9404TIP3   OH228154   1.216   4.014   4.714
 9404TIP3    H128155   1.197   4.043   4.803
 9404TIP3    H228156   1.203   3.920   4.716
 9405TIP3   OH228157   3.812   0.203   1.243
 9405TIP3    H128158   3.871   0.226   1.171
 9405TIP3    H228159   3.868   0.205   1.321
 9406TIP3   OH228160   5.113   7.382   0.750
 9406TIP3    H128161   5.136   7.325   0.677
 9406TIP3    H228162   5.034   7.427   0.721
 9407TIP3   OH228163   1.940   4.991   0.272
 9407TIP3    H128164   1.957   4.971   0.364
 9407TIP3    H228165   1.927   5.086   0.270
 9408TIP3   OH228166   3.929   2.107   3.429
 9408TIP3    H128167   3.908   2.133   3.519
 9408TIP3    H228168   3.890   2.019   3.420
 9409TIP3   OH228169   6.231   5.641   2.814
 9409TIP3    H128170   6.311   5.693   2.819
 9409TIP3    H228171   6.260   5.551   2.829
 9410TIP3   OH228172   6.617   7.569   5.075
 9410TIP3    H128173   6.644   7.478   5.065
 9410TIP3    H228174   6.597   7.598   4.986
 9411TIP3   OH228175   2.009   3.506   3.771
 9411TIP3    H128176   1.985   3.547   3.688
 9411TIP3    H228177   1.932   3.516   3.826
 9412TIP3   OH228178   8.069   4.396   6.431
 9412TIP3    H128179   7.981   4.359   6.422
 9412TIP3    H228180   8.116   4.366   6.354
 9413TIP3   OH228181   2.378   6.088   2.936
 9413TIP3    H128182   2.391   6.159   2.998
 9413TIP3    H228183   2.356   6.012   2.990
 9414TIP3   OH228184   6.697   6.229   0.343
 9414TIP3    H128185   6.791   6.250   0.338
 9414TIP3    H228186   6.688   6.149   0.291
 9415TIP3   OH228187   6.729   5.072   3.723
 9415TIP3    H128188   6.792   5.006   3.692
 9415TIP3    H228189   6.693   5.110   3.643
 9416TIP3   OH228190   2.450   6.772   1.678
 9416TIP3    H128191   2.454   6.767   1.773
 9416TIP3    H228192   2.418   6.686   1.650
 9417TIP3   OH228193   1.637   5.642   3.914
 9417TIP3    H128194   1.588   5.580   3.968
 9417TIP3    H228195   1.725   5.641   3.952
 9418TIP3   OH228196   1.846   0.627   1.449
 9418TIP3    H128197   1.800   0.691   1.395
 9418TIP3    H228198   1.934   0.623   1.412
 9419TIP3   OH228199   5.079  -0.009   0.477
 9419TIP3    H128200   5.017  -0.011   0.550
 9419TIP3    H228201   5.065   0.076   0.436
 9420TIP3   OH228202   2.220   3.712   2.655
 9420TIP3    H128203   2.134   3.754   2.651
 9420TIP3    H228204   2.246   3.703   2.563
 9421TIP3   OH228205   7.113   1.581   1.498
 9421TIP3    H128206   7.123   1.610   1.408
 9421TIP3    H228207   7.202   1.573   1.532
 9422TIP3   OH228208   6.847   1.206   5.072
 9422TIP3    H128209   6.924   1.176   5.121
 9422TIP3    H228210   6.773   1.162   5.115
 9423TIP3   OH228211   4.787   6.995   5.847
 9423TIP3    H128212   4.712   7.036   5.804
 9423TIP3    H228213   4.762   6.903   5.859
 9424TIP3   OH228214   4.026   1.763   3.212
 9424TIP3    H128215   3.941   1.734   3.246
 9424TIP3    H228216   4.033   1.723   3.126
 9425TIP3   OH228217   5.155   4.841   3.174
 9425TIP3    H128218   5.242   4.876   3.160
 9425TIP3    H228219   5.152   4.761   3.121
 9426TIP3   OH228220   7.892   0.353   1.544
 9426TIP3    H128221   7.952   0.365   1.617
 9426TIP3    H228222   7.949   0.346   1.467
 9427TIP3   OH228223   3.825   0.042   0.526
 9427TIP3    H128224   3.853  -0.013   0.453
 9427TIP3    H228225   3.750   0.091   0.492
 9428TIP3   OH228226   3.753   7.507   1.877
 9428TIP3    H128227   3.807   7.429   1.888
 9428TIP3    H228228   3.690   7.503   1.949
 9429TIP3   OH228229   6.224   5.867   1.582
 9429TIP3    H128230   6.144   5.898   1.540
 9429TIP3    H228231   6.265   5.811   1.516
 9430TIP3   OH228232   7.482   3.338   0.059
 9430TIP3    H128233   7.477   3.258   0.005
 9430TIP3    H228234   7.468   3.307   0.148
 9431TIP3   OH228235   1.372   4.006   6.254
 9431TIP3    H128236   1.343   3.971   6.339
 9431TIP3    H228237   1.364   3.932   6.194
 9432TIP3   OH228238   3.337   3.829   1.285
 9432TIP3    H128239   3.367   3.920   1.288
 9432TIP3    H228240   3.349   3.803   1.195
 9433TIP3   OH228241   1.370   2.654   0.695
 9433TIP3    H128242   1.321   2.574   0.715
 9433TIP3    H228243   1.408   2.638   0.608
 9434TIP3   OH228244   2.386   6.914   1.378
 9434TIP3    H128245   2.411   6.867   1.457
 9434TIP3    H228246   2.418   6.859   1.306
 9435TIP3   OH228247   5.939   0.612   5.845
 9435TIP3    H128248   6.002   0.588   5.776
 9435TIP3    H228249   5.934   0.708   5.839
 9436TIP3   OH228250   5.597   0.520   4.428
 9436TIP3    H128251   5.659   0.458   4.390
 9436TIP3    H228252   5.652   0.590   4.464
 9437TIP3   OH228253   1.435   5.654   0.586
 9437TIP3    H128254   1.511   5.596   0.595
 9437TIP3    H228255   1.360   5.596   0.591
 9438TIP3   OH228256   2.866   6.166   1.406
 9438TIP3    H128257   2.840   6.094   1.348
 9438TIP3    H228258   2.957   6.184   1.383
 9439TIP3   OH228259   5.484   3.927   6.772
 9439TIP3    H128260   5.498   3.878   6.691
 9439TIP3    H228261   5.467   4.017   6.743
 9440TIP3   OH228262   7.577   2.166   5.495
 9440TIP3    H128263   7.642   2.226   5.531
 9440TIP3    H228264   7.531   2.133   5.572
 9441TIP3   OH228265   0.070   3.767   5.825
 9441TIP3    H128266   0.105   3.777   5.737
 9441TIP3    H228267  -0.020   3.797   5.819
 9442TIP3   OH228268   6.929   6.646   6.477
 9442TIP3    H128269   6.843   6.610   6.454
 9442TIP3    H228270   6.910   6.735   6.507
 9443TIP3   OH228271   3.470   6.730   1.004
 9443TIP3    H128272   3.482   6.735   1.099
 9443TIP3    H228273   3.377   6.711   0.993
 9444TIP3   OH228274   2.286   3.440   2.699
 9444TIP3    H128275   2.373   3.438   2.738
 9444TIP3    H228276   2.281   3.524   2.654
 9445TIP3   OH228277   1.794   0.502   5.153
 9445TIP3    H128278   1.714   0.554   5.152
 9445TIP3    H228279   1.764   0.412   5.165
 9446TIP3   OH228280   4.323   6.126   5.712
 9446TIP3    H128281   4.263   6.198   5.735
 9446TIP3    H228282   4.310   6.113   5.618
 9447TIP3   OH228283   7.565   1.653   4.716
 9447TIP3    H128284   7.610   1.638   4.633
 9447TIP3    H228285   7.472   1.644   4.695
 9448TIP3   OH228286   1.341   7.124   5.660
 9448TIP3    H128287   1.387   7.074   5.594
 9448TIP3    H228288   1.287   7.060   5.706
 9449TIP3   OH228289   4.047   0.315   2.367
 9449TIP3    H128290   4.030   0.346   2.278
 9449TIP3    H228291   4.140   0.293   2.367
 9450TIP3   OH228292   5.675   1.896   5.443
 9450TIP3    H128293   5.593   1.939   5.421
 9450TIP3    H228294   5.732   1.967   5.473
 9451TIP3   OH228295   3.944   0.838   6.595
 9451TIP3    H128296   3.926   0.932   6.595
 9451TIP3    H228297   4.019   0.828   6.537
 9452TIP3   OH228298   7.651   4.107   6.579
 9452TIP3    H128299   7.577   4.154   6.540
 9452TIP3    H228300   7.719   4.111   6.513
 9453TIP3   OH228301   7.174   6.705   0.270
 9453TIP3    H128302   7.211   6.793   0.271
 9453TIP3    H228303   7.208   6.663   0.349
 9454TIP3   OH228304   6.606   1.833   3.122
 9454TIP3    H128305   6.647   1.831   3.035
 9454TIP3    H228306   6.568   1.921   3.128
 9455TIP3   OH228307   7.095   1.133   3.882
 9455TIP3    H128308   7.040   1.140   3.960
 9455TIP3    H228309   7.170   1.189   3.901
 9456TIP3   OH228310   3.496   0.997   1.670
 9456TIP3    H128311   3.410   0.956   1.666
 9456TIP3    H228312   3.488   1.062   1.740
 9457TIP3   OH228313   3.001   0.075   0.625
 9457TIP3    H128314   3.067   0.048   0.560
 9457TIP3    H228315   2.980  -0.005   0.673
 9458TIP3   OH228316   1.832   4.334   2.216
 9458TIP3    H128317   1.817   4.343   2.122
 9458TIP3    H228318   1.842   4.240   2.230
 9459TIP3   OH228319   1.966   2.127   2.398
 9459TIP3    H128320   2.000   2.198   2.344
 9459TIP3    H228321   1.931   2.063   2.335
 9460TIP3   OH228322   3.601   4.040   0.604
 9460TIP3    H128323   3.600   4.131   0.634
 9460TIP3    H228324   3.535   4.037   0.534
 9461TIP3   OH228325   2.321   5.465   1.371
 9461TIP3    H128326   2.351   5.487   1.459
 9461TIP3    H228327   2.401   5.461   1.319
 9462TIP3   OH228328   6.501   1.499   1.933
 9462TIP3    H128329   6.457   1.494   2.018
 9462TIP3    H228330   6.592   1.475   1.951
 9463TIP3   OH228331   6.531   4.350   3.989
 9463TIP3    H128332   6.526   4.295   3.911
 9463TIP3    H228333   6.616   4.327   4.028
 9464TIP3   OH228334   5.739   7.598   1.251
 9464TIP3    H128335   5.815   7.576   1.305
 9464TIP3    H228336   5.718   7.689   1.275
 9465TIP3   OH228337   2.009   1.427   4.164
 9465TIP3    H128338   1.961   1.441   4.246
 9465TIP3    H228339   2.001   1.333   4.147
 9466TIP3   OH228340   6.520   1.211   6.663
 9466TIP3    H128341   6.483   1.296   6.686
 9466TIP3    H228342   6.524   1.163   6.746
 9467TIP3   OH228343   0.321   3.240   4.562
 9467TIP3    H128344   0.375   3.184   4.618
 9467TIP3    H228345   0.304   3.188   4.484
 9468TIP3   OH228346   4.277   2.653   1.902
 9468TIP3    H128347   4.246   2.677   1.814
 9468TIP3    H228348   4.371   2.638   1.890
 9469TIP3   OH228349   4.662   2.486   5.788
 9469TIP3    H128350   4.600   2.427   5.831
 9469TIP3    H228351   4.740   2.432   5.773
 9470TIP3   OH228352   2.055   4.144   5.634
 9470TIP3    H128353   2.104   4.219   5.600
 9470TIP3    H228354   2.024   4.173   5.720
 9471TIP3   OH228355   5.814   3.929   0.161
 9471TIP3    H128356   5.833   3.873   0.086
 9471TIP3    H228357   5.732   3.973   0.137
 9472TIP3   OH228358   4.418   2.619   5.021
 9472TIP3    H128359   4.429   2.660   4.935
 9472TIP3    H228360   4.506   2.588   5.043
 9473TIP3   OH228361   3.513   3.827   4.864
 9473TIP3    H128362   3.542   3.766   4.931
 9473TIP3    H228363   3.461   3.774   4.803
 9474TIP3   OH228364   5.034   6.310   6.382
 9474TIP3    H128365   5.035   6.220   6.416
 9474TIP3    H228366   4.942   6.326   6.362
 9475TIP3   OH228367   7.233   2.894   4.601
 9475TIP3    H128368   7.257   2.813   4.647
 9475TIP3    H228369   7.314   2.923   4.560
 9476TIP3   OH228370   5.773   6.945   6.400
 9476TIP3    H128371   5.759   6.955   6.306
 9476TIP3    H228372   5.861   6.910   6.408
 9477TIP3   OH228373   5.614   2.021   5.996
 9477TIP3    H128374   5.708   2.027   6.010
 9477TIP3    H228375   5.591   1.931   6.018
 9478TIP3   OH228376   2.523   1.618   2.103
 9478TIP3    H128377   2.578   1.549   2.142
 9478TIP3    H228378   2.563   1.635   2.018
 9479TIP3   OH228379   4.315   7.336   2.924
 9479TIP3    H128380   4.246   7.327   2.858
 9479TIP3    H228381   4.273   7.378   2.999
 9480TIP3   OH228382   1.738   4.423   4.266
 9480TIP3    H128383   1.649   4.454   4.274
 9480TIP3    H228384   1.793   4.500   4.279
 9481TIP3   OH228385   4.499   7.549   1.448
 9481TIP3    H128386   4.562   7.610   1.487
 9481TIP3    H228387   4.554   7.478   1.413
 9482TIP3   OH228388   7.332   0.415   3.445
 9482TIP3    H128389   7.311   0.334   3.491
 9482TIP3    H228390   7.428   0.416   3.441
 9483TIP3   OH228391   4.622   3.735   5.201
 9483TIP3    H128392   4.654   3.793   5.270
 9483TIP3    H228393   4.699   3.717   5.147
 9484TIP3   OH228394   6.207   5.393   3.044
 9484TIP3    H128395   6.265   5.456   3.087
 9484TIP3    H228396   6.245   5.381   2.957
 9485TIP3   OH228397   0.934   0.858   5.522
 9485TIP3    H128398   0.877   0.922   5.480
 9485TIP3    H228399   1.019   0.902   5.529
 9486TIP3   OH228400   3.103   5.401   2.608
 9486TIP3    H128401   3.100   5.391   2.703
 9486TIP3    H228402   3.196   5.404   2.587
 9487TIP3   OH228403   2.615   4.700   2.054
 9487TIP3    H128404   2.649   4.753   2.126
 9487TIP3    H228405   2.693   4.670   2.008
 9488TIP3   OH228406   2.574   0.247   0.345
 9488TIP3    H128407   2.513   0.222   0.415
 9488TIP3    H228408   2.659   0.253   0.388
 9489TIP3   OH228409   2.467   7.291   1.485
 9489TIP3    H128410   2.385   7.243   1.497
 9489TIP3    H228411   2.451   7.347   1.409
 9490TIP3   OH228412   6.923   4.579   4.610
 9490TIP3    H128413   6.965   4.505   4.655
 9490TIP3    H228414   6.830   4.560   4.615
 9491TIP3   OH228415   1.146   5.907   6.065
 9491TIP3    H128416   1.067   5.877   6.019
 9491TIP3    H228417   1.116   5.983   6.115
 9492TIP3   OH228418   6.653   5.166   5.813
 9492TIP3    H128419   6.679   5.075   5.800
 9492TIP3    H228420   6.706   5.196   5.886
 9493TIP3   OH228421   3.616   7.025   5.608
 9493TIP3    H128422   3.587   7.022   5.517
 9493TIP3    H228423   3.567   7.098   5.647
 9494TIP3   OH228424   5.416   4.180   0.293
 9494TIP3    H128425   5.362   4.134   0.357
 9494TIP3    H228426   5.505   4.147   0.309
 9495TIP3   OH228427   4.849   6.667   3.502
 9495TIP3    H128428   4.797   6.739   3.539
 9495TIP3    H228429   4.828   6.592   3.556
 9496TIP3   OH228430   3.609   2.891   3.306
 9496TIP3    H128431   3.560   2.970   3.332
 9496TIP3    H228432   3.567   2.820   3.354
 9497TIP3   OH228433   1.195   2.579   5.745
 9497TIP3    H128434   1.256   2.636   5.699
 9497TIP3    H228435   1.135   2.639   5.790
 9498TIP3   OH228436   3.531   1.608   6.744
 9498TIP3    H128437   3.612   1.557   6.736
 9498TIP3    H228438   3.533   1.667   6.669
 9499TIP3   OH228439   6.876   3.230   0.766
 9499TIP3    H128440   6.863   3.144   0.806
 9499TIP3    H228441   6.798   3.244   0.712
 9500TIP3   OH228442   7.723   2.003   5.306
 9500TIP3    H128443   7.675   1.981   5.226
 9500TIP3    H228444   7.680   2.082   5.339
 9501TIP3   OH228445   2.086   7.461   4.639
 9501TIP3    H128446   2.145   7.409   4.583
 9501TIP3    H228447   2.005   7.469   4.588
 9502TIP3   OH228448   7.779   5.546   4.280
 9502TIP3    H128449   7.797   5.586   4.364
 9502TIP3    H228450   7.751   5.456   4.300
 9503TIP3   OH228451   1.691   7.480   5.308
 9503TIP3    H128452   1.641   7.560   5.296
 9503TIP3    H228453   1.777   7.509   5.340
 9504TIP3   OH228454   5.635   1.926   4.576
 9504TIP3    H128455   5.726   1.955   4.571
 9504TIP3    H228456   5.583   2.005   4.559
 9505TIP3   OH228457   7.667   6.612   3.057
 9505TIP3    H128458   7.740   6.578   3.108
 9505TIP3    H228459   7.592   6.559   3.084
 9506TIP3   OH228460   0.059   1.584   1.048
 9506TIP3    H128461   0.128   1.647   1.071
 9506TIP3    H228462   0.008   1.629   0.980
 9507TIP3   OH228463   5.782   3.938   0.731
 9507TIP3    H128464   5.870   3.926   0.695
 9507TIP3    H228465   5.757   3.852   0.764
 9508TIP3   OH228466   3.807   0.948   3.326
 9508TIP3    H128467   3.729   0.897   3.347
 9508TIP3    H228468   3.824   1.000   3.404
 9509TIP3   OH228469   0.641   7.355   1.259
 9509TIP3    H128470   0.698   7.414   1.211
 9509TIP3    H228471   0.699   7.310   1.321
 9510TIP3   OH228472   6.981   1.624   1.108
 9510TIP3    H128473   6.888   1.637   1.124
 9510TIP3    H228474   7.024   1.656   1.187
 9511TIP3   OH228475   3.317   5.122   0.744
 9511TIP3    H128476   3.409   5.104   0.724
 9511TIP3    H228477   3.268   5.060   0.689
 9512TIP3   OH228478   6.174   7.628   6.506
 9512TIP3    H128479   6.093   7.673   6.480
 9512TIP3    H228480   6.217   7.606   6.423
 9513TIP3   OH228481   4.303   3.821   4.112
 9513TIP3    H128482   4.229   3.870   4.147
 9513TIP3    H228483   4.368   3.889   4.092
 9514TIP3   OH228484   4.570   7.212   3.336
 9514TIP3    H128485   4.660   7.207   3.368
 9514TIP3    H228486   4.516   7.218   3.415
 9515TIP3   OH228487   5.239   2.352   6.553
 9515TIP3    H128488   5.143   2.358   6.561
 9515TIP3    H228489   5.272   2.398   6.630
 9516TIP3   OH228490   7.040   3.965   0.413
 9516TIP3    H128491   7.106   3.918   0.464
 9516TIP3    H228492   7.035   4.051   0.455
 9517TIP3   OH228493   6.209   4.807   5.993
 9517TIP3    H128494   6.134   4.850   6.034
 9517TIP3    H228495   6.214   4.721   6.034
 9518TIP3   OH228496   1.116   5.902   5.104
 9518TIP3    H128497   1.081   5.874   5.020
 9518TIP3    H228498   1.039   5.923   5.157
 9519TIP3   OH228499   6.851   7.838   5.351
 9519TIP3    H128500   6.896   7.802   5.275
 9519TIP3    H228501   6.796   7.766   5.383
 9520TIP3   OH228502   3.698   4.737   5.051
 9520TIP3    H128503   3.778   4.767   5.007
 9520TIP3    H228504   3.694   4.791   5.131
 9521TIP3   OH228505   5.197   7.629   5.547
 9521TIP3    H128506   5.205   7.561   5.614
 9521TIP3    H228507   5.167   7.582   5.469
 9522TIP3   OH228508   7.522   1.694   6.127
 9522TIP3    H128509   7.546   1.743   6.206
 9522TIP3    H228510   7.427   1.688   6.130
 9523TIP3   OH228511   7.748   0.223   5.929
 9523TIP3    H128512   7.734   0.313   5.959
 9523TIP3    H228513   7.797   0.233   5.847
 9524TIP3   OH228514   3.194   3.833   6.085
 9524TIP3    H128515   3.218   3.740   6.084
 9524TIP3    H228516   3.224   3.866   6.000
 9525TIP3   OH228517   1.994   7.332   5.210
 9525TIP3    H128518   1.988   7.409   5.152
 9525TIP3    H228519   2.082   7.297   5.192
 9526TIP3   OH228520   8.043   4.696   4.096
 9526TIP3    H128521   7.977   4.692   4.165
 9526TIP3    H228522   8.060   4.604   4.074
 9527TIP3   OH228523   6.969   1.506   2.991
 9527TIP3    H128524   6.925   1.543   2.914
 9527TIP3    H228525   6.914   1.533   3.064
 9528TIP3   OH228526   5.319   3.768   0.060
 9528TIP3    H128527   5.386   3.717   0.105
 9528TIP3    H228528   5.273   3.814   0.130
 9529TIP3   OH228529   4.592   4.129   0.559
 9529TIP3    H128530   4.597   4.065   0.630
 9529TIP3    H228531   4.656   4.196   0.583
 9530TIP3   OH228532   1.862   6.528   3.616
 9530TIP3    H128533   1.892   6.447   3.657
 9530TIP3    H228534   1.898   6.598   3.670
 9531TIP3   OH228535   1.433   0.672   3.011
 9531TIP3    H128536   1.419   0.604   3.077
 9531TIP3    H228537   1.359   0.663   2.951
 9532TIP3   OH228538   5.452   5.245   0.632
 9532TIP3    H128539   5.387   5.316   0.629
 9532TIP3    H228540   5.463   5.228   0.725
 9533TIP3   OH228541   6.270   1.111   1.848
 9533TIP3    H128542   6.326   1.170   1.797
 9533TIP3    H228543   6.331   1.056   1.896
 9534TIP3   OH228544   2.933   6.665   3.870
 9534TIP3    H128545   2.912   6.743   3.818
 9534TIP3    H228546   2.848   6.623   3.885
 9535TIP3   OH228547   4.908   6.223   2.506
 9535TIP3    H128548   4.840   6.157   2.514
 9535TIP3    H228549   4.865   6.297   2.462
 9536TIP3   OH228550   7.975   7.676   1.350
 9536TIP3    H128551   7.958   7.582   1.357
 9536TIP3    H228552   8.025   7.685   1.269
 9537TIP3   OH228553   2.888   2.019   3.883
 9537TIP3    H128554   2.852   2.104   3.906
 9537TIP3    H228555   2.971   2.039   3.839
 9538TIP3   OH228556   0.511   3.362   5.217
 9538TIP3    H128557   0.538   3.355   5.125
 9538TIP3    H228558   0.552   3.443   5.248
 9539TIP3   OH228559   1.737   1.489   1.050
 9539TIP3    H128560   1.651   1.475   1.089
 9539TIP3    H228561   1.796   1.496   1.125
 9540TIP3   OH228562   8.229   5.723   0.699
 9540TIP3    H128563   8.217   5.639   0.655
 9540TIP3    H228564   8.156   5.729   0.760
 9541TIP3   OH228565   5.813   1.443   1.980
 9541TIP3    H128566   5.754   1.408   2.047
 9541TIP3    H228567   5.785   1.401   1.899
 9542TIP3   OH228568   6.759   5.589   5.724
 9542TIP3    H128569   6.805   5.662   5.682
 9542TIP3    H228570   6.669   5.621   5.734
 9543TIP3   OH228571   0.132   0.081   0.815
 9543TIP3    H128572   0.170  -0.006   0.822
 9543TIP3    H228573   0.124   0.111   0.906
 9544TIP3   OH228574   6.831   4.929   0.630
 9544TIP3    H128575   6.758   4.964   0.682
 9544TIP3    H228576   6.851   4.999   0.567
 9545TIP3   OH228577   6.071   3.908   3.317
 9545TIP3    H128578   6.161   3.913   3.350
 9545TIP3    H228579   6.062   3.985   3.261
 9546TIP3   OH228580   2.205   4.993   0.084
 9546TIP3    H128581   2.205   5.088   0.069
 9546TIP3    H228582   2.175   4.984   0.175
 9547TIP3   OH228583   7.957   5.810   6.482
 9547TIP3    H128584   7.868   5.843   6.485
 9547TIP3    H228585   7.968   5.760   6.562
 9548TIP3   OH228586   0.916   3.748   3.075
 9548TIP3    H128587   0.834   3.798   3.080
 9548TIP3    H228588   0.924   3.707   3.161
 9549TIP3   OH228589   3.507   2.108   5.421
 9549TIP3    H128590   3.594   2.070   5.439
 9549TIP3    H228591   3.480   2.146   5.504
 9550TIP3   OH228592   5.580   1.063   6.140
 9550TIP3    H128593   5.535   1.001   6.082
 9550TIP3    H228594   5.631   1.118   6.082
 9551TIP3   OH228595   4.915   7.434   6.716
 9551TIP3    H128596   4.969   7.355   6.723
 9551TIP3    H228597   4.886   7.451   6.806
 9552TIP3   OH228598   6.893   7.303   2.576
 9552TIP3    H128599   6.915   7.395   2.591
 9552TIP3    H228600   6.851   7.273   2.656
 9553TIP3   OH228601   1.732   0.608   0.653
 9553TIP3    H128602   1.653   0.616   0.600
 9553TIP3    H228603   1.772   0.526   0.624
 9554TIP3   OH228604   2.241   7.260   5.116
 9554TIP3    H128605   2.296   7.182   5.122
 9554TIP3    H228606   2.302   7.333   5.122
 9555TIP3   OH228607   3.926   5.138   0.158
 9555TIP3    H128608   3.866   5.116   0.229
 9555TIP3    H228609   3.880   5.205   0.107
 9556TIP3   OH228610   1.092   6.917   3.705
 9556TIP3    H128611   1.015   6.898   3.652
 9556TIP3    H228612   1.098   7.013   3.705
 9557TIP3   OH228613   0.893   6.016   3.262
 9557TIP3    H128614   0.886   6.109   3.241
 9557TIP3    H228615   0.983   5.993   3.239
 9558TIP3   OH228616   5.650   1.285   2.128
 9558TIP3    H128617   5.610   1.210   2.172
 9558TIP3    H228618   5.611   1.361   2.171
 9559TIP3   OH228619   2.981   0.864   4.434
 9559TIP3    H128620   3.024   0.924   4.373
 9559TIP3    H228621   3.033   0.871   4.514
 9560TIP3   OH228622   1.113   7.108   2.576
 9560TIP3    H128623   1.034   7.086   2.526
 9560TIP3    H228624   1.121   7.036   2.639
 9561TIP3   OH228625   7.457   2.619   0.982
 9561TIP3    H128626   7.362   2.611   0.981
 9561TIP3    H228627   7.489   2.529   0.990
 9562TIP3   OH228628   4.414   6.375   1.444
 9562TIP3    H128629   4.367   6.455   1.468
 9562TIP3    H228630   4.401   6.316   1.518
 9563TIP3   OH228631   3.588   3.455   4.629
 9563TIP3    H128632   3.662   3.498   4.671
 9563TIP3    H228633   3.547   3.404   4.698
 9564TIP3   OH228634   5.071   5.119   2.301
 9564TIP3    H128635   5.002   5.160   2.250
 9564TIP3    H228636   5.031   5.040   2.338
 9565TIP3   OH228637   7.986   1.463   3.959
 9565TIP3    H128638   7.927   1.522   3.912
 9565TIP3    H228639   7.996   1.388   3.901
 9566TIP3   OH228640   2.011   6.359   4.704
 9566TIP3    H128641   1.933   6.404   4.738
 9566TIP3    H228642   2.046   6.312   4.780
 9567TIP3   OH228643   3.430   7.320   4.457
 9567TIP3    H128644   3.398   7.277   4.536
 9567TIP3    H228645   3.460   7.249   4.401
 9568TIP3   OH228646   4.038   5.065   1.691
 9568TIP3    H128647   4.006   5.155   1.689
 9568TIP3    H228648   4.001   5.029   1.772
 9569TIP3   OH228649   0.208   4.788   0.410
 9569TIP3    H128650   0.259   4.839   0.347
 9569TIP3    H228651   0.271   4.727   0.449
 9570TIP3   OH228652   0.409   7.023   4.017
 9570TIP3    H128653   0.469   6.949   4.028
 9570TIP3    H228654   0.335   7.001   4.074
 9571TIP3   OH228655   2.660   7.541   5.326
 9571TIP3    H128656   2.673   7.576   5.238
 9571TIP3    H228657   2.711   7.599   5.383
 9572TIP3   OH228658   4.648   0.639   0.559
 9572TIP3    H128659   4.611   0.559   0.597
 9572TIP3    H228660   4.590   0.709   0.589
 9573TIP3   OH228661   4.490   6.604   2.045
 9573TIP3    H128662   4.449   6.549   1.978
 9573TIP3    H228663   4.433   6.681   2.051
 9574TIP3   OH228664   1.294   5.277   4.763
 9574TIP3    H128665   1.277   5.309   4.675
 9574TIP3    H228666   1.386   5.298   4.779
 9575TIP3   OH228667   2.561   1.175   6.599
 9575TIP3    H128668   2.508   1.224   6.663
 9575TIP3    H228669   2.559   1.085   6.631
 9576TIP3   OH228670   4.660   0.567   4.028
 9576TIP3    H128671   4.705   0.649   4.010
 9576TIP3    H228672   4.573   0.594   4.058
 9577TIP3   OH228673   4.719   0.378   1.403
 9577TIP3    H128674   4.634   0.400   1.366
 9577TIP3    H228675   4.702   0.364   1.496
 9578TIP3   OH228676   6.536   3.145   2.831
 9578TIP3    H128677   6.586   3.183   2.759
 9578TIP3    H228678   6.599   3.093   2.879
 9579TIP3   OH228679   2.423   0.761   4.202
 9579TIP3    H128680   2.469   0.844   4.220
 9579TIP3    H228681   2.436   0.747   4.108
 9580TIP3   OH228682   4.446   5.818   0.516
 9580TIP3    H128683   4.479   5.872   0.588
 9580TIP3    H228684   4.359   5.790   0.544
 9581TIP3   OH228685   7.426   6.426   1.599
 9581TIP3    H128686   7.411   6.519   1.616
 9581TIP3    H228687   7.359   6.381   1.651
 9582TIP3   OH228688   4.655   3.243   6.140
 9582TIP3    H128689   4.565   3.224   6.113
 9582TIP3    H228690   4.677   3.175   6.203
 9583TIP3   OH228691   3.264   4.977   5.270
 9583TIP3    H128692   3.355   4.972   5.242
 9583TIP3    H228693   3.214   4.953   5.192
 9584TIP3   OH228694   0.027   5.346   3.032
 9584TIP3    H128695  -0.010   5.359   3.119
 9584TIP3    H228696   0.118   5.321   3.047
 9585TIP3   OH228697   7.171   0.902   3.705
 9585TIP3    H128698   7.198   0.966   3.639
 9585TIP3    H228699   7.145   0.955   3.780
 9586TIP3   OH228700   2.837   3.935   4.855
 9586TIP3    H128701   2.811   3.954   4.945
 9586TIP3    H228702   2.883   4.014   4.826
 9587TIP3   OH228703   5.833   0.287   0.347
 9587TIP3    H128704   5.875   0.355   0.296
 9587TIP3    H228705   5.745   0.280   0.311
 9588TIP3   OH228706   7.332   3.627   3.983
 9588TIP3    H128707   7.339   3.589   4.070
 9588TIP3    H228708   7.238   3.625   3.964
 9589TIP3   OH228709   1.842   2.162   0.879
 9589TIP3    H128710   1.802   2.230   0.824
 9589TIP3    H228711   1.786   2.085   0.864
 9590TIP3   OH228712   6.517   2.043   2.557
 9590TIP3    H128713   6.547   2.125   2.518
 9590TIP3    H228714   6.499   1.986   2.482
 9591TIP3   OH228715   7.566   4.025   0.506
 9591TIP3    H128716   7.548   3.966   0.433
 9591TIP3    H228717   7.526   4.109   0.480
 9592TIP3   OH228718   6.456   2.695   0.440
 9592TIP3    H128719   6.520   2.680   0.370
 9592TIP3    H228720   6.472   2.623   0.501
 9593TIP3   OH228721   2.690   0.940   3.513
 9593TIP3    H128722   2.607   0.911   3.551
 9593TIP3    H228723   2.747   0.955   3.589
 9594TIP3   OH228724   1.843   1.623   3.953
 9594TIP3    H128725   1.778   1.567   3.996
 9594TIP3    H228726   1.877   1.678   4.023
 9595TIP3   OH228727   7.232   1.239   1.694
 9595TIP3    H128728   7.163   1.281   1.642
 9595TIP3    H228729   7.187   1.169   1.741
 9596TIP3   OH228730   0.521   4.466   1.323
 9596TIP3    H128731   0.510   4.482   1.417
 9596TIP3    H228732   0.523   4.371   1.315
 9597TIP3   OH228733   6.279   3.026   0.083
 9597TIP3    H128734   6.328   2.969   0.023
 9597TIP3    H228735   6.345   3.059   0.144
 9598TIP3   OH228736   6.894   0.431   5.348
 9598TIP3    H128737   6.899   0.435   5.253
 9598TIP3    H228738   6.861   0.343   5.367
 9599TIP3   OH228739   1.709   6.753   3.292
 9599TIP3    H128740   1.761   6.781   3.217
 9599TIP3    H228741   1.690   6.834   3.339
 9600TIP3   OH228742   6.955   6.781   0.644
 9600TIP3    H128743   7.036   6.799   0.597
 9600TIP3    H228744   6.974   6.804   0.735
 9601TIP3   OH228745   6.486   4.700   1.101
 9601TIP3    H128746   6.482   4.782   1.052
 9601TIP3    H228747   6.514   4.635   1.036
 9602TIP3   OH228748   5.695   1.616   0.400
 9602TIP3    H128749   5.721   1.532   0.363
 9602TIP3    H228750   5.735   1.617   0.487
 9603TIP3   OH228751   4.886   0.296   0.398
 9603TIP3    H128752   4.807   0.331   0.357
 9603TIP3    H228753   4.904   0.356   0.471
 9604TIP3   OH228754   5.720   6.165   5.040
 9604TIP3    H128755   5.652   6.181   4.975
 9604TIP3    H228756   5.754   6.253   5.061
 9605TIP3   OH228757   1.807   2.603   2.834
 9605TIP3    H128758   1.722   2.561   2.848
 9605TIP3    H228759   1.867   2.558   2.894
 9606TIP3   OH228760   0.060   3.166   4.710
 9606TIP3    H128761   0.066   3.087   4.765
 9606TIP3    H228762   0.138   3.217   4.732
 9607TIP3   OH228763   6.774   3.713   5.949
 9607TIP3    H128764   6.702   3.650   5.940
 9607TIP3    H228765   6.851   3.658   5.962
 9608TIP3   OH228766   7.286   5.011   1.711
 9608TIP3    H128767   7.202   5.054   1.727
 9608TIP3    H228768   7.268   4.949   1.640
 9609TIP3   OH228769   7.687   5.148   5.675
 9609TIP3    H128770   7.744   5.221   5.700
 9609TIP3    H228771   7.719   5.122   5.589
 9610TIP3   OH228772   1.705   5.573   3.226
 9610TIP3    H128773   1.634   5.586   3.164
 9610TIP3    H228774   1.661   5.543   3.306
 9611TIP3   OH228775   2.382   5.076   3.015
 9611TIP3    H128776   2.454   5.116   3.064
 9611TIP3    H228777   2.425   5.010   2.961
 9612TIP3   OH228778   2.108   0.857   0.317
 9612TIP3    H128779   2.066   0.792   0.261
 9612TIP3    H228780   2.196   0.822   0.332
 9613TIP3   OH228781   4.105   5.003   5.638
 9613TIP3    H128782   4.149   4.934   5.688
 9613TIP3    H228783   4.155   5.082   5.656
 9614TIP3   OH228784   1.773   5.187   5.546
 9614TIP3    H128785   1.764   5.139   5.463
 9614TIP3    H228786   1.740   5.126   5.612
 9615TIP3   OH228787   1.894   5.488   0.865
 9615TIP3    H128788   1.963   5.452   0.809
 9615TIP3    H228789   1.928   5.479   0.954
 9616TIP3   OH228790   4.176   2.412   3.851
 9616TIP3    H128791   4.136   2.473   3.790
 9616TIP3    H228792   4.158   2.449   3.938
 9617TIP3   OH228793   7.198   3.235   4.094
 9617TIP3    H128794   7.202   3.150   4.138
 9617TIP3    H228795   7.120   3.277   4.130
 9618TIP3   OH228796   7.219   6.799   0.582
 9618TIP3    H128797   7.271   6.824   0.658
 9618TIP3    H228798   7.266   6.725   0.543
 9619TIP3   OH228799   4.884   2.844   3.250
 9619TIP3    H128800   4.822   2.886   3.190
 9619TIP3    H228801   4.887   2.753   3.221
 9620TIP3   OH228802   6.808   4.049   0.269
 9620TIP3    H128803   6.853   4.131   0.248
 9620TIP3    H228804   6.878   3.985   0.282
 9621TIP3   OH228805   3.167   0.990   0.936
 9621TIP3    H128806   3.183   0.909   0.985
 9621TIP3    H228807   3.219   0.980   0.856
 9622TIP3   OH228808   1.597   5.289   3.990
 9622TIP3    H128809   1.531   5.241   3.940
 9622TIP3    H228810   1.669   5.302   3.929
 9623TIP3   OH228811   4.883   1.520   1.071
 9623TIP3    H128812   4.842   1.606   1.060
 9623TIP3    H228813   4.816   1.467   1.113
 9624TIP3   OH228814   2.952   0.739   3.248
 9624TIP3    H128815   2.941   0.824   3.207
 9624TIP3    H228816   2.874   0.729   3.304
 9625TIP3   OH228817   3.591   4.161   5.635
 9625TIP3    H128818   3.649   4.085   5.631
 9625TIP3    H228819   3.623   4.220   5.566
 9626TIP3   OH228820   7.241   3.324   4.722
 9626TIP3    H128821   7.282   3.253   4.772
 9626TIP3    H228822   7.255   3.402   4.776
 9627TIP3   OH228823   2.398   6.879   2.958
 9627TIP3    H128824   2.344   6.881   3.037
 9627TIP3    H228825   2.453   6.957   2.965
 9628TIP3   OH228826   1.589   3.424   4.583
 9628TIP3    H128827   1.606   3.404   4.491
 9628TIP3    H228828   1.535   3.503   4.580
 9629TIP3   OH228829   1.517   1.485   2.576
 9629TIP3    H128830   1.466   1.408   2.552
 9629TIP3    H228831   1.510   1.543   2.500
 9630TIP3   OH228832   7.228   5.354   2.676
 9630TIP3    H128833   7.159   5.387   2.733
 9630TIP3    H228834   7.208   5.261   2.666
 9631TIP3   OH228835   5.791   6.192   2.841
 9631TIP3    H128836   5.880   6.214   2.814
 9631TIP3    H228837   5.779   6.102   2.813
 9632TIP3   OH228838   1.632   2.202   4.592
 9632TIP3    H128839   1.578   2.261   4.539
 9632TIP3    H228840   1.721   2.218   4.561
 9633TIP3   OH228841   3.447   0.348   0.156
 9633TIP3    H128842   3.427   0.347   0.250
 9633TIP3    H228843   3.522   0.289   0.147
 9634TIP3   OH228844   3.034   2.374   3.409
 9634TIP3    H128845   2.996   2.288   3.392
 9634TIP3    H228846   3.053   2.410   3.322
 9635TIP3   OH228847   5.842   6.915   1.563
 9635TIP3    H128848   5.823   6.821   1.570
 9635TIP3    H228849   5.935   6.922   1.582
 9636TIP3   OH228850   7.236   4.406   2.151
 9636TIP3    H128851   7.153   4.359   2.156
 9636TIP3    H228852   7.277   4.393   2.236
 9637TIP3   OH228853   7.213   7.631   0.209
 9637TIP3    H128854   7.217   7.691   0.284
 9637TIP3    H228855   7.275   7.561   0.232
 9638TIP3   OH228856   2.610   0.116   4.362
 9638TIP3    H128857   2.633   0.043   4.419
 9638TIP3    H228858   2.632   0.194   4.412
 9639TIP3   OH228859   0.283   0.550   3.905
 9639TIP3    H128860   0.363   0.497   3.906
 9639TIP3    H228861   0.254   0.547   3.814
 9640TIP3   OH228862   2.713   4.339   5.566
 9640TIP3    H128863   2.682   4.254   5.596
 9640TIP3    H228864   2.640   4.375   5.516
 9641TIP3   OH228865   4.576   6.241   5.677
 9641TIP3    H128866   4.497   6.189   5.694
 9641TIP3    H228867   4.592   6.230   5.583
 9642TIP3   OH228868   0.683   0.139   3.002
 9642TIP3    H128869   0.725   0.223   2.988
 9642TIP3    H228870   0.603   0.159   3.051
 9643TIP3   OH228871   3.303   7.261   1.765
 9643TIP3    H128872   3.321   7.212   1.685
 9643TIP3    H228873   3.371   7.328   1.768
 9644TIP3   OH228874   6.583   3.574   5.603
 9644TIP3    H128875   6.570   3.663   5.633
 9644TIP3    H228876   6.591   3.522   5.683
 9645TIP3   OH228877   0.861   2.920   4.388
 9645TIP3    H128878   0.902   2.926   4.301
 9645TIP3    H228879   0.920   2.864   4.438
 9646TIP3   OH228880   6.452   4.762   2.360
 9646TIP3    H128881   6.381   4.751   2.424
 9646TIP3    H228882   6.412   4.740   2.276
 9647TIP3   OH228883   3.377   4.065   3.637
 9647TIP3    H128884   3.297   4.069   3.585
 9647TIP3    H228885   3.358   4.001   3.706
 9648TIP3   OH228886   3.709   7.026   0.145
 9648TIP3    H128887   3.729   7.086   0.073
 9648TIP3    H228888   3.751   7.067   0.221
 9649TIP3   OH228889   8.160   7.264   4.668
 9649TIP3    H128890   8.142   7.255   4.574
 9649TIP3    H228891   8.124   7.185   4.707
 9650TIP3   OH228892   1.341   2.304   4.999
 9650TIP3    H128893   1.321   2.251   4.922
 9650TIP3    H228894   1.263   2.295   5.055
 9651TIP3   OH228895   5.964   5.917   1.496
 9651TIP3    H128896   5.905   5.967   1.440
 9651TIP3    H228897   5.962   5.962   1.581
 9652TIP3   OH228898   4.754   0.152   0.849
 9652TIP3    H128899   4.669   0.111   0.863
 9652TIP3    H228900   4.789   0.164   0.938
 9653TIP3   OH228901   4.544   1.093   3.693
 9653TIP3    H128902   4.608   1.164   3.687
 9653TIP3    H228903   4.549   1.064   3.784
 9654TIP3   OH228904   4.458   2.954   3.283
 9654TIP3    H128905   4.419   2.892   3.345
 9654TIP3    H228906   4.422   3.039   3.309
 9655TIP3   OH228907   2.267   0.353   1.198
 9655TIP3    H128908   2.172   0.343   1.188
 9655TIP3    H228909   2.280   0.447   1.208
 9656TIP3   OH228910   2.488   0.724   6.054
 9656TIP3    H128911   2.511   0.756   5.966
 9656TIP3    H228912   2.409   0.774   6.077
 9657TIP3   OH228913   6.312   6.802   6.001
 9657TIP3    H128914   6.285   6.787   6.091
 9657TIP3    H228915   6.279   6.889   5.979
 9658TIP3   OH228916   1.347   0.892   0.827
 9658TIP3    H128917   1.439   0.867   0.818
 9658TIP3    H228918   1.343   0.939   0.911
 9659TIP3   OH228919   4.071   0.364   4.946
 9659TIP3    H128920   4.001   0.391   4.887
 9659TIP3    H228921   4.029   0.357   5.032
 9660TIP3   OH228922   5.518   3.185   1.577
 9660TIP3    H128923   5.431   3.217   1.552
 9660TIP3    H228924   5.577   3.257   1.556
 9661TIP3   OH228925   3.042   5.321   6.681
 9661TIP3    H128926   3.094   5.384   6.730
 9661TIP3    H228927   2.955   5.325   6.720
 9662TIP3   OH228928   1.435   5.205   5.264
 9662TIP3    H128929   1.392   5.126   5.296
 9662TIP3    H228930   1.432   5.196   5.169
 9663TIP3   OH228931   3.285   6.069   4.243
 9663TIP3    H128932   3.333   6.071   4.326
 9663TIP3    H228933   3.243   6.155   4.238
 9664TIP3   OH228934   1.430   2.025   6.339
 9664TIP3    H128935   1.487   2.004   6.414
 9664TIP3    H228936   1.399   2.114   6.358
 9665TIP3   OH228937   7.955   2.668   3.460
 9665TIP3    H128938   7.952   2.754   3.502
 9665TIP3    H228939   8.012   2.680   3.385
 9666TIP3   OH228940   5.331   3.505   4.407
 9666TIP3    H128941   5.303   3.595   4.423
 9666TIP3    H228942   5.260   3.465   4.356
 9667TIP3   OH228943   7.418   1.003   2.012
 9667TIP3    H128944   7.465   1.036   1.936
 9667TIP3    H228945   7.373   1.080   2.047
 9668TIP3   OH228946   6.539   1.842   1.493
 9668TIP3    H128947   6.621   1.803   1.522
 9668TIP3    H228948   6.523   1.805   1.407
 9669TIP3   OH228949   0.818   3.689   1.527
 9669TIP3    H128950   0.756   3.740   1.476
 9669TIP3    H228951   0.856   3.628   1.463
 9670TIP3   OH228952   3.005   2.224   2.681
 9670TIP3    H128953   3.089   2.235   2.725
 9670TIP3    H228954   3.016   2.145   2.628
 9671TIP3   OH228955   6.233   1.640   4.998
 9671TIP3    H128956   6.234   1.735   5.004
 9671TIP3    H228957   6.235   1.609   5.088
 9672TIP3   OH228958   5.962   7.779   6.023
 9672TIP3    H128959   5.909   7.729   5.961
 9672TIP3    H228960   5.978   7.863   5.981
 9673TIP3   OH228961   2.767   1.414   5.850
 9673TIP3    H128962   2.772   1.439   5.758
 9673TIP3    H228963   2.839   1.351   5.862
 9674TIP3   OH228964   2.091   6.207   4.479
 9674TIP3    H128965   2.169   6.170   4.521
 9674TIP3    H228966   2.044   6.249   4.551
 9675TIP3   OH228967   1.525   0.573   5.522
 9675TIP3    H128968   1.600   0.600   5.469
 9675TIP3    H228969   1.518   0.640   5.589
 9676TIP3   OH228970   6.710   4.914   4.916
 9676TIP3    H128971   6.792   4.865   4.925
 9676TIP3    H228972   6.689   4.909   4.823
 9677TIP3   OH228973   7.874   7.640   3.756
 9677TIP3    H128974   7.886   7.619   3.848
 9677TIP3    H228975   7.783   7.669   3.749
 9678TIP3   OH228976   5.837   0.069   6.350
 9678TIP3    H128977   5.787   0.011   6.408
 9678TIP3    H228978   5.835   0.024   6.265
 9679TIP3   OH228979   5.446   6.014   2.587
 9679TIP3    H128980   5.489   6.095   2.561
 9679TIP3    H228981   5.392   5.991   2.512
 9680TIP3   OH228982   7.244   0.813   1.901
 9680TIP3    H128983   7.316   0.782   1.845
 9680TIP3    H228984   7.261   0.906   1.914
 9681TIP3   OH228985   5.439   6.829   5.979
 9681TIP3    H128986   5.487   6.848   5.898
 9681TIP3    H228987   5.475   6.890   6.043
 9682TIP3   OH228988   3.129   5.439   3.224
 9682TIP3    H128989   3.117   5.481   3.139
 9682TIP3    H228990   3.111   5.508   3.288
 9683TIP3   OH228991   6.645   4.593   0.887
 9683TIP3    H128992   6.586   4.542   0.832
 9683TIP3    H228993   6.732   4.579   0.849
 9684TIP3   OH228994   2.590   0.492   0.579
 9684TIP3    H128995   2.509   0.463   0.537
 9684TIP3    H228996   2.574   0.584   0.600
 9685TIP3   OH228997   4.264   2.084   6.134
 9685TIP3    H128998   4.215   2.002   6.125
 9685TIP3    H228999   4.348   2.057   6.171
 9686TIP3   OH229000   5.907   6.543   0.395
 9686TIP3    H129001   5.827   6.573   0.436
 9686TIP3    H229002   5.977   6.590   0.440
 9687TIP3   OH229003   1.249   5.003   2.493
 9687TIP3    H129004   1.315   5.034   2.430
 9687TIP3    H229005   1.170   4.991   2.441
 9688TIP3   OH229006   5.244   6.169   2.781
 9688TIP3    H129007   5.226   6.159   2.875
 9688TIP3    H229008   5.323   6.116   2.767
 9689TIP3   OH229009   2.623   7.075   0.984
 9689TIP3    H129010   2.623   7.114   1.072
 9689TIP3    H229011   2.539   7.099   0.947
 9690TIP3   OH229012   6.733   5.838   4.305
 9690TIP3    H129013   6.769   5.921   4.272
 9690TIP3    H229014   6.649   5.864   4.344
 9691TIP3   OH229015   8.143   2.699   6.659
 9691TIP3    H129016   8.146   2.776   6.602
 9691TIP3    H229017   8.184   2.729   6.741
 9692TIP3   OH229018   7.863   4.698   6.740
 9692TIP3    H129019   7.780   4.732   6.772
 9692TIP3    H229020   7.845   4.672   6.649
 9693TIP3   OH229021   2.194   5.291   5.637
 9693TIP3    H129022   2.264   5.273   5.699
 9693TIP3    H229023   2.114   5.287   5.689
 9694TIP3   OH229024   1.365   2.566   1.719
 9694TIP3    H129025   1.415   2.485   1.709
 9694TIP3    H229026   1.364   2.582   1.813
 9695TIP3   OH229027   4.509   2.416   1.346
 9695TIP3    H129028   4.427   2.461   1.327
 9695TIP3    H229029   4.530   2.369   1.265
 9696TIP3   OH229030   0.970   2.480   1.090
 9696TIP3    H129031   1.058   2.464   1.055
 9696TIP3    H229032   0.966   2.574   1.104
 9697TIP3   OH229033   3.006   3.847   3.621
 9697TIP3    H129034   2.933   3.887   3.572
 9697TIP3    H229035   3.002   3.754   3.597
 9698TIP3   OH229036   0.844   7.432   4.665
 9698TIP3    H129037   0.901   7.387   4.727
 9698TIP3    H229038   0.877   7.404   4.579
 9699TIP3   OH229039   7.649   1.078   6.258
 9699TIP3    H129040   7.701   1.114   6.187
 9699TIP3    H229041   7.673   0.986   6.262
 9700TIP3   OH229042   7.897   7.472   6.098
 9700TIP3    H129043   7.929   7.460   6.009
 9700TIP3    H229044   7.860   7.387   6.123
 9701TIP3   OH229045   2.698   4.438   0.500
 9701TIP3    H129046   2.610   4.408   0.478
 9701TIP3    H229047   2.710   4.518   0.449
 9702TIP3   OH229048   5.448   4.535   5.308
 9702TIP3    H129049   5.428   4.452   5.264
 9702TIP3    H229050   5.537   4.556   5.279
 9703TIP3   OH229051   8.198   2.558   5.119
 9703TIP3    H129052   8.284   2.590   5.094
 9703TIP3    H229053   8.136   2.620   5.080
 9704TIP3   OH229054   7.910   2.812   1.975
 9704TIP3    H129055   7.861   2.804   2.057
 9704TIP3    H229056   7.996   2.776   1.995
 9705TIP3   OH229057   2.134   2.665   0.531
 9705TIP3    H129058   2.223   2.658   0.565
 9705TIP3    H229059   2.124   2.758   0.510
 9706TIP3   OH229060   6.019   4.254   0.178
 9706TIP3    H129061   6.089   4.318   0.166
 9706TIP3    H229062   5.939   4.302   0.158
 9707TIP3   OH229063   1.517   0.969   6.320
 9707TIP3    H129064   1.517   1.060   6.291
 9707TIP3    H229065   1.478   0.971   6.407
 9708TIP3   OH229066   0.366   3.680   5.800
 9708TIP3    H129067   0.342   3.702   5.890
 9708TIP3    H229068   0.294   3.715   5.747
 9709TIP3   OH229069   5.214   6.460   3.439
 9709TIP3    H129070   5.178   6.543   3.406
 9709TIP3    H229071   5.151   6.432   3.506
 9710TIP3   OH229072   5.090   7.342   4.794
 9710TIP3    H129073   5.125   7.423   4.832
 9710TIP3    H229074   5.063   7.291   4.870
 9711TIP3   OH229075   4.675   1.930   3.457
 9711TIP3    H129076   4.603   1.964   3.510
 9711TIP3    H229077   4.730   2.006   3.440
 9712TIP3   OH229078   3.545   2.626   2.309
 9712TIP3    H129079   3.536   2.652   2.218
 9712TIP3    H229080   3.556   2.531   2.307
 9713TIP3   OH229081   5.092   5.882   6.413
 9713TIP3    H129082   5.157   5.949   6.428
 9713TIP3    H229083   5.008   5.929   6.410
 9714TIP3   OH229084   3.065   3.204   4.118
 9714TIP3    H129085   3.116   3.265   4.172
 9714TIP3    H229086   3.109   3.206   4.032
 9715TIP3   OH229087   3.019   4.637   0.680
 9715TIP3    H129088   3.074   4.698   0.729
 9715TIP3    H229089   3.019   4.670   0.590
 9716TIP3   OH229090   6.046   1.919   6.675
 9716TIP3    H129091   6.106   1.935   6.603
 9716TIP3    H229092   6.049   1.999   6.728
 9717TIP3   OH229093   2.234   1.239   0.660
 9717TIP3    H129094   2.254   1.238   0.566
 9717TIP3    H229095   2.144   1.206   0.666
 9718TIP3   OH229096   3.682   0.133   5.308
 9718TIP3    H129097   3.709   0.203   5.366
 9718TIP3    H229098   3.759   0.114   5.254
 9719TIP3   OH229099   3.965   6.906   4.442
 9719TIP3    H129100   3.954   6.895   4.536
 9719TIP3    H229101   4.060   6.900   4.428
 9720TIP3   OH229102   2.193   0.138   1.000
 9720TIP3    H129103   2.218   0.186   1.078
 9720TIP3    H229104   2.222   0.194   0.927
 9721TIP3   OH229105   2.705   1.832   6.450
 9721TIP3    H129106   2.736   1.805   6.537
 9721TIP3    H229107   2.783   1.868   6.408
 9722TIP3   OH229108   4.106   3.019   2.914
 9722TIP3    H129109   4.042   2.991   2.848
 9722TIP3    H229110   4.165   3.078   2.867
 9723TIP3   OH229111   6.085   4.937   2.714
 9723TIP3    H129112   6.070   4.972   2.801
 9723TIP3    H229113   6.006   4.958   2.665
 9724TIP3   OH229114   7.811   0.062   0.341
 9724TIP3    H129115   7.864   0.039   0.264
 9724TIP3    H229116   7.862   0.130   0.385
 9725TIP3   OH229117   4.442   7.110   4.903
 9725TIP3    H129118   4.452   7.181   4.841
 9725TIP3    H229119   4.526   7.065   4.903
 9726TIP3   OH229120   4.201   2.331   1.269
 9726TIP3    H129121   4.169   2.375   1.348
 9726TIP3    H229122   4.195   2.399   1.201
 9727TIP3   OH229123   2.092   5.852   5.739
 9727TIP3    H129124   2.056   5.775   5.694
 9727TIP3    H229125   2.148   5.894   5.674
 9728TIP3   OH229126   0.618   3.146   2.703
 9728TIP3    H129127   0.619   3.055   2.671
 9728TIP3    H229128   0.525   3.168   2.708
 9729TIP3   OH229129   4.537   4.881   0.752
 9729TIP3    H129130   4.610   4.822   0.769
 9729TIP3    H229131   4.579   4.960   0.716
 9730TIP3   OH229132   4.799   0.553   6.062
 9730TIP3    H129133   4.759   0.467   6.050
 9730TIP3    H229134   4.732   0.615   6.035
 9731TIP3   OH229135   1.020   3.610   1.809
 9731TIP3    H129136   0.959   3.643   1.875
 9731TIP3    H229137   1.008   3.668   1.733
 9732TIP3   OH229138   0.901   4.562   1.975
 9732TIP3    H129139   0.996   4.562   1.975
 9732TIP3    H229140   0.876   4.618   1.901
 9733TIP3   OH229141   3.450   2.742   6.143
 9733TIP3    H129142   3.461   2.764   6.235
 9733TIP3    H229143   3.526   2.688   6.121
 9734TIP3   OH229144   6.347   5.740   3.451
 9734TIP3    H129145   6.320   5.828   3.425
 9734TIP3    H229146   6.273   5.705   3.500
 9735TIP3   OH229147   4.363   7.626   1.157
 9735TIP3    H129148   4.399   7.707   1.191
 9735TIP3    H229149   4.436   7.565   1.156
 9736TIP3   OH229150   4.772   6.011   6.210
 9736TIP3    H129151   4.809   5.998   6.122
 9736TIP3    H229152   4.798   6.101   6.233
 9737TIP3   OH229153   3.466   5.852   0.717
 9737TIP3    H129154   3.435   5.927   0.665
 9737TIP3    H229155   3.388   5.797   0.728
 9738TIP3   OH229156   6.215   1.167   0.425
 9738TIP3    H129157   6.300   1.191   0.388
 9738TIP3    H229158   6.233   1.091   0.480
 9739TIP3   OH229159   3.804   3.323   2.772
 9739TIP3    H129160   3.732   3.346   2.712
 9739TIP3    H229161   3.883   3.330   2.718
 9740TIP3   OH229162   2.355   0.462   0.458
 9740TIP3    H129163   2.285   0.444   0.396
 9740TIP3    H229164   2.318   0.529   0.516
 9741TIP3   OH229165   5.429   3.693   6.504
 9741TIP3    H129166   5.380   3.631   6.558
 9741TIP3    H229167   5.489   3.639   6.453
 9742TIP3   OH229168   6.501   0.940   1.928
 9742TIP3    H129169   6.559   1.010   1.901
 9742TIP3    H229170   6.478   0.894   1.847
 9743TIP3   OH229171   1.703   4.001   3.120
 9743TIP3    H129172   1.761   4.063   3.076
 9743TIP3    H229173   1.717   4.017   3.213
 9744TIP3   OH229174   4.104   5.451   2.328
 9744TIP3    H129175   4.195   5.462   2.300
 9744TIP3    H229176   4.093   5.511   2.401
 9745TIP3   OH229177   0.876   6.789   3.576
 9745TIP3    H129178   0.903   6.770   3.486
 9745TIP3    H229179   0.788   6.826   3.567
 9746TIP3   OH229180   8.047   2.235   0.421
 9746TIP3    H129181   8.074   2.167   0.482
 9746TIP3    H229182   7.975   2.195   0.372
 9747TIP3   OH229183   5.686   6.527   4.594
 9747TIP3    H129184   5.656   6.450   4.642
 9747TIP3    H229185   5.765   6.498   4.549
 9748TIP3   OH229186   1.101   4.282   1.081
 9748TIP3    H129187   1.045   4.302   1.156
 9748TIP3    H229188   1.100   4.186   1.075
 9749TIP3   OH229189   3.367   5.186   5.423
 9749TIP3    H129190   3.448   5.141   5.446
 9749TIP3    H229191   3.325   5.130   5.358
 9750TIP3   OH229192   4.538   7.468   0.298
 9750TIP3    H129193   4.559   7.550   0.252
 9750TIP3    H229194   4.447   7.450   0.274
 9751TIP3   OH229195   3.863   1.752   6.006
 9751TIP3    H129196   3.830   1.805   6.079
 9751TIP3    H229197   3.794   1.756   5.940
 9752TIP3   OH229198   7.038   1.740   6.033
 9752TIP3    H129199   7.128   1.764   6.010
 9752TIP3    H229200   6.996   1.822   6.057
 9753TIP3   OH229201   7.932   2.993   5.756
 9753TIP3    H129202   7.911   2.989   5.663
 9753TIP3    H229203   7.852   2.966   5.800
 9754TIP3   OH229204   4.554   3.977   3.976
 9754TIP3    H129205   4.558   4.046   4.043
 9754TIP3    H229206   4.643   3.973   3.941
 9755TIP3   OH229207   0.423   0.441   0.069
 9755TIP3    H129208   0.344   0.493   0.084
 9755TIP3    H229209   0.492   0.489   0.114
 9756TIP3   OH229210   2.016   6.155   0.140
 9756TIP3    H129211   1.981   6.241   0.161
 9756TIP3    H229212   1.940   6.105   0.109
 9757TIP3   OH229213   4.913   2.802   2.095
 9757TIP3    H129214   4.826   2.828   2.124
 9757TIP3    H229215   4.968   2.807   2.173
 9758TIP3   OH229216   0.605   6.816   1.883
 9758TIP3    H129217   0.520   6.858   1.874
 9758TIP3    H229218   0.667   6.889   1.888
 9759TIP3   OH229219   5.260   6.049   5.926
 9759TIP3    H129220   5.281   6.070   6.018
 9759TIP3    H229221   5.221   5.962   5.930
 9760TIP3   OH229222   4.940   3.978   2.088
 9760TIP3    H129223   4.923   3.963   2.181
 9760TIP3    H229224   4.858   4.011   2.053
 9761TIP3   OH229225   5.156   6.370   2.236
 9761TIP3    H129226   5.229   6.398   2.181
 9761TIP3    H229227   5.082   6.425   2.208
 9762TIP3   OH229228   5.445   1.471   0.468
 9762TIP3    H129229   5.397   1.534   0.415
 9762TIP3    H229230   5.536   1.499   0.463
 9763TIP3   OH229231   1.460   4.452   3.254
 9763TIP3    H129232   1.457   4.547   3.245
 9763TIP3    H229233   1.529   4.425   3.194
 9764TIP3   OH229234   1.097   3.864   1.309
 9764TIP3    H129235   1.091   3.852   1.404
 9764TIP3    H229236   1.018   3.822   1.275
 9765TIP3   OH229237   0.155   7.079   0.507
 9765TIP3    H129238   0.134   7.105   0.417
 9765TIP3    H229239   0.099   7.003   0.523
 9766TIP3   OH229240   2.229   1.057   5.527
 9766TIP3    H129241   2.174   1.066   5.605
 9766TIP3    H229242   2.175   1.007   5.466
 9767TIP3   OH229243   2.996   6.677   0.134
 9767TIP3    H129244   3.029   6.630   0.211
 9767TIP3    H229245   3.058   6.748   0.121
 9768TIP3   OH229246   3.336   2.162   0.751
 9768TIP3    H129247   3.330   2.071   0.778
 9768TIP3    H229248   3.246   2.187   0.729
 9769TIP3   OH229249   5.345   7.196   2.867
 9769TIP3    H129250   5.304   7.180   2.782
 9769TIP3    H229251   5.404   7.122   2.880
 9770TIP3   OH229252   4.582   2.686   0.376
 9770TIP3    H129253   4.652   2.620   0.372
 9770TIP3    H229254   4.567   2.699   0.469
 9771TIP3   OH229255   5.270   2.883   2.292
 9771TIP3    H129256   5.304   2.817   2.353
 9771TIP3    H229257   5.260   2.836   2.209
 9772TIP3   OH229258   1.727   1.600   3.430
 9772TIP3    H129259   1.741   1.509   3.402
 9772TIP3    H229260   1.723   1.596   3.525
 9773TIP3   OH229261   8.221   6.027   4.210
 9773TIP3    H129262   8.279   6.009   4.135
 9773TIP3    H229263   8.133   6.028   4.173
 9774TIP3   OH229264   5.766   2.945   3.812
 9774TIP3    H129265   5.685   2.898   3.793
 9774TIP3    H229266   5.768   3.016   3.748
 9775TIP3   OH229267   6.296   3.679   1.884
 9775TIP3    H129268   6.264   3.762   1.920
 9775TIP3    H229269   6.218   3.626   1.873
 9776TIP3   OH229270   4.677   6.817   1.867
 9776TIP3    H129271   4.582   6.801   1.866
 9776TIP3    H229272   4.711   6.758   1.933
 9777TIP3   OH229273   0.314   2.017   6.828
 9777TIP3    H129274   0.344   1.998   6.739
 9777TIP3    H229275   0.260   2.096   6.819
 9778TIP3   OH229276   5.071   1.594   2.034
 9778TIP3    H129277   5.058   1.643   1.953
 9778TIP3    H229278   5.003   1.628   2.093
 9779TIP3   OH229279   5.947   5.999   6.422
 9779TIP3    H129280   5.966   5.940   6.349
 9779TIP3    H229281   6.015   6.066   6.417
 9780TIP3   OH229282   6.400   4.913   1.787
 9780TIP3    H129283   6.492   4.935   1.776
 9780TIP3    H229284   6.368   4.973   1.854
 9781TIP3   OH229285   0.512   3.633   2.416
 9781TIP3    H129286   0.598   3.637   2.374
 9781TIP3    H229287   0.480   3.545   2.396
 9782TIP3   OH229288   2.431   0.338   4.837
 9782TIP3    H129289   2.491   0.411   4.853
 9782TIP3    H229290   2.446   0.278   4.910
 9783TIP3   OH229291   1.048   2.679   1.987
 9783TIP3    H129292   1.023   2.771   1.984
 9783TIP3    H229293   0.989   2.641   2.053
 9784TIP3   OH229294   3.711   1.799   5.762
 9784TIP3    H129295   3.700   1.800   5.667
 9784TIP3    H229296   3.718   1.891   5.787
 9785TIP3   OH229297   0.298   6.047   0.944
 9785TIP3    H129298   0.254   6.122   0.903
 9785TIP3    H229299   0.350   6.086   1.014
 9786TIP3   OH229300   6.790   6.711   6.193
 9786TIP3    H129301   6.740   6.663   6.259
 9786TIP3    H229302   6.730   6.780   6.163
 9787TIP3   OH229303   3.986   1.229   2.372
 9787TIP3    H129304   4.016   1.278   2.295
 9787TIP3    H229305   3.960   1.297   2.434
 9788TIP3   OH229306   3.329   6.565   0.692
 9788TIP3    H129307   3.394   6.631   0.666
 9788TIP3    H229308   3.276   6.552   0.613
 9789TIP3   OH229309   7.052   6.581   1.549
 9789TIP3    H129310   7.098   6.577   1.465
 9789TIP3    H229311   6.973   6.530   1.535
 9790TIP3   OH229312   6.626   4.286   2.984
 9790TIP3    H129313   6.672   4.339   2.919
 9790TIP3    H229314   6.656   4.196   2.966
 9791TIP3   OH229315   3.681   5.780   2.200
 9791TIP3    H129316   3.703   5.786   2.293
 9791TIP3    H229317   3.630   5.859   2.182
 9792TIP3   OH229318   5.676   0.887   2.594
 9792TIP3    H129319   5.647   0.929   2.675
 9792TIP3    H229320   5.615   0.815   2.581
 9793TIP3   OH229321   2.666   0.392   6.534
 9793TIP3    H129322   2.591   0.396   6.475
 9793TIP3    H229323   2.725   0.461   6.503
 9794TIP3   OH229324   2.882   1.867   4.617
 9794TIP3    H129325   2.805   1.886   4.670
 9794TIP3    H229326   2.850   1.808   4.549
 9795TIP3   OH229327   6.014   5.042   4.308
 9795TIP3    H129328   5.993   5.057   4.400
 9795TIP3    H229329   5.969   5.113   4.262
 9796TIP3   OH229330   1.585   4.268   3.498
 9796TIP3    H129331   1.529   4.192   3.509
 9796TIP3    H229332   1.532   4.331   3.450
 9797TIP3   OH229333   0.812   4.383   2.496
 9797TIP3    H129334   0.839   4.436   2.421
 9797TIP3    H229335   0.894   4.350   2.533
 9798TIP3   OH229336   4.070   4.673   0.927
 9798TIP3    H129337   4.102   4.589   0.959
 9798TIP3    H229338   4.022   4.652   0.847
 9799TIP3   OH229339   7.930   6.742   2.137
 9799TIP3    H129340   7.887   6.823   2.165
 9799TIP3    H229341   7.927   6.685   2.213
 9800TIP3   OH229342   7.429   2.593   2.693
 9800TIP3    H129343   7.356   2.534   2.673
 9800TIP3    H229344   7.445   2.581   2.786
 9801TIP3   OH229345   0.652   7.782   3.532
 9801TIP3    H129346   0.608   7.809   3.612
 9801TIP3    H229347   0.643   7.856   3.472
 9802TIP3   OH229348   5.311   3.880   5.132
 9802TIP3    H129349   5.324   3.967   5.170
 9802TIP3    H229350   5.382   3.827   5.169
 9803TIP3   OH229351   1.466   6.822   2.915
 9803TIP3    H129352   1.391   6.765   2.900
 9803TIP3    H229353   1.490   6.808   3.007
 9804TIP3   OH229354   4.321   6.236   1.218
 9804TIP3    H129355   4.354   6.297   1.153
 9804TIP3    H229356   4.343   6.276   1.302
 9805TIP3   OH229357   1.728   7.281   3.949
 9805TIP3    H129358   1.667   7.250   4.015
 9805TIP3    H229359   1.672   7.304   3.874
 9806TIP3   OH229360   4.049   3.015   6.258
 9806TIP3    H129361   4.106   2.939   6.249
 9806TIP3    H229362   4.052   3.036   6.351
 9807TIP3   OH229363   4.295   3.641   4.966
 9807TIP3    H129364   4.258   3.558   4.936
 9807TIP3    H229365   4.223   3.703   4.961
 9808TIP3   OH229366   7.301   0.727   5.072
 9808TIP3    H129367   7.387   0.746   5.037
 9808TIP3    H229368   7.302   0.632   5.088
 9809TIP3   OH229369   4.384   2.044   2.641
 9809TIP3    H129370   4.323   2.012   2.574
 9809TIP3    H229371   4.366   2.138   2.647
 9810TIP3   OH229372   5.142   6.619   3.048
 9810TIP3    H129373   5.059   6.584   3.015
 9810TIP3    H229374   5.207   6.553   3.025
 9811TIP3   OH229375   3.851   4.182   3.553
 9811TIP3    H129376   3.894   4.099   3.573
 9811TIP3    H229377   3.918   4.234   3.510
 9812TIP3   OH229378   4.717   0.861   2.311
 9812TIP3    H129379   4.812   0.862   2.310
 9812TIP3    H229380   4.691   0.909   2.232
 9813TIP3   OH229381   3.920   7.245   2.981
 9813TIP3    H129382   3.894   7.297   2.905
 9813TIP3    H229383   3.935   7.157   2.946
 9814TIP3   OH229384   6.876   1.658   4.044
 9814TIP3    H129385   6.850   1.586   3.987
 9814TIP3    H229386   6.840   1.736   4.003
 9815TIP3   OH229387   2.822   0.978   4.148
 9815TIP3    H129388   2.741   0.993   4.099
 9815TIP3    H229389   2.844   0.886   4.131
 9816TIP3   OH229390   8.147   5.864   5.508
 9816TIP3    H129391   8.117   5.859   5.417
 9816TIP3    H229392   8.087   5.807   5.556
 9817TIP3   OH229393   7.790   6.245   2.989
 9817TIP3    H129394   7.861   6.308   2.994
 9817TIP3    H229395   7.823   6.168   3.035
 9818TIP3   OH229396   4.567   1.977   5.731
 9818TIP3    H129397   4.548   1.930   5.812
 9818TIP3    H229398   4.662   1.968   5.720
 9819TIP3   OH229399   1.836   0.247   2.241
 9819TIP3    H129400   1.920   0.246   2.286
 9819TIP3    H229401   1.858   0.240   2.148
 9820TIP3   OH229402   3.336   1.262   5.574
 9820TIP3    H129403   3.324   1.279   5.481
 9820TIP3    H229404   3.417   1.306   5.597
 9821TIP3   OH229405   6.780   0.802   6.129
 9821TIP3    H129406   6.780   0.897   6.121
 9821TIP3    H229407   6.856   0.782   6.182
 9822TIP3   OH229408   3.281   3.113   5.046
 9822TIP3    H129409   3.352   3.063   5.087
 9822TIP3    H229410   3.262   3.065   4.965
 9823TIP3   OH229411   0.231   1.170   2.213
 9823TIP3    H129412   0.286   1.247   2.201
 9823TIP3    H229413   0.175   1.192   2.287
 9824TIP3   OH229414   4.201   6.515   1.848
 9824TIP3    H129415   4.125   6.488   1.899
 9824TIP3    H229416   4.211   6.446   1.782
 9825TIP3   OH229417   1.378   1.953   2.614
 9825TIP3    H129418   1.452   1.994   2.659
 9825TIP3    H229419   1.376   1.864   2.648
 9826TIP3   OH229420   2.616   4.350   3.153
 9826TIP3    H129421   2.688   4.387   3.101
 9826TIP3    H229422   2.633   4.381   3.242
 9827TIP3   OH229423   0.143   3.813   6.751
 9827TIP3    H129424   0.229   3.823   6.711
 9827TIP3    H229425   0.098   3.750   6.694
 9828TIP3   OH229426   6.249   6.757   6.513
 9828TIP3    H129427   6.321   6.765   6.576
 9828TIP3    H229428   6.196   6.684   6.545
 9829TIP3   OH229429   1.646   7.263   3.373
 9829TIP3    H129430   1.666   7.311   3.292
 9829TIP3    H229431   1.640   7.331   3.440
 9830TIP3   OH229432   1.078   5.269   2.898
 9830TIP3    H129433   1.029   5.189   2.917
 9830TIP3    H229434   1.098   5.263   2.804
 9831TIP3   OH229435   1.753   2.892   5.165
 9831TIP3    H129436   1.842   2.860   5.174
 9831TIP3    H229437   1.751   2.975   5.212
 9832TIP3   OH229438   3.446   7.446   1.029
 9832TIP3    H129439   3.472   7.460   0.938
 9832TIP3    H229440   3.519   7.481   1.080
 9833TIP3   OH229441   2.262   3.769   2.909
 9833TIP3    H129442   2.250   3.859   2.938
 9833TIP3    H229443   2.274   3.776   2.814
 9834TIP3   OH229444   2.293   4.805   6.659
 9834TIP3    H129445   2.349   4.841   6.727
 9834TIP3    H229446   2.223   4.868   6.648
 9835TIP3   OH229447   6.718   5.340   0.119
 9835TIP3    H129448   6.708   5.359   0.213
 9835TIP3    H229449   6.692   5.248   0.111
 9836TIP3   OH229450   2.321   0.933   0.634
 9836TIP3    H129451   2.348   0.922   0.725
 9836TIP3    H229452   2.241   0.985   0.639
 9837TIP3   OH229453   7.749   7.710   1.051
 9837TIP3    H129454   7.703   7.786   1.016
 9837TIP3    H229455   7.787   7.668   0.973
 9838TIP3   OH229456   2.613   4.430   5.157
 9838TIP3    H129457   2.692   4.390   5.195
 9838TIP3    H229458   2.638   4.453   5.068
 9839TIP3   OH229459   5.916   4.621   5.067
 9839TIP3    H129460   5.916   4.564   4.989
 9839TIP3    H229461   5.923   4.710   5.031
 9840TIP3   OH229462   2.146   4.883   5.307
 9840TIP3    H129463   2.073   4.825   5.331
 9840TIP3    H229464   2.129   4.964   5.355
 9841TIP3   OH229465   4.540   7.083   3.618
 9841TIP3    H129466   4.486   7.010   3.649
 9841TIP3    H229467   4.600   7.100   3.691
 9842TIP3   OH229468   0.125   6.767   6.012
 9842TIP3    H129469   0.209   6.775   5.968
 9842TIP3    H229470   0.148   6.759   6.105
 9843TIP3   OH229471   5.619   2.294   1.992
 9843TIP3    H129472   5.542   2.351   1.987
 9843TIP3    H229473   5.584   2.205   1.999
 9844TIP3   OH229474   3.287   2.829   2.300
 9844TIP3    H129475   3.316   2.894   2.365
 9844TIP3    H229476   3.347   2.840   2.227
 9845TIP3   OH229477   1.284   3.681   3.676
 9845TIP3    H129478   1.333   3.745   3.624
 9845TIP3    H229479   1.351   3.620   3.708
 9846TIP3   OH229480   5.310   3.110   3.309
 9846TIP3    H129481   5.253   3.140   3.238
 9846TIP3    H229482   5.308   3.180   3.373
 9847TIP3   OH229483   4.088   5.883   3.990
 9847TIP3    H129484   4.002   5.897   3.949
 9847TIP3    H229485   4.151   5.913   3.925
 9848TIP3   OH229486   1.875   4.400   0.655
 9848TIP3    H129487   1.856   4.403   0.749
 9848TIP3    H229488   1.857   4.488   0.623
 9849TIP3   OH229489   4.101   7.315   2.742
 9849TIP3    H129490   4.090   7.228   2.704
 9849TIP3    H229491   4.012   7.350   2.749
 9850TIP3   OH229492   4.747   3.630   4.166
 9850TIP3    H129493   4.839   3.620   4.139
 9850TIP3    H229494   4.749   3.699   4.232
 9851TIP3   OH229495   1.549   1.763   0.770
 9851TIP3    H129496   1.535   1.857   0.778
 9851TIP3    H229497   1.468   1.729   0.733
 9852TIP3   OH229498   8.088   0.424   0.599
 9852TIP3    H129499   8.049   0.340   0.620
 9852TIP3    H229500   8.086   0.428   0.503
 9853TIP3   OH229501   3.449   6.586   6.500
 9853TIP3    H129502   3.519   6.584   6.565
 9853TIP3    H229503   3.369   6.589   6.551
 9854TIP3   OH229504   6.478   4.454   0.418
 9854TIP3    H129505   6.525   4.419   0.342
 9854TIP3    H229506   6.466   4.547   0.399
 9855TIP3   OH229507   1.874   2.611   5.574
 9855TIP3    H129508   1.935   2.682   5.594
 9855TIP3    H229509   1.928   2.531   5.578
 9856TIP3   OH229510   5.290   4.163   4.305
 9856TIP3    H129511   5.201   4.164   4.341
 9856TIP3    H229512   5.330   4.243   4.338
 9857TIP3   OH229513   0.139   3.258   1.060
 9857TIP3    H129514   0.051   3.259   1.022
 9857TIP3    H229515   0.169   3.349   1.054
 9858TIP3   OH229516   8.193   6.141   5.548
 9858TIP3    H129517   8.194   6.145   5.643
 9858TIP3    H229518   8.187   6.047   5.528
 9859TIP3   OH229519   0.589   6.350   2.497
 9859TIP3    H129520   0.574   6.262   2.463
 9859TIP3    H229521   0.522   6.404   2.455
 9860TIP3   OH229522   4.820   7.132   5.192
 9860TIP3    H129523   4.727   7.139   5.170
 9860TIP3    H229524   4.822   7.082   5.274
 9861TIP3   OH229525   1.337   7.760   4.830
 9861TIP3    H129526   1.339   7.777   4.924
 9861TIP3    H229527   1.426   7.732   4.808
 9862TIP3   OH229528   2.224   4.638  -0.005
 9862TIP3    H129529   2.213   4.559  -0.059
 9862TIP3    H229530   2.319   4.653  -0.004
 9863TIP3   OH229531   7.224   7.097   2.074
 9863TIP3    H129532   7.207   7.058   1.989
 9863TIP3    H229533   7.268   7.027   2.124
 9864TIP3   OH229534   7.595   3.132   4.113
 9864TIP3    H129535   7.560   3.189   4.044
 9864TIP3    H229536   7.650   3.069   4.066
 9865TIP3   OH229537   2.533   1.243   2.737
 9865TIP3    H129538   2.600   1.274   2.798
 9865TIP3    H229539   2.499   1.323   2.697
 9866TIP3   OH229540   5.268   7.019   3.857
 9866TIP3    H129541   5.282   6.991   3.767
 9866TIP3    H229542   5.349   7.064   3.881
 9867TIP3   OH229543   5.917   7.686   4.996
 9867TIP3    H129544   5.852   7.752   5.020
 9867TIP3    H229545   5.991   7.702   5.053
 9868TIP3   OH229546   5.757   0.188   5.219
 9868TIP3    H129547   5.666   0.173   5.244
 9868TIP3    H229548   5.764   0.149   5.131
 9869TIP3   OH229549   3.668   6.359   4.647
 9869TIP3    H129550   3.641   6.271   4.675
 9869TIP3    H229551   3.738   6.344   4.584
 9870TIP3   OH229552   4.613   4.935   1.073
 9870TIP3    H129553   4.693   4.931   1.020
 9870TIP3    H229554   4.599   5.028   1.088
 9871TIP3   OH229555   2.216   1.892   6.748
 9871TIP3    H129556   2.227   1.919   6.657
 9871TIP3    H229557   2.227   1.797   6.747
 9872TIP3   OH229558   1.120   7.840   5.921
 9872TIP3    H129559   1.147   7.767   5.977
 9872TIP3    H229560   1.100   7.799   5.837
 9873TIP3   OH229561   1.646   3.515   6.344
 9873TIP3    H129562   1.724   3.571   6.346
 9873TIP3    H229563   1.572   3.575   6.352
 9874TIP3   OH229564   7.964   3.204   1.594
 9874TIP3    H129565   7.962   3.133   1.529
 9874TIP3    H229566   7.935   3.281   1.545
 9875TIP3   OH229567   2.137   6.946   1.490
 9875TIP3    H129568   2.150   7.033   1.529
 9875TIP3    H229569   2.220   6.926   1.448
 9876TIP3   OH229570   4.371   0.535   5.624
 9876TIP3    H129571   4.423   0.578   5.556
 9876TIP3    H229572   4.307   0.482   5.576
 9877TIP3   OH229573   0.531   1.615   5.945
 9877TIP3    H129574   0.550   1.543   6.005
 9877TIP3    H229575   0.488   1.681   5.999
 9878TIP3   OH229576   0.089   7.379   6.328
 9878TIP3    H129577  -0.006   7.384   6.340
 9878TIP3    H229578   0.100   7.348   6.238
 9879TIP3   OH229579   1.566   4.709   3.163
 9879TIP3    H129580   1.515   4.746   3.090
 9879TIP3    H229581   1.654   4.696   3.127
 9880TIP3   OH229582   4.544   7.159   5.344
 9880TIP3    H129583   4.499   7.243   5.334
 9880TIP3    H229584   4.502   7.102   5.279
 9881TIP3   OH229585   2.179   4.380   5.524
 9881TIP3    H129586   2.158   4.430   5.445
 9881TIP3    H229587   2.154   4.438   5.596
 9882TIP3   OH229588   7.666   0.497   5.988
 9882TIP3    H129589   7.688   0.471   6.077
 9882TIP3    H229590   7.617   0.578   5.998
 9883TIP3   OH229591   8.113   5.999   1.069
 9883TIP3    H129592   8.175   6.007   1.142
 9883TIP3    H229593   8.132   6.074   1.013
 9884TIP3   OH229594   0.640   0.783   3.671
 9884TIP3    H129595   0.615   0.795   3.763
 9884TIP3    H229596   0.667   0.870   3.642
 9885TIP3   OH229597   4.386   2.244   0.466
 9885TIP3    H129598   4.329   2.173   0.437
 9885TIP3    H229599   4.382   2.242   0.561
 9886TIP3   OH229600   3.109   7.615   1.383
 9886TIP3    H129601   3.144   7.597   1.295
 9886TIP3    H229602   3.032   7.671   1.367
 9887TIP3   OH229603   2.799   1.803   1.894
 9887TIP3    H129604   2.880   1.753   1.894
 9887TIP3    H229605   2.826   1.893   1.911
 9888TIP3   OH229606   0.760   0.632   5.295
 9888TIP3    H129607   0.849   0.667   5.305
 9888TIP3    H229608   0.721   0.643   5.381
 9889TIP3   OH229609   1.851   1.517   4.362
 9889TIP3    H129610   1.765   1.488   4.391
 9889TIP3    H229611   1.873   1.590   4.419
 9890TIP3   OH229612   2.775   0.395   4.137
 9890TIP3    H129613   2.768   0.340   4.215
 9890TIP3    H229614   2.726   0.474   4.159
 9891TIP3   OH229615   0.825   4.279   6.399
 9891TIP3    H129616   0.751   4.300   6.342
 9891TIP3    H229617   0.892   4.245   6.339
 9892TIP3   OH229618   4.384   0.954   4.712
 9892TIP3    H129619   4.443   0.900   4.659
 9892TIP3    H229620   4.436   1.033   4.731
 9893TIP3   OH229621   3.520   4.635   3.165
 9893TIP3    H129622   3.613   4.633   3.146
 9893TIP3    H229623   3.478   4.625   3.079
 9894TIP3   OH229624   3.553   5.604   2.530
 9894TIP3    H129625   3.530   5.695   2.511
 9894TIP3    H229626   3.643   5.608   2.560
 9895TIP3   OH229627   0.936   0.239   3.764
 9895TIP3    H129628   0.938   0.269   3.673
 9895TIP3    H229629   0.992   0.161   3.764
 9896TIP3   OH229630   1.765   7.777   6.733
 9896TIP3    H129631   1.716   7.774   6.814
 9896TIP3    H229632   1.746   7.864   6.696
 9897TIP3   OH229633   0.578   0.367   4.506
 9897TIP3    H129634   0.516   0.424   4.462
 9897TIP3    H229635   0.664   0.394   4.473
 9898TIP3   OH229636   2.422   0.438   0.012
 9898TIP3    H129637   2.441   0.452   0.104
 9898TIP3    H229638   2.354   0.502  -0.008
 9899TIP3   OH229639   4.515   2.608   4.543
 9899TIP3    H129640   4.602   2.611   4.504
 9899TIP3    H229641   4.457   2.583   4.471
 9900TIP3   OH229642   0.759   3.738   2.692
 9900TIP3    H129643   0.813   3.674   2.645
 9900TIP3    H229644   0.814   3.817   2.695
 9901TIP3   OH229645   5.736   7.211   6.536
 9901TIP3    H129646   5.651   7.183   6.569
 9901TIP3    H229647   5.779   7.131   6.505
 9902TIP3   OH229648   1.826   4.257   1.175
 9902TIP3    H129649   1.835   4.236   1.268
 9902TIP3    H229650   1.853   4.349   1.169
 9903TIP3   OH229651   2.016   3.473   6.451
 9903TIP3    H129652   2.065   3.392   6.469
 9903TIP3    H229653   1.982   3.499   6.536
 9904TIP3   OH229654   0.132   2.391   6.295
 9904TIP3    H129655   0.212   2.437   6.318
 9904TIP3    H229656   0.129   2.395   6.199
 9905TIP3   OH229657   7.578   3.132   4.968
 9905TIP3    H129658   7.657   3.176   4.937
 9905TIP3    H229659   7.610   3.061   5.023
 9906TIP3   OH229660   5.715   2.616   5.229
 9906TIP3    H129661   5.644   2.669   5.266
 9906TIP3    H229662   5.708   2.631   5.135
 9907TIP3   OH229663   1.727   4.419   0.050
 9907TIP3    H129664   1.662   4.382   0.111
 9907TIP3    H229665   1.708   4.513   0.049
 9908TIP3   OH229666   0.924   5.671   2.550
 9908TIP3    H129667   1.019   5.680   2.542
 9908TIP3    H229668   0.905   5.697   2.640
 9909TIP3   OH229669   0.590   6.530   4.018
 9909TIP3    H129670   0.593   6.517   3.923
 9909TIP3    H229671   0.525   6.467   4.048
 9910TIP3   OH229672   8.173   3.860   4.546
 9910TIP3    H129673   8.133   3.774   4.535
 9910TIP3    H229674   8.236   3.866   4.474
 9911TIP3   OH229675   5.492   5.263   5.917
 9911TIP3    H129676   5.582   5.261   5.885
 9911TIP3    H229677   5.494   5.324   5.991
 9912TIP3   OH229678   2.309   1.168   2.241
 9912TIP3    H129679   2.215   1.155   2.237
 9912TIP3    H229680   2.327   1.234   2.175
 9913TIP3   OH229681   3.180   4.309   6.567
 9913TIP3    H129682   3.186   4.216   6.588
 9913TIP3    H229683   3.179   4.353   6.652
 9914TIP3   OH229684   3.267   6.640   5.080
 9914TIP3    H129685   3.172   6.641   5.095
 9914TIP3    H229686   3.289   6.547   5.076
 9915TIP3   OH229687   5.625   4.697   1.446
 9915TIP3    H129688   5.658   4.739   1.525
 9915TIP3    H229689   5.604   4.771   1.388
 9916TIP3   OH229690   6.417   3.469   6.666
 9916TIP3    H129691   6.394   3.425   6.583
 9916TIP3    H229692   6.482   3.410   6.706
 9917TIP3   OH229693   3.494   5.159   2.867
 9917TIP3    H129694   3.533   5.150   2.953
 9917TIP3    H229695   3.484   5.254   2.855
 9918TIP3   OH229696   3.095   2.973   0.558
 9918TIP3    H129697   3.184   2.951   0.530
 9918TIP3    H229698   3.063   3.034   0.491
 9919TIP3   OH229699   7.303   0.462   5.069
 9919TIP3    H129700   7.272   0.388   5.016
 9919TIP3    H229701   7.363   0.423   5.132
 9920TIP3   OH229702   8.189   7.089   1.100
 9920TIP3    H129703   8.187   7.011   1.044
 9920TIP3    H229704   8.263   7.074   1.159
 9921TIP3   OH229705   7.374   6.270   1.132
 9921TIP3    H129706   7.382   6.326   1.209
 9921TIP3    H229707   7.281   6.274   1.109
 9922TIP3   OH229708   2.683   0.165   1.280
 9922TIP3    H129709   2.603   0.203   1.318
 9922TIP3    H229710   2.668   0.168   1.185
 9923TIP3   OH229711   3.221   7.065   2.862
 9923TIP3    H129712   3.301   7.104   2.897
 9923TIP3    H229713   3.250   6.988   2.813
 9924TIP3   OH229714   8.098   0.412   5.593
 9924TIP3    H129715   8.059   0.398   5.507
 9924TIP3    H229716   8.029   0.454   5.645
 9925TIP3   OH229717   5.459   1.086   1.201
 9925TIP3    H129718   5.386   1.032   1.169
 9925TIP3    H229719   5.497   1.125   1.123
 9926TIP3   OH229720   0.312   3.908   5.356
 9926TIP3    H129721   0.349   3.852   5.288
 9926TIP3    H229722   0.220   3.919   5.331
 9927TIP3   OH229723   2.189   2.339   6.166
 9927TIP3    H129724   2.121   2.280   6.134
 9927TIP3    H229725   2.236   2.289   6.232
 9928TIP3   OH229726   3.320   5.650   1.337
 9928TIP3    H129727   3.341   5.591   1.409
 9928TIP3    H229728   3.404   5.692   1.315
 9929TIP3   OH229729   3.846   2.177   3.715
 9929TIP3    H129730   3.869   2.122   3.790
 9929TIP3    H229731   3.772   2.229   3.745
 9930TIP3   OH229732   5.766   2.730   2.527
 9930TIP3    H129733   5.697   2.667   2.547
 9930TIP3    H229734   5.777   2.779   2.609
 9931TIP3   OH229735   0.892   4.450   3.324
 9931TIP3    H129736   0.874   4.487   3.238
 9931TIP3    H229737   0.987   4.446   3.330
 9932TIP3   OH229738   4.753   0.484   1.955
 9932TIP3    H129739   4.660   0.466   1.970
 9932TIP3    H229740   4.793   0.474   2.041
 9933TIP3   OH229741   6.829   2.413   0.348
 9933TIP3    H129742   6.777   2.334   0.333
 9933TIP3    H229743   6.914   2.381   0.376
 9934TIP3   OH229744   2.472   3.325   3.153
 9934TIP3    H129745   2.527   3.330   3.231
 9934TIP3    H229746   2.464   3.415   3.123
 9935TIP3   OH229747   5.113   0.936   2.983
 9935TIP3    H129748   5.154   0.878   2.919
 9935TIP3    H229749   5.019   0.929   2.966
 9936TIP3   OH229750   4.210   0.937   2.374
 9936TIP3    H129751   4.216   0.854   2.421
 9936TIP3    H229752   4.140   0.985   2.419
 9937TIP3   OH229753   2.996   1.301   5.714
 9937TIP3    H129754   3.029   1.218   5.681
 9937TIP3    H229755   2.997   1.359   5.638
 9938TIP3   OH229756   5.831   2.342   0.585
 9938TIP3    H129757   5.883   2.422   0.588
 9938TIP3    H229758   5.747   2.370   0.549
 9939TIP3   OH229759   4.967   6.915   2.583
 9939TIP3    H129760   5.055   6.879   2.580
 9939TIP3    H229761   4.913   6.844   2.617
 9940TIP3   OH229762   1.021   1.171   0.354
 9940TIP3    H129763   0.978   1.156   0.270
 9940TIP3    H229764   0.957   1.144   0.420
 9941TIP3   OH229765   5.270   6.743   0.261
 9941TIP3    H129766   5.308   6.657   0.282
 9941TIP3    H229767   5.339   6.787   0.211
 9942TIP3   OH229768   7.555   0.871   2.193
 9942TIP3    H129769   7.496   0.934   2.152
 9942TIP3    H229770   7.536   0.878   2.287
 9943TIP3   OH229771   2.839   6.846   2.283
 9943TIP3    H129772   2.813   6.879   2.369
 9943TIP3    H229773   2.798   6.907   2.221
 9944TIP3   OH229774   2.436   6.993   0.154
 9944TIP3    H129775   2.531   6.992   0.144
 9944TIP3    H229776   2.401   6.990   0.065
 9945TIP3   OH229777   5.681   7.145   1.146
 9945TIP3    H129778   5.732   7.093   1.208
 9945TIP3    H229779   5.739   7.216   1.120
 9946TIP3   OH229780   2.054   2.113   3.974
 9946TIP3    H129781   1.996   2.189   3.966
 9946TIP3    H229782   2.004   2.049   4.023
 9947TIP3   OH229783   8.026   4.744   6.077
 9947TIP3    H129784   8.119   4.756   6.061
 9947TIP3    H229785   8.009   4.652   6.059
 9948TIP3   OH229786   1.616   0.967   0.959
 9948TIP3    H129787   1.683   1.018   1.006
 9948TIP3    H229788   1.641   0.974   0.867
 9949TIP3   OH229789   3.841   5.609   5.781
 9949TIP3    H129790   3.874   5.644   5.863
 9949TIP3    H229791   3.919   5.595   5.727
 9950TIP3   OH229792   1.276   0.821   4.099
 9950TIP3    H129793   1.221   0.884   4.052
 9950TIP3    H229794   1.262   0.842   4.192
 9951TIP3   OH229795   0.097   0.920   2.913
 9951TIP3    H129796   0.019   0.956   2.872
 9951TIP3    H229797   0.081   0.930   3.007
 9952TIP3   OH229798   6.330   3.291   5.838
 9952TIP3    H129799   6.253   3.244   5.870
 9952TIP3    H229800   6.311   3.310   5.746
 9953TIP3   OH229801   5.748   5.022   0.831
 9953TIP3    H129802   5.793   5.008   0.748
 9953TIP3    H229803   5.785   4.955   0.889
 9954TIP3   OH229804   8.285   0.290   0.935
 9954TIP3    H129805   8.274   0.384   0.952
 9954TIP3    H229806   8.230   0.274   0.858
 9955TIP3   OH229807   5.364   0.041   6.172
 9955TIP3    H129808   5.399   0.010   6.088
 9955TIP3    H229809   5.287  -0.014   6.187
 9956TIP3   OH229810   7.872   4.715   0.593
 9956TIP3    H129811   7.944   4.767   0.557
 9956TIP3    H229812   7.835   4.669   0.517
 9957TIP3   OH229813   4.958   4.209   6.618
 9957TIP3    H129814   4.864   4.225   6.614
 9957TIP3    H229815   4.970   4.163   6.701
 9958TIP3   OH229816   2.855   4.378   5.262
 9958TIP3    H129817   2.941   4.385   5.219
 9958TIP3    H229818   2.861   4.299   5.315
 9959TIP3   OH229819   6.655   6.418   2.727
 9959TIP3    H129820   6.725   6.413   2.792
 9959TIP3    H229821   6.654   6.332   2.685
 9960TIP3   OH229822   6.956   6.451   5.480
 9960TIP3    H129823   7.003   6.431   5.561
 9960TIP3    H229824   7.024   6.463   5.414
 9961TIP3   OH229825   1.192   5.954   3.351
 9961TIP3    H129826   1.168   5.861   3.358
 9961TIP3    H229827   1.204   5.968   3.257
 9962TIP3   OH229828   0.549   5.538   4.886
 9962TIP3    H129829   0.580   5.505   4.802
 9962TIP3    H229830   0.456   5.555   4.873
 9963TIP3   OH229831   3.063   0.919   0.582
 9963TIP3    H129832   2.981   0.945   0.541
 9963TIP3    H229833   3.082   0.833   0.544
 9964TIP3   OH229834   6.817   0.085   2.153
 9964TIP3    H129835   6.800   0.166   2.201
 9964TIP3    H229836   6.913   0.081   2.146
 9965TIP3   OH229837   0.964   0.344   5.375
 9965TIP3    H129838   1.029   0.408   5.405
 9965TIP3    H229839   0.885   0.365   5.425
 9966TIP3   OH229840   2.708   3.690   3.582
 9966TIP3    H129841   2.701   3.762   3.519
 9966TIP3    H229842   2.665   3.723   3.661
 9967TIP3   OH229843   5.611   4.963   6.240
 9967TIP3    H129844   5.518   4.956   6.258
 9967TIP3    H229845   5.645   5.023   6.306
 9968TIP3   OH229846   7.721   7.058   5.991
 9968TIP3    H129847   7.699   7.123   5.924
 9968TIP3    H229848   7.810   7.032   5.971
 9969TIP3   OH229849   0.258   2.530   3.810
 9969TIP3    H129850   0.285   2.607   3.759
 9969TIP3    H229851   0.224   2.469   3.744
 9970TIP3   OH229852   4.006   4.473   3.278
 9970TIP3    H129853   3.978   4.488   3.188
 9970TIP3    H229854   3.973   4.386   3.299
 9971TIP3   OH229855   1.454   2.926   0.362
 9971TIP3    H129856   1.454   2.995   0.428
 9971TIP3    H229857   1.403   2.962   0.290
 9972TIP3   OH229858   3.259   7.816   0.904
 9972TIP3    H129859   3.176   7.788   0.864
 9972TIP3    H229860   3.276   7.901   0.863
 9973TIP3   OH229861   5.514   6.391   3.168
 9973TIP3    H129862   5.596   6.404   3.120
 9973TIP3    H229863   5.525   6.307   3.213
 9974TIP3   OH229864   7.940   2.889   3.636
 9974TIP3    H129865   8.013   2.932   3.680
 9974TIP3    H229866   7.912   2.952   3.570
 9975TIP3   OH229867   1.935   5.703   2.264
 9975TIP3    H129868   1.839   5.700   2.273
 9975TIP3    H229869   1.949   5.745   2.179
 9976TIP3   OH229870   5.857   7.343   0.802
 9976TIP3    H129871   5.833   7.317   0.891
 9976TIP3    H229872   5.951   7.329   0.797
 9977TIP3   OH229873   5.811   7.643   6.377
 9977TIP3    H129874   5.760   7.626   6.298
 9977TIP3    H229875   5.768   7.591   6.445
 9978TIP3   OH229876   3.139   6.203   1.324
 9978TIP3    H129877   3.223   6.158   1.314
 9978TIP3    H229878   3.152   6.288   1.282
 9979TIP3   OH229879   0.839   7.060   3.187
 9979TIP3    H129880   0.743   7.065   3.191
 9979TIP3    H229881   0.867   7.151   3.182
 9980TIP3   OH229882   0.599   2.695   0.171
 9980TIP3    H129883   0.562   2.629   0.113
 9980TIP3    H229884   0.580   2.663   0.259
 9981TIP3   OH229885   6.103   0.231   6.230
 9981TIP3    H129886   6.055   0.292   6.286
 9981TIP3    H229887   6.106   0.150   6.281
 9982TIP3   OH229888   0.748   7.491   6.713
 9982TIP3    H129889   0.708   7.405   6.724
 9982TIP3    H229890   0.742   7.531   6.800
 9983TIP3   OH229891   6.480   7.212   5.221
 9983TIP3    H129892   6.414   7.239   5.284
 9983TIP3    H229893   6.474   7.116   5.219
 9984TIP3   OH229894   1.419   5.129   3.460
 9984TIP3    H129895   1.463   5.055   3.418
 9984TIP3    H229896   1.478   5.155   3.531
 9985TIP3   OH229897   7.545   2.217   0.476
 9985TIP3    H129898   7.623   2.267   0.500
 9985TIP3    H229899   7.508   2.264   0.401
 9986TIP3   OH229900   3.174   5.170   3.114
 9986TIP3    H129901   3.190   5.187   3.022
 9986TIP3    H229902   3.174   5.256   3.155
 9987TIP3   OH229903   6.815   1.095   1.056
 9987TIP3    H129904   6.845   1.067   0.970
 9987TIP3    H229905   6.868   1.171   1.077
 9988TIP3   OH229906   2.223   1.437   5.768
 9988TIP3    H129907   2.306   1.463   5.808
 9988TIP3    H229908   2.172   1.517   5.764
 9989TIP3   OH229909   0.387   4.104   0.711
 9989TIP3    H129910   0.479   4.079   0.717
 9989TIP3    H229911   0.344   4.050   0.778
 9990TIP3   OH229912   1.642   2.883   3.720
 9990TIP3    H129913   1.723   2.908   3.765
 9990TIP3    H229914   1.672   2.844   3.638
 9991TIP3   OH229915   4.828   1.530   3.263
 9991TIP3    H129916   4.736   1.528   3.290
 9991TIP3    H229917   4.826   1.566   3.174
 9992TIP3   OH229918   2.398   5.052   1.527
 9992TIP3    H129919   2.491   5.060   1.545
 9992TIP3    H229920   2.360   5.013   1.606
 9993TIP3   OH229921   4.991   0.804   5.013
 9993TIP3    H129922   4.960   0.723   4.974
 9993TIP3    H229923   4.942   0.812   5.095
 9994TIP3   OH229924   6.447   7.560   2.188
 9994TIP3    H129925   6.375   7.497   2.179
 9994TIP3    H229926   6.511   7.516   2.243
 9995TIP3   OH229927   2.522   6.662   4.775
 9995TIP3    H129928   2.428   6.646   4.772
 9995TIP3    H229929   2.562   6.575   4.773
 9996TIP3   OH229930   1.773   3.447   0.379
 9996TIP3    H129931   1.730   3.525   0.346
 9996TIP3    H229932   1.737   3.375   0.326
 9997TIP3   OH229933   7.246   1.398   3.994
 9997TIP3    H129934   7.294   1.346   4.058
 9997TIP3    H229935   7.208   1.470   4.044
 9998TIP3   OH229936   3.815   0.396   4.824
 9998TIP3    H129937   3.821   0.342   4.745
 9998TIP3    H229938   3.802   0.485   4.790
 9999TIP3   OH229939   6.362   6.449   4.601
 9999TIP3    H129940   6.367   6.428   4.508
 9999TIP3    H229941   6.268   6.450   4.620
10000TIP3   OH229942   0.727   7.521   3.871
10000TIP3    H129943   0.769   7.574   3.803
10000TIP3    H229944   0.757   7.432   3.854
10001TIP3   OH229945   6.344   2.030   1.811
10001TIP3    H129946   6.309   1.988   1.733
10001TIP3    H229947   6.425   2.072   1.781
10002TIP3   OH229948   2.014   2.523   5.920
10002TIP3    H129949   2.050   2.612   5.931
10002TIP3    H229950   2.039   2.477   6.000
10003TIP3   OH229951   7.209   3.679   4.335
10003TIP3    H129952   7.167   3.752   4.289
10003TIP3    H229953   7.140   3.613   4.342
10004TIP3   OH229954   6.048   0.554   5.031
10004TIP3    H129955   6.092   0.621   5.085
10004TIP3    H229956   5.960   0.548   5.068
10005TIP3   OH229957   4.370   3.651   3.146
10005TIP3    H129958   4.431   3.594   3.099
10005TIP3    H229959   4.387   3.738   3.111
10006TIP3   OH229960   2.292   6.988   2.311
10006TIP3    H129961   2.371   6.939   2.290
10006TIP3    H229962   2.280   7.048   2.237
10007TIP3   OH229963   6.234   0.454   5.317
10007TIP3    H129964   6.226   0.549   5.304
10007TIP3    H229965   6.318   0.443   5.362
10008TIP3   OH229966   6.077   6.793   4.465
10008TIP3    H129967   6.079   6.776   4.371
10008TIP3    H229968   5.989   6.767   4.493
10009TIP3   OH229969   2.852   6.211   5.610
10009TIP3    H129970   2.945   6.230   5.621
10009TIP3    H229971   2.848   6.116   5.597
10010TIP3   OH229972   2.530   2.892   2.866
10010TIP3    H129973   2.467   2.962   2.850
10010TIP3    H229974   2.490   2.839   2.935
10011TIP3   OH229975   5.868   1.185   3.530
10011TIP3    H129976   5.873   1.223   3.618
10011TIP3    H229977   5.934   1.116   3.530
10012TIP3   OH229978   4.150   1.390   4.151
10012TIP3    H129979   4.089   1.462   4.138
10012TIP3    H229980   4.123   1.351   4.234
10013TIP3   OH229981   5.064   5.445   1.664
10013TIP3    H129982   5.105   5.389   1.730
10013TIP3    H229983   5.108   5.421   1.582
10014TIP3   OH229984   6.308   4.068   4.800
10014TIP3    H129985   6.385   4.090   4.746
10014TIP3    H229986   6.296   4.145   4.856
10015TIP3   OH229987   7.239   6.817   5.338
10015TIP3    H129988   7.309   6.759   5.310
10015TIP3    H229989   7.179   6.820   5.264
10016TIP3   OH229990   7.774   1.026   2.068
10016TIP3    H129991   7.725   0.976   2.133
10016TIP3    H229992   7.709   1.052   2.004
10017TIP3   OH229993   6.564   4.596   2.772
10017TIP3    H129994   6.480   4.627   2.805
10017TIP3    H229995   6.621   4.595   2.849
10018TIP3   OH229996   4.070   0.493   2.074
10018TIP3    H129997   4.011   0.567   2.063
10018TIP3    H229998   4.080   0.457   1.986
10019TIP3   OH229999   2.545   5.709   1.474
10019TIP3    H130000   2.517   5.618   1.484
10019TIP3    H230001   2.546   5.744   1.563
10020TIP3   OH230002   7.225   4.714   6.725
10020TIP3    H130003   7.159   4.751   6.667
10020TIP3    H230004   7.302   4.700   6.669
10021TIP3   OH230005   2.825   7.606   6.221
10021TIP3    H130006   2.910   7.638   6.191
10021TIP3    H230007   2.847   7.531   6.277
10022TIP3   OH230008   0.461   2.130   2.407
10022TIP3    H130009   0.499   2.084   2.332
10022TIP3    H230010   0.400   2.193   2.368
10023TIP3   OH230011   7.714   1.452   0.984
10023TIP3    H130012   7.729   1.359   0.969
10023TIP3    H230013   7.802   1.490   0.987
10024TIP3   OH230014   2.685   7.584   6.715
10024TIP3    H130015   2.694   7.679   6.723
10024TIP3    H230016   2.614   7.571   6.652
10025TIP3   OH230017   2.028   3.468   0.438
10025TIP3    H130018   2.031   3.450   0.532
10025TIP3    H230019   1.935   3.461   0.415
10026TIP3   OH230020   8.202   7.357   3.234
10026TIP3    H130021   8.161   7.355   3.321
10026TIP3    H230022   8.287   7.316   3.247
10027TIP3   OH230023   1.897   1.067   4.898
10027TIP3    H130024   1.956   0.999   4.865
10027TIP3    H230025   1.898   1.134   4.829
10028TIP3   OH230026   8.342   7.501   4.571
10028TIP3    H130027   8.290   7.438   4.622
10028TIP3    H230028   8.377   7.450   4.498
10029TIP3   OH230029   5.824   1.899   3.376
10029TIP3    H130030   5.918   1.883   3.387
10029TIP3    H230031   5.819   1.992   3.352
10030TIP3   OH230032   2.031   3.790   5.371
10030TIP3    H130033   1.936   3.803   5.379
10030TIP3    H230034   2.043   3.695   5.378
10031TIP3   OH230035   0.129   2.380   3.609
10031TIP3    H130036   0.056   2.409   3.555
10031TIP3    H230037   0.134   2.286   3.593
10032TIP3   OH230038   0.929   2.107   2.908
10032TIP3    H130039   0.908   2.033   2.965
10032TIP3    H230040   0.925   2.184   2.965
10033TIP3   OH230041   0.453   5.146   6.653
10033TIP3    H130042   0.451   5.204   6.729
10033TIP3    H230043   0.517   5.079   6.676
10034TIP3   OH230044   7.016   1.104   4.161
10034TIP3    H130045   7.057   1.105   4.247
10034TIP3    H230046   6.960   1.182   4.160
10035TIP3   OH230047   2.649   7.124   3.274
10035TIP3    H130048   2.578   7.177   3.311
10035TIP3    H230049   2.718   7.186   3.252
10036TIP3   OH230050   6.287   1.836   1.620
10036TIP3    H130051   6.284   1.768   1.688
10036TIP3    H230052   6.370   1.820   1.575
10037TIP3   OH230053   4.846   2.665   6.014
10037TIP3    H130054   4.938   2.637   6.013
10037TIP3    H230055   4.848   2.751   6.055
10038TIP3   OH230056   1.477   5.564   3.046
10038TIP3    H130057   1.442   5.481   3.013
10038TIP3    H230058   1.421   5.586   3.120
10039TIP3   OH230059   5.915   1.893   1.830
10039TIP3    H130060   5.919   1.901   1.735
10039TIP3    H230061   5.827   1.858   1.847
10040TIP3   OH230062   4.604   2.645   3.253
10040TIP3    H130063   4.598   2.554   3.225
10040TIP3    H230064   4.634   2.692   3.175
10041TIP3   OH230065   1.651   1.777   0.483
10041TIP3    H130066   1.662   1.827   0.563
10041TIP3    H230067   1.687   1.690   0.504
10042TIP3   OH230068   4.154   1.267   6.004
10042TIP3    H130069   4.192   1.255   6.091
10042TIP3    H230070   4.087   1.334   6.016
10043TIP3   OH230071   5.187   3.431   0.327
10043TIP3    H130072   5.165   3.338   0.337
10043TIP3    H230073   5.261   3.444   0.385
10044TIP3   OH230074   4.272   3.343   3.052
10044TIP3    H130075   4.365   3.348   3.074
10044TIP3    H230076   4.271   3.316   2.960
10045TIP3   OH230077   3.611   2.736   4.959
10045TIP3    H130078   3.532   2.785   4.982
10045TIP3    H230079   3.675   2.804   4.937
10046TIP3   OH230080   0.532   3.275   1.238
10046TIP3    H130081   0.576   3.324   1.307
10046TIP3    H230082   0.592   3.278   1.163
10047TIP3   OH230083   0.400   0.597   2.754
10047TIP3    H130084   0.346   0.569   2.681
10047TIP3    H230085   0.368   0.685   2.776
10048TIP3   OH230086   3.159   6.042   0.844
10048TIP3    H130087   3.087   6.074   0.789
10048TIP3    H230088   3.228   6.019   0.782
10049TIP3   OH230089   5.180   0.984   1.703
10049TIP3    H130090   5.135   0.963   1.621
10049TIP3    H230091   5.268   0.948   1.692
10050TIP3   OH230092   4.051   0.176   5.786
10050TIP3    H130093   4.118   0.127   5.740
10050TIP3    H230094   4.011   0.113   5.846
10051TIP3   OH230095   1.042   0.081   4.382
10051TIP3    H130096   1.082  -0.001   4.353
10051TIP3    H230097   0.949   0.070   4.363
10052TIP3   OH230098   7.951   0.727   2.809
10052TIP3    H130099   7.945   0.637   2.776
10052TIP3    H230100   8.009   0.771   2.747
10053TIP3   OH230101   4.978   2.169   0.826
10053TIP3    H130102   4.999   2.106   0.757
10053TIP3    H230103   5.050   2.232   0.823
10054TIP3   OH230104   5.719   2.759   1.888
10054TIP3    H130105   5.696   2.670   1.859
10054TIP3    H230106   5.685   2.816   1.819
10055TIP3   OH230107   3.571   4.189   3.458
10055TIP3    H130108   3.539   4.144   3.536
10055TIP3    H230109   3.656   4.224   3.484
10056TIP3   OH230110   0.305   6.417   5.317
10056TIP3    H130111   0.262   6.445   5.236
10056TIP3    H230112   0.261   6.467   5.386
10057TIP3   OH230113   2.491   6.910   3.380
10057TIP3    H130114   2.557   6.964   3.336
10057TIP3    H230115   2.450   6.969   3.443
10058TIP3   OH230116   2.900   0.341   1.537
10058TIP3    H130117   2.973   0.402   1.531
10058TIP3    H230118   2.855   0.348   1.453
10059TIP3   OH230119   1.735   1.765   1.161
10059TIP3    H130120   1.808   1.811   1.202
10059TIP3    H230121   1.752   1.773   1.067
10060TIP3   OH230122   5.675   6.199   5.720
10060TIP3    H130123   5.617   6.132   5.755
10060TIP3    H230124   5.748   6.150   5.682
10061TIP3   OH230125   1.746   7.278   5.971
10061TIP3    H130126   1.697   7.222   5.911
10061TIP3    H230127   1.805   7.327   5.913
10062TIP3   OH230128   2.780   5.745   4.173
10062TIP3    H130129   2.792   5.742   4.268
10062TIP3    H230130   2.758   5.836   4.155
10063TIP3   OH230131   3.287   0.490   3.959
10063TIP3    H130132   3.346   0.415   3.966
10063TIP3    H230133   3.210   0.464   4.009
10064TIP3   OH230134   4.160   1.345   5.221
10064TIP3    H130135   4.176   1.362   5.128
10064TIP3    H230136   4.101   1.269   5.222
10065TIP3   OH230137   0.530   6.777   3.249
10065TIP3    H130138   0.455   6.836   3.247
10065TIP3    H230139   0.509   6.709   3.186
10066TIP3   OH230140   0.908   5.581   4.316
10066TIP3    H130141   0.957   5.574   4.398
10066TIP3    H230142   0.880   5.672   4.313
10067TIP3   OH230143   7.457   4.401   5.742
10067TIP3    H130144   7.458   4.494   5.766
10067TIP3    H230145   7.387   4.363   5.794
10068TIP3   OH230146   3.762   5.718   6.403
10068TIP3    H130147   3.718   5.656   6.460
10068TIP3    H230148   3.710   5.718   6.322
10069TIP3   OH230149   7.235   5.739   3.554
10069TIP3    H130150   7.224   5.644   3.561
10069TIP3    H230151   7.329   5.752   3.540
10070TIP3   OH230152   0.307   1.391   6.037
10070TIP3    H130153   0.212   1.381   6.039
10070TIP3    H230154   0.325   1.464   6.096
10071TIP3   OH230155   5.781   4.409   3.598
10071TIP3    H130156   5.787   4.405   3.693
10071TIP3    H230157   5.692   4.440   3.581
10072TIP3   OH230158   0.688   7.753   5.551
10072TIP3    H130159   0.675   7.677   5.609
10072TIP3    H230160   0.776   7.739   5.515
10073TIP3   OH230161   1.225   4.382   5.354
10073TIP3    H130162   1.268   4.316   5.408
10073TIP3    H230163   1.276   4.461   5.368
10074TIP3   OH230164   2.015   3.447   4.122
10074TIP3    H130165   2.050   3.372   4.170
10074TIP3    H230166   1.949   3.410   4.064
10075TIP3   OH230167   1.587   3.308   6.517
10075TIP3    H130168   1.614   3.380   6.461
10075TIP3    H230169   1.496   3.326   6.539
10076TIP3   OH230170   0.730   0.788   3.963
10076TIP3    H130171   0.683   0.848   4.021
10076TIP3    H230172   0.801   0.754   4.017
10077TIP3   OH230173   5.719   0.519   5.629
10077TIP3    H130174   5.809   0.536   5.600
10077TIP3    H230175   5.725   0.437   5.679
10078TIP3   OH230176   1.189   4.662   1.351
10078TIP3    H130177   1.139   4.580   1.347
10078TIP3    H230178   1.241   4.654   1.430
10079TIP3   OH230179   3.587   3.543   3.608
10079TIP3    H130180   3.589   3.503   3.522
10079TIP3    H230181   3.653   3.612   3.604
10080TIP3   OH230182   1.911   4.732   5.930
10080TIP3    H130183   1.999   4.726   5.965
10080TIP3    H230184   1.917   4.797   5.860
10081TIP3   OH230185   4.854   6.328   4.503
10081TIP3    H130186   4.776   6.367   4.543
10081TIP3    H230187   4.886   6.396   4.444
10082TIP3   OH230188   5.601   0.423   2.012
10082TIP3    H130189   5.601   0.382   1.925
10082TIP3    H230190   5.693   0.421   2.039
10083TIP3   OH230191   3.507   4.081   4.752
10083TIP3    H130192   3.515   3.994   4.793
10083TIP3    H230193   3.429   4.119   4.792
10084TIP3   OH230194   0.430   0.116   2.135
10084TIP3    H130195   0.504   0.176   2.124
10084TIP3    H230196   0.412   0.084   2.047
10085TIP3   OH230197   3.692   5.686   0.947
10085TIP3    H130198   3.756   5.725   0.887
10085TIP3    H230199   3.745   5.637   1.011
10086TIP3   OH230200   6.825   6.415   1.465
10086TIP3    H130201   6.843   6.391   1.556
10086TIP3    H230202   6.841   6.335   1.415
10087TIP3   OH230203   5.193   1.442   6.663
10087TIP3    H130204   5.199   1.348   6.682
10087TIP3    H230205   5.159   1.481   6.743
10088TIP3   OH230206   2.666   0.907   6.421
10088TIP3    H130207   2.704   0.993   6.436
10088TIP3    H230208   2.741   0.849   6.409
10089TIP3   OH230209   7.677   7.197   1.026
10089TIP3    H130210   7.725   7.239   1.098
10089TIP3    H230211   7.714   7.109   1.020
10090TIP3   OH230212   5.353   7.845   4.386
10090TIP3    H130213   5.357   7.787   4.309
10090TIP3    H230214   5.259   7.857   4.401
10091TIP3   OH230215   1.574   4.000   2.295
10091TIP3    H130216   1.575   3.916   2.250
10091TIP3    H230217   1.666   4.027   2.297
10092TIP3   OH230218   7.958   4.244   3.049
10092TIP3    H130219   8.041   4.241   3.097
10092TIP3    H230220   7.922   4.331   3.066
10093TIP3   OH230221   7.627   7.777   6.289
10093TIP3    H130222   7.610   7.717   6.217
10093TIP3    H230223   7.542   7.786   6.333
10094TIP3   OH230224   4.286   5.890   3.760
10094TIP3    H130225   4.364   5.945   3.756
10094TIP3    H230226   4.314   5.811   3.807
10095TIP3   OH230227   5.069   6.331   1.030
10095TIP3    H130228   4.990   6.378   1.055
10095TIP3    H230229   5.124   6.331   1.108
10096TIP3   OH230230   3.345   2.940   4.301
10096TIP3    H130231   3.391   2.979   4.376
10096TIP3    H230232   3.255   2.973   4.309
10097TIP3   OH230233   4.696   7.578   2.447
10097TIP3    H130234   4.750   7.655   2.428
10097TIP3    H230235   4.744   7.505   2.408
10098TIP3   OH230236   2.847   1.701   0.949
10098TIP3    H130237   2.848   1.730   0.858
10098TIP3    H230238   2.849   1.781   1.001
10099TIP3   OH230239   3.195   4.525   1.611
10099TIP3    H130240   3.177   4.474   1.532
10099TIP3    H230241   3.238   4.463   1.670
10100TIP3   OH230242   5.817   2.502   4.696
10100TIP3    H130243   5.851   2.563   4.630
10100TIP3    H230244   5.893   2.477   4.748
10101TIP3   OH230245   4.292   7.797   0.740
10101TIP3    H130246   4.235   7.753   0.677
10101TIP3    H230247   4.371   7.817   0.690
10102TIP3   OH230248   7.238   3.462   0.884
10102TIP3    H130249   7.245   3.367   0.878
10102TIP3    H230250   7.171   3.477   0.951
10103TIP3   OH230251   0.652   6.216   0.869
10103TIP3    H130252   0.693   6.301   0.881
10103TIP3    H230253   0.701   6.176   0.797
10104TIP3   OH230254   2.627   6.782   5.948
10104TIP3    H130255   2.682   6.844   5.995
10104TIP3    H230256   2.587   6.728   6.016
10105TIP3   OH230257   0.711   5.815   4.987
10105TIP3    H130258   0.799   5.839   4.958
10105TIP3    H230259   0.679   5.893   5.032
10106TIP3   OH230260   2.654   2.958   4.738
10106TIP3    H130261   2.677   2.998   4.654
10106TIP3    H230262   2.592   2.889   4.715
10107TIP3   OH230263   5.510   7.144   0.048
10107TIP3    H130264   5.519   7.174   0.139
10107TIP3    H230265   5.442   7.201   0.011
10108TIP3   OH230266   6.411   5.369   3.706
10108TIP3    H130267   6.438   5.285   3.743
10108TIP3    H230268   6.402   5.426   3.782
10109TIP3   OH230269   1.810   5.418   6.750
10109TIP3    H130270   1.786   5.337   6.704
10109TIP3    H230271   1.901   5.405   6.777
10110TIP3   OH230272   7.701   3.331   6.509
10110TIP3    H130273   7.742   3.343   6.595
10110TIP3    H230274   7.689   3.420   6.476
10111TIP3   OH230275   8.090   0.856   2.573
10111TIP3    H130276   8.042   0.879   2.493
10111TIP3    H230277   8.140   0.778   2.548
10112TIP3   OH230278   6.510   0.786   6.027
10112TIP3    H130279   6.538   0.787   6.118
10112TIP3    H230280   6.589   0.760   5.979
10113TIP3   OH230281   7.072   3.502   1.131
10113TIP3    H130282   6.996   3.446   1.147
10113TIP3    H230283   7.129   3.488   1.207
10114TIP3   OH230284   1.198   5.001   1.325
10114TIP3    H130285   1.245   5.044   1.397
10114TIP3    H230286   1.232   4.912   1.323
10115TIP3   OH230287   0.005   6.445   0.339
10115TIP3    H130288   0.097   6.457   0.313
10115TIP3    H230289  -0.045   6.484   0.267
10116TIP3   OH230290   4.386   2.907   0.380
10116TIP3    H130291   4.420   2.827   0.419
10116TIP3    H230292   4.398   2.894   0.285
10117TIP3   OH230293   2.649   2.188   2.756
10117TIP3    H130294   2.706   2.234   2.694
10117TIP3    H230295   2.625   2.107   2.711
10118TIP3   OH230296   5.573   6.938   4.467
10118TIP3    H130297   5.515   6.885   4.412
10118TIP3    H230298   5.636   6.875   4.503
10119TIP3   OH230299   0.636   1.312   3.206
10119TIP3    H130300   0.633   1.223   3.241
10119TIP3    H230301   0.675   1.302   3.119
10120TIP3   OH230302   1.540   7.318   3.744
10120TIP3    H130303   1.533   7.372   3.665
10120TIP3    H230304   1.493   7.238   3.722
10121TIP3   OH230305   7.111   6.456   5.748
10121TIP3    H130306   7.200   6.431   5.772
10121TIP3    H230307   7.120   6.545   5.713
10122TIP3   OH230308   1.615   3.155   1.730
10122TIP3    H130309   1.552   3.222   1.754
10122TIP3    H230310   1.626   3.102   1.809
10123TIP3   OH230311   4.206   5.965   3.390
10123TIP3    H130312   4.139   6.033   3.393
10123TIP3    H230313   4.289   6.013   3.388
10124TIP3   OH230314   2.638   2.420   5.128
10124TIP3    H130315   2.596   2.499   5.094
10124TIP3    H230316   2.565   2.362   5.150
10125TIP3   OH230317   0.318   1.240   5.406
10125TIP3    H130318   0.366   1.278   5.332
10125TIP3    H230319   0.272   1.315   5.444
10126TIP3   OH230320   3.506   5.974   2.088
10126TIP3    H130321   3.431   5.960   2.031
10126TIP3    H230322   3.565   6.029   2.038
10127TIP3   OH230323   1.133   6.707   0.824
10127TIP3    H130324   1.224   6.679   0.835
10127TIP3    H230325   1.105   6.733   0.912
10128TIP3   OH230326   5.655   7.485   2.367
10128TIP3    H130327   5.656   7.559   2.428
10128TIP3    H230328   5.741   7.488   2.324
10129TIP3   OH230329   4.933   0.721   5.814
10129TIP3    H130330   4.905   0.685   5.898
10129TIP3    H230331   4.854   0.761   5.778
10130TIP3   OH230332   0.774   3.180   2.926
10130TIP3    H130333   0.843   3.116   2.946
10130TIP3    H230334   0.741   3.153   2.840
10131TIP3   OH230335   5.801   2.951   4.377
10131TIP3    H130336   5.733   2.965   4.442
10131TIP3    H230337   5.793   2.859   4.353
10132TIP3   OH230338   0.646   2.786   4.234
10132TIP3    H130339   0.729   2.780   4.281
10132TIP3    H230340   0.669   2.821   4.148
10133TIP3   OH230341   7.557   1.130   5.120
10133TIP3    H130342   7.490   1.197   5.128
10133TIP3    H230343   7.543   1.073   5.196
10134TIP3   OH230344   1.147   5.262   4.484
10134TIP3    H130345   1.108   5.175   4.474
10134TIP3    H230346   1.162   5.292   4.395
10135TIP3   OH230347   0.142   1.066   1.954
10135TIP3    H130348   0.049   1.071   1.975
10135TIP3    H230349   0.186   1.103   2.030
10136TIP3   OH230350   4.323   6.128   0.584
10136TIP3    H130351   4.327   6.088   0.671
10136TIP3    H230352   4.408   6.172   0.574
10137TIP3   OH230353   7.131   7.219   4.005
10137TIP3    H130354   7.036   7.206   4.000
10137TIP3    H230355   7.165   7.134   4.032
10138TIP3   OH230356   1.467   5.037   3.773
10138TIP3    H130357   1.415   4.972   3.821
10138TIP3    H230358   1.557   5.020   3.800
10139TIP3   OH230359   4.240   0.587   2.963
10139TIP3    H130360   4.225   0.494   2.947
10139TIP3    H230361   4.229   0.629   2.877
10140TIP3   OH230362   7.755   0.794   6.306
10140TIP3    H130363   7.813   0.799   6.382
10140TIP3    H230364   7.810   0.818   6.232
10141TIP3   OH230365   5.270   7.307   4.565
10141TIP3    H130366   5.213   7.328   4.639
10141TIP3    H230367   5.241   7.220   4.537
10142TIP3   OH230368   0.429   4.640   5.766
10142TIP3    H130369   0.449   4.731   5.788
10142TIP3    H230370   0.462   4.628   5.677
10143TIP3   OH230371   6.166   7.266   2.948
10143TIP3    H130372   6.212   7.293   3.028
10143TIP3    H230373   6.074   7.260   2.974
10144TIP3   OH230374   5.110   3.199   4.532
10144TIP3    H130375   5.106   3.292   4.555
10144TIP3    H230376   5.055   3.156   4.597
10145TIP3   OH230377   6.475   5.363   2.089
10145TIP3    H130378   6.539   5.298   2.060
10145TIP3    H230379   6.518   5.407   2.163
10146TIP3   OH230380   4.926   2.922   6.092
10146TIP3    H130381   5.015   2.919   6.058
10146TIP3    H230382   4.934   2.961   6.179
10147TIP3   OH230383   6.297   6.260   5.753
10147TIP3    H130384   6.271   6.333   5.809
10147TIP3    H230385   6.365   6.215   5.803
10148TIP3   OH230386   7.579   2.496   2.074
10148TIP3    H130387   7.648   2.483   2.138
10148TIP3    H230388   7.610   2.452   1.995
10149TIP3   OH230389   5.738   0.191   2.212
10149TIP3    H130390   5.734   0.183   2.116
10149TIP3    H230391   5.712   0.105   2.244
10150TIP3   OH230392   3.519   3.291   0.068
10150TIP3    H130393   3.574   3.212   0.063
10150TIP3    H230394   3.560   3.345   0.135
10151TIP3   OH230395   7.217   5.478   3.649
10151TIP3    H130396   7.259   5.491   3.734
10151TIP3    H230397   7.228   5.384   3.632
10152TIP3   OH230398   4.067   4.145   1.730
10152TIP3    H130399   4.125   4.180   1.797
10152TIP3    H230400   4.126   4.105   1.666
10153TIP3   OH230401   3.739   1.863   6.227
10153TIP3    H130402   3.666   1.912   6.264
10153TIP3    H230403   3.790   1.835   6.303
10154TIP3   OH230404   3.034   1.262   4.697
10154TIP3    H130405   3.003   1.352   4.682
10154TIP3    H230406   3.057   1.230   4.610
10155TIP3   OH230407   6.634   6.487   0.293
10155TIP3    H130408   6.632   6.392   0.287
10155TIP3    H230409   6.725   6.507   0.317
10156TIP3   OH230410   7.243   7.323   2.827
10156TIP3    H130411   7.157   7.283   2.840
10156TIP3    H230412   7.293   7.299   2.905
10157TIP3   OH230413   3.556   0.240   2.063
10157TIP3    H130414   3.620   0.311   2.061
10157TIP3    H230415   3.473   0.283   2.081
10158TIP3   OH230416   4.134   1.674   2.614
10158TIP3    H130417   4.067   1.736   2.586
10158TIP3    H230418   4.174   1.714   2.691
10159TIP3   OH230419   1.843   6.919   1.877
10159TIP3    H130420   1.870   7.009   1.895
10159TIP3    H230421   1.857   6.909   1.783
10160TIP3   OH230422   7.042   0.798   5.570
10160TIP3    H130423   7.134   0.777   5.584
10160TIP3    H230424   6.994   0.738   5.628
10161TIP3   OH230425   4.748   5.493   3.025
10161TIP3    H130426   4.837   5.470   2.997
10161TIP3    H230427   4.740   5.455   3.112
10162TIP3   OH230428   7.336   4.711   3.431
10162TIP3    H130429   7.263   4.754   3.387
10162TIP3    H230430   7.414   4.743   3.386
10163TIP3   OH230431   5.435   7.395   1.633
10163TIP3    H130432   5.428   7.339   1.555
10163TIP3    H230433   5.475   7.476   1.601
10164TIP3   OH230434   4.638   7.517   1.087
10164TIP3    H130435   4.629   7.561   1.002
10164TIP3    H230436   4.686   7.580   1.142
10165TIP3   OH230437   6.595   0.024   2.561
10165TIP3    H130438   6.594   0.113   2.524
10165TIP3    H230439   6.654  -0.025   2.504
10166TIP3   OH230440   8.193   2.265   3.018
10166TIP3    H130441   8.157   2.349   2.990
10166TIP3    H230442   8.145   2.200   2.967
10167TIP3   OH230443   4.699   5.624   6.804
10167TIP3    H130444   4.696   5.530   6.786
10167TIP3    H230445   4.695   5.665   6.718
10168TIP3   OH230446   4.336   6.290   0.273
10168TIP3    H130447   4.356   6.382   0.290
10168TIP3    H230448   4.404   6.241   0.319
10169TIP3   OH230449   4.787   4.142   4.362
10169TIP3    H130450   4.742   4.219   4.397
10169TIP3    H230451   4.801   4.085   4.437
10170TIP3   OH230452   2.787   5.131   2.726
10170TIP3    H130453   2.717   5.090   2.676
10170TIP3    H230454   2.745   5.203   2.773
10171TIP3   OH230455   3.844   1.877   2.173
10171TIP3    H130456   3.897   1.955   2.163
10171TIP3    H230457   3.784   1.897   2.245
10172TIP3   OH230458   0.178   6.258   4.964
10172TIP3    H130459   0.261   6.213   4.950
10172TIP3    H230460   0.113   6.203   4.919
10173TIP3   OH230461   3.689   6.271   2.361
10173TIP3    H130462   3.725   6.355   2.387
10173TIP3    H230463   3.627   6.249   2.430
10174TIP3   OH230464   3.841   6.077   1.759
10174TIP3    H130465   3.847   5.983   1.776
10174TIP3    H230466   3.932   6.107   1.757
10175TIP3   OH230467   2.573   0.213   1.042
10175TIP3    H130468   2.580   0.284   0.978
10175TIP3    H230469   2.487   0.225   1.082
10176TIP3   OH230470   2.864   2.551   5.630
10176TIP3    H130471   2.949   2.592   5.615
10176TIP3    H230472   2.834   2.526   5.542
10177TIP3   OH230473   3.522   0.359   4.197
10177TIP3    H130474   3.560   0.292   4.140
10177TIP3    H230475   3.431   0.330   4.210
10178TIP3   OH230476   7.838   5.605   0.527
10178TIP3    H130477   7.776   5.610   0.599
10178TIP3    H230478   7.889   5.686   0.533
10179TIP3   OH230479   7.400   4.405   1.316
10179TIP3    H130480   7.424   4.415   1.224
10179TIP3    H230481   7.384   4.312   1.327
10180TIP3   OH230482   5.648   7.470   2.741
10180TIP3    H130483   5.579   7.490   2.804
10180TIP3    H230484   5.637   7.534   2.671
10181TIP3   OH230485   0.257  -0.021   1.609
10181TIP3    H130486   0.299   0.064   1.596
10181TIP3    H230487   0.164  -0.001   1.617
10182TIP3   OH230488   5.484   5.934   1.057
10182TIP3    H130489   5.519   5.857   1.011
10182TIP3    H230490   5.543   5.945   1.132
10183TIP3   OH230491   7.217   2.529   1.817
10183TIP3    H130492   7.285   2.499   1.757
10183TIP3    H230493   7.136   2.494   1.780
10184TIP3   OH230494   2.788   0.674   3.469
10184TIP3    H130495   2.862   0.679   3.530
10184TIP3    H230496   2.762   0.765   3.456
10185TIP3   OH230497   3.246   1.210   3.984
10185TIP3    H130498   3.186   1.138   3.963
10185TIP3    H230499   3.188   1.284   4.004
10186TIP3   OH230500   6.731   4.912   1.077
10186TIP3    H130501   6.666   4.976   1.050
10186TIP3    H230502   6.797   4.914   1.007
10187TIP3   OH230503   1.267   6.940   3.292
10187TIP3    H130504   1.295   7.021   3.250
10187TIP3    H230505   1.183   6.962   3.333
10188TIP3   OH230506   1.991   5.566   0.406
10188TIP3    H130507   1.976   5.630   0.335
10188TIP3    H230508   1.981   5.481   0.364
10189TIP3   OH230509   0.986   2.944   3.823
10189TIP3    H130510   0.909   2.904   3.784
10189TIP3    H230511   1.060   2.898   3.784
10190TIP3   OH230512   0.029   3.325   5.219
10190TIP3    H130513   0.118   3.307   5.247
10190TIP3    H230514   0.034   3.408   5.172
10191TIP3   OH230515   8.285   3.905   0.064
10191TIP3    H130516   8.307   3.997   0.076
10191TIP3    H230517   8.369   3.860   0.059
10192TIP3   OH230518   1.587   6.222   5.829
10192TIP3    H130519   1.670   6.218   5.782
10192TIP3    H230520   1.527   6.263   5.767
10193TIP3   OH230521   6.442   1.359   2.878
10193TIP3    H130522   6.518   1.347   2.821
10193TIP3    H230523   6.413   1.449   2.861
10194TIP3   OH230524   5.414   2.677   2.402
10194TIP3    H130525   5.406   2.605   2.339
10194TIP3    H230526   5.455   2.638   2.479
10195TIP3   OH230527   6.561   5.951   4.078
10195TIP3    H130528   6.557   5.894   4.002
10195TIP3    H230529   6.650   5.985   4.078
10196TIP3   OH230530   7.547   5.164   1.184
10196TIP3    H130531   7.517   5.168   1.274
10196TIP3    H230532   7.532   5.073   1.158
10197TIP3   OH230533   5.759   4.929   3.045
10197TIP3    H130534   5.845   4.958   3.015
10197TIP3    H230535   5.699   4.960   2.977
10198TIP3   OH230536   2.343   1.825   3.624
10198TIP3    H130537   2.280   1.872   3.569
10198TIP3    H230538   2.292   1.755   3.665
10199TIP3   OH230539   2.083   1.960   6.270
10199TIP3    H130540   2.048   2.049   6.262
10199TIP3    H230541   2.156   1.957   6.208
10200TIP3   OH230542   5.312   7.553   2.350
10200TIP3    H130543   5.389   7.501   2.328
10200TIP3    H230544   5.332   7.641   2.318
10201TIP3   OH230545   2.554   1.756   6.168
10201TIP3    H130546   2.587   1.746   6.079
10201TIP3    H230547   2.621   1.717   6.223
10202TIP3   OH230548   7.141   1.442   5.647
10202TIP3    H130549   7.150   1.397   5.731
10202TIP3    H230550   7.179   1.382   5.583
10203TIP3   OH230551   4.984   0.120   3.836
10203TIP3    H130552   5.057   0.153   3.784
10203TIP3    H230553   4.967   0.190   3.899
10204TIP3   OH230554   5.761   3.873   3.703
10204TIP3    H130555   5.764   3.888   3.798
10204TIP3    H230556   5.675   3.905   3.676
10205TIP3   OH230557   6.976   6.053   2.404
10205TIP3    H130558   7.021   6.019   2.326
10205TIP3    H230559   7.031   6.025   2.477
10206TIP3   OH230560   2.877   0.583   0.413
10206TIP3    H130561   2.874   0.507   0.356
10206TIP3    H230562   2.828   0.651   0.366
10207TIP3   OH230563   5.590   2.521   1.798
10207TIP3    H130564   5.506   2.503   1.838
10207TIP3    H230565   5.618   2.437   1.762
10208TIP3   OH230566   5.819   3.410   0.646
10208TIP3    H130567   5.876   3.482   0.619
10208TIP3    H230568   5.819   3.414   0.741
10209TIP3   OH230569   5.552   3.494   4.215
10209TIP3    H130570   5.545   3.416   4.159
10209TIP3    H230571   5.470   3.495   4.265
10210TIP3   OH230572   6.922   0.910   1.908
10210TIP3    H130573   6.887   0.841   1.851
10210TIP3    H230574   6.905   0.878   1.996
10211TIP3   OH230575   1.665   1.897   3.654
10211TIP3    H130576   1.700   1.815   3.619
10211TIP3    H230577   1.738   1.959   3.649
10212TIP3   OH230578   4.513   2.676   0.093
10212TIP3    H130579   4.542   2.694   0.183
10212TIP3    H230580   4.426   2.638   0.104
10213TIP3   OH230581   5.309   6.407   4.081
10213TIP3    H130582   5.243   6.450   4.026
10213TIP3    H230583   5.333   6.328   4.032
10214TIP3   OH230584   4.688   4.691   0.295
10214TIP3    H130585   4.742   4.644   0.358
10214TIP3    H230586   4.613   4.634   0.279
10215TIP3   OH230587   6.548   4.107   4.249
10215TIP3    H130588   6.624   4.147   4.206
10215TIP3    H230589   6.527   4.167   4.321
10216TIP3   OH230590   0.610   3.419   0.477
10216TIP3    H130591   0.646   3.408   0.565
10216TIP3    H230592   0.686   3.418   0.419
10217TIP3   OH230593   2.167   2.252   5.441
10217TIP3    H130594   2.128   2.262   5.527
10217TIP3    H230595   2.156   2.159   5.420
10218TIP3   OH230596   5.450   1.097   5.074
10218TIP3    H130597   5.456   1.047   5.155
10218TIP3    H230598   5.363   1.139   5.077
10219TIP3   OH230599   2.380   0.633   0.900
10219TIP3    H130600   2.345   0.719   0.873
10219TIP3    H230601   2.474   0.641   0.884
10220TIP3   OH230602   1.371   0.762   4.894
10220TIP3    H130603   1.323   0.811   4.827
10220TIP3    H230604   1.338   0.796   4.977
10221TIP3   OH230605   3.867   6.238   4.865
10221TIP3    H130606   3.784   6.192   4.858
10221TIP3    H230607   3.933   6.169   4.872
10222TIP3   OH230608   3.061   0.588   5.387
10222TIP3    H130609   3.009   0.562   5.463
10222TIP3    H230610   3.079   0.506   5.341
10223TIP3   OH230611   0.797   6.107   6.695
10223TIP3    H130612   0.867   6.171   6.681
10223TIP3    H230613   0.838   6.023   6.672
10224TIP3   OH230614   2.531   0.004   6.411
10224TIP3    H130615   2.458   0.060   6.385
10224TIP3    H230616   2.525  -0.072   6.352
10225TIP3   OH230617   4.857   4.135   5.118
10225TIP3    H130618   4.772   4.170   5.146
10225TIP3    H230619   4.849   4.123   5.024
10226TIP3   OH230620   1.943   5.917   4.528
10226TIP3    H130621   1.982   5.829   4.524
10226TIP3    H230622   2.017   5.976   4.541
10227TIP3   OH230623   6.065   7.153   4.246
10227TIP3    H130624   5.979   7.126   4.277
10227TIP3    H230625   6.057   7.154   4.151
10228TIP3   OH230626   4.402   3.951   3.121
10228TIP3    H130627   4.372   4.038   3.147
10228TIP3    H230628   4.341   3.924   3.053
10229TIP3   OH230629   6.349   1.244   4.915
10229TIP3    H130630   6.309   1.324   4.881
10229TIP3    H230631   6.289   1.213   4.982
10230TIP3   OH230632   4.582   2.643   2.898
10230TIP3    H130633   4.546   2.718   2.944
10230TIP3    H230634   4.582   2.669   2.805
10231TIP3   OH230635   2.352   3.708   6.693
10231TIP3    H130636   2.342   3.628   6.744
10231TIP3    H230637   2.421   3.688   6.630
10232TIP3   OH230638   2.376   1.187   3.081
10232TIP3    H130639   2.434   1.156   3.150
10232TIP3    H230640   2.408   1.275   3.060
10233TIP3   OH230641   0.803   5.413   5.971
10233TIP3    H130642   0.878   5.368   5.932
10233TIP3    H230643   0.789   5.489   5.914
10234TIP3   OH230644   0.396   1.249   5.126
10234TIP3    H130645   0.425   1.329   5.170
10234TIP3    H230646   0.330   1.279   5.063
10235TIP3   OH230647   8.107   1.491   6.073
10235TIP3    H130648   8.077   1.514   5.985
10235TIP3    H230649   8.131   1.575   6.113
10236TIP3   OH230650   2.287   2.279   3.499
10236TIP3    H130651   2.360   2.238   3.453
10236TIP3    H230652   2.314   2.371   3.509
10237TIP3   OH230653   3.572   3.296   2.473
10237TIP3    H130654   3.492   3.346   2.458
10237TIP3    H230655   3.544   3.220   2.524
10238TIP3   OH230656   3.625   0.739   0.503
10238TIP3    H130657   3.668   0.751   0.418
10238TIP3    H230658   3.667   0.662   0.540
10239TIP3   OH230659   0.544   6.787   4.071
10239TIP3    H130660   0.534   6.779   4.166
10239TIP3    H230661   0.553   6.697   4.040
10240TIP3   OH230662   6.336   4.554   5.474
10240TIP3    H130663   6.250   4.579   5.439
10240TIP3    H230664   6.389   4.535   5.396
10241TIP3   OH230665   2.172   4.414   2.924
10241TIP3    H130666   2.226   4.389   2.848
10241TIP3    H230667   2.236   4.435   2.992
10242TIP3   OH230668   1.227   5.932   3.094
10242TIP3    H130669   1.186   5.991   3.031
10242TIP3    H230670   1.254   5.857   3.041
10243TIP3   OH230671   0.773   3.724   6.767
10243TIP3    H130672   0.723   3.665   6.710
10243TIP3    H230673   0.829   3.773   6.707
10244TIP3   OH230674   5.675   2.883   0.702
10244TIP3    H130675   5.667   2.793   0.735
10244TIP3    H230676   5.586   2.906   0.675
10245TIP3   OH230677   2.388   6.693   0.169
10245TIP3    H130678   2.325   6.732   0.228
10245TIP3    H230679   2.387   6.750   0.092
10246TIP3   OH230680   5.139   7.075   4.476
10246TIP3    H130681   5.109   6.999   4.426
10246TIP3    H230682   5.099   7.150   4.433
10247TIP3   OH230683   2.204   0.874   4.476
10247TIP3    H130684   2.265   0.944   4.496
10247TIP3    H230685   2.252   0.793   4.497
10248TIP3   OH230686   4.457   5.403   0.920
10248TIP3    H130687   4.477   5.483   0.969
10248TIP3    H230688   4.542   5.359   0.912
10249TIP3   OH230689   6.734   6.932   3.958
10249TIP3    H130690   6.650   6.914   3.916
10249TIP3    H230691   6.772   6.845   3.975
10250TIP3   OH230692   3.154   7.301   3.536
10250TIP3    H130693   3.207   7.278   3.459
10250TIP3    H230694   3.173   7.393   3.551
10251TIP3   OH230695   3.954   6.250   5.470
10251TIP3    H130696   3.873   6.202   5.485
10251TIP3    H230697   3.969   6.243   5.376
10252TIP3   OH230698   2.953   3.847   2.053
10252TIP3    H130699   3.014   3.809   2.117
10252TIP3    H230700   2.963   3.792   1.975
10253TIP3   OH230701   3.549   6.321   1.388
10253TIP3    H130702   3.627   6.306   1.442
10253TIP3    H230703   3.575   6.392   1.329
10254TIP3   OH230704   5.672   5.563   0.327
10254TIP3    H130705   5.663   5.659   0.323
10254TIP3    H230706   5.582   5.531   0.329
10255TIP3   OH230707   6.151   3.325   4.046
10255TIP3    H130708   6.132   3.231   4.055
10255TIP3    H230709   6.111   3.365   4.122
10256TIP3   OH230710   4.651   3.042   2.881
10256TIP3    H130711   4.603   2.981   2.937
10256TIP3    H230712   4.583   3.096   2.840
10257TIP3   OH230713   3.800   1.086   0.958
10257TIP3    H130714   3.825   1.139   0.883
10257TIP3    H230715   3.753   1.011   0.921
10258TIP3   OH230716   3.262   1.030   6.511
10258TIP3    H130717   3.194   1.012   6.576
10258TIP3    H230718   3.336   0.974   6.537
10259TIP3   OH230719   7.937   7.537   4.289
10259TIP3    H130720   7.908   7.593   4.361
10259TIP3    H230721   7.922   7.448   4.321
10260TIP3   OH230722   1.309   3.239   3.549
10260TIP3    H130723   1.248   3.215   3.619
10260TIP3    H230724   1.394   3.248   3.593
10261TIP3   OH230725   2.726   4.786   0.779
10261TIP3    H130726   2.772   4.829   0.708
10261TIP3    H230727   2.636   4.777   0.747
10262TIP3   OH230728   6.613   7.816   3.360
10262TIP3    H130729   6.541   7.878   3.347
10262TIP3    H230730   6.574   7.730   3.343
10263TIP3   OH230731   4.643   3.483   6.353
10263TIP3    H130732   4.618   3.561   6.303
10263TIP3    H230733   4.668   3.419   6.287
10264TIP3   OH230734   1.483   1.522  -0.013
10264TIP3    H130735   1.430   1.493   0.062
10264TIP3    H230736   1.504   1.613   0.006
10265TIP3   OH230737   1.368   1.023   1.073
10265TIP3    H130738   1.458   1.002   1.046
10265TIP3    H230739   1.378   1.062   1.160
10266TIP3   OH230740   5.166   5.376   1.402
10266TIP3    H130741   5.102   5.309   1.424
10266TIP3    H230742   5.250   5.330   1.402
10267TIP3   OH230743   1.304   5.643   3.273
10267TIP3    H130744   1.209   5.650   3.273
10267TIP3    H230745   1.333   5.699   3.345
10268TIP3   OH230746   4.719   0.532   3.248
10268TIP3    H130747   4.674   0.578   3.318
10268TIP3    H230748   4.803   0.577   3.238
10269TIP3   OH230749   6.364   6.881   1.346
10269TIP3    H130750   6.454   6.871   1.375
10269TIP3    H230751   6.352   6.811   1.281
10270TIP3   OH230752   1.146   6.054   1.889
10270TIP3    H130753   1.161   5.959   1.889
10270TIP3    H230754   1.208   6.087   1.954
10271TIP3   OH230755   0.163   6.879   2.663
10271TIP3    H130756   0.068   6.881   2.655
10271TIP3    H230757   0.184   6.960   2.711
10272TIP3   OH230758   6.951   2.894   4.580
10272TIP3    H130759   6.947   2.927   4.490
10272TIP3    H230760   7.045   2.886   4.598
10273TIP3   OH230761   4.049   5.994   2.255
10273TIP3    H130762   4.046   5.923   2.191
10273TIP3    H230763   4.057   5.949   2.339
10274TIP3   OH230764   4.254   4.930   5.179
10274TIP3    H130765   4.174   4.974   5.150
10274TIP3    H230766   4.229   4.888   5.261
10275TIP3   OH230767   1.314   1.612   5.896
10275TIP3    H130768   1.276   1.526   5.876
10275TIP3    H230769   1.296   1.626   5.989
10276TIP3   OH230770   0.740   2.794   5.628
10276TIP3    H130771   0.758   2.735   5.702
10276TIP3    H230772   0.666   2.755   5.583
10277TIP3   OH230773   2.917   4.411   2.505
10277TIP3    H130774   2.959   4.390   2.588
10277TIP3    H230775   2.891   4.503   2.513
10278TIP3   OH230776   0.442   7.539   4.013
10278TIP3    H130777   0.469   7.450   4.037
10278TIP3    H230778   0.358   7.528   3.969
10279TIP3   OH230779   7.443   3.224   2.107
10279TIP3    H130780   7.427   3.315   2.080
10279TIP3    H230781   7.428   3.172   2.028
10280TIP3   OH230782   2.774   3.394   6.569
10280TIP3    H130783   2.764   3.302   6.593
10280TIP3    H230784   2.806   3.392   6.479
10281TIP3   OH230785   2.454   1.357   4.270
10281TIP3    H130786   2.440   1.440   4.224
10281TIP3    H230787   2.421   1.290   4.210
10282TIP3   OH230788   3.765   3.616   1.683
10282TIP3    H130789   3.778   3.662   1.601
10282TIP3    H230790   3.732   3.682   1.743
10283TIP3   OH230791   5.522   2.858   3.124
10283TIP3    H130792   5.456   2.820   3.183
10283TIP3    H230793   5.606   2.834   3.163
10284TIP3   OH230794   5.235   0.228   6.375
10284TIP3    H130795   5.140   0.242   6.381
10284TIP3    H230796   5.243   0.142   6.333
10285TIP3   OH230797   5.451   6.663   3.132
10285TIP3    H130798   5.471   6.572   3.154
10285TIP3    H230799   5.435   6.662   3.038
10286TIP3   OH230800   4.104   6.592   0.778
10286TIP3    H130801   4.086   6.686   0.774
10286TIP3    H230802   4.096   6.562   0.688
10287TIP3   OH230803   7.222   7.297   5.316
10287TIP3    H130804   7.207   7.303   5.222
10287TIP3    H230805   7.265   7.213   5.329
10288TIP3   OH230806   1.053   1.228   2.946
10288TIP3    H130807   1.071   1.321   2.959
10288TIP3    H230808   1.133   1.193   2.909
10289TIP3   OH230809   6.514   5.640   3.662
10289TIP3    H130810   6.459   5.669   3.589
10289TIP3    H230811   6.553   5.558   3.633
10290TIP3   OH230812   8.061   5.784   0.903
10290TIP3    H130813   7.971   5.799   0.876
10290TIP3    H230814   8.082   5.857   0.961
10291TIP3   OH230815   4.028   5.538   0.789
10291TIP3    H130816   3.951   5.501   0.746
10291TIP3    H230817   3.997   5.618   0.831
10292TIP3   OH230818   7.868   3.635   3.737
10292TIP3    H130819   7.816   3.567   3.781
10292TIP3    H230820   7.923   3.671   3.806
10293TIP3   OH230821   6.904   6.443   3.968
10293TIP3    H130822   6.827   6.470   3.917
10293TIP3    H230823   6.978   6.480   3.920
10294TIP3   OH230824   0.078   4.698   2.959
10294TIP3    H130825   0.141   4.766   2.984
10294TIP3    H230826   0.132   4.619   2.949
10295TIP3   OH230827   6.448   2.778   4.130
10295TIP3    H130828   6.440   2.871   4.150
10295TIP3    H230829   6.388   2.764   4.056
10296TIP3   OH230830   2.481   5.148   5.079
10296TIP3    H130831   2.397   5.193   5.082
10296TIP3    H230832   2.541   5.206   5.127
10297TIP3   OH230833   7.913   0.496   2.663
10297TIP3    H130834   7.915   0.404   2.638
10297TIP3    H230835   7.820   0.518   2.668
10298TIP3   OH230836   5.452   0.573   3.264
10298TIP3    H130837   5.445   0.613   3.177
10298TIP3    H230838   5.531   0.612   3.302
10299TIP3   OH230839   5.202   6.412   2.493
10299TIP3    H130840   5.132   6.374   2.546
10299TIP3    H230841   5.187   6.379   2.405
10300TIP3   OH230842   0.792   3.413   5.440
10300TIP3    H130843   0.808   3.338   5.383
10300TIP3    H230844   0.796   3.489   5.381
10301TIP3   OH230845   4.779   2.250   0.590
10301TIP3    H130846   4.777   2.297   0.673
10301TIP3    H230847   4.871   2.228   0.577
10302TIP3   OH230848   7.197   3.301   3.055
10302TIP3    H130849   7.140   3.377   3.045
10302TIP3    H230850   7.186   3.252   2.974
10303TIP3   OH230851   1.764   0.751   5.426
10303TIP3    H130852   1.720   0.822   5.474
10303TIP3    H230853   1.754   0.775   5.334
10304TIP3   OH230854   0.169   6.002   5.415
10304TIP3    H130855   0.232   6.059   5.459
10304TIP3    H230856   0.113   5.969   5.485
10305TIP3   OH230857   4.750   1.254   6.070
10305TIP3    H130858   4.782   1.164   6.080
10305TIP3    H230859   4.816   1.297   6.016
10306TIP3   OH230860   2.130   6.556   0.809
10306TIP3    H130861   2.043   6.532   0.777
10306TIP3    H230862   2.187   6.550   0.733
10307TIP3   OH230863   5.487   1.902   1.354
10307TIP3    H130864   5.496   1.906   1.449
10307TIP3    H230865   5.467   1.992   1.329
10308TIP3   OH230866   6.611   7.155   2.254
10308TIP3    H130867   6.535   7.143   2.197
10308TIP3    H230868   6.597   7.094   2.326
10309TIP3   OH230869   1.637   2.104   5.190
10309TIP3    H130870   1.600   2.071   5.272
10309TIP3    H230871   1.701   2.170   5.218
10310TIP3   OH230872   8.041   3.315   5.754
10310TIP3    H130873   8.076   3.358   5.832
10310TIP3    H230874   7.964   3.267   5.785
10311TIP3   OH230875   0.320   1.880   0.673
10311TIP3    H130876   0.364   1.925   0.745
10311TIP3    H230877   0.363   1.795   0.667
10312TIP3   OH230878   0.669   2.198   0.402
10312TIP3    H130879   0.622   2.144   0.338
10312TIP3    H230880   0.638   2.165   0.487
10313TIP3   OH230881   5.926   4.744   4.334
10313TIP3    H130882   5.941   4.831   4.372
10313TIP3    H230883   5.982   4.686   4.385
10314TIP3   OH230884   2.942   1.220   0.646
10314TIP3    H130885   2.883   1.169   0.591
10314TIP3    H230886   2.889   1.294   0.676
10315TIP3   OH230887   1.356   3.289   2.533
10315TIP3    H130888   1.388   3.377   2.553
10315TIP3    H230889   1.399   3.232   2.597
10316TIP3   OH230890   7.842   7.513   4.012
10316TIP3    H130891   7.751   7.536   4.030
10316TIP3    H230892   7.886   7.517   4.097
10317TIP3   OH230893   1.753   4.890   2.765
10317TIP3    H130894   1.788   4.918   2.680
10317TIP3    H230895   1.711   4.969   2.800
10318TIP3   OH230896   5.154   1.446   1.755
10318TIP3    H130897   5.203   1.365   1.766
10318TIP3    H230898   5.213   1.504   1.708
10319TIP3   OH230899   7.652   6.847   4.911
10319TIP3    H130900   7.733   6.813   4.948
10319TIP3    H230901   7.619   6.909   4.977
10320TIP3   OH230902   5.744   6.432   3.010
10320TIP3    H130903   5.726   6.352   2.961
10320TIP3    H230904   5.787   6.490   2.948
10321TIP3   OH230905   8.154   3.922   1.872
10321TIP3    H130906   8.198   3.965   1.799
10321TIP3    H230907   8.199   3.954   1.950
10322TIP3   OH230908   5.677   5.665   2.963
10322TIP3    H130909   5.625   5.592   2.997
10322TIP3    H230910   5.727   5.696   3.039
10323TIP3   OH230911   0.146   1.087   6.786
10323TIP3    H130912   0.124   1.060   6.697
10323TIP3    H230913   0.180   1.176   6.777
10324TIP3   OH230914   0.103   0.562   1.984
10324TIP3    H130915   0.130   0.644   1.942
10324TIP3    H230916   0.115   0.495   1.917
10325TIP3   OH230917   3.601   3.370   3.052
10325TIP3    H130918   3.695   3.360   3.070
10325TIP3    H230919   3.591   3.461   3.026
10326TIP3   OH230920   4.642   2.224   0.346
10326TIP3    H130921   4.705   2.210   0.417
10326TIP3    H230922   4.560   2.247   0.391
10327TIP3   OH230923   6.834   5.841   5.637
10327TIP3    H130924   6.930   5.847   5.636
10327TIP3    H230925   6.807   5.906   5.702
10328TIP3   OH230926   3.555   1.709   2.210
10328TIP3    H130927   3.591   1.794   2.232
10328TIP3    H230928   3.496   1.725   2.136
10329TIP3   OH230929   1.821   0.234   5.451
10329TIP3    H130930   1.752   0.188   5.404
10329TIP3    H230931   1.775   0.284   5.519
10330TIP3   OH230932   7.992   2.869   6.105
10330TIP3    H130933   8.071   2.822   6.076
10330TIP3    H230934   8.019   2.960   6.110
10331TIP3   OH230935   7.941   7.475   1.611
10331TIP3    H130936   7.894   7.405   1.657
10331TIP3    H230937   7.942   7.548   1.673
10332TIP3   OH230938   0.990   1.531   1.572
10332TIP3    H130939   0.991   1.493   1.484
10332TIP3    H230940   0.980   1.625   1.557
10333TIP3   OH230941   0.625   1.428   6.728
10333TIP3    H130942   0.584   1.352   6.769
10333TIP3    H230943   0.639   1.490   6.799
10334TIP3   OH230944   2.708   4.662   5.431
10334TIP3    H130945   2.621   4.680   5.466
10334TIP3    H230946   2.721   4.568   5.446
10335TIP3   OH230947   1.509   7.299   1.514
10335TIP3    H130948   1.493   7.379   1.462
10335TIP3    H230949   1.465   7.230   1.465
10336TIP3   OH230950   3.798   4.444   2.438
10336TIP3    H130951   3.719   4.392   2.452
10336TIP3    H230952   3.766   4.534   2.426
10337TIP3   OH230953   0.892   4.961   3.264
10337TIP3    H130954   0.871   5.048   3.228
10337TIP3    H230955   0.822   4.944   3.327
10338TIP3   OH230956   3.536   0.208   6.438
10338TIP3    H130957   3.607   0.242   6.491
10338TIP3    H230958   3.506   0.129   6.484
10339TIP3   OH230959   3.218   7.292   6.483
10339TIP3    H130960   3.204   7.232   6.411
10339TIP3    H230961   3.187   7.245   6.560
10340TIP3   OH230962   6.968   7.576   0.082
10340TIP3    H130963   6.909   7.578   0.157
10340TIP3    H230964   7.056   7.575   0.121
10341TIP3   OH230965   5.573   3.350   5.807
10341TIP3    H130966   5.661   3.319   5.827
10341TIP3    H230967   5.560   3.425   5.866
10342TIP3   OH230968   1.741   2.764   3.498
10342TIP3    H130969   1.813   2.719   3.453
10342TIP3    H230970   1.759   2.857   3.483
10343TIP3   OH230971   3.391   5.848   2.375
10343TIP3    H130972   3.359   5.932   2.344
10343TIP3    H230973   3.393   5.793   2.296
10344TIP3   OH230974   1.436   5.265   6.663
10344TIP3    H130975   1.371   5.229   6.602
10344TIP3    H230976   1.507   5.296   6.606
10345TIP3   OH230977   3.698   0.999   5.331
10345TIP3    H130978   3.753   1.019   5.255
10345TIP3    H230979   3.721   1.066   5.395
10346TIP3   OH230980   4.879   3.128   4.932
10346TIP3    H130981   4.789   3.151   4.911
10346TIP3    H230982   4.912   3.083   4.854
10347TIP3   OH230983   7.820   0.349   4.045
10347TIP3    H130984   7.735   0.381   4.074
10347TIP3    H230985   7.882   0.418   4.069
10348TIP3   OH230986   6.676   3.457   1.889
10348TIP3    H130987   6.654   3.441   1.797
10348TIP3    H230988   6.656   3.550   1.902
10349TIP3   OH230989   1.449   4.793   1.323
10349TIP3    H130990   1.455   4.698   1.330
10349TIP3    H230991   1.406   4.808   1.238
10350TIP3   OH230992   7.736   4.763   3.796
10350TIP3    H130993   7.799   4.692   3.790
10350TIP3    H230994   7.654   4.726   3.763
10351TIP3   OH230995   7.830   2.467   1.368
10351TIP3    H130996   7.842   2.385   1.416
10351TIP3    H230997   7.913   2.513   1.377
10352TIP3   OH230998   0.630   1.344   5.542
10352TIP3    H130999   0.689   1.319   5.613
10352TIP3    H231000   0.583   1.420   5.576
10353TIP3   OH231001   6.578   4.611   2.103
10353TIP3    H131002   6.639   4.582   2.036
10353TIP3    H231003   6.500   4.556   2.090
10354TIP3   OH231004   7.035   6.732   5.982
10354TIP3    H131005   6.994   6.720   5.896
10354TIP3    H231006   7.129   6.734   5.963
10355TIP3   OH231007   7.492   0.410   5.443
10355TIP3    H131008   7.409   0.364   5.427
10355TIP3    H231009   7.537   0.356   5.508
10356TIP3   OH231010   0.517   5.820   4.573
10356TIP3    H131011   0.570   5.744   4.595
10356TIP3    H231012   0.427   5.790   4.587
10357TIP3   OH231013   2.251   1.868   5.112
10357TIP3    H131014   2.171   1.824   5.083
10357TIP3    H231015   2.236   1.960   5.092
10358TIP3   OH231016   3.384   6.012   3.641
10358TIP3    H131017   3.404   5.965   3.723
10358TIP3    H231018   3.466   6.052   3.615
10359TIP3   OH231019   3.117   1.154   1.641
10359TIP3    H131020   3.158   1.069   1.624
10359TIP3    H231021   3.119   1.199   1.557
10360TIP3   OH231022   7.959   5.997   2.928
10360TIP3    H131023   8.052   5.993   2.905
10360TIP3    H231024   7.915   6.011   2.844
10361TIP3   OH231025   6.438   1.663   3.813
10361TIP3    H131026   6.438   1.695   3.723
10361TIP3    H231027   6.375   1.591   3.814
10362TIP3   OH231028   5.046   6.638   4.542
10362TIP3    H131029   5.103   6.569   4.576
10362TIP3    H231030   4.979   6.649   4.609
10363TIP3   OH231031   8.058   3.261   5.243
10363TIP3    H131032   8.063   3.221   5.329
10363TIP3    H231033   8.144   3.301   5.230
10364TIP3   OH231034   5.263   6.527   1.835
10364TIP3    H131035   5.305   6.487   1.759
10364TIP3    H231036   5.290   6.619   1.830
10365TIP3   OH231037   6.779   2.737   5.374
10365TIP3    H131038   6.704   2.689   5.410
10365TIP3    H231039   6.788   2.703   5.285
10366TIP3   OH231040   3.199   1.413   4.212
10366TIP3    H131041   3.107   1.406   4.188
10366TIP3    H231042   3.209   1.355   4.287
10367TIP3   OH231043   3.961   3.590   2.378
10367TIP3    H131044   4.028   3.521   2.373
10367TIP3    H231045   4.006   3.669   2.347
10368TIP3   OH231046   7.242   4.545   4.006
10368TIP3    H131047   7.280   4.633   4.010
10368TIP3    H231048   7.147   4.559   4.012
10369TIP3   OH231049   4.315   0.618   4.609
10369TIP3    H131050   4.229   0.621   4.651
10369TIP3    H231051   4.378   0.620   4.681
10370TIP3   OH231052   0.728   4.455   5.320
10370TIP3    H131053   0.732   4.433   5.413
10370TIP3    H231054   0.779   4.536   5.313
10371TIP3   OH231055   7.026   2.452   1.286
10371TIP3    H131056   7.040   2.364   1.322
10371TIP3    H231057   6.931   2.459   1.276
10372TIP3   OH231058   2.762   7.301   3.997
10372TIP3    H131059   2.755   7.289   3.903
10372TIP3    H231060   2.764   7.212   4.033
10373TIP3   OH231061   0.589   1.268   2.293
10373TIP3    H131062   0.640   1.195   2.257
10373TIP3    H231063   0.520   1.284   2.229
10374TIP3   OH231064   2.072   6.009   1.187
10374TIP3    H131065   2.096   5.986   1.277
10374TIP3    H231066   2.010   6.082   1.198
10375TIP3   OH231067   4.566   6.132   6.450
10375TIP3    H131068   4.514   6.154   6.372
10375TIP3    H231069   4.501   6.121   6.519
10376TIP3   OH231070   5.786   4.108   2.446
10376TIP3    H131071   5.771   4.033   2.387
10376TIP3    H231072   5.841   4.072   2.516
10377TIP3   OH231073   5.896   5.506   6.293
10377TIP3    H131074   5.857   5.436   6.241
10377TIP3    H231075   5.830   5.576   6.291
10378TIP3   OH231076   0.739   3.444   4.215
10378TIP3    H131077   0.819   3.416   4.171
10378TIP3    H231078   0.690   3.363   4.228
10379TIP3   OH231079   4.773   5.172   5.952
10379TIP3    H131080   4.844   5.161   6.015
10379TIP3    H231081   4.791   5.257   5.910
10380TIP3   OH231082   4.888   4.224   2.315
10380TIP3    H131083   4.929   4.284   2.252
10380TIP3    H231084   4.958   4.166   2.343
10381TIP3   OH231085   1.046   6.590   2.659
10381TIP3    H131086   1.003   6.662   2.706
10381TIP3    H231087   0.975   6.547   2.611
10382TIP3   OH231088   5.182   4.648   6.589
10382TIP3    H131089   5.141   4.640   6.675
10382TIP3    H231090   5.213   4.739   6.585
10383TIP3   OH231091   4.920   5.577   1.923
10383TIP3    H131092   4.989   5.639   1.944
10383TIP3    H231093   4.952   5.529   1.846
10384TIP3   OH231094   2.843   1.043   0.459
10384TIP3    H131095   2.883   1.065   0.375
10384TIP3    H231096   2.770   0.985   0.437
10385TIP3   OH231097   2.787   6.840   4.890
10385TIP3    H131098   2.716   6.793   4.933
10385TIP3    H231099   2.854   6.851   4.957
10386TIP3   OH231100   5.917   7.069   3.252
10386TIP3    H131101   5.856   7.009   3.209
10386TIP3    H231102   5.907   7.151   3.205
10387TIP3   OH231103   8.016   0.495   3.282
10387TIP3    H131104   8.018   0.442   3.362
10387TIP3    H231105   7.927   0.530   3.279
10388TIP3   OH231106   5.206   6.705   4.145
10388TIP3    H131107   5.172   6.616   4.152
10388TIP3    H231108   5.179   6.734   4.057
10389TIP3   OH231109   6.506   1.094   4.347
10389TIP3    H131110   6.539   1.175   4.307
10389TIP3    H231111   6.485   1.037   4.274
10390TIP3   OH231112   4.927   0.706   4.583
10390TIP3    H131113   4.971   0.630   4.543
10390TIP3    H231114   4.998   0.754   4.626
10391TIP3   OH231115   5.286   0.834   3.169
10391TIP3    H131116   5.251   0.882   3.093
10391TIP3    H231117   5.347   0.771   3.131
10392TIP3   OH231118   0.979   1.967   2.161
10392TIP3    H131119   1.051   1.904   2.164
10392TIP3    H231120   0.979   2.001   2.072
10393TIP3   OH231121   7.311   7.131   3.288
10393TIP3    H131122   7.230   7.157   3.333
10393TIP3    H231123   7.375   7.198   3.313
10394TIP3   OH231124   0.994   6.530   5.471
10394TIP3    H131125   0.910   6.496   5.440
10394TIP3    H231126   0.972   6.605   5.525
10395TIP3   OH231127   2.230   3.606   4.615
10395TIP3    H131128   2.318   3.644   4.612
10395TIP3    H231129   2.195   3.621   4.527
10396TIP3   OH231130   4.989   3.962   5.444
10396TIP3    H131131   5.008   4.008   5.362
10396TIP3    H231132   5.074   3.951   5.486
10397TIP3   OH231133   4.430   0.231   0.815
10397TIP3    H131134   4.450   0.144   0.779
10397TIP3    H231135   4.439   0.220   0.910
10398TIP3   OH231136   6.712   2.291   5.165
10398TIP3    H131137   6.739   2.298   5.257
10398TIP3    H231138   6.619   2.272   5.169
10399TIP3   OH231139   2.862   1.941   4.182
10399TIP3    H131140   2.897   2.025   4.209
10399TIP3    H231141   2.891   1.930   4.091
10400TIP3   OH231142   3.682   0.777   0.956
10400TIP3    H131143   3.753   0.718   0.931
10400TIP3    H231144   3.682   0.775   1.052
10401TIP3   OH231145   4.103   4.949   3.192
10401TIP3    H131146   4.146   4.910   3.116
10401TIP3    H231147   4.069   4.874   3.241
10402TIP3   OH231148   2.151   2.292   2.974
10402TIP3    H131149   2.185   2.362   2.919
10402TIP3    H231150   2.117   2.227   2.913
10403TIP3   OH231151   2.005  -0.012   4.339
10403TIP3    H131152   2.077  -0.025   4.401
10403TIP3    H231153   1.943   0.044   4.386
10404TIP3   OH231154   3.111   6.629   2.415
10404TIP3    H131155   3.154   6.679   2.346
10404TIP3    H231156   3.085   6.695   2.480
10405TIP3   OH231157   7.402   5.467   3.311
10405TIP3    H131158   7.450   5.413   3.247
10405TIP3    H231159   7.311   5.464   3.281
10406TIP3   OH231160   0.395   1.938   0.953
10406TIP3    H131161   0.396   2.034   0.957
10406TIP3    H231162   0.330   1.912   1.018
10407TIP3   OH231163   4.055   6.445   1.256
10407TIP3    H131164   4.007   6.366   1.231
10407TIP3    H231165   4.115   6.461   1.183
10408TIP3   OH231166   1.766   6.362   0.422
10408TIP3    H131167   1.847   6.312   0.420
10408TIP3    H231168   1.758   6.399   0.334
10409TIP3   OH231169   8.241   6.816   4.851
10409TIP3    H131170   8.202   6.903   4.839
10409TIP3    H231171   8.259   6.811   4.945
10410TIP3   OH231172   7.604   6.910   3.977
10410TIP3    H131173   7.664   6.840   3.952
10410TIP3    H231174   7.573   6.947   3.895
10411TIP3   OH231175   2.370   1.437   1.128
10411TIP3    H131176   2.282   1.458   1.157
10411TIP3    H231177   2.364   1.349   1.092
10412TIP3   OH231178   4.951   3.030   4.687
10412TIP3    H131179   4.884   2.999   4.626
10412TIP3    H231180   5.029   2.978   4.665
10413TIP3   OH231181   5.925   4.188   3.827
10413TIP3    H131182   5.841   4.228   3.850
10413TIP3    H231183   5.945   4.130   3.900
10414TIP3   OH231184   1.340   5.231   3.903
10414TIP3    H131185   1.382   5.172   3.841
10414TIP3    H231186   1.248   5.232   3.876
10415TIP3   OH231187   4.341   4.010   5.049
10415TIP3    H131188   4.364   3.987   4.959
10415TIP3    H231189   4.250   4.038   5.044
10416TIP3   OH231190   4.442   2.105   1.440
10416TIP3    H131191   4.487   2.173   1.389
10416TIP3    H231192   4.416   2.149   1.521
10417TIP3   OH231193   1.844   1.047   6.033
10417TIP3    H131194   1.880   1.133   6.057
10417TIP3    H231195   1.824   1.005   6.117
10418TIP3   OH231196   7.329   3.437   1.230
10418TIP3    H131197   7.371   3.359   1.196
10418TIP3    H231198   7.387   3.509   1.203
10419TIP3   OH231199   6.668   0.353   4.364
10419TIP3    H131200   6.645   0.435   4.321
10419TIP3    H231201   6.763   0.346   4.353
10420TIP3   OH231202   5.270   6.532   3.790
10420TIP3    H131203   5.237   6.592   3.723
10420TIP3    H231204   5.358   6.565   3.809
10421TIP3   OH231205   0.177   6.261   1.663
10421TIP3    H131206   0.226   6.334   1.626
10421TIP3    H231207   0.205   6.185   1.611
10422TIP3   OH231208   4.973   0.325   0.779
10422TIP3    H131209   4.888   0.287   0.802
10422TIP3    H231210   4.953   0.392   0.714
10423TIP3   OH231211   7.699   2.392   5.270
10423TIP3    H131212   7.772   2.429   5.319
10423TIP3    H231213   7.622   2.441   5.302
10424TIP3   OH231214   4.474   6.552   6.464
10424TIP3    H131215   4.380   6.564   6.477
10424TIP3    H231216   4.482   6.517   6.375
10425TIP3   OH231217   3.288   6.858   6.591
10425TIP3    H131218   3.266   6.766   6.605
10425TIP3    H231219   3.334   6.859   6.507
10426TIP3   OH231220   3.039   2.712   1.781
10426TIP3    H131221   3.096   2.671   1.716
10426TIP3    H231222   3.088   2.705   1.863
10427TIP3   OH231223   7.923   1.617   4.663
10427TIP3    H131224   7.844   1.626   4.609
10427TIP3    H231225   7.995   1.639   4.604
10428TIP3   OH231226   4.182   6.169   3.868
10428TIP3    H131227   4.273   6.145   3.856
10428TIP3    H231228   4.175   6.258   3.832
10429TIP3   OH231229   7.052   2.504   3.619
10429TIP3    H131230   7.035   2.410   3.631
10429TIP3    H231231   7.128   2.522   3.674
10430TIP3   OH231232   2.318   3.244   1.661
10430TIP3    H131233   2.336   3.328   1.619
10430TIP3    H231234   2.248   3.205   1.608
10431TIP3   OH231235   1.177   7.089   2.271
10431TIP3    H131236   1.167   7.177   2.306
10431TIP3    H231237   1.222   7.041   2.340
10432TIP3   OH231238   6.017   2.057   2.670
10432TIP3    H131239   6.096   2.003   2.679
10432TIP3    H231240   5.952   1.998   2.630
10433TIP3   OH231241   1.022   2.704   0.282
10433TIP3    H131242   1.087   2.634   0.277
10433TIP3    H231243   0.945   2.669   0.238
10434TIP3   OH231244   3.601   3.408   0.314
10434TIP3    H131245   3.670   3.442   0.370
10434TIP3    H231246   3.532   3.474   0.318
10435TIP3   OH231247   8.084   3.167   6.135
10435TIP3    H131248   8.121   3.255   6.128
10435TIP3    H231249   8.029   3.158   6.057
10436TIP3   OH231250   4.629   0.381   0.316
10436TIP3    H131251   4.629   0.477   0.308
10436TIP3    H231252   4.622   0.350   0.226
10437TIP3   OH231253   7.125   3.061   4.407
10437TIP3    H131254   7.162   3.147   4.430
10437TIP3    H231255   7.201   3.005   4.393
10438TIP3   OH231256   5.263   2.545   3.652
10438TIP3    H131257   5.347   2.588   3.664
10438TIP3    H231258   5.205   2.615   3.620
10439TIP3   OH231259   8.067   6.023   4.601
10439TIP3    H131260   7.983   6.068   4.604
10439TIP3    H231261   8.117   6.069   4.534
10440TIP3   OH231262   0.418   5.417   6.091
10440TIP3    H131263   0.487   5.351   6.090
10440TIP3    H231264   0.337   5.367   6.097
10441TIP3   OH231265   5.632   1.046   0.428
10441TIP3    H131266   5.686   0.989   0.374
10441TIP3    H231267   5.553   1.061   0.376
10442TIP3   OH231268   7.576   3.219   3.286
10442TIP3    H131269   7.649   3.246   3.342
10442TIP3    H231270   7.600   3.131   3.257
10443TIP3   OH231271   6.150   3.148   6.002
10443TIP3    H131272   6.077   3.129   6.061
10443TIP3    H231273   6.186   3.062   5.981
10444TIP3   OH231274   2.295   4.568   5.290
10444TIP3    H131275   2.269   4.634   5.354
10444TIP3    H231276   2.383   4.541   5.317
10445TIP3   OH231277   4.301   5.147   2.682
10445TIP3    H131278   4.366   5.209   2.648
10445TIP3    H231279   4.353   5.075   2.719
10446TIP3   OH231280   1.176   7.822   3.302
10446TIP3    H131281   1.126   7.746   3.331
10446TIP3    H231282   1.255   7.821   3.357
10447TIP3   OH231283   0.072   2.203   1.128
10447TIP3    H131284   0.100   2.284   1.171
10447TIP3    H231285   0.014   2.232   1.057
10448TIP3   OH231286   1.614   1.749   0.047
10448TIP3    H131287   1.702   1.785   0.060
10448TIP3    H231288   1.573   1.808  -0.017
10449TIP3   OH231289   0.311   5.787   2.278
10449TIP3    H131290   0.360   5.870   2.279
10449TIP3    H231291   0.265   5.788   2.194
10450TIP3   OH231292   0.624   2.419   4.562
10450TIP3    H131293   0.605   2.403   4.469
10450TIP3    H231294   0.716   2.395   4.572
10451TIP3   OH231295   7.855   0.319   2.291
10451TIP3    H131296   7.855   0.408   2.325
10451TIP3    H231297   7.775   0.280   2.325
10452TIP3   OH231298   8.202   5.797   4.547
10452TIP3    H131299   8.137   5.867   4.541
10452TIP3    H231300   8.220   5.789   4.641
10453TIP3   OH231301   2.745   7.050   3.562
10453TIP3    H131302   2.770   7.050   3.470
10453TIP3    H231303   2.766   6.961   3.592
10454TIP3   OH231304   1.748   0.340   1.497
10454TIP3    H131305   1.710   0.280   1.433
10454TIP3    H231306   1.712   0.425   1.474
10455TIP3   OH231307   3.758   6.133   0.246
10455TIP3    H131308   3.690   6.077   0.210
10455TIP3    H231309   3.814   6.153   0.171
10456TIP3   OH231310   4.149   6.603   4.372
10456TIP3    H131311   4.124   6.573   4.285
10456TIP3    H231312   4.087   6.675   4.392
10457TIP3   OH231313   3.765   4.392   5.412
10457TIP3    H131314   3.825   4.417   5.482
10457TIP3    H231315   3.721   4.474   5.388
10458TIP3   OH231316   2.801   4.068   2.135
10458TIP3    H131317   2.862   4.136   2.165
10458TIP3    H231318   2.858   3.998   2.104
10459TIP3   OH231319   1.762   7.160   4.789
10459TIP3    H131320   1.823   7.127   4.723
10459TIP3    H231321   1.808   7.234   4.829
10460TIP3   OH231322   7.653   7.616   1.590
10460TIP3    H131323   7.624   7.555   1.522
10460TIP3    H231324   7.707   7.680   1.543
10461TIP3   OH231325   3.721   4.710   1.102
10461TIP3    H131326   3.644   4.661   1.075
10461TIP3    H231327   3.686   4.790   1.141
10462TIP3   OH231328   2.817   3.759   0.671
10462TIP3    H131329   2.863   3.843   0.658
10462TIP3    H231330   2.738   3.768   0.618
10463TIP3   OH231331   7.588   0.273   4.422
10463TIP3    H131332   7.536   0.317   4.489
10463TIP3    H231333   7.664   0.239   4.468
10464TIP3   OH231334   2.755   6.699   1.289
10464TIP3    H131335   2.745   6.752   1.368
10464TIP3    H231336   2.844   6.718   1.258
10465TIP3   OH231337   8.201   0.670   4.414
10465TIP3    H131338   8.221   0.604   4.480
10465TIP3    H231339   8.106   0.683   4.421
10466TIP3   OH231340   4.354   3.613   2.518
10466TIP3    H131341   4.294   3.613   2.592
10466TIP3    H231342   4.326   3.538   2.464
10467TIP3   OH231343   5.892   6.856   0.083
10467TIP3    H131344   5.840   6.928   0.049
10467TIP3    H231345   5.840   6.820   0.154
10468TIP3   OH231346   6.964   3.014   1.832
10468TIP3    H131347   6.961   3.102   1.870
10468TIP3    H231348   6.974   3.028   1.738
10469TIP3   OH231349   7.902   5.016   5.180
10469TIP3    H131350   7.831   4.981   5.127
10469TIP3    H231351   7.916   5.104   5.145
10470TIP3   OH231352   6.388   5.888   1.289
10470TIP3    H131353   6.316   5.826   1.303
10470TIP3    H231354   6.457   5.834   1.248
10471TIP3   OH231355   4.994   5.661   3.466
10471TIP3    H131356   5.060   5.630   3.528
10471TIP3    H231357   5.043   5.677   3.385
10472TIP3   OH231358   0.523   4.253   3.533
10472TIP3    H131359   0.462   4.242   3.606
10472TIP3    H231360   0.476   4.216   3.457
10473TIP3   OH231361   2.693   3.487   4.631
10473TIP3    H131362   2.727   3.570   4.597
10473TIP3    H231363   2.771   3.433   4.646
10474TIP3   OH231364   7.177   4.047   5.972
10474TIP3    H131365   7.191   4.129   5.925
10474TIP3    H231366   7.093   4.057   6.015
10475TIP3   OH231367   5.035   1.086   0.557
10475TIP3    H131368   4.963   1.102   0.496
10475TIP3    H231369   5.113   1.114   0.510
10476TIP3   OH231370   0.811   6.319   6.184
10476TIP3    H131371   0.773   6.399   6.220
10476TIP3    H231372   0.867   6.348   6.112
10477TIP3   OH231373   4.669   3.590   0.777
10477TIP3    H131374   4.730   3.521   0.801
10477TIP3    H231375   4.719   3.671   0.788
10478TIP3   OH231376   4.872   3.835   2.358
10478TIP3    H131377   4.793   3.886   2.340
10478TIP3    H231378   4.906   3.870   2.441
10479TIP3   OH231379   1.091   3.928   3.553
10479TIP3    H131380   1.004   3.940   3.517
10479TIP3    H231381   1.086   3.847   3.604
10480TIP3   OH231382   1.359   3.769   2.644
10480TIP3    H131383   1.360   3.789   2.738
10480TIP3    H231384   1.287   3.821   2.609
10481TIP3   OH231385   1.295   6.377   6.531
10481TIP3    H131386   1.328   6.403   6.617
10481TIP3    H231387   1.365   6.401   6.470
10482TIP3   OH231388   1.665   7.465   5.628
10482TIP3    H131389   1.703   7.390   5.582
10482TIP3    H231390   1.587   7.487   5.577
10483TIP3   OH231391   0.186   0.694   5.605
10483TIP3    H131392   0.248   0.676   5.676
10483TIP3    H231393   0.239   0.691   5.526
10484TIP3   OH231394   3.209   4.834   6.109
10484TIP3    H131395   3.158   4.787   6.043
10484TIP3    H231396   3.299   4.808   6.093
10485TIP3   OH231397   5.775   7.127   2.893
10485TIP3    H131398   5.701   7.094   2.842
10485TIP3    H231399   5.803   7.052   2.945
10486TIP3   OH231400   4.859   0.855   0.424
10486TIP3    H131401   4.830   0.857   0.515
10486TIP3    H231402   4.867   0.947   0.399
10487TIP3   OH231403   4.984   1.085   6.381
10487TIP3    H131404   4.908   1.143   6.379
10487TIP3    H231405   5.036   1.111   6.304
10488TIP3   OH231406   5.490   7.530   5.039
10488TIP3    H131407   5.571   7.519   4.988
10488TIP3    H231408   5.501   7.616   5.081
10489TIP3   OH231409   3.971   5.983   4.752
10489TIP3    H131410   3.883   5.983   4.714
10489TIP3    H231411   4.029   6.004   4.678
10490TIP3   OH231412   3.916   4.954   1.940
10490TIP3    H131413   3.960   4.887   1.993
10490TIP3    H231414   3.826   4.923   1.933
10491TIP3   OH231415   3.219   5.036   6.303
10491TIP3    H131416   3.218   4.972   6.232
10491TIP3    H231417   3.311   5.058   6.314
10492TIP3   OH231418   4.045   2.487   0.112
10492TIP3    H131419   4.108   2.479   0.183
10492TIP3    H231420   4.096   2.521   0.038
10493TIP3   OH231421   5.416   5.235   1.481
10493TIP3    H131422   5.457   5.234   1.394
10493TIP3    H231423   5.468   5.298   1.531
10494TIP3   OH231424   5.169   7.032   2.134
10494TIP3    H131425   5.233   6.962   2.149
10494TIP3    H231426   5.088   6.999   2.172
10495TIP3   OH231427   8.230   4.103   5.684
10495TIP3    H131428   8.190   4.019   5.665
10495TIP3    H231429   8.197   4.162   5.615
10496TIP3   OH231430   6.243   1.490   5.380
10496TIP3    H131431   6.188   1.568   5.377
10496TIP3    H231432   6.322   1.515   5.333
10497TIP3   OH231433   0.301   5.236   5.099
10497TIP3    H131434   0.265   5.208   5.183
10497TIP3    H231435   0.391   5.203   5.099
10498TIP3   OH231436   1.359   0.928   5.988
10498TIP3    H131437   1.387   0.894   6.073
10498TIP3    H231438   1.340   1.020   6.005
10499TIP3   OH231439   1.171   5.276   1.867
10499TIP3    H131440   1.214   5.343   1.919
10499TIP3    H231441   1.101   5.243   1.924
10500TIP3   OH231442   8.039   7.130   0.775
10500TIP3    H131443   8.053   7.179   0.694
10500TIP3    H231444   8.027   7.039   0.746
10501TIP3   OH231445   6.221   2.367   1.843
10501TIP3    H131446   6.161   2.296   1.822
10501TIP3    H231447   6.307   2.333   1.822
10502TIP3   OH231448   1.661   3.389   1.514
10502TIP3    H131449   1.614   3.467   1.542
10502TIP3    H231450   1.661   3.332   1.591
10503TIP3   OH231451   5.628   5.629   4.637
10503TIP3    H131452   5.587   5.545   4.658
10503TIP3    H231453   5.717   5.606   4.609
10504TIP3   OH231454   4.538   3.628   4.004
10504TIP3    H131455   4.574   3.643   4.092
10504TIP3    H231456   4.545   3.713   3.961
10505TIP3   OH231457   7.857   6.824   1.741
10505TIP3    H131458   7.781   6.859   1.788
10505TIP3    H231459   7.873   6.887   1.671
10506TIP3   OH231460   7.790   6.066   3.405
10506TIP3    H131461   7.753   6.025   3.482
10506TIP3    H231462   7.718   6.072   3.343
10507TIP3   OH231463   5.745   1.526   3.572
10507TIP3    H131464   5.676   1.500   3.511
10507TIP3    H231465   5.736   1.464   3.645
10508TIP3   OH231466   3.304   6.458   2.616
10508TIP3    H131467   3.267   6.520   2.554
10508TIP3    H231468   3.270   6.486   2.701
10509TIP3   OH231469   0.561   4.893   3.045
10509TIP3    H131470   0.631   4.831   3.062
10509TIP3    H231471   0.561   4.903   2.949
10510TIP3   OH231472   5.662   7.547   6.574
10510TIP3    H131473   5.683   7.592   6.656
10510TIP3    H231474   5.568   7.531   6.579
10511TIP3   OH231475   2.720   5.281   0.586
10511TIP3    H131476   2.809   5.248   0.582
10511TIP3    H231477   2.675   5.239   0.513
10512TIP3   OH231478   6.284   0.396   4.206
10512TIP3    H131479   6.317   0.479   4.173
10512TIP3    H231480   6.207   0.419   4.259
10513TIP3   OH231481   2.277   3.931   5.467
10513TIP3    H131482   2.338   3.857   5.473
10513TIP3    H231483   2.199   3.894   5.425
10514TIP3   OH231484   2.561   5.910   3.455
10514TIP3    H131485   2.526   5.985   3.502
10514TIP3    H231486   2.562   5.839   3.520
10515TIP3   OH231487   0.570   0.222   6.360
10515TIP3    H131488   0.596   0.222   6.452
10515TIP3    H231489   0.544   0.132   6.342
10516TIP3   OH231490   1.831   4.621   4.421
10516TIP3    H131491   1.918   4.599   4.390
10516TIP3    H231492   1.845   4.693   4.483
10517TIP3   OH231493   8.127   1.124   4.400
10517TIP3    H131494   8.119   1.089   4.489
10517TIP3    H231495   8.050   1.091   4.354
10518TIP3   OH231496   0.376   4.697   1.705
10518TIP3    H131497   0.471   4.686   1.702
10518TIP3    H231498   0.357   4.724   1.794
10519TIP3   OH231499   4.277   1.229   3.966
10519TIP3    H131500   4.234   1.294   4.020
10519TIP3    H231501   4.368   1.257   3.961
10520TIP3   OH231502   1.547   3.493   0.589
10520TIP3    H131503   1.610   3.479   0.660
10520TIP3    H231504   1.596   3.539   0.521
10521TIP3   OH231505   6.607   5.452   2.317
10521TIP3    H131506   6.662   5.405   2.380
10521TIP3    H231507   6.627   5.544   2.331
10522TIP3   OH231508   5.445   3.572   1.434
10522TIP3    H131509   5.453   3.583   1.340
10522TIP3    H231510   5.453   3.660   1.469
10523TIP3   OH231511   3.832   0.160   2.783
10523TIP3    H131512   3.806   0.155   2.875
10523TIP3    H231513   3.916   0.114   2.780
10524TIP3   OH231514   2.339   3.424   6.619
10524TIP3    H131515   2.266   3.365   6.637
10524TIP3    H231516   2.400   3.409   6.692
10525TIP3   OH231517   6.595   4.376   3.624
10525TIP3    H131518   6.572   4.286   3.648
10525TIP3    H231519   6.569   4.428   3.700
10526TIP3   OH231520   0.316   7.133   4.343
10526TIP3    H131521   0.403   7.159   4.372
10526TIP3    H231522   0.266   7.121   4.424
10527TIP3   OH231523   0.464   0.323   0.883
10527TIP3    H131524   0.412   0.381   0.938
10527TIP3    H231525   0.405   0.299   0.812
10528TIP3   OH231526   4.803   1.809   2.401
10528TIP3    H131527   4.812   1.727   2.351
10528TIP3    H231528   4.886   1.819   2.446
10529TIP3   OH231529   7.975   1.214   1.212
10529TIP3    H131530   8.065   1.245   1.201
10529TIP3    H231531   7.950   1.183   1.125
10530TIP3   OH231532   2.738   7.727   4.028
10530TIP3    H131533   2.782   7.643   4.032
10530TIP3    H231534   2.743   7.761   4.117
10531TIP3   OH231535   6.299   7.644   0.362
10531TIP3    H131536   6.360   7.637   0.289
10531TIP3    H231537   6.216   7.672   0.322
10532TIP3   OH231538   4.093   4.536   1.345
10532TIP3    H131539   4.032   4.502   1.279
10532TIP3    H231540   4.123   4.620   1.309
10533TIP3   OH231541   0.304   2.962   0.634
10533TIP3    H131542   0.353   2.908   0.696
10533TIP3    H231543   0.335   2.934   0.548
10534TIP3   OH231544   7.159   3.409   5.995
10534TIP3    H131545   7.228   3.346   6.016
10534TIP3    H231546   7.114   3.424   6.078
10535TIP3   OH231547   5.685   7.028   0.919
10535TIP3    H131548   5.711   7.050   1.008
10535TIP3    H231549   5.603   7.076   0.905
10536TIP3   OH231550   0.281   3.505   1.160
10536TIP3    H131551   0.318   3.565   1.095
10536TIP3    H231552   0.352   3.442   1.176
10537TIP3   OH231553   1.823   1.211   0.430
10537TIP3    H131554   1.841   1.201   0.523
10537TIP3    H231555   1.904   1.180   0.387
10538TIP3   OH231556   4.146   4.942   2.513
10538TIP3    H131557   4.193   4.890   2.578
10538TIP3    H231558   4.077   4.985   2.563
10539TIP3   OH231559   2.309   7.421   6.631
10539TIP3    H131560   2.372   7.486   6.600
10539TIP3    H231561   2.312   7.351   6.566
10540TIP3   OH231562   6.342   7.749   2.338
10540TIP3    H131563   6.385   7.671   2.301
10540TIP3    H231564   6.249   7.730   2.332
10541TIP3   OH231565   6.476   5.617   6.026
10541TIP3    H131566   6.496   5.617   5.932
10541TIP3    H231567   6.538   5.555   6.063
10542TIP3   OH231568   4.259   5.495   1.543
10542TIP3    H131569   4.332   5.505   1.481
10542TIP3    H231570   4.266   5.572   1.600
10543TIP3   OH231571   2.073   1.346   5.070
10543TIP3    H131572   2.154   1.337   5.020
10543TIP3    H231573   2.006   1.307   5.014
10544TIP3   OH231574   1.582   3.945   4.756
10544TIP3    H131575   1.658   3.898   4.721
10544TIP3    H231576   1.512   3.880   4.756
10545TIP3   OH231577   1.285   3.975   1.933
10545TIP3    H131578   1.245   4.061   1.915
10545TIP3    H231579   1.293   3.972   2.028
10546TIP3   OH231580   4.322   2.614   0.556
10546TIP3    H131581   4.279   2.699   0.552
10546TIP3    H231582   4.408   2.632   0.592
10547TIP3   OH231583   3.109   6.483   0.001
10547TIP3    H131584   3.165   6.544  -0.047
10547TIP3    H231585   3.057   6.539   0.059
10548TIP3   OH231586   3.481   5.904   6.004
10548TIP3    H131587   3.523   5.871   5.925
10548TIP3    H231588   3.498   5.999   6.003
10549TIP3   OH231589   5.511   5.453   1.590
10549TIP3    H131590   5.577   5.522   1.599
10549TIP3    H231591   5.428   5.500   1.578
10550TIP3   OH231592   8.037   0.097   3.363
10550TIP3    H131593   8.061   0.186   3.391
10550TIP3    H231594   8.020   0.106   3.269
10551TIP3   OH231595   0.739   2.979   1.205
10551TIP3    H131596   0.739   2.981   1.301
10551TIP3    H231597   0.656   2.937   1.183
10552TIP3   OH231598   5.774   2.912   1.449
10552TIP3    H131599   5.808   2.877   1.367
10552TIP3    H231600   5.811   3.000   1.454
10553TIP3   OH231601   6.602   7.202   5.645
10553TIP3    H131602   6.578   7.120   5.687
10553TIP3    H231603   6.697   7.200   5.639
10554TIP3   OH231604   4.074   3.800   0.083
10554TIP3    H131605   4.061   3.713   0.123
10554TIP3    H231606   4.163   3.825   0.109
10555TIP3   OH231607   7.923   6.867   5.455
10555TIP3    H131608   7.884   6.929   5.517
10555TIP3    H231609   7.848   6.829   5.409
10556TIP3   OH231610   3.584   0.123   2.655
10556TIP3    H131611   3.523   0.170   2.712
10556TIP3    H231612   3.671   0.147   2.687
10557TIP3   OH231613   6.878   4.668   4.289
10557TIP3    H131614   6.895   4.656   4.196
10557TIP3    H231615   6.882   4.579   4.326
10558TIP3   OH231616   7.456   2.769   4.314
10558TIP3    H131617   7.408   2.766   4.231
10558TIP3    H231618   7.440   2.684   4.355
10559TIP3   OH231619   7.263   4.308   3.848
10559TIP3    H131620   7.235   4.395   3.876
10559TIP3    H231621   7.307   4.323   3.764
10560TIP3   OH231622   7.394   0.981   1.262
10560TIP3    H131623   7.367   0.990   1.171
10560TIP3    H231624   7.353   1.056   1.307
10561TIP3   OH231625   8.265   6.492   2.420
10561TIP3    H131626   8.180   6.480   2.462
10561TIP3    H231627   8.281   6.409   2.374
10562TIP3   OH231628   8.208   1.384   5.199
10562TIP3    H131629   8.163   1.317   5.148
10562TIP3    H231630   8.141   1.450   5.218
10563TIP3   OH231631   2.082   0.554   5.432
10563TIP3    H131632   2.079   0.475   5.378
10563TIP3    H231633   2.067   0.626   5.371
10564TIP3   OH231634   7.338   2.843   3.840
10564TIP3    H131635   7.260   2.898   3.827
10564TIP3    H231636   7.338   2.824   3.934
10565TIP3   OH231637   7.135   1.610   4.124
10565TIP3    H131638   7.150   1.663   4.045
10565TIP3    H231639   7.041   1.613   4.137
10566TIP3   OH231640   3.885   0.011   3.023
10566TIP3    H131641   3.909   0.029   3.113
10566TIP3    H231642   3.853  -0.079   3.024
10567TIP3   OH231643   0.497   3.198   6.091
10567TIP3    H131644   0.531   3.134   6.029
10567TIP3    H231645   0.424   3.240   6.046
10568TIP3   OH231646   6.466   6.082   5.463
10568TIP3    H131647   6.455   5.986   5.462
10568TIP3    H231648   6.490   6.103   5.553
10569TIP3   OH231649   5.057   4.674   5.346
10569TIP3    H131650   4.995   4.733   5.388
10569TIP3    H231651   5.102   4.631   5.419
10570TIP3   OH231652   6.809   3.006   2.945
10570TIP3    H131653   6.903   2.988   2.939
10570TIP3    H231654   6.769   2.921   2.963
10571TIP3   OH231655   0.430   1.625   3.294
10571TIP3    H131656   0.412   1.710   3.335
10571TIP3    H231657   0.480   1.577   3.359
10572TIP3   OH231658   7.615   4.478   2.456
10572TIP3    H131659   7.546   4.427   2.497
10572TIP3    H231660   7.572   4.526   2.385
10573TIP3   OH231661   0.552   1.417   4.369
10573TIP3    H131662   0.538   1.339   4.423
10573TIP3    H231663   0.472   1.468   4.381
10574TIP3   OH231664   2.525   5.355   6.557
10574TIP3    H131665   2.472   5.280   6.533
10574TIP3    H231666   2.562   5.386   6.474
10575TIP3   OH231667   5.749   4.608   4.723
10575TIP3    H131668   5.844   4.619   4.727
10575TIP3    H231669   5.737   4.513   4.714
10576TIP3   OH231670   5.313   6.989   1.527
10576TIP3    H131671   5.276   7.013   1.442
10576TIP3    H231672   5.398   7.033   1.530
10577TIP3   OH231673   6.024   2.671   0.113
10577TIP3    H131674   6.097   2.694   0.056
10577TIP3    H231675   5.967   2.616   0.059
10578TIP3   OH231676   6.818   3.708   1.593
10578TIP3    H131677   6.834   3.782   1.534
10578TIP3    H231678   6.724   3.710   1.609
10579TIP3   OH231679   0.329   2.419   3.366
10579TIP3    H131680   0.283   2.380   3.441
10579TIP3    H231681   0.415   2.377   3.366
10580TIP3   OH231682   4.327   3.209   3.412
10580TIP3    H131683   4.320   3.157   3.491
10580TIP3    H231684   4.264   3.280   3.423
10581TIP3   OH231685   2.948   0.642   3.943
10581TIP3    H131686   2.911   0.654   4.030
10581TIP3    H231687   3.005   0.565   3.952
10582TIP3   OH231688   7.518   0.110   3.186
10582TIP3    H131689   7.434   0.132   3.146
10582TIP3    H231690   7.569   0.191   3.180
10583TIP3   OH231691   7.333   1.543   3.279
10583TIP3    H131692   7.286   1.614   3.237
10583TIP3    H231693   7.399   1.515   3.215
10584TIP3   OH231694   7.694   7.187   4.703
10584TIP3    H131695   7.617   7.131   4.701
10584TIP3    H231696   7.767   7.127   4.722
10585TIP3   OH231697   6.606   5.455   0.368
10585TIP3    H131698   6.559   5.520   0.315
10585TIP3    H231699   6.583   5.477   0.458
10586TIP3   OH231700   6.340   0.657   4.779
10586TIP3    H131701   6.371   0.737   4.736
10586TIP3    H231702   6.322   0.597   4.707
10587TIP3   OH231703   8.261   2.227   6.758
10587TIP3    H131704   8.244   2.269   6.674
10587TIP3    H231705   8.278   2.299   6.818
10588TIP3   OH231706   0.316   4.255   4.822
10588TIP3    H131707   0.396   4.308   4.825
10588TIP3    H231708   0.343   4.174   4.778
10589TIP3   OH231709   2.051   5.412   2.899
10589TIP3    H131710   2.125   5.424   2.959
10589TIP3    H231711   2.046   5.495   2.852
10590TIP3   OH231712   7.177   4.424   3.451
10590TIP3    H131713   7.099   4.448   3.400
10590TIP3    H231714   7.249   4.430   3.389
10591TIP3   OH231715   1.714   6.466   0.957
10591TIP3    H131716   1.795   6.486   1.004
10591TIP3    H231717   1.732   6.489   0.866
10592TIP3   OH231718   1.346   6.245   0.074
10592TIP3    H131719   1.382   6.289   0.151
10592TIP3    H231720   1.266   6.202   0.106
10593TIP3   OH231721   5.501   7.422   2.147
10593TIP3    H131722   5.440   7.356   2.182
10593TIP3    H231723   5.562   7.439   2.219
10594TIP3   OH231724   2.693   2.798   5.364
10594TIP3    H131725   2.671   2.879   5.410
10594TIP3    H231726   2.616   2.781   5.309
10595TIP3   OH231727   6.863   0.110   2.614
10595TIP3    H131728   6.936   0.170   2.601
10595TIP3    H231729   6.898   0.040   2.668
10596TIP3   OH231730   2.290   2.337   0.543
10596TIP3    H131731   2.272   2.243   0.548
10596TIP3    H231732   2.217   2.374   0.495
10597TIP3   OH231733   0.919   4.887   2.185
10597TIP3    H131734   1.004   4.910   2.149
10597TIP3    H231735   0.856   4.924   2.124
10598TIP3   OH231736   3.313   0.962   5.439
10598TIP3    H131737   3.259   1.013   5.378
10598TIP3    H231738   3.381   1.024   5.467
10599TIP3   OH231739   3.078   2.980   2.197
10599TIP3    H131740   3.130   2.929   2.258
10599TIP3    H231741   2.990   2.981   2.235
10600TIP3   OH231742   6.297   1.649   1.807
10600TIP3    H131743   6.228   1.602   1.854
10600TIP3    H231744   6.377   1.631   1.857
10601TIP3   OH231745   2.893   3.537   1.532
10601TIP3    H131746   2.956   3.607   1.515
10601TIP3    H231747   2.810   3.571   1.500
10602TIP3   OH231748   4.554   0.066   6.275
10602TIP3    H131749   4.526   0.047   6.185
10602TIP3    H231750   4.514  -0.002   6.328
10603TIP3   OH231751   1.771   3.989   5.408
10603TIP3    H131752   1.813   4.065   5.448
10603TIP3    H231753   1.822   3.972   5.329
10604TIP3   OH231754   6.690   6.113   4.478
10604TIP3    H131755   6.748   6.085   4.548
10604TIP3    H231756   6.742   6.176   4.428
10605TIP3   OH231757   7.315   4.989   6.409
10605TIP3    H131758   7.297   4.906   6.364
10605TIP3    H231759   7.229   5.029   6.420
10606TIP3   OH231760   3.091   4.937   4.283
10606TIP3    H131761   3.100   5.032   4.273
10606TIP3    H231762   3.005   4.924   4.322
10607TIP3   OH231763   0.877   0.940   5.183
10607TIP3    H131764   0.783   0.959   5.174
10607TIP3    H231765   0.906   0.998   5.253
10608TIP3   OH231766   3.528   6.748   5.076
10608TIP3    H131767   3.506   6.841   5.085
10608TIP3    H231768   3.464   6.714   5.015
10609TIP3   OH231769   5.663   0.059   1.026
10609TIP3    H131770   5.600   0.126   1.002
10609TIP3    H231771   5.663   0.058   1.121
10610TIP3   OH231772   0.427   5.250   1.613
10610TIP3    H131773   0.417   5.179   1.550
10610TIP3    H231774   0.338   5.268   1.642
10611TIP3   OH231775   7.151   2.210   6.083
10611TIP3    H131776   7.206   2.287   6.076
10611TIP3    H231777   7.166   2.177   6.171
10612TIP3   OH231778   2.559   6.532   6.395
10612TIP3    H131779   2.471   6.514   6.428
10612TIP3    H231780   2.618   6.505   6.465
10613TIP3   OH231781   5.033   4.890   6.157
10613TIP3    H131782   5.044   4.902   6.251
10613TIP3    H231783   5.001   4.975   6.126
10614TIP3   OH231784   1.805   1.336   0.043
10614TIP3    H131785   1.810   1.243   0.022
10614TIP3    H231786   1.846   1.380  -0.031
10615TIP3   OH231787   4.685   6.259   2.977
10615TIP3    H131788   4.668   6.303   2.894
10615TIP3    H231789   4.752   6.194   2.957
10616TIP3   OH231790   7.613   0.454   1.341
10616TIP3    H131791   7.670   0.514   1.390
10616TIP3    H231792   7.673   0.403   1.286
10617TIP3   OH231793   6.404   6.964   5.169
10617TIP3    H131794   6.338   6.902   5.138
10617TIP3    H231795   6.481   6.910   5.186
10618TIP3   OH231796   2.115   2.238   0.799
10618TIP3    H131797   2.031   2.232   0.846
10618TIP3    H231798   2.091   2.229   0.707
10619TIP3   OH231799   6.828   1.025   3.225
10619TIP3    H131800   6.821   0.932   3.247
10619TIP3    H231801   6.913   1.033   3.183
10620TIP3   OH231802   1.860   7.139   4.172
10620TIP3    H131803   1.834   7.211   4.115
10620TIP3    H231804   1.852   7.061   4.118
10621TIP3   OH231805   1.728   1.256   4.119
10621TIP3    H131806   1.642   1.224   4.094
10621TIP3    H231807   1.774   1.179   4.151
10622TIP3   OH231808   7.447   7.756   4.597
10622TIP3    H131809   7.491   7.673   4.576
10622TIP3    H231810   7.498   7.792   4.669
10623TIP3   OH231811   4.320   7.552   2.281
10623TIP3    H131812   4.372   7.473   2.265
10623TIP3    H231813   4.252   7.524   2.342
10624TIP3   OH231814   7.934   7.012   1.016
10624TIP3    H131815   7.995   7.084   1.003
10624TIP3    H231816   7.966   6.943   0.958
10625TIP3   OH231817   4.134   0.043   5.084
10625TIP3    H131818   4.192   0.108   5.044
10625TIP3    H231819   4.048   0.087   5.086
10626TIP3   OH231820   6.638   6.866   5.251
10626TIP3    H131821   6.618   6.801   5.318
10626TIP3    H231822   6.715   6.913   5.284
10627TIP3   OH231823   1.412   6.493   2.540
10627TIP3    H131824   1.473   6.466   2.609
10627TIP3    H231825   1.458   6.473   2.459
10628TIP3   OH231826   5.382   5.830   4.033
10628TIP3    H131827   5.439   5.766   3.990
10628TIP3    H231828   5.299   5.823   3.986
10629TIP3   OH231829   7.869   6.463   4.274
10629TIP3    H131830   7.953   6.487   4.313
10629TIP3    H231831   7.841   6.386   4.325
10630TIP3   OH231832   4.823   3.800   0.983
10630TIP3    H131833   4.866   3.885   0.976
10630TIP3    H231834   4.765   3.810   1.059
10631TIP3   OH231835   7.618   7.738   2.387
10631TIP3    H131836   7.703   7.773   2.412
10631TIP3    H231837   7.630   7.643   2.386
10632TIP3   OH231838   1.499   5.440   3.409
10632TIP3    H131839   1.405   5.456   3.399
10632TIP3    H231840   1.518   5.467   3.499
10633TIP3   OH231841   6.621   7.400   0.089
10633TIP3    H131842   6.654   7.319   0.049
10633TIP3    H231843   6.686   7.424   0.154
10634TIP3   OH231844   0.021   4.586   5.716
10634TIP3    H131845   0.070   4.510   5.685
10634TIP3    H231846   0.066   4.661   5.678
10635TIP3   OH231847   5.781   6.671   5.382
10635TIP3    H131848   5.865   6.627   5.387
10635TIP3    H231849   5.739   6.635   5.304
10636TIP3   OH231850   6.953   0.241   0.595
10636TIP3    H131851   6.912   0.234   0.681
10636TIP3    H231852   6.879   0.246   0.534
10637TIP3   OH231853   3.878   3.615   3.169
10637TIP3    H131854   3.866   3.611   3.264
10637TIP3    H231855   3.969   3.588   3.155
10638TIP3   OH231856   2.930   6.158   2.580
10638TIP3    H131857   2.895   6.134   2.494
10638TIP3    H231858   2.928   6.077   2.631
10639TIP3   OH231859   3.076   1.682   1.904
10639TIP3    H131860   3.076   1.586   1.901
10639TIP3    H231861   3.129   1.708   1.829
10640TIP3   OH231862   5.033   1.782   5.436
10640TIP3    H131863   5.018   1.708   5.495
10640TIP3    H231864   5.096   1.837   5.482
10641TIP3   OH231865   6.118   1.238   5.413
10641TIP3    H131866   6.058   1.291   5.465
10641TIP3    H231867   6.170   1.302   5.364
10642TIP3   OH231868   5.690   4.662   5.252
10642TIP3    H131869   5.628   4.727   5.217
10642TIP3    H231870   5.763   4.663   5.190
10643TIP3   OH231871   0.351   1.896   0.402
10643TIP3    H131872   0.289   1.834   0.364
10643TIP3    H231873   0.336   1.892   0.496
10644TIP3   OH231874   2.896   3.298   2.028
10644TIP3    H131875   2.846   3.343   1.960
10644TIP3    H231876   2.911   3.365   2.095
10645TIP3   OH231877   1.079   0.504   4.703
10645TIP3    H131878   1.048   0.477   4.789
10645TIP3    H231879   1.121   0.426   4.667
10646TIP3   OH231880   2.534   5.184   0.384
10646TIP3    H131881   2.558   5.092   0.374
10646TIP3    H231882   2.452   5.192   0.335
10647TIP3   OH231883   3.314   0.696   2.994
10647TIP3    H131884   3.344   0.780   2.960
10647TIP3    H231885   3.338   0.698   3.087
10648TIP3   OH231886   8.038   3.947   3.146
10648TIP3    H131887   8.093   4.011   3.100
10648TIP3    H231888   7.950   3.983   3.140
10649TIP3   OH231889   1.636   1.479   5.709
10649TIP3    H131890   1.589   1.429   5.775
10649TIP3    H231891   1.722   1.496   5.747
10650TIP3   OH231892   4.691   7.419   6.062
10650TIP3    H131893   4.623   7.354   6.044
10650TIP3    H231894   4.767   7.388   6.012
10651TIP3   OH231895   8.144   2.799   5.528
10651TIP3    H131896   8.135   2.705   5.513
10651TIP3    H231897   8.063   2.823   5.574
10652TIP3   OH231898   3.192   2.318   3.772
10652TIP3    H131899   3.159   2.269   3.847
10652TIP3    H231900   3.254   2.381   3.810
10653TIP3   OH231901   0.983   0.231   1.812
10653TIP3    H131902   1.035   0.160   1.774
10653TIP3    H231903   0.893   0.208   1.791
10654TIP3   OH231904   7.801   3.543   0.953
10654TIP3    H131905   7.840   3.485   0.887
10654TIP3    H231906   7.710   3.554   0.925
10655TIP3   OH231907   1.859   3.795   2.268
10655TIP3    H131908   1.875   3.734   2.196
10655TIP3    H231909   1.817   3.742   2.336
10656TIP3   OH231910   6.757   2.567   0.744
10656TIP3    H131911   6.696   2.493   0.737
10656TIP3    H231912   6.703   2.644   0.726
10657TIP3   OH231913   8.175   6.198   5.821
10657TIP3    H131914   8.210   6.269   5.875
10657TIP3    H231915   8.112   6.154   5.877
10658TIP3   OH231916   3.817   6.588   0.230
10658TIP3    H131917   3.858   6.521   0.285
10658TIP3    H231918   3.807   6.664   0.287
10659TIP3   OH231919   3.664   1.632   3.082
10659TIP3    H131920   3.689   1.571   3.151
10659TIP3    H231921   3.688   1.718   3.116
10660TIP3   OH231922   5.838   1.699   6.126
10660TIP3    H131923   5.926   1.668   6.105
10660TIP3    H231924   5.787   1.683   6.047
10661TIP3   OH231925   6.658   6.522   3.419
10661TIP3    H131926   6.706   6.460   3.364
10661TIP3    H231927   6.726   6.583   3.451
10662TIP3   OH231928   3.900   6.445   3.161
10662TIP3    H131929   3.913   6.390   3.238
10662TIP3    H231930   3.838   6.397   3.107
10663TIP3   OH231931   4.780   6.820   5.137
10663TIP3    H131932   4.822   6.899   5.104
10663TIP3    H231933   4.852   6.762   5.161
10664TIP3   OH231934   0.420   1.056   0.062
10664TIP3    H131935   0.399   1.147   0.083
10664TIP3    H231936   0.384   1.006   0.135
10665TIP3   OH231937   5.741   6.407   6.191
10665TIP3    H131938   5.731   6.350   6.267
10665TIP3    H231939   5.651   6.428   6.164
10666TIP3   OH231940   2.557   4.917   0.581
10666TIP3    H131941   2.648   4.904   0.554
10666TIP3    H231942   2.506   4.862   0.521
10667TIP3   OH231943   2.773   1.397  -0.026
10667TIP3    H131944   2.838   1.436  -0.084
10667TIP3    H231945   2.821   1.379   0.055
10668TIP3   OH231946   2.787   7.709   3.240
10668TIP3    H131947   2.830   7.780   3.193
10668TIP3    H231948   2.858   7.657   3.277
10669TIP3   OH231949   3.425   7.503   4.248
10669TIP3    H131950   3.464   7.556   4.317
10669TIP3    H231951   3.359   7.450   4.293
10670TIP3   OH231952   5.307   5.066   6.032
10670TIP3    H131953   5.237   5.072   5.968
10670TIP3    H231954   5.380   5.114   5.993
10671TIP3   OH231955   0.013   1.416   1.645
10671TIP3    H131956   0.052   1.353   1.706
10671TIP3    H231957  -0.065   1.372   1.611
10672TIP3   OH231958   6.252   3.959   1.274
10672TIP3    H131959   6.203   3.943   1.193
10672TIP3    H231960   6.185   3.967   1.342
10673TIP3   OH231961   1.979   1.265   2.381
10673TIP3    H131962   1.897   1.289   2.424
10673TIP3    H231963   1.999   1.178   2.415
10674TIP3   OH231964   7.500   5.947   1.523
10674TIP3    H131965   7.452   6.030   1.528
10674TIP3    H231966   7.592   5.972   1.515
10675TIP3   OH231967   3.206   4.562   3.170
10675TIP3    H131968   3.275   4.563   3.236
10675TIP3    H231969   3.142   4.626   3.202
10676TIP3   OH231970   5.166   3.815   2.686
10676TIP3    H131971   5.133   3.734   2.647
10676TIP3    H231972   5.106   3.883   2.654
10677TIP3   OH231973   2.761   5.890   6.174
10677TIP3    H131974   2.797   5.866   6.259
10677TIP3    H231975   2.760   5.985   6.173
10678TIP3   OH231976   7.408   2.920   6.816
10678TIP3    H131977   7.466   2.996   6.805
10678TIP3    H231978   7.467   2.845   6.813
10679TIP3   OH231979   6.638   6.671   0.647
10679TIP3    H131980   6.710   6.636   0.595
10679TIP3    H231981   6.681   6.718   0.719
10680TIP3   OH231982   4.639   3.395   3.457
10680TIP3    H131983   4.583   3.372   3.532
10680TIP3    H231984   4.727   3.373   3.485
10681TIP3   OH231985   1.993   4.715   0.124
10681TIP3    H131986   2.006   4.797   0.172
10681TIP3    H231987   2.069   4.709   0.066
10682TIP3   OH231988   5.978   0.631   3.044
10682TIP3    H131989   6.001   0.545   3.009
10682TIP3    H231990   5.943   0.679   2.970
10683TIP3   OH231991   0.962   4.134   2.928
10683TIP3    H131992   0.866   4.140   2.926
10683TIP3    H231993   0.990   4.210   2.979
10684TIP3   OH231994   6.576   2.270   2.420
10684TIP3    H131995   6.517   2.291   2.348
10684TIP3    H231996   6.663   2.287   2.384
10685TIP3   OH231997   6.550   3.005   0.241
10685TIP3    H131998   6.556   2.924   0.191
10685TIP3    H231999   6.612   2.994   0.312
10686TIP3   OH232000   5.694   5.985   5.268
10686TIP3    H132001   5.706   6.029   5.183
10686TIP3    H232002   5.772   5.931   5.278
10687TIP3   OH232003   7.250   5.909   1.862
10687TIP3    H132004   7.323   5.880   1.916
10687TIP3    H232005   7.199   5.830   1.846
10688TIP3   OH232006   1.446   7.696   3.836
10688TIP3    H132007   1.379   7.714   3.770
10688TIP3    H232008   1.528   7.697   3.788
10689TIP3   OH232009   2.719   7.610   4.581
10689TIP3    H132010   2.682   7.687   4.623
10689TIP3    H232011   2.761   7.562   4.653
10690TIP3   OH232012   1.457   0.014   0.820
10690TIP3    H132013   1.377   0.046   0.862
10690TIP3    H232014   1.474   0.078   0.750
10691TIP3   OH232015   2.441   3.725   5.461
10691TIP3    H132016   2.423   3.636   5.432
10691TIP3    H232017   2.522   3.718   5.511
10692TIP3   OH232018   1.630   0.377   4.765
10692TIP3    H132019   1.667   0.296   4.731
10692TIP3    H232020   1.663   0.445   4.706
10693TIP3   OH232021   1.901   6.951   3.519
10693TIP3    H132022   1.953   6.879   3.482
10693TIP3    H232023   1.820   6.952   3.468
10694TIP3   OH232024   4.023   3.880   6.713
10694TIP3    H132025   4.000   3.799   6.668
10694TIP3    H232026   4.118   3.878   6.719
10695TIP3   OH232027   1.470   0.924   0.310
10695TIP3    H132028   1.399   0.961   0.362
10695TIP3    H232029   1.509   1.000   0.266
10696TIP3   OH232030   1.264   3.330   4.636
10696TIP3    H132031   1.281   3.416   4.598
10696TIP3    H232032   1.203   3.347   4.708
10697TIP3   OH232033   6.215   7.772   3.682
10697TIP3    H132034   6.229   7.860   3.717
10697TIP3    H232035   6.298   7.727   3.696
10698TIP3   OH232036   0.311   3.049   0.959
10698TIP3    H132037   0.351   3.000   1.031
10698TIP3    H232038   0.261   3.119   1.001
10699TIP3   OH232039   6.500   4.193   4.632
10699TIP3    H132040   6.588   4.214   4.662
10699TIP3    H232041   6.506   4.195   4.536
10700TIP3   OH232042   5.739   3.980   3.314
10700TIP3    H132043   5.749   4.023   3.399
10700TIP3    H232044   5.645   3.983   3.296
10701TIP3   OH232045   7.230   1.514   4.572
10701TIP3    H132046   7.161   1.455   4.543
10701TIP3    H232047   7.243   1.493   4.664
10702TIP3   OH232048   0.834   5.856   1.290
10702TIP3    H132049   0.863   5.945   1.309
10702TIP3    H232050   0.771   5.867   1.218
10703TIP3   OH232051   2.658   6.211   3.483
10703TIP3    H132052   2.684   6.251   3.400
10703TIP3    H232053   2.724   6.241   3.546
10704TIP3   OH232054   2.354   4.657   2.101
10704TIP3    H132055   2.322   4.736   2.145
10704TIP3    H232056   2.448   4.673   2.088
10705TIP3   OH232057   0.097   7.590   3.410
10705TIP3    H132058   0.155   7.581   3.335
10705TIP3    H232059   0.131   7.527   3.475
10706TIP3   OH232060   7.869   1.918   2.181
10706TIP3    H132061   7.960   1.891   2.169
10706TIP3    H232062   7.832   1.852   2.239
10707TIP3   OH232063   1.478   2.528   6.686
10707TIP3    H132064   1.398   2.502   6.732
10707TIP3    H232065   1.448   2.551   6.598
10708TIP3   OH232066   6.894   5.005   2.631
10708TIP3    H132067   6.879   5.070   2.562
10708TIP3    H232068   6.816   5.011   2.687
10709TIP3   OH232069   4.050   4.216   3.844
10709TIP3    H132070   4.050   4.155   3.770
10709TIP3    H232071   3.964   4.259   3.839
10710TIP3   OH232072   1.483   2.957   6.154
10710TIP3    H132073   1.561   2.904   6.171
10710TIP3    H232074   1.515   3.048   6.154
10711TIP3   OH232075   3.658   2.613   2.957
10711TIP3    H132076   3.643   2.657   2.874
10711TIP3    H232077   3.663   2.520   2.934
10712TIP3   OH232078   6.791   3.978   4.109
10712TIP3    H132079   6.870   3.943   4.069
10712TIP3    H232080   6.720   3.944   4.054
10713TIP3   OH232081   8.296   6.534   5.682
10713TIP3    H132082   8.314   6.620   5.644
10713TIP3    H232083   8.301   6.474   5.607
10714TIP3   OH232084   1.381   4.294   1.900
10714TIP3    H132085   1.286   4.303   1.901
10714TIP3    H232086   1.408   4.312   1.990
10715TIP3   OH232087   4.293   2.194   1.027
10715TIP3    H132088   4.267   2.179   1.118
10715TIP3    H232089   4.239   2.268   0.999
10716TIP3   OH232090   8.035   7.268   2.783
10716TIP3    H132091   8.128   7.273   2.763
10716TIP3    H232092   8.018   7.343   2.840
10717TIP3   OH232093   3.814   0.213   6.123
10717TIP3    H132094   3.872   0.143   6.092
10717TIP3    H232095   3.736   0.205   6.067
10718TIP3   OH232096   0.823   1.140   0.139
10718TIP3    H132097   0.771   1.185   0.072
10718TIP3    H232098   0.843   1.055   0.100
10719TIP3   OH232099   1.217   2.097   4.350
10719TIP3    H132100   1.160   2.146   4.409
10719TIP3    H232101   1.223   2.151   4.271
10720TIP3   OH232102   2.958   4.256   1.385
10720TIP3    H132103   2.937   4.333   1.438
10720TIP3    H232104   2.874   4.211   1.374
10721TIP3   OH232105   2.788   6.453   1.473
10721TIP3    H132106   2.804   6.359   1.459
10721TIP3    H232107   2.755   6.484   1.389
10722TIP3   OH232108   7.933   3.381   3.614
10722TIP3    H132109   8.007   3.320   3.614
10722TIP3    H232110   7.972   3.466   3.633
10723TIP3   OH232111   0.273   1.791   1.859
10723TIP3    H132112   0.216   1.850   1.810
10723TIP3    H232113   0.322   1.744   1.792
10724TIP3   OH232114   2.008   2.920   1.610
10724TIP3    H132115   2.079   2.974   1.574
10724TIP3    H232116   1.930   2.974   1.602
10725TIP3   OH232117   6.615   0.620   1.284
10725TIP3    H132118   6.700   0.599   1.245
10725TIP3    H232119   6.557   0.550   1.257
10726TIP3   OH232120   3.447   6.490   5.648
10726TIP3    H132121   3.510   6.545   5.602
10726TIP3    H232122   3.384   6.465   5.580
10727TIP3   OH232123   4.749   3.280   3.754
10727TIP3    H132124   4.659   3.283   3.789
10727TIP3    H232125   4.792   3.355   3.795
10728TIP3   OH232126   0.031   4.412   5.961
10728TIP3    H132127   0.002   4.487   5.909
10728TIP3    H232128   0.061   4.348   5.897
10729TIP3   OH232129   4.571   6.829   1.519
10729TIP3    H132130   4.599   6.915   1.552
10729TIP3    H232131   4.479   6.842   1.495
10730TIP3   OH232132   0.647   6.299   5.444
10730TIP3    H132133   0.706   6.327   5.373
10730TIP3    H232134   0.649   6.373   5.506
10731TIP3   OH232135   2.201   0.377   2.799
10731TIP3    H132136   2.179   0.286   2.780
10731TIP3    H232137   2.230   0.413   2.715
10732TIP3   OH232138   7.878   6.295   0.421
10732TIP3    H132139   7.852   6.287   0.513
10732TIP3    H232140   7.855   6.385   0.397
10733TIP3   OH232141   1.322   4.495   6.233
10733TIP3    H132142   1.405   4.470   6.192
10733TIP3    H232143   1.257   4.484   6.164
10734TIP3   OH232144   0.314   1.604   1.241
10734TIP3    H132145   0.232   1.602   1.290
10734TIP3    H232146   0.361   1.681   1.275
10735TIP3   OH232147   8.136   3.051   1.918
10735TIP3    H132148   8.102   3.140   1.912
10735TIP3    H232149   8.061   2.998   1.944
10736TIP3   OH232150   6.157   0.786   5.510
10736TIP3    H132151   6.099   0.857   5.484
10736TIP3    H232152   6.244   0.825   5.512
10737TIP3   OH232153   4.522   4.632   2.561
10737TIP3    H132154   4.457   4.666   2.623
10737TIP3    H232155   4.606   4.655   2.599
10738TIP3   OH232156   7.991   7.649   1.835
10738TIP3    H132157   8.056   7.616   1.898
10738TIP3    H232158   7.923   7.689   1.890
10739TIP3   OH232159   6.276   2.159   2.602
10739TIP3    H132160   6.212   2.145   2.532
10739TIP3    H232161   6.341   2.090   2.590
10740TIP3   OH232162   0.935   4.029   4.225
10740TIP3    H132163   0.982   4.051   4.145
10740TIP3    H232164   1.001   4.035   4.294
10741TIP3   OH232165   8.018   0.994   5.910
10741TIP3    H132166   8.101   1.007   5.957
10741TIP3    H232167   8.031   1.041   5.827
10742TIP3   OH232168   3.612   6.720   1.261
10742TIP3    H132169   3.596   6.813   1.246
10742TIP3    H232170   3.706   6.714   1.280
10743TIP3   OH232171   6.784   1.259   3.692
10743TIP3    H132172   6.825   1.277   3.777
10743TIP3    H232173   6.813   1.331   3.636
10744TIP3   OH232174   2.917   5.098   5.512
10744TIP3    H132175   2.902   5.025   5.451
10744TIP3    H232176   2.830   5.138   5.522
10745TIP3   OH232177   6.129   0.230   5.181
10745TIP3    H132178   6.045   0.261   5.216
10745TIP3    H232179   6.192   0.298   5.205
10746TIP3   OH232180   1.664   1.112   5.346
10746TIP3    H132181   1.741   1.090   5.399
10746TIP3    H232182   1.645   1.203   5.367
10747TIP3   OH232183   0.795   6.168   0.636
10747TIP3    H132184   0.822   6.196   0.549
10747TIP3    H232185   0.805   6.073   0.635
10748TIP3   OH232186   1.739   1.637   2.225
10748TIP3    H132187   1.788   1.555   2.225
10748TIP3    H232188   1.708   1.647   2.135
10749TIP3   OH232189   1.006   5.420   1.205
10749TIP3    H132190   1.040   5.389   1.289
10749TIP3    H232191   1.082   5.420   1.147
10750TIP3   OH232192   5.990   0.752   3.688
10750TIP3    H132193   5.926   0.770   3.757
10750TIP3    H232194   5.971   0.662   3.660
10751TIP3   OH232195   1.218   6.324   1.693
10751TIP3    H132196   1.194   6.241   1.734
10751TIP3    H232197   1.208   6.308   1.600
10752TIP3   OH232198   6.353   7.106   4.286
10752TIP3    H132199   6.356   7.062   4.371
10752TIP3    H232200   6.262   7.135   4.277
10753TIP3   OH232201   0.845   4.983   6.510
10753TIP3    H132202   0.872   4.892   6.498
10753TIP3    H232203   0.857   5.023   6.424
10754TIP3   OH232204   3.844   5.805   3.145
10754TIP3    H132205   3.810   5.717   3.164
10754TIP3    H232206   3.912   5.818   3.211
10755TIP3   OH232207   5.392   3.758   0.884
10755TIP3    H132208   5.419   3.766   0.792
10755TIP3    H232209   5.452   3.692   0.920
10756TIP3   OH232210   0.542   1.569   3.550
10756TIP3    H132211   0.484   1.577   3.626
10756TIP3    H232212   0.559   1.660   3.524
10757TIP3   OH232213   2.651   3.431   2.457
10757TIP3    H132214   2.560   3.459   2.442
10757TIP3    H232215   2.692   3.435   2.371
10758TIP3   OH232216   7.569   6.820   2.238
10758TIP3    H132217   7.503   6.875   2.196
10758TIP3    H232218   7.523   6.738   2.259
10759TIP3   OH232219   8.274   5.054   6.662
10759TIP3    H132220   8.355   5.003   6.659
10759TIP3    H232221   8.206   4.989   6.679
10760TIP3   OH232222   3.219   4.854   4.039
10760TIP3    H132223   3.169   4.886   4.114
10760TIP3    H232224   3.208   4.759   4.041
10761TIP3   OH232225   1.807   4.295   4.486
10761TIP3    H132226   1.891   4.253   4.465
10761TIP3    H232227   1.787   4.348   4.409
10762TIP3   OH232228   5.362   2.457   6.297
10762TIP3    H132229   5.371   2.414   6.382
10762TIP3    H232230   5.357   2.550   6.318
10763TIP3   OH232231   3.602   3.361   5.228
10763TIP3    H132232   3.651   3.364   5.310
10763TIP3    H232233   3.666   3.333   5.163
10764TIP3   OH232234   1.007   4.762   6.150
10764TIP3    H132235   1.048   4.678   6.127
10764TIP3    H232236   0.935   4.737   6.208
10765TIP3   OH232237   5.265   0.489   3.850
10765TIP3    H132238   5.263   0.560   3.786
10765TIP3    H232239   5.216   0.523   3.925
10766TIP3   OH232240   8.179   4.327   6.170
10766TIP3    H132241   8.248   4.273   6.209
10766TIP3    H232242   8.221   4.369   6.095
10767TIP3   OH232243   0.119   2.693   5.616
10767TIP3    H132244   0.081   2.681   5.529
10767TIP3    H232245   0.071   2.631   5.671
10768TIP3   OH232246   4.100   6.964   6.563
10768TIP3    H132247   4.186   6.965   6.607
10768TIP3    H232248   4.088   6.872   6.537
10769TIP3   OH232249   1.110   4.646   4.263
10769TIP3    H132250   1.090   4.635   4.170
10769TIP3    H232251   1.131   4.558   4.294
10770TIP3   OH232252   7.790   1.556   6.461
10770TIP3    H132253   7.733   1.482   6.482
10770TIP3    H232254   7.801   1.552   6.366
10771TIP3   OH232255   1.916   0.358   5.861
10771TIP3    H132256   1.882   0.348   5.950
10771TIP3    H232257   1.846   0.327   5.805
10772TIP3   OH232258   4.718   4.035   0.313
10772TIP3    H132259   4.700   4.046   0.406
10772TIP3    H232260   4.793   3.975   0.310
10773TIP3   OH232261   0.189   3.991   1.302
10773TIP3    H132262   0.219   4.071   1.344
10773TIP3    H232263   0.260   3.929   1.313
10774TIP3   OH232264   2.125   1.636   5.394
10774TIP3    H132265   2.055   1.610   5.333
10774TIP3    H232266   2.079   1.686   5.462
10775TIP3   OH232267   8.202   3.864   2.647
10775TIP3    H132268   8.191   3.778   2.686
10775TIP3    H232269   8.297   3.879   2.648
10776TIP3   OH232270   1.673   2.719   1.408
10776TIP3    H132271   1.589   2.673   1.407
10776TIP3    H232272   1.737   2.652   1.431
10777TIP3   OH232273   7.519   3.052   0.396
10777TIP3    H132274   7.527   3.038   0.302
10777TIP3    H232275   7.580   3.124   0.415
10778TIP3   OH232276   4.254   5.876   6.201
10778TIP3    H132277   4.162   5.879   6.172
10778TIP3    H232278   4.295   5.813   6.142
10779TIP3   OH232279   0.442   2.648   1.583
10779TIP3    H132280   0.495   2.673   1.507
10779TIP3    H232281   0.472   2.559   1.604
10780TIP3   OH232282   7.317   2.095   3.060
10780TIP3    H132283   7.282   2.023   3.008
10780TIP3    H232284   7.251   2.108   3.129
10781TIP3   OH232285   3.304   4.156   5.852
10781TIP3    H132286   3.273   4.208   5.778
10781TIP3    H232287   3.289   4.065   5.826
10782TIP3   OH232288   6.427   3.386   2.981
10782TIP3    H132289   6.409   3.339   2.900
10782TIP3    H232290   6.501   3.443   2.960
10783TIP3   OH232291   1.174   2.918   4.834
10783TIP3    H132292   1.170   2.825   4.857
10783TIP3    H232293   1.167   2.919   4.738
10784TIP3   OH232294   3.992   5.246   3.586
10784TIP3    H132295   3.951   5.280   3.506
10784TIP3    H232296   3.959   5.301   3.656
10785TIP3   OH232297   4.721   7.202   2.940
10785TIP3    H132298   4.706   7.291   2.970
10785TIP3    H232299   4.641   7.177   2.894
10786TIP3   OH232300   5.351   5.463   0.943
10786TIP3    H132301   5.442   5.483   0.924
10786TIP3    H232302   5.302   5.537   0.907
10787TIP3   OH232303   3.198   3.174   3.015
10787TIP3    H132304   3.272   3.124   3.051
10787TIP3    H232305   3.198   3.255   3.066
10788TIP3   OH232306   0.162   4.636   1.265
10788TIP3    H132307   0.154   4.541   1.270
10788TIP3    H232308   0.124   4.668   1.346
10789TIP3   OH232309   7.608   7.511   3.591
10789TIP3    H132310   7.597   7.576   3.522
10789TIP3    H232311   7.632   7.561   3.669
10790TIP3   OH232312   4.074   2.567   2.943
10790TIP3    H132313   4.030   2.483   2.932
10790TIP3    H232314   4.097   2.594   2.853
10791TIP3   OH232315   4.702   5.679   1.326
10791TIP3    H132316   4.656   5.648   1.248
10791TIP3    H232317   4.714   5.600   1.379
10792TIP3   OH232318   1.197   5.220   2.264
10792TIP3    H132319   1.203   5.313   2.287
10792TIP3    H232320   1.288   5.189   2.267
10793TIP3   OH232321   0.564   6.777   0.661
10793TIP3    H132322   0.519   6.862   0.664
10793TIP3    H232323   0.644   6.790   0.713
10794TIP3   OH232324   6.693   5.392   4.234
10794TIP3    H132325   6.648   5.309   4.245
10794TIP3    H232326   6.779   5.368   4.200
10795TIP3   OH232327   0.040   5.285   2.669
10795TIP3    H132328   0.062   5.331   2.588
10795TIP3    H232329   0.017   5.196   2.641
10796TIP3   OH232330   0.587   1.745   0.039
10796TIP3    H132331   0.680   1.757   0.022
10796TIP3    H232332   0.573   1.651   0.032
10797TIP3   OH232333   4.491   2.251   4.963
10797TIP3    H132334   4.520   2.162   4.943
10797TIP3    H232335   4.449   2.281   4.882
10798TIP3   OH232336   4.999   2.773   6.625
10798TIP3    H132337   5.016   2.708   6.557
10798TIP3    H232338   5.083   2.818   6.636
10799TIP3   OH232339   4.293   7.791   2.952
10799TIP3    H132340   4.378   7.786   2.996
10799TIP3    H232341   4.314   7.800   2.859
10800TIP3   OH232342   2.452   7.156   4.059
10800TIP3    H132343   2.474   7.233   4.006
10800TIP3    H232344   2.535   7.109   4.068
10801TIP3   OH232345   6.514   7.579   3.245
10801TIP3    H132346   6.501   7.557   3.153
10801TIP3    H232347   6.593   7.531   3.271
10802TIP3   OH232348   5.642   6.800   3.655
10802TIP3    H132349   5.684   6.722   3.619
10802TIP3    H232350   5.617   6.852   3.578
10803TIP3   OH232351   5.453   6.340   0.535
10803TIP3    H132352   5.469   6.381   0.620
10803TIP3    H232353   5.380   6.280   0.550
10804TIP3   OH232354   0.049   3.571   5.076
10804TIP3    H132355   0.135   3.557   5.036
10804TIP3    H232356  -0.013   3.564   5.003
10805TIP3   OH232357   6.233   6.660   0.475
10805TIP3    H132358   6.271   6.620   0.553
10805TIP3    H232359   6.174   6.727   0.509
10806TIP3   OH232360   2.959   6.677   1.569
10806TIP3    H132361   2.983   6.740   1.501
10806TIP3    H232362   2.914   6.607   1.522
10807TIP3   OH232363   6.334   1.297   0.747
10807TIP3    H132364   6.295   1.307   0.660
10807TIP3    H232365   6.282   1.356   0.803
10808TIP3   OH232366   4.988   0.746   6.202
10808TIP3    H132367   4.920   0.688   6.168
10808TIP3    H232368   5.069   0.716   6.160
10809TIP3   OH232369   7.010   6.096   6.218
10809TIP3    H132370   6.927   6.142   6.225
10809TIP3    H232371   7.071   6.148   6.271
10810TIP3   OH232372   5.553   5.808   0.350
10810TIP3    H132373   5.504   5.840   0.274
10810TIP3    H232374   5.489   5.812   0.422
10811TIP3   OH232375   1.331   3.859   1.611
10811TIP3    H132376   1.236   3.866   1.600
10811TIP3    H232377   1.353   3.927   1.674
10812TIP3   OH232378   7.183   3.882   6.490
10812TIP3    H132379   7.156   3.973   6.490
10812TIP3    H232380   7.234   3.872   6.409
10813TIP3   OH232381   4.677   3.750   0.528
10813TIP3    H132382   4.604   3.792   0.574
10813TIP3    H232383   4.747   3.744   0.594
10814TIP3   OH232384   5.704   7.402   0.457
10814TIP3    H132385   5.799   7.407   0.443
10814TIP3    H232386   5.681   7.486   0.496
10815TIP3   OH232387   2.424   1.827   4.821
10815TIP3    H132388   2.350   1.817   4.881
10815TIP3    H232389   2.414   1.755   4.758
10816TIP3   OH232390   8.190   6.669   2.744
10816TIP3    H132391   8.156   6.693   2.830
10816TIP3    H232392   8.179   6.749   2.691
10817TIP3   OH232393   6.122   0.200   4.910
10817TIP3    H132394   6.144   0.225   4.999
10817TIP3    H232395   6.186   0.246   4.855
10818TIP3   OH232396   4.658   5.198   2.055
10818TIP3    H132397   4.738   5.238   2.089
10818TIP3    H232398   4.614   5.162   2.132
10819TIP3   OH232399   4.467   4.886   3.633
10819TIP3    H132400   4.404   4.882   3.705
10819TIP3    H232401   4.417   4.858   3.556
10820TIP3   OH232402   6.876   3.067   4.270
10820TIP3    H132403   6.855   2.986   4.316
10820TIP3    H232404   6.960   3.094   4.306
10821TIP3   OH232405   7.206   2.151   4.154
10821TIP3    H132406   7.151   2.157   4.076
10821TIP3    H232407   7.160   2.090   4.212
10822TIP3   OH232408   1.292   2.305   1.387
10822TIP3    H132409   1.332   2.264   1.463
10822TIP3    H232410   1.249   2.383   1.421
10823TIP3   OH232411   2.856   0.449   5.205
10823TIP3    H132412   2.815   0.362   5.204
10823TIP3    H232413   2.842   0.481   5.295
10824TIP3   OH232414   7.110   5.787   2.334
10824TIP3    H132415   7.134   5.726   2.264
10824TIP3    H232416   7.036   5.836   2.299
10825TIP3   OH232417   0.179   1.229   1.737
10825TIP3    H132418   0.252   1.203   1.681
10825TIP3    H232419   0.172   1.158   1.801
10826TIP3   OH232420   7.931   2.170   2.299
10826TIP3    H132421   7.956   2.154   2.390
10826TIP3    H232422   7.894   2.087   2.270
10827TIP3   OH232423   5.896   2.712   4.241
10827TIP3    H132424   5.928   2.631   4.202
10827TIP3    H232425   5.896   2.776   4.170
10828TIP3   OH232426   4.296   3.456   4.717
10828TIP3    H132427   4.279   3.507   4.637
10828TIP3    H232428   4.389   3.434   4.712
10829TIP3   OH232429   7.567   1.117   3.541
10829TIP3    H132430   7.600   1.141   3.628
10829TIP3    H232431   7.531   1.198   3.505
10830TIP3   OH232432   0.329   2.950   2.655
10830TIP3    H132433   0.326   3.046   2.661
10830TIP3    H232434   0.302   2.919   2.741
10831TIP3   OH232435   6.557   2.735   2.725
10831TIP3    H132436   6.587   2.662   2.672
10831TIP3    H232437   6.626   2.748   2.790
10832TIP3   OH232438   6.943   3.843   0.823
10832TIP3    H132439   6.914   3.864   0.735
10832TIP3    H232440   7.027   3.799   0.811
10833TIP3   OH232441   4.670   4.141   5.430
10833TIP3    H132442   4.738   4.076   5.409
10833TIP3    H232443   4.597   4.089   5.461
10834TIP3   OH232444   1.759   0.285   2.614
10834TIP3    H132445   1.766   0.221   2.685
10834TIP3    H232446   1.687   0.252   2.560
10835TIP3   OH232447   0.481   5.074   4.965
10835TIP3    H132448   0.523   4.992   4.941
10835TIP3    H232449   0.399   5.076   4.915
10836TIP3   OH232450   6.537   3.690   1.982
10836TIP3    H132451   6.453   3.692   1.936
10836TIP3    H232452   6.566   3.781   1.982
10837TIP3   OH232453   7.808   3.571   5.351
10837TIP3    H132454   7.875   3.543   5.413
10837TIP3    H232455   7.809   3.504   5.283
10838TIP3   OH232456   0.330   5.102   2.816
10838TIP3    H132457   0.377   5.185   2.823
10838TIP3    H232458   0.252   5.114   2.871
10839TIP3   OH232459   2.365   4.587   0.506
10839TIP3    H132460   2.271   4.571   0.493
10839TIP3    H232461   2.383   4.665   0.452
10840TIP3   OH232462   1.340   7.358   0.029
10840TIP3    H132463   1.421   7.390   0.070
10840TIP3    H232464   1.308   7.290   0.088
10841TIP3   OH232465   1.408   7.607   3.340
10841TIP3    H132466   1.427   7.655   3.259
10841TIP3    H232467   1.325   7.562   3.321
10842TIP3   OH232468   0.660   1.035   1.589
10842TIP3    H132469   0.663   0.947   1.552
10842TIP3    H232470   0.738   1.078   1.554
10843TIP3   OH232471   7.309   3.625   6.595
10843TIP3    H132472   7.311   3.579   6.511
10843TIP3    H232473   7.307   3.718   6.572
10844TIP3   OH232474   7.816   1.361   5.826
10844TIP3    H132475   7.826   1.455   5.841
10844TIP3    H232476   7.844   1.348   5.736
10845TIP3   OH232477   4.662   5.086   1.422
10845TIP3    H132478   4.570   5.105   1.435
10845TIP3    H232479   4.663   4.999   1.383
10846TIP3   OH232480   7.470   6.133   5.116
10846TIP3    H132481   7.456   6.148   5.023
10846TIP3    H232482   7.418   6.200   5.160
10847TIP3   OH232483   4.771   5.986   1.623
10847TIP3    H132484   4.863   5.999   1.645
10847TIP3    H232485   4.725   6.000   1.706
10848TIP3   OH232486   2.823   3.926   2.670
10848TIP3    H132487   2.852   3.898   2.583
10848TIP3    H232488   2.734   3.891   2.678
10849TIP3   OH232489   0.851   1.517   4.421
10849TIP3    H132490   0.757   1.530   4.408
10849TIP3    H232491   0.889   1.605   4.413
10850TIP3   OH232492   1.675   4.987   5.751
10850TIP3    H132493   1.597   4.932   5.749
10850TIP3    H232494   1.679   5.019   5.841
10851TIP3   OH232495   6.444   5.807   5.482
10851TIP3    H132496   6.394   5.736   5.442
10851TIP3    H232497   6.535   5.779   5.476
10852TIP3   OH232498   0.648   7.207   6.717
10852TIP3    H132499   0.678   7.197   6.807
10852TIP3    H232500   0.554   7.192   6.720
10853TIP3   OH232501   5.669   2.244   1.716
10853TIP3    H132502   5.723   2.198   1.652
10853TIP3    H232503   5.714   2.234   1.799
10854TIP3   OH232504   0.739   4.468   1.510
10854TIP3    H132505   0.780   4.513   1.436
10854TIP3    H232506   0.811   4.425   1.555
10855TIP3   OH232507   0.488   7.729   2.489
10855TIP3    H132508   0.449   7.742   2.402
10855TIP3    H232509   0.433   7.781   2.547
10856TIP3   OH232510   1.560   4.449   6.562
10856TIP3    H132511   1.585   4.359   6.584
10856TIP3    H232512   1.497   4.440   6.491
10857TIP3   OH232513   2.897   4.555   3.469
10857TIP3    H132514   2.861   4.632   3.425
10857TIP3    H232515   2.970   4.590   3.521
10858TIP3   OH232516   4.729   5.900   0.103
10858TIP3    H132517   4.688   5.873   0.184
10858TIP3    H232518   4.818   5.866   0.108
10859TIP3   OH232519   4.882   7.587   1.876
10859TIP3    H132520   4.973   7.583   1.903
10859TIP3    H232521   4.870   7.676   1.844
10860TIP3   OH232522   5.572   2.178   3.836
10860TIP3    H132523   5.655   2.133   3.822
10860TIP3    H232524   5.542   2.202   3.748
10861TIP3   OH232525   7.759   6.951   2.849
10861TIP3    H132526   7.791   6.875   2.801
10861TIP3    H232527   7.833   7.011   2.852
10862TIP3   OH232528   5.034   5.662   2.453
10862TIP3    H132529   5.016   5.722   2.381
10862TIP3    H232530   5.113   5.614   2.425
10863TIP3   OH232531   7.867   0.690   5.236
10863TIP3    H132532   7.843   0.630   5.306
10863TIP3    H232533   7.785   0.732   5.210
10864TIP3   OH232534   3.693   5.264   6.373
10864TIP3    H132535   3.778   5.228   6.350
10864TIP3    H232536   3.676   5.331   6.308
10865TIP3   OH232537   6.710   4.124   2.408
10865TIP3    H132538   6.633   4.070   2.389
10865TIP3    H232539   6.698   4.153   2.498
10866TIP3   OH232540   5.883   7.528   2.856
10866TIP3    H132541   5.827   7.546   2.931
10866TIP3    H232542   5.822   7.501   2.786
10867TIP3   OH232543   5.124   7.225   5.363
10867TIP3    H132544   5.152   7.194   5.277
10867TIP3    H232545   5.103   7.318   5.349
10868TIP3   OH232546   1.154   4.993   6.294
10868TIP3    H132547   1.113   5.046   6.225
10868TIP3    H232548   1.148   4.903   6.262
10869TIP3   OH232549   5.442   0.902   1.684
10869TIP3    H132550   5.502   0.972   1.707
10869TIP3    H232551   5.472   0.826   1.735
10870TIP3   OH232552   2.506   6.852   5.505
10870TIP3    H132553   2.581   6.821   5.555
10870TIP3    H232554   2.434   6.853   5.568
10871TIP3   OH232555   3.211   6.085   5.039
10871TIP3    H132556   3.225   5.994   5.013
10871TIP3    H232557   3.119   6.089   5.062
10872TIP3   OH232558   3.584   1.363   5.596
10872TIP3    H132559   3.669   1.338   5.632
10872TIP3    H232560   3.559   1.441   5.644
10873TIP3   OH232561   1.809   4.651   3.707
10873TIP3    H132562   1.730   4.599   3.718
10873TIP3    H232563   1.797   4.697   3.624
10874TIP3   OH232564   7.640   6.847   6.361
10874TIP3    H132565   7.722   6.852   6.312
10874TIP3    H232566   7.656   6.896   6.441
10875TIP3   OH232567   8.289   2.489   2.802
10875TIP3    H132568   8.196   2.498   2.783
10875TIP3    H232569   8.333   2.538   2.732
10876TIP3   OH232570   2.250   1.540   0.530
10876TIP3    H132571   2.164   1.539   0.489
10876TIP3    H232572   2.241   1.484   0.607
10877TIP3   OH232573   4.005   3.631   0.582
10877TIP3    H132574   4.038   3.617   0.671
10877TIP3    H232575   3.942   3.703   0.591
10878TIP3   OH232576   6.184   4.903   3.441
10878TIP3    H132577   6.173   4.839   3.512
10878TIP3    H232578   6.275   4.930   3.447
10879TIP3   OH232579   5.582   7.115   4.706
10879TIP3    H132580   5.561   7.064   4.627
10879TIP3    H232581   5.584   7.206   4.677
10880TIP3   OH232582   6.289   1.931   4.070
10880TIP3    H132583   6.303   1.888   3.986
10880TIP3    H232584   6.198   1.911   4.092
10881TIP3   OH232585   6.847   3.728   3.891
10881TIP3    H132586   6.761   3.769   3.896
10881TIP3    H232587   6.906   3.800   3.868
10882TIP3   OH232588   2.304   0.628   4.588
10882TIP3    H132589   2.215   0.597   4.605
10882TIP3    H232590   2.356   0.548   4.579
10883TIP3   OH232591   6.829   1.734   6.347
10883TIP3    H132592   6.760   1.762   6.285
10883TIP3    H232593   6.904   1.790   6.325
10884TIP3   OH232594   6.908   6.561   4.228
10884TIP3    H132595   6.993   6.605   4.231
10884TIP3    H232596   6.901   6.529   4.138
10885TIP3   OH232597   7.710   0.479   6.256
10885TIP3    H132598   7.730   0.558   6.306
10885TIP3    H232599   7.791   0.427   6.259
10886TIP3   OH232600   8.038   4.922   5.695
10886TIP3    H132601   7.984   4.888   5.765
10886TIP3    H232602   8.029   5.017   5.702
10887TIP3   OH232603   3.961   3.570   3.616
10887TIP3    H132604   4.024   3.639   3.596
10887TIP3    H232605   3.908   3.561   3.537
10888TIP3   OH232606   3.853   3.397   4.515
10888TIP3    H132607   3.774   3.365   4.472
10888TIP3    H232608   3.905   3.435   4.444
10889TIP3   OH232609   1.921   7.686   3.583
10889TIP3    H132610   1.867   7.716   3.509
10889TIP3    H232611   2.006   7.729   3.569
10890TIP3   OH232612   5.354   5.279   2.921
10890TIP3    H132613   5.371   5.268   2.828
10890TIP3    H232614   5.416   5.220   2.965
10891TIP3   OH232615   0.841   2.714   4.922
10891TIP3    H132616   0.765   2.762   4.890
10891TIP3    H232617   0.886   2.775   4.980
10892TIP3   OH232618   0.050   1.453   2.042
10892TIP3    H132619   0.051   1.414   2.130
10892TIP3    H232620  -0.020   1.407   1.996
10893TIP3   OH232621   6.973   2.422   0.654
10893TIP3    H132622   6.908   2.488   0.681
10893TIP3    H232623   6.921   2.345   0.633
10894TIP3   OH232624   6.935   6.605   1.913
10894TIP3    H132625   6.876   6.664   1.959
10894TIP3    H232626   6.964   6.543   1.980
10895TIP3   OH232627   3.556   6.036   1.146
10895TIP3    H132628   3.640   6.037   1.191
10895TIP3    H232629   3.578   6.044   1.054
10896TIP3   OH232630   2.479   7.369   3.064
10896TIP3    H132631   2.564   7.341   3.029
10896TIP3    H232632   2.493   7.374   3.158
10897TIP3   OH232633   6.983   3.533   4.346
10897TIP3    H132634   6.906   3.514   4.399
10897TIP3    H232635   6.992   3.457   4.289
10898TIP3   OH232636   7.098   6.795   2.897
10898TIP3    H132637   7.071   6.883   2.870
10898TIP3    H232638   7.063   6.737   2.829
10899TIP3   OH232639   1.578   3.229   6.223
10899TIP3    H132640   1.586   3.234   6.318
10899TIP3    H232641   1.504   3.286   6.202
10900TIP3   OH232642   2.602   6.790   4.548
10900TIP3    H132643   2.546   6.733   4.602
10900TIP3    H232644   2.663   6.730   4.506
10901TIP3   OH232645   2.380   1.702   1.429
10901TIP3    H132646   2.408   1.755   1.504
10901TIP3    H232647   2.462   1.674   1.389
10902TIP3   OH232648   2.714   6.693   0.120
10902TIP3    H132649   2.809   6.689   0.109
10902TIP3    H232650   2.692   6.783   0.095
10903TIP3   OH232651   4.480   4.085   0.123
10903TIP3    H132652   4.546   4.112   0.059
10903TIP3    H232653   4.529   4.037   0.189
10904TIP3   OH232654   1.527   2.065   3.211
10904TIP3    H132655   1.541   2.139   3.270
10904TIP3    H232656   1.606   2.012   3.220
10905TIP3   OH232657   2.445   0.961   1.141
10905TIP3    H132658   2.505   0.886   1.139
10905TIP3    H232659   2.503   1.037   1.149
10906TIP3   OH232660   5.975   0.495   4.201
10906TIP3    H132661   5.930   0.444   4.269
10906TIP3    H232662   5.934   0.468   4.119
10907TIP3   OH232663   1.386   5.269   0.912
10907TIP3    H132664   1.327   5.215   0.964
10907TIP3    H232665   1.367   5.244   0.821
10908TIP3   OH232666   7.501   2.962   3.636
10908TIP3    H132667   7.458   2.907   3.701
10908TIP3    H232668   7.440   2.963   3.562
10909TIP3   OH232669   2.774   6.423   0.386
10909TIP3    H132670   2.793   6.445   0.294
10909TIP3    H232671   2.681   6.440   0.396
10910TIP3   OH232672   2.601   7.213   2.034
10910TIP3    H132673   2.640   7.300   2.028
10910TIP3    H232674   2.675   7.154   2.044
10911TIP3   OH232675   0.922   0.173   2.337
10911TIP3    H132676   0.957   0.194   2.251
10911TIP3    H232677   0.869   0.094   2.324
10912TIP3   OH232678   6.424   4.722   0.385
10912TIP3    H132679   6.433   4.816   0.399
10912TIP3    H232680   6.342   4.699   0.430
10913TIP3   OH232681   6.806   4.543   1.449
10913TIP3    H132682   6.750   4.602   1.398
10913TIP3    H232683   6.826   4.593   1.528
10914TIP3   OH232684   5.154   5.620   3.958
10914TIP3    H132685   5.075   5.576   3.987
10914TIP3    H232686   5.125   5.708   3.934
10915TIP3   OH232687   5.172   7.258   3.701
10915TIP3    H132688   5.164   7.189   3.636
10915TIP3    H232689   5.149   7.216   3.784
10916TIP3   OH232690   6.325   3.976   0.264
10916TIP3    H132691   6.404   3.967   0.211
10916TIP3    H232692   6.347   4.042   0.329
10917TIP3   OH232693   4.885   3.637   4.616
10917TIP3    H132694   4.817   3.620   4.550
10917TIP3    H232695   4.879   3.731   4.633
10918TIP3   OH232696   4.938   3.000   6.345
10918TIP3    H132697   4.906   2.911   6.332
10918TIP3    H232698   4.997   2.993   6.421
10919TIP3   OH232699   4.301   4.816   3.421
10919TIP3    H132700   4.220   4.771   3.445
10919TIP3    H232701   4.282   4.855   3.336
10920TIP3   OH232702   0.492   6.207   3.014
10920TIP3    H132703   0.531   6.246   3.092
10920TIP3    H232704   0.535   6.252   2.941
10921TIP3   OH232705   7.370   3.257   6.093
10921TIP3    H132706   7.434   3.241   6.162
10921TIP3    H232707   7.328   3.171   6.080
10922TIP3   OH232708   0.359   0.469   2.081
10922TIP3    H132709   0.377   0.422   2.162
10922TIP3    H232710   0.282   0.425   2.044
10923TIP3   OH232711   5.719   0.581   6.654
10923TIP3    H132712   5.779   0.580   6.729
10923TIP3    H232713   5.753   0.512   6.596
10924TIP3   OH232714   4.923   3.436   3.490
10924TIP3    H132715   4.964   3.372   3.548
10924TIP3    H232716   4.971   3.428   3.408
10925TIP3   OH232717   3.936   4.909   4.524
10925TIP3    H132718   3.875   4.868   4.462
10925TIP3    H232719   3.887   4.982   4.561
10926TIP3   OH232720   2.802   5.281   4.408
10926TIP3    H132721   2.813   5.187   4.396
10926TIP3    H232722   2.730   5.304   4.349
10927TIP3   OH232723   0.634   0.992   6.238
10927TIP3    H132724   0.580   0.975   6.315
10927TIP3    H232725   0.602   0.930   6.173
10928TIP3   OH232726   7.591   2.414   4.797
10928TIP3    H132727   7.653   2.461   4.853
10928TIP3    H232728   7.506   2.424   4.842
10929TIP3   OH232729   5.309   0.666   1.920
10929TIP3    H132730   5.240   0.732   1.931
10929TIP3    H232731   5.276   0.609   1.850
10930TIP3   OH232732   2.143   5.124   3.985
10930TIP3    H132733   2.084   5.175   3.931
10930TIP3    H232734   2.208   5.090   3.924
10931TIP3   OH232735   5.188   2.504   4.340
10931TIP3    H132736   5.249   2.539   4.275
10931TIP3    H232737   5.203   2.557   4.418
10932TIP3   OH232738   2.603   2.240   5.795
10932TIP3    H132739   2.542   2.276   5.859
10932TIP3    H232740   2.555   2.169   5.753
10933TIP3   OH232741   3.634   6.826   1.544
10933TIP3    H132742   3.588   6.879   1.478
10933TIP3    H232743   3.633   6.737   1.509
10934TIP3   OH232744   6.895   1.358   6.668
10934TIP3    H132745   6.830   1.421   6.638
10934TIP3    H232746   6.903   1.373   6.762
10935TIP3   OH232747   2.063   0.907   4.739
10935TIP3    H132748   2.066   0.841   4.670
10935TIP3    H232749   2.155   0.921   4.762
10936TIP3   OH232750   4.808   3.473   3.924
10936TIP3    H132751   4.833   3.552   3.972
10936TIP3    H232752   4.712   3.474   3.924
10937TIP3   OH232753   6.331   6.805   4.467
10937TIP3    H132754   6.350   6.735   4.405
10937TIP3    H232755   6.237   6.800   4.482
10938TIP3   OH232756   2.233   3.906   0.141
10938TIP3    H132757   2.315   3.931   0.183
10938TIP3    H232758   2.260   3.851   0.067
10939TIP3   OH232759   4.073   6.330   2.731
10939TIP3    H132760   4.168   6.327   2.743
10939TIP3    H232761   4.049   6.238   2.715
10940TIP3   OH232762   3.470   3.125   4.473
10940TIP3    H132763   3.472   3.100   4.566
10940TIP3    H232764   3.556   3.161   4.456
10941TIP3   OH232765   6.618   4.343   1.556
10941TIP3    H132766   6.665   4.389   1.487
10941TIP3    H232767   6.608   4.254   1.523
10942TIP3   OH232768   6.600   0.249   5.739
10942TIP3    H132769   6.552   0.328   5.717
10942TIP3    H232770   6.692   0.273   5.728
10943TIP3   OH232771   7.213   6.273   0.442
10943TIP3    H132772   7.138   6.283   0.384
10943TIP3    H232773   7.237   6.181   0.435
10944TIP3   OH232774   6.033   2.180   0.519
10944TIP3    H132775   5.995   2.101   0.557
10944TIP3    H232776   5.959   2.241   0.513
10945TIP3   OH232777   7.745   1.632   1.980
10945TIP3    H132778   7.786   1.717   1.963
10945TIP3    H232779   7.760   1.617   2.073
10946TIP3   OH232780   1.932   0.730   6.180
10946TIP3    H132781   1.870   0.793   6.217
10946TIP3    H232782   1.990   0.707   6.253
10947TIP3   OH232783   8.102   5.082   1.816
10947TIP3    H132784   8.077   5.002   1.770
10947TIP3    H232785   8.167   5.123   1.759
10948TIP3   OH232786   2.139   3.566   3.066
10948TIP3    H132787   2.141   3.488   3.010
10948TIP3    H232788   2.177   3.635   3.012
10949TIP3   OH232789   4.618   1.156   4.675
10949TIP3    H132790   4.637   1.119   4.588
10949TIP3    H232791   4.688   1.219   4.690
10950TIP3   OH232792   7.365   1.732   5.030
10950TIP3    H132793   7.301   1.801   5.048
10950TIP3    H232794   7.322   1.676   4.965
10951TIP3   OH232795   6.723   7.179   0.922
10951TIP3    H132796   6.814   7.149   0.915
10951TIP3    H232797   6.683   7.154   0.839
10952TIP3   OH232798   7.456   2.020   1.033
10952TIP3    H132799   7.492   1.970   1.106
10952TIP3    H232800   7.533   2.062   0.993
10953TIP3   OH232801   5.364   3.547   0.538
10953TIP3    H132802   5.423   3.617   0.511
10953TIP3    H232803   5.422   3.476   0.567
10954TIP3   OH232804   4.051   6.752   1.867
10954TIP3    H132805   4.112   6.679   1.856
10954TIP3    H232806   3.965   6.712   1.857
10955TIP3   OH232807   5.986   5.377   5.372
10955TIP3    H132808   5.995   5.339   5.460
10955TIP3    H232809   6.064   5.348   5.325
10956TIP3   OH232810   5.483   5.672   5.449
10956TIP3    H132811   5.501   5.671   5.355
10956TIP3    H232812   5.448   5.760   5.465
10957TIP3   OH232813   8.215   3.198   0.712
10957TIP3    H132814   8.311   3.192   0.705
10957TIP3    H232815   8.183   3.117   0.673
10958TIP3   OH232816   7.492   2.551   3.969
10958TIP3    H132817   7.581   2.555   4.002
10958TIP3    H232818   7.479   2.459   3.945
10959TIP3   OH232819   4.880   6.982   4.782
10959TIP3    H132820   4.937   7.035   4.837
10959TIP3    H232821   4.842   7.044   4.719
10960TIP3   OH232822   7.581   5.532   4.085
10960TIP3    H132823   7.621   5.446   4.097
10960TIP3    H232824   7.603   5.580   4.165
10961TIP3   OH232825   2.341   0.933   4.758
10961TIP3    H132826   2.434   0.927   4.782
10961TIP3    H232827   2.339   0.995   4.685
10962TIP3   OH232828   4.922   3.387   1.258
10962TIP3    H132829   4.985   3.352   1.321
10962TIP3    H232830   4.839   3.391   1.306
10963TIP3   OH232831   4.958   1.467   5.257
10963TIP3    H132832   4.962   1.488   5.351
10963TIP3    H232833   4.874   1.501   5.228
10964TIP3   OH232834   6.838   3.428   2.344
10964TIP3    H132835   6.774   3.404   2.277
10964TIP3    H232836   6.843   3.351   2.401
10965TIP3   OH232837   1.868   2.971   3.861
10965TIP3    H132838   1.849   2.976   3.955
10965TIP3    H232839   1.963   2.980   3.855
10966TIP3   OH232840   6.593   0.875   2.387
10966TIP3    H132841   6.680   0.896   2.420
10966TIP3    H232842   6.609   0.827   2.306
10967TIP3   OH232843   6.132   4.735   3.659
10967TIP3    H132844   6.050   4.720   3.612
10967TIP3    H232845   6.119   4.692   3.744
10968TIP3   OH232846   5.524   6.020   5.851
10968TIP3    H132847   5.428   6.012   5.856
10968TIP3    H232848   5.549   6.063   5.933
10969TIP3   OH232849   7.912   1.649   4.186
10969TIP3    H132850   7.891   1.687   4.100
10969TIP3    H232851   7.962   1.717   4.230
10970TIP3   OH232852   3.334   4.764   2.945
10970TIP3    H132853   3.245   4.778   2.912
10970TIP3    H232854   3.353   4.843   2.996
10971TIP3   OH232855   2.497   1.003   4.289
10971TIP3    H132856   2.442   1.065   4.336
10971TIP3    H232857   2.558   1.057   4.239
10972TIP3   OH232858   0.545   2.076   3.196
10972TIP3    H132859   0.608   2.010   3.168
10972TIP3    H232860   0.512   2.114   3.115
10973TIP3   OH232861   3.795   1.032   2.314
10973TIP3    H132862   3.736   1.001   2.383
10973TIP3    H232863   3.864   1.079   2.361
10974TIP3   OH232864   6.150   1.547   0.594
10974TIP3    H132865   6.076   1.488   0.609
10974TIP3    H232866   6.110   1.632   0.578
10975TIP3   OH232867   2.796   6.769   3.627
10975TIP3    H132868   2.880   6.760   3.581
10975TIP3    H232869   2.736   6.714   3.576
10976TIP3   OH232870   6.428   5.092   4.817
10976TIP3    H132871   6.467   5.011   4.851
10976TIP3    H232872   6.503   5.147   4.797
10977TIP3   OH232873   1.337   3.254   1.848
10977TIP3    H132874   1.258   3.301   1.873
10977TIP3    H232875   1.321   3.163   1.873
10978TIP3   OH232876   1.887   4.248   4.956
10978TIP3    H132877   1.923   4.263   5.043
10978TIP3    H232878   1.811   4.191   4.970
10979TIP3   OH232879   7.800   5.071   0.172
10979TIP3    H132880   7.777   5.070   0.079
10979TIP3    H232881   7.894   5.051   0.173
10980TIP3   OH232882   1.063   7.342   0.085
10980TIP3    H132883   1.138   7.394   0.113
10980TIP3    H232884   1.096   7.252   0.082
10981TIP3   OH232885   5.111   0.886   1.421
10981TIP3    H132886   5.181   0.857   1.362
10981TIP3    H232887   5.077   0.966   1.380
10982TIP3   OH232888   0.194   2.155   3.439
10982TIP3    H132889   0.146   2.113   3.368
10982TIP3    H232890   0.200   2.088   3.507
10983TIP3   OH232891   5.489   2.664   0.143
10983TIP3    H132892   5.490   2.570   0.162
10983TIP3    H232893   5.397   2.689   0.151
10984TIP3   OH232894   6.506   7.765   2.615
10984TIP3    H132895   6.471   7.729   2.696
10984TIP3    H232896   6.436   7.751   2.551
10985TIP3   OH232897   1.998   5.322   2.483
10985TIP3    H132898   2.015   5.250   2.423
10985TIP3    H232899   2.062   5.389   2.459
10986TIP3   OH232900   0.282   3.457   3.398
10986TIP3    H132901   0.368   3.487   3.429
10986TIP3    H232902   0.298   3.369   3.365
10987TIP3   OH232903   6.131   5.690   4.546
10987TIP3    H132904   6.220   5.656   4.551
10987TIP3    H232905   6.133   5.751   4.472
10988TIP3   OH232906   7.116   5.064   1.207
10988TIP3    H132907   7.203   5.043   1.242
10988TIP3    H232908   7.093   4.989   1.153
10989TIP3   OH232909   0.090   6.485   4.346
10989TIP3    H132910   0.100   6.575   4.314
10989TIP3    H232911   0.079   6.494   4.440
10990TIP3   OH232912   7.929   1.855   1.395
10990TIP3    H132913   7.991   1.927   1.408
10990TIP3    H232914   7.848   1.886   1.437
10991TIP3   OH232915   5.239   6.794   5.380
10991TIP3    H132916   5.219   6.739   5.456
10991TIP3    H232917   5.298   6.862   5.414
10992TIP3   OH232918   1.510   7.366   4.793
10992TIP3    H132919   1.431   7.339   4.841
10992TIP3    H232920   1.574   7.386   4.862
10993TIP3   OH232921   4.969   4.469   6.352
10993TIP3    H132922   4.984   4.499   6.263
10993TIP3    H232923   4.889   4.514   6.379
10994TIP3   OH232924   4.310   6.456   2.384
10994TIP3    H132925   4.322   6.363   2.366
10994TIP3    H232926   4.230   6.460   2.436
10995TIP3   OH232927   3.736   3.806   0.516
10995TIP3    H132928   3.759   3.842   0.430
10995TIP3    H232929   3.701   3.880   0.564
10996TIP3   OH232930   6.426   2.470   2.813
10996TIP3    H132931   6.382   2.458   2.729
10996TIP3    H232932   6.477   2.551   2.802
10997TIP3   OH232933   5.924   0.709   0.319
10997TIP3    H132934   5.864   0.653   0.368
10997TIP3    H232935   5.956   0.773   0.383
10998TIP3   OH232936   7.652   6.978   1.858
10998TIP3    H132937   7.584   7.002   1.795
10998TIP3    H232938   7.634   7.033   1.934
10999TIP3   OH232939   8.300   5.152   4.399
10999TIP3    H132940   8.271   5.066   4.370
10999TIP3    H232941   8.220   5.202   4.410
11000TIP3   OH232942   7.303   1.583   6.598
11000TIP3    H132943   7.313   1.494   6.565
11000TIP3    H232944   7.208   1.594   6.607
11001TIP3   OH232945   2.760   1.460   1.212
11001TIP3    H132946   2.730   1.418   1.132
11001TIP3    H232947   2.856   1.462   1.203
11002TIP3   OH232948   2.370   1.122   6.375
11002TIP3    H132949   2.371   1.200   6.321
11002TIP3    H232950   2.437   1.138   6.442
11003TIP3   OH232951   2.909   7.200   1.524
11003TIP3    H132952   2.953   7.283   1.543
11003TIP3    H232953   2.828   7.203   1.575
11004TIP3   OH232954   1.075   7.825   0.043
11004TIP3    H132955   1.136   7.781   0.103
11004TIP3    H232956   1.007   7.760   0.025
11005TIP3   OH232957   2.891   1.783   0.661
11005TIP3    H132958   2.907   1.787   0.566
11005TIP3    H232959   2.917   1.869   0.693
11006TIP3   OH232960   0.288   1.247   0.202
11006TIP3    H132961   0.328   1.267   0.286
11006TIP3    H232962   0.236   1.324   0.181
11007TIP3   OH232963   4.370   6.937   1.333
11007TIP3    H132964   4.442   6.957   1.273
11007TIP3    H232965   4.325   6.863   1.292
11008TIP3   OH232966   3.479   5.193   5.760
11008TIP3    H132967   3.390   5.216   5.789
11008TIP3    H232968   3.531   5.192   5.841
11009TIP3   OH232969   1.872   3.093   5.289
11009TIP3    H132970   1.877   3.188   5.298
11009TIP3    H232971   1.873   3.060   5.379
11010TIP3   OH232972   2.283   2.592   6.571
11010TIP3    H132973   2.229   2.578   6.493
11010TIP3    H232974   2.347   2.520   6.569
11011TIP3   OH232975   7.917   1.281   4.754
11011TIP3    H132976   7.867   1.227   4.693
11011TIP3    H232977   7.855   1.305   4.822
11012TIP3   OH232978   8.043   1.396   1.601
11012TIP3    H132979   8.008   1.478   1.635
11012TIP3    H232980   8.026   1.400   1.507
11013TIP3   OH232981   6.741   5.976   2.494
11013TIP3    H132982   6.820   6.014   2.455
11013TIP3    H232983   6.773   5.913   2.558
11014TIP3   OH232984   1.459   2.687   6.468
11014TIP3    H132985   1.541   2.696   6.420
11014TIP3    H232986   1.393   2.728   6.412
11015TIP3   OH232987   0.971   3.169   6.457
11015TIP3    H132988   0.890   3.127   6.427
11015TIP3    H232989   0.993   3.231   6.388
11016TIP3   OH232990   4.526   0.039   0.257
11016TIP3    H132991   4.441   0.082   0.247
11016TIP3    H232992   4.528  -0.027   0.188
11017TIP3   OH232993   6.372   0.923   5.698
11017TIP3    H132994   6.449   0.899   5.646
11017TIP3    H232995   6.346   1.009   5.666
11018TIP3   OH232996   0.035   1.920   5.557
11018TIP3    H132997   0.010   2.009   5.531
11018TIP3    H232998   0.131   1.922   5.558
11019TIP3   OH232999   3.619   3.627   5.023
11019TIP3    H133000   3.542   3.600   5.072
11019TIP3    H233001   3.693   3.599   5.077
11020TIP3   OH233002   5.285   5.475   4.974
11020TIP3    H133003   5.318   5.455   5.061
11020TIP3    H233004   5.333   5.417   4.916
11021TIP3   OH233005   6.861   5.741   2.138
11021TIP3    H133006   6.898   5.666   2.091
11021TIP3    H233007   6.828   5.705   2.220
11022TIP3   OH233008   4.134   2.539   4.764
11022TIP3    H133009   4.206   2.598   4.743
11022TIP3    H233010   4.107   2.504   4.679
11023TIP3   OH233011   8.179   6.277   1.000
11023TIP3    H133012   8.233   6.322   1.064
11023TIP3    H233013   8.189   6.328   0.920
11024TIP3   OH233014   7.076   4.479   3.169
11024TIP3    H133015   7.158   4.523   3.192
11024TIP3    H233016   7.010   4.548   3.168
11025TIP3   OH233017   5.349   4.996   3.956
11025TIP3    H133018   5.387   5.023   4.039
11025TIP3    H233019   5.345   5.076   3.904
11026TIP3   OH233020   0.056   7.429   0.104
11026TIP3    H133021   0.089   7.494   0.041
11026TIP3    H233022   0.018   7.481   0.174
11027TIP3   OH233023   3.275   5.352   4.417
11027TIP3    H133024   3.221   5.349   4.496
11027TIP3    H233025   3.279   5.445   4.394
11028TIP3   OH233026   4.473   0.843   3.603
11028TIP3    H133027   4.477   0.934   3.633
11028TIP3    H233028   4.423   0.797   3.670
11029TIP3   OH233029   3.683   6.307   3.070
11029TIP3    H133030   3.617   6.325   3.003
11029TIP3    H233031   3.633   6.298   3.151
11030TIP3   OH233032   3.853   0.114   5.581
11030TIP3    H133033   3.891   0.167   5.651
11030TIP3    H233034   3.918   0.047   5.564
11031TIP3   OH233035   2.831   5.840   3.305
11031TIP3    H133036   2.815   5.853   3.399
11031TIP3    H233037   2.768   5.899   3.262
11032TIP3   OH233038   3.313   4.362   1.969
11032TIP3    H133039   3.312   4.361   2.065
11032TIP3    H233040   3.226   4.330   1.944
11033TIP3   OH233041   5.577   2.342   6.557
11033TIP3    H133042   5.527   2.267   6.589
11033TIP3    H233043   5.647   2.303   6.505
11034TIP3   OH233044   1.570   2.834   0.773
11034TIP3    H133045   1.488   2.792   0.747
11034TIP3    H233046   1.551   2.870   0.860
11035TIP3   OH233047   8.293   2.363   0.915
11035TIP3    H133048   8.222   2.424   0.933
11035TIP3    H233049   8.302   2.365   0.819
11036TIP3   OH233050   2.998   4.036   4.371
11036TIP3    H133051   3.016   4.125   4.342
11036TIP3    H233052   3.038   4.031   4.458
11037TIP3   OH233053   2.685   5.036   1.630
11037TIP3    H133054   2.705   4.979   1.704
11037TIP3    H233055   2.678   4.976   1.555
11038TIP3   OH233056   3.633   1.804   4.132
11038TIP3    H133057   3.565   1.788   4.198
11038TIP3    H233058   3.656   1.717   4.100
11039TIP3   OH233059   7.660   5.063   4.459
11039TIP3    H133060   7.680   4.971   4.440
11039TIP3    H233061   7.568   5.073   4.433
11040TIP3   OH233062   4.962   0.263   2.883
11040TIP3    H133063   4.991   0.352   2.861
11040TIP3    H233064   4.999   0.208   2.814
11041TIP3   OH233065   0.610   6.308   0.339
11041TIP3    H133066   0.537   6.269   0.293
11041TIP3    H233067   0.581   6.315   0.430
11042TIP3   OH233068   8.042   2.738   4.170
11042TIP3    H133069   7.993   2.730   4.088
11042TIP3    H233070   7.985   2.696   4.236
11043TIP3   OH233071   0.263   5.543   6.438
11043TIP3    H133072   0.199   5.593   6.387
11043TIP3    H233073   0.278   5.463   6.388
11044TIP3   OH233074   5.630   5.971   6.240
11044TIP3    H133075   5.632   6.031   6.165
11044TIP3    H233076   5.697   6.006   6.299
11045TIP3   OH233077   3.274   3.198   3.329
11045TIP3    H133078   3.329   3.163   3.258
11045TIP3    H233079   3.321   3.277   3.358
11046TIP3   OH233080   3.377   4.924   4.418
11046TIP3    H133081   3.308   4.906   4.354
11046TIP3    H233082   3.411   5.010   4.392
11047TIP3   OH233083   3.007   3.766   4.728
11047TIP3    H133084   2.949   3.828   4.772
11047TIP3    H233085   2.950   3.691   4.708
11048TIP3   OH233086   6.953   3.818   1.960
11048TIP3    H133087   7.011   3.780   1.894
11048TIP3    H233088   6.955   3.912   1.942
11049TIP3   OH233089   6.656   3.580   1.299
11049TIP3    H133090   6.722   3.640   1.265
11049TIP3    H233091   6.574   3.629   1.294
11050TIP3   OH233092   2.664   5.676   3.575
11050TIP3    H133093   2.720   5.707   3.647
11050TIP3    H233094   2.708   5.598   3.542
11051TIP3   OH233095   4.932   7.146   5.539
11051TIP3    H133096   4.913   7.221   5.596
11051TIP3    H233097   4.999   7.178   5.479
11052TIP3   OH233098   1.743   3.294   3.332
11052TIP3    H133099   1.769   3.383   3.310
11052TIP3    H233100   1.647   3.298   3.339
11053TIP3   OH233101   0.188   1.527   0.150
11053TIP3    H133102   0.093   1.525   0.157
11053TIP3    H233103   0.218   1.548   0.239
11054TIP3   OH233104   0.265   3.752   0.961
11054TIP3    H133105   0.193   3.696   0.933
11054TIP3    H233106   0.336   3.732   0.900
11055TIP3   OH233107   2.999   2.034   1.511
11055TIP3    H133108   3.051   2.113   1.500
11055TIP3    H233109   2.999   1.992   1.425
11056TIP3   OH233110   0.577   1.955   6.021
11056TIP3    H133111   0.487   1.924   6.035
11056TIP3    H233112   0.598   1.929   5.932
11057TIP3   OH233113   8.007   7.723   3.103
11057TIP3    H133114   8.043   7.729   3.191
11057TIP3    H233115   7.920   7.763   3.110
11058TIP3   OH233116   0.902   6.601   6.501
11058TIP3    H133117   0.843   6.587   6.427
11058TIP3    H233118   0.990   6.592   6.464
11059TIP3   OH233119   2.276   6.877   3.201
11059TIP3    H133120   2.213   6.816   3.239
11059TIP3    H233121   2.349   6.877   3.263
11060TIP3   OH233122   5.348   6.380   5.316
11060TIP3    H133123   5.364   6.466   5.277
11060TIP3    H233124   5.434   6.348   5.341
11061TIP3   OH233125   1.297   1.335   3.477
11061TIP3    H133126   1.313   1.429   3.487
11061TIP3    H233127   1.205   1.324   3.502
11062TIP3   OH233128   8.012   5.154   3.186
11062TIP3    H133129   7.939   5.203   3.222
11062TIP3    H233130   8.082   5.163   3.252
11063TIP3   OH233131   2.314   3.805   2.346
11063TIP3    H133132   2.334   3.896   2.368
11063TIP3    H233133   2.237   3.810   2.289
11064TIP3   OH233134   5.938   2.746   1.626
11064TIP3    H133135   5.864   2.770   1.570
11064TIP3    H233136   5.937   2.650   1.627
11065TIP3   OH233137   6.676   3.323   1.390
11065TIP3    H133138   6.737   3.294   1.322
11065TIP3    H233139   6.668   3.417   1.377
11066TIP3   OH233140   5.065   7.627   3.884
11066TIP3    H133141   5.074   7.644   3.790
11066TIP3    H233142   5.079   7.713   3.925
11067TIP3   OH233143   2.673   5.263   3.946
11067TIP3    H133144   2.681   5.216   3.864
11067TIP3    H233145   2.628   5.202   4.005
11068TIP3   OH233146   3.888   5.798   0.806
11068TIP3    H133147   3.918   5.818   0.718
11068TIP3    H233148   3.866   5.883   0.845
11069TIP3   OH233149   0.230   5.216   5.910
11069TIP3    H133150   0.306   5.270   5.888
11069TIP3    H233151   0.155   5.274   5.895
11070TIP3   OH233152   4.614   5.377   3.248
11070TIP3    H133153   4.680   5.398   3.314
11070TIP3    H233154   4.600   5.282   3.259
11071TIP3   OH233155   0.404   1.666   5.394
11071TIP3    H133156   0.400   1.571   5.403
11071TIP3    H233157   0.365   1.699   5.475
11072TIP3   OH233158   4.313   1.069   5.328
11072TIP3    H133159   4.356   1.108   5.253
11072TIP3    H233160   4.251   1.007   5.291
11073TIP3   OH233161   6.434   1.313   1.744
11073TIP3    H133162   6.518   1.303   1.699
11073TIP3    H233163   6.453   1.371   1.817
11074TIP3   OH233164   4.826   0.566   5.515
11074TIP3    H133165   4.773   0.612   5.451
11074TIP3    H233166   4.805   0.608   5.598
11075TIP3   OH233167   1.422   7.798   1.137
11075TIP3    H133168   1.371   7.879   1.139
11075TIP3    H233169   1.376   7.743   1.073
11076TIP3   OH233170   7.013   5.864   3.437
11076TIP3    H133171   7.012   5.825   3.350
11076TIP3    H233172   7.099   5.841   3.472
11077TIP3   OH233173  -0.007   5.451   3.271
11077TIP3    H133174  -0.097   5.474   3.293
11077TIP3    H233175   0.045   5.484   3.344
11078TIP3   OH233176   0.916   4.644   5.311
11078TIP3    H133177   0.905   4.711   5.378
11078TIP3    H233178   0.952   4.690   5.235
11079TIP3   OH233179   2.223   3.149   0.220
11079TIP3    H133180   2.306   3.187   0.249
11079TIP3    H233181   2.249   3.081   0.157
11080TIP3   OH233182   2.953   7.752   6.556
11080TIP3    H133183   2.973   7.659   6.566
11080TIP3    H233184   2.985   7.793   6.636
11081TIP3   OH233185   4.890   3.059   1.962
11081TIP3    H133186   4.907   3.118   2.035
11081TIP3    H233187   4.887   2.972   2.000
11082TIP3   OH233188   2.905   6.647   6.463
11082TIP3    H133189   2.877   6.659   6.372
11082TIP3    H233190   2.920   6.735   6.496
11083TIP3   OH233191   5.152   7.865   0.103
11083TIP3    H133192   5.127   7.928   0.035
11083TIP3    H233193   5.152   7.781   0.058
11084TIP3   OH233194   2.536   5.722   5.813
11084TIP3    H133195   2.452   5.676   5.822
11084TIP3    H233196   2.529   5.770   5.731
11085TIP3   OH233197   0.145   2.067   4.950
11085TIP3    H133198   0.143   2.049   5.044
11085TIP3    H233199   0.094   1.995   4.912
11086TIP3   OH233200   7.281   1.362   1.056
11086TIP3    H133201   7.325   1.368   0.971
11086TIP3    H233202   7.188   1.359   1.035
11087TIP3   OH233203   1.297   0.518   5.879
11087TIP3    H133204   1.383   0.551   5.906
11087TIP3    H233205   1.258   0.485   5.959
11088TIP3   OH233206   1.064   6.551   0.092
11088TIP3    H133207   1.065   6.473   0.036
11088TIP3    H233208   1.089   6.623   0.033
11089TIP3   OH233209   8.054   1.205   5.068
11089TIP3    H133210   7.996   1.134   5.096
11089TIP3    H233211   7.996   1.272   5.033
11090TIP3   OH233212   0.236   5.747   1.221
11090TIP3    H133213   0.304   5.813   1.228
11090TIP3    H233214   0.279   5.664   1.243
11091TIP3   OH233215   2.833   1.415   0.415
11091TIP3    H133216   2.856   1.382   0.328
11091TIP3    H233217   2.912   1.460   0.445
11092TIP3   OH233218   2.018   4.900   1.522
11092TIP3    H133219   2.095   4.894   1.466
11092TIP3    H233220   2.019   4.819   1.573
11093TIP3   OH233221   1.274   6.780   3.520
11093TIP3    H133222   1.210   6.818   3.579
11093TIP3    H233223   1.294   6.849   3.457
11094TIP3   OH233224   6.975   4.829   1.692
11094TIP3    H133225   6.959   4.742   1.729
11094TIP3    H233226   6.908   4.838   1.624
11095TIP3   OH233227   1.001   1.304   3.429
11095TIP3    H133228   0.917   1.345   3.449
11095TIP3    H233229   0.983   1.246   3.355
11096TIP3   OH233230   5.498   6.174   4.868
11096TIP3    H133231   5.408   6.154   4.894
11096TIP3    H233232   5.501   6.269   4.863
11097TIP3   OH233233   5.568   7.197   0.331
11097TIP3    H133234   5.605   7.265   0.388
11097TIP3    H233235   5.600   7.115   0.368
11098TIP3   OH233236   5.578   0.160   3.859
11098TIP3    H133237   5.568   0.069   3.888
11098TIP3    H233238   5.627   0.202   3.930
11099TIP3   OH233239   0.619   3.215   6.559
11099TIP3    H133240   0.649   3.197   6.648
11099TIP3    H233241   0.682   3.169   6.503
11100TIP3   OH233242   6.949   5.099   2.348
11100TIP3    H133243   7.041   5.072   2.348
11100TIP3    H233244   6.907   5.042   2.284
11101TIP3   OH233245   6.740   1.118   5.487
11101TIP3    H133246   6.733   1.024   5.473
11101TIP3    H233247   6.833   1.134   5.500
11102TIP3   OH233248   4.644   3.622   3.309
11102TIP3    H133249   4.647   3.552   3.374
11102TIP3    H233250   4.568   3.675   3.336
11103TIP3   OH233251   3.562   2.182   3.117
11103TIP3    H133252   3.489   2.122   3.130
11103TIP3    H233253   3.580   2.216   3.204
11104TIP3   OH233254   2.164   3.666   4.019
11104TIP3    H133255   2.129   3.588   4.063
11104TIP3    H233256   2.089   3.724   4.009
11105TIP3   OH233257   0.046   4.660   1.506
11105TIP3    H133258   0.066   4.598   1.576
11105TIP3    H233259   0.090   4.740   1.531
11106TIP3   OH233260   5.756   6.651   0.613
11106TIP3    H133261   5.667   6.617   0.616
11106TIP3    H233262   5.784   6.654   0.704
11107TIP3   OH233263   0.266   7.851   3.155
11107TIP3    H133264   0.202   7.809   3.097
11107TIP3    H233265   0.341   7.791   3.154
11108TIP3   OH233266   1.520   7.326   0.630
11108TIP3    H133267   1.599   7.295   0.587
11108TIP3    H233268   1.483   7.248   0.671
11109TIP3   OH233269   7.449   6.698   3.690
11109TIP3    H133270   7.543   6.696   3.705
11109TIP3    H233271   7.420   6.608   3.700
11110TIP3   OH233272   5.169   4.800   0.362
11110TIP3    H133273   5.133   4.888   0.350
11110TIP3    H233274   5.214   4.803   0.447
11111TIP3   OH233275   3.652   3.171   5.649
11111TIP3    H133276   3.709   3.094   5.650
11111TIP3    H233277   3.565   3.136   5.666
11112TIP3   OH233278   2.751   1.617   3.345
11112TIP3    H133279   2.813   1.630   3.417
11112TIP3    H233280   2.672   1.663   3.372
11113TIP3   OH233281   4.244   4.274   1.957
11113TIP3    H133282   4.322   4.303   2.004
11113TIP3    H233283   4.233   4.337   1.886
11114TIP3   OH233284   8.178   7.434   5.691
11114TIP3    H133285   8.221   7.520   5.694
11114TIP3    H233286   8.247   7.372   5.713
11115TIP3   OH233287   6.877   5.036   4.212
11115TIP3    H133288   6.817   5.017   4.284
11115TIP3    H233289   6.854   4.973   4.144
11116TIP3   OH233290   6.122   5.283   1.305
11116TIP3    H133291   6.182   5.254   1.236
11116TIP3    H233292   6.156   5.242   1.385
11117TIP3   OH233293   2.609   4.463   0.895
11117TIP3    H133294   2.669   4.432   0.828
11117TIP3    H233295   2.652   4.441   0.978
11118TIP3   OH233296   0.396   5.711   3.389
11118TIP3    H133297   0.360   5.687   3.304
11118TIP3    H233298   0.398   5.807   3.388
11119TIP3   OH233299   5.376   6.491   0.315
11119TIP3    H133300   5.326   6.426   0.267
11119TIP3    H233301   5.399   6.448   0.397
11120TIP3   OH233302   6.074   7.225   6.586
11120TIP3    H133303   6.101   7.204   6.497
11120TIP3    H233304   5.978   7.229   6.582
11121TIP3   OH233305   2.568   3.321   6.135
11121TIP3    H133306   2.541   3.372   6.058
11121TIP3    H233307   2.607   3.385   6.194
11122TIP3   OH233308   2.158   2.610   3.545
11122TIP3    H133309   2.156   2.610   3.640
11122TIP3    H233310   2.241   2.568   3.522
11123TIP3   OH233311   4.198   1.688   0.901
11123TIP3    H133312   4.173   1.605   0.941
11123TIP3    H233313   4.178   1.754   0.968
11124TIP3   OH233314   3.868   1.257   0.452
11124TIP3    H133315   3.879   1.352   0.449
11124TIP3    H233316   3.813   1.237   0.375
11125TIP3   OH233317   5.389   6.344   1.126
11125TIP3    H133318   5.461   6.373   1.182
11125TIP3    H233319   5.334   6.291   1.184
11126TIP3   OH233320   5.659   5.675   4.271
11126TIP3    H133321   5.603   5.706   4.341
11126TIP3    H233322   5.737   5.641   4.315
11127TIP3   OH233323   1.615   0.171   1.961
11127TIP3    H133324   1.607   0.107   2.031
11127TIP3    H233325   1.590   0.254   2.002
11128TIP3   OH233326   4.427   5.211   6.484
11128TIP3    H133327   4.439   5.304   6.501
11128TIP3    H233328   4.406   5.207   6.390
11129TIP3   OH233329   3.358   1.485   3.332
11129TIP3    H133330   3.353   1.547   3.259
11129TIP3    H233331   3.308   1.409   3.303
11130TIP3   OH233332   4.128   1.347   1.427
11130TIP3    H133333   4.169   1.267   1.460
11130TIP3    H233334   4.079   1.319   1.350
11131TIP3   OH233335   2.639   1.158   1.131
11131TIP3    H133336   2.716   1.109   1.103
11131TIP3    H233337   2.606   1.199   1.051
11132TIP3   OH233338   2.002   2.796   4.119
11132TIP3    H133339   2.058   2.844   4.058
11132TIP3    H233340   1.925   2.852   4.131
11133TIP3   OH233341   8.135   1.847   2.090
11133TIP3    H133342   8.206   1.785   2.069
11133TIP3    H233343   8.177   1.933   2.090
11134TIP3   OH233344   4.795   6.886   4.532
11134TIP3    H133345   4.774   6.979   4.521
11134TIP3    H233346   4.839   6.880   4.617
11135TIP3   OH233347   0.070   0.361   6.682
11135TIP3    H133348   0.148   0.339   6.732
11135TIP3    H233349   0.087   0.449   6.648
11136TIP3   OH233350   0.676   6.068   4.601
11136TIP3    H133351   0.628   6.090   4.521
11136TIP3    H233352   0.628   5.992   4.636
11137TIP3   OH233353   3.134   4.861   5.836
11137TIP3    H133354   3.073   4.934   5.833
11137TIP3    H233355   3.217   4.898   5.805
11138TIP3   OH233356   6.590   2.845   3.544
11138TIP3    H133357   6.639   2.842   3.626
11138TIP3    H233358   6.603   2.933   3.511
11139TIP3   OH233359   8.271   0.834   6.498
11139TIP3    H133360   8.300   0.925   6.491
11139TIP3    H233361   8.176   0.839   6.499
11140TIP3   OH233362   8.307   2.873   4.394
11140TIP3    H133363   8.267   2.881   4.307
11140TIP3    H233364   8.278   2.788   4.426
11141TIP3   OH233365   0.949   1.628   3.881
11141TIP3    H133366   0.904   1.544   3.894
11141TIP3    H233367   1.039   1.604   3.860
11142TIP3   OH233368   1.171   3.311   0.841
11142TIP3    H133369   1.244   3.368   0.814
11142TIP3    H233370   1.093   3.358   0.812
11143TIP3   OH233371   6.568   3.058   1.740
11143TIP3    H133372   6.549   2.968   1.711
11143TIP3    H233373   6.654   3.077   1.704
11144TIP3   OH233374   2.744   3.896   5.351
11144TIP3    H133375   2.653   3.914   5.325
11144TIP3    H233376   2.736   3.843   5.431
11145TIP3   OH233377   6.879   0.980   3.702
11145TIP3    H133378   6.840   1.066   3.685
11145TIP3    H233379   6.887   0.976   3.797
11146TIP3   OH233380   3.237   6.332   4.127
11146TIP3    H133381   3.254   6.395   4.057
11146TIP3    H233382   3.322   6.292   4.144
11147TIP3   OH233383   5.745   4.623   6.020
11147TIP3    H133384   5.652   4.635   5.999
11147TIP3    H233385   5.762   4.684   6.091
11148TIP3   OH233386   3.387   5.710   3.656
11148TIP3    H133387   3.427   5.661   3.584
11148TIP3    H233388   3.436   5.682   3.734
11149TIP3   OH233389   5.176   3.722   4.470
11149TIP3    H133390   5.162   3.768   4.387
11149TIP3    H233391   5.195   3.791   4.533
11150TIP3   OH233392   0.717   5.901   1.039
11150TIP3    H133393   0.724   5.860   0.953
11150TIP3    H233394   0.765   5.984   1.030
11151TIP3   OH233395   7.154   6.394   3.081
11151TIP3    H133396   7.070   6.403   3.037
11151TIP3    H233397   7.212   6.456   3.037
11152TIP3   OH233398   5.116   5.257   6.455
11152TIP3    H133399   5.184   5.277   6.519
11152TIP3    H233400   5.137   5.169   6.425
11153TIP3   OH233401   7.364   2.509   3.200
11153TIP3    H133402   7.457   2.487   3.199
11153TIP3    H233403   7.340   2.504   3.293
11154TIP3   OH233404   0.846   7.684   4.332
11154TIP3    H133405   0.764   7.647   4.300
11154TIP3    H233406   0.914   7.638   4.281
11155TIP3   OH233407   0.312   6.487   3.194
11155TIP3    H133408   0.258   6.419   3.153
11155TIP3    H233409   0.342   6.448   3.276
11156TIP3   OH233410   5.772   4.371   0.107
11156TIP3    H133411   5.724   4.324   0.038
11156TIP3    H233412   5.710   4.378   0.179
11157TIP3   OH233413   2.247   6.507   2.145
11157TIP3    H133414   2.306   6.463   2.206
11157TIP3    H233415   2.248   6.452   2.067
11158TIP3   OH233416   5.353   2.145   6.663
11158TIP3    H133417   5.281   2.203   6.639
11158TIP3    H233418   5.310   2.064   6.692
11159TIP3   OH233419   8.087   7.059   2.965
11159TIP3    H133420   8.166   7.097   3.004
11159TIP3    H233421   8.039   7.134   2.930
11160TIP3   OH233422   0.590   4.604   4.006
11160TIP3    H133423   0.604   4.684   3.956
11160TIP3    H233424   0.676   4.584   4.044
11161TIP3   OH233425   2.697   3.590   4.157
11161TIP3    H133426   2.720   3.682   4.148
11161TIP3    H233427   2.713   3.552   4.071
11162TIP3   OH233428   3.443   3.771   6.285
11162TIP3    H133429   3.533   3.805   6.283
11162TIP3    H233430   3.393   3.834   6.233
11163TIP3   OH233431   0.062   3.245   3.533
11163TIP3    H133432   0.150   3.262   3.501
11163TIP3    H233433   0.004   3.287   3.470
11164TIP3   OH233434   3.020   3.295   1.262
11164TIP3    H133435   3.048   3.319   1.350
11164TIP3    H233436   2.993   3.204   1.268
11165TIP3   OH233437   7.982   5.002   2.736
11165TIP3    H133438   7.988   4.909   2.715
11165TIP3    H233439   8.071   5.035   2.724
11166TIP3   OH233440   2.475   5.001   3.771
11166TIP3    H133441   2.431   5.083   3.794
11166TIP3    H233442   2.561   5.028   3.739
11167TIP3   OH233443   3.841   0.145   0.793
11167TIP3    H133444   3.790   0.074   0.831
11167TIP3    H233445   3.879   0.108   0.713
11168TIP3   OH233446   4.953   3.925   0.291
11168TIP3    H133447   5.022   3.858   0.287
11168TIP3    H233448   4.991   4.002   0.249
11169TIP3   OH233449   5.900   1.646   1.555
11169TIP3    H133450   5.923   1.559   1.589
11169TIP3    H233451   5.813   1.664   1.591
11170TIP3   OH233452   2.723   0.164   1.647
11170TIP3    H133453   2.714   0.081   1.601
11170TIP3    H233454   2.781   0.216   1.592
11171TIP3   OH233455   3.625   5.370   0.834
11171TIP3    H133456   3.669   5.408   0.758
11171TIP3    H233457   3.574   5.443   0.870
11172TIP3   OH233458   1.185   7.677   1.814
11172TIP3    H133459   1.170   7.640   1.901
11172TIP3    H233460   1.148   7.613   1.754
11173TIP3   OH233461   3.949   0.233   4.225
11173TIP3    H133462   4.035   0.269   4.204
11173TIP3    H233463   3.887   0.297   4.191
11174TIP3   OH233464   7.222   4.078   3.299
11174TIP3    H133465   7.274   4.013   3.346
11174TIP3    H233466   7.177   4.127   3.367
11175TIP3   OH233467   2.858   6.074   4.623
11175TIP3    H133468   2.884   6.163   4.645
11175TIP3    H233469   2.906   6.054   4.542
11176TIP3   OH233470   8.066   6.590   1.218
11176TIP3    H133471   8.013   6.621   1.292
11176TIP3    H233472   8.005   6.543   1.162
11177TIP3   OH233473   3.784   2.800   1.337
11177TIP3    H133474   3.732   2.852   1.399
11177TIP3    H233475   3.754   2.710   1.350
11178TIP3   OH233476   0.757   3.625   2.001
11178TIP3    H133477   0.742   3.532   1.981
11178TIP3    H233478   0.704   3.672   1.937
11179TIP3   OH233479   6.780   3.812   0.026
11179TIP3    H133480   6.848   3.772   0.080
11179TIP3    H233481   6.745   3.739  -0.026
11180TIP3   OH233482   0.640   2.866   2.679
11180TIP3    H133483   0.711   2.802   2.667
11180TIP3    H233484   0.589   2.861   2.598
11181TIP3   OH233485   3.421   7.559   3.136
11181TIP3    H133486   3.512   7.534   3.151
11181TIP3    H233487   3.374   7.477   3.122
11182TIP3   OH233488   6.230   5.702   4.993
11182TIP3    H133489   6.252   5.623   4.943
11182TIP3    H233490   6.313   5.730   5.032
11183TIP3   OH233491   2.226   1.136   5.871
11183TIP3    H133492   2.269   1.068   5.923
11183TIP3    H233493   2.296   1.199   5.851
11184TIP3   OH233494   2.727   7.437   1.301
11184TIP3    H133495   2.731   7.485   1.384
11184TIP3    H233496   2.772   7.494   1.238
11185TIP3   OH233497   3.157   5.163   2.272
11185TIP3    H133498   3.081   5.119   2.235
11185TIP3    H233499   3.126   5.196   2.357
11186TIP3   OH233500   5.476   3.565   0.159
11186TIP3    H133501   5.538   3.493   0.170
11186TIP3    H233502   5.408   3.530   0.102
11187TIP3   OH233503   4.873   6.294   5.750
11187TIP3    H133504   4.804   6.286   5.685
11187TIP3    H233505   4.828   6.295   5.834
11188TIP3   OH233506   3.640   5.169   1.663
11188TIP3    H133507   3.545   5.166   1.674
11188TIP3    H233508   3.669   5.079   1.679
11189TIP3   OH233509   1.002   4.922   4.271
11189TIP3    H133510   1.097   4.927   4.259
11189TIP3    H233511   0.990   4.850   4.332
11190TIP3   OH233512   5.479   7.089   2.421
11190TIP3    H133513   5.541   7.156   2.452
11190TIP3    H233514   5.523   7.006   2.440
11191TIP3   OH233515   4.196   5.914   5.348
11191TIP3    H133516   4.155   5.935   5.432
11191TIP3    H233517   4.262   5.982   5.335
11192TIP3   OH233518   2.329   0.512   6.598
11192TIP3    H133519   2.357   0.438   6.544
11192TIP3    H233520   2.410   0.559   6.619
11193TIP3   OH233521   2.213   5.945   3.446
11193TIP3    H133522   2.252   6.023   3.407
11193TIP3    H233523   2.162   5.978   3.520
11194TIP3   OH233524   1.608   2.567   2.425
11194TIP3    H133525   1.559   2.650   2.420
11194TIP3    H233526   1.641   2.565   2.514
11195TIP3   OH233527   8.042   2.671   0.625
11195TIP3    H133528   7.953   2.707   0.633
11195TIP3    H233529   8.064   2.642   0.713
11196TIP3   OH233530   6.067   4.970   1.136
11196TIP3    H133531   6.129   4.953   1.207
11196TIP3    H233532   6.118   5.016   1.070
11197TIP3   OH233533   6.416   4.049   0.684
11197TIP3    H133534   6.422   4.099   0.602
11197TIP3    H233535   6.467   3.969   0.667
11198TIP3   OH233536   6.062   4.478   1.452
11198TIP3    H133537   6.150   4.473   1.490
11198TIP3    H233538   6.072   4.538   1.378
11199TIP3   OH233539   0.039   1.041   4.612
11199TIP3    H133540   0.061   1.129   4.641
11199TIP3    H233541  -0.056   1.034   4.626
11200TIP3   OH233542   3.024   7.067   0.364
11200TIP3    H133543   3.011   7.126   0.439
11200TIP3    H233544   2.966   7.101   0.296
11201TIP3   OH233545   4.494   6.918   0.699
11201TIP3    H133546   4.522   7.003   0.664
11201TIP3    H233547   4.440   6.940   0.775
11202TIP3   OH233548   8.052   6.568   6.218
11202TIP3    H133549   8.052   6.651   6.170
11202TIP3    H233550   7.960   6.540   6.218
11203TIP3   OH233551   3.170   1.634   5.098
11203TIP3    H133552   3.186   1.605   5.008
11203TIP3    H233553   3.077   1.656   5.099
11204TIP3   OH233554   6.387   4.471   4.747
11204TIP3    H133555   6.361   4.418   4.823
11204TIP3    H233556   6.335   4.436   4.675
11205TIP3   OH233557   4.336   1.851   0.346
11205TIP3    H133558   4.419   1.877   0.307
11205TIP3    H233559   4.348   1.866   0.440
11206TIP3   OH233560   7.817   5.011   5.465
11206TIP3    H133561   7.912   5.014   5.476
11206TIP3    H233562   7.802   5.038   5.374
11207TIP3   OH233563   6.392   4.042   5.405
11207TIP3    H133564   6.382   3.953   5.371
11207TIP3    H233565   6.363   4.037   5.496
11208TIP3   OH233566   2.154   6.104   0.715
11208TIP3    H133567   2.155   6.125   0.809
11208TIP3    H233568   2.108   6.020   0.710
11209TIP3   OH233569   2.737   5.078   3.761
11209TIP3    H133570   2.784   5.134   3.699
11209TIP3    H233571   2.791   5.000   3.769
11210TIP3   OH233572   7.543   6.716   6.060
11210TIP3    H133573   7.526   6.810   6.063
11210TIP3    H233574   7.462   6.676   6.091
11211TIP3   OH233575   0.137   5.516   2.495
11211TIP3    H133576   0.110   5.447   2.434
11211TIP3    H233577   0.119   5.597   2.449
11212TIP3   OH233578   6.044   5.993   1.170
11212TIP3    H133579   5.974   5.934   1.143
11212TIP3    H233580   6.113   5.935   1.202
11213TIP3   OH233581   2.230   6.779   3.994
11213TIP3    H133582   2.194   6.735   4.071
11213TIP3    H233583   2.203   6.870   4.002
11214TIP3   OH233584   4.799   0.553   4.263
11214TIP3    H133585   4.827   0.462   4.277
11214TIP3    H233586   4.749   0.550   4.181
11215TIP3   OH233587   3.755   6.169   2.801
11215TIP3    H133588   3.710   6.101   2.852
11215TIP3    H233589   3.815   6.121   2.745
11216TIP3   OH233590   5.524   0.855   1.391
11216TIP3    H133591   5.528   0.938   1.345
11216TIP3    H233592   5.509   0.879   1.483
11217TIP3   OH233593   5.057   3.978   4.742
11217TIP3    H133594   5.063   4.041   4.814
11217TIP3    H233595   5.147   3.968   4.712
11218TIP3   OH233596   5.841   7.363   1.077
11218TIP3    H133597   5.787   7.426   1.126
11218TIP3    H233598   5.930   7.398   1.083
11219TIP3   OH233599   4.086   5.135   6.479
11219TIP3    H133600   4.076   5.064   6.416
11219TIP3    H233601   4.159   5.108   6.535
11220TIP3   OH233602   4.128   2.539   5.734
11220TIP3    H133603   4.165   2.483   5.665
11220TIP3    H233604   4.067   2.482   5.781
11221TIP3   OH233605   7.507   0.947   4.696
11221TIP3    H133606   7.452   1.006   4.644
11221TIP3    H233607   7.449   0.914   4.764
11222TIP3   OH233608   0.921   4.690   4.903
11222TIP3    H133609   0.899   4.603   4.936
11222TIP3    H233610   1.003   4.677   4.855
11223TIP3   OH233611   6.697   2.235   5.839
11223TIP3    H133612   6.734   2.254   5.925
11223TIP3    H233613   6.649   2.154   5.851
11224TIP3   OH233614   1.750   0.760   0.088
11224TIP3    H133615   1.692   0.684   0.079
11224TIP3    H233616   1.701   0.833   0.049
11225TIP3   OH233617   1.930   4.557   6.197
11225TIP3    H133618   1.903   4.559   6.289
11225TIP3    H233619   2.004   4.619   6.192
11226TIP3   OH233620   3.177   1.755   6.224
11226TIP3    H133621   3.224   1.687   6.272
11226TIP3    H233622   3.215   1.753   6.136
11227TIP3   OH233623   6.960   5.299   4.176
11227TIP3    H133624   6.930   5.211   4.199
11227TIP3    H233625   6.996   5.289   4.088
11228TIP3   OH233626   6.809   4.452   0.427
11228TIP3    H133627   6.792   4.544   0.446
11228TIP3    H233628   6.780   4.405   0.505
11229TIP3   OH233629   5.747   3.124   2.173
11229TIP3    H133630   5.800   3.168   2.240
11229TIP3    H233631   5.704   3.052   2.220
11230TIP3   OH233632   4.252   6.787   3.405
11230TIP3    H133633   4.217   6.876   3.403
11230TIP3    H233634   4.316   6.788   3.476
11231TIP3   OH233635   1.836   6.670   0.447
11231TIP3    H133636   1.788   6.635   0.372
11231TIP3    H233637   1.769   6.702   0.507
11232TIP3   OH233638   6.946   2.244   0.101
11232TIP3    H133639   6.956   2.224   0.008
11232TIP3    H233640   6.852   2.257   0.113
11233TIP3   OH233641   0.970   3.851   4.721
11233TIP3    H133642   1.029   3.783   4.754
11233TIP3    H233643   0.945   3.820   4.634
11234TIP3   OH233644   1.780   5.987   0.525
11234TIP3    H133645   1.686   5.999   0.512
11234TIP3    H233646   1.788   5.904   0.572
11235TIP3   OH233647   0.580   5.750   5.781
11235TIP3    H133648   0.577   5.796   5.865
11235TIP3    H233649   0.529   5.805   5.722
11236TIP3   OH233650   4.279   4.810   5.755
11236TIP3    H133651   4.365   4.797   5.715
11236TIP3    H233652   4.298   4.832   5.846
11237TIP3   OH233653   3.519   7.786   4.132
11237TIP3    H133654   3.589   7.725   4.110
11237TIP3    H233655   3.446   7.759   4.076
11238TIP3   OH233656   7.382   5.694   6.439
11238TIP3    H133657   7.347   5.771   6.395
11238TIP3    H233658   7.379   5.624   6.373
11239TIP3   OH233659   1.655   2.033   1.524
11239TIP3    H133660   1.730   2.043   1.465
11239TIP3    H233661   1.663   1.943   1.558
11240TIP3   OH233662   6.071   7.758   2.814
11240TIP3    H133663   6.005   7.716   2.870
11240TIP3    H233664   6.133   7.797   2.876
11241TIP3   OH233665   7.563   0.873   0.228
11241TIP3    H133666   7.476   0.834   0.235
11241TIP3    H233667   7.614   0.810   0.177
11242TIP3   OH233668   5.740   7.140   1.758
11242TIP3    H133669   5.737   7.050   1.728
11242TIP3    H233670   5.648   7.166   1.765
11243TIP3   OH233671   5.360   3.656   2.933
11243TIP3    H133672   5.423   3.655   3.006
11243TIP3    H233673   5.312   3.738   2.944
11244TIP3   OH233674   2.676   7.634   2.281
11244TIP3    H133675   2.698   7.697   2.212
11244TIP3    H233676   2.581   7.627   2.278
11245TIP3   OH233677   1.379   4.125   1.300
11245TIP3    H133678   1.352   4.131   1.392
11245TIP3    H233679   1.299   4.144   1.251
11246TIP3   OH233680   5.169   2.175   1.098
11246TIP3    H133681   5.227   2.245   1.129
11246TIP3    H233682   5.193   2.164   1.006
11247TIP3   OH233683   4.879   1.513   1.763
11247TIP3    H133684   4.836   1.490   1.845
11247TIP3    H233685   4.969   1.481   1.774
11248TIP3   OH233686   2.606   5.331   5.248
11248TIP3    H133687   2.621   5.411   5.198
11248TIP3    H233688   2.542   5.356   5.315
11249TIP3   OH233689   2.695   6.082   5.129
11249TIP3    H133690   2.633   6.019   5.091
11249TIP3    H233691   2.711   6.145   5.059
11250TIP3   OH233692   7.139   1.150   4.863
11250TIP3    H133693   7.107   1.240   4.858
11250TIP3    H233694   7.059   1.096   4.862
11251TIP3   OH233695   4.669   7.606   5.408
11251TIP3    H133696   4.648   7.600   5.501
11251TIP3    H233697   4.685   7.699   5.392
11252TIP3   OH233698   5.258   3.293   0.698
11252TIP3    H133699   5.248   3.386   0.716
11252TIP3    H233700   5.173   3.255   0.723
11253TIP3   OH233701   1.552   7.490   4.559
11253TIP3    H133702   1.528   7.441   4.638
11253TIP3    H233703   1.471   7.496   4.509
11254TIP3   OH233704   2.524   5.908   2.559
11254TIP3    H133705   2.440   5.882   2.597
11254TIP3    H233706   2.553   5.981   2.613
11255TIP3   OH233707   7.838   5.521   3.503
11255TIP3    H133708   7.772   5.496   3.568
11255TIP3    H233709   7.883   5.596   3.541
11256TIP3   OH233710   2.384   2.300   3.103
11256TIP3    H133711   2.293   2.292   3.077
11256TIP3    H233712   2.394   2.392   3.128
11257TIP3   OH233713   0.466   7.242   1.082
11257TIP3    H133714   0.453   7.152   1.112
11257TIP3    H233715   0.506   7.287   1.156
11258TIP3   OH233716   0.752   1.352   1.380
11258TIP3    H133717   0.793   1.429   1.341
11258TIP3    H233718   0.824   1.291   1.396
11259TIP3   OH233719   0.080   0.373   2.603
11259TIP3    H133720   0.099   0.286   2.566
11259TIP3    H233721   0.136   0.433   2.554
11260TIP3   OH233722   5.627   3.617   2.406
11260TIP3    H133723   5.704   3.671   2.424
11260TIP3    H233724   5.579   3.614   2.489
11261TIP3   OH233725   1.721   1.686   6.399
11261TIP3    H133726   1.708   1.745   6.325
11261TIP3    H233727   1.815   1.686   6.414
11262TIP3   OH233728   0.956   1.749   5.685
11262TIP3    H133729   0.977   1.675   5.742
11262TIP3    H233730   0.946   1.710   5.598
11263TIP3   OH233731   3.834   5.445   3.071
11263TIP3    H133732   3.786   5.513   3.117
11263TIP3    H233733   3.832   5.470   2.979
11264TIP3   OH233734   3.319   2.176   3.377
11264TIP3    H133735   3.324   2.115   3.304
11264TIP3    H233736   3.269   2.251   3.342
11265TIP3   OH233737   6.318   5.603   5.348
11265TIP3    H133738   6.313   5.549   5.426
11265TIP3    H233739   6.306   5.541   5.275
11266TIP3   OH233740   5.540   7.773   5.283
11266TIP3    H133741   5.469   7.833   5.305
11266TIP3    H233742   5.616   7.830   5.268
11267TIP3   OH233743   2.790   6.874   1.873
11267TIP3    H133744   2.837   6.807   1.822
11267TIP3    H233745   2.735   6.824   1.934
11268TIP3   OH233746   7.482   3.700   5.522
11268TIP3    H133747   7.449   3.661   5.442
11268TIP3    H233748   7.461   3.636   5.591
11269TIP3   OH233749   2.322   7.180   2.014
11269TIP3    H133750   2.294   7.258   2.062
11269TIP3    H233751   2.417   7.191   2.003
11270TIP3   OH233752   0.071   3.423   1.365
11270TIP3    H133753   0.137   3.489   1.386
11270TIP3    H233754   0.097   3.389   1.279
11271TIP3   OH233755   1.927   6.952   1.258
11271TIP3    H133756   1.979   6.919   1.331
11271TIP3    H233757   1.882   7.029   1.292
11272TIP3   OH233758   1.838   6.027   2.410
11272TIP3    H133759   1.817   6.032   2.503
11272TIP3    H233760   1.933   6.020   2.407
11273TIP3   OH233761   5.849   7.228   4.465
11273TIP3    H133762   5.823   7.152   4.413
11273TIP3    H233763   5.890   7.191   4.543
11274TIP3   OH233764   8.148   5.299   0.795
11274TIP3    H133765   8.234   5.258   0.805
11274TIP3    H233766   8.147   5.369   0.861
11275TIP3   OH233767   6.515   7.539   5.658
11275TIP3    H133768   6.434   7.529   5.709
11275TIP3    H233769   6.564   7.458   5.673
11276TIP3   OH233770   1.708   7.262   2.494
11276TIP3    H133771   1.746   7.252   2.581
11276TIP3    H233772   1.614   7.254   2.508
11277TIP3   OH233773   7.716   6.638   6.764
11277TIP3    H133774   7.670   6.574   6.818
11277TIP3    H233775   7.709   6.603   6.675
11278TIP3   OH233776   3.094   0.814   1.866
11278TIP3    H133777   3.023   0.837   1.807
11278TIP3    H233778   3.050   0.781   1.945
11279TIP3   OH233779   7.686   0.147   3.766
11279TIP3    H133780   7.610   0.154   3.824
11279TIP3    H233781   7.720   0.236   3.762
11280TIP3   OH233782   3.301   5.617   5.301
11280TIP3    H133783   3.378   5.583   5.346
11280TIP3    H233784   3.334   5.658   5.221
11281TIP3   OH233785   1.198   0.678   2.828
11281TIP3    H133786   1.129   0.625   2.869
11281TIP3    H233787   1.230   0.624   2.756
11282TIP3   OH233788   5.099   4.583   0.674
11282TIP3    H133789   5.166   4.559   0.738
11282TIP3    H233790   5.135   4.557   0.590
11283TIP3   OH233791   5.313   4.964   6.276
11283TIP3    H133792   5.305   5.003   6.189
11283TIP3    H233793   5.224   4.937   6.299
11284TIP3   OH233794   7.383   0.436   5.782
11284TIP3    H133795   7.408   0.414   5.871
11284TIP3    H233796   7.463   0.473   5.743
11285TIP3   OH233797   0.484   2.102   1.937
11285TIP3    H133798   0.432   2.131   1.862
11285TIP3    H233799   0.544   2.175   1.955
11286TIP3   OH233800   7.930   6.060   6.250
11286TIP3    H133801   8.022   6.074   6.228
11286TIP3    H233802   7.887   6.041   6.167
11287TIP3   OH233803   5.976   3.743   2.859
11287TIP3    H133804   5.944   3.831   2.881
11287TIP3    H233805   6.057   3.734   2.910
11288TIP3   OH233806   0.680   3.003   5.822
11288TIP3    H133807   0.686   2.934   5.757
11288TIP3    H233808   0.586   3.016   5.835
11289TIP3   OH233809   8.077   3.619   5.713
11289TIP3    H133810   8.018   3.583   5.779
11289TIP3    H233811   8.051   3.576   5.632
11290TIP3   OH233812   5.623   0.273   2.884
11290TIP3    H133813   5.621   0.365   2.858
11290TIP3    H233814   5.710   0.242   2.859
11291TIP3   OH233815   4.281   4.471   6.032
11291TIP3    H133816   4.245   4.470   6.121
11291TIP3    H233817   4.303   4.563   6.016
11292TIP3   OH233818   0.810   1.887   0.821
11292TIP3    H133819   0.867   1.914   0.893
11292TIP3    H233820   0.728   1.861   0.863
11293TIP3   OH233821   6.090   1.859   3.435
11293TIP3    H133822   6.075   1.771   3.469
11293TIP3    H233823   6.127   1.907   3.509
11294TIP3   OH233824   7.363   6.791   6.670
11294TIP3    H133825   7.387   6.867   6.723
11294TIP3    H233826   7.326   6.729   6.734
11295TIP3   OH233827   1.778   3.918   6.648
11295TIP3    H133828   1.717   3.866   6.700
11295TIP3    H233829   1.750   3.904   6.558
11296TIP3   OH233830   5.798   1.476   5.127
11296TIP3    H133831   5.750   1.445   5.204
11296TIP3    H233832   5.777   1.413   5.059
11297TIP3   OH233833   5.982   1.214   0.299
11297TIP3    H133834   6.026   1.266   0.232
11297TIP3    H233835   6.054   1.172   0.347
11298TIP3   OH233836   7.314   4.290   5.229
11298TIP3    H133837   7.374   4.224   5.196
11298TIP3    H233838   7.228   4.249   5.224
11299TIP3   OH233839   6.869   0.502   6.702
11299TIP3    H133840   6.802   0.517   6.636
11299TIP3    H233841   6.823   0.510   6.786
11300TIP3   OH233842   4.540   5.073   0.125
11300TIP3    H133843   4.587   4.993   0.103
11300TIP3    H233844   4.480   5.048   0.194
11301TIP3   OH233845   0.414   1.159   1.619
11301TIP3    H133846   0.451   1.242   1.588
11301TIP3    H233847   0.490   1.109   1.648
11302TIP3   OH233848   8.073   2.330   4.973
11302TIP3    H133849   8.106   2.401   5.027
11302TIP3    H233850   7.982   2.318   5.002
11303TIP3   OH233851   4.327   7.164   0.720
11303TIP3    H133852   4.268   7.111   0.774
11303TIP3    H233853   4.339   7.245   0.769
11304TIP3   OH233854   4.057   5.052   4.850
11304TIP3    H133855   3.962   5.041   4.860
11304TIP3    H233856   4.073   5.143   4.876
11305TIP3   OH233857   5.557   4.598   6.470
11305TIP3    H133858   5.510   4.562   6.546
11305TIP3    H233859   5.548   4.531   6.403
11306TIP3   OH233860   2.729   4.927   4.126
11306TIP3    H133861   2.791   4.943   4.055
11306TIP3    H233862   2.649   4.898   4.082
11307TIP3   OH233863   2.896   6.308   2.257
11307TIP3    H133864   2.834   6.240   2.284
11307TIP3    H233865   2.849   6.390   2.270
11308TIP3   OH233866   0.746   1.805   4.418
11308TIP3    H133867   0.744   1.900   4.410
11308TIP3    H233868   0.714   1.773   4.334
11309TIP3   OH233869   3.313   0.017   5.098
11309TIP3    H133870   3.289   0.036   5.189
11309TIP3    H233871   3.310  -0.079   5.092
11310TIP3   OH233872   0.650   3.709   3.610
11310TIP3    H133873   0.711   3.781   3.594
11310TIP3    H233874   0.706   3.635   3.633
11311TIP3   OH233875   1.580   0.693   0.864
11311TIP3    H133876   1.628   0.749   0.925
11311TIP3    H233877   1.640   0.679   0.791
11312TIP3   OH233878   4.841   7.744   5.656
11312TIP3    H133879   4.749   7.718   5.658
11312TIP3    H233880   4.853   7.780   5.568
11313TIP3   OH233881   4.744   5.753   6.573
11313TIP3    H133882   4.736   5.721   6.483
11313TIP3    H233883   4.764   5.846   6.564
11314TIP3   OH233884   6.332   7.682   5.997
11314TIP3    H133885   6.323   7.739   6.073
11314TIP3    H233886   6.411   7.713   5.952
11315TIP3   OH233887   7.756   2.580   6.180
11315TIP3    H133888   7.672   2.592   6.226
11315TIP3    H233889   7.735   2.594   6.088
11316TIP3   OH233890   2.156   7.623   0.277
11316TIP3    H133891   2.152   7.632   0.372
11316TIP3    H233892   2.089   7.558   0.257
11317TIP3   OH233893   3.341   4.106   4.205
11317TIP3    H133894   3.303   4.183   4.248
11317TIP3    H233895   3.396   4.066   4.272
11318TIP3   OH233896   5.839   4.961   0.545
11318TIP3    H133897   5.770   5.014   0.505
11318TIP3    H233898   5.915   5.019   0.545
11319TIP3   OH233899   2.759   6.274   3.882
11319TIP3    H133900   2.804   6.263   3.967
11319TIP3    H233901   2.733   6.366   3.881
11320TIP3   OH233902   4.862   0.957   2.864
11320TIP3    H133903   4.864   1.023   2.795
11320TIP3    H233904   4.831   1.005   2.941
11321TIP3   OH233905   7.069   7.171   6.358
11321TIP3    H133906   7.156   7.131   6.365
11321TIP3    H233907   7.086   7.265   6.354
11322TIP3   OH233908   4.427   0.974   2.118
11322TIP3    H133909   4.337   0.944   2.129
11322TIP3    H233910   4.429   1.059   2.163
11323TIP3   OH233911   5.727   5.276   3.321
11323TIP3    H133912   5.657   5.267   3.386
11323TIP3    H233913   5.708   5.359   3.278
11324TIP3   OH233914   2.559   5.043   6.029
11324TIP3    H133915   2.534   5.093   6.107
11324TIP3    H233916   2.605   4.967   6.064
11325TIP3   OH233917   0.352   6.720   0.857
11325TIP3    H133918   0.420   6.770   0.812
11325TIP3    H233919   0.400   6.653   0.905
11326TIP3   OH233920   2.473   1.113   3.317
11326TIP3    H133921   2.427   1.034   3.344
11326TIP3    H233922   2.547   1.119   3.377
11327TIP3   OH233923   8.254   2.302   5.929
11327TIP3    H133924   8.220   2.273   6.013
11327TIP3    H233925   8.217   2.240   5.866
11328TIP3   OH233926   2.204   7.369   3.042
11328TIP3    H133927   2.203   7.297   3.105
11328TIP3    H233928   2.293   7.370   3.008
11329TIP3   OH233929   5.652   2.563   3.919
11329TIP3    H133930   5.633   2.620   3.993
11329TIP3    H233931   5.570   2.563   3.868
11330TIP3   OH233932   2.518   6.278   1.330
11330TIP3    H133933   2.497   6.318   1.414
11330TIP3    H233934   2.527   6.352   1.269
11331TIP3   OH233935   4.022   5.529   2.793
11331TIP3    H133936   4.059   5.550   2.879
11331TIP3    H233937   4.097   5.532   2.733
11332TIP3   OH233938   5.426   5.834   0.120
11332TIP3    H133939   5.370   5.836   0.043
11332TIP3    H233940   5.514   5.850   0.086
11333TIP3   OH233941   6.291   0.477   0.762
11333TIP3    H133942   6.380   0.503   0.788
11333TIP3    H233943   6.290   0.487   0.667
11334TIP3   OH233944   2.288   3.313   6.192
11334TIP3    H133945   2.307   3.392   6.244
11334TIP3    H233946   2.374   3.283   6.162
11335TIP3   OH233947   7.113   2.636   0.412
11335TIP3    H133948   7.122   2.541   0.420
11335TIP3    H233949   7.133   2.654   0.320
11336TIP3   OH233950   6.040   2.145   1.802
11336TIP3    H133951   6.019   2.180   1.715
11336TIP3    H233952   6.051   2.051   1.787
11337TIP3   OH233953   3.844   2.415   4.055
11337TIP3    H133954   3.802   2.387   3.974
11337TIP3    H233955   3.788   2.486   4.087
11338TIP3   OH233956   6.969   4.811   5.036
11338TIP3    H133957   6.987   4.848   5.122
11338TIP3    H233958   7.029   4.737   5.029
11339TIP3   OH233959   0.614   3.739   1.058
11339TIP3    H133960   0.571   3.658   1.084
11339TIP3    H233961   0.705   3.729   1.088
11340TIP3   OH233962   4.316   2.366   0.722
11340TIP3    H133963   4.295   2.424   0.649
11340TIP3    H233964   4.276   2.409   0.798
11341TIP3   OH233965   3.640   1.752   3.713
11341TIP3    H133966   3.602   1.668   3.689
11341TIP3    H233967   3.569   1.799   3.757
11342TIP3   OH233968   4.073   4.464   3.571
11342TIP3    H133969   4.163   4.468   3.601
11342TIP3    H233970   4.080   4.461   3.475
11343TIP3   OH233971   4.252   0.754   0.853
11343TIP3    H133972   4.342   0.761   0.822
11343TIP3    H233973   4.253   0.680   0.913
11344TIP3   OH233974   6.180   2.347   4.241
11344TIP3    H133975   6.150   2.256   4.239
11344TIP3    H233976   6.246   2.352   4.172
11345TIP3   OH233977   5.296   4.171   5.108
11345TIP3    H133978   5.242   4.182   5.030
11345TIP3    H233979   5.250   4.221   5.176
11346TIP3   OH233980   0.731   0.442   0.103
11346TIP3    H133981   0.777   0.473   0.025
11346TIP3    H233982   0.654   0.396   0.069
11347TIP3   OH233983   1.129   0.953   6.229
11347TIP3    H133984   1.114   0.859   6.220
11347TIP3    H233985   1.127   0.986   6.139
11348TIP3   OH233986   5.320   6.630   1.121
11348TIP3    H133987   5.284   6.597   1.203
11348TIP3    H233988   5.339   6.551   1.070
11349TIP3   OH233989   3.028   3.442   1.005
11349TIP3    H133990   2.999   3.378   1.070
11349TIP3    H233991   3.108   3.479   1.041
11350TIP3   OH233992   1.295   1.857   4.236
11350TIP3    H133993   1.292   1.949   4.265
11350TIP3    H233994   1.203   1.835   4.219
11351TIP3   OH233995   3.361   4.935   1.926
11351TIP3    H133996   3.350   4.844   1.899
11351TIP3    H233997   3.287   4.952   1.984
11352TIP3   OH233998   5.721   7.349   5.797
11352TIP3    H133999   5.747   7.268   5.752
11352TIP3    H234000   5.633   7.367   5.763
11353TIP3   OH234001   0.484   2.105   1.390
11353TIP3    H134002   0.472   2.195   1.358
11353TIP3    H234003   0.579   2.098   1.403
11354TIP3   OH234004   3.345   1.522   1.914
11354TIP3    H134005   3.436   1.529   1.885
11354TIP3    H234006   3.298   1.586   1.861
11355TIP3   OH234007   5.839   1.676   0.618
11355TIP3    H134008   5.824   1.685   0.712
11355TIP3    H234009   5.911   1.736   0.600
11356TIP3   OH234010   4.544   5.710   1.548
11356TIP3    H134011   4.612   5.749   1.492
11356TIP3    H234012   4.483   5.669   1.487
11357TIP3   OH234013   1.587   1.511   5.220
11357TIP3    H134014   1.558   1.594   5.259
11357TIP3    H234015   1.653   1.478   5.281
11358TIP3   OH234016   4.429   1.699   5.532
11358TIP3    H134017   4.467   1.669   5.615
11358TIP3    H234018   4.447   1.793   5.531
11359TIP3   OH234019   3.688   0.199   0.217
11359TIP3    H134020   3.636   0.146   0.278
11359TIP3    H234021   3.736   0.134   0.165
11360TIP3   OH234022   7.236   3.809   4.871
11360TIP3    H134023   7.281   3.854   4.800
11360TIP3    H234024   7.284   3.835   4.950
11361TIP3   OH234025   6.125   4.786   6.283
11361TIP3    H134026   6.034   4.791   6.253
11361TIP3    H234027   6.117   4.772   6.378
11362TIP3   OH234028   5.345   4.058   2.104
11362TIP3    H134029   5.415   4.078   2.166
11362TIP3    H234030   5.274   4.022   2.158
11363TIP3   OH234031   2.530   2.739   4.104
11363TIP3    H134032   2.571   2.768   4.186
11363TIP3    H234033   2.523   2.644   4.114
11364TIP3   OH234034   2.523   6.963   2.154
11364TIP3    H134035   2.525   7.043   2.102
11364TIP3    H234036   2.599   6.970   2.212
11365TIP3   OH234037   5.264   3.943   0.548
11365TIP3    H134038   5.225   3.909   0.629
11365TIP3    H234039   5.300   4.028   0.573
11366TIP3   OH234040   2.875   0.256   2.052
11366TIP3    H134041   2.831   0.214   1.979
11366TIP3    H234042   2.966   0.229   2.045
11367TIP3   OH234043   1.258   1.133   3.255
11367TIP3    H134044   1.218   1.074   3.318
11367TIP3    H234045   1.295   1.203   3.309
11368TIP3   OH234046   4.530   0.393   5.430
11368TIP3    H134047   4.478   0.344   5.366
11368TIP3    H234048   4.499   0.483   5.421
11369TIP3   OH234049   4.454   0.873   6.615
11369TIP3    H134050   4.507   0.936   6.566
11369TIP3    H234051   4.515   0.806   6.644
11370TIP3   OH234052   2.394   1.217   0.896
11370TIP3    H134053   2.475   1.201   0.848
11370TIP3    H234054   2.334   1.252   0.831
11371TIP3   OH234055   0.082   7.228   5.621
11371TIP3    H134056   0.102   7.143   5.660
11371TIP3    H234057   0.111   7.219   5.530
11372TIP3   OH234058   8.248   7.795   1.451
11372TIP3    H134059   8.169   7.741   1.444
11372TIP3    H234060   8.226   7.874   1.401
11373TIP3   OH234061   6.410   5.102   3.754
11373TIP3    H134062   6.462   5.061   3.685
11373TIP3    H234063   6.462   5.093   3.833
11374TIP3   OH234064   5.397   0.805   6.639
11374TIP3    H134065   5.307   0.818   6.669
11374TIP3    H234066   5.400   0.850   6.554
11375TIP3   OH234067   7.404   1.994   0.263
11375TIP3    H134068   7.409   2.059   0.334
11375TIP3    H234069   7.337   2.029   0.205
11376TIP3   OH234070   2.263   1.993   4.512
11376TIP3    H134071   2.178   1.976   4.552
11376TIP3    H234072   2.321   2.017   4.585
11377TIP3   OH234073   8.011   6.486   1.923
11377TIP3    H134074   8.063   6.511   1.847
11377TIP3    H234075   8.012   6.564   1.979
11378TIP3   OH234076   2.787   1.444   2.317
11378TIP3    H134077   2.729   1.440   2.241
11378TIP3    H234078   2.861   1.498   2.288
11379TIP3   OH234079   0.731   3.731   2.287
11379TIP3    H134080   0.783   3.811   2.302
11379TIP3    H234081   0.738   3.715   2.193
11380TIP3   OH234082   4.861   6.693   4.734
11380TIP3    H134083   4.864   6.784   4.763
11380TIP3    H234084   4.889   6.642   4.810
11381TIP3   OH234085   4.932   4.166   1.230
11381TIP3    H134086   5.002   4.108   1.260
11381TIP3    H234087   4.860   4.107   1.205
11382TIP3   OH234088   5.893   5.826   0.008
11382TIP3    H134089   5.864   5.893   0.070
11382TIP3    H234090   5.969   5.786   0.051
11383TIP3   OH234091   5.129   7.618   6.090
11383TIP3    H134092   5.218   7.640   6.119
11383TIP3    H234093   5.131   7.630   5.995
11384TIP3   OH234094   5.553   7.645   1.535
11384TIP3    H134095   5.591   7.695   1.463
11384TIP3    H234096   5.470   7.690   1.554
11385TIP3   OH234097   0.210   0.072   0.414
11385TIP3    H134098   0.184   0.037   0.329
11385TIP3    H234099   0.191   0.001   0.476
11386TIP3   OH234100   6.579   3.196   3.981
11386TIP3    H134101   6.521   3.164   3.912
11386TIP3    H234102   6.573   3.291   3.975
11387TIP3   OH234103   7.417   0.620   4.177
11387TIP3    H134104   7.420   0.703   4.226
11387TIP3    H234105   7.330   0.617   4.139
11388TIP3   OH234106   6.527   7.023   2.496
11388TIP3    H134107   6.465   6.977   2.553
11388TIP3    H234108   6.533   7.111   2.534
11389TIP3   OH234109   6.887   3.791   6.550
11389TIP3    H134110   6.972   3.795   6.595
11389TIP3    H234111   6.850   3.707   6.576
11390TIP3   OH234112   1.129   6.327   4.846
11390TIP3    H134113   1.184   6.318   4.768
11390TIP3    H234114   1.191   6.322   4.919
11391TIP3   OH234115   5.626   6.863   6.622
11391TIP3    H134116   5.533   6.848   6.609
11391TIP3    H234117   5.660   6.883   6.535
11392TIP3   OH234118   3.823   5.278   5.263
11392TIP3    H134119   3.733   5.297   5.237
11392TIP3    H234120   3.839   5.334   5.339
11393TIP3   OH234121   1.612   3.696   6.694
11393TIP3    H134122   1.595   3.695   6.600
11393TIP3    H234123   1.559   3.768   6.727
11394TIP3   OH234124   5.622   3.008   5.734
11394TIP3    H134125   5.604   3.025   5.642
11394TIP3    H234126   5.547   3.047   5.781
11395TIP3   OH234127   0.045   5.131   1.159
11395TIP3    H134128  -0.025   5.113   1.096
11395TIP3    H234129   0.033   5.222   1.183
11396TIP3   OH234130   4.925   4.688   3.864
11396TIP3    H134131   4.990   4.757   3.879
11396TIP3    H234132   4.892   4.705   3.775
11397TIP3   OH234133   2.333   1.519   5.304
11397TIP3    H134134   2.250   1.557   5.334
11397TIP3    H234135   2.349   1.445   5.362
11398TIP3   OH234136   6.013   0.408   2.293
11398TIP3    H134137   6.021   0.349   2.218
11398TIP3    H234138   6.103   0.437   2.310
11399TIP3   OH234139   0.959   4.983   2.441
11399TIP3    H134140   0.967   4.930   2.362
11399TIP3    H234141   0.917   5.064   2.411
11400TIP3   OH234142   3.605   2.300   5.171
11400TIP3    H134143   3.656   2.284   5.091
11400TIP3    H234144   3.656   2.366   5.219
11401TIP3   OH234145   5.667   3.380   2.897
11401TIP3    H134146   5.702   3.372   2.986
11401TIP3    H234147   5.711   3.457   2.861
11402TIP3   OH234148   1.755   1.812   2.802
11402TIP3    H134149   1.727   1.900   2.777
11402TIP3    H234150   1.787   1.774   2.720
11403TIP3   OH234151   1.090   4.616   0.572
11403TIP3    H134152   1.150   4.682   0.537
11403TIP3    H234153   1.014   4.667   0.602
11404TIP3   OH234154   7.714   0.502   1.752
11404TIP3    H134155   7.727   0.471   1.662
11404TIP3    H234156   7.680   0.591   1.742
11405TIP3   OH234157   0.136   1.399   2.605
11405TIP3    H134158   0.215   1.428   2.650
11405TIP3    H234159   0.064   1.429   2.660
11406TIP3   OH234160   4.817   1.366   2.839
11406TIP3    H134161   4.838   1.347   2.930
11406TIP3    H234162   4.734   1.322   2.823
11407TIP3   OH234163   7.047   1.099   5.268
11407TIP3    H134164   7.039   1.005   5.251
11407TIP3    H234165   7.116   1.106   5.334
11408TIP3   OH234166   2.482   7.383   0.207
11408TIP3    H134167   2.573   7.356   0.196
11408TIP3    H234168   2.487   7.466   0.255
11409TIP3   OH234169   7.093   2.974   5.576
11409TIP3    H134170   7.038   2.989   5.499
11409TIP3    H234171   7.085   3.055   5.626
11410TIP3   OH234172   1.587   5.973   1.074
11410TIP3    H134173   1.598   6.065   1.053
11410TIP3    H234174   1.532   5.938   1.003
11411TIP3   OH234175   2.564   0.749   0.634
11411TIP3    H134176   2.633   0.788   0.580
11411TIP3    H234177   2.488   0.806   0.622
11412TIP3   OH234178   5.927   1.150   4.292
11412TIP3    H134179   6.023   1.157   4.283
11412TIP3    H234180   5.904   1.073   4.240
11413TIP3   OH234181   7.758   2.472   0.933
11413TIP3    H134182   7.834   2.414   0.939
11413TIP3    H234183   7.714   2.464   1.018
11414TIP3   OH234184   1.204   7.325   0.765
11414TIP3    H134185   1.200   7.400   0.824
11414TIP3    H234186   1.211   7.249   0.822
11415TIP3   OH234187   2.166   5.778   5.272
11415TIP3    H134188   2.252   5.816   5.291
11415TIP3    H234189   2.122   5.844   5.218
11416TIP3   OH234190   2.036   1.440   1.150
11416TIP3    H134191   2.050   1.424   1.056
11416TIP3    H234192   2.052   1.534   1.160
11417TIP3   OH234193   5.209   1.443   0.638
11417TIP3    H134194   5.301   1.458   0.615
11417TIP3    H234195   5.167   1.528   0.623
11418TIP3   OH234196   5.977   2.931   6.092
11418TIP3    H134197   5.919   2.922   6.016
11418TIP3    H234198   5.919   2.915   6.167
11419TIP3   OH234199   7.793   5.628   0.263
11419TIP3    H134200   7.713   5.680   0.259
11419TIP3    H234201   7.805   5.610   0.356
11420TIP3   OH234202   4.543   5.217   2.500
11420TIP3    H134203   4.577   5.290   2.553
11420TIP3    H234204   4.565   5.139   2.550
11421TIP3   OH234205   2.907   4.150   6.205
11421TIP3    H134206   2.897   4.089   6.133
11421TIP3    H234207   2.849   4.223   6.184
11422TIP3   OH234208   7.803   7.679   5.352
11422TIP3    H134209   7.841   7.592   5.339
11422TIP3    H234210   7.723   7.663   5.402
11423TIP3   OH234211   3.840   3.272   3.280
11423TIP3    H134212   3.847   3.180   3.304
11423TIP3    H234213   3.885   3.279   3.195
11424TIP3   OH234214   0.972   3.548   0.147
11424TIP3    H134215   1.038   3.607   0.184
11424TIP3    H234216   0.992   3.546   0.053
11425TIP3   OH234217   3.011   3.467   6.115
11425TIP3    H134218   2.960   3.548   6.116
11425TIP3    H234219   3.095   3.492   6.077
11426TIP3   OH234220   6.863   4.843   5.553
11426TIP3    H134221   6.783   4.895   5.548
11426TIP3    H234222   6.832   4.752   5.555
11427TIP3   OH234223   5.212   2.186   3.413
11427TIP3    H134224   5.169   2.104   3.439
11427TIP3    H234225   5.175   2.253   3.470
11428TIP3   OH234226   5.623   4.030   0.354
11428TIP3    H134227   5.635   3.939   0.328
11428TIP3    H234228   5.693   4.046   0.417
11429TIP3   OH234229   1.190   3.319   6.078
11429TIP3    H134230   1.202   3.381   6.006
11429TIP3    H234231   1.209   3.234   6.039
11430TIP3   OH234232   8.108   3.179   5.511
11430TIP3    H134233   8.078   3.196   5.601
11430TIP3    H234234   8.203   3.181   5.516
11431TIP3   OH234235   4.115   5.972   0.068
11431TIP3    H134236   4.145   6.051   0.114
11431TIP3    H234237   4.146   5.982  -0.021
11432TIP3   OH234238   1.188   4.455   3.671
11432TIP3    H134239   1.156   4.367   3.648
11432TIP3    H234240   1.145   4.513   3.609
11433TIP3   OH234241   5.086   3.430   6.254
11433TIP3    H134242   4.995   3.406   6.275
11433TIP3    H234243   5.086   3.525   6.250
11434TIP3   OH234244   5.895   4.293   0.509
11434TIP3    H134245   5.914   4.207   0.472
11434TIP3    H234246   5.828   4.277   0.576
11435TIP3   OH234247   6.080   7.158   0.586
11435TIP3    H134248   5.985   7.173   0.588
11435TIP3    H234249   6.115   7.237   0.545
11436TIP3   OH234250   2.057   7.080   0.756
11436TIP3    H134251   2.063   7.147   0.689
11436TIP3    H234252   2.107   7.006   0.721
11437TIP3   OH234253   0.479   1.180   4.038
11437TIP3    H134254   0.482   1.170   3.942
11437TIP3    H234255   0.484   1.090   4.071
11438TIP3   OH234256   5.429   3.575   2.628
11438TIP3    H134257   5.351   3.628   2.643
11438TIP3    H234258   5.493   3.607   2.693
11439TIP3   OH234259   8.193   7.398   1.663
11439TIP3    H134260   8.216   7.317   1.617
11439TIP3    H234261   8.107   7.422   1.628
11440TIP3   OH234262   7.450   5.944   2.681
11440TIP3    H134263   7.510   5.977   2.748
11440TIP3    H234264   7.487   5.859   2.656
11441TIP3   OH234265   0.738   7.724   5.252
11441TIP3    H134266   0.793   7.670   5.195
11441TIP3    H234267   0.764   7.814   5.232
11442TIP3   OH234268   7.034   6.510   6.737
11442TIP3    H134269   7.045   6.417   6.717
11442TIP3    H234270   7.000   6.548   6.656
11443TIP3   OH234271   5.420   3.223   0.120
11443TIP3    H134272   5.413   3.131   0.095
11443TIP3    H234273   5.367   3.231   0.200
11444TIP3   OH234274   2.599   2.515   3.873
11444TIP3    H134275   2.602   2.420   3.860
11444TIP3    H234276   2.594   2.525   3.968
11445TIP3   OH234277   2.348   0.546   3.326
11445TIP3    H134278   2.312   0.619   3.375
11445TIP3    H234279   2.404   0.586   3.260
11446TIP3   OH234280   2.892   1.927   5.570
11446TIP3    H134281   2.863   1.962   5.485
11446TIP3    H234282   2.828   1.859   5.591
11447TIP3   OH234283   2.138   2.694   2.814
11447TIP3    H134284   2.130   2.773   2.759
11447TIP3    H234285   2.128   2.622   2.752
11448TIP3   OH234286   1.877   6.804   2.144
11448TIP3    H134287   1.869   6.812   2.049
11448TIP3    H234288   1.970   6.824   2.162
11449TIP3   OH234289   5.700   6.883   2.440
11449TIP3    H134290   5.795   6.874   2.433
11449TIP3    H234291   5.680   6.865   2.531
11450TIP3   OH234292   8.244   6.632   6.421
11450TIP3    H134293   8.165   6.625   6.368
11450TIP3    H234294   8.213   6.620   6.511
11451TIP3   OH234295   5.592   1.024   4.039
11451TIP3    H134296   5.576   1.081   3.964
11451TIP3    H234297   5.576   1.079   4.115
11452TIP3   OH234298   8.130   0.510   2.039
11452TIP3    H134299   8.079   0.545   1.966
11452TIP3    H234300   8.221   0.532   2.019
11453TIP3   OH234301   5.633   5.204   2.071
11453TIP3    H134302   5.644   5.259   1.994
11453TIP3    H234303   5.547   5.165   2.061
11454TIP3   OH234304   5.394   5.938   6.622
11454TIP3    H134305   5.338   5.953   6.699
11454TIP3    H234306   5.478   5.977   6.646
11455TIP3   OH234307   5.278   7.513   0.912
11455TIP3    H134308   5.198   7.553   0.947
11455TIP3    H234309   5.248   7.448   0.850
11456TIP3   OH234310   6.222   6.990   0.889
11456TIP3    H134311   6.300   6.990   0.834
11456TIP3    H234312   6.238   7.060   0.953
11457TIP3   OH234313   3.365   0.811   1.053
11457TIP3    H134314   3.434   0.816   1.119
11457TIP3    H234315   3.380   0.887   0.997
11458TIP3   OH234316   0.493   5.324   2.814
11458TIP3    H134317   0.463   5.394   2.755
11458TIP3    H234318   0.546   5.267   2.758
11459TIP3   OH234319   4.354   7.701   1.811
11459TIP3    H134320   4.328   7.787   1.844
11459TIP3    H234321   4.333   7.705   1.717
11460TIP3   OH234322   7.441   2.935   6.511
11460TIP3    H134323   7.440   3.000   6.582
11460TIP3    H234324   7.523   2.952   6.465
11461TIP3   OH234325   3.200   2.280   1.198
11461TIP3    H134326   3.270   2.259   1.136
11461TIP3    H234327   3.218   2.371   1.223
11462TIP3   OH234328   6.285   5.011   0.904
11462TIP3    H134329   6.288   5.096   0.860
11462TIP3    H234330   6.333   4.952   0.845
11463TIP3   OH234331   7.664   1.217   3.233
11463TIP3    H134332   7.578   1.257   3.229
11463TIP3    H234333   7.710   1.266   3.302
11464TIP3   OH234334   7.853   4.489   3.089
11464TIP3    H134335   7.794   4.544   3.139
11464TIP3    H234336   7.939   4.529   3.102
11465TIP3   OH234337   0.335   6.744   5.740
11465TIP3    H134338   0.393   6.749   5.816
11465TIP3    H234339   0.370   6.809   5.678
11466TIP3   OH234340   3.054   5.209   4.240
11466TIP3    H134341   3.026   5.268   4.311
11466TIP3    H234342   3.004   5.238   4.164
11467TIP3   OH234343   7.971   3.905   2.841
11467TIP3    H134344   7.953   3.882   2.750
11467TIP3    H234345   7.985   3.821   2.885
11468TIP3   OH234346   3.231   6.941   1.363
11468TIP3    H134347   3.253   6.970   1.275
11468TIP3    H234348   3.291   6.869   1.381
11469TIP3   OH234349   2.901   3.296   4.657
11469TIP3    H134350   2.947   3.314   4.739
11469TIP3    H234351   2.970   3.299   4.591
11470TIP3   OH234352   5.119   5.534   3.186
11470TIP3    H134353   5.113   5.562   3.094
11470TIP3    H234354   5.093   5.612   3.236
11471TIP3   OH234355   4.245   3.872   5.841
11471TIP3    H134356   4.205   3.816   5.908
11471TIP3    H234357   4.171   3.911   5.795
11472TIP3   OH234358   5.532   4.303   6.435
11472TIP3    H134359   5.491   4.219   6.457
11472TIP3    H234360   5.523   4.310   6.340
11473TIP3   OH234361   5.849   0.986   0.250
11473TIP3    H134362   5.894   1.071   0.251
11473TIP3    H234363   5.912   0.926   0.211
11474TIP3   OH234364   8.049   0.164   3.097
11474TIP3    H134365   7.993   0.102   3.050
11474TIP3    H234366   8.066   0.235   3.035
11475TIP3   OH234367   0.481   6.163   1.094
11475TIP3    H134368   0.494   6.241   1.148
11475TIP3    H234369   0.552   6.166   1.029
11476TIP3   OH234370   3.616   2.301   3.841
11476TIP3    H134371   3.581   2.387   3.865
11476TIP3    H234372   3.546   2.240   3.862
11477TIP3   OH234373   1.935   7.431   1.854
11477TIP3    H134374   1.969   7.476   1.931
11477TIP3    H234375   1.860   7.381   1.885
11478TIP3   OH234376   1.993   4.071   4.341
11478TIP3    H134377   2.088   4.078   4.335
11478TIP3    H234378   1.963   4.066   4.250
11479TIP3   OH234379   2.464   1.995   0.779
11479TIP3    H134380   2.453   2.088   0.799
11479TIP3    H234381   2.479   1.954   0.864
11480TIP3   OH234382   2.351   4.992   5.540
11480TIP3    H134383   2.426   4.933   5.549
11480TIP3    H234384   2.275   4.934   5.542
11481TIP3   OH234385   0.784   3.286   1.141
11481TIP3    H134386   0.762   3.193   1.148
11481TIP3    H234387   0.872   3.288   1.104
11482TIP3   OH234388   0.904   7.285   2.093
11482TIP3    H134389   1.000   7.293   2.087
11482TIP3    H234390   0.891   7.216   2.158
11483TIP3   OH234391   5.470   2.146   3.253
11483TIP3    H134392   5.395   2.156   3.311
11483TIP3    H234393   5.512   2.232   3.252
11484TIP3   OH234394   7.862   2.974   4.386
11484TIP3    H134395   7.926   3.009   4.324
11484TIP3    H234396   7.916   2.938   4.457
11485TIP3   OH234397   6.984   7.161   4.656
11485TIP3    H134398   7.035   7.084   4.631
11485TIP3    H234399   6.960   7.145   4.747
11486TIP3   OH234400   5.902   6.872   2.797
11486TIP3    H134401   5.936   6.818   2.868
11486TIP3    H234402   5.975   6.930   2.774
11487TIP3   OH234403   3.633   5.382   4.514
11487TIP3    H134404   3.606   5.446   4.448
11487TIP3    H234405   3.629   5.430   4.597
11488TIP3   OH234406   1.826   0.031   6.329
11488TIP3    H134407   1.760   0.088   6.368
11488TIP3    H234408   1.785  -0.056   6.330
11489TIP3   OH234409   6.807   4.202   3.853
11489TIP3    H134410   6.838   4.279   3.805
11489TIP3    H234411   6.799   4.232   3.943
11490TIP3   OH234412   1.733   7.499   3.227
11490TIP3    H134413   1.748   7.556   3.151
11490TIP3    H234414   1.752   7.554   3.303
11491TIP3   OH234415   4.925   6.153   6.688
11491TIP3    H134416   4.888   6.207   6.758
11491TIP3    H234417   4.966   6.079   6.734
11492TIP3   OH234418   4.596   3.321   2.967
11492TIP3    H134419   4.559   3.280   3.045
11492TIP3    H234420   4.684   3.346   2.992
11493TIP3   OH234421   0.619   5.073   1.735
11493TIP3    H134422   0.555   5.143   1.727
11493TIP3    H234423   0.630   5.040   1.646
11494TIP3   OH234424   1.609   2.525   4.666
11494TIP3    H134425   1.689   2.491   4.626
11494TIP3    H234426   1.632   2.540   4.757
11495TIP3   OH234427   3.884   0.826   2.789
11495TIP3    H134428   3.878   0.731   2.779
11495TIP3    H234429   3.978   0.843   2.794
11496TIP3   OH234430   2.441   7.267   2.729
11496TIP3    H134431   2.439   7.360   2.754
11496TIP3    H234432   2.350   7.239   2.732
11497TIP3   OH234433   6.211   1.460   3.821
11497TIP3    H134434   6.165   1.461   3.905
11497TIP3    H234435   6.184   1.378   3.780
11498TIP3   OH234436   1.160   6.649   2.082
11498TIP3    H134437   1.142   6.742   2.069
11498TIP3    H234438   1.249   6.637   2.049
11499TIP3   OH234439   7.725   2.112   3.020
11499TIP3    H134440   7.669   2.181   2.986
11499TIP3    H234441   7.678   2.077   3.095
11500TIP3   OH234442   7.421   5.694   4.472
11500TIP3    H134443   7.417   5.602   4.448
11500TIP3    H234444   7.396   5.741   4.392
11501TIP3   OH234445   4.754   6.936   3.029
11501TIP3    H134446   4.824   6.943   2.963
11501TIP3    H234447   4.712   7.022   3.028
11502TIP3   OH234448   3.330   3.873   5.232
11502TIP3    H134449   3.311   3.888   5.139
11502TIP3    H234450   3.253   3.905   5.277
11503TIP3   OH234451   7.571   4.324   2.069
11503TIP3    H134452   7.554   4.231   2.050
11503TIP3    H234453   7.533   4.338   2.156
11504TIP3   OH234454   7.620   0.861   1.334
11504TIP3    H134455   7.540   0.902   1.300
11504TIP3    H234456   7.687   0.929   1.325
11505TIP3   OH234457   6.524   5.026   2.407
11505TIP3    H134458   6.436   5.033   2.444
11505TIP3    H234459   6.526   4.941   2.364
11506TIP3   OH234460   3.528   4.613   4.645
11506TIP3    H134461   3.564   4.590   4.730
11506TIP3    H234462   3.584   4.683   4.613
11507TIP3   OH234463   7.907   0.498   5.784
11507TIP3    H134464   7.853   0.495   5.863
11507TIP3    H234465   7.871   0.570   5.733
11508TIP3   OH234466   1.265   0.376   3.630
11508TIP3    H134467   1.226   0.453   3.671
11508TIP3    H234468   1.192   0.314   3.623
11509TIP3   OH234469   1.932   7.024   2.831
11509TIP3    H134470   1.902   6.976   2.753
11509TIP3    H234471   1.866   7.091   2.844
11510TIP3   OH234472   7.402   3.490   2.046
11510TIP3    H134473   7.480   3.528   2.008
11510TIP3    H234474   7.347   3.467   1.970
11511TIP3   OH234475   3.184   4.286   5.644
11511TIP3    H134476   3.258   4.274   5.585
11511TIP3    H234477   3.116   4.326   5.590
11512TIP3   OH234478   2.100   4.227   0.333
11512TIP3    H134479   2.050   4.184   0.403
11512TIP3    H234480   2.102   4.319   0.359
11513TIP3   OH234481   2.591   0.259   3.741
11513TIP3    H134482   2.605   0.184   3.799
11513TIP3    H234483   2.644   0.239   3.663
11514TIP3   OH234484   4.929   7.748   2.302
11514TIP3    H134485   4.972   7.664   2.284
11514TIP3    H234486   4.900   7.780   2.216
11515TIP3   OH234487   1.846   6.041   1.003
11515TIP3    H134488   1.850   6.126   1.046
11515TIP3    H234489   1.785   5.989   1.056
11516TIP3   OH234490   2.625   4.072   3.898
11516TIP3    H134491   2.720   4.065   3.888
11516TIP3    H234492   2.614   4.132   3.972
11517TIP3   OH234493   1.061   6.066   1.343
11517TIP3    H134494   1.023   6.081   1.256
11517TIP3    H234495   1.124   5.996   1.330
11518TIP3   OH234496   3.749   1.983   4.949
11518TIP3    H134497   3.771   1.911   4.889
11518TIP3    H234498   3.814   2.051   4.930
11519TIP3   OH234499   3.111   1.648   6.719
11519TIP3    H134500   3.114   1.740   6.747
11519TIP3    H234501   3.142   1.599   6.795
11520TIP3   OH234502   0.525   3.788   0.807
11520TIP3    H134503   0.555   3.770   0.896
11520TIP3    H234504   0.555   3.878   0.790
11521TIP3   OH234505   7.768   1.638   0.358
11521TIP3    H134506   7.838   1.691   0.321
11521TIP3    H234507   7.745   1.681   0.440
11522TIP3   OH234508   5.116   3.371   4.297
11522TIP3    H134509   5.101   3.300   4.360
11522TIP3    H234510   5.061   3.349   4.222
11523TIP3   OH234511   5.452   7.348   3.671
11523TIP3    H134512   5.436   7.366   3.579
11523TIP3    H234513   5.372   7.305   3.702
11524TIP3   OH234514   0.400   6.968   1.607
11524TIP3    H134515   0.404   6.955   1.701
11524TIP3    H234516   0.464   7.037   1.589
11525TIP3   OH234517   4.426   0.438   6.599
11525TIP3    H134518   4.424   0.479   6.512
11525TIP3    H234519   4.339   0.453   6.635
11526TIP3   OH234520   7.752   7.633   0.274
11526TIP3    H134521   7.780   7.598   0.190
11526TIP3    H234522   7.824   7.614   0.334
11527TIP3   OH234523   5.278   4.011   5.506
11527TIP3    H134524   5.358   3.979   5.465
11527TIP3    H234525   5.307   4.054   5.586
11528TIP3   OH234526   7.804   4.639   6.471
11528TIP3    H134527   7.878   4.679   6.425
11528TIP3    H234528   7.818   4.545   6.462
11529TIP3   OH234529   0.885   0.612   5.020
11529TIP3    H134530   0.796   0.615   5.056
11529TIP3    H234531   0.877   0.651   4.933
11530TIP3   OH234532   4.389   0.686   4.117
11530TIP3    H134533   4.328   0.669   4.188
11530TIP3    H234534   4.365   0.773   4.085
11531TIP3   OH234535   7.021   7.751   3.349
11531TIP3    H134536   7.105   7.708   3.364
11531TIP3    H234537   7.038   7.816   3.281
11532TIP3   OH234538   4.314   5.191   0.594
11532TIP3    H134539   4.389   5.248   0.574
11532TIP3    H234540   4.274   5.174   0.509
11533TIP3   OH234541   2.889   3.295   0.702
11533TIP3    H134542   2.900   3.225   0.766
11533TIP3    H234543   2.854   3.369   0.752
11534TIP3   OH234544   0.766   5.668   2.306
11534TIP3    H134545   0.681   5.673   2.348
11534TIP3    H234546   0.829   5.679   2.377
11535TIP3   OH234547   3.679   0.910   0.730
11535TIP3    H134548   3.692   0.855   0.653
11535TIP3    H234549   3.673   0.847   0.803
11536TIP3   OH234550   6.878   4.491   0.765
11536TIP3    H134551   6.926   4.512   0.845
11536TIP3    H234552   6.923   4.540   0.696
11537TIP3   OH234553   0.943   3.862   5.205
11537TIP3    H134554   0.956   3.937   5.263
11537TIP3    H234555   0.848   3.854   5.198
11538TIP3   OH234556   3.435   1.494   2.391
11538TIP3    H134557   3.501   1.426   2.380
11538TIP3    H234558   3.417   1.525   2.302
11539TIP3   OH234559   4.264   0.949   4.011
11539TIP3    H134560   4.256   1.043   3.995
11539TIP3    H234561   4.200   0.910   3.953
11540TIP3   OH234562   4.672   6.883   4.152
11540TIP3    H134563   4.728   6.959   4.137
11540TIP3    H234564   4.714   6.837   4.224
11541TIP3   OH234565   7.389   5.463   6.616
11541TIP3    H134566   7.447   5.488   6.688
11541TIP3    H234567   7.419   5.515   6.542
11542TIP3   OH234568   1.965   1.165   0.727
11542TIP3    H134569   1.979   1.076   0.695
11542TIP3    H234570   1.921   1.153   0.811
11543TIP3   OH234571   4.824   5.198   3.791
11543TIP3    H134572   4.881   5.182   3.716
11543TIP3    H234573   4.863   5.149   3.863
11544TIP3   OH234574   3.766   0.448   4.155
11544TIP3    H134575   3.768   0.517   4.088
11544TIP3    H234576   3.673   0.428   4.166
11545TIP3   OH234577   5.740   1.638   2.816
11545TIP3    H134578   5.751   1.642   2.911
11545TIP3    H234579   5.731   1.729   2.789
11546TIP3   OH234580   6.702   0.107   1.264
11546TIP3    H134581   6.766   0.036   1.256
11546TIP3    H234582   6.631   0.069   1.317
11547TIP3   OH234583   5.983   6.584   4.840
11547TIP3    H134584   5.943   6.529   4.908
11547TIP3    H234585   5.934   6.667   4.845
11548TIP3   OH234586   7.430   1.374   3.528
11548TIP3    H134587   7.346   1.404   3.563
11548TIP3    H234588   7.447   1.431   3.454
11549TIP3   OH234589   1.216   7.033   1.727
11549TIP3    H134590   1.226   7.085   1.806
11549TIP3    H234591   1.263   6.951   1.746
11550TIP3   OH234592   7.703   5.481   5.628
11550TIP3    H134593   7.778   5.425   5.647
11550TIP3    H234594   7.740   5.556   5.581
11551TIP3   OH234595   5.600   5.919   4.843
11551TIP3    H134596   5.583   6.008   4.873
11551TIP3    H234597   5.513   5.882   4.829
11552TIP3   OH234598   8.265   2.673   2.578
11552TIP3    H134599   8.226   2.675   2.490
11552TIP3    H234600   8.211   2.733   2.629
11553TIP3   OH234601   6.837   1.955   0.418
11553TIP3    H134602   6.872   1.963   0.330
11553TIP3    H234603   6.914   1.958   0.475
11554TIP3   OH234604   2.000   7.016   6.684
11554TIP3    H134605   2.051   6.953   6.633
11554TIP3    H234606   1.932   7.046   6.623
11555TIP3   OH234607   4.820   5.991   2.207
11555TIP3    H134608   4.757   6.062   2.221
11555TIP3    H234609   4.897   6.035   2.171
11556TIP3   OH234610   5.882   7.291   3.083
11556TIP3    H134611   5.826   7.368   3.077
11556TIP3    H234612   5.833   7.222   3.037
11557TIP3   OH234613   5.857   3.534   2.773
11557TIP3    H134614   5.909   3.605   2.810
11557TIP3    H234615   5.911   3.499   2.702
11558TIP3   OH234616   1.348   1.478   4.186
11558TIP3    H134617   1.350   1.546   4.119
11558TIP3    H234618   1.403   1.408   4.151
11559TIP3   OH234619   6.970   0.694   3.641
11559TIP3    H134620   7.061   0.711   3.665
11559TIP3    H234621   6.950   0.610   3.683
11560TIP3   OH234622   2.433   6.037   1.593
11560TIP3    H134623   2.403   6.073   1.677
11560TIP3    H234624   2.527   6.051   1.594
11561TIP3   OH234625   4.591   0.165   3.867
11561TIP3    H134626   4.684   0.184   3.852
11561TIP3    H234627   4.590   0.103   3.939
11562TIP3   OH234628   6.821   4.004   1.146
11562TIP3    H134629   6.838   3.919   1.104
11562TIP3    H234630   6.736   4.031   1.111
11563TIP3   OH234631   0.515   1.437   4.766
11563TIP3    H134632   0.571   1.361   4.755
11563TIP3    H234633   0.436   1.416   4.716
11564TIP3   OH234634   4.683   4.585   6.377
11564TIP3    H134635   4.670   4.548   6.291
11564TIP3    H234636   4.634   4.667   6.376
11565TIP3   OH234637   5.325   7.631   6.345
11565TIP3    H134638   5.259   7.674   6.399
11565TIP3    H234639   5.369   7.703   6.300
11566TIP3   OH234640   3.001   6.337   4.761
11566TIP3    H134641   3.067   6.319   4.694
11566TIP3    H234642   3.042   6.400   4.820
11567TIP3   OH234643   4.116   0.683   1.294
11567TIP3    H134644   4.165   0.621   1.240
11567TIP3    H234645   4.178   0.754   1.311
11568TIP3   OH234646   1.754   2.927   4.892
11568TIP3    H134647   1.754   2.902   4.984
11568TIP3    H234648   1.700   3.006   4.889
11569TIP3   OH234649   5.433   6.109   1.867
11569TIP3    H134650   5.517   6.154   1.871
11569TIP3    H234651   5.398   6.114   1.955
11570TIP3   OH234652   4.190   0.930   0.095
11570TIP3    H134653   4.210   1.015   0.057
11570TIP3    H234654   4.273   0.900   0.132
11571TIP3   OH234655   2.216   3.003   4.642
11571TIP3    H134656   2.133   2.973   4.677
11571TIP3    H234657   2.239   3.080   4.695
11572TIP3   OH234658   1.394   4.382   2.146
11572TIP3    H134659   1.367   4.302   2.191
11572TIP3    H234660   1.461   4.420   2.202
11573TIP3   OH234661   2.517   5.282   3.450
11573TIP3    H134662   2.460   5.220   3.495
11573TIP3    H234663   2.497   5.367   3.490
11574TIP3   OH234664   3.006   5.151   6.456
11574TIP3    H134665   3.077   5.120   6.401
11574TIP3    H234666   3.049   5.202   6.525
11575TIP3   OH234667   7.393   5.071   5.848
11575TIP3    H134668   7.306   5.089   5.814
11575TIP3    H234669   7.452   5.115   5.788
11576TIP3   OH234670   8.240   0.135   2.828
11576TIP3    H134671   8.303   0.207   2.833
11576TIP3    H234672   8.197   0.146   2.743
11577TIP3   OH234673   3.851   6.882   2.251
11577TIP3    H134674   3.797   6.804   2.263
11577TIP3    H234675   3.826   6.917   2.165
11578TIP3   OH234676   1.810   0.448   6.474
11578TIP3    H134677   1.812   0.474   6.382
11578TIP3    H234678   1.845   0.524   6.521
11579TIP3   OH234679   4.381   1.529   4.987
11579TIP3    H134680   4.417   1.440   4.979
11579TIP3    H234681   4.339   1.530   5.073
11580TIP3   OH234682   3.109   2.414   1.747
11580TIP3    H134683   3.167   2.359   1.800
11580TIP3    H234684   3.071   2.475   1.810
11581TIP3   OH234685   0.830   2.557   3.486
11581TIP3    H134686   0.826   2.521   3.398
11581TIP3    H234687   0.861   2.647   3.475
11582TIP3   OH234688   3.686   3.453   4.210
11582TIP3    H134689   3.657   3.362   4.202
11582TIP3    H234690   3.781   3.448   4.200
11583TIP3   OH234691   3.431   1.667   5.524
11583TIP3    H134692   3.445   1.730   5.594
11583TIP3    H234693   3.492   1.693   5.456
11584TIP3   OH234694   1.196   2.845   3.605
11584TIP3    H134695   1.194   2.755   3.572
11584TIP3    H234696   1.185   2.900   3.528
11585TIP3   OH234697   4.781   0.597   0.059
11585TIP3    H134698   4.713   0.615   0.124
11585TIP3    H234699   4.796   0.682   0.018
11586TIP3   OH234700   7.673   4.447   5.532
11586TIP3    H134701   7.705   4.536   5.545
11586TIP3    H234702   7.578   4.453   5.543
11587TIP3   OH234703   3.049   4.164   3.032
11587TIP3    H134704   3.028   4.244   3.080
11587TIP3    H234705   3.135   4.180   2.995
11588TIP3   OH234706   4.813   5.321   4.549
11588TIP3    H134707   4.906   5.341   4.555
11588TIP3    H234708   4.809   5.226   4.538
11589TIP3   OH234709   1.276   4.935   4.197
11589TIP3    H134710   1.351   4.989   4.220
11589TIP3    H234711   1.263   4.878   4.273
11590TIP3   OH234712   2.385   1.102   2.505
11590TIP3    H134713   2.432   1.146   2.577
11590TIP3    H234714   2.293   1.128   2.518
11591TIP3   OH234715   8.051   7.167   0.061
11591TIP3    H134716   8.061   7.245   0.115
11591TIP3    H234717   8.086   7.096   0.115
11592TIP3   OH234718   7.076   7.082   2.901
11592TIP3    H134719   7.039   7.153   2.953
11592TIP3    H234720   7.157   7.059   2.947
11593TIP3   OH234721   2.006   5.530   0.039
11593TIP3    H134722   1.998   5.456   0.099
11593TIP3    H234723   2.085   5.576   0.067
11594TIP3   OH234724   0.467   6.928   4.636
11594TIP3    H134725   0.550   6.963   4.605
11594TIP3    H234726   0.480   6.918   4.731
11595TIP3   OH234727   6.199   6.173   1.429
11595TIP3    H134728   6.184   6.268   1.431
11595TIP3    H234729   6.114   6.135   1.450
11596TIP3   OH234730   1.958   6.879   5.255
11596TIP3    H134731   1.935   6.970   5.233
11596TIP3    H234732   1.896   6.826   5.205
11597TIP3   OH234733   2.543   2.720   1.611
11597TIP3    H134734   2.636   2.733   1.630
11597TIP3    H234735   2.542   2.654   1.542
11598TIP3   OH234736   5.085   5.845   1.740
11598TIP3    H134737   5.110   5.809   1.826
11598TIP3    H234738   5.161   5.894   1.711
11599TIP3   OH234739   4.585   6.892   4.779
11599TIP3    H134740   4.677   6.869   4.773
11599TIP3    H234741   4.553   6.844   4.855
11600TIP3   OH234742   1.151   7.086   6.164
11600TIP3    H134743   1.149   7.001   6.208
11600TIP3    H234744   1.125   7.149   6.232
11601TIP3   OH234745   6.534   4.676   4.856
11601TIP3    H134746   6.471   4.623   4.808
11601TIP3    H234747   6.577   4.729   4.789
11602TIP3   OH234748   4.914   2.199   5.514
11602TIP3    H134749   4.989   2.158   5.471
11602TIP3    H234750   4.873   2.251   5.445
11603TIP3   OH234751   7.577   7.720   4.853
11603TIP3    H134752   7.501   7.739   4.908
11603TIP3    H234753   7.648   7.773   4.890
11604TIP3   OH234754   3.336   0.375   2.574
11604TIP3    H134755   3.398   0.432   2.528
11604TIP3    H234756   3.358   0.386   2.667
11605TIP3   OH234757   4.491   2.844   3.040
11605TIP3    H134758   4.484   2.904   3.115
11605TIP3    H234759   4.411   2.792   3.043
11606TIP3   OH234760   3.271   3.457   1.133
11606TIP3    H134761   3.325   3.455   1.212
11606TIP3    H234762   3.258   3.365   1.111
11607TIP3   OH234763   3.591   2.030   3.592
11607TIP3    H134764   3.505   2.044   3.632
11607TIP3    H234765   3.644   2.104   3.622
11608TIP3   OH234766   1.227   5.086   1.019
11608TIP3    H134767   1.138   5.120   1.020
11608TIP3    H234768   1.225   5.013   1.082
11609TIP3   OH234769   5.053   3.696   6.693
11609TIP3    H134770   4.978   3.751   6.672
11609TIP3    H234771   5.120   3.720   6.629
11610TIP3   OH234772   2.372   0.568   5.383
11610TIP3    H134773   2.310   0.583   5.312
11610TIP3    H234774   2.319   0.539   5.457
11611TIP3   OH234775   3.325   0.211   6.204
11611TIP3    H134776   3.277   0.165   6.136
11611TIP3    H234777   3.271   0.288   6.223
11612TIP3   OH234778   4.151   1.852   3.899
11612TIP3    H134779   4.144   1.921   3.834
11612TIP3    H234780   4.066   1.808   3.897
11613TIP3   OH234781   2.394   7.025   5.067
11613TIP3    H134782   2.386   7.004   5.160
11613TIP3    H234783   2.353   6.951   5.023
11614TIP3   OH234784   5.235   3.708   4.927
11614TIP3    H134785   5.326   3.698   4.900
11614TIP3    H234786   5.238   3.776   4.994
11615TIP3   OH234787   5.693   5.635   1.693
11615TIP3    H134788   5.775   5.634   1.645
11615TIP3    H234789   5.708   5.696   1.766
11616TIP3   OH234790   0.839   6.930   4.132
11616TIP3    H134791   0.895   6.893   4.064
11616TIP3    H234792   0.795   6.854   4.171
11617TIP3   OH234793   1.548   3.929   3.846
11617TIP3    H134794   1.465   3.954   3.807
11617TIP3    H234795   1.535   3.936   3.940
11618TIP3   OH234796   3.058   0.979   6.692
11618TIP3    H134797   3.069   0.885   6.680
11618TIP3    H234798   2.969   0.989   6.725
11619TIP3   OH234799   3.132   5.286   0.844
11619TIP3    H134800   3.181   5.212   0.808
11619TIP3    H234801   3.170   5.363   0.802
11620TIP3   OH234802   0.720   5.801   3.216
11620TIP3    H134803   0.642   5.854   3.233
11620TIP3    H234804   0.781   5.862   3.174
11621TIP3   OH234805   2.076   4.697   3.440
11621TIP3    H134806   2.113   4.757   3.375
11621TIP3    H234807   2.039   4.626   3.388
11622TIP3   OH234808   7.749   5.698   3.257
11622TIP3    H134809   7.825   5.687   3.314
11622TIP3    H234810   7.674   5.678   3.313
11623TIP3   OH234811   8.183   4.615   6.562
11623TIP3    H134812   8.145   4.688   6.514
11623TIP3    H234813   8.140   4.537   6.527
11624TIP3   OH234814   3.895   6.350   6.463
11624TIP3    H134815   3.970   6.292   6.477
11624TIP3    H234816   3.927   6.414   6.399
11625TIP3   OH234817   5.349   4.208   0.651
11625TIP3    H134818   5.402   4.220   0.730
11625TIP3    H234819   5.364   4.288   0.600
11626TIP3   OH234820   1.033   3.525   6.754
11626TIP3    H134821   1.086   3.567   6.687
11626TIP3    H234822   1.024   3.434   6.724
11627TIP3   OH234823   8.281   2.758   1.493
11627TIP3    H134824   8.277   2.834   1.434
11627TIP3    H234825   8.224   2.782   1.566
11628TIP3   OH234826   1.765   4.284   0.422
11628TIP3    H134827   1.708   4.357   0.397
11628TIP3    H234828   1.825   4.323   0.487
11629TIP3   OH234829   7.453   5.121   3.449
11629TIP3    H134830   7.517   5.069   3.498
11629TIP3    H234831   7.475   5.212   3.471
11630TIP3   OH234832   4.351   2.532   3.331
11630TIP3    H134833   4.425   2.593   3.334
11630TIP3    H234834   4.333   2.520   3.238
11631TIP3   OH234835   7.867   1.853   5.985
11631TIP3    H134836   7.811   1.930   5.999
11631TIP3    H234837   7.947   1.872   6.034
11632TIP3   OH234838   6.141   4.345   6.557
11632TIP3    H134839   6.197   4.277   6.594
11632TIP3    H234840   6.108   4.307   6.475
11633TIP3   OH234841   1.163   6.601   3.220
11633TIP3    H134842   1.117   6.682   3.241
11633TIP3    H234843   1.244   6.629   3.178
11634TIP3   OH234844   4.391   6.617   3.840
11634TIP3    H134845   4.483   6.626   3.865
11634TIP3    H234846   4.344   6.622   3.923
11635TIP3   OH234847   6.609   1.891   0.735
11635TIP3    H134848   6.612   1.928   0.647
11635TIP3    H234849   6.578   1.962   0.791
11636TIP3   OH234850   1.185   3.780   4.525
11636TIP3    H134851   1.198   3.874   4.512
11636TIP3    H234852   1.095   3.765   4.496
11637TIP3   OH234853   1.808   3.098   1.571
11637TIP3    H134854   1.784   3.167   1.509
11637TIP3    H234855   1.742   3.104   1.640
11638TIP3   OH234856   1.577   7.790   4.066
11638TIP3    H134857   1.543   7.744   3.988
11638TIP3    H234858   1.672   7.790   4.054
11639TIP3   OH234859   1.426   7.171   4.378
11639TIP3    H134860   1.379   7.128   4.449
11639TIP3    H234861   1.511   7.194   4.416
11640TIP3   OH234862   1.427   5.849   1.762
11640TIP3    H134863   1.401   5.822   1.674
11640TIP3    H234864   1.426   5.944   1.760
11641TIP3   OH234865   1.597   5.885   6.069
11641TIP3    H134866   1.566   5.973   6.050
11641TIP3    H234867   1.684   5.881   6.030
11642TIP3   OH234868   4.744   5.706   5.551
11642TIP3    H134869   4.786   5.629   5.514
11642TIP3    H234870   4.651   5.695   5.529
11643TIP3   OH234871   0.139   6.011   0.424
11643TIP3    H134872   0.064   6.061   0.454
11643TIP3    H234873   0.108   5.920   0.422
11644TIP3   OH234874   6.505   3.514   5.033
11644TIP3    H134875   6.519   3.426   5.069
11644TIP3    H234876   6.478   3.499   4.942
11645TIP3   OH234877   0.144   1.973   4.006
11645TIP3    H134878   0.198   2.008   3.935
11645TIP3    H234879   0.123   2.050   4.060
11646TIP3   OH234880   1.825   6.641   3.963
11646TIP3    H134881   1.737   6.617   3.934
11646TIP3    H234882   1.877   6.562   3.948
11647TIP3   OH234883   0.178   3.994   0.849
11647TIP3    H134884   0.217   3.922   0.898
11647TIP3    H234885   0.108   3.954   0.798
11648TIP3   OH234886   4.090   0.739   0.320
11648TIP3    H134887   4.088   0.828   0.283
11648TIP3    H234888   4.139   0.749   0.402
11649TIP3   OH234889   7.909   3.691   4.980
11649TIP3    H134890   7.953   3.607   4.987
11649TIP3    H234891   7.891   3.701   4.886
11650TIP3   OH234892   5.889   5.292   2.174
11650TIP3    H134893   5.813   5.239   2.149
11650TIP3    H234894   5.868   5.380   2.141
11651TIP3   OH234895   7.099   2.952   3.801
11651TIP3    H134896   7.006   2.930   3.812
11651TIP3    H234897   7.099   3.042   3.768
11652TIP3   OH234898   1.079   6.113   3.699
11652TIP3    H134899   1.161   6.065   3.682
11652TIP3    H234900   1.067   6.106   3.793
11653TIP3   OH234901   1.876   7.806   4.053
11653TIP3    H134902   1.891   7.768   4.139
11653TIP3    H234903   1.922   7.748   3.993
11654TIP3   OH234904   4.808   7.797   4.348
11654TIP3    H134905   4.719   7.823   4.373
11654TIP3    H234906   4.800   7.770   4.256
11655TIP3   OH234907   1.148   6.641   0.354
11655TIP3    H134908   1.159   6.639   0.259
11655TIP3    H234909   1.054   6.653   0.367
11656TIP3   OH234910   6.755   4.566   2.991
11656TIP3    H134911   6.767   4.649   2.945
11656TIP3    H234912   6.758   4.589   3.084
11657TIP3   OH234913   6.216   1.593   0.103
11657TIP3    H134914   6.280   1.543   0.154
11657TIP3    H234915   6.210   1.547   0.020
11658TIP3   OH234916   5.314   6.860   2.621
11658TIP3    H134917   5.341   6.816   2.701
11658TIP3    H234918   5.322   6.794   2.553
11659TIP3   OH234919   4.281   7.506   6.134
11659TIP3    H134920   4.255   7.415   6.144
11659TIP3    H234921   4.354   7.518   6.194
11660TIP3   OH234922   3.609   3.816   5.590
11660TIP3    H134923   3.544   3.825   5.520
11660TIP3    H234924   3.565   3.765   5.658
11661TIP3   OH234925   6.250   6.653   1.191
11661TIP3    H134926   6.303   6.574   1.202
11661TIP3    H234927   6.245   6.666   1.096
11662TIP3   OH234928   6.489   5.449   0.962
11662TIP3    H134929   6.496   5.544   0.974
11662TIP3    H234930   6.578   5.416   0.978
11663TIP3   OH234931   7.389   7.665   5.645
11663TIP3    H134932   7.451   7.647   5.575
11663TIP3    H234933   7.303   7.661   5.603
11664TIP3   OH234934   2.547   3.088   2.035
11664TIP3    H134935   2.479   3.086   1.968
11664TIP3    H234936   2.521   3.161   2.092
11665TIP3   OH234937   2.928   3.521   6.753
11665TIP3    H134938   2.890   3.485   6.673
11665TIP3    H234939   2.903   3.614   6.752
11666TIP3   OH234940   3.262   5.688   1.670
11666TIP3    H134941   3.281   5.767   1.620
11666TIP3    H234942   3.171   5.698   1.697
11667TIP3   OH234943   1.109   0.925   6.770
11667TIP3    H134944   1.047   0.997   6.754
11667TIP3    H234945   1.123   0.887   6.683
11668TIP3   OH234946   5.911   4.597   6.524
11668TIP3    H134947   5.934   4.513   6.485
11668TIP3    H234948   5.817   4.592   6.538
11669TIP3   OH234949   0.911   4.799   0.820
11669TIP3    H134950   0.987   4.824   0.767
11669TIP3    H234951   0.936   4.822   0.910
11670TIP3   OH234952   0.514   6.275   1.791
11670TIP3    H134953   0.589   6.222   1.816
11670TIP3    H234954   0.547   6.365   1.792
11671TIP3   OH234955   5.074   1.743   4.991
11671TIP3    H134956   5.026   1.660   4.987
11671TIP3    H234957   5.156   1.725   4.945
11672TIP3   OH234958   0.105   6.949   3.596
11672TIP3    H134959   0.168   6.903   3.651
11672TIP3    H234960   0.026   6.895   3.601
11673TIP3   OH234961   2.794   3.419   1.187
11673TIP3    H134962   2.805   3.502   1.233
11673TIP3    H234963   2.880   3.377   1.192
11674TIP3   OH234964   0.114   2.039   3.702
11674TIP3    H134965   0.140   2.085   3.782
11674TIP3    H234966   0.021   2.061   3.692
11675TIP3   OH234967   1.697   1.514   0.780
11675TIP3    H134968   1.731   1.499   0.868
11675TIP3    H234969   1.648   1.596   0.787
11676TIP3   OH234970   2.686   3.095   1.425
11676TIP3    H134971   2.764   3.061   1.468
11676TIP3    H234972   2.654   3.164   1.484
11677TIP3   OH234973   4.946   4.085   6.103
11677TIP3    H134974   4.927   4.113   6.192
11677TIP3    H234975   5.041   4.090   6.096
11678TIP3   OH234976   7.488   1.948   5.911
11678TIP3    H134977   7.576   1.980   5.894
11678TIP3    H234978   7.474   1.963   6.005
11679TIP3   OH234979   1.139   3.310   3.104
11679TIP3    H134980   1.152   3.352   3.019
11679TIP3    H234981   1.099   3.226   3.083
11680TIP3   OH234982   3.105   5.451   5.219
11680TIP3    H134983   3.053   5.530   5.205
11680TIP3    H234984   3.183   5.481   5.265
11681TIP3   OH234985   3.769   2.394   5.923
11681TIP3    H134986   3.775   2.356   5.835
11681TIP3    H234987   3.860   2.400   5.951
11682TIP3   OH234988   6.623   4.630   4.133
11682TIP3    H134989   6.700   4.627   4.076
11682TIP3    H234990   6.554   4.587   4.082
11683TIP3   OH234991   3.108   4.782   2.043
11683TIP3    H134992   3.071   4.869   2.058
11683TIP3    H234993   3.045   4.739   1.984
11684TIP3   OH234994   5.060   1.168   4.088
11684TIP3    H134995   4.985   1.208   4.042
11684TIP3    H234996   5.128   1.162   4.021
11685TIP3   OH234997   1.639   5.314   6.456
11685TIP3    H134998   1.729   5.301   6.484
11685TIP3    H234999   1.633   5.269   6.372
11686TIP3   OH235000   4.311   4.473   2.914
11686TIP3    H135001   4.351   4.487   2.829
11686TIP3    H235002   4.287   4.380   2.914
11687TIP3   OH235003   7.428   0.825   3.804
11687TIP3    H135004   7.484   0.823   3.727
11687TIP3    H235005   7.341   0.846   3.771
11688TIP3   OH235006   5.469   3.342   1.805
11688TIP3    H135007   5.526   3.295   1.744
11688TIP3    H235008   5.520   3.344   1.887
11689TIP3   OH235009   6.136   2.118   5.781
11689TIP3    H135010   6.184   2.041   5.810
11689TIP3    H235011   6.157   2.126   5.688
11690TIP3   OH235012   0.637   6.447   3.752
11690TIP3    H135013   0.731   6.428   3.742
11690TIP3    H235014   0.620   6.517   3.689
11691TIP3   OH235015   2.323   0.484   2.141
11691TIP3    H135016   2.270   0.404   2.138
11691TIP3    H235017   2.308   0.526   2.056
11692TIP3   OH235018   1.577   7.716   5.190
11692TIP3    H135019   1.601   7.693   5.100
11692TIP3    H235020   1.488   7.749   5.183
11693TIP3   OH235021   1.605   6.181   6.364
11693TIP3    H135022   1.689   6.135   6.363
11693TIP3    H235023   1.570   6.170   6.276
11694TIP3   OH235024   0.737   1.579   6.323
11694TIP3    H135025   0.762   1.541   6.407
11694TIP3    H235026   0.747   1.673   6.336
11695TIP3   OH235027   6.067   1.046   5.638
11695TIP3    H135028   6.074   1.112   5.568
11695TIP3    H235029   6.132   1.075   5.703
11696TIP3   OH235030   2.616   1.349   5.611
11696TIP3    H135031   2.546   1.307   5.562
11696TIP3    H235032   2.662   1.403   5.547
11697TIP3   OH235033   0.757   4.874   6.053
11697TIP3    H135034   0.812   4.801   6.083
11697TIP3    H235035   0.795   4.900   5.969
11698TIP3   OH235036   3.647   4.869   1.926
11698TIP3    H135037   3.630   4.797   1.986
11698TIP3    H235038   3.564   4.917   1.923
11699TIP3   OH235039   2.504   5.659   0.802
11699TIP3    H135040   2.485   5.675   0.894
11699TIP3    H235041   2.434   5.704   0.754
11700TIP3   OH235042   0.739   4.112   5.212
11700TIP3    H135043   0.698   4.067   5.287
11700TIP3    H235044   0.833   4.111   5.232
11701TIP3   OH235045   6.080   6.113   3.028
11701TIP3    H135046   6.067   6.178   3.097
11701TIP3    H235047   6.071   6.163   2.946
11702TIP3   OH235048   7.052   7.291   2.116
11702TIP3    H135049   7.121   7.226   2.102
11702TIP3    H235050   7.003   7.258   2.192
11703TIP3   OH235051   0.297   4.887   3.783
11703TIP3    H135052   0.346   4.877   3.865
11703TIP3    H235053   0.215   4.840   3.798
11704TIP3   OH235054   3.098   7.125   1.873
11704TIP3    H135055   3.053   7.089   1.797
11704TIP3    H235056   3.169   7.178   1.837
11705TIP3   OH235057   6.097   5.358   3.761
11705TIP3    H135058   6.159   5.346   3.833
11705TIP3    H235059   6.111   5.282   3.704
11706TIP3   OH235060   7.076   5.609   0.259
11706TIP3    H135061   7.126   5.542   0.212
11706TIP3    H235062   7.008   5.636   0.197
11707TIP3   OH235063   3.758   0.395   5.100
11707TIP3    H135064   3.667   0.374   5.121
11707TIP3    H235065   3.757   0.414   5.006
11708TIP3   OH235066   0.075   0.892   2.194
11708TIP3    H135067   0.063   0.965   2.133
11708TIP3    H235068   0.088   0.934   2.279
11709TIP3   OH235069   6.459   7.084   4.876
11709TIP3    H135070   6.419   7.027   4.810
11709TIP3    H235071   6.444   7.039   4.959
11710TIP3   OH235072   6.113   7.071   5.518
11710TIP3    H135073   6.199   7.084   5.479
11710TIP3    H235074   6.114   6.980   5.549
11711TIP3   OH235075   1.603   1.332   3.740
11711TIP3    H135076   1.632   1.247   3.707
11711TIP3    H235077   1.671   1.393   3.715
11712TIP3   OH235078   7.075   6.083   1.729
11712TIP3    H135079   7.123   6.014   1.775
11712TIP3    H235080   7.010   6.114   1.793
11713TIP3   OH235081   7.852   6.168   4.719
11713TIP3    H135082   7.829   6.088   4.766
11713TIP3    H235083   7.807   6.238   4.766
11714TIP3   OH235084   5.142   3.802   4.216
11714TIP3    H135085   5.088   3.743   4.162
11714TIP3    H235086   5.168   3.872   4.156
11715TIP3   OH235087   2.904   5.683   2.624
11715TIP3    H135088   2.878   5.764   2.668
11715TIP3    H235089   2.948   5.632   2.693
11716TIP3   OH235090   4.718   6.617   0.402
11716TIP3    H135091   4.796   6.561   0.395
11716TIP3    H235092   4.738   6.675   0.477
11717TIP3   OH235093   2.488   7.455   1.847
11717TIP3    H135094   2.552   7.459   1.919
11717TIP3    H235095   2.505   7.371   1.805
11718TIP3   OH235096   3.466   2.850   6.428
11718TIP3    H135097   3.536   2.867   6.491
11718TIP3    H235098   3.414   2.931   6.429
11719TIP3   OH235099   0.877   4.404   3.834
11719TIP3    H135100   0.923   4.488   3.834
11719TIP3    H235101   0.844   4.394   3.745
11720TIP3   OH235102   3.907   4.174   6.471
11720TIP3    H135103   3.863   4.153   6.554
11720TIP3    H235104   3.967   4.245   6.494
11721TIP3   OH235105   2.066   6.231   4.177
11721TIP3    H135106   2.042   6.227   4.270
11721TIP3    H235107   2.092   6.141   4.156
11722TIP3   OH235108   3.467   1.941   0.468
11722TIP3    H135109   3.487   2.033   0.484
11722TIP3    H235110   3.494   1.897   0.549
11723TIP3   OH235111   2.895   0.330   0.111
11723TIP3    H135112   2.972   0.372   0.148
11723TIP3    H235113   2.918   0.237   0.104
11724TIP3   OH235114   4.074   3.027   6.552
11724TIP3    H135115   4.116   3.081   6.620
11724TIP3    H235116   4.029   2.958   6.601
11725TIP3   OH235117   2.171   5.740   0.495
11725TIP3    H135118   2.178   5.779   0.408
11725TIP3    H235119   2.122   5.659   0.482
11726TIP3   OH235120   0.921   5.110   6.764
11726TIP3    H135121   0.880   5.069   6.687
11726TIP3    H235122   1.013   5.121   6.739
11727TIP3   OH235123   4.812   2.268   4.086
11727TIP3    H135124   4.780   2.341   4.034
11727TIP3    H235125   4.868   2.218   4.027
11728TIP3   OH235126   6.350   6.471   3.987
11728TIP3    H135127   6.364   6.407   3.918
11728TIP3    H235128   6.309   6.421   4.058
11729TIP3   OH235129   8.221   4.826   4.297
11729TIP3    H135130   8.229   4.748   4.352
11729TIP3    H235131   8.193   4.792   4.212
11730TIP3   OH235132   0.230   5.847   4.675
11730TIP3    H135133   0.223   5.922   4.617
11730TIP3    H235134   0.139   5.827   4.698
11731TIP3   OH235135   1.084   5.842   4.394
11731TIP3    H135136   1.178   5.857   4.410
11731TIP3    H235137   1.079   5.820   4.301
11732TIP3   OH235138   5.362   7.743   2.019
11732TIP3    H135139   5.441   7.786   1.987
11732TIP3    H235140   5.356   7.770   2.111
11733TIP3   OH235141   6.667   6.064   1.349
11733TIP3    H135142   6.585   6.060   1.299
11733TIP3    H235143   6.725   6.118   1.295
11734TIP3   OH235144   7.737   2.768   4.246
11734TIP3    H135145   7.777   2.849   4.278
11734TIP3    H235146   7.652   2.764   4.290
11735TIP3   OH235147   4.108   4.687   2.337
11735TIP3    H135148   4.076   4.773   2.364
11735TIP3    H235149   4.203   4.698   2.330
11736TIP3   OH235150   7.033   4.426   0.018
11736TIP3    H135151   7.015   4.370   0.094
11736TIP3    H235152   7.054   4.511   0.055
11737TIP3   OH235153   0.191   3.496   0.785
11737TIP3    H135154   0.147   3.553   0.722
11737TIP3    H235155   0.163   3.408   0.760
11738TIP3   OH235156   5.966   3.285   1.988
11738TIP3    H135157   5.986   3.240   2.070
11738TIP3    H235158   5.957   3.378   2.012
11739TIP3   OH235159   1.714   2.182   2.545
11739TIP3    H135160   1.801   2.189   2.504
11739TIP3    H235161   1.675   2.105   2.503
11740TIP3   OH235162   0.114   4.142   2.773
11740TIP3    H135163   0.149   4.143   2.684
11740TIP3    H235164   0.056   4.219   2.777
11741TIP3   OH235165   7.315   5.133   3.942
11741TIP3    H135166   7.333   5.106   3.852
11741TIP3    H235167   7.236   5.186   3.936
11742TIP3   OH235168   4.465   4.254   2.130
11742TIP3    H135169   4.468   4.305   2.211
11742TIP3    H235170   4.523   4.300   2.070
11743TIP3   OH235171   5.062   5.100   3.222
11743TIP3    H135172   5.079   5.148   3.141
11743TIP3    H235173   5.078   5.008   3.200
11744TIP3   OH235174   3.338   2.614   2.517
11744TIP3    H135175   3.345   2.524   2.485
11744TIP3    H235176   3.387   2.665   2.454
11745TIP3   OH235177   6.396   4.995   1.513
11745TIP3    H135178   6.484   5.001   1.475
11745TIP3    H235179   6.409   4.952   1.597
11746TIP3   OH235180   2.834   2.906   0.334
11746TIP3    H135181   2.865   2.987   0.374
11746TIP3    H235182   2.905   2.880   0.275
11747TIP3   OH235183   1.842   5.152   5.065
11747TIP3    H135184   1.768   5.144   5.005
11747TIP3    H235185   1.906   5.089   5.032
11748TIP3   OH235186   1.412   1.320   1.545
11748TIP3    H135187   1.338   1.264   1.566
11748TIP3    H235188   1.394   1.403   1.590
11749TIP3   OH235189   8.021   0.090   3.661
11749TIP3    H135190   8.022   0.122   3.571
11749TIP3    H235191   7.959   0.148   3.707
11750TIP3   OH235192   2.179   7.733   6.131
11750TIP3    H135193   2.150   7.743   6.222
11750TIP3    H235194   2.103   7.759   6.079
11751TIP3   OH235195   4.939   6.971   4.189
11751TIP3    H135196   4.982   6.929   4.263
11751TIP3    H235197   4.993   6.947   4.113
11752TIP3   OH235198   4.323   6.747   0.187
11752TIP3    H135199   4.304   6.823   0.132
11752TIP3    H235200   4.365   6.684   0.128
11753TIP3   OH235201   0.308   7.357   5.979
11753TIP3    H135202   0.310   7.328   5.888
11753TIP3    H235203   0.224   7.326   6.013
11754TIP3   OH235204   5.135   2.562   1.341
11754TIP3    H135205   5.045   2.534   1.355
11754TIP3    H235206   5.150   2.631   1.406
11755TIP3   OH235207   4.526   7.190   6.074
11755TIP3    H135208   4.433   7.189   6.097
11755TIP3    H235209   4.571   7.172   6.157
11756TIP3   OH235210   2.441   2.727   5.841
11756TIP3    H135211   2.443   2.746   5.935
11756TIP3    H235212   2.524   2.761   5.808
11757TIP3   OH235213   6.541   5.721   1.868
11757TIP3    H135214   6.477   5.708   1.937
11757TIP3    H235215   6.559   5.633   1.834
11758TIP3   OH235216   6.798   4.816   2.012
11758TIP3    H135217   6.790   4.725   1.983
11758TIP3    H235218   6.792   4.812   2.107
11759TIP3   OH235219   3.665   0.801   2.149
11759TIP3    H135220   3.693   0.892   2.152
11759TIP3    H235221   3.575   0.802   2.183
11760TIP3   OH235222   7.468   3.312   0.999
11760TIP3    H135223   7.431   3.235   0.956
11760TIP3    H235224   7.414   3.385   0.968
11761TIP3   OH235225   2.228   6.395   1.115
11761TIP3    H135226   2.250   6.303   1.106
11761TIP3    H235227   2.279   6.439   1.048
11762TIP3   OH235228   0.238   2.582   0.285
11762TIP3    H135229   0.327   2.597   0.319
11762TIP3    H235230   0.203   2.512   0.340
11763TIP3   OH235231   7.936   6.221   5.310
11763TIP3    H135232   7.880   6.145   5.328
11763TIP3    H235233   8.002   6.219   5.379
11764TIP3   OH235234   7.218   0.918   1.032
11764TIP3    H135235   7.246   0.833   0.997
11764TIP3    H235236   7.268   0.982   0.980
11765TIP3   OH235237   5.886   5.251   1.678
11765TIP3    H135238   5.922   5.317   1.619
11765TIP3    H235239   5.855   5.181   1.620
11766TIP3   OH235240   6.843   5.297   1.716
11766TIP3    H135241   6.871   5.276   1.806
11766TIP3    H235242   6.875   5.386   1.701
11767TIP3   OH235243   7.381   6.155   2.440
11767TIP3    H135244   7.399   6.177   2.348
11767TIP3    H235245   7.440   6.082   2.458
11768TIP3   OH235246   3.887   3.233   6.815
11768TIP3    H135247   3.958   3.183   6.775
11768TIP3    H235248   3.834   3.263   6.741
11769TIP3   OH235249   1.662   2.647   1.065
11769TIP3    H135250   1.629   2.604   0.987
11769TIP3    H235251   1.686   2.575   1.124
11770TIP3   OH235252   4.160   3.030   3.933
11770TIP3    H135253   4.217   2.984   3.872
11770TIP3    H235254   4.078   3.042   3.885
11771TIP3   OH235255   3.302   5.751   4.810
11771TIP3    H135256   3.222   5.761   4.862
11771TIP3    H235257   3.313   5.656   4.802
11772TIP3   OH235258   4.660   6.203   4.196
11772TIP3    H135259   4.590   6.174   4.137
11772TIP3    H235260   4.689   6.122   4.239
11773TIP3   OH235261   7.062   3.851   5.148
11773TIP3    H135262   6.968   3.868   5.153
11773TIP3    H235263   7.070   3.776   5.090
11774TIP3   OH235264   2.348   4.227   4.101
11774TIP3    H135265   2.340   4.178   4.182
11774TIP3    H235266   2.287   4.185   4.041
11775TIP3   OH235267   0.901   6.376   3.663
11775TIP3    H135268   0.970   6.398   3.601
11775TIP3    H235269   0.918   6.284   3.685
11776TIP3   OH235270   0.621   0.916   1.301
11776TIP3    H135271   0.695   0.974   1.282
11776TIP3    H235272   0.551   0.975   1.329
11777TIP3   OH235273   4.384   2.945   0.910
11777TIP3    H135274   4.394   2.858   0.949
11777TIP3    H235275   4.329   2.993   0.972
11778TIP3   OH235276   6.238   2.146   5.528
11778TIP3    H135277   6.206   2.140   5.438
11778TIP3    H235278   6.320   2.096   5.527
11779TIP3   OH235279   3.672   2.176   6.161
11779TIP3    H135280   3.634   2.191   6.248
11779TIP3    H235281   3.765   2.197   6.171
11780TIP3   OH235282   4.295   2.544   4.314
11780TIP3    H135283   4.218   2.487   4.316
11780TIP3    H235284   4.260   2.629   4.284
11781TIP3   OH235285   5.870   6.996   1.276
11781TIP3    H135286   5.965   7.008   1.274
11781TIP3    H235287   5.847   6.996   1.369
11782TIP3   OH235288   6.210   3.620   4.975
11782TIP3    H135289   6.253   3.695   5.016
11782TIP3    H235290   6.201   3.556   5.047
11783TIP3   OH235291   1.265   4.891   3.535
11783TIP3    H135292   1.299   4.969   3.580
11783TIP3    H235293   1.233   4.923   3.451
11784TIP3   OH235294   4.439   7.423   5.854
11784TIP3    H135295   4.353   7.451   5.823
11784TIP3    H235296   4.432   7.328   5.863
11785TIP3   OH235297   6.854   4.559   5.566
11785TIP3    H135298   6.895   4.476   5.545
11785TIP3    H235299   6.823   4.549   5.656
11786TIP3   OH235300   1.712   1.851   6.199
11786TIP3    H135301   1.793   1.877   6.155
11786TIP3    H235302   1.645   1.909   6.163
11787TIP3   OH235303   0.968   2.062   3.798
11787TIP3    H135304   1.030   2.112   3.745
11787TIP3    H235305   0.897   2.123   3.817
11788TIP3   OH235306   3.606   7.763   3.726
11788TIP3    H135307   3.649   7.824   3.786
11788TIP3    H235308   3.674   7.701   3.701
11789TIP3   OH235309   4.450   6.049   2.450
11789TIP3    H135310   4.392   6.046   2.526
11789TIP3    H235311   4.392   6.044   2.374
11790TIP3   OH235312   1.317   7.490   0.545
11790TIP3    H135313   1.259   7.474   0.619
11790TIP3    H235314   1.391   7.432   0.559
11791TIP3   OH235315   3.160   5.326   1.544
11791TIP3    H135316   3.196   5.368   1.622
11791TIP3    H235317   3.160   5.233   1.565
11792TIP3   OH235318   7.012   0.626   0.444
11792TIP3    H135319   7.032   0.720   0.449
11792TIP3    H235320   7.026   0.603   0.352
11793TIP3   OH235321   7.972   5.254   6.483
11793TIP3    H135322   7.971   5.264   6.578
11793TIP3    H235323   8.059   5.220   6.463
11794TIP3   OH235324   5.815   4.334   6.389
11794TIP3    H135325   5.728   4.356   6.424
11794TIP3    H235326   5.833   4.246   6.424
11795TIP3   OH235327   5.587   5.452   1.092
11795TIP3    H135328   5.647   5.506   1.144
11795TIP3    H235329   5.539   5.400   1.157
11796TIP3   OH235330   0.875   3.956   6.286
11796TIP3    H135331   0.936   3.981   6.356
11796TIP3    H235332   0.915   3.879   6.246
11797TIP3   OH235333   4.052   2.342   5.951
11797TIP3    H135334   4.131   2.364   6.001
11797TIP3    H235335   4.084   2.285   5.881
11798TIP3   OH235336   8.114   0.987   0.283
11798TIP3    H135337   8.083   0.998   0.193
11798TIP3    H235338   8.182   1.054   0.293
11799TIP3   OH235339   1.241   2.216   2.560
11799TIP3    H135340   1.316   2.254   2.515
11799TIP3    H235341   1.277   2.141   2.608
11800TIP3   OH235342   4.207   2.179   5.201
11800TIP3    H135343   4.208   2.270   5.171
11800TIP3    H235344   4.299   2.155   5.205
11801TIP3   OH235345   2.000   7.751   1.336
11801TIP3    H135346   1.909   7.750   1.368
11801TIP3    H235347   2.053   7.748   1.416
11802TIP3   OH235348   2.958   7.368   5.323
11802TIP3    H135349   2.900   7.377   5.399
11802TIP3    H235350   3.002   7.284   5.337
11803TIP3   OH235351   2.967   5.249   2.451
11803TIP3    H135352   2.900   5.221   2.514
11803TIP3    H235353   3.039   5.281   2.505
11804TIP3   OH235354   1.180   1.444   4.910
11804TIP3    H135355   1.261   1.432   4.860
11804TIP3    H235356   1.145   1.528   4.880
11805TIP3   OH235357   6.690   1.473   4.832
11805TIP3    H135358   6.656   1.562   4.826
11805TIP3    H235359   6.681   1.450   4.925
11806TIP3   OH235360   5.167   0.586   6.038
11806TIP3    H135361   5.213   0.508   6.070
11806TIP3    H235362   5.120   0.556   5.960
11807TIP3   OH235363   1.613   5.107   2.863
11807TIP3    H135364   1.663   5.188   2.870
11807TIP3    H235365   1.641   5.054   2.938
11808TIP3   OH235366   7.262   2.464   6.096
11808TIP3    H135367   7.199   2.508   6.153
11808TIP3    H235368   7.347   2.481   6.137
11809TIP3   OH235369   5.570   0.465   1.418
11809TIP3    H135370   5.515   0.401   1.463
11809TIP3    H235371   5.609   0.417   1.345
11810TIP3   OH235372   7.298   3.472   6.340
11810TIP3    H135373   7.285   3.532   6.266
11810TIP3    H235374   7.212   3.433   6.354
11811TIP3   OH235375   3.981   1.095   6.549
11811TIP3    H135376   3.983   1.047   6.466
11811TIP3    H235377   4.072   1.118   6.567
11812TIP3   OH235378   8.302   4.573   4.391
11812TIP3    H135379   8.226   4.515   4.381
11812TIP3    H235380   8.365   4.523   4.443
11813TIP3   OH235381   1.129   4.966   5.048
11813TIP3    H135382   1.056   5.012   5.088
11813TIP3    H235383   1.140   4.887   5.101
11814TIP3   OH235384   1.912   7.277   4.414
11814TIP3    H135385   1.895   7.219   4.341
11814TIP3    H235386   1.983   7.236   4.462
11815TIP3   OH235387   6.723   4.123   4.871
11815TIP3    H135388   6.762   4.137   4.785
11815TIP3    H235389   6.696   4.031   4.870
11816TIP3   OH235390   0.899   2.774   2.481
11816TIP3    H135391   0.881   2.731   2.398
11816TIP3    H235392   0.872   2.865   2.468
11817TIP3   OH235393   3.767   0.617   1.300
11817TIP3    H135394   3.784   0.546   1.363
11817TIP3    H235395   3.854   0.648   1.275
11818TIP3   OH235396   5.128   7.151   5.914
11818TIP3    H135397   5.217   7.140   5.947
11818TIP3    H235398   5.133   7.126   5.822
11819TIP3   OH235399   0.343   2.864   2.212
11819TIP3    H135400   0.253   2.833   2.211
11819TIP3    H235401   0.339   2.952   2.175
11820TIP3   OH235402   3.789   2.566   0.191
11820TIP3    H135403   3.846   2.493   0.165
11820TIP3    H235404   3.839   2.612   0.259
11821TIP3   OH235405   2.242   5.453   3.117
11821TIP3    H135406   2.244   5.421   3.207
11821TIP3    H235407   2.201   5.539   3.122
11822TIP3   OH235408   3.357   6.203   1.666
11822TIP3    H135409   3.402   6.219   1.749
11822TIP3    H235410   3.414   6.241   1.600
11823TIP3   OH235411   0.476   1.490   0.122
11823TIP3    H135412   0.471   1.396   0.141
11823TIP3    H235413   0.432   1.532   0.195
11824TIP3   OH235414   3.324   2.071   2.389
11824TIP3    H135415   3.411   2.089   2.425
11824TIP3    H235416   3.273   2.042   2.465
11825TIP3   OH235417   5.102   4.564   4.554
11825TIP3    H135418   5.040   4.527   4.492
11825TIP3    H235419   5.160   4.619   4.501
11826TIP3   OH235420   5.458   6.857   0.448
11826TIP3    H135421   5.468   6.785   0.510
11826TIP3    H235422   5.415   6.817   0.372
11827TIP3   OH235423   5.646   3.890   6.171
11827TIP3    H135424   5.602   3.806   6.170
11827TIP3    H235425   5.616   3.933   6.250
11828TIP3   OH235426   5.761   1.859   5.763
11828TIP3    H135427   5.766   1.785   5.702
11828TIP3    H235428   5.743   1.935   5.707
11829TIP3   OH235429   1.295   2.401   0.712
11829TIP3    H135430   1.246   2.345   0.771
11829TIP3    H235431   1.321   2.343   0.640
11830TIP3   OH235432   1.467   2.264   3.430
11830TIP3    H135433   1.377   2.237   3.411
11830TIP3    H235434   1.497   2.202   3.497
11831TIP3   OH235435   0.207   2.593   0.703
11831TIP3    H135436   0.235   2.671   0.752
11831TIP3    H235437   0.284   2.536   0.704
11832TIP3   OH235438   5.498   3.305   4.811
11832TIP3    H135439   5.554   3.340   4.880
11832TIP3    H235440   5.413   3.346   4.828
11833TIP3   OH235441   6.794   7.599   1.569
11833TIP3    H135442   6.739   7.534   1.525
11833TIP3    H235443   6.875   7.600   1.518
11834TIP3   OH235444   5.746   5.458   3.619
11834TIP3    H135445   5.766   5.364   3.620
11834TIP3    H235446   5.815   5.497   3.566
11835TIP3   OH235447   0.903   1.570   0.744
11835TIP3    H135448   0.933   1.486   0.708
11835TIP3    H235449   0.955   1.636   0.698
11836TIP3   OH235450   4.099   1.360   2.096
11836TIP3    H135451   4.165   1.406   2.045
11836TIP3    H235452   4.048   1.428   2.140
11837TIP3   OH235453   8.151   1.733   6.208
11837TIP3    H135454   8.164   1.757   6.300
11837TIP3    H235455   8.135   1.817   6.164
11838TIP3   OH235456   7.547   6.064   1.154
11838TIP3    H135457   7.480   6.125   1.125
11838TIP3    H235458   7.506   5.978   1.148
11839TIP3   OH235459   2.108   4.530   0.451
11839TIP3    H135460   2.037   4.528   0.387
11839TIP3    H235461   2.075   4.586   0.521
11840TIP3   OH235462   4.901   1.201   5.226
11840TIP3    H135463   4.903   1.297   5.218
11840TIP3    H235464   4.937   1.170   5.143
11841TIP3   OH235465   1.302   0.011   2.750
11841TIP3    H135466   1.218   0.048   2.722
11841TIP3    H235467   1.347   0.085   2.791
11842TIP3   OH235468   4.221   6.867   3.997
11842TIP3    H135469   4.127   6.859   4.012
11842TIP3    H235470   4.258   6.786   4.032
11843TIP3   OH235471   2.522   7.838   3.863
11843TIP3    H135472   2.450   7.782   3.836
11843TIP3    H235473   2.579   7.782   3.915
11844TIP3   OH235474   4.924   5.352   3.285
11844TIP3    H135475   4.992   5.420   3.279
11844TIP3    H235476   4.972   5.270   3.284
11845TIP3   OH235477   4.064   5.171   2.836
11845TIP3    H135478   4.030   5.259   2.851
11845TIP3    H235479   4.124   5.180   2.763
11846TIP3   OH235480   3.580   2.202   2.430
11846TIP3    H135481   3.621   2.227   2.347
11846TIP3    H235482   3.653   2.187   2.490
11847TIP3   OH235483   4.827   4.614   5.788
11847TIP3    H135484   4.827   4.683   5.722
11847TIP3    H235485   4.746   4.628   5.838
11848TIP3   OH235486   4.676   4.375   1.660
11848TIP3    H135487   4.583   4.365   1.639
11848TIP3    H235488   4.717   4.297   1.621
11849TIP3   OH235489   2.501   0.067   0.142
11849TIP3    H135490   2.534   0.141   0.193
11849TIP3    H235491   2.573   0.046   0.082
11850TIP3   OH235492   6.894   1.029   5.954
11850TIP3    H135493   6.926   0.946   5.918
11850TIP3    H235494   6.971   1.072   5.990
11851TIP3   OH235495   3.086   2.234   6.229
11851TIP3    H135496   3.117   2.157   6.276
11851TIP3    H235497   3.134   2.307   6.269
11852TIP3   OH235498   6.954   3.335   3.886
11852TIP3    H135499   6.918   3.333   3.974
11852TIP3    H235500   7.008   3.255   3.880
11853TIP3   OH235501   0.363   4.912   5.210
11853TIP3    H135502   0.317   4.928   5.128
11853TIP3    H235503   0.362   4.817   5.221
11854TIP3   OH235504   3.315   0.878   2.009
11854TIP3    H135505   3.254   0.829   1.953
11854TIP3    H235506   3.355   0.812   2.065
11855TIP3   OH235507   5.770   6.575   3.514
11855TIP3    H135508   5.712   6.502   3.495
11855TIP3    H235509   5.807   6.600   3.430
11856TIP3   OH235510   5.012   4.541   2.389
11856TIP3    H135511   5.037   4.462   2.341
11856TIP3    H235512   5.066   4.610   2.351
11857TIP3   OH235513   7.075   1.125   6.136
11857TIP3    H135514   7.146   1.080   6.181
11857TIP3    H235515   7.022   1.162   6.207
11858TIP3   OH235516  -0.001   7.802   6.579
11858TIP3    H135517  -0.077   7.846   6.541
11858TIP3    H235518   0.064   7.800   6.509
11859TIP3   OH235519   3.502   5.442   4.090
11859TIP3    H135520   3.472   5.496   4.163
11859TIP3    H235521   3.437   5.371   4.084
11860TIP3   OH235522   3.017   1.506   6.490
11860TIP3    H135523   3.055   1.570   6.550
11860TIP3    H235524   3.067   1.426   6.504
11861TIP3   OH235525   0.424   0.974   6.426
11861TIP3    H135526   0.376   1.050   6.393
11861TIP3    H235527   0.446   0.997   6.516
11862TIP3   OH235528   1.367   1.935   2.129
11862TIP3    H135529   1.379   2.024   2.160
11862TIP3    H235530   1.414   1.932   2.045
11863TIP3   OH235531   2.888   0.949   1.441
11863TIP3    H135532   2.961   0.910   1.393
11863TIP3    H235533   2.895   1.043   1.425
11864TIP3   OH235534   2.963   0.793   5.960
11864TIP3    H135535   2.946   0.887   5.974
11864TIP3    H235536   3.055   0.789   5.937
11865TIP3   OH235537   6.910   3.662   3.577
11865TIP3    H135538   6.956   3.738   3.542
11865TIP3    H235539   6.817   3.688   3.575
11866TIP3   OH235540   5.169   7.756   5.194
11866TIP3    H135541   5.203   7.776   5.107
11866TIP3    H235542   5.235   7.790   5.254
11867TIP3   OH235543   5.641   1.706   2.507
11867TIP3    H135544   5.582   1.665   2.570
11867TIP3    H235545   5.648   1.644   2.435
11868TIP3   OH235546   0.061   1.716   2.060
11868TIP3    H135547   0.050   1.625   2.031
11868TIP3    H235548   0.114   1.756   1.991
11869TIP3   OH235549   1.476   7.464   2.034
11869TIP3    H135550   1.453   7.400   2.101
11869TIP3    H235551   1.490   7.412   1.955
11870TIP3   OH235552   8.070   3.480   2.173
11870TIP3    H135553   8.081   3.561   2.124
11870TIP3    H235554   8.108   3.413   2.116
11871TIP3   OH235555   6.262   6.658   1.801
11871TIP3    H135556   6.201   6.728   1.826
11871TIP3    H235557   6.242   6.640   1.709
11872TIP3   OH235558   7.044   5.055   6.706
11872TIP3    H135559   7.050   5.078   6.614
11872TIP3    H235560   7.084   5.129   6.752
11873TIP3   OH235561   1.548   7.681   2.646
11873TIP3    H135562   1.472   7.625   2.627
11873TIP3    H235563   1.620   7.641   2.596
11874TIP3   OH235564   4.867   4.667   6.553
11874TIP3    H135565   4.937   4.631   6.499
11874TIP3    H235566   4.787   4.627   6.518
11875TIP3   OH235567   1.882   1.936   4.077
11875TIP3    H135568   1.832   1.978   4.146
11875TIP3    H235569   1.815   1.897   4.020
11876TIP3   OH235570   4.477   3.184   0.356
11876TIP3    H135571   4.438   3.225   0.279
11876TIP3    H235572   4.472   3.090   0.339
11877TIP3   OH235573   4.802   5.616   2.581
11877TIP3    H135574   4.783   5.696   2.628
11877TIP3    H235575   4.882   5.635   2.532
11878TIP3   OH235576   6.592   5.998   3.325
11878TIP3    H135577   6.670   6.042   3.358
11878TIP3    H235578   6.530   6.000   3.398
11879TIP3   OH235579   5.545   3.771   2.189
11879TIP3    H135580   5.554   3.710   2.262
11879TIP3    H235581   5.534   3.856   2.230
11880TIP3   OH235582   3.051   6.210   2.068
11880TIP3    H135583   3.013   6.254   2.144
11880TIP3    H235584   3.142   6.239   2.066
11881TIP3   OH235585   8.246   1.690   1.352
11881TIP3    H135586   8.193   1.651   1.421
11881TIP3    H235587   8.184   1.710   1.282
11882TIP3   OH235588   2.610   2.794   6.619
11882TIP3    H135589   2.608   2.801   6.524
11882TIP3    H235590   2.697   2.759   6.639
11883TIP3   OH235591   4.182   5.569   0.116
11883TIP3    H135592   4.225   5.490   0.149
11883TIP3    H235593   4.213   5.639   0.173
11884TIP3   OH235594   7.085   1.705   5.770
11884TIP3    H135595   7.124   1.628   5.730
11884TIP3    H235596   7.110   1.699   5.862
11885TIP3   OH235597   3.586   6.819   3.254
11885TIP3    H135598   3.522   6.758   3.217
11885TIP3    H235599   3.668   6.769   3.258
11886TIP3   OH235600   0.358   2.049   4.643
11886TIP3    H135601   0.309   1.968   4.652
11886TIP3    H235602   0.295   2.113   4.610
11887TIP3   OH235603   2.012   4.073   0.111
11887TIP3    H135604   2.015   4.136   0.183
11887TIP3    H235605   2.091   4.020   0.122
11888TIP3   OH235606   4.719   1.077   3.066
11888TIP3    H135607   4.749   1.157   3.109
11888TIP3    H235608   4.623   1.080   3.075
11889TIP3   OH235609   6.437  -0.014   2.244
11889TIP3    H135610   6.369  -0.032   2.309
11889TIP3    H235611   6.390   0.021   2.169
11890TIP3   OH235612   4.814   2.896   1.634
11890TIP3    H135613   4.770   2.871   1.553
11890TIP3    H235614   4.750   2.949   1.681
11891TIP3   OH235615   4.029   6.233   0.619
11891TIP3    H135616   4.117   6.195   0.621
11891TIP3    H235617   4.032   6.297   0.548
11892TIP3   OH235618   8.297   0.106   1.694
11892TIP3    H135619   8.214   0.073   1.660
11892TIP3    H235620   8.323   0.173   1.631
11893TIP3   OH235621   2.386   4.273   5.728
11893TIP3    H135622   2.341   4.314   5.654
11893TIP3    H235623   2.321   4.216   5.768
11894TIP3   OH235624   0.869   5.862   4.578
11894TIP3    H135625   0.816   5.936   4.606
11894TIP3    H235626   0.954   5.900   4.556
11895TIP3   OH235627   1.035   2.259   4.470
11895TIP3    H135628   0.974   2.291   4.404
11895TIP3    H235629   0.980   2.225   4.540
11896TIP3   OH235630   5.052   0.723   1.096
11896TIP3    H135631   5.046   0.656   1.164
11896TIP3    H235632   4.983   0.700   1.033
11897TIP3   OH235633   1.574   4.412   4.732
11897TIP3    H135634   1.497   4.415   4.790
11897TIP3    H235635   1.560   4.334   4.678
11898TIP3   OH235636   4.777   3.612   1.520
11898TIP3    H135637   4.694   3.583   1.481
11898TIP3    H235638   4.787   3.557   1.597
11899TIP3   OH235639   7.674   3.480   1.282
11899TIP3    H135640   7.748   3.510   1.230
11899TIP3    H235641   7.597   3.504   1.231
11900TIP3   OH235642   7.685   0.715   0.034
11900TIP3    H135643   7.728   0.773  -0.029
11900TIP3    H235644   7.673   0.633  -0.013
11901TIP3   OH235645   2.992   2.171   3.587
11901TIP3    H135646   2.920   2.227   3.618
11901TIP3    H235647   3.066   2.230   3.578
11902TIP3   OH235648   5.642   1.773   4.986
11902TIP3    H135649   5.635   1.714   5.061
11902TIP3    H235650   5.665   1.858   5.024
11903TIP3   OH235651   4.795   7.653   3.229
11903TIP3    H135652   4.789   7.747   3.210
11903TIP3    H235653   4.846   7.648   3.310
11904TIP3   OH235654   1.124   0.204   6.808
11904TIP3    H135655   1.219   0.191   6.803
11904TIP3    H235656   1.092   0.180   6.722
11905TIP3   OH235657   0.368   5.055   0.752
11905TIP3    H135658   0.423   5.103   0.814
11905TIP3    H235659   0.279   5.083   0.772
11906TIP3   OH235660   7.208   2.738   6.683
11906TIP3    H135661   7.277   2.800   6.659
11906TIP3    H235662   7.127   2.790   6.682
11907TIP3   OH235663   7.403   3.422   4.242
11907TIP3    H135664   7.377   3.341   4.198
11907TIP3    H235665   7.355   3.421   4.324
11908TIP3   OH235666   6.136   6.078   2.450
11908TIP3    H135667   6.085   6.159   2.456
11908TIP3    H235668   6.201   6.087   2.520
11909TIP3   OH235669   1.986   6.458   2.249
11909TIP3    H135670   1.925   6.412   2.191
11909TIP3    H235671   2.057   6.487   2.192
11910TIP3   OH235672   3.370   1.829   3.816
11910TIP3    H135673   3.313   1.830   3.740
11910TIP3    H235674   3.323   1.777   3.881
11911TIP3   OH235675   1.881   6.927   4.006
11911TIP3    H135676   1.821   6.943   3.932
11911TIP3    H235677   1.902   6.834   4.001
11912TIP3   OH235678   3.724   1.680   4.505
11912TIP3    H135679   3.757   1.746   4.565
11912TIP3    H235680   3.756   1.707   4.419
11913TIP3   OH235681   5.630   3.190   0.915
11913TIP3    H135682   5.589   3.153   0.994
11913TIP3    H235683   5.572   3.162   0.843
11914TIP3   OH235684   0.747   4.050   4.443
11914TIP3    H135685   0.662   4.083   4.415
11914TIP3    H235686   0.793   4.029   4.362
11915TIP3   OH235687   5.118   5.645   1.332
11915TIP3    H135688   5.143   5.559   1.364
11915TIP3    H235689   5.048   5.674   1.390
11916TIP3   OH235690   0.367   1.583   4.297
11916TIP3    H135691   0.377   1.644   4.224
11916TIP3    H235692   0.382   1.636   4.375
11917TIP3   OH235693   2.153   6.635   5.545
11917TIP3    H135694   2.158   6.597   5.458
11917TIP3    H235695   2.100   6.715   5.534
11918TIP3   OH235696   2.428   1.538   5.909
11918TIP3    H135697   2.436   1.562   6.001
11918TIP3    H235698   2.514   1.504   5.885
11919TIP3   OH235699   4.479   6.494   5.160
11919TIP3    H135700   4.466   6.409   5.118
11919TIP3    H235701   4.421   6.493   5.235
11920TIP3   OH235702   1.594   0.674   3.464
11920TIP3    H135703   1.626   0.747   3.411
11920TIP3    H235704   1.674   0.631   3.494
11921TIP3   OH235705   0.572   4.466   0.913
11921TIP3    H135706   0.503   4.495   0.974
11921TIP3    H235707   0.526   4.451   0.831
11922TIP3   OH235708   4.670   4.787   1.590
11922TIP3    H135709   4.709   4.870   1.616
11922TIP3    H235710   4.630   4.805   1.505
11923TIP3   OH235711   4.349   7.278   3.524
11923TIP3    H135712   4.396   7.223   3.587
11923TIP3    H235713   4.374   7.367   3.546
11924TIP3   OH235714   7.230   2.164   1.118
11924TIP3    H135715   7.300   2.107   1.084
11924TIP3    H235716   7.195   2.117   1.193
11925TIP3   OH235717   3.009   2.092   4.710
11925TIP3    H135718   3.098   2.071   4.682
11925TIP3    H235719   2.953   2.035   4.657
11926TIP3   OH235720   7.900   7.496   5.648
11926TIP3    H135721   7.989   7.464   5.657
11926TIP3    H235722   7.846   7.418   5.641
11927TIP3   OH235723   0.569   2.664   5.123
11927TIP3    H135724   0.562   2.571   5.143
11927TIP3    H235725   0.594   2.667   5.031
11928TIP3   OH235726   1.822   2.025   4.928
11928TIP3    H135727   1.815   2.120   4.916
11928TIP3    H235728   1.779   2.008   5.011
11929TIP3   OH235729   3.034   7.110   2.261
11929TIP3    H135730   3.095   7.182   2.278
11929TIP3    H235731   2.998   7.089   2.347
11930TIP3   OH235732   3.965   6.936   1.485
11930TIP3    H135733   3.962   7.005   1.551
11930TIP3    H235734   3.994   6.980   1.405
11931TIP3   OH235735   6.818   1.032   6.285
11931TIP3    H135736   6.809   0.979   6.364
11931TIP3    H235737   6.892   1.091   6.303
11932TIP3   OH235738   4.267   4.200   4.850
11932TIP3    H135739   4.177   4.182   4.878
11932TIP3    H235740   4.260   4.218   4.756
11933TIP3   OH235741   0.805   6.387   5.230
11933TIP3    H135742   0.870   6.345   5.174
11933TIP3    H235743   0.734   6.413   5.171
11934TIP3   OH235744   3.765   3.768   2.600
11934TIP3    H135745   3.713   3.814   2.534
11934TIP3    H235746   3.744   3.675   2.586
11935TIP3   OH235747   6.191   4.051   4.468
11935TIP3    H135748   6.204   3.994   4.545
11935TIP3    H235749   6.253   4.017   4.403
11936TIP3   OH235750   2.342   5.099   0.985
11936TIP3    H135751   2.414   5.067   1.040
11936TIP3    H235752   2.311   5.021   0.939
11937TIP3   OH235753   1.972   1.066   4.161
11937TIP3    H135754   1.919   1.030   4.090
11937TIP3    H235755   2.039   1.000   4.177
11938TIP3   OH235756   8.082   0.998   4.657
11938TIP3    H135757   8.096   0.973   4.748
11938TIP3    H235758   7.987   1.013   4.650
11939TIP3   OH235759   6.098   7.026   4.904
11939TIP3    H135760   6.052   6.982   4.975
11939TIP3    H235761   6.169   6.966   4.880
11940TIP3   OH235762   1.327   7.186   3.209
11940TIP3    H135763   1.350   7.264   3.158
11940TIP3    H235764   1.306   7.220   3.296
11941TIP3   OH235765   6.832   0.777   4.186
11941TIP3    H135766   6.828   0.733   4.101
11941TIP3    H235767   6.924   0.770   4.211
11942TIP3   OH235768   6.172   1.294   0.119
11942TIP3    H135769   6.191   1.352   0.045
11942TIP3    H235770   6.230   1.323   0.189
11943TIP3   OH235771   0.012   0.839   4.236
11943TIP3    H135772  -0.040   0.789   4.299
11943TIP3    H235773   0.021   0.781   4.160
11944TIP3   OH235774   7.574   1.686   1.715
11944TIP3    H135775   7.645   1.680   1.780
11944TIP3    H235776   7.606   1.747   1.649
11945TIP3   OH235777   5.607   7.157   3.238
11945TIP3    H135778   5.518   7.186   3.217
11945TIP3    H235779   5.648   7.234   3.279
11946TIP3   OH235780   6.387   1.602   2.809
11946TIP3    H135781   6.347   1.686   2.830
11946TIP3    H235782   6.449   1.621   2.738
11947TIP3   OH235783   3.483   3.087   1.313
11947TIP3    H135784   3.540   3.142   1.259
11947TIP3    H235785   3.427   3.041   1.251
11948TIP3   OH235786   4.452   1.423   4.320
11948TIP3    H135787   4.514   1.438   4.391
11948TIP3    H235788   4.367   1.418   4.363
11949TIP3   OH235789   2.112   0.319   3.596
11949TIP3    H135790   2.182   0.317   3.661
11949TIP3    H235791   2.154   0.290   3.515
11950TIP3   OH235792   3.781   4.150   1.004
11950TIP3    H135793   3.779   4.063   0.965
11950TIP3    H235794   3.738   4.140   1.088
11951TIP3   OH235795   3.276   3.354   2.098
11951TIP3    H135796   3.349   3.318   2.148
11951TIP3    H235797   3.199   3.339   2.153
11952TIP3   OH235798   0.869   2.468   1.457
11952TIP3    H135799   0.900   2.433   1.540
11952TIP3    H235800   0.924   2.545   1.441
11953TIP3   OH235801   6.247   4.651   1.714
11953TIP3    H135802   6.310   4.704   1.763
11953TIP3    H235803   6.300   4.580   1.677
11954TIP3   OH235804   4.435   0.829   0.214
11954TIP3    H135805   4.464   0.764   0.277
11954TIP3    H235806   4.444   0.787   0.129
11955TIP3   OH235807   5.463   1.324   6.546
11955TIP3    H135808   5.400   1.323   6.475
11955TIP3    H235809   5.410   1.329   6.626
11956TIP3   OH235810   4.518   1.146   2.748
11956TIP3    H135811   4.529   1.135   2.842
11956TIP3    H235812   4.433   1.188   2.738
11957TIP3   OH235813   6.706   6.538   2.155
11957TIP3    H135814   6.743   6.574   2.236
11957TIP3    H235815   6.616   6.517   2.177
11958TIP3   OH235816   3.107   0.047   2.662
11958TIP3    H135817   3.055  -0.029   2.688
11958TIP3    H235818   3.099   0.108   2.736
11959TIP3   OH235819   7.534   5.268   6.196
11959TIP3    H135820   7.543   5.231   6.283
11959TIP3    H235821   7.600   5.223   6.143
11960TIP3   OH235822   7.789   1.998   4.988
11960TIP3    H135823   7.848   2.005   4.913
11960TIP3    H235824   7.740   1.917   4.973
11961TIP3   OH235825   3.677   6.834   4.025
11961TIP3    H135826   3.589   6.870   4.013
11961TIP3    H235827   3.690   6.832   4.120
11962TIP3   OH235828   2.182   3.092   5.467
11962TIP3    H135829   2.154   3.183   5.478
11962TIP3    H235830   2.138   3.045   5.538
11963TIP3   OH235831   2.627   0.492   4.956
11963TIP3    H135832   2.614   0.483   5.050
11963TIP3    H235833   2.627   0.586   4.940
11964TIP3   OH235834   1.308   7.697   0.159
11964TIP3    H135835   1.372   7.708   0.089
11964TIP3    H235836   1.361   7.688   0.239
11965TIP3   OH235837   2.863   5.877   5.278
11965TIP3    H135838   2.902   5.948   5.228
11965TIP3    H235839   2.923   5.862   5.351
11966TIP3   OH235840   2.635   4.730   5.141
11966TIP3    H135841   2.616   4.655   5.197
11966TIP3    H235842   2.731   4.737   5.142
11967TIP3   OH235843   1.854   5.619   4.422
11967TIP3    H135844   1.797   5.642   4.495
11967TIP3    H235845   1.876   5.527   4.436
11968TIP3   OH235846   1.197   6.279   6.264
11968TIP3    H135847   1.249   6.325   6.329
11968TIP3    H235848   1.246   6.289   6.182
11969TIP3   OH235849   2.265   5.805   0.765
11969TIP3    H135850   2.240   5.727   0.814
11969TIP3    H235851   2.220   5.796   0.681
11970TIP3   OH235852   6.152   3.857   6.210
11970TIP3    H135853   6.198   3.902   6.139
11970TIP3    H235854   6.062   3.888   6.204
11971TIP3   OH235855   3.052   7.752   3.664
11971TIP3    H135856   3.023   7.836   3.630
11971TIP3    H235857   3.113   7.774   3.734
11972TIP3   OH235858   5.684   6.038   1.632
11972TIP3    H135859   5.659   6.123   1.597
11972TIP3    H235860   5.758   6.058   1.690
11973TIP3   OH235861   7.463   7.219   1.205
11973TIP3    H135862   7.524   7.257   1.142
11973TIP3    H235863   7.396   7.176   1.152
11974TIP3   OH235864   0.251   2.984   5.030
11974TIP3    H135865   0.200   2.970   5.110
11974TIP3    H235866   0.342   2.969   5.057
11975TIP3   OH235867   1.231   4.414   3.389
11975TIP3    H135868   1.308   4.422   3.332
11975TIP3    H235869   1.252   4.341   3.447
11976TIP3   OH235870   3.290   1.846   1.476
11976TIP3    H135871   3.319   1.807   1.394
11976TIP3    H235872   3.302   1.940   1.463
11977TIP3   OH235873   6.039   3.724   3.934
11977TIP3    H135874   5.957   3.679   3.913
11977TIP3    H235875   6.090   3.721   3.853
11978TIP3   OH235876   4.796   4.272   5.973
11978TIP3    H135877   4.759   4.201   5.921
11978TIP3    H235878   4.864   4.230   6.025
11979TIP3   OH235879   2.244   5.344   5.941
11979TIP3    H135880   2.327   5.389   5.958
11979TIP3    H235881   2.178   5.400   5.981
11980TIP3   OH235882   2.061   6.451   0.490
11980TIP3    H135883   2.069   6.356   0.480
11980TIP3    H235884   2.007   6.462   0.568
11981TIP3   OH235885   3.129   7.723   5.176
11981TIP3    H135886   3.144   7.656   5.243
11981TIP3    H235887   3.089   7.796   5.223
11982TIP3   OH235888   3.590   3.124   0.836
11982TIP3    H135889   3.643   3.121   0.756
11982TIP3    H235890   3.614   3.045   0.884
11983TIP3   OH235891   3.691   7.043   1.991
11983TIP3    H135892   3.667   7.002   1.909
11983TIP3    H235893   3.614   7.094   2.017
11984TIP3   OH235894   1.458   5.887   3.357
11984TIP3    H135895   1.488   5.881   3.266
11984TIP3    H235896   1.372   5.927   3.352
11985TIP3   OH235897   5.141   4.451   1.765
11985TIP3    H135898   5.223   4.453   1.716
11985TIP3    H235899   5.093   4.529   1.735
11986TIP3   OH235900   2.428   0.145   2.339
11986TIP3    H135901   2.418   0.166   2.431
11986TIP3    H235902   2.517   0.174   2.317
11987TIP3   OH235903   6.173   0.824   2.187
11987TIP3    H135904   6.136   0.746   2.229
11987TIP3    H235905   6.219   0.790   2.110
11988TIP3   OH235906   6.129   2.411   1.166
11988TIP3    H135907   6.140   2.466   1.088
11988TIP3    H235908   6.070   2.341   1.137
11989TIP3   OH235909   5.639   2.948   2.352
11989TIP3    H135910   5.712   2.895   2.383
11989TIP3    H235911   5.597   2.895   2.285
11990TIP3   OH235912   6.742   3.763   2.872
11990TIP3    H135913   6.822   3.811   2.849
11990TIP3    H235914   6.768   3.671   2.876
11991TIP3   OH235915   6.556   2.250   4.162
11991TIP3    H135916   6.583   2.264   4.071
11991TIP3    H235917   6.635   2.268   4.214
11992TIP3   OH235918   6.311   1.149   1.351
11992TIP3    H135919   6.314   1.101   1.433
11992TIP3    H235920   6.374   1.104   1.294
11993TIP3   OH235921   2.649   3.306   0.366
11993TIP3    H135922   2.697   3.388   0.370
11993TIP3    H235923   2.586   3.311   0.438
11994TIP3   OH235924   0.805   1.248   5.792
11994TIP3    H135925   0.774   1.192   5.864
11994TIP3    H235926   0.821   1.333   5.833
11995TIP3   OH235927   0.216   6.043   4.477
11995TIP3    H135928   0.200   6.115   4.415
11995TIP3    H235929   0.207   5.964   4.424
11996TIP3   OH235930   0.592   4.239   6.230
11996TIP3    H135931   0.639   4.179   6.173
11996TIP3    H235932   0.507   4.197   6.245
11997TIP3   OH235933   1.604   1.023   0.605
11997TIP3    H135934   1.554   1.089   0.653
11997TIP3    H235935   1.592   1.046   0.513
11998TIP3   OH235936   1.027   6.845   3.967
11998TIP3    H135937   0.977   6.778   3.920
11998TIP3    H235938   1.069   6.897   3.898
11999TIP3   OH235939   5.176   3.029   6.010
11999TIP3    H135940   5.186   2.983   5.926
11999TIP3    H235941   5.233   3.106   6.001
12000TIP3   OH235942   4.657   2.048   0.843
12000TIP3    H135943   4.633   2.040   0.935
12000TIP3    H235944   4.694   2.136   0.835
12001TIP3   OH235945   4.699   0.674   1.629
12001TIP3    H135946   4.607   0.661   1.607
12001TIP3    H235947   4.698   0.702   1.721
12002TIP3   OH235948   0.652   1.261   1.788
12002TIP3    H135949   0.671   1.181   1.739
12002TIP3    H235950   0.613   1.320   1.723
12003TIP3   OH235951   1.962   3.517   0.128
12003TIP3    H135952   1.993   3.584   0.189
12003TIP3    H235953   1.868   3.532   0.121
12004TIP3   OH235954   0.905   5.845   5.929
12004TIP3    H135955   0.866   5.799   6.003
12004TIP3    H235956   0.917   5.777   5.862
12005TIP3   OH235957   5.039   5.366   4.838
12005TIP3    H135958   5.036   5.367   4.742
12005TIP3    H235959   5.046   5.273   4.861
12006TIP3   OH235960   2.750   2.266   0.985
12006TIP3    H135961   2.706   2.350   1.000
12006TIP3    H235962   2.738   2.248   0.892
12007TIP3   OH235963   1.039   3.252   3.653
12007TIP3    H135964   1.088   3.316   3.704
12007TIP3    H235965   0.948   3.283   3.657
12008TIP3   OH235966   4.465   0.232   1.320
12008TIP3    H135967   4.381   0.242   1.365
12008TIP3    H235968   4.466   0.140   1.292
12009TIP3   OH235969   1.321   6.730   6.108
12009TIP3    H135970   1.278   6.779   6.178
12009TIP3    H235971   1.362   6.797   6.054
12010TIP3   OH235972   6.596   6.592   4.638
12010TIP3    H135973   6.507   6.567   4.615
12010TIP3    H235974   6.637   6.615   4.555
12011TIP3   OH235975   6.976   4.816   4.506
12011TIP3    H135976   6.914   4.806   4.434
12011TIP3    H235977   6.954   4.745   4.567
12012TIP3   OH235978   3.895   0.691   2.046
12012TIP3    H135979   3.815   0.737   2.071
12012TIP3    H235980   3.912   0.721   1.957
12013TIP3   OH235981   6.102   7.069   2.715
12013TIP3    H135982   6.180   7.108   2.677
12013TIP3    H235983   6.044   7.143   2.731
12014TIP3   OH235984   6.720   1.902   6.105
12014TIP3    H135985   6.807   1.937   6.088
12014TIP3    H235986   6.664   1.944   6.040
12015TIP3   OH235987   2.577   6.491   1.184
12015TIP3    H135988   2.648   6.524   1.129
12015TIP3    H235989   2.531   6.570   1.213
12016TIP3   OH235990   3.119   4.121   1.140
12016TIP3    H135991   3.072   4.124   1.223
12016TIP3    H235992   3.157   4.208   1.131
12017TIP3   OH235993   2.968   3.727   3.928
12017TIP3    H135994   2.951   3.645   3.881
12017TIP3    H235995   3.059   3.720   3.956
12018TIP3   OH235996   2.356   2.695   3.803
12018TIP3    H135997   2.279   2.652   3.841
12018TIP3    H235998   2.431   2.646   3.838
12019TIP3   OH235999   8.053   3.444   5.487
12019TIP3    H136000   8.072   3.359   5.528
12019TIP3    H236001   8.136   3.469   5.446
12020TIP3   OH236002   8.002   4.075   4.569
12020TIP3    H136003   8.026   4.126   4.491
12020TIP3    H236004   8.051   3.993   4.560
12021TIP3   OH236005   0.995   3.231   5.340
12021TIP3    H136006   1.036   3.173   5.276
12021TIP3    H236007   1.066   3.254   5.401
12022TIP3   OH236008   5.770   0.879   0.838
12022TIP3    H136009   5.824   0.933   0.781
12022TIP3    H236010   5.745   0.937   0.910
12023TIP3   OH236011   7.725   6.939   1.224
12023TIP3    H136012   7.766   6.960   1.141
12023TIP3    H236013   7.646   6.890   1.201
12024TIP3   OH236014   7.770   5.260   4.298
12024TIP3    H136015   7.739   5.237   4.210
12024TIP3    H236016   7.763   5.179   4.347
12025TIP3   OH236017   4.268   6.890   2.549
12025TIP3    H136018   4.333   6.821   2.534
12025TIP3    H236019   4.314   6.971   2.530
12026TIP3   OH236020   3.489   4.592   4.157
12026TIP3    H136021   3.501   4.662   4.093
12026TIP3    H236022   3.577   4.562   4.176
12027TIP3   OH236023   1.770   4.663   2.620
12027TIP3    H136024   1.687   4.638   2.662
12027TIP3    H236025   1.819   4.708   2.689
12028TIP3   OH236026   4.069   2.913   5.102
12028TIP3    H136027   4.087   2.826   5.137
12028TIP3    H236028   4.125   2.972   5.153
12029TIP3   OH236029   6.761   7.220   2.791
12029TIP3    H136030   6.784   7.127   2.791
12029TIP3    H236031   6.680   7.226   2.842
12030TIP3   OH236032   7.975   7.032   5.926
12030TIP3    H136033   8.027   7.091   5.981
12030TIP3    H236034   8.033   7.008   5.854
12031TIP3   OH236035   5.892   4.944   0.191
12031TIP3    H136036   5.862   4.855   0.206
12031TIP3    H236037   5.874   4.960   0.098
12032TIP3   OH236038   3.735   5.376   0.287
12032TIP3    H136039   3.813   5.409   0.242
12032TIP3    H236040   3.767   5.301   0.337
12033TIP3   OH236041   3.459   2.899   5.897
12033TIP3    H136042   3.444   2.831   5.963
12033TIP3    H236043   3.395   2.968   5.919
12034TIP3   OH236044   5.359   0.853   3.774
12034TIP3    H136045   5.277   0.896   3.798
12034TIP3    H236046   5.333   0.781   3.717
12035TIP3   OH236047   7.233   2.254   3.312
12035TIP3    H136048   7.269   2.334   3.276
12035TIP3    H236049   7.149   2.280   3.350
12036TIP3   OH236050   6.570   6.711   4.865
12036TIP3    H136051   6.584   6.678   4.777
12036TIP3    H236052   6.527   6.638   4.912
12037TIP3   OH236053   5.609   5.985   1.284
12037TIP3    H136054   5.584   5.939   1.363
12037TIP3    H236055   5.700   6.011   1.299
12038TIP3   OH236056   0.785   0.137   3.327
12038TIP3    H136057   0.730   0.175   3.396
12038TIP3    H236058   0.750   0.049   3.313
12039TIP3   OH236059   0.874   1.783   1.184
12039TIP3    H136060   0.870   1.799   1.278
12039TIP3    H236061   0.967   1.768   1.166
12040TIP3   OH236062   5.545   5.654   1.339
12040TIP3    H136063   5.454   5.644   1.310
12040TIP3    H236064   5.539   5.710   1.416
12041TIP3   OH236065   6.532   1.718   5.655
12041TIP3    H136066   6.453   1.664   5.649
12041TIP3    H236067   6.573   1.691   5.737
12042TIP3   OH236068   0.462   7.806   0.489
12042TIP3    H136069   0.454   7.720   0.531
12042TIP3    H236070   0.502   7.787   0.404
12043TIP3   OH236071   7.796   5.148   1.851
12043TIP3    H136072   7.882   5.155   1.809
12043TIP3    H236073   7.738   5.200   1.795
12044TIP3   OH236074   3.968   5.301   3.958
12044TIP3    H136075   4.054   5.342   3.966
12044TIP3    H236076   3.922   5.354   3.893
12045TIP3   OH236077   3.804   7.624   3.622
12045TIP3    H136078   3.852   7.569   3.684
12045TIP3    H236079   3.870   7.683   3.586
12046TIP3   OH236080   0.612   3.875   1.418
12046TIP3    H136081   0.566   3.949   1.457
12046TIP3    H236082   0.544   3.825   1.375
12047TIP3   OH236083   7.483   4.266   0.433
12047TIP3    H136084   7.557   4.325   0.419
12047TIP3    H236085   7.430   4.274   0.354
12048TIP3   OH236086   8.013   6.379   4.612
12048TIP3    H136087   7.993   6.319   4.684
12048TIP3    H236088   8.109   6.377   4.606
12049TIP3   OH236089   0.502   7.429   6.170
12049TIP3    H136090   0.435   7.410   6.105
12049TIP3    H236091   0.473   7.384   6.249
12050TIP3   OH236092   1.557   3.208   4.772
12050TIP3    H136093   1.650   3.206   4.794
12050TIP3    H236094   1.546   3.287   4.719
12051TIP3   OH236095   7.314   7.691   2.298
12051TIP3    H136096   7.391   7.719   2.348
12051TIP3    H236097   7.276   7.620   2.349
12052TIP3   OH236098   3.934   0.748   5.058
12052TIP3    H136099   3.841   0.743   5.079
12052TIP3    H236100   3.937   0.756   4.963
12053TIP3   OH236101   6.159   0.945   2.977
12053TIP3    H136102   6.194   0.943   2.888
12053TIP3    H236103   6.065   0.933   2.967
12054TIP3   OH236104   1.576   1.465   2.049
12054TIP3    H136105   1.483   1.462   2.074
12054TIP3    H236106   1.620   1.410   2.114
12055TIP3   OH236107   0.992   0.412   0.681
12055TIP3    H136108   1.053   0.461   0.626
12055TIP3    H236109   1.040   0.334   0.707
12056TIP3   OH236110   3.933   1.405   5.377
12056TIP3    H136111   3.877   1.467   5.329
12056TIP3    H236112   4.017   1.408   5.331
12057TIP3   OH236113   0.298   4.423   2.150
12057TIP3    H136114   0.282   4.492   2.215
12057TIP3    H236115   0.366   4.368   2.189
12058TIP3   OH236116   0.580   2.274   3.631
12058TIP3    H136117   0.546   2.343   3.575
12058TIP3    H236118   0.675   2.285   3.626
12059TIP3   OH236119   7.572   7.232   2.893
12059TIP3    H136120   7.561   7.325   2.870
12059TIP3    H236121   7.493   7.212   2.944
12060TIP3   OH236122   4.069   6.508   5.452
12060TIP3    H136123   4.060   6.541   5.363
12060TIP3    H236124   4.002   6.440   5.459
12061TIP3   OH236125   4.675   0.838   6.302
12061TIP3    H136126   4.770   0.834   6.312
12061TIP3    H236127   4.647   0.747   6.301
12062TIP3   OH236128   5.977   4.025   4.037
12062TIP3    H136129   6.057   3.973   4.028
12062TIP3    H236130   5.974   4.047   4.130
12063TIP3   OH236131   1.091   6.739   4.719
12063TIP3    H136132   1.107   6.798   4.792
12063TIP3    H236133   1.043   6.666   4.757
12064TIP3   OH236134   0.402   1.259   5.736
12064TIP3    H136135   0.336   1.253   5.666
12064TIP3    H236136   0.366   1.323   5.797
12065TIP3   OH236137   0.696   3.443   1.412
12065TIP3    H136138   0.715   3.488   1.494
12065TIP3    H236139   0.772   3.458   1.357
12066TIP3   OH236140   2.717   2.837   4.283
12066TIP3    H136141   2.795   2.870   4.239
12066TIP3    H236142   2.750   2.783   4.355
12067TIP3   OH236143   5.013   7.584   0.974
12067TIP3    H136144   5.042   7.609   1.061
12067TIP3    H236145   5.025   7.662   0.921
12068TIP3   OH236146   2.799   2.684   4.481
12068TIP3    H136147   2.885   2.642   4.483
12068TIP3    H236148   2.739   2.619   4.516
12069TIP3   OH236149   7.783   0.704   0.914
12069TIP3    H136150   7.728   0.657   0.976
12069TIP3    H236151   7.846   0.639   0.883
12070TIP3   OH236152   2.771   2.780   1.759
12070TIP3    H136153   2.865   2.760   1.761
12070TIP3    H236154   2.742   2.766   1.849
12071TIP3   OH236155   5.631   0.349   1.144
12071TIP3    H136156   5.573   0.298   1.087
12071TIP3    H236157   5.582   0.428   1.165
12072TIP3   OH236158   7.152   3.692   3.405
12072TIP3    H136159   7.218   3.623   3.400
12072TIP3    H236160   7.196   3.763   3.453
12073TIP3   OH236161   2.459   2.085   2.317
12073TIP3    H136162   2.460   2.158   2.379
12073TIP3    H236163   2.438   2.009   2.371
12074TIP3   OH236164   5.624   0.883   0.126
12074TIP3    H136165   5.677   0.927   0.061
12074TIP3    H236166   5.687   0.842   0.185
12075TIP3   OH236167   4.260   6.398   3.343
12075TIP3    H136168   4.321   6.423   3.273
12075TIP3    H236169   4.307   6.419   3.424
12076TIP3   OH236170   0.970   2.954   5.583
12076TIP3    H136171   0.876   2.944   5.599
12076TIP3    H236172   0.999   3.017   5.649
12077TIP3   OH236173   1.950   6.663   4.692
12077TIP3    H136174   2.029   6.621   4.726
12077TIP3    H236175   1.981   6.723   4.625
12078TIP3   OH236176   2.345   1.333   2.035
12078TIP3    H136177   2.311   1.375   1.956
12078TIP3    H236178   2.420   1.387   2.060
12079TIP3   OH236179   3.035   7.098   5.378
12079TIP3    H136180   3.090   7.054   5.312
12079TIP3    H236181   2.984   7.028   5.418
12080TIP3   OH236182   8.001   2.811   0.080
12080TIP3    H136183   8.014   2.716   0.080
12080TIP3    H236184   8.088   2.848   0.065
12081TIP3   OH236185   6.244   6.014   3.688
12081TIP3    H136186   6.330   6.022   3.647
12081TIP3    H236187   6.196   5.953   3.632
12082TIP3   OH236188   2.791   6.317   4.446
12082TIP3    H136189   2.870   6.354   4.406
12082TIP3    H236190   2.822   6.242   4.497
12083TIP3   OH236191   4.690   2.988   3.764
12083TIP3    H136192   4.705   2.956   3.675
12083TIP3    H236193   4.668   3.080   3.753
12084TIP3   OH236194   0.664   5.080   3.938
12084TIP3    H136195   0.615   5.129   4.004
12084TIP3    H236196   0.634   5.116   3.854
12085TIP3   OH236197   6.707   3.872   6.181
12085TIP3    H136198   6.789   3.908   6.215
12085TIP3    H236199   6.728   3.844   6.091
12086TIP3   OH236200   0.202   2.340   6.035
12086TIP3    H136201   0.125   2.307   5.988
12086TIP3    H236202   0.236   2.409   5.979
12087TIP3   OH236203   2.475   4.603   2.867
12087TIP3    H136204   2.481   4.677   2.807
12087TIP3    H236205   2.392   4.560   2.844
12088TIP3   OH236206   7.882   2.794   6.360
12088TIP3    H136207   7.876   2.808   6.265
12088TIP3    H236208   7.969   2.826   6.383
12089TIP3   OH236209   3.667   1.267   4.195
12089TIP3    H136210   3.692   1.188   4.243
12089TIP3    H236211   3.696   1.339   4.250
12090TIP3   OH236212   6.266   6.726   3.902
12090TIP3    H136213   6.280   6.636   3.934
12090TIP3    H236214   6.327   6.779   3.953
12091TIP3   OH236215   4.743   2.957   0.595
12091TIP3    H136216   4.809   2.914   0.650
12091TIP3    H236217   4.716   3.034   0.647
12092TIP3   OH236218   0.826   1.556   2.849
12092TIP3    H136219   0.808   1.633   2.795
12092TIP3    H236220   0.747   1.544   2.901
12093TIP3   OH236221   1.067   2.563   6.743
12093TIP3    H136222   1.043   2.575   6.835
12093TIP3    H236223   1.132   2.630   6.726
12094TIP3   OH236224   0.843   6.251   4.248
12094TIP3    H136225   0.784   6.264   4.174
12094TIP3    H236226   0.855   6.156   4.253
12095TIP3   OH236227   0.758   3.221   3.693
12095TIP3    H136228   0.663   3.233   3.694
12095TIP3    H236229   0.770   3.130   3.665
12096TIP3   OH236230   5.870   3.048   0.841
12096TIP3    H136231   5.809   2.976   0.819
12096TIP3    H236232   5.813   3.119   0.871
12097TIP3   OH236233   2.883   4.279   4.102
12097TIP3    H136234   2.955   4.254   4.044
12097TIP3    H236235   2.804   4.270   4.049
12098TIP3   OH236236   2.283   0.280   6.069
12098TIP3    H136237   2.378   0.291   6.074
12098TIP3    H236238   2.265   0.264   5.977
12099TIP3   OH236239   1.777   6.866   3.041
12099TIP3    H136240   1.839   6.886   2.971
12099TIP3    H236241   1.748   6.951   3.073
12100TIP3   OH236242   5.313   1.724   3.504
12100TIP3    H136243   5.234   1.771   3.479
12100TIP3    H236244   5.384   1.784   3.484
12101TIP3   OH236245   2.690   2.097   6.092
12101TIP3    H136246   2.715   2.173   6.145
12101TIP3    H236247   2.772   2.048   6.080
12102TIP3   OH236248   0.776   2.790  -0.022
12102TIP3    H136249   0.731   2.771   0.060
12102TIP3    H236250   0.821   2.708  -0.044
12103TIP3   OH236251   1.379   4.821   1.843
12103TIP3    H136252   1.295   4.783   1.870
12103TIP3    H236253   1.390   4.897   1.900
12104TIP3   OH236254   2.615   3.688   1.679
12104TIP3    H136255   2.610   3.600   1.643
12104TIP3    H236256   2.539   3.695   1.736
12105TIP3   OH236257   1.570   0.932   1.536
12105TIP3    H136258   1.592   0.961   1.447
12105TIP3    H236259   1.566   1.012   1.587
12106TIP3   OH236260   6.895   5.553   1.671
12106TIP3    H136261   6.918   5.626   1.614
12106TIP3    H236262   6.897   5.591   1.760
12107TIP3   OH236263   0.884   4.060   0.584
12107TIP3    H136264   0.871   4.080   0.491
12107TIP3    H236265   0.893   4.146   0.625
12108TIP3   OH236266   5.609   1.622   5.607
12108TIP3    H136267   5.521   1.588   5.590
12108TIP3    H236268   5.667   1.557   5.569
12109TIP3   OH236269   3.105   3.277   5.797
12109TIP3    H136270   3.071   3.213   5.734
12109TIP3    H236271   3.091   3.236   5.883
12110TIP3   OH236272   1.940   0.110   3.585
12110TIP3    H136273   1.857   0.129   3.630
12110TIP3    H236274   1.993   0.188   3.600
12111TIP3   OH236275   7.939   6.927   6.599
12111TIP3    H136276   7.989   6.953   6.522
12111TIP3    H236277   7.851   6.961   6.583
12112TIP3   OH236278   1.157   6.431   5.249
12112TIP3    H136279   1.114   6.491   5.309
12112TIP3    H236280   1.168   6.482   5.168
12113TIP3   OH236281   1.050   3.247   4.502
12113TIP3    H136282   1.090   3.268   4.417
12113TIP3    H236283   1.124   3.247   4.563
12114TIP3   OH236284   4.230   5.394   3.962
12114TIP3    H136285   4.230   5.441   3.879
12114TIP3    H236286   4.226   5.462   4.029
12115TIP3   OH236287   2.160   3.287   2.497
12115TIP3    H136288   2.231   3.293   2.433
12115TIP3    H236289   2.203   3.306   2.581
12116TIP3   OH236290   6.727   1.769   5.432
12116TIP3    H136291   6.798   1.707   5.414
12116TIP3    H236292   6.701   1.749   5.522
12117TIP3   OH236293   6.387   3.685   2.560
12117TIP3    H136294   6.306   3.638   2.540
12117TIP3    H236295   6.361   3.754   2.620
12118TIP3   OH236296   7.178   2.692   2.877
12118TIP3    H136297   7.272   2.701   2.890
12118TIP3    H236298   7.144   2.781   2.882
12119TIP3   OH236299   2.821   1.300   6.191
12119TIP3    H136300   2.795   1.235   6.256
12119TIP3    H236301   2.833   1.380   6.241
12120TIP3   OH236302   1.327   2.214   5.284
12120TIP3    H136303   1.249   2.230   5.230
12120TIP3    H236304   1.401   2.235   5.226
12121TIP3   OH236305   4.119   5.415   6.479
12121TIP3    H136306   4.106   5.323   6.456
12121TIP3    H236307   4.197   5.416   6.534
12122TIP3   OH236308   7.443   6.983   6.064
12122TIP3    H136309   7.524   7.020   6.030
12122TIP3    H236310   7.445   7.002   6.158
12123TIP3   OH236311   6.748   6.136   6.697
12123TIP3    H136312   6.668   6.188   6.703
12123TIP3    H236313   6.815   6.199   6.668
12124TIP3   OH236314   4.924   4.949   1.210
12124TIP3    H136315   4.954   4.863   1.183
12124TIP3    H236316   4.852   4.932   1.271
12125TIP3   OH236317   0.856   0.420   0.348
12125TIP3    H136318   0.808   0.401   0.267
12125TIP3    H236319   0.944   0.385   0.333
12126TIP3   OH236320   6.863   1.793   1.590
12126TIP3    H136321   6.934   1.763   1.533
12126TIP3    H236322   6.902   1.801   1.676
12127TIP3   OH236323   6.815   1.137   0.714
12127TIP3    H136324   6.751   1.141   0.644
12127TIP3    H236325   6.884   1.080   0.680
12128TIP3   OH236326   5.062   1.217   1.444
12128TIP3    H136327   5.035   1.308   1.450
12128TIP3    H236328   5.157   1.219   1.453
12129TIP3   OH236329   2.617   5.995   5.385
12129TIP3    H136330   2.696   5.941   5.379
12129TIP3    H236331   2.633   6.068   5.325
12130TIP3   OH236332   2.808   5.479   3.086
12130TIP3    H136333   2.815   5.565   3.045
12130TIP3    H236334   2.730   5.440   3.048
12131TIP3   OH236335   0.935   3.693   5.603
12131TIP3    H136336   0.892   3.652   5.678
12131TIP3    H236337   0.981   3.620   5.560
12132TIP3   OH236338   0.265   7.138   2.049
12132TIP3    H136339   0.190   7.175   2.002
12132TIP3    H236340   0.266   7.183   2.133
12133TIP3   OH236341   4.571   7.098   1.966
12133TIP3    H136342   4.539   7.172   1.915
12133TIP3    H236343   4.622   7.045   1.905
12134TIP3   OH236344   8.207   7.598   4.006
12134TIP3    H136345   8.292   7.639   3.991
12134TIP3    H236346   8.156   7.663   4.053
12135TIP3   OH236347   5.551   0.655   1.763
12135TIP3    H136348   5.644   0.676   1.773
12135TIP3    H236349   5.524   0.623   1.850
12136TIP3   OH236350   1.393   6.835   1.813
12136TIP3    H136351   1.405   6.740   1.813
12136TIP3    H236352   1.431   6.864   1.896
12137TIP3   OH236353   2.863   4.410   0.697
12137TIP3    H136354   2.921   4.486   0.697
12137TIP3    H236355   2.813   4.418   0.616
12138TIP3   OH236356   3.017   5.401   6.219
12138TIP3    H136357   3.024   5.306   6.227
12138TIP3    H236358   2.996   5.416   6.126
12139TIP3   OH236359   7.369   3.818   6.787
12139TIP3    H136360   7.449   3.835   6.836
12139TIP3    H236361   7.399   3.801   6.697
12140TIP3   OH236362   0.098   7.269   4.789
12140TIP3    H136363   0.020   7.261   4.735
12140TIP3    H236364   0.065   7.275   4.879
12141TIP3   OH236365   6.438   0.377   1.581
12141TIP3    H136366   6.488   0.355   1.503
12141TIP3    H236367   6.402   0.464   1.563
12142TIP3   OH236368   7.615   7.590   1.292
12142TIP3    H136369   7.658   7.596   1.207
12142TIP3    H236370   7.649   7.509   1.331
12143TIP3   OH236371   6.579   1.410   3.142
12143TIP3    H136372   6.570   1.332   3.088
12143TIP3    H236373   6.489   1.436   3.162
12144TIP3   OH236374   2.358   0.693   4.963
12144TIP3    H136375   2.438   0.692   5.015
12144TIP3    H236376   2.386   0.723   4.876
12145TIP3   OH236377   5.746   3.602   1.174
12145TIP3    H136378   5.764   3.538   1.106
12145TIP3    H236379   5.696   3.671   1.130
12146TIP3   OH236380   1.179   2.861   0.436
12146TIP3    H136381   1.158   2.825   0.350
12146TIP3    H236382   1.275   2.855   0.442
12147TIP3   OH236383   6.159   7.036   1.271
12147TIP3    H136384   6.189   7.101   1.208
12147TIP3    H236385   6.221   6.964   1.264
12148TIP3   OH236386   5.849   1.916   3.863
12148TIP3    H136387   5.930   1.865   3.860
12148TIP3    H236388   5.798   1.884   3.788
12149TIP3   OH236389   4.391   3.237   1.667
12149TIP3    H136390   4.420   3.321   1.703
12149TIP3    H236391   4.307   3.220   1.710
12150TIP3   OH236392   5.554   6.863   1.232
12150TIP3    H136393   5.543   6.958   1.245
12150TIP3    H236394   5.503   6.844   1.153
12151TIP3   OH236395   6.613   4.946   3.011
12151TIP3    H136396   6.542   4.969   2.950
12151TIP3    H236397   6.686   4.920   2.955
12152TIP3   OH236398   1.686   2.938   2.665
12152TIP3    H136399   1.692   3.029   2.635
12152TIP3    H236400   1.704   2.886   2.587
12153TIP3   OH236401   7.383   6.096   6.684
12153TIP3    H136402   7.477   6.077   6.682
12153TIP3    H236403   7.346   6.043   6.613
12154TIP3   OH236404   1.237   0.909   2.459
12154TIP3    H136405   1.265   0.970   2.390
12154TIP3    H236406   1.316   0.859   2.480
12155TIP3   OH236407   5.393   5.857   1.773
12155TIP3    H136408   5.420   5.831   1.860
12155TIP3    H236409   5.395   5.953   1.775
12156TIP3   OH236410   3.912   3.014   0.503
12156TIP3    H136411   3.844   2.998   0.569
12156TIP3    H236412   3.867   3.061   0.433
12157TIP3   OH236413   6.789   7.689   5.939
12157TIP3    H136414   6.848   7.619   5.913
12157TIP3    H236415   6.846   7.752   5.984
12158TIP3   OH236416   1.534   4.647   4.969
12158TIP3    H136417   1.576   4.589   5.033
12158TIP3    H236418   1.494   4.588   4.905
12159TIP3   OH236419   3.139   0.215   1.626
12159TIP3    H136420   3.062   0.269   1.609
12159TIP3    H236421   3.190   0.220   1.545
12160TIP3   OH236422   5.187   5.985   3.723
12160TIP3    H136423   5.184   6.078   3.746
12160TIP3    H236424   5.269   5.974   3.675
12161TIP3   OH236425   7.386   0.837   5.919
12161TIP3    H136426   7.401   0.748   5.953
12161TIP3    H236427   7.344   0.884   5.991
12162TIP3   OH236428   8.306   1.236   3.309
12162TIP3    H136429   8.254   1.209   3.385
12162TIP3    H236430   8.345   1.320   3.335
12163TIP3   OH236431   8.073   2.267   2.081
12163TIP3    H136432   8.145   2.321   2.114
12163TIP3    H236433   8.039   2.222   2.157
12164TIP3   OH236434   0.108   7.576   1.647
12164TIP3    H136435   0.085   7.668   1.664
12164TIP3    H236436   0.026   7.529   1.659
12165TIP3   OH236437   4.065   3.605   1.945
12165TIP3    H136438   4.141   3.639   1.897
12165TIP3    H236439   4.014   3.683   1.968
12166TIP3   OH236440   7.882   1.268   2.182
12166TIP3    H136441   7.851   1.185   2.148
12166TIP3    H236442   7.805   1.308   2.223
12167TIP3   OH236443   0.855   7.448   2.836
12167TIP3    H136444   0.788   7.436   2.902
12167TIP3    H236445   0.826   7.523   2.784
12168TIP3   OH236446   3.968   7.479   0.189
12168TIP3    H136447   3.890   7.464   0.136
12168TIP3    H236448   4.006   7.391   0.200
12169TIP3   OH236449   2.176   7.434   2.643
12169TIP3    H136450   2.177   7.344   2.675
12169TIP3    H236451   2.167   7.488   2.721
12170TIP3   OH236452   1.842   2.413   4.567
12170TIP3    H136453   1.837   2.438   4.474
12170TIP3    H236454   1.920   2.458   4.599
12171TIP3   OH236455   0.298   2.976   5.630
12171TIP3    H136456   0.303   2.991   5.536
12171TIP3    H236457   0.329   2.886   5.642
12172TIP3   OH236458   7.992   3.291   0.071
12172TIP3    H136459   8.031   3.239   0.141
12172TIP3    H236460   7.971   3.375   0.112
12173TIP3   OH236461   0.032   3.633   4.108
12173TIP3    H136462   0.123   3.651   4.131
12173TIP3    H236463   0.038   3.562   4.044
12174TIP3   OH236464   1.129   4.405   5.798
12174TIP3    H136465   1.091   4.323   5.828
12174TIP3    H236466   1.072   4.434   5.727
12175TIP3   OH236467   3.216   7.252   5.605
12175TIP3    H136468   3.172   7.168   5.618
12175TIP3    H236469   3.149   7.317   5.628
12176TIP3   OH236470   1.882   5.710   6.687
12176TIP3    H136471   1.802   5.759   6.703
12176TIP3    H236472   1.861   5.620   6.712
12177TIP3   OH236473   8.186   0.093   1.139
12177TIP3    H136474   8.142   0.024   1.091
12177TIP3    H236475   8.197   0.164   1.076
12178TIP3   OH236476   4.808   4.121   2.751
12178TIP3    H136477   4.730   4.156   2.795
12178TIP3    H236478   4.802   4.154   2.662
12179TIP3   OH236479   6.191   0.826   1.620
12179TIP3    H136480   6.173   0.913   1.586
12179TIP3    H236481   6.111   0.800   1.665
12180TIP3   OH236482   4.350   4.951   0.325
12180TIP3    H136483   4.342   4.912   0.412
12180TIP3    H236484   4.263   4.986   0.306
12181TIP3   OH236485   0.168   6.658   2.474
12181TIP3    H136486   0.091   6.625   2.428
12181TIP3    H236487   0.133   6.718   2.540
12182TIP3   OH236488   2.792   0.643   6.375
12182TIP3    H136489   2.862   0.702   6.402
12182TIP3    H236490   2.790   0.650   6.280
12183TIP3   OH236491   6.763   2.595   6.356
12183TIP3    H136492   6.827   2.666   6.359
12183TIP3    H236493   6.734   2.593   6.265
12184TIP3   OH236494   1.422   0.456   3.228
12184TIP3    H136495   1.421   0.373   3.182
12184TIP3    H236496   1.471   0.438   3.309
12185TIP3   OH236497   4.521   2.622   6.273
12185TIP3    H136498   4.484   2.611   6.186
12185TIP3    H236499   4.467   2.566   6.329
12186TIP3   OH236500   2.617   1.678   1.273
12186TIP3    H136501   2.587   1.601   1.223
12186TIP3    H236502   2.713   1.674   1.268
12187TIP3   OH236503   2.847   3.880   2.415
12187TIP3    H136504   2.908   3.817   2.375
12187TIP3    H236505   2.772   3.881   2.356
12188TIP3   OH236506   0.575   7.352   4.766
12188TIP3    H136507   0.519   7.350   4.689
12188TIP3    H236508   0.663   7.366   4.731
12189TIP3   OH236509   7.194   1.802   3.188
12189TIP3    H136510   7.176   1.857   3.264
12189TIP3    H236511   7.118   1.813   3.131
12190TIP3   OH236512   1.890   7.137   2.012
12190TIP3    H136513   1.841   7.120   2.093
12190TIP3    H236514   1.842   7.209   1.971
12191TIP3   OH236515   3.244   3.483   5.413
12191TIP3    H136516   3.322   3.456   5.462
12191TIP3    H236517   3.230   3.412   5.351
12192TIP3   OH236518   0.385   5.687   6.091
12192TIP3    H136519   0.391   5.593   6.110
12192TIP3    H236520   0.474   5.719   6.100
12193TIP3   OH236521   3.116   5.945   6.605
12193TIP3    H136522   3.044   5.885   6.587
12193TIP3    H236523   3.084   6.031   6.575
12194TIP3   OH236524   7.882   5.616   2.085
12194TIP3    H136525   7.919   5.571   2.008
12194TIP3    H236526   7.937   5.587   2.158
12195TIP3   OH236527   5.901   0.326   3.985
12195TIP3    H136528   5.810   0.325   4.014
12195TIP3    H236529   5.927   0.234   3.983
12196TIP3   OH236530   0.126   1.741   0.385
12196TIP3    H136531   0.129   1.756   0.479
12196TIP3    H236532   0.034   1.729   0.365
12197TIP3   OH236533   4.079   4.196   0.507
12197TIP3    H136534   3.996   4.160   0.475
12197TIP3    H236535   4.058   4.233   0.593
12198TIP3   OH236536   5.024   0.638   0.406
12198TIP3    H136537   5.101   0.657   0.351
12198TIP3    H236538   4.970   0.717   0.399
12199TIP3   OH236539   5.476   2.164   4.488
12199TIP3    H136540   5.481   2.128   4.400
12199TIP3    H236541   5.402   2.224   4.485
12200TIP3   OH236542   4.854   6.988   1.145
12200TIP3    H136543   4.906   6.980   1.065
12200TIP3    H236544   4.908   6.945   1.212
12201TIP3   OH236545   8.254   6.456   4.050
12201TIP3    H136546   8.335   6.419   4.085
12201TIP3    H236547   8.282   6.538   4.009
12202TIP3   OH236548   5.604   1.820   1.135
12202TIP3    H136549   5.543   1.846   1.066
12202TIP3    H236550   5.572   1.864   1.214
12203TIP3   OH236551   8.247   3.005   2.414
12203TIP3    H136552   8.189   3.023   2.341
12203TIP3    H236553   8.225   2.915   2.440
12204TIP3   OH236554   6.597   1.285   2.659
12204TIP3    H136555   6.535   1.216   2.636
12204TIP3    H236556   6.632   1.316   2.576
12205TIP3   OH236557   1.991   7.471   2.893
12205TIP3    H136558   2.046   7.423   2.956
12205TIP3    H236559   1.948   7.538   2.946
12206TIP3   OH236560   8.033   2.642   5.933
12206TIP3    H136561   7.980   2.712   5.969
12206TIP3    H236562   8.030   2.572   5.998
12207TIP3   OH236563   3.807   3.596   5.604
12207TIP3    H136564   3.828   3.646   5.683
12207TIP3    H236565   3.760   3.659   5.548
12208TIP3   OH236566   6.165   5.374   2.626
12208TIP3    H136567   6.135   5.462   2.603
12208TIP3    H236568   6.248   5.387   2.671
12209TIP3   OH236569   2.670   5.027   5.338
12209TIP3    H136570   2.616   4.980   5.274
12209TIP3    H236571   2.734   5.075   5.285
12210TIP3   OH236572   2.039   2.162   0.321
12210TIP3    H136573   2.043   2.224   0.247
12210TIP3    H236574   2.033   2.076   0.280
12211TIP3   OH236575   2.958   4.328   4.361
12211TIP3    H136576   2.890   4.362   4.420
12211TIP3    H236577   2.914   4.320   4.276
12212TIP3   OH236578   2.506   1.760   3.393
12212TIP3    H136579   2.477   1.809   3.316
12212TIP3    H236580   2.482   1.816   3.467
12213TIP3   OH236581   2.852   2.720   2.085
12213TIP3    H136582   2.930   2.710   2.140
12213TIP3    H236583   2.847   2.814   2.069
12214TIP3   OH236584   3.960   7.825   4.026
12214TIP3    H136585   3.967   7.851   4.117
12214TIP3    H236586   3.990   7.734   4.024
12215TIP3   OH236587   5.252   1.477   5.250
12215TIP3    H136588   5.258   1.384   5.272
12215TIP3    H236589   5.161   1.490   5.224
12216TIP3   OH236590   0.058   6.422   2.002
12216TIP3    H136591   0.048   6.489   2.069
12216TIP3    H236592  -0.008   6.443   1.937
12217TIP3   OH236593   2.829   6.566   2.288
12217TIP3    H136594   2.760   6.628   2.313
12217TIP3    H236595   2.910   6.612   2.308
12218TIP3   OH236596   6.299   0.118   5.578
12218TIP3    H136597   6.303   0.187   5.645
12218TIP3    H236598   6.206   0.093   5.575
12219TIP3   OH236599   0.759   4.076   4.885
12219TIP3    H136600   0.851   4.052   4.898
12219TIP3    H236601   0.747   4.153   4.941
12220TIP3   OH236602   5.950   7.306  -0.021
12220TIP3    H136603   5.861   7.336  -0.002
12220TIP3    H236604   6.005   7.384  -0.011
12221TIP3   OH236605   7.996   1.978   0.843
12221TIP3    H136606   7.906   1.953   0.863
12221TIP3    H236607   8.034   2.004   0.927
12222TIP3   OH236608   5.815   6.427   5.749
12222TIP3    H136609   5.853   6.430   5.661
12222TIP3    H236610   5.743   6.364   5.742
12223TIP3   OH236611   1.662   4.433   5.101
12223TIP3    H136612   1.605   4.356   5.099
12223TIP3    H236613   1.748   4.399   5.123
12224TIP3   OH236614   2.208   2.593   5.161
12224TIP3    H136615   2.300   2.581   5.187
12224TIP3    H236616   2.205   2.564   5.070
12225TIP3   OH236617   2.964   5.466   5.742
12225TIP3    H136618   2.885   5.418   5.718
12225TIP3    H236619   3.029   5.438   5.677
12226TIP3   OH236620   6.530   3.169   6.775
12226TIP3    H136621   6.453   3.223   6.757
12226TIP3    H236622   6.497   3.079   6.773
12227TIP3   OH236623   7.507   3.750   5.941
12227TIP3    H136624   7.498   3.666   5.987
12227TIP3    H236625   7.430   3.754   5.884
12228TIP3   OH236626   7.145   0.363   1.606
12228TIP3    H136627   7.152   0.438   1.665
12228TIP3    H236628   7.141   0.402   1.519
12229TIP3   OH236629   5.661   4.670   4.284
12229TIP3    H136630   5.617   4.740   4.236
12229TIP3    H236631   5.747   4.706   4.306
12230TIP3   OH236632   3.773   1.546   3.311
12230TIP3    H136633   3.832   1.548   3.386
12230TIP3    H236634   3.727   1.463   3.317
12231TIP3   OH236635   0.205   0.275   4.975
12231TIP3    H136636   0.299   0.268   4.991
12231TIP3    H236637   0.170   0.311   5.057
12232TIP3   OH236638   3.892   7.545   3.201
12232TIP3    H136639   3.918   7.624   3.248
12232TIP3    H236640   3.882   7.478   3.269
12233TIP3   OH236641   0.820   1.344   2.677
12233TIP3    H136642   0.738   1.341   2.726
12233TIP3    H236643   0.881   1.388   2.737
12234TIP3   OH236644   1.983   4.689   4.811
12234TIP3    H136645   1.916   4.621   4.815
12234TIP3    H236646   2.066   4.642   4.811
12235TIP3   OH236647   6.897   3.931   5.833
12235TIP3    H136648   6.856   3.844   5.836
12235TIP3    H236649   6.987   3.917   5.860
12236TIP3   OH236650   6.394   5.381   3.438
12236TIP3    H136651   6.393   5.369   3.533
12236TIP3    H236652   6.417   5.295   3.403
12237TIP3   OH236653   1.090   1.944   3.295
12237TIP3    H136654   1.002   1.969   3.265
12237TIP3    H236655   1.074   1.893   3.375
12238TIP3   OH236656   6.889   1.520   5.513
12238TIP3    H136657   6.863   1.448   5.570
12238TIP3    H236658   6.970   1.553   5.551
12239TIP3   OH236659   1.726   5.913   2.176
12239TIP3    H136660   1.788   5.922   2.104
12239TIP3    H236661   1.768   5.955   2.250
12240TIP3   OH236662   4.007   4.045   5.391
12240TIP3    H136663   4.029   4.066   5.300
12240TIP3    H236664   4.041   4.118   5.442
12241TIP3   OH236665   7.359   2.868   6.249
12241TIP3    H136666   7.336   2.776   6.233
12241TIP3    H236667   7.399   2.867   6.336
12242TIP3   OH236668   7.323   0.023   5.764
12242TIP3    H136669   7.320  -0.045   5.832
12242TIP3    H236670   7.384   0.088   5.798
12243TIP3   OH236671   7.010   0.245   6.018
12243TIP3    H136672   7.091   0.211   6.056
12243TIP3    H236673   7.019   0.340   6.021
12244TIP3   OH236674   7.394   4.042   3.751
12244TIP3    H136675   7.479   4.075   3.778
12244TIP3    H236676   7.346   4.120   3.722
12245TIP3   OH236677   1.595   2.899   5.537
12245TIP3    H136678   1.562   2.973   5.485
12245TIP3    H236679   1.689   2.912   5.540
12246TIP3   OH236680   4.403   2.267   3.798
12246TIP3    H136681   4.326   2.316   3.826
12246TIP3    H236682   4.402   2.273   3.702
12247TIP3   OH236683   3.189   4.677   3.526
12247TIP3    H136684   3.251   4.666   3.453
12247TIP3    H236685   3.226   4.625   3.597
12248TIP3   OH236686   1.399   0.358   5.668
12248TIP3    H136687   1.376   0.430   5.727
12248TIP3    H236688   1.418   0.400   5.584
12249TIP3   OH236689   7.400   2.982   5.390
12249TIP3    H136690   7.372   2.927   5.317
12249TIP3    H236691   7.343   3.059   5.385
12250TIP3   OH236692   5.586   3.443   3.645
12250TIP3    H136693   5.672   3.477   3.672
12250TIP3    H236694   5.565   3.492   3.566
12251TIP3   OH236695   2.303   2.830   3.550
12251TIP3    H136696   2.385   2.784   3.566
12251TIP3    H236697   2.235   2.766   3.571
12252TIP3   OH236698   0.970   3.349   0.567
12252TIP3    H136699   1.041   3.291   0.538
12252TIP3    H236700   0.904   3.342   0.498
12253TIP3   OH236701   0.516   2.701   3.325
12253TIP3    H136702   0.521   2.605   3.328
12253TIP3    H236703   0.455   2.719   3.254
12254TIP3   OH236704   1.030   1.442   0.501
12254TIP3    H136705   1.117   1.444   0.541
12254TIP3    H236706   1.027   1.358   0.454
12255TIP3   OH236707   3.324   2.239   5.207
12255TIP3    H136708   3.285   2.250   5.120
12255TIP3    H236709   3.284   2.308   5.260
12256TIP3   OH236710   5.023   3.637   0.278
12256TIP3    H136711   5.006   3.636   0.184
12256TIP3    H236712   5.078   3.560   0.293
12257TIP3   OH236713   5.801   5.127   5.561
12257TIP3    H136714   5.739   5.087   5.500
12257TIP3    H236715   5.849   5.052   5.597
12258TIP3   OH236716   6.550   3.911   3.224
12258TIP3    H136717   6.596   3.963   3.290
12258TIP3    H236718   6.605   3.834   3.211
12259TIP3   OH236719   2.793   6.380   2.649
12259TIP3    H136720   2.701   6.361   2.670
12259TIP3    H236721   2.832   6.293   2.634
12260TIP3   OH236722   2.973   5.638   6.666
12260TIP3    H136723   3.009   5.697   6.732
12260TIP3    H236724   2.919   5.577   6.716
12261TIP3   OH236725   4.771   1.804   5.307
12261TIP3    H136726   4.856   1.804   5.351
12261TIP3    H236727   4.722   1.734   5.350
12262TIP3   OH236728   3.446   3.071   3.126
12262TIP3    H136729   3.446   2.987   3.080
12262TIP3    H236730   3.513   3.123   3.082
12263TIP3   OH236731   7.388   0.102   2.510
12263TIP3    H136732   7.335   0.182   2.501
12263TIP3    H236733   7.335   0.034   2.468
12264TIP3   OH236734   0.157   0.447   0.355
12264TIP3    H136735   0.064   0.428   0.364
12264TIP3    H236736   0.163   0.508   0.281
12265TIP3   OH236737   0.888   0.465   1.154
12265TIP3    H136738   0.949   0.528   1.192
12265TIP3    H236739   0.802   0.497   1.181
12266TIP3   OH236740   6.098   5.672   0.488
12266TIP3    H136741   6.119   5.605   0.422
12266TIP3    H236742   6.142   5.641   0.567
12267TIP3   OH236743   0.204   0.422   4.215
12267TIP3    H136744   0.152   0.354   4.257
12267TIP3    H236745   0.139   0.483   4.178
12268TIP3   OH236746   0.539   3.867   2.585
12268TIP3    H136747   0.611   3.832   2.638
12268TIP3    H236748   0.537   3.811   2.507
12269TIP3   OH236749   6.473   1.169   0.268
12269TIP3    H136750   6.478   1.075   0.285
12269TIP3    H236751   6.460   1.175   0.173
12270TIP3   OH236752   3.509   4.677  -0.010
12270TIP3    H136753   3.523   4.745   0.056
12270TIP3    H236754   3.441   4.620   0.028
12271TIP3   OH236755   2.649   7.006   0.612
12271TIP3    H136756   2.670   6.943   0.543
12271TIP3    H236757   2.729   7.013   0.664
12272TIP3   OH236758   5.741   6.751   6.133
12272TIP3    H136759   5.720   6.700   6.055
12272TIP3    H236760   5.666   6.810   6.144
12273TIP3   OH236761   1.725   5.911   6.314
12273TIP3    H136762   1.709   5.839   6.375
12273TIP3    H236763   1.648   5.911   6.256
12274TIP3   OH236764   2.674   4.606   1.368
12274TIP3    H136765   2.651   4.615   1.275
12274TIP3    H236766   2.755   4.555   1.368
12275TIP3   OH236767   2.287   5.440   0.461
12275TIP3    H136768   2.366   5.435   0.514
12275TIP3    H236769   2.215   5.442   0.525
12276TIP3   OH236770   2.996   3.799   0.277
12276TIP3    H136771   3.034   3.717   0.308
12276TIP3    H236772   2.902   3.789   0.291
12277TIP3   OH236773   2.457   7.598   5.971
12277TIP3    H136774   2.415   7.680   5.943
12277TIP3    H236775   2.405   7.529   5.929
12278TIP3   OH236776   8.057   2.597   0.314
12278TIP3    H136777   7.974   2.595   0.363
12278TIP3    H236778   8.093   2.683   0.333
12279TIP3   OH236779   3.044   2.209   0.414
12279TIP3    H136780   2.954   2.203   0.382
12279TIP3    H236781   3.066   2.120   0.442
12280TIP3   OH236782   1.804   5.836   2.798
12280TIP3    H136783   1.781   5.925   2.773
12280TIP3    H236784   1.761   5.823   2.882
12281TIP3   OH236785   5.800   3.596   5.966
12281TIP3    H136786   5.723   3.555   6.005
12281TIP3    H236787   5.874   3.546   6.001
12282TIP3   OH236788   6.766   6.071   3.836
12282TIP3    H136789   6.858   6.080   3.862
12282TIP3    H236790   6.769   6.013   3.760
12283TIP3   OH236791   5.557   3.986   0.040
12283TIP3    H136792   5.470   3.956   0.066
12283TIP3    H236793   5.574   3.941  -0.043
12284TIP3   OH236794   6.642   4.320   0.243
12284TIP3    H136795   6.662   4.328   0.150
12284TIP3    H236796   6.720   4.353   0.288
12285TIP3   OH236797   6.541   0.228   0.722
12285TIP3    H136798   6.574   0.140   0.737
12285TIP3    H236799   6.588   0.283   0.784
12286TIP3   OH236800   3.839   4.132   0.415
12286TIP3    H136801   3.806   4.203   0.360
12286TIP3    H236802   3.762   4.078   0.432
12287TIP3   OH236803   1.843   4.749   3.028
12287TIP3    H136804   1.812   4.769   2.939
12287TIP3    H236805   1.921   4.804   3.038
12288TIP3   OH236806   2.117   6.694   2.612
12288TIP3    H136807   2.149   6.775   2.573
12288TIP3    H236808   2.053   6.661   2.549
12289TIP3   OH236809   3.328   2.100   1.371
12289TIP3    H136810   3.414   2.142   1.371
12289TIP3    H236811   3.276   2.152   1.309
12290TIP3   OH236812   2.944   0.435   3.406
12290TIP3    H136813   2.971   0.455   3.317
12290TIP3    H236814   2.854   0.467   3.411
12291TIP3   OH236815   4.367   3.531   2.045
12291TIP3    H136816   4.429   3.565   2.109
12291TIP3    H236817   4.295   3.496   2.097
12292TIP3   OH236818   7.506   7.356   4.982
12292TIP3    H136819   7.480   7.356   4.890
12292TIP3    H236820   7.568   7.429   4.990
12293TIP3   OH236821   3.032   7.286   0.005
12293TIP3    H136822   3.011   7.224   0.075
12293TIP3    H236823   3.090   7.350   0.046
12294TIP3   OH236824   3.635   7.382   3.071
12294TIP3    H136825   3.661   7.297   3.107
12294TIP3    H236826   3.717   7.431   3.064
12295TIP3   OH236827   4.462   6.146   4.452
12295TIP3    H136828   4.419   6.138   4.537
12295TIP3    H236829   4.555   6.131   4.470
12296TIP3   OH236830   1.771   2.546   2.213
12296TIP3    H136831   1.705   2.564   2.281
12296TIP3    H236832   1.751   2.458   2.183
12297TIP3   OH236833   6.024   1.304   0.639
12297TIP3    H136834   6.046   1.259   0.558
12297TIP3    H236835   5.943   1.263   0.668
12298TIP3   OH236836   4.750   0.229   5.466
12298TIP3    H136837   4.688   0.297   5.438
12298TIP3    H236838   4.836   0.270   5.454
12299TIP3   OH236839   0.558   2.009   2.176
12299TIP3    H136840   0.631   1.949   2.158
12299TIP3    H236841   0.515   2.019   2.091
12300TIP3   OH236842   7.452   0.908   2.452
12300TIP3    H136843   7.369   0.909   2.499
12300TIP3    H236844   7.510   0.855   2.507
12301TIP3   OH236845   0.265   3.723   4.240
12301TIP3    H136846   0.311   3.679   4.311
12301TIP3    H236847   0.257   3.814   4.268
12302TIP3   OH236848   8.112   2.982   4.222
12302TIP3    H136849   8.089   2.890   4.212
12302TIP3    H236850   8.063   3.027   4.153
12303TIP3   OH236851   6.972   2.249   1.511
12303TIP3    H136852   6.938   2.169   1.472
12303TIP3    H236853   6.930   2.253   1.597
12304TIP3   OH236854   3.032   0.420   1.199
12304TIP3    H136855   3.057   0.339   1.155
12304TIP3    H236856   3.108   0.477   1.192
12305TIP3   OH236857   4.678   7.733   3.778
12305TIP3    H136858   4.631   7.735   3.862
12305TIP3    H236859   4.680   7.825   3.750
12306TIP3   OH236860   2.207   2.484   0.852
12306TIP3    H136861   2.187   2.393   0.829
12306TIP3    H236862   2.283   2.506   0.799
12307TIP3   OH236863   3.091   0.199   5.012
12307TIP3    H136864   3.165   0.175   5.067
12307TIP3    H236865   3.018   0.149   5.046
12308TIP3   OH236866   0.776   2.050   4.075
12308TIP3    H136867   0.832   2.030   4.150
12308TIP3    H236868   0.690   2.070   4.113
12309TIP3   OH236869   6.933   7.026   1.576
12309TIP3    H136870   7.022   6.999   1.554
12309TIP3    H236871   6.943   7.083   1.652
12310TIP3   OH236872   6.235   3.079   2.517
12310TIP3    H136873   6.268   3.116   2.435
12310TIP3    H236874   6.310   3.032   2.554
12311TIP3   OH236875   5.287   3.231   5.336
12311TIP3    H136876   5.357   3.181   5.379
12311TIP3    H236877   5.221   3.166   5.315
12312TIP3   OH236878   8.228   6.308   0.549
12312TIP3    H136879   8.275   6.357   0.481
12312TIP3    H236880   8.190   6.233   0.503
12313TIP3   OH236881   2.553   4.883   2.245
12313TIP3    H136882   2.512   4.945   2.305
12313TIP3    H236883   2.629   4.849   2.293
12314TIP3   OH236884   1.865   3.598   5.756
12314TIP3    H136885   1.832   3.684   5.730
12314TIP3    H236886   1.801   3.536   5.722
12315TIP3   OH236887   4.167   6.011   0.396
12315TIP3    H136888   4.236   6.053   0.448
12315TIP3    H236889   4.108   6.082   0.371
12316TIP3   OH236890   0.395   0.984   2.580
12316TIP3    H136891   0.378   1.078   2.581
12316TIP3    H236892   0.404   0.962   2.487
12317TIP3   OH236893   3.136   5.743   3.790
12317TIP3    H136894   3.164   5.684   3.859
12317TIP3    H236895   3.207   5.742   3.726
12318TIP3   OH236896   1.298   4.542   1.110
12318TIP3    H136897   1.266   4.609   1.170
12318TIP3    H236898   1.235   4.544   1.038
12319TIP3   OH236899   0.348   3.654   5.222
12319TIP3    H136900   0.348   3.577   5.279
12319TIP3    H236901   0.341   3.619   5.134
12320TIP3   OH236902   4.112   0.409   5.898
12320TIP3    H136903   4.111   0.465   5.821
12320TIP3    H236904   4.083   0.324   5.867
12321TIP3   OH236905   0.938   6.919   2.479
12321TIP3    H136906   0.860   6.866   2.495
12321TIP3    H236907   1.002   6.858   2.442
12322TIP3   OH236908   4.901   5.421   6.448
12322TIP3    H136909   4.961   5.364   6.496
12322TIP3    H236910   4.939   5.428   6.360
12323TIP3   OH236911   3.709   1.063   1.225
12323TIP3    H136912   3.737   1.076   1.135
12323TIP3    H236913   3.679   1.149   1.254
12324TIP3   OH236914   5.713   5.393   6.553
12324TIP3    H136915   5.768   5.469   6.570
12324TIP3    H236916   5.638   5.427   6.506
12325TIP3   OH236917   5.158   6.362   0.200
12325TIP3    H136918   5.171   6.404   0.115
12325TIP3    H236919   5.142   6.270   0.179
12326TIP3   OH236920   5.246   6.118   4.925
12326TIP3    H136921   5.279   6.034   4.957
12326TIP3    H236922   5.218   6.165   5.004
12327TIP3   OH236923   2.079   2.450   0.399
12327TIP3    H136924   2.012   2.403   0.449
12327TIP3    H236925   2.095   2.530   0.449
12328TIP3   OH236926   4.127   1.693   6.547
12328TIP3    H136927   4.164   1.607   6.568
12328TIP3    H236928   4.152   1.708   6.456
12329TIP3   OH236929   6.763   1.461   2.035
12329TIP3    H136930   6.796   1.444   1.947
12329TIP3    H236931   6.734   1.376   2.068
12330TIP3   OH236932   3.641   7.244   4.206
12330TIP3    H136933   3.575   7.277   4.144
12330TIP3    H236934   3.627   7.150   4.208
12331TIP3   OH236935   6.880   0.562   2.259
12331TIP3    H136936   6.826   0.625   2.212
12331TIP3    H236937   6.892   0.600   2.346
12332TIP3   OH236938   3.630   1.225   4.573
12332TIP3    H136939   3.595   1.287   4.637
12332TIP3    H236940   3.612   1.266   4.488
12333TIP3   OH236941   6.934   6.110   1.459
12333TIP3    H136942   6.861   6.050   1.473
12333TIP3    H236943   6.974   6.120   1.545
12334TIP3   OH236944   1.230   3.087   4.043
12334TIP3    H136945   1.256   2.995   4.037
12334TIP3    H236946   1.181   3.104   3.963
12335TIP3   OH236947   3.048   7.753   1.738
12335TIP3    H136948   3.103   7.684   1.774
12335TIP3    H236949   2.991   7.709   1.676
12336TIP3   OH236950   3.034   6.472   0.656
12336TIP3    H136951   3.083   6.436   0.730
12336TIP3    H236952   3.013   6.562   0.683
12337TIP3   OH236953   8.175   6.608   0.172
12337TIP3    H136954   8.200   6.695   0.142
12337TIP3    H236955   8.115   6.623   0.244
12338TIP3   OH236956   0.066   2.000   5.204
12338TIP3    H136957   0.052   1.916   5.161
12338TIP3    H236958   0.030   1.988   5.292
12339TIP3   OH236959   1.906   3.434   4.449
12339TIP3    H136960   1.964   3.411   4.376
12339TIP3    H236961   1.827   3.469   4.407
12340TIP3   OH236962   8.243   0.177   6.008
12340TIP3    H136963   8.202   0.253   5.967
12340TIP3    H236964   8.320   0.212   6.052
12341TIP3   OH236965   5.385   1.372   4.134
12341TIP3    H136966   5.416   1.456   4.166
12341TIP3    H236967   5.448   1.308   4.169
12342TIP3   OH236968   4.593   2.922   5.199
12342TIP3    H136969   4.585   3.018   5.204
12342TIP3    H236970   4.553   2.900   5.115
12343TIP3   OH236971   1.515   4.542   1.364
12343TIP3    H136972   1.549   4.508   1.281
12343TIP3    H236973   1.556   4.488   1.431
12344TIP3   OH236974   5.259   4.814   0.629
12344TIP3    H136975   5.187   4.793   0.688
12344TIP3    H236976   5.323   4.858   0.684
12345TIP3   OH236977   2.165   2.440   2.636
12345TIP3    H136978   2.185   2.470   2.547
12345TIP3    H236979   2.177   2.345   2.632
12346TIP3   OH236980   6.501   2.816   2.326
12346TIP3    H136981   6.493   2.735   2.275
12346TIP3    H236982   6.577   2.860   2.290
12347TIP3   OH236983   0.495   6.954   4.910
12347TIP3    H136984   0.446   6.915   4.983
12347TIP3    H236985   0.465   7.045   4.908
12348TIP3   OH236986   7.279   3.892   0.540
12348TIP3    H136987   7.372   3.908   0.528
12348TIP3    H236988   7.274   3.805   0.581
12349TIP3   OH236989   5.162   1.138   2.393
12349TIP3    H136990   5.112   1.078   2.450
12349TIP3    H236991   5.219   1.186   2.453
12350TIP3   OH236992   1.169   7.367   2.129
12350TIP3    H136993   1.186   7.376   2.223
12350TIP3    H236994   1.173   7.456   2.095
12351TIP3   OH236995   3.515   1.945   2.583
12351TIP3    H136996   3.515   1.941   2.678
12351TIP3    H236997   3.446   1.885   2.556
12352TIP3   OH236998   5.493   2.300   2.391
12352TIP3    H136999   5.446   2.219   2.409
12352TIP3    H237000   5.578   2.272   2.358
12353TIP3   OH237001   4.825   4.947   0.834
12353TIP3    H137002   4.827   4.992   0.750
12353TIP3    H237003   4.914   4.914   0.846
12354TIP3   OH237004   7.547   0.855   4.280
12354TIP3    H137005   7.516   0.896   4.361
12354TIP3    H237006   7.638   0.885   4.271
12355TIP3   OH237007   4.007   7.473   4.944
12355TIP3    H137008   4.099   7.454   4.922
12355TIP3    H237009   3.963   7.389   4.938
12356TIP3   OH237010   1.083   4.456   2.844
12356TIP3    H137011   1.050   4.533   2.890
12356TIP3    H237012   1.136   4.410   2.909
12357TIP3   OH237013   2.307   4.375   0.166
12357TIP3    H137014   2.267   4.460   0.147
12357TIP3    H237015   2.235   4.321   0.200
12358TIP3   OH237016   3.354   5.439   6.041
12358TIP3    H137017   3.352   5.451   6.135
12358TIP3    H237018   3.334   5.346   6.028
12359TIP3   OH237019   2.189   0.750   3.444
12359TIP3    H137020   2.252   0.797   3.499
12359TIP3    H237021   2.109   0.747   3.497
12360TIP3   OH237022   7.876   0.808   6.033
12360TIP3    H137023   7.815   0.762   5.975
12360TIP3    H237024   7.901   0.887   5.985
12361TIP3   OH237025   0.483   0.563   1.340
12361TIP3    H137026   0.571   0.527   1.347
12361TIP3    H237027   0.427   0.486   1.328
12362TIP3   OH237028   6.971   4.016   3.139
12362TIP3    H137029   6.912   4.082   3.176
12362TIP3    H237030   7.057   4.037   3.176
12363TIP3   OH237031   4.557   7.655   5.942
12363TIP3    H137032   4.626   7.605   5.986
12363TIP3    H237033   4.495   7.588   5.913
12364TIP3   OH237034   1.735   3.646   0.982
12364TIP3    H137035   1.798   3.703   1.027
12364TIP3    H237036   1.658   3.645   1.040
12365TIP3   OH237037   0.806   0.493   0.859
12365TIP3    H137038   0.838   0.441   0.932
12365TIP3    H237039   0.864   0.471   0.786
12366TIP3   OH237040   2.793   7.495   1.724
12366TIP3    H137041   2.735   7.425   1.695
12366TIP3    H237042   2.876   7.478   1.680
12367TIP3   OH237043   7.708   5.344   3.756
12367TIP3    H137044   7.616   5.372   3.761
12367TIP3    H237045   7.712   5.289   3.678
12368TIP3   OH237046   3.132   4.917   3.615
12368TIP3    H137047   3.173   4.928   3.701
12368TIP3    H237048   3.146   4.825   3.593
12369TIP3   OH237049   8.087   4.617   4.730
12369TIP3    H137050   8.102   4.523   4.719
12369TIP3    H237051   8.003   4.633   4.688
12370TIP3   OH237052   5.786   7.004   6.798
12370TIP3    H137053   5.741   7.088   6.807
12370TIP3    H237054   5.731   6.953   6.739
12371TIP3   OH237055   1.537   3.139   4.240
12371TIP3    H137056   1.528   3.063   4.181
12371TIP3    H237057   1.541   3.100   4.327
12372TIP3   OH237058   5.359   1.364   2.633
12372TIP3    H137059   5.313   1.280   2.641
12372TIP3    H237060   5.335   1.396   2.546
12373TIP3   OH237061   3.866   1.858   1.902
12373TIP3    H137062   3.943   1.911   1.885
12373TIP3    H237063   3.839   1.882   1.991
12374TIP3   OH237064   6.504   5.929   1.702
12374TIP3    H137065   6.413   5.928   1.674
12374TIP3    H237066   6.516   5.847   1.750
12375TIP3   OH237067   5.280   3.426   2.853
12375TIP3    H137068   5.324   3.510   2.861
12375TIP3    H237069   5.318   3.386   2.775
12376TIP3   OH237070   0.937   1.744   0.368
12376TIP3    H137071   0.967   1.762   0.457
12376TIP3    H237072   0.907   1.829   0.335
12377TIP3   OH237073   4.663   3.320   1.880
12377TIP3    H137074   4.669   3.364   1.965
12377TIP3    H237075   4.590   3.363   1.836
12378TIP3   OH237076   1.901   5.639   5.916
12378TIP3    H137077   1.830   5.657   5.978
12378TIP3    H237078   1.856   5.605   5.838
12379TIP3   OH237079   1.554   2.465   2.866
12379TIP3    H137080   1.469   2.454   2.823
12379TIP3    H237081   1.543   2.542   2.922
12380TIP3   OH237082   1.593   2.077   1.884
12380TIP3    H137083   1.684   2.050   1.868
12380TIP3    H237084   1.540   2.012   1.837
12381TIP3   OH237085   6.938   6.096   3.327
12381TIP3    H137086   6.939   6.006   3.357
12381TIP3    H237087   7.030   6.122   3.324
12382TIP3   OH237088   6.428   4.656   3.920
12382TIP3    H137089   6.444   4.716   3.847
12382TIP3    H237090   6.404   4.573   3.877
12383TIP3   OH237091   3.903   7.208   4.373
12383TIP3    H137092   3.937   7.118   4.371
12383TIP3    H237093   3.833   7.209   4.307
12384TIP3   OH237094   5.600   7.772   0.221
12384TIP3    H137095   5.582   7.679   0.212
12384TIP3    H237096   5.515   7.812   0.238
12385TIP3   OH237097   1.496   4.007   5.477
12385TIP3    H137098   1.516   4.057   5.556
12385TIP3    H237099   1.579   4.004   5.429
12386TIP3   OH237100   3.410   2.571   3.167
12386TIP3    H137101   3.423   2.622   3.247
12386TIP3    H237102   3.497   2.564   3.128
12387TIP3   OH237103   6.290   0.351   6.031
12387TIP3    H137104   6.267   0.443   6.042
12387TIP3    H237105   6.220   0.303   6.076
12388TIP3   OH237106   6.263   6.024   1.995
12388TIP3    H137107   6.277   6.106   1.948
12388TIP3    H237108   6.224   5.966   1.931
12389TIP3   OH237109   0.642   6.339   6.724
12389TIP3    H137110   0.548   6.324   6.734
12389TIP3    H237111   0.676   6.256   6.690
12390TIP3   OH237112   0.486   5.956   3.175
12390TIP3    H137113   0.478   6.019   3.104
12390TIP3    H237114   0.429   5.989   3.244
12391TIP3   OH237115   3.972   6.534   6.253
12391TIP3    H137116   3.954   6.463   6.191
12391TIP3    H237117   4.060   6.563   6.231
12392TIP3   OH237118   5.595   1.645   4.502
12392TIP3    H137119   5.520   1.611   4.551
12392TIP3    H237120   5.613   1.731   4.541
12393TIP3   OH237121   3.017   7.164   1.279
12393TIP3    H137122   3.104   7.203   1.288
12393TIP3    H237123   2.975   7.182   1.363
12394TIP3   OH237124   8.265   6.081   5.252
12394TIP3    H137125   8.325   6.034   5.311
12394TIP3    H237126   8.295   6.172   5.258
12395TIP3   OH237127   6.548   0.701   5.352
12395TIP3    H137128   6.468   0.752   5.342
12395TIP3    H237129   6.554   0.650   5.271
12396TIP3   OH237130   7.627   2.569   5.932
12396TIP3    H137131   7.557   2.629   5.906
12396TIP3    H237132   7.591   2.482   5.920
12397TIP3   OH237133   0.926   1.128   3.207
12397TIP3    H137134   1.006   1.149   3.160
12397TIP3    H237135   0.856   1.164   3.152
12398TIP3   OH237136   1.643   1.666   5.494
12398TIP3    H137137   1.631   1.756   5.525
12398TIP3    H237138   1.629   1.612   5.572
12399TIP3   OH237139   0.130   4.817   3.248
12399TIP3    H137140   0.036   4.808   3.235
12399TIP3    H237141   0.140   4.900   3.295
12400TIP3   OH237142   2.013   2.753   5.252
12400TIP3    H137143   2.066   2.686   5.210
12400TIP3    H237144   1.973   2.709   5.327
12401TIP3   OH237145   6.010   0.521   1.443
12401TIP3    H137146   5.941   0.456   1.456
12401TIP3    H237147   5.977   0.577   1.373
12402TIP3   OH237148   7.468   2.039   2.220
12402TIP3    H137149   7.451   1.948   2.244
12402TIP3    H237150   7.544   2.034   2.162
12403TIP3   OH237151   2.405   4.160   6.380
12403TIP3    H137152   2.311   4.150   6.392
12403TIP3    H237153   2.420   4.139   6.287
12404TIP3   OH237154   2.012   5.212   3.484
12404TIP3    H137155   2.022   5.153   3.559
12404TIP3    H237156   1.972   5.158   3.416
12405TIP3   OH237157   2.789   4.773   2.295
12405TIP3    H137158   2.850   4.803   2.362
12405TIP3    H237159   2.841   4.712   2.242
12406TIP3   OH237160   1.513   1.798   5.961
12406TIP3    H137161   1.442   1.849   6.000
12406TIP3    H237162   1.469   1.730   5.911
12407TIP3   OH237163   3.051   0.367   4.365
12407TIP3    H137164   3.015   0.361   4.453
12407TIP3    H237165   2.984   0.327   4.309
12408TIP3   OH237166   0.029   7.159   0.260
12408TIP3    H137167   0.056   7.075   0.222
12408TIP3    H237168   0.038   7.222   0.188
12409TIP3   OH237169   6.784   5.443   1.292
12409TIP3    H137170   6.846   5.463   1.222
12409TIP3    H237171   6.838   5.436   1.371
12410TIP3   OH237172   2.553   0.861   2.653
12410TIP3    H137173   2.649   0.863   2.654
12410TIP3    H237174   2.527   0.909   2.732
12411TIP3   OH237175   4.955   3.270   0.012
12411TIP3    H137176   5.033   3.304  -0.031
12411TIP3    H237177   4.974   3.177   0.026
12412TIP3   OH237178   0.652   7.486   1.867
12412TIP3    H137179   0.620   7.550   1.803
12412TIP3    H237180   0.717   7.435   1.818
12413TIP3   OH237181   6.367   7.698   4.265
12413TIP3    H137182   6.352   7.768   4.202
12413TIP3    H237183   6.422   7.635   4.219
12414TIP3   OH237184   0.699   6.805   3.830
12414TIP3    H137185   0.759   6.732   3.821
12414TIP3    H237186   0.659   6.792   3.916
12415TIP3   OH237187   7.504   4.217   3.386
12415TIP3    H137188   7.491   4.143   3.326
12415TIP3    H237189   7.554   4.181   3.458
12416TIP3   OH237190   0.905   3.963   2.718
12416TIP3    H137191   0.929   4.021   2.791
12416TIP3    H237192   0.864   4.021   2.654
12417TIP3   OH237193   5.370   1.695   0.329
12417TIP3    H137194   5.441   1.720   0.269
12417TIP3    H237195   5.300   1.757   0.309
12418TIP3   OH237196   0.430   7.497   2.599
12418TIP3    H137197   0.494   7.428   2.583
12418TIP3    H237198   0.467   7.574   2.554
12419TIP3   OH237199   0.570   0.970   0.639
12419TIP3    H137200   0.582   1.024   0.717
12419TIP3    H237201   0.574   0.880   0.671
12420TIP3   OH237202   8.232   2.473   3.444
12420TIP3    H137203   8.181   2.392   3.450
12420TIP3    H237204   8.193   2.531   3.510
12421TIP3   OH237205   3.941   6.646   4.702
12421TIP3    H137206   3.960   6.607   4.788
12421TIP3    H237207   3.949   6.740   4.716
12422TIP3   OH237208   4.342   5.369   5.477
12422TIP3    H137209   4.274   5.305   5.459
12422TIP3    H237210   4.309   5.419   5.552
12423TIP3   OH237211   3.058   5.093   0.474
12423TIP3    H137212   3.114   5.047   0.536
12423TIP3    H237213   3.075   5.050   0.390
12424TIP3   OH237214   3.489   6.585   3.993
12424TIP3    H137215   3.501   6.543   4.078
12424TIP3    H237216   3.578   6.605   3.964
12425TIP3   OH237217   6.319   5.449   5.597
12425TIP3    H137218   6.263   5.474   5.671
12425TIP3    H237219   6.408   5.448   5.634
12426TIP3   OH237220   4.245   3.132   1.943
12426TIP3    H137221   4.253   3.137   2.039
12426TIP3    H237222   4.151   3.133   1.927
12427TIP3   OH237223   2.862   3.065   1.230
12427TIP3    H137224   2.827   3.012   1.159
12427TIP3    H237225   2.797   3.057   1.300
12428TIP3   OH237226   7.594   3.728   1.595
12428TIP3    H137227   7.670   3.724   1.537
12428TIP3    H237228   7.623   3.782   1.669
12429TIP3   OH237229   1.382   1.018   6.554
12429TIP3    H137230   1.304   1.058   6.516
12429TIP3    H237231   1.404   1.074   6.628
12430TIP3   OH237232   0.699   3.106   5.334
12430TIP3    H137233   0.676   3.100   5.241
12430TIP3    H237234   0.793   3.124   5.333
12431TIP3   OH237235   7.139   1.771   3.617
12431TIP3    H137236   7.057   1.734   3.583
12431TIP3    H237237   7.179   1.813   3.541
12432TIP3   OH237238   3.770   6.844   0.722
12432TIP3    H137239   3.802   6.841   0.812
12432TIP3    H237240   3.849   6.833   0.668
12433TIP3   OH237241   0.714   0.456   3.463
12433TIP3    H137242   0.644   0.521   3.456
12433TIP3    H237243   0.672   0.372   3.444
12434TIP3   OH237244   5.726   5.291   6.210
12434TIP3    H137245   5.642   5.333   6.193
12434TIP3    H237246   5.709   5.231   6.282
12435TIP3   OH237247   7.520   5.406   4.651
12435TIP3    H137248   7.495   5.395   4.559
12435TIP3    H237249   7.586   5.338   4.666
12436TIP3   OH237250   6.260   3.778   5.708
12436TIP3    H137251   6.262   3.874   5.703
12436TIP3    H237252   6.351   3.753   5.724
12437TIP3   OH237253   7.114   3.244   0.619
12437TIP3    H137254   7.033   3.249   0.669
12437TIP3    H237255   7.173   3.193   0.675
12438TIP3   OH237256   3.943   3.047   5.772
12438TIP3    H137257   3.855   3.031   5.804
12438TIP3    H237258   3.977   2.960   5.749
12439TIP3   OH237259   7.391   5.872   4.035
12439TIP3    H137260   7.346   5.925   3.970
12439TIP3    H237261   7.322   5.818   4.074
12440TIP3   OH237262   4.659   1.545   5.241
12440TIP3    H137263   4.657   1.466   5.187
12440TIP3    H237264   4.566   1.567   5.254
12441TIP3   OH237265   6.258   7.622   3.061
12441TIP3    H137266   6.201   7.554   3.098
12441TIP3    H237267   6.331   7.628   3.123
12442TIP3   OH237268   1.212   0.447   1.097
12442TIP3    H137269   1.217   0.521   1.036
12442TIP3    H237270   1.167   0.482   1.173
12443TIP3   OH237271   4.794   0.878   1.161
12443TIP3    H137272   4.874   0.826   1.174
12443TIP3    H237273   4.737   0.853   1.233
12444TIP3   OH237274   0.697   5.449   2.086
12444TIP3    H137275   0.717   5.382   2.152
12444TIP3    H237276   0.637   5.406   2.026
12445TIP3   OH237277   3.944   1.961   0.999
12445TIP3    H137278   3.930   1.897   1.069
12445TIP3    H237279   3.920   2.045   1.038
12446TIP3   OH237280   2.800   3.536   2.166
12446TIP3    H137281   2.883   3.571   2.197
12446TIP3    H237282   2.740   3.611   2.166
12447TIP3   OH237283   2.352   1.796   1.683
12447TIP3    H137284   2.355   1.850   1.763
12447TIP3    H237285   2.260   1.771   1.675
12448TIP3   OH237286   0.375   6.980   1.146
12448TIP3    H137287   0.355   6.957   1.236
12448TIP3    H237288   0.468   6.958   1.135
12449TIP3   OH237289   0.884   3.945   6.677
12449TIP3    H137290   0.907   4.032   6.710
12449TIP3    H237291   0.968   3.901   6.666
12450TIP3   OH237292   5.695   4.138   5.324
12450TIP3    H137293   5.685   4.177   5.411
12450TIP3    H237294   5.724   4.211   5.269
12451TIP3   OH237295   5.283   1.985   0.418
12451TIP3    H137296   5.368   1.974   0.377
12451TIP3    H237297   5.221   1.942   0.358
12452TIP3   OH237298   3.615   3.030   2.541
12452TIP3    H137299   3.603   3.032   2.636
12452TIP3    H237300   3.625   2.938   2.520
12453TIP3   OH237301   2.559   7.605   4.347
12453TIP3    H137302   2.616   7.595   4.423
12453TIP3    H237303   2.583   7.690   4.310
12454TIP3   OH237304   3.687   0.467   1.734
12454TIP3    H137305   3.628   0.398   1.764
12454TIP3    H237306   3.642   0.548   1.755
12455TIP3   OH237307   2.947   2.868   4.674
12455TIP3    H137308   2.976   2.779   4.694
12455TIP3    H237309   2.856   2.859   4.647
12456TIP3   OH237310   7.292   5.282   1.448
12456TIP3    H137311   7.326   5.323   1.368
12456TIP3    H237312   7.359   5.219   1.473
12457TIP3   OH237313   1.642   7.565   0.676
12457TIP3    H137314   1.618   7.472   0.683
12457TIP3    H237315   1.565   7.612   0.707
12458TIP3   OH237316   4.307   7.506   6.461
12458TIP3    H137317   4.383   7.555   6.432
12458TIP3    H237318   4.333   7.414   6.454
12459TIP3   OH237319   3.537   0.533   2.416
12459TIP3    H137320   3.617   0.486   2.395
12459TIP3    H237321   3.565   0.608   2.468
12460TIP3   OH237322   7.556   5.155   6.438
12460TIP3    H137323   7.463   5.134   6.437
12460TIP3    H237324   7.600   5.070   6.436
12461TIP3   OH237325   0.717   0.742   2.883
12461TIP3    H137326   0.691   0.692   2.806
12461TIP3    H237327   0.754   0.823   2.848
12462TIP3   OH237328   1.590   0.021   6.668
12462TIP3    H137329   1.650   0.031   6.743
12462TIP3    H237330   1.516   0.078   6.688
12463TIP3   OH237331   0.786   5.216   2.986
12463TIP3    H137332   0.771   5.284   2.920
12463TIP3    H237333   0.824   5.143   2.937
12464TIP3   OH237334   5.400   7.549   3.991
12464TIP3    H137335   5.345   7.471   3.995
12464TIP3    H237336   5.351   7.616   4.040
12465TIP3   OH237337   4.479   0.401   1.780
12465TIP3    H137338   4.409   0.336   1.777
12465TIP3    H237339   4.477   0.435   1.869
12466TIP3   OH237340   6.324   5.872   4.178
12466TIP3    H137341   6.410   5.909   4.158
12466TIP3    H237342   6.271   5.893   4.101
12467TIP3   OH237343   0.579   7.104   5.701
12467TIP3    H137344   0.519   7.157   5.753
12467TIP3    H237345   0.616   7.166   5.638
12468TIP3   OH237346   1.944   5.018   0.750
12468TIP3    H137347   1.963   4.947   0.810
12468TIP3    H237348   1.891   5.079   0.801
12469TIP3   OH237349   3.405   0.227   3.565
12469TIP3    H137350   3.498   0.242   3.548
12469TIP3    H237351   3.376   0.305   3.612
12470TIP3   OH237352   6.258   2.369   3.788
12470TIP3    H137353   6.182   2.408   3.744
12470TIP3    H237354   6.227   2.346   3.875
12471TIP3   OH237355   1.935   1.158   5.441
12471TIP3    H137356   1.988   1.234   5.465
12471TIP3    H237357   1.946   1.148   5.347
12472TIP3   OH237358   6.515   4.569   4.391
12472TIP3    H137359   6.563   4.591   4.311
12472TIP3    H237360   6.423   4.568   4.364
12473TIP3   OH237361   8.227   2.567   3.169
12473TIP3    H137362   8.163   2.631   3.200
12473TIP3    H237363   8.246   2.514   3.245
12474TIP3   OH237364   5.585   4.680   3.492
12474TIP3    H137365   5.552   4.661   3.404
12474TIP3    H237366   5.556   4.605   3.544
12475TIP3   OH237367   7.477   4.437   2.963
12475TIP3    H137368   7.529   4.495   3.018
12475TIP3    H237369   7.396   4.485   2.945
12476TIP3   OH237370   4.663   0.669   0.302
12476TIP3    H137371   4.707   0.754   0.305
12476TIP3    H237372   4.661   0.640   0.393
12477TIP3   OH237373   0.721   7.804   6.595
12477TIP3    H137374   0.712   7.851   6.678
12477TIP3    H237375   0.742   7.714   6.620
12478TIP3   OH237376   1.204   7.634   6.099
12478TIP3    H137377   1.151   7.640   6.179
12478TIP3    H237378   1.263   7.560   6.115
12479TIP3   OH237379   3.924   5.316   1.741
12479TIP3    H137380   3.934   5.320   1.836
12479TIP3    H237381   3.899   5.405   1.716
12480TIP3   OH237382   0.126   0.344   3.883
12480TIP3    H137383   0.144   0.432   3.916
12480TIP3    H237384   0.212   0.310   3.860
12481TIP3   OH237385   6.112   6.488   4.382
12481TIP3    H137386   6.067   6.407   4.356
12481TIP3    H237387   6.128   6.477   4.476
12482TIP3   OH237388   6.913   0.856   2.186
12482TIP3    H137389   6.882   0.920   2.250
12482TIP3    H237390   7.001   0.833   2.216
12483TIP3   OH237391   4.531   3.583   5.697
12483TIP3    H137392   4.460   3.586   5.633
12483TIP3    H237393   4.610   3.574   5.644
12484TIP3   OH237394   1.141   2.148   3.621
12484TIP3    H137395   1.182   2.129   3.537
12484TIP3    H237396   1.211   2.134   3.686
12485TIP3   OH237397   7.799   5.186   1.478
12485TIP3    H137398   7.712   5.147   1.467
12485TIP3    H237399   7.859   5.112   1.471
12486TIP3   OH237400   4.401   0.547   6.342
12486TIP3    H137401   4.405   0.464   6.295
12486TIP3    H237402   4.366   0.609   6.278
12487TIP3   OH237403   3.624   1.800  -0.019
12487TIP3    H137404   3.623   1.818   0.075
12487TIP3    H237405   3.540   1.758  -0.036
12488TIP3   OH237406   4.245   2.461   0.305
12488TIP3    H137407   4.257   2.367   0.319
12488TIP3    H237408   4.269   2.501   0.388
12489TIP3   OH237409   4.752   1.887   4.665
12489TIP3    H137410   4.729   1.959   4.724
12489TIP3    H237411   4.829   1.918   4.618
12490TIP3   OH237412   6.896   6.282   6.496
12490TIP3    H137413   6.986   6.250   6.491
12490TIP3    H237414   6.875   6.308   6.406
12491TIP3   OH237415   3.320   1.979   6.600
12491TIP3    H137416   3.244   1.961   6.655
12491TIP3    H237417   3.375   1.900   6.609
12492TIP3   OH237418   2.323   3.544   3.365
12492TIP3    H137419   2.403   3.587   3.333
12492TIP3    H237420   2.351   3.501   3.446
12493TIP3   OH237421   2.096   4.979   6.607
12493TIP3    H137422   2.131   5.033   6.678
12493TIP3    H237423   2.054   5.042   6.548
12494TIP3   OH237424   1.223   0.999   1.896
12494TIP3    H137425   1.142   0.961   1.862
12494TIP3    H237426   1.288   0.930   1.885
12495TIP3   OH237427   8.111   5.881   5.825
12495TIP3    H137428   8.033   5.906   5.776
12495TIP3    H237429   8.097   5.919   5.912
12496TIP3   OH237430   0.536   6.564   3.082
12496TIP3    H137431   0.454   6.537   3.124
12496TIP3    H237432   0.598   6.494   3.103
12497TIP3   OH237433   2.637   3.376   1.539
12497TIP3    H137434   2.553   3.403   1.501
12497TIP3    H237435   2.621   3.373   1.633
12498TIP3   OH237436   2.704   1.318   1.633
12498TIP3    H137437   2.623   1.349   1.593
12498TIP3    H237438   2.740   1.256   1.569
12499TIP3   OH237439   1.856   2.309   4.978
12499TIP3    H137440   1.942   2.343   4.953
12499TIP3    H237441   1.859   2.303   5.073
12500TIP3   OH237442   1.854   5.593   1.839
12500TIP3    H137443   1.786   5.529   1.815
12500TIP3    H237444   1.813   5.678   1.824
12501TIP3   OH237445   0.750   5.215   4.506
12501TIP3    H137446   0.710   5.139   4.549
12501TIP3    H237447   0.841   5.213   4.534
12502TIP3   OH237448   4.919   6.268   6.074
12502TIP3    H137449   4.915   6.322   6.153
12502TIP3    H237450   4.840   6.290   6.025
12503TIP3   OH237451   5.729   6.730   2.078
12503TIP3    H137452   5.668   6.725   2.004
12503TIP3    H237453   5.762   6.820   2.075
12504TIP3   OH237454   7.794   5.303   3.331
12504TIP3    H137455   7.767   5.339   3.247
12504TIP3    H237456   7.821   5.379   3.382
12505TIP3   OH237457   1.301   6.056   5.880
12505TIP3    H137458   1.283   5.981   5.937
12505TIP3    H237459   1.313   6.130   5.939
12506TIP3   OH237460   5.121   1.726   0.655
12506TIP3    H137461   5.152   1.814   0.677
12506TIP3    H237462   5.042   1.715   0.708
12507TIP3   OH237463   2.249   2.026   0.036
12507TIP3    H137464   2.269   1.973  -0.041
12507TIP3    H237465   2.264   1.968   0.110
12508TIP3   OH237466   2.828   2.248   4.513
12508TIP3    H137467   2.880   2.211   4.442
12508TIP3    H237468   2.892   2.288   4.572
12509TIP3   OH237469   5.691   2.808   4.733
12509TIP3    H137470   5.677   2.716   4.711
12509TIP3    H237471   5.673   2.855   4.652
12510TIP3   OH237472   8.007   6.990   1.313
12510TIP3    H137473   7.958   6.955   1.238
12510TIP3    H237474   8.076   7.043   1.274
12511TIP3   OH237475   1.374   0.782   1.950
12511TIP3    H137476   1.449   0.808   2.003
12511TIP3    H237477   1.299   0.790   2.009
12512TIP3   OH237478   0.961   2.196   5.824
12512TIP3    H137479   0.930   2.155   5.905
12512TIP3    H237480   0.992   2.123   5.770
12513TIP3   OH237481   4.072   7.275   5.735
12513TIP3    H137482   4.134   7.236   5.795
12513TIP3    H237483   4.012   7.204   5.713
12514TIP3   OH237484   5.238   2.888   0.911
12514TIP3    H137485   5.185   2.833   0.969
12514TIP3    H237486   5.186   2.895   0.831
12515TIP3   OH237487   5.773   1.897   0.441
12515TIP3    H137488   5.736   1.811   0.461
12515TIP3    H237489   5.863   1.878   0.414
12516TIP3   OH237490   4.102   0.463   3.986
12516TIP3    H137491   4.155   0.429   4.058
12516TIP3    H237492   4.135   0.417   3.908
12517TIP3   OH237493   0.662   1.731   4.171
12517TIP3    H137494   0.666   1.640   4.142
12517TIP3    H237495   0.694   1.782   4.097
12518TIP3   OH237496   4.543   2.726   1.755
12518TIP3    H137497   4.508   2.693   1.672
12518TIP3    H237498   4.564   2.818   1.737
12519TIP3   OH237499   3.964   6.945   4.725
12519TIP3    H137500   3.988   7.037   4.730
12519TIP3    H237501   3.887   6.937   4.781
12520TIP3   OH237502   4.711   2.012   6.759
12520TIP3    H137503   4.698   2.088   6.702
12520TIP3    H237504   4.694   1.937   6.702
12521TIP3   OH237505   4.026   4.628   0.373
12521TIP3    H137506   3.980   4.710   0.387
12521TIP3    H237507   3.988   4.592   0.293
12522TIP3   OH237508   3.100   4.745   4.898
12522TIP3    H137509   3.126   4.728   4.808
12522TIP3    H237510   3.181   4.734   4.949
12523TIP3   OH237511   1.886   6.455   0.711
12523TIP3    H137512   1.860   6.365   0.730
12523TIP3    H237513   1.829   6.483   0.640
12524TIP3   OH237514   1.693   0.771   1.242
12524TIP3    H137515   1.601   0.761   1.268
12524TIP3    H237516   1.715   0.862   1.263
12525TIP3   OH237517   6.921   7.470   2.883
12525TIP3    H137518   6.876   7.532   2.940
12525TIP3    H237519   6.930   7.391   2.936
12526TIP3   OH237520   5.749   3.662   6.653
12526TIP3    H137521   5.822   3.672   6.715
12526TIP3    H237522   5.731   3.751   6.622
12527TIP3   OH237523   4.235   7.427   0.061
12527TIP3    H137524   4.294   7.464  -0.005
12527TIP3    H237525   4.165   7.387   0.011
12528TIP3   OH237526   4.309   7.717   5.413
12528TIP3    H137527   4.272   7.672   5.489
12528TIP3    H237528   4.309   7.810   5.438
12529TIP3   OH237529   5.630   2.648   0.825
12529TIP3    H137530   5.592   2.564   0.800
12529TIP3    H237531   5.581   2.674   0.904
12530TIP3   OH237532   3.006   4.678   4.458
12530TIP3    H137533   2.931   4.717   4.413
12530TIP3    H237534   3.063   4.649   4.387
12531TIP3   OH237535   6.688   6.291   0.629
12531TIP3    H137536   6.689   6.267   0.536
12531TIP3    H237537   6.749   6.231   0.671
12532TIP3   OH237538   4.651   4.827   1.320
12532TIP3    H137539   4.616   4.738   1.321
12532TIP3    H237540   4.645   4.854   1.229
12533TIP3   OH237541   7.382   7.315   3.075
12533TIP3    H137542   7.357   7.297   3.165
12533TIP3    H237543   7.404   7.408   3.073
12534TIP3   OH237544   5.660   2.471   4.980
12534TIP3    H137545   5.584   2.428   4.941
12534TIP3    H237546   5.733   2.449   4.922
12535TIP3   OH237547   6.080   4.830   4.680
12535TIP3    H137548   6.124   4.908   4.643
12535TIP3    H237549   6.105   4.759   4.621
12536TIP3   OH237550   2.342   4.081   2.429
12536TIP3    H137551   2.431   4.104   2.403
12536TIP3    H237552   2.350   4.061   2.523
12537TIP3   OH237553   0.139   4.980   2.227
12537TIP3    H137554   0.132   4.886   2.243
12537TIP3    H237555   0.067   4.999   2.166
12538TIP3   OH237556   2.866   6.818   4.347
12538TIP3    H137557   2.790   6.872   4.326
12538TIP3    H237558   2.926   6.831   4.273
12539TIP3   OH237559   2.623   4.097   5.590
12539TIP3    H137560   2.562   4.066   5.656
12539TIP3    H237561   2.569   4.111   5.512
12540TIP3   OH237562   0.391   1.867   5.189
12540TIP3    H137563   0.404   1.823   5.273
12540TIP3    H237564   0.381   1.959   5.212
12541TIP3   OH237565   4.562   3.303   6.559
12541TIP3    H137566   4.611   3.359   6.498
12541TIP3    H237567   4.471   3.308   6.528
12542TIP3   OH237568   3.370   4.397   0.762
12542TIP3    H137569   3.327   4.313   0.778
12542TIP3    H237570   3.299   4.457   0.742
12543TIP3   OH237571   3.180   5.180   2.836
12543TIP3    H137572   3.127   5.127   2.777
12543TIP3    H237573   3.269   5.175   2.799
12544TIP3   OH237574   1.635   4.008   1.650
12544TIP3    H137575   1.645   3.983   1.742
12544TIP3    H237576   1.541   4.004   1.634
12545TIP3   OH237577   0.130   2.657   5.006
12545TIP3    H137578   0.170   2.737   5.039
12545TIP3    H237579   0.156   2.654   4.914
12546TIP3   OH237580   2.337   2.892   0.820
12546TIP3    H137581   2.345   2.865   0.912
12546TIP3    H237582   2.243   2.893   0.804
12547TIP3   OH237583   5.571   0.850   4.563
12547TIP3    H137584   5.495   0.811   4.519
12547TIP3    H237585   5.646   0.802   4.527
12548TIP3   OH237586   5.517   6.964   3.411
12548TIP3    H137587   5.566   7.011   3.344
12548TIP3    H237588   5.441   6.929   3.364
12549TIP3   OH237589   4.839   1.953   5.675
12549TIP3    H137590   4.874   2.035   5.640
12549TIP3    H237591   4.916   1.903   5.702
12550TIP3   OH237592   5.277   4.466   4.934
12550TIP3    H137593   5.201   4.451   4.991
12550TIP3    H237594   5.349   4.421   4.978
12551TIP3   OH237595   7.471   5.927   6.000
12551TIP3    H137596   7.542   5.881   6.045
12551TIP3    H237597   7.401   5.862   5.993
12552TIP3   OH237598   1.245   5.643   3.968
12552TIP3    H137599   1.173   5.599   4.015
12552TIP3    H237600   1.206   5.669   3.885
12553TIP3   OH237601   1.641   3.376   2.829
12553TIP3    H137602   1.634   3.310   2.759
12553TIP3    H237603   1.724   3.356   2.872
12554TIP3   OH237604   7.940   7.200   2.418
12554TIP3    H137605   7.879   7.248   2.361
12554TIP3    H237606   7.885   7.137   2.464
12555TIP3   OH237607   5.062   6.664   3.303
12555TIP3    H137608   4.976   6.630   3.328
12555TIP3    H237609   5.065   6.653   3.207
12556TIP3   OH237610   8.220   7.631   0.214
12556TIP3    H137611   8.194   7.681   0.291
12556TIP3    H237612   8.228   7.696   0.144
12557TIP3   OH237613   1.313   1.190   6.064
12557TIP3    H137614   1.371   1.185   6.140
12557TIP3    H237615   1.237   1.238   6.095
12558TIP3   OH237616   2.942   2.972   4.126
12558TIP3    H137617   2.963   2.939   4.039
12558TIP3    H237618   2.981   3.060   4.129
12559TIP3   OH237619   1.602   7.064   0.939
12559TIP3    H137620   1.677   7.076   0.882
12559TIP3    H237621   1.594   6.969   0.950
12560TIP3   OH237622   5.381   7.714   5.879
12560TIP3    H137623   5.418   7.793   5.919
12560TIP3    H237624   5.321   7.747   5.812
12561TIP3   OH237625   1.501   0.345   6.258
12561TIP3    H137626   1.553   0.312   6.330
12561TIP3    H237627   1.462   0.426   6.291
12562TIP3   OH237628   6.499   6.736   0.368
12562TIP3    H137629   6.416   6.725   0.415
12562TIP3    H237630   6.529   6.647   0.351
12563TIP3   OH237631   5.230   4.205   1.583
12563TIP3    H137632   5.280   4.281   1.613
12563TIP3    H237633   5.279   4.130   1.613
12564TIP3   OH237634   5.581   3.694   3.082
12564TIP3    H137635   5.593   3.611   3.128
12564TIP3    H237636   5.654   3.749   3.111
12565TIP3   OH237637   4.257   6.180   2.249
12565TIP3    H137638   4.261   6.200   2.155
12565TIP3    H237639   4.182   6.121   2.257
12566TIP3   OH237640   0.927   5.304   5.423
12566TIP3    H137641   0.887   5.391   5.418
12566TIP3    H237642   0.957   5.285   5.334
12567TIP3   OH237643   6.216   5.151   5.021
12567TIP3    H137644   6.296   5.120   4.978
12567TIP3    H237645   6.233   5.141   5.114
12568TIP3   OH237646   1.641   5.589   0.935
12568TIP3    H137647   1.596   5.531   0.996
12568TIP3    H237648   1.724   5.543   0.916
12569TIP3   OH237649   4.621   1.668   4.144
12569TIP3    H137650   4.615   1.638   4.053
12569TIP3    H237651   4.530   1.672   4.174
12570TIP3   OH237652   1.799   3.047   3.466
12570TIP3    H137653   1.790   3.104   3.390
12570TIP3    H237654   1.789   3.106   3.541
12571TIP3   OH237655   1.157   0.376   1.478
12571TIP3    H137656   1.194   0.392   1.565
12571TIP3    H237657   1.196   0.293   1.450
12572TIP3   OH237658   2.395   2.381   0.288
12572TIP3    H137659   2.356   2.373   0.375
12572TIP3    H237660   2.421   2.473   0.282
12573TIP3   OH237661   3.569   7.245   6.338
12573TIP3    H137662   3.571   7.277   6.429
12573TIP3    H237663   3.610   7.159   6.342
12574TIP3   OH237664   7.606   1.686   2.808
12574TIP3    H137665   7.674   1.731   2.858
12574TIP3    H237666   7.552   1.757   2.773
12575TIP3   OH237667   3.148   4.805   0.864
12575TIP3    H137668   3.106   4.889   0.848
12575TIP3    H237669   3.180   4.810   0.954
12576TIP3   OH237670   6.575   5.024   5.138
12576TIP3    H137671   6.644   5.061   5.194
12576TIP3    H237672   6.622   4.985   5.065
12577TIP3   OH237673   4.268   0.852   5.619
12577TIP3    H137674   4.206   0.925   5.625
12577TIP3    H237675   4.232   0.795   5.552
12578TIP3   OH237676   4.895   0.019   0.656
12578TIP3    H137677   4.867   0.082   0.723
12578TIP3    H237678   4.814  -0.005   0.610
12579TIP3   OH237679   4.407   7.524   2.728
12579TIP3    H137680   4.493   7.484   2.713
12579TIP3    H237681   4.362   7.463   2.787
12580TIP3   OH237682   0.984   2.603   5.533
12580TIP3    H137683   1.075   2.630   5.516
12580TIP3    H237684   0.939   2.684   5.557
12581TIP3   OH237685   1.098   0.518   2.460
12581TIP3    H137686   1.163   0.526   2.529
12581TIP3    H237687   1.052   0.602   2.461
12582TIP3   OH237688   3.999   3.175   6.036
12582TIP3    H137689   3.968   3.129   6.115
12582TIP3    H237690   3.964   3.123   5.963
12583TIP3   OH237691   6.235   5.988   3.323
12583TIP3    H137692   6.222   6.083   3.331
12583TIP3    H237693   6.283   5.977   3.241
12584TIP3   OH237694   1.839   0.543   5.589
12584TIP3    H137695   1.933   0.529   5.577
12584TIP3    H237696   1.824   0.633   5.562
12585TIP3   OH237697   4.740   5.681   3.352
12585TIP3    H137698   4.811   5.658   3.412
12585TIP3    H237699   4.660   5.661   3.402
12586TIP3   OH237700   3.750   3.942   0.841
12586TIP3    H137701   3.691   3.986   0.780
12586TIP3    H237702   3.693   3.903   0.907
12587TIP3   OH237703   2.831   7.373   2.739
12587TIP3    H137704   2.914   7.337   2.709
12587TIP3    H237705   2.775   7.371   2.661
12588TIP3   OH237706   5.949   6.617   4.192
12588TIP3    H137707   5.995   6.698   4.169
12588TIP3    H237708   6.016   6.562   4.232
12589TIP3   OH237709   7.494   5.077   4.131
12589TIP3    H137710   7.437   5.104   4.059
12589TIP3    H237711   7.563   5.026   4.089
12590TIP3   OH237712   6.542   5.208   1.813
12590TIP3    H137713   6.469   5.176   1.866
12590TIP3    H237714   6.603   5.134   1.809
12591TIP3   OH237715   6.220   6.524   2.487
12591TIP3    H137716   6.197   6.431   2.482
12591TIP3    H237717   6.209   6.556   2.397
12592TIP3   OH237718   2.553   5.208   2.247
12592TIP3    H137719   2.497   5.262   2.191
12592TIP3    H237720   2.621   5.268   2.278
12593TIP3   OH237721   8.037   5.638   1.225
12593TIP3    H137722   7.978   5.710   1.202
12593TIP3    H237723   8.120   5.681   1.244
12594TIP3   OH237724   8.202   4.205   3.209
12594TIP3    H137725   8.222   4.155   3.130
12594TIP3    H237726   8.249   4.287   3.198
12595TIP3   OH237727   1.269   4.651   5.804
12595TIP3    H137728   1.244   4.718   5.867
12595TIP3    H237729   1.186   4.610   5.779
12596TIP3   OH237730   5.628   1.886   2.852
12596TIP3    H137731   5.668   1.969   2.874
12596TIP3    H237732   5.586   1.857   2.933
12597TIP3   OH237733   6.229   2.177   4.880
12597TIP3    H137734   6.324   2.183   4.871
12597TIP3    H237735   6.195   2.230   4.807
12598TIP3   OH237736   2.863   7.445   4.805
12598TIP3    H137737   2.884   7.442   4.898
12598TIP3    H237738   2.877   7.355   4.774
12599TIP3   OH237739   5.488   3.280   5.094
12599TIP3    H137740   5.422   3.220   5.058
12599TIP3    H237741   5.439   3.335   5.156
12600TIP3   OH237742   6.877   0.397   1.791
12600TIP3    H137743   6.933   0.469   1.819
12600TIP3    H237744   6.865   0.411   1.697
12601TIP3   OH237745   2.796   1.311   6.723
12601TIP3    H137746   2.733   1.319   6.794
12601TIP3    H237747   2.780   1.388   6.668
12602TIP3   OH237748   4.387   5.159   1.391
12602TIP3    H137749   4.334   5.082   1.369
12602TIP3    H237750   4.353   5.188   1.476
12603TIP3   OH237751   4.204   6.454   1.012
12603TIP3    H137752   4.146   6.510   0.960
12603TIP3    H237753   4.264   6.416   0.949
12604TIP3   OH237754   5.349   0.963   4.802
12604TIP3    H137755   5.361   1.057   4.787
12604TIP3    H237756   5.436   0.931   4.825
12605TIP3   OH237757   3.460   5.532   0.152
12605TIP3    H137758   3.555   5.527   0.159
12605TIP3    H237759   3.442   5.625   0.136
12606TIP3   OH237760   5.444   7.801   6.178
12606TIP3    H137761   5.539   7.797   6.167
12606TIP3    H237762   5.420   7.888   6.146
12607TIP3   OH237763   3.253   6.242   6.387
12607TIP3    H137764   3.229   6.211   6.475
12607TIP3    H237765   3.188   6.202   6.329
12608TIP3   OH237766   1.861   0.015   0.425
12608TIP3    H137767   1.819  -0.038   0.493
12608TIP3    H237768   1.950   0.028   0.456
12609TIP3   OH237769   2.135   4.563   5.721
12609TIP3    H137770   2.048   4.597   5.740
12609TIP3    H237771   2.185   4.575   5.802
12610TIP3   OH237772   1.052   1.796   3.528
12610TIP3    H137773   0.970   1.747   3.531
12610TIP3    H237774   1.048   1.854   3.604
12611TIP3   OH237775   6.932   1.827   2.625
12611TIP3    H137776   6.886   1.889   2.568
12611TIP3    H237777   7.002   1.878   2.665
12612TIP3   OH237778   1.343   3.520   0.777
12612TIP3    H137779   1.404   3.508   0.704
12612TIP3    H237780   1.268   3.565   0.738
12613TIP3   OH237781   7.789   7.571   2.923
12613TIP3    H137782   7.885   7.573   2.930
12613TIP3    H237783   7.764   7.664   2.922
12614TIP3   OH237784   2.223   5.946   5.025
12614TIP3    H137785   2.216   5.891   4.947
12614TIP3    H237786   2.310   5.928   5.060
12615TIP3   OH237787   8.037   3.727   2.051
12615TIP3    H137788   7.957   3.759   2.008
12615TIP3    H237789   8.108   3.767   2.001
12616TIP3   OH237790   5.583   1.570   2.220
12616TIP3    H137791   5.666   1.618   2.217
12616TIP3    H237792   5.545   1.583   2.133
12617TIP3   OH237793   8.022   7.397   0.202
12617TIP3    H137794   7.967   7.408   0.279
12617TIP3    H237795   8.090   7.463   0.211
12618TIP3   OH237796   5.710   4.360   6.659
12618TIP3    H137797   5.627   4.361   6.611
12618TIP3    H237798   5.688   4.326   6.745
12619TIP3   OH237799   2.553   3.188   3.466
12619TIP3    H137800   2.543   3.283   3.471
12619TIP3    H237801   2.514   3.155   3.547
12620TIP3   OH237802   4.893   2.662   4.869
12620TIP3    H137803   4.876   2.677   4.962
12620TIP3    H237804   4.822   2.707   4.823
12621TIP3   OH237805   4.557   5.124   3.304
12621TIP3    H137806   4.579   5.109   3.396
12621TIP3    H237807   4.462   5.110   3.300
12622TIP3   OH237808   1.204   4.448   2.404
12622TIP3    H137809   1.164   4.362   2.393
12622TIP3    H237810   1.214   4.482   2.315
12623TIP3   OH237811   1.832   4.464   4.809
12623TIP3    H137812   1.739   4.444   4.794
12623TIP3    H237813   1.864   4.392   4.863
12624TIP3   OH237814   7.333   0.980   5.513
12624TIP3    H137815   7.270   0.908   5.507
12624TIP3    H237816   7.299   1.035   5.583
12625TIP3   OH237817   8.143   3.281   0.472
12625TIP3    H137818   8.077   3.349   0.457
12625TIP3    H237819   8.146   3.271   0.567
12626TIP3   OH237820   4.448   4.563   0.418
12626TIP3    H137821   4.527   4.515   0.444
12626TIP3    H237822   4.447   4.640   0.476
12627TIP3   OH237823   6.688   3.083   1.121
12627TIP3    H137824   6.746   3.030   1.067
12627TIP3    H237825   6.705   3.054   1.211
12628TIP3   OH237826   6.878   6.283   4.343
12628TIP3    H137827   6.813   6.346   4.313
12628TIP3    H237828   6.884   6.298   4.438
12629TIP3   OH237829   0.234   5.493   2.753
12629TIP3    H137830   0.209   5.492   2.660
12629TIP3    H237831   0.223   5.403   2.781
12630TIP3   OH237832   4.792   4.861   5.688
12630TIP3    H137833   4.769   4.933   5.629
12630TIP3    H237834   4.781   4.897   5.776
12631TIP3   OH237835   1.686   0.061   1.408
12631TIP3    H137836   1.770   0.063   1.363
12631TIP3    H237837   1.637  -0.008   1.363
12632TIP3   OH237838   3.763   3.185   0.352
12632TIP3    H137839   3.710   3.105   0.344
12632TIP3    H237840   3.705   3.255   0.322
12633TIP3   OH237841   4.628   6.656   6.064
12633TIP3    H137842   4.697   6.693   6.119
12633TIP3    H237843   4.587   6.732   6.022
12634TIP3   OH237844   0.151   6.936   0.164
12634TIP3    H137845   0.187   6.964   0.080
12634TIP3    H237846   0.209   6.865   0.192
12635TIP3   OH237847   5.423  -0.003   4.718
12635TIP3    H137848   5.341   0.038   4.743
12635TIP3    H237849   5.484   0.019   4.789
12636TIP3   OH237850   4.156   1.670   2.343
12636TIP3    H137851   4.130   1.761   2.362
12636TIP3    H237852   4.158   1.628   2.429
12637TIP3   OH237853   2.478   7.506   2.823
12637TIP3    H137854   2.537   7.580   2.809
12637TIP3    H237855   2.488   7.484   2.915
12638TIP3   OH237856   8.153   3.242   3.731
12638TIP3    H137857   8.227   3.233   3.791
12638TIP3    H237858   8.186   3.210   3.647
12639TIP3   OH237859   2.663   6.982   6.560
12639TIP3    H137860   2.675   7.075   6.581
12639TIP3    H237861   2.607   6.982   6.483
12640TIP3   OH237862   5.849   6.685   6.615
12640TIP3    H137863   5.801   6.655   6.538
12640TIP3    H237864   5.829   6.778   6.620
12641TIP3   OH237865   6.629   6.952   6.459
12641TIP3    H137866   6.641   6.891   6.532
12641TIP3    H237867   6.698   7.017   6.471
12642TIP3   OH237868   1.687   5.831   1.713
12642TIP3    H137869   1.682   5.880   1.631
12642TIP3    H237870   1.596   5.818   1.739
12643TIP3   OH237871   0.936   3.715   4.467
12643TIP3    H137872   0.888   3.635   4.491
12643TIP3    H237873   0.926   3.722   4.373
12644TIP3   OH237874   4.750   3.836   5.413
12644TIP3    H137875   4.754   3.746   5.445
12644TIP3    H237876   4.838   3.871   5.429
12645TIP3   OH237877   4.213   4.466   0.065
12645TIP3    H137878   4.203   4.550   0.020
12645TIP3    H237879   4.182   4.484   0.154
12646TIP3   OH237880   5.482   4.612  -0.022
12646TIP3    H137881   5.574   4.639  -0.025
12646TIP3    H237882   5.470   4.581   0.068
12647TIP3   OH237883   6.341   5.087   1.994
12647TIP3    H137884   6.356   5.020   2.060
12647TIP3    H237885   6.251   5.115   2.008
12648TIP3   OH237886   5.207   1.986   4.480
12648TIP3    H137887   5.288   1.947   4.446
12648TIP3    H237888   5.214   2.079   4.459
12649TIP3   OH237889   4.332   0.336   5.225
12649TIP3    H137890   4.318   0.271   5.156
12649TIP3    H237891   4.308   0.419   5.184
12650TIP3   OH237892   5.351   5.754   3.030
12650TIP3    H137893   5.342   5.759   2.935
12650TIP3    H237894   5.417   5.687   3.045
12651TIP3   OH237895   5.215   1.874   1.656
12651TIP3    H137896   5.174   1.952   1.621
12651TIP3    H237897   5.150   1.837   1.716
12652TIP3   OH237898   6.918   5.777   1.497
12652TIP3    H137899   6.867   5.830   1.558
12652TIP3    H237900   6.862   5.768   1.420
12653TIP3   OH237901   5.969   7.463   0.394
12653TIP3    H137902   6.057   7.425   0.397
12653TIP3    H237903   5.981   7.547   0.351
12654TIP3   OH237904   3.251   1.454   5.870
12654TIP3    H137905   3.211   1.426   5.953
12654TIP3    H237906   3.210   1.398   5.804
12655TIP3   OH237907   5.223   4.973   4.760
12655TIP3    H137908   5.165   4.950   4.688
12655TIP3    H237909   5.239   4.890   4.805
12656TIP3   OH237910   0.962   6.454   2.078
12656TIP3    H137911   1.024   6.524   2.099
12656TIP3    H237912   0.987   6.425   1.990
12657TIP3   OH237913   7.307   4.894   1.962
12657TIP3    H137914   7.232   4.865   2.015
12657TIP3    H237915   7.269   4.945   1.891
12658TIP3   OH237916   5.527   3.313   2.544
12658TIP3    H137917   5.492   3.397   2.573
12658TIP3    H237918   5.473   3.289   2.469
12659TIP3   OH237919   5.031   0.186   5.990
12659TIP3    H137920   4.964   0.145   6.045
12659TIP3    H237921   5.064   0.259   6.043
12660TIP3   OH237922   4.207   2.347   5.568
12660TIP3    H137923   4.291   2.389   5.588
12660TIP3    H237924   4.205   2.342   5.473
12661TIP3   OH237925   4.748   2.599   0.803
12661TIP3    H137926   4.701   2.523   0.837
12661TIP3    H237927   4.812   2.562   0.743
12662TIP3   OH237928   4.839   2.638   3.019
12662TIP3    H137929   4.750   2.624   2.988
12662TIP3    H237930   4.878   2.698   2.955
12663TIP3   OH237931   3.536   2.208   6.422
12663TIP3    H137932   3.608   2.240   6.476
12663TIP3    H237933   3.457   2.236   6.468
12664TIP3   OH237934   3.651   1.367   2.991
12664TIP3    H137935   3.639   1.461   3.001
12664TIP3    H237936   3.718   1.344   3.055
12665TIP3   OH237937   2.476   0.593   2.673
12665TIP3    H137938   2.487   0.687   2.687
12665TIP3    H237939   2.387   0.583   2.641
12666TIP3   OH237940   7.259   4.176   1.122
12666TIP3    H137941   7.190   4.192   1.059
12666TIP3    H237942   7.259   4.081   1.134
12667TIP3   OH237943   2.310   6.871   3.663
12667TIP3    H137944   2.270   6.931   3.725
12667TIP3    H237945   2.403   6.896   3.661
12668TIP3   OH237946   0.760   1.410   3.434
12668TIP3    H137947   0.721   1.358   3.363
12668TIP3    H237948   0.686   1.443   3.483
12669TIP3   OH237949   4.958   2.336   6.529
12669TIP3    H137950   4.932   2.362   6.617
12669TIP3    H237951   4.877   2.340   6.478
12670TIP3   OH237952   5.772   2.815   2.952
12670TIP3    H137953   5.694   2.773   2.917
12670TIP3    H237954   5.764   2.806   3.047
12671TIP3   OH237955   2.588   3.104   4.084
12671TIP3    H137956   2.571   3.036   4.019
12671TIP3    H237957   2.517   3.095   4.148
12672TIP3   OH237958   0.589   5.445   1.556
12672TIP3    H137959   0.547   5.359   1.551
12672TIP3    H237960   0.597   5.462   1.650
12673TIP3   OH237961   8.183   1.135   6.155
12673TIP3    H137962   8.136   1.074   6.211
12673TIP3    H237963   8.271   1.140   6.193
12674TIP3   OH237964   2.101   4.370   6.695
12674TIP3    H137965   2.056   4.287   6.679
12674TIP3    H237966   2.128   4.400   6.608
12675TIP3   OH237967   2.160   2.231   6.618
12675TIP3    H137968   2.232   2.292   6.607
12675TIP3    H237969   2.187   2.154   6.568
12676TIP3   OH237970   4.432   5.180   5.112
12676TIP3    H137971   4.513   5.211   5.153
12676TIP3    H237972   4.413   5.097   5.156
12677TIP3   OH237973   7.011   7.555   2.029
12677TIP3    H137974   7.012   7.466   2.065
12677TIP3    H237975   7.079   7.554   1.962
12678TIP3   OH237976   7.169   5.981   2.622
12678TIP3    H137977   7.152   6.057   2.678
12678TIP3    H237978   7.261   5.960   2.638
12679TIP3   OH237979   4.117   1.846   6.097
12679TIP3    H137980   4.026   1.822   6.077
12679TIP3    H237981   4.161   1.845   6.013
12680TIP3   OH237982   0.665   4.541   4.575
12680TIP3    H137983   0.582   4.586   4.588
12680TIP3    H237984   0.648   4.451   4.603
12681TIP3   OH237985   4.219   6.931   3.686
12681TIP3    H137986   4.239   6.975   3.769
12681TIP3    H237987   4.232   6.838   3.705
12682TIP3   OH237988   2.178   6.424   3.577
12682TIP3    H137989   2.214   6.473   3.502
12682TIP3    H237990   2.256   6.391   3.622
12683TIP3   OH237991   4.044   6.446   2.052
12683TIP3    H137992   4.017   6.365   2.095
12683TIP3    H237993   4.090   6.495   2.120
12684TIP3   OH237994   6.470   4.506   0.702
12684TIP3    H137995   6.506   4.508   0.613
12684TIP3    H237996   6.487   4.416   0.732
12685TIP3   OH237997   6.261   4.731   2.545
12685TIP3    H137998   6.174   4.771   2.550
12685TIP3    H237999   6.248   4.642   2.580
12686TIP3   OH238000   6.677   3.587   6.256
12686TIP3    H138001   6.690   3.676   6.225
12686TIP3    H238002   6.589   3.563   6.226
12687TIP3   OH238003   1.754   0.500   1.144
12687TIP3    H138004   1.737   0.589   1.175
12687TIP3    H238005   1.668   0.465   1.121
12688TIP3   OH238006   5.717   5.855   4.063
12688TIP3    H138007   5.696   5.770   4.102
12688TIP3    H238008   5.642   5.910   4.083
12689TIP3   OH238009   0.994   3.162   4.907
12689TIP3    H138010   0.920   3.116   4.947
12689TIP3    H238011   1.052   3.092   4.876
12690TIP3   OH238012   0.311   7.445   4.324
12690TIP3    H138013   0.322   7.415   4.414
12690TIP3    H238014   0.399   7.471   4.296
12691TIP3   OH238015   2.983   1.941   0.397
12691TIP3    H138016   2.946   1.914   0.313
12691TIP3    H238017   3.071   1.903   0.398
12692TIP3   OH238018   3.993   4.954   1.362
12692TIP3    H138019   4.087   4.967   1.365
12692TIP3    H238020   3.978   4.905   1.281
12693TIP3   OH238021   0.178   6.213   3.974
12693TIP3    H138022   0.273   6.203   3.982
12693TIP3    H238023   0.143   6.129   4.004
12694TIP3   OH238024   2.599   5.240   1.775
12694TIP3    H138025   2.505   5.237   1.795
12694TIP3    H238026   2.617   5.155   1.735
12695TIP3   OH238027   1.086   2.358   6.022
12695TIP3    H138028   1.038   2.430   6.063
12695TIP3    H238029   1.044   2.346   5.937
12696TIP3   OH238030   8.038   6.890   2.429
12696TIP3    H138031   7.952   6.924   2.404
12696TIP3    H238032   8.095   6.909   2.355
12697TIP3   OH238033   1.347   0.083   1.236
12697TIP3    H138034   1.430   0.056   1.275
12697TIP3    H238035   1.291   0.107   1.310
12698TIP3   OH238036   7.106   7.772   3.056
12698TIP3    H138037   7.177   7.833   3.039
12698TIP3    H238038   7.103   7.716   2.978
12699TIP3   OH238039   6.415   4.791   0.772
12699TIP3    H138040   6.390   4.805   0.681
12699TIP3    H238041   6.452   4.702   0.772
12700TIP3   OH238042   7.479   2.575   2.962
12700TIP3    H138043   7.498   2.656   3.009
12700TIP3    H238044   7.417   2.529   3.018
12701TIP3   OH238045   8.103   1.750   3.729
12701TIP3    H138046   8.171   1.698   3.686
12701TIP3    H238047   8.044   1.777   3.659
12702TIP3   OH238048   7.243   4.956   0.946
12702TIP3    H138049   7.238   5.050   0.928
12702TIP3    H238050   7.336   4.938   0.959
12703TIP3   OH238051   4.655   7.380   2.671
12703TIP3    H138052   4.737   7.330   2.666
12703TIP3    H238053   4.614   7.367   2.586
12704TIP3   OH238054   5.613   4.341   1.526
12704TIP3    H138055   5.532   4.353   1.575
12704TIP3    H238056   5.679   4.391   1.574
12705TIP3   OH238057   6.197   7.170   1.807
12705TIP3    H138058   6.253   7.246   1.795
12705TIP3    H238059   6.129   7.200   1.867
12706TIP3   OH238060   5.496   3.357   3.905
12706TIP3    H138061   5.516   3.266   3.928
12706TIP3    H238062   5.542   3.372   3.822
12707TIP3   OH238063   2.652   1.856   3.109
12707TIP3    H138064   2.613   1.935   3.072
12707TIP3    H238065   2.591   1.786   3.085
12708TIP3   OH238066   8.075   5.049  -0.024
12708TIP3    H138067   8.155   5.008  -0.056
12708TIP3    H238068   8.060   5.008   0.062
12709TIP3   OH238069   8.003   0.453   3.010
12709TIP3    H138070   8.018   0.453   3.105
12709TIP3    H238071   7.996   0.545   2.987
12710TIP3   OH238072   0.579   5.188   0.889
12710TIP3    H138073   0.603   5.278   0.914
12710TIP3    H238074   0.626   5.173   0.808
12711TIP3   OH238075   8.279   3.871   4.791
12711TIP3    H138076   8.266   3.876   4.696
12711TIP3    H238077   8.196   3.901   4.828
12712TIP3   OH238078   3.912   3.135   0.911
12712TIP3    H138079   3.901   3.074   0.984
12712TIP3    H238080   3.934   3.080   0.836
12713TIP3   OH238081   1.744   4.788   1.222
12713TIP3    H138082   1.760   4.795   1.128
12713TIP3    H238083   1.662   4.836   1.236
12714TIP3   OH238084   6.038   4.459   0.832
12714TIP3    H138085   6.045   4.404   0.753
12714TIP3    H238086   6.058   4.547   0.802
12715TIP3   OH238087   7.221   4.203   1.912
12715TIP3    H138088   7.226   4.295   1.886
12715TIP3    H238089   7.307   4.184   1.948
12716TIP3   OH238090   4.515   5.701   5.380
12716TIP3    H138091   4.427   5.674   5.355
12716TIP3    H238092   4.512   5.797   5.380
12717TIP3   OH238093   2.797   4.028   5.111
12717TIP3    H138094   2.801   4.005   5.203
12717TIP3    H238095   2.703   4.042   5.094
12718TIP3   OH238096   1.335   1.723   4.710
12718TIP3    H138097   1.258   1.682   4.750
12718TIP3    H238098   1.341   1.683   4.623
12719TIP3   OH238099   4.056   0.320   6.537
12719TIP3    H138100   4.129   0.257   6.537
12719TIP3    H238101   4.035   0.332   6.444
12720TIP3   OH238102   4.853   4.324   4.909
12720TIP3    H138103   4.860   4.420   4.902
12720TIP3    H238104   4.817   4.309   4.997
12721TIP3   OH238105   0.418   2.397   5.570
12721TIP3    H138106   0.452   2.307   5.567
12721TIP3    H238107   0.414   2.418   5.664
12722TIP3   OH238108   3.387   6.847   3.989
12722TIP3    H138109   3.322   6.850   4.060
12722TIP3    H238110   3.412   6.754   3.984
12723TIP3   OH238111   2.522   4.911   2.857
12723TIP3    H138112   2.477   4.867   2.785
12723TIP3    H238113   2.611   4.925   2.825
12724TIP3   OH238114   2.339   7.291   0.423
12724TIP3    H138115   2.415   7.282   0.366
12724TIP3    H238116   2.362   7.361   0.484
12725TIP3   OH238117   2.783   6.777   3.133
12725TIP3    H138118   2.718   6.757   3.066
12725TIP3    H238119   2.866   6.746   3.096
12726TIP3   OH238120   6.263   0.307   1.784
12726TIP3    H138121   6.265   0.340   1.874
12726TIP3    H238122   6.309   0.373   1.733
12727TIP3   OH238123   5.298   2.096   2.892
12727TIP3    H138124   5.254   2.124   2.972
12727TIP3    H238125   5.303   2.001   2.898
12728TIP3   OH238126   7.506   5.273   3.166
12728TIP3    H138127   7.519   5.243   3.076
12728TIP3    H238128   7.582   5.240   3.214
12729TIP3   OH238129   5.516   4.659   3.205
12729TIP3    H138130   5.556   4.597   3.144
12729TIP3    H238131   5.428   4.673   3.172
12730TIP3   OH238132   1.205   5.557   2.835
12730TIP3    H138133   1.153   5.504   2.775
12730TIP3    H238134   1.240   5.495   2.898
12731TIP3   OH238135   0.823   4.995   1.939
12731TIP3    H138136   0.889   5.064   1.948
12731TIP3    H238137   0.751   5.037   1.892
12732TIP3   OH238138   7.088   7.367   0.458
12732TIP3    H138139   7.175   7.389   0.492
12732TIP3    H238140   7.035   7.351   0.536
12733TIP3   OH238141   1.432   4.482   0.732
12733TIP3    H138142   1.418   4.387   0.734
12733TIP3    H238143   1.464   4.499   0.643
12734TIP3   OH238144   3.008   6.245   0.137
12734TIP3    H138145   2.927   6.292   0.116
12734TIP3    H238146   3.076   6.311   0.132
12735TIP3   OH238147   5.406   7.441   5.898
12735TIP3    H138148   5.403   7.537   5.894
12735TIP3    H238149   5.410   7.421   5.992
12736TIP3   OH238150   0.556   5.075   0.033
12736TIP3    H138151   0.544   5.041  -0.055
12736TIP3    H238152   0.648   5.101   0.037
12737TIP3   OH238153   2.841   4.524   5.751
12737TIP3    H138154   2.839   4.431   5.773
12737TIP3    H238155   2.896   4.529   5.672
12738TIP3   OH238156   3.846   5.263   3.324
12738TIP3    H138157   3.823   5.345   3.280
12738TIP3    H238158   3.924   5.232   3.277
12739TIP3   OH238159   4.287   7.316   5.217
12739TIP3    H138160   4.238   7.240   5.188
12739TIP3    H238161   4.228   7.390   5.202
12740TIP3   OH238162   2.840   2.365   5.837
12740TIP3    H138163   2.834   2.444   5.784
12740TIP3    H238164   2.759   2.317   5.817
12741TIP3   OH238165   0.266   5.716   2.908
12741TIP3    H138166   0.256   5.655   2.835
12741TIP3    H238167   0.274   5.660   2.985
12742TIP3   OH238168   3.569   0.818   1.234
12742TIP3    H138169   3.619   0.746   1.272
12742TIP3    H238170   3.632   0.891   1.230
12743TIP3   OH238171   1.262   0.056   6.393
12743TIP3    H138172   1.272   0.004   6.473
12743TIP3    H238173   1.349   0.058   6.354
12744TIP3   OH238174   0.319   0.636   0.795
12744TIP3    H138175   0.229   0.605   0.790
12744TIP3    H238176   0.358   0.610   0.711
12745TIP3   OH238177   5.469   0.502   4.054
12745TIP3    H138178   5.430   0.475   3.970
12745TIP3    H238179   5.511   0.586   4.034
12746TIP3   OH238180   2.081   0.274   6.526
12746TIP3    H138181   1.993   0.288   6.490
12746TIP3    H238182   2.138   0.274   6.449
12747TIP3   OH238183   3.077   2.889   0.184
12747TIP3    H138184   3.082   2.942   0.104
12747TIP3    H238185   3.145   2.822   0.174
12748TIP3   OH238186   4.260   0.816   1.776
12748TIP3    H138187   4.191   0.767   1.732
12748TIP3    H238188   4.341   0.780   1.741
12749TIP3   OH238189   7.072   6.261   2.755
12749TIP3    H138190   7.009   6.243   2.685
12749TIP3    H238191   7.017   6.280   2.832
12750TIP3   OH238192   6.142   2.136   5.264
12750TIP3    H138193   6.077   2.202   5.240
12750TIP3    H238194   6.094   2.054   5.267
12751TIP3   OH238195   7.884   1.395   1.920
12751TIP3    H138196   7.847   1.482   1.903
12751TIP3    H238197   7.857   1.374   2.009
12752TIP3   OH238198   1.255   4.805   4.441
12752TIP3    H138199   1.193   4.736   4.414
12752TIP3    H238200   1.283   4.779   4.529
12753TIP3   OH238201   3.043   6.767   3.491
12753TIP3    H138202   3.129   6.793   3.458
12753TIP3    H238203   2.982   6.828   3.450
12754TIP3   OH238204   7.155   2.470   5.833
12754TIP3    H138205   7.226   2.456   5.771
12754TIP3    H238206   7.199   2.482   5.917
12755TIP3   OH238207   3.369   3.276   0.414
12755TIP3    H138208   3.456   3.299   0.382
12755TIP3    H238209   3.332   3.359   0.443
12756TIP3   OH238210   0.727   2.944   2.187
12756TIP3    H138211   0.754   2.857   2.219
12756TIP3    H238212   0.807   2.980   2.147
12757TIP3   OH238213   2.727   6.955   0.069
12757TIP3    H138214   2.816   6.990   0.074
12757TIP3    H238215   2.689   6.999  -0.008
12758TIP3   OH238216   4.124   4.671   3.914
12758TIP3    H138217   4.153   4.581   3.928
12758TIP3    H238218   4.205   4.722   3.920
12759TIP3   OH238219   1.558   3.214   0.257
12759TIP3    H138220   1.476   3.166   0.246
12759TIP3    H238221   1.600   3.171   0.332
12760TIP3   OH238222   0.819   2.220   1.079
12760TIP3    H138223   0.799   2.311   1.103
12760TIP3    H238224   0.900   2.200   1.126
12761TIP3   OH238225   7.904   6.688   5.062
12761TIP3    H138226   7.875   6.689   4.971
12761TIP3    H238227   7.895   6.597   5.089
12762TIP3   OH238228   1.109   6.751   1.622
12762TIP3    H138229   1.090   6.845   1.624
12762TIP3    H238230   1.033   6.710   1.665
12763TIP3   OH238231   8.046   3.727   3.321
12763TIP3    H138232   8.053   3.788   3.248
12763TIP3    H238233   8.131   3.685   3.326
12764TIP3   OH238234   4.011   1.226   1.191
12764TIP3    H138235   4.038   1.169   1.119
12764TIP3    H238236   3.980   1.167   1.259
12765TIP3   OH238237   8.300   1.972   1.847
12765TIP3    H138238   8.209   1.998   1.831
12765TIP3    H238239   8.323   2.014   1.930
12766TIP3   OH238240   5.464   7.750   3.462
12766TIP3    H138241   5.394   7.805   3.426
12766TIP3    H238242   5.425   7.709   3.539
12767TIP3   OH238243   1.439   2.015   4.036
12767TIP3    H138244   1.454   2.088   4.097
12767TIP3    H238245   1.431   1.938   4.093
12768TIP3   OH238246   3.275   4.486   6.137
12768TIP3    H138247   3.341   4.519   6.198
12768TIP3    H238248   3.272   4.551   6.067
12769TIP3   OH238249   4.325   6.502   5.376
12769TIP3    H138250   4.239   6.502   5.419
12769TIP3    H238251   4.367   6.581   5.408
12770TIP3   OH238252   3.123   6.045   0.308
12770TIP3    H138253   3.091   6.115   0.251
12770TIP3    H238254   3.126   5.968   0.252
12771TIP3   OH238255   4.649   3.300   5.560
12771TIP3    H138256   4.569   3.323   5.511
12771TIP3    H238257   4.622   3.302   5.652
12772TIP3   OH238258   1.677   6.346   6.606
12772TIP3    H138259   1.722   6.315   6.685
12772TIP3    H238260   1.687   6.274   6.543
12773TIP3   OH238261   6.212   2.201   6.289
12773TIP3    H138262   6.199   2.289   6.324
12773TIP3    H238263   6.136   2.185   6.234
12774TIP3   OH238264   3.830   4.943   2.467
12774TIP3    H138265   3.769   4.942   2.541
12774TIP3    H238266   3.814   5.028   2.425
12775TIP3   OH238267   3.954   4.913   3.899
12775TIP3    H138268   4.038   4.948   3.869
12775TIP3    H238269   3.931   4.968   3.974
12776TIP3   OH238270   4.259   3.881   2.896
12776TIP3    H138271   4.176   3.843   2.867
12776TIP3    H238272   4.325   3.837   2.844
12777TIP3   OH238273   6.443   2.361   3.518
12777TIP3    H138274   6.514   2.425   3.518
12777TIP3    H238275   6.409   2.363   3.608
12778TIP3   OH238276   2.318   1.431   6.282
12778TIP3    H138277   2.241   1.377   6.266
12778TIP3    H238278   2.372   1.420   6.204
12779TIP3   OH238279   4.982   1.018   5.424
12779TIP3    H138280   5.072   0.994   5.449
12779TIP3    H238281   4.993   1.096   5.369
12780TIP3   OH238282   4.548   0.654   3.427
12780TIP3    H138283   4.520   0.722   3.488
12780TIP3    H238284   4.492   0.665   3.350
12781TIP3   OH238285   2.971   3.025   5.103
12781TIP3    H138286   3.050   3.032   5.049
12781TIP3    H238287   2.914   2.965   5.055
12782TIP3   OH238288   1.687   6.383   4.765
12782TIP3    H138289   1.720   6.301   4.728
12782TIP3    H238290   1.607   6.358   4.811
12783TIP3   OH238291   7.399   3.444   2.743
12783TIP3    H138292   7.444   3.447   2.828
12783TIP3    H238293   7.340   3.369   2.751
12784TIP3   OH238294   2.718   6.022   6.473
12784TIP3    H138295   2.627   6.036   6.449
12784TIP3    H238296   2.731   6.075   6.551
12785TIP3   OH238297   1.221   4.932   0.752
12785TIP3    H138298   1.198   4.983   0.829
12785TIP3    H238299   1.294   4.876   0.781
12786TIP3   OH238300   3.025   6.752   1.315
12786TIP3    H138301   3.073   6.832   1.337
12786TIP3    H238302   3.033   6.745   1.219
12787TIP3   OH238303   2.358   4.117   6.685
12787TIP3    H138304   2.364   4.108   6.590
12787TIP3    H238305   2.405   4.198   6.705
12788TIP3   OH238306   2.915   7.735   5.686
12788TIP3    H138307   3.000   7.744   5.643
12788TIP3    H238308   2.929   7.766   5.775
12789TIP3   OH238309   5.569   3.602   3.421
12789TIP3    H138310   5.535   3.675   3.472
12789TIP3    H238311   5.504   3.589   3.351
12790TIP3   OH238312   6.038   6.136   4.705
12790TIP3    H138313   6.125   6.101   4.720
12790TIP3    H238314   6.004   6.087   4.631
12791TIP3   OH238315   4.008   2.981   4.394
12791TIP3    H138316   3.998   2.969   4.488
12791TIP3    H238317   3.946   2.920   4.354
12792TIP3   OH238318   8.220   4.055   2.974
12792TIP3    H138319   8.291   4.062   2.909
12792TIP3    H238320   8.153   4.002   2.931
12793TIP3   OH238321   6.479   3.482   4.741
12793TIP3    H138322   6.421   3.407   4.728
12793TIP3    H238323   6.566   3.443   4.752
12794TIP3   OH238324   0.796   6.884   0.768
12794TIP3    H138325   0.832   6.941   0.836
12794TIP3    H238326   0.816   6.929   0.686
12795TIP3   OH238327   3.118   0.020   2.276
12795TIP3    H138328   3.149   0.053   2.192
12795TIP3    H238329   3.108   0.098   2.331
12796TIP3   OH238330   3.400   1.833   3.458
12796TIP3    H138331   3.397   1.866   3.368
12796TIP3    H238332   3.489   1.853   3.487
12797TIP3   OH238333   0.998   4.754   0.282
12797TIP3    H138334   0.989   4.753   0.378
12797TIP3    H238335   0.909   4.757   0.249
12798TIP3   OH238336   3.455   3.417   5.576
12798TIP3    H138337   3.540   3.413   5.532
12798TIP3    H238338   3.452   3.337   5.629
12799TIP3   OH238339   3.476   4.781   0.664
12799TIP3    H138340   3.511   4.831   0.737
12799TIP3    H238341   3.459   4.847   0.596
12800TIP3   OH238342   7.712   5.755   6.019
12800TIP3    H138343   7.696   5.693   5.947
12800TIP3    H238344   7.719   5.700   6.097
12801TIP3   OH238345   1.054   5.436   5.127
12801TIP3    H138346   1.076   5.394   5.044
12801TIP3    H238347   1.134   5.482   5.153
12802TIP3   OH238348   7.954   7.017   4.612
12802TIP3    H138349   7.993   7.019   4.525
12802TIP3    H238350   7.887   6.949   4.607
12803TIP3   OH238351   1.231   4.371   6.458
12803TIP3    H138352   1.274   4.420   6.388
12803TIP3    H238353   1.196   4.438   6.517
12804TIP3   OH238354   7.081   6.570   3.825
12804TIP3    H138355   7.074   6.663   3.846
12804TIP3    H238356   7.053   6.564   3.733
12805TIP3   OH238357   7.722   1.837   0.540
12805TIP3    H138358   7.808   1.868   0.570
12805TIP3    H238359   7.663   1.858   0.612
12806TIP3   OH238360   2.536   3.343   4.317
12806TIP3    H138361   2.608   3.291   4.281
12806TIP3    H238362   2.568   3.433   4.314
12807TIP3   OH238363   6.041   6.840   1.871
12807TIP3    H138364   6.062   6.877   1.785
12807TIP3    H238365   5.982   6.905   1.911
12808TIP3   OH238366   5.908   3.309   0.046
12808TIP3    H138367   5.950   3.231   0.082
12808TIP3    H238368   5.857   3.345   0.119
12809TIP3   OH238369   6.006   3.774   6.732
12809TIP3    H138370   6.073   3.718   6.693
12809TIP3    H238371   6.042   3.863   6.724
12810TIP3   OH238372   1.968   4.846   4.181
12810TIP3    H138373   1.986   4.803   4.097
12810TIP3    H238374   2.005   4.788   4.246
12811TIP3   OH238375   3.557   4.958   6.332
12811TIP3    H138376   3.497   5.015   6.380
12811TIP3    H238377   3.639   4.964   6.381
12812TIP3   OH238378   2.642   7.584   5.692
12812TIP3    H138379   2.604   7.599   5.778
12812TIP3    H238380   2.709   7.653   5.683
12813TIP3   OH238381   2.309   6.451   0.037
12813TIP3    H138382   2.383   6.446  -0.024
12813TIP3    H238383   2.328   6.526   0.092
12814TIP3   OH238384   0.613   4.256   3.163
12814TIP3    H138385   0.537   4.296   3.205
12814TIP3    H238386   0.644   4.322   3.101
12815TIP3   OH238387   3.260   3.868   5.799
12815TIP3    H138388   3.180   3.858   5.748
12815TIP3    H238389   3.319   3.800   5.766
12816TIP3   OH238390   7.926   0.700   4.417
12816TIP3    H138391   7.841   0.658   4.409
12816TIP3    H238392   7.915   0.785   4.375
12817TIP3   OH238393   5.807   5.528   1.975
12817TIP3    H138394   5.761   5.466   1.919
12817TIP3    H238395   5.769   5.613   1.952
12818TIP3   OH238396   5.533   5.845   1.527
12818TIP3    H138397   5.488   5.809   1.604
12818TIP3    H238398   5.592   5.912   1.564
12819TIP3   OH238399   2.512   7.299   3.809
12819TIP3    H138400   2.481   7.381   3.848
12819TIP3    H238401   2.584   7.325   3.752
12820TIP3   OH238402   7.300   6.419   5.510
12820TIP3    H138403   7.300   6.484   5.581
12820TIP3    H238404   7.245   6.457   5.442
12821TIP3   OH238405   2.028   7.824   3.340
12821TIP3    H138406   2.082   7.891   3.382
12821TIP3    H238407   2.083   7.746   3.339
12822TIP3   OH238408   0.973   3.541   3.987
12822TIP3    H138409   0.996   3.474   4.051
12822TIP3    H238410   1.051   3.596   3.980
12823TIP3   OH238411   8.161   3.999   5.188
12823TIP3    H138412   8.217   3.961   5.120
12823TIP3    H238413   8.083   3.943   5.189
12824TIP3   OH238414   6.211   5.391   1.949
12824TIP3    H138415   6.296   5.408   1.990
12824TIP3    H238416   6.224   5.412   1.857
12825TIP3   OH238417   5.952   7.521   5.857
12825TIP3    H138418   5.995   7.453   5.908
12825TIP3    H238419   5.893   7.473   5.798
12826TIP3   OH238420   1.976   0.495   0.385
12826TIP3    H138421   1.931   0.463   0.464
12826TIP3    H238422   2.052   0.438   0.376
12827TIP3   OH238423   0.533   3.858   5.599
12827TIP3    H138424   0.506   3.799   5.670
12827TIP3    H238425   0.507   3.813   5.519
12828TIP3   OH238426   5.569   1.578   3.886
12828TIP3    H138427   5.603   1.575   3.975
12828TIP3    H238428   5.563   1.671   3.865
12829TIP3   OH238429   5.966   2.514   5.256
12829TIP3    H138430   5.930   2.428   5.232
12829TIP3    H238431   5.891   2.573   5.257
12830TIP3   OH238432   4.545   0.595   5.914
12830TIP3    H138433   4.467   0.553   5.951
12830TIP3    H238434   4.513   0.680   5.882
12831TIP3   OH238435   1.452   6.408   6.750
12831TIP3    H138436   1.535   6.377   6.714
12831TIP3    H238437   1.424   6.338   6.810
12832TIP3   OH238438   7.860   0.766   3.883
12832TIP3    H138439   7.842   0.790   3.792
12832TIP3    H238440   7.780   0.790   3.930
12833TIP3   OH238441   6.293   1.612   6.333
12833TIP3    H138442   6.282   1.678   6.264
12833TIP3    H238443   6.203   1.587   6.357
12834TIP3   OH238444   0.429   7.599   5.905
12834TIP3    H138445   0.401   7.511   5.928
12834TIP3    H238446   0.411   7.652   5.983
12835TIP3   OH238447   6.289   4.023   3.427
12835TIP3    H138448   6.221   4.036   3.494
12835TIP3    H238449   6.356   3.970   3.471
12836TIP3   OH238450   2.271   3.643   0.438
12836TIP3    H138451   2.276   3.678   0.527
12836TIP3    H238452   2.195   3.585   0.440
12837TIP3   OH238453   0.487   3.814   1.997
12837TIP3    H138454   0.443   3.803   2.081
12837TIP3    H238455   0.498   3.909   1.988
12838TIP3   OH238456   0.778   1.251   5.264
12838TIP3    H138457   0.732   1.250   5.348
12838TIP3    H238458   0.870   1.235   5.287
12839TIP3   OH238459   3.613   1.905   1.671
12839TIP3    H138460   3.580   1.852   1.599
12839TIP3    H238461   3.702   1.928   1.646
12840TIP3   OH238462   7.719   5.148   3.557
12840TIP3    H138463   7.766   5.175   3.478
12840TIP3    H238464   7.723   5.052   3.556
12841TIP3   OH238465   6.826   2.877   0.416
12841TIP3    H138466   6.766   2.928   0.471
12841TIP3    H238467   6.890   2.840   0.477
12842TIP3   OH238468   8.188   2.995   5.854
12842TIP3    H138469   8.101   2.976   5.818
12842TIP3    H238470   8.248   2.973   5.784
12843TIP3   OH238471   1.996   0.514   4.518
12843TIP3    H138472   1.991   0.419   4.510
12843TIP3    H238473   1.995   0.546   4.428
12844TIP3   OH238474   4.147   0.916   2.759
12844TIP3    H138475   4.217   0.860   2.725
12844TIP3    H238476   4.112   0.960   2.681
12845TIP3   OH238477   2.227   5.770   6.205
12845TIP3    H138478   2.165   5.843   6.211
12845TIP3    H238479   2.312   5.812   6.191
12846TIP3   OH238480  -0.010   5.737   1.334
12846TIP3    H138481  -0.021   5.832   1.331
12846TIP3    H238482   0.075   5.721   1.294
12847TIP3   OH238483   5.931   4.454   6.162
12847TIP3    H138484   5.894   4.417   6.241
12847TIP3    H238485   5.887   4.538   6.152
12848TIP3   OH238486   7.420   4.653   6.539
12848TIP3    H138487   7.352   4.659   6.472
12848TIP3    H238488   7.482   4.722   6.516
12849TIP3   OH238489   5.922   4.694   3.044
12849TIP3    H138490   5.849   4.754   3.028
12849TIP3    H238491   5.982   4.744   3.098
12850TIP3   OH238492   1.141   1.515   5.505
12850TIP3    H138493   1.229   1.519   5.467
12850TIP3    H238494   1.133   1.425   5.537
12851TIP3   OH238495   6.868   2.358   5.397
12851TIP3    H138496   6.827   2.438   5.431
12851TIP3    H238497   6.889   2.307   5.476
12852TIP3   OH238498   7.742   0.694   1.532
12852TIP3    H138499   7.771   0.753   1.601
12852TIP3    H238500   7.656   0.728   1.506
12853TIP3   OH238501   5.552   3.405   0.664
12853TIP3    H138502   5.641   3.419   0.631
12853TIP3    H238503   5.545   3.310   0.674
12854TIP3   OH238504   4.569   0.896   1.886
12854TIP3    H138505   4.524   0.909   1.969
12854TIP3    H238506   4.658   0.871   1.910
12855TIP3   OH238507   1.159   0.317   4.405
12855TIP3    H138508   1.118   0.232   4.388
12855TIP3    H238509   1.086   0.373   4.433
12856TIP3   OH238510   5.955   5.563   5.114
12856TIP3    H138511   6.037   5.588   5.156
12856TIP3    H238512   5.976   5.483   5.065
12857TIP3   OH238513   3.485   2.633   0.969
12857TIP3    H138514   3.567   2.631   1.017
12857TIP3    H238515   3.488   2.555   0.913
12858TIP3   OH238516   6.052   1.776   4.064
12858TIP3    H138517   6.073   1.686   4.089
12858TIP3    H238518   6.075   1.781   3.971
12859TIP3   OH238519   4.145   4.366   4.282
12859TIP3    H138520   4.062   4.349   4.237
12859TIP3    H238521   4.174   4.281   4.313
12860TIP3   OH238522   0.214   6.695   3.396
12860TIP3    H138523   0.224   6.612   3.348
12860TIP3    H238524   0.239   6.762   3.332
12861TIP3   OH238525   4.947   6.612   1.042
12861TIP3    H138526   5.003   6.674   0.996
12861TIP3    H238527   4.911   6.556   0.973
12862TIP3   OH238528   2.439   2.075   4.712
12862TIP3    H138529   2.506   2.105   4.774
12862TIP3    H238530   2.408   1.992   4.749
12863TIP3   OH238531   5.095   5.792   5.937
12863TIP3    H138532   5.076   5.713   5.987
12863TIP3    H238533   5.076   5.768   5.846
12864TIP3   OH238534   7.873   5.962   1.217
12864TIP3    H138535   7.957   5.968   1.172
12864TIP3    H238536   7.825   6.041   1.190
12865TIP3   OH238537   0.229   0.728   4.499
12865TIP3    H138538   0.171   0.796   4.464
12865TIP3    H238539   0.217   0.733   4.594
12866TIP3   OH238540   7.537   3.475   1.512
12866TIP3    H138541   7.560   3.561   1.547
12866TIP3    H238542   7.558   3.481   1.419
12867TIP3   OH238543   1.875   3.726   0.480
12867TIP3    H138544   1.930   3.709   0.404
12867TIP3    H238545   1.870   3.642   0.525
12868TIP3   OH238546   8.223   6.101   2.937
12868TIP3    H138547   8.201   6.179   2.885
12868TIP3    H238548   8.249   6.035   2.874
12869TIP3   OH238549   0.736   2.605   1.930
12869TIP3    H138550   0.669   2.650   1.983
12869TIP3    H238551   0.796   2.675   1.904
12870TIP3   OH238552   6.747   2.912   2.229
12870TIP3    H138553   6.820   2.864   2.191
12870TIP3    H238554   6.740   2.991   2.175
12871TIP3   OH238555   0.653   0.199   3.775
12871TIP3    H138556   0.603   0.250   3.839
12871TIP3    H238557   0.743   0.231   3.783
12872TIP3   OH238558   2.574   6.692   2.649
12872TIP3    H138559   2.489   6.656   2.623
12872TIP3    H238560   2.564   6.787   2.637
12873TIP3   OH238561   4.850   5.401   1.061
12873TIP3    H138562   4.823   5.343   0.990
12873TIP3    H238563   4.843   5.347   1.140
12874TIP3   OH238564   1.870   7.497   6.551
12874TIP3    H138565   1.814   7.430   6.592
12874TIP3    H238566   1.808   7.557   6.509
12875TIP3   OH238567   1.663   6.907   0.196
12875TIP3    H138568   1.722   6.887   0.123
12875TIP3    H238569   1.575   6.890   0.162
12876TIP3   OH238570   2.362   2.415   5.649
12876TIP3    H138571   2.354   2.320   5.649
12876TIP3    H238572   2.413   2.435   5.728
12877TIP3   OH238573   0.971   0.322   3.506
12877TIP3    H138574   0.986   0.300   3.413
12877TIP3    H238575   0.913   0.398   3.503
12878TIP3   OH238576   3.695   4.852   6.754
12878TIP3    H138577   3.754   4.777   6.754
12878TIP3    H238578   3.723   4.905   6.680
12879TIP3   OH238579   2.575   0.612   1.324
12879TIP3    H138580   2.599   0.690   1.273
12879TIP3    H238581   2.648   0.552   1.312
12880TIP3   OH238582   6.477   4.776   3.659
12880TIP3    H138583   6.489   4.703   3.598
12880TIP3    H238584   6.439   4.846   3.605
12881TIP3   OH238585   4.393   3.482   1.772
12881TIP3    H138586   4.373   3.563   1.727
12881TIP3    H238587   4.394   3.505   1.865
12882TIP3   OH238588   1.250   0.631   0.860
12882TIP3    H138589   1.217   0.568   0.796
12882TIP3    H238590   1.260   0.712   0.811
12883TIP3   OH238591   8.049   3.969   4.896
12883TIP3    H138592   7.998   3.945   4.974
12883TIP3    H238593   7.989   4.023   4.844
12884TIP3   OH238594   3.653   1.306   3.418
12884TIP3    H138595   3.603   1.259   3.352
12884TIP3    H238596   3.741   1.270   3.411
12885TIP3   OH238597   1.717   3.711   5.247
12885TIP3    H138598   1.797   3.724   5.196
12885TIP3    H238599   1.646   3.730   5.185
12886TIP3   OH238600   4.851   3.328   2.244
12886TIP3    H138601   4.795   3.405   2.247
12886TIP3    H238602   4.792   3.257   2.215
12887TIP3   OH238603   4.221   0.756   0.559
12887TIP3    H138604   4.242   0.727   0.648
12887TIP3    H238605   4.164   0.831   0.571
12888TIP3   OH238606   0.768   2.977   4.757
12888TIP3    H138607   0.793   2.898   4.708
12888TIP3    H238608   0.780   3.048   4.694
12889TIP3   OH238609   3.423   4.697   5.296
12889TIP3    H138610   3.519   4.697   5.295
12889TIP3    H238611   3.400   4.723   5.385
12890TIP3   OH238612   5.310   3.044   5.050
12890TIP3    H138613   5.299   2.955   5.083
12890TIP3    H238614   5.246   3.096   5.097
12891TIP3   OH238615   1.265   2.364   6.769
12891TIP3    H138616   1.252   2.311   6.691
12891TIP3    H238617   1.191   2.425   6.770
12892TIP3   OH238618   4.333   2.044   4.566
12892TIP3    H138619   4.397   1.985   4.606
12892TIP3    H238620   4.381   2.087   4.496
12893TIP3   OH238621   5.256   1.788   1.126
12893TIP3    H138622   5.325   1.832   1.077
12893TIP3    H238623   5.210   1.859   1.172
12894TIP3   OH238624   5.546   2.669   4.170
12894TIP3    H138625   5.522   2.743   4.226
12894TIP3    H238626   5.573   2.600   4.230
12895TIP3   OH238627   3.508   1.436   6.290
12895TIP3    H138628   3.467   1.478   6.214
12895TIP3    H238629   3.437   1.422   6.352
12896TIP3   OH238630   1.721   2.587   5.791
12896TIP3    H138631   1.790   2.524   5.811
12896TIP3    H238632   1.742   2.619   5.703
12897TIP3   OH238633   4.606   3.538   1.112
12897TIP3    H138634   4.524   3.577   1.081
12897TIP3    H238635   4.657   3.611   1.145
12898TIP3   OH238636   3.912   6.971   5.949
12898TIP3    H138637   3.824   7.005   5.963
12898TIP3    H238638   3.898   6.885   5.909
12899TIP3   OH238639   1.041   4.222   6.654
12899TIP3    H138640   0.993   4.229   6.572
12899TIP3    H238641   1.132   4.209   6.628
12900TIP3   OH238642   6.254   2.949   4.621
12900TIP3    H138643   6.280   2.919   4.534
12900TIP3    H238644   6.161   2.970   4.613
12901TIP3   OH238645   6.241   6.417   0.318
12901TIP3    H138646   6.324   6.412   0.364
12901TIP3    H238647   6.225   6.511   0.308
12902TIP3   OH238648   5.972   3.246   0.464
12902TIP3    H138649   5.954   3.160   0.503
12902TIP3    H238650   5.913   3.306   0.509
12903TIP3   OH238651   3.631   6.591   2.736
12903TIP3    H138652   3.704   6.530   2.749
12903TIP3    H238653   3.563   6.559   2.795
12904TIP3   OH238654   5.745   5.190   5.840
12904TIP3    H138655   5.819   5.171   5.897
12904TIP3    H238656   5.765   5.142   5.759
12905TIP3   OH238657   0.451   1.153   0.914
12905TIP3    H138658   0.520   1.168   0.979
12905TIP3    H238659   0.476   1.207   0.839
12906TIP3   OH238660   5.363   0.521   1.135
12906TIP3    H138661   5.327   0.461   1.070
12906TIP3    H238662   5.373   0.604   1.089
12907TIP3   OH238663   7.995   4.753   2.615
12907TIP3    H138664   8.021   4.661   2.610
12907TIP3    H238665   7.941   4.768   2.538
12908TIP3   OH238666   2.411   5.961   6.472
12908TIP3    H138667   2.413   5.892   6.406
12908TIP3    H238668   2.354   5.926   6.541
12909TIP3   OH238669   8.006   6.069   4.031
12909TIP3    H138670   7.999   6.121   3.951
12909TIP3    H238671   7.915   6.052   4.056
12910TIP3   OH238672   1.576   5.045   1.941
12910TIP3    H138673   1.539   5.094   2.014
12910TIP3    H238674   1.588   4.956   1.974
12911TIP3   OH238675   1.002   1.534   5.876
12911TIP3    H138676   1.076   1.476   5.863
12911TIP3    H238677   0.972   1.517   5.965
12912TIP3   OH238678   8.170   6.999   2.198
12912TIP3    H138679   8.197   7.088   2.221
12912TIP3    H238680   8.253   6.950   2.194
12913TIP3   OH238681   1.783   1.674   2.538
12913TIP3    H138682   1.860   1.654   2.485
12913TIP3    H238683   1.714   1.692   2.475
12914TIP3   OH238684   6.759   7.447   4.122
12914TIP3    H138685   6.825   7.444   4.053
12914TIP3    H238686   6.807   7.424   4.202
12915TIP3   OH238687   0.500   6.065   4.401
12915TIP3    H138688   0.503   6.073   4.306
12915TIP3    H238689   0.444   5.988   4.416
12916TIP3   OH238690   6.523   7.261   2.924
12916TIP3    H138691   6.548   7.352   2.937
12916TIP3    H238692   6.431   7.256   2.951
12917TIP3   OH238693   5.149   1.650   5.933
12917TIP3    H138694   5.185   1.668   6.020
12917TIP3    H238695   5.054   1.652   5.946
12918TIP3   OH238696   7.031   4.230   0.589
12918TIP3    H138697   7.098   4.273   0.537
12918TIP3    H238698   6.987   4.301   0.636
12919TIP3   OH238699   3.974   3.942   3.368
12919TIP3    H138700   4.039   3.895   3.317
12919TIP3    H238701   3.997   3.923   3.459
12920TIP3   OH238702   6.521   7.048   3.779
12920TIP3    H138703   6.576   7.060   3.702
12920TIP3    H238704   6.506   7.137   3.811
12921TIP3   OH238705   2.422   3.152   6.454
12921TIP3    H138706   2.408   3.112   6.540
12921TIP3    H238707   2.516   3.167   6.449
12922TIP3   OH238708   6.172   2.470   6.420
12922TIP3    H138709   6.107   2.531   6.385
12922TIP3    H238710   6.125   2.424   6.489
12923TIP3   OH238711   6.182   4.474   5.090
12923TIP3    H138712   6.268   4.503   5.123
12923TIP3    H238713   6.120   4.538   5.124
12924TIP3   OH238714   6.448   7.633   3.643
12924TIP3    H138715   6.528   7.684   3.647
12924TIP3    H238716   6.476   7.545   3.617
12925TIP3   OH238717   2.747   1.123   5.056
12925TIP3    H138718   2.778   1.205   5.019
12925TIP3    H238719   2.824   1.082   5.095
12926TIP3   OH238720   7.054   2.626   2.638
12926TIP3    H138721   7.078   2.648   2.728
12926TIP3    H238722   7.097   2.543   2.621
12927TIP3   OH238723   2.273   2.551   1.453
12927TIP3    H138724   2.235   2.521   1.370
12927TIP3    H238725   2.200   2.593   1.498
12928TIP3   OH238726   8.275   4.482   3.484
12928TIP3    H138727   8.234   4.569   3.492
12928TIP3    H238728   8.269   4.461   3.391
12929TIP3   OH238729   5.869   1.374   1.676
12929TIP3    H138730   5.813   1.346   1.603
12929TIP3    H238731   5.919   1.296   1.698
12930TIP3   OH238732   0.943   1.305   3.951
12930TIP3    H138733   0.872   1.361   3.922
12930TIP3    H238734   0.930   1.297   4.046
12931TIP3   OH238735   6.604   7.766   2.029
12931TIP3    H138736   6.681   7.738   1.980
12931TIP3    H238737   6.600   7.707   2.104
12932TIP3   OH238738   6.721   2.218   3.008
12932TIP3    H138739   6.657   2.174   3.064
12932TIP3    H238740   6.677   2.227   2.924
12933TIP3   OH238741   1.727   6.301   1.861
12933TIP3    H138742   1.768   6.293   1.948
12933TIP3    H238743   1.743   6.392   1.836
12934TIP3   OH238744   4.660   6.980   2.738
12934TIP3    H138745   4.665   6.928   2.818
12934TIP3    H238746   4.568   7.008   2.733
12935TIP3   OH238747   5.129   3.660   5.953
12935TIP3    H138748   5.116   3.673   6.047
12935TIP3    H238749   5.041   3.665   5.916
12936TIP3   OH238750   2.952   5.512   4.414
12936TIP3    H138751   2.875   5.567   4.404
12936TIP3    H238752   2.918   5.422   4.411
12937TIP3   OH238753   7.206   4.246   3.079
12937TIP3    H138754   7.152   4.321   3.103
12937TIP3    H238755   7.237   4.212   3.163
12938TIP3   OH238756   6.144   0.998   3.957
12938TIP3    H138757   6.107   0.911   3.938
12938TIP3    H238758   6.239   0.984   3.957
12939TIP3   OH238759   2.897   0.294   0.838
12939TIP3    H138760   2.974   0.338   0.875
12939TIP3    H238761   2.933   0.233   0.774
12940TIP3   OH238762   7.535   6.872   3.014
12940TIP3    H138763   7.554   6.782   3.036
12940TIP3    H238764   7.612   6.903   2.966
12941TIP3   OH238765   2.272   4.371   2.435
12941TIP3    H138766   2.321   4.290   2.419
12941TIP3    H238767   2.182   4.342   2.450
12942TIP3   OH238768   1.515   5.541   1.537
12942TIP3    H138769   1.457   5.476   1.575
12942TIP3    H238770   1.469   5.624   1.547
12943TIP3   OH238771   2.104   6.599   4.160
12943TIP3    H138772   2.052   6.524   4.131
12943TIP3    H238773   2.123   6.580   4.252
12944TIP3   OH238774   1.339   3.521   0.154
12944TIP3    H138775   1.286   3.497   0.230
12944TIP3    H238776   1.332   3.445   0.096
12945TIP3   OH238777   3.982   0.260   1.036
12945TIP3    H138778   3.928   0.238   0.960
12945TIP3    H238779   4.056   0.309   0.999
12946TIP3   OH238780   5.851   5.815   1.153
12946TIP3    H138781   5.806   5.746   1.200
12946TIP3    H238782   5.820   5.808   1.063
12947TIP3   OH238783   0.477   0.629   3.492
12947TIP3    H138784   0.466   0.676   3.410
12947TIP3    H238785   0.527   0.688   3.548
12948TIP3   OH238786   3.850   2.397   3.447
12948TIP3    H138787   3.908   2.333   3.407
12948TIP3    H238788   3.762   2.373   3.415
12949TIP3   OH238789   6.056   0.184   5.752
12949TIP3    H138790   6.098   0.265   5.782
12949TIP3    H238791   6.097   0.115   5.804
12950TIP3   OH238792   3.012   2.568   5.984
12950TIP3    H138793   3.025   2.579   5.890
12950TIP3    H238794   2.984   2.477   5.995
12951TIP3   OH238795   8.083   7.460   2.987
12951TIP3    H138796   8.118   7.391   3.043
12951TIP3    H238797   8.075   7.536   3.044
12952TIP3   OH238798   7.134   6.521   3.306
12952TIP3    H138799   7.120   6.475   3.223
12952TIP3    H238800   7.142   6.613   3.281
12953TIP3   OH238801   0.012   2.751   2.970
12953TIP3    H138802  -0.023   2.721   3.054
12953TIP3    H238803   0.024   2.671   2.919
12954TIP3   OH238804   4.016   7.756   0.948
12954TIP3    H138805   3.983   7.777   0.861
12954TIP3    H238806   4.083   7.823   0.965
12955TIP3   OH238807   6.159   5.736   1.255
12955TIP3    H138808   6.132   5.665   1.197
12955TIP3    H238809   6.106   5.725   1.334
12956TIP3   OH238810   0.273   4.500   0.166
12956TIP3    H138811   0.354   4.550   0.159
12956TIP3    H238812   0.204   4.567   0.163
12957TIP3   OH238813   8.009   7.738   2.196
12957TIP3    H138814   7.963   7.736   2.113
12957TIP3    H238815   7.982   7.820   2.237
12958TIP3   OH238816   1.996   5.948   6.203
12958TIP3    H138817   1.977   5.927   6.112
12958TIP3    H238818   1.911   5.969   6.241
12959TIP3   OH238819   8.226   2.550   6.342
12959TIP3    H138820   8.296   2.485   6.345
12959TIP3    H238821   8.268   2.632   6.368
12960TIP3   OH238822   2.473   7.610   6.542
12960TIP3    H138823   2.444   7.700   6.559
12960TIP3    H238824   2.456   7.597   6.449
12961TIP3   OH238825   1.238   7.090   0.479
12961TIP3    H138826   1.235   7.117   0.387
12961TIP3    H238827   1.265   7.168   0.526
12962TIP3   OH238828   2.313   3.337   0.760
12962TIP3    H138829   2.233   3.292   0.787
12962TIP3    H238830   2.374   3.322   0.832
12963TIP3   OH238831   7.653   3.601   4.508
12963TIP3    H138832   7.739   3.591   4.466
12963TIP3    H238833   7.668   3.580   4.600
12964TIP3   OH238834   1.443   2.595   3.094
12964TIP3    H138835   1.497   2.674   3.087
12964TIP3    H238836   1.486   2.542   3.160
12965TIP3   OH238837   1.103   7.191   4.032
12965TIP3    H138838   1.128   7.242   4.109
12965TIP3    H238839   1.133   7.102   4.051
12966TIP3   OH238840   7.258   6.131   0.726
12966TIP3    H138841   7.277   6.116   0.634
12966TIP3    H238842   7.201   6.057   0.751
12967TIP3   OH238843   6.260   7.232   2.546
12967TIP3    H138844   6.355   7.247   2.542
12967TIP3    H238845   6.222   7.317   2.526
12968TIP3   OH238846   4.108   7.306   4.512
12968TIP3    H138847   4.028   7.269   4.475
12968TIP3    H238848   4.176   7.284   4.448
12969TIP3   OH238849   2.997   4.083   0.387
12969TIP3    H138850   2.986   4.076   0.482
12969TIP3    H238851   3.000   3.993   0.356
12970TIP3   OH238852   4.286   4.326   6.624
12970TIP3    H138853   4.291   4.234   6.651
12970TIP3    H238854   4.360   4.337   6.564
12971TIP3   OH238855   4.049   7.215   4.775
12971TIP3    H138856   3.962   7.256   4.777
12971TIP3    H238857   4.090   7.249   4.695
12972TIP3   OH238858   2.151   0.865   4.206
12972TIP3    H138859   2.201   0.789   4.177
12972TIP3    H238860   2.185   0.884   4.294
12973TIP3   OH238861   1.954   3.133   2.651
12973TIP3    H138862   2.016   3.186   2.601
12973TIP3    H238863   1.994   3.047   2.655
12974TIP3   OH238864   3.240   4.361   1.113
12974TIP3    H138865   3.170   4.425   1.100
12974TIP3    H238866   3.300   4.404   1.174
12975TIP3   OH238867   4.660   1.733   5.036
12975TIP3    H138868   4.709   1.696   5.109
12975TIP3    H238869   4.579   1.683   5.032
12976TIP3   OH238870   3.531   1.001   6.244
12976TIP3    H138871   3.581   1.063   6.191
12976TIP3    H238872   3.593   0.931   6.264
12977TIP3   OH238873   2.516   3.896   5.183
12977TIP3    H138874   2.511   3.918   5.090
12977TIP3    H238875   2.526   3.801   5.185
12978TIP3   OH238876   6.717   1.679   1.092
12978TIP3    H138877   6.670   1.605   1.054
12978TIP3    H238878   6.757   1.723   1.018
12979TIP3   OH238879   5.171   3.979   1.082
12979TIP3    H138880   5.266   3.984   1.085
12979TIP3    H238881   5.145   3.958   1.171
12980TIP3   OH238882   5.591   2.380   5.752
12980TIP3    H138883   5.629   2.417   5.833
12980TIP3    H238884   5.615   2.443   5.684
12981TIP3   OH238885   2.633   2.405   1.765
12981TIP3    H138886   2.673   2.320   1.781
12981TIP3    H238887   2.549   2.401   1.812
12982TIP3   OH238888   0.435   0.736   4.730
12982TIP3    H138889   0.392   0.666   4.779
12982TIP3    H238890   0.507   0.692   4.685
12983TIP3   OH238891   3.846   0.510   5.994
12983TIP3    H138892   3.919   0.448   6.001
12983TIP3    H238893   3.776   0.461   5.951
12984TIP3   OH238894   3.294   4.260   5.398
12984TIP3    H138895   3.349   4.306   5.334
12984TIP3    H238896   3.281   4.173   5.361
12985TIP3   OH238897   6.173   3.051   4.914
12985TIP3    H138898   6.194   3.023   4.824
12985TIP3    H238899   6.197   2.976   4.968
12986TIP3   OH238900   7.273   0.629   2.962
12986TIP3    H138901   7.239   0.569   2.896
12986TIP3    H238902   7.284   0.576   3.041
12987TIP3   OH238903   2.191   3.546   5.979
12987TIP3    H138904   2.105   3.585   5.997
12987TIP3    H238905   2.213   3.499   6.059
12988TIP3   OH238906   2.955   4.568   2.178
12988TIP3    H138907   2.936   4.570   2.084
12988TIP3    H238908   3.036   4.617   2.188
12989TIP3   OH238909   6.093   0.180   0.731
12989TIP3    H138910   6.170   0.226   0.699
12989TIP3    H238911   6.032   0.180   0.656
12990TIP3   OH238912   5.501   3.646   4.826
12990TIP3    H138913   5.498   3.583   4.754
12990TIP3    H238914   5.591   3.680   4.825
12991TIP3   OH238915   5.389   6.858   0.988
12991TIP3    H138916   5.325   6.898   0.928
12991TIP3    H238917   5.351   6.773   1.011
12992TIP3   OH238918   5.870   5.910   5.956
12992TIP3    H138919   5.892   5.966   6.031
12992TIP3    H238920   5.836   5.971   5.891
12993TIP3   OH238921   7.430   3.240   2.376
12993TIP3    H138922   7.335   3.240   2.380
12993TIP3    H238923   7.450   3.234   2.282
12994TIP3   OH238924   4.965   1.122   4.656
12994TIP3    H138925   4.959   1.214   4.628
12994TIP3    H238926   4.920   1.073   4.588
12995TIP3   OH238927   7.810   6.199   4.441
12995TIP3    H138928   7.858   6.215   4.522
12995TIP3    H238929   7.727   6.161   4.468
12996TIP3   OH238930   8.246   2.455   2.239
12996TIP3    H138931   8.203   2.425   2.319
12996TIP3    H238932   8.337   2.471   2.265
12997TIP3   OH238933   3.600   2.911   1.499
12997TIP3    H138934   3.547   2.897   1.577
12997TIP3    H238935   3.546   2.965   1.442
12998TIP3   OH238936   0.931   0.923   5.884
12998TIP3    H138937   0.952   0.862   5.955
12998TIP3    H238938   0.875   0.989   5.925
12999TIP3   OH238939   7.707   4.613   0.408
12999TIP3    H138940   7.693   4.572   0.323
12999TIP3    H238941   7.690   4.706   0.394
13000TIP3   OH238942   3.648   3.584   1.032
13000TIP3    H138943   3.607   3.509   0.989
13000TIP3    H238944   3.647   3.562   1.125
13001TIP3   OH238945   7.394   5.166   2.191
13001TIP3    H138946   7.331   5.220   2.144
13001TIP3    H238947   7.472   5.222   2.199
13002TIP3   OH238948   5.869   5.787   5.293
13002TIP3    H138949   5.837   5.701   5.268
13002TIP3    H238950   5.945   5.801   5.236
13003TIP3   OH238951   0.348   6.709   0.152
13003TIP3    H138952   0.408   6.681   0.084
13003TIP3    H238953   0.340   6.634   0.210
13004TIP3   OH238954   4.086   2.232   4.082
13004TIP3    H138955   4.011   2.226   4.023
13004TIP3    H238956   4.093   2.325   4.103
13005TIP3   OH238957   6.099   6.429   4.638
13005TIP3    H138958   6.060   6.477   4.711
13005TIP3    H238959   6.051   6.346   4.636
13006TIP3   OH238960   4.057   7.059   1.272
13006TIP3    H138961   4.132   7.074   1.330
13006TIP3    H238962   4.092   7.004   1.202
13007TIP3   OH238963   5.611   6.893   5.361
13007TIP3    H138964   5.642   6.803   5.374
13007TIP3    H238965   5.691   6.944   5.353
13008TIP3   OH238966   0.090   1.419   2.333
13008TIP3    H138967  -0.006   1.410   2.334
13008TIP3    H238968   0.116   1.409   2.425
13009TIP3   OH238969   7.189   5.052   3.382
13009TIP3    H138970   7.283   5.070   3.388
13009TIP3    H238971   7.163   5.084   3.296
13010TIP3   OH238972   1.438   2.015   0.814
13010TIP3    H138973   1.427   2.088   0.876
13010TIP3    H238974   1.368   1.954   0.836
13011TIP3   OH238975   5.779   2.769   1.068
13011TIP3    H138976   5.703   2.809   1.110
13011TIP3    H238977   5.782   2.681   1.106
13012TIP3   OH238978   6.030   6.928   6.480
13012TIP3    H138979   6.114   6.882   6.474
13012TIP3    H238980   6.033   6.973   6.564
13013TIP3   OH238981   3.728   3.441   2.132
13013TIP3    H138982   3.803   3.398   2.092
13013TIP3    H238983   3.765   3.515   2.181
13014TIP3   OH238984   4.050   1.494   1.119
13014TIP3    H138985   4.005   1.566   1.162
13014TIP3    H238986   4.007   1.415   1.152
13015TIP3   OH238987   6.103   7.299   5.953
13015TIP3    H138988   6.078   7.217   5.910
13015TIP3    H238989   6.196   7.308   5.935
13016TIP3   OH238990   3.760   1.033   2.938
13016TIP3    H138991   3.666   1.045   2.923
13016TIP3    H238992   3.783   0.957   2.885
13017TIP3   OH238993   0.060   0.587   4.058
13017TIP3    H138994  -0.010   0.631   4.009
13017TIP3    H238995   0.137   0.593   4.002
13018TIP3   OH238996   4.844   7.400   5.703
13018TIP3    H138997   4.771   7.355   5.661
13018TIP3    H238998   4.822   7.493   5.697
13019TIP3   OH238999   8.246   6.463   0.760
13019TIP3    H139000   8.243   6.407   0.683
13019TIP3    H239001   8.325   6.516   0.749
13020TIP3   OH239002   6.272   0.584   5.718
13020TIP3    H139003   6.351   0.583   5.664
13020TIP3    H239004   6.252   0.677   5.729
13021TIP3   OH239005   3.296   7.545   0.533
13021TIP3    H139006   3.227   7.546   0.599
13021TIP3    H239007   3.337   7.632   0.539
13022TIP3   OH239008   4.293   0.202   1.710
13022TIP3    H139009   4.317   0.110   1.712
13022TIP3    H239010   4.276   0.221   1.618
13023TIP3   OH239011   4.925   6.461   2.956
13023TIP3    H139012   4.935   6.396   2.887
13023TIP3    H239013   4.833   6.454   2.982
13024TIP3   OH239014   5.583   1.777   3.439
13024TIP3    H139015   5.656   1.794   3.380
13024TIP3    H239016   5.555   1.688   3.418
13025TIP3   OH239017   4.709   6.818   3.699
13025TIP3    H139018   4.692   6.849   3.788
13025TIP3    H239019   4.623   6.792   3.666
13026TIP3   OH239020   5.238   1.963   0.708
13026TIP3    H139021   5.251   2.042   0.760
13026TIP3    H239022   5.245   1.993   0.617
13027TIP3   OH239023   5.464   0.650   0.159
13027TIP3    H139024   5.522   0.726   0.160
13027TIP3    H239025   5.520   0.576   0.134
13028TIP3   OH239026   3.484   6.478   2.949
13028TIP3    H139027   3.457   6.528   3.027
13028TIP3    H239028   3.434   6.396   2.956
13029TIP3   OH239029   2.361   5.642   4.027
13029TIP3    H139030   2.406   5.593   3.958
13029TIP3    H239031   2.372   5.734   4.003
13030TIP3   OH239032   3.138   4.007   6.287
13030TIP3    H139033   3.176   3.973   6.206
13030TIP3    H239034   3.047   4.025   6.265
13031TIP3   OH239035   0.546   3.505   3.434
13031TIP3    H139036   0.622   3.452   3.457
13031TIP3    H239037   0.565   3.592   3.469
13032TIP3   OH239038   5.518   5.629   6.721
13032TIP3    H139039   5.460   5.662   6.652
13032TIP3    H239040   5.497   5.536   6.728
13033TIP3   OH239041   8.063   3.445   3.881
13033TIP3    H139042   7.971   3.446   3.854
13033TIP3    H239043   8.104   3.378   3.826
13034TIP3   OH239044   5.445   2.633   5.999
13034TIP3    H139045   5.501   2.638   5.922
13034TIP3    H239046   5.400   2.549   5.992
13035TIP3   OH239047   4.083   2.712   1.288
13035TIP3    H139048   4.108   2.800   1.316
13035TIP3    H239049   3.997   2.723   1.248
13036TIP3   OH239050   3.444   0.121   3.299
13036TIP3    H139051   3.535   0.148   3.312
13036TIP3    H239052   3.392   0.191   3.338
13037TIP3   OH239053   3.310   0.474   4.796
13037TIP3    H139054   3.214   0.467   4.802
13037TIP3    H239055   3.342   0.391   4.832
13038TIP3   OH239056   7.988   1.703   2.773
13038TIP3    H139057   7.955   1.774   2.828
13038TIP3    H239058   7.911   1.648   2.757
13039TIP3   OH239059   7.806   4.682   5.485
13039TIP3    H139060   7.752   4.656   5.411
13039TIP3    H239061   7.895   4.683   5.451
13040TIP3   OH239062   3.157   1.656   4.432
13040TIP3    H139063   3.168   1.595   4.505
13040TIP3    H239064   3.076   1.627   4.389
13041TIP3   OH239065   5.340   2.381   4.973
13041TIP3    H139066   5.257   2.402   4.930
13041TIP3    H239067   5.366   2.297   4.936
13042TIP3   OH239068   2.338   0.471   5.689
13042TIP3    H139069   2.414   0.504   5.739
13042TIP3    H239070   2.292   0.550   5.662
13043TIP3   OH239071   6.725   6.881   2.374
13043TIP3    H139072   6.781   6.887   2.452
13043TIP3    H239073   6.642   6.919   2.402
13044TIP3   OH239074   6.693   3.639   5.181
13044TIP3    H139075   6.771   3.586   5.198
13044TIP3    H239076   6.641   3.587   5.119
13045TIP3   OH239077   1.824   3.327   3.950
13045TIP3    H139078   1.737   3.362   3.969
13045TIP3    H239079   1.818   3.235   3.976
13046TIP3   OH239080   5.717   5.980   0.195
13046TIP3    H139081   5.782   6.013   0.257
13046TIP3    H239082   5.645   5.949   0.251
13047TIP3   OH239083   2.350   4.384   2.719
13047TIP3    H139084   2.309   4.353   2.639
13047TIP3    H239085   2.442   4.359   2.710
13048TIP3   OH239086   4.498   3.380   4.978
13048TIP3    H139087   4.406   3.374   5.002
13048TIP3    H239088   4.499   3.434   4.899
13049TIP3   OH239089   3.294   4.173   4.886
13049TIP3    H139090   3.243   4.095   4.907
13049TIP3    H239091   3.236   4.226   4.830
13050TIP3   OH239092   5.672   1.754   6.328
13050TIP3    H139093   5.704   1.791   6.410
13050TIP3    H239094   5.751   1.739   6.276
13051TIP3   OH239095   3.846   7.136   3.540
13051TIP3    H139096   3.902   7.212   3.530
13051TIP3    H239097   3.771   7.167   3.591
13052TIP3   OH239098   5.486   3.486   5.427
13052TIP3    H139099   5.393   3.468   5.415
13052TIP3    H239100   5.493   3.510   5.520
13053TIP3   OH239101   2.613   1.778   4.553
13053TIP3    H139102   2.540   1.729   4.516
13053TIP3    H239103   2.611   1.863   4.508
13054TIP3   OH239104   2.760   0.493   5.456
13054TIP3    H139105   2.698   0.555   5.495
13054TIP3    H239106   2.832   0.488   5.519
13055TIP3   OH239107   0.896   0.874   4.406
13055TIP3    H139108   0.974   0.824   4.430
13055TIP3    H239109   0.884   0.855   4.313
13056TIP3   OH239110   6.259   6.192   5.212
13056TIP3    H139111   6.227   6.157   5.129
13056TIP3    H239112   6.275   6.114   5.266
13057TIP3   OH239113   1.468   3.587   1.589
13057TIP3    H139114   1.426   3.670   1.566
13057TIP3    H239115   1.506   3.603   1.675
13058TIP3   OH239116   0.483   4.292   5.239
13058TIP3    H139117   0.563   4.344   5.236
13058TIP3    H239118   0.506   4.214   5.289
13059TIP3   OH239119   1.012   2.253   1.306
13059TIP3    H139120   1.103   2.282   1.315
13059TIP3    H239121   0.963   2.311   1.365
13060TIP3   OH239122   2.834   3.483   1.834
13060TIP3    H139123   2.801   3.430   1.762
13060TIP3    H239124   2.767   3.550   1.847
13061TIP3   OH239125   2.866  -0.004   0.373
13061TIP3    H139126   2.913   0.005   0.290
13061TIP3    H239127   2.833   0.084   0.392
13062TIP3   OH239128   6.761   6.493   5.679
13062TIP3    H139129   6.789   6.470   5.591
13062TIP3    H239130   6.732   6.410   5.718
13063TIP3   OH239131   7.377   7.718   6.786
13063TIP3    H139132   7.422   7.705   6.869
13063TIP3    H239133   7.448   7.736   6.723
13064TIP3   OH239134   5.040   3.618   0.971
13064TIP3    H139135   4.954   3.659   0.982
13064TIP3    H239136   5.088   3.679   0.916
13065TIP3   OH239137   7.711   3.582   0.304
13065TIP3    H139138   7.655   3.597   0.227
13065TIP3    H239139   7.766   3.661   0.309
13066TIP3   OH239140   0.190   5.747   5.004
13066TIP3    H139141   0.224   5.689   5.072
13066TIP3    H239142   0.166   5.827   5.050
13067TIP3   OH239143   3.524   0.250   0.517
13067TIP3    H139144   3.576   0.237   0.596
13067TIP3    H239145   3.551   0.336   0.485
13068TIP3   OH239146   1.542   6.134   1.754
13068TIP3    H139147   1.595   6.211   1.774
13068TIP3    H239148   1.575   6.103   1.669
13069TIP3   OH239149   3.175   6.884   0.168
13069TIP3    H139150   3.192   6.830   0.244
13069TIP3    H239151   3.163   6.972   0.203
13070TIP3   OH239152   7.508   6.061   6.382
13070TIP3    H139153   7.457   6.073   6.302
13070TIP3    H239154   7.557   6.143   6.392
13071TIP3   OH239155   2.789   4.364   1.091
13071TIP3    H139156   2.841   4.372   1.171
13071TIP3    H239157   2.850   4.329   1.026
13072TIP3   OH239158   7.039   5.631   6.452
13072TIP3    H139159   6.967   5.569   6.443
13072TIP3    H239160   7.011   5.709   6.404
13073TIP3   OH239161   1.475   2.550   1.978
13073TIP3    H139162   1.548   2.611   1.969
13073TIP3    H239163   1.517   2.465   1.992
13074TIP3   OH239164   3.886   3.676   3.872
13074TIP3    H139165   3.923   3.755   3.832
13074TIP3    H239166   3.899   3.607   3.806
13075TIP3   OH239167   7.301   3.723   2.693
13075TIP3    H139168   7.214   3.697   2.663
13075TIP3    H239169   7.334   3.646   2.739
13076TIP3   OH239170   3.413   1.261   1.765
13076TIP3    H139171   3.381   1.319   1.835
13076TIP3    H239172   3.485   1.309   1.724
13077TIP3   OH239173   4.173   5.884   4.276
13077TIP3    H139174   4.141   5.871   4.187
13077TIP3    H239175   4.100   5.926   4.322
13078TIP3   OH239176   1.861   6.260   2.089
13078TIP3    H139177   1.799   6.241   2.160
13078TIP3    H239178   1.934   6.200   2.104
13079TIP3   OH239179   7.241   1.443   3.729
13079TIP3    H139180   7.231   1.538   3.728
13079TIP3    H239181   7.230   1.418   3.821
13080TIP3   OH239182   1.891   2.304   1.884
13080TIP3    H139183   1.820   2.299   1.820
13080TIP3    H239184   1.962   2.347   1.838
13081TIP3   OH239185   0.309   3.713   0.271
13081TIP3    H139186   0.368   3.789   0.273
13081TIP3    H239187   0.353   3.647   0.326
13082TIP3   OH239188   6.399   1.729   3.285
13082TIP3    H139189   6.472   1.720   3.223
13082TIP3    H239190   6.346   1.800   3.248
13083TIP3   OH239191   4.938   5.030   3.990
13083TIP3    H139192   4.991   4.978   3.930
13083TIP3    H239193   4.897   4.966   4.048
13084TIP3   OH239194   6.164   0.368   0.105
13084TIP3    H139195   6.120   0.453   0.110
13084TIP3    H239196   6.190   0.359   0.014
13085TIP3   OH239197   2.460   5.459   1.613
13085TIP3    H139198   2.531   5.395   1.606
13085TIP3    H239199   2.473   5.500   1.699
13086TIP3   OH239200   0.882   1.802   6.643
13086TIP3    H139201   0.950   1.748   6.603
13086TIP3    H239202   0.900   1.796   6.737
13087TIP3   OH239203   5.519   1.614   5.228
13087TIP3    H139204   5.529   1.551   5.299
13087TIP3    H239205   5.446   1.580   5.176
13088TIP3   OH239206   2.715   7.448   0.048
13088TIP3    H139207   2.723   7.510   0.121
13088TIP3    H239208   2.655   7.491  -0.013
13089TIP3   OH239209   4.031   2.800   5.486
13089TIP3    H139210   3.944   2.837   5.497
13089TIP3    H239211   4.090   2.875   5.494
13090TIP3   OH239212   8.173   2.188   3.282
13090TIP3    H139213   8.227   2.213   3.207
13090TIP3    H239214   8.212   2.108   3.316
13091TIP3   OH239215   6.388   3.054   4.128
13091TIP3    H139216   6.312   3.022   4.079
13091TIP3    H239217   6.446   3.090   4.061
13092TIP3   OH239218   5.984   7.661   4.496
13092TIP3    H139219   5.911   7.603   4.521
13092TIP3    H239220   6.062   7.612   4.522
13093TIP3   OH239221   6.034   7.596   1.952
13093TIP3    H139222   6.044   7.585   1.858
13093TIP3    H239223   6.117   7.635   1.981
13094TIP3   OH239224   4.120   6.981   2.300
13094TIP3    H139225   4.037   6.939   2.276
13094TIP3    H239226   4.157   6.924   2.367
13095TIP3   OH239227   8.074   2.979   3.031
13095TIP3    H139228   8.020   3.030   2.971
13095TIP3    H239229   8.162   2.984   2.995
13096TIP3   OH239230   3.945   6.944   3.994
13096TIP3    H139231   3.887   6.872   4.021
13096TIP3    H239232   3.955   6.932   3.900
13097TIP3   OH239233   2.813   1.598   4.041
13097TIP3    H139234   2.870   1.650   3.984
13097TIP3    H239235   2.741   1.657   4.063
13098TIP3   OH239236   7.489   6.024   3.822
13098TIP3    H139237   7.518   6.105   3.864
13098TIP3    H239238   7.533   5.955   3.873
13099TIP3   OH239239   0.972   4.760   6.569
13099TIP3    H139240   0.932   4.674   6.583
13099TIP3    H239241   1.060   4.751   6.606
13100TIP3   OH239242   7.528   2.035   4.424
13100TIP3    H139243   7.469   2.071   4.491
13100TIP3    H239244   7.477   1.965   4.383
13101TIP3   OH239245   0.891   7.361   3.191
13101TIP3    H139246   0.922   7.374   3.280
13101TIP3    H239247   0.817   7.421   3.182
13102TIP3   OH239248   4.104   2.809   0.597
13102TIP3    H139249   4.065   2.892   0.571
13102TIP3    H239250   4.118   2.818   0.691
13103TIP3   OH239251   6.474   3.733   2.851
13103TIP3    H139252   6.478   3.641   2.826
13103TIP3    H239253   6.564   3.756   2.875
13104TIP3   OH239254   0.988   6.327   2.364
13104TIP3    H139255   0.986   6.363   2.275
13104TIP3    H239256   1.032   6.242   2.355
13105TIP3   OH239257   5.979   0.176   2.431
13105TIP3    H139258   6.022   0.211   2.509
13105TIP3    H239259   5.937   0.251   2.391
13106TIP3   OH239260   2.194   0.435   4.960
13106TIP3    H139261   2.116   0.471   4.918
13106TIP3    H239262   2.265   0.494   4.932
13107TIP3   OH239263   2.225   0.536   4.188
13107TIP3    H139264   2.271   0.531   4.104
13107TIP3    H239265   2.275   0.601   4.239
13108TIP3   OH239266   7.828   5.998   5.709
13108TIP3    H139267   7.810   5.919   5.659
13108TIP3    H239268   7.820   6.069   5.645
13109TIP3   OH239269   4.853   1.123   2.191
13109TIP3    H139270   4.902   1.062   2.247
13109TIP3    H239271   4.918   1.190   2.166
13110TIP3   OH239272   6.117   6.384   0.812
13110TIP3    H139273   6.190   6.357   0.755
13110TIP3    H239274   6.113   6.316   0.879
13111TIP3   OH239275   8.028   7.733   2.795
13111TIP3    H139276   8.040   7.761   2.885
13111TIP3    H239277   8.093   7.663   2.782
13112TIP3   OH239278   1.932   4.837   4.568
13112TIP3    H139279   1.956   4.784   4.644
13112TIP3    H239280   1.930   4.927   4.601
13113TIP3   OH239281   3.118   2.334   1.476
13113TIP3    H139282   3.213   2.322   1.473
13113TIP3    H239283   3.100   2.357   1.567
13114TIP3   OH239284   2.860   3.598   5.377
13114TIP3    H139285   2.855   3.505   5.402
13114TIP3    H239286   2.807   3.604   5.298
13115TIP3   OH239287   2.467   2.456   5.920
13115TIP3    H139288   2.518   2.469   6.000
13115TIP3    H239289   2.459   2.544   5.882
13116TIP3   OH239290   0.748   0.423   4.264
13116TIP3    H139291   0.660   0.385   4.273
13116TIP3    H239292   0.753   0.449   4.172
13117TIP3   OH239293   5.932   2.971   2.415
13117TIP3    H139294   5.903   3.062   2.407
13117TIP3    H239295   5.913   2.947   2.506
13118TIP3   OH239296   6.311   4.306   4.955
13118TIP3    H139297   6.251   4.335   5.023
13118TIP3    H239298   6.379   4.257   5.001
13119TIP3   OH239299   7.203   5.019   2.278
13119TIP3    H139300   7.163   4.986   2.198
13119TIP3    H239301   7.279   5.069   2.248
13120TIP3   OH239302   0.740   2.432   1.224
13120TIP3    H139303   0.799   2.472   1.161
13120TIP3    H239304   0.794   2.417   1.302
13121TIP3   OH239305   0.875   2.912   5.104
13121TIP3    H139306   0.868   2.852   5.178
13121TIP3    H239307   0.796   2.966   5.109
13122TIP3   OH239308   1.730   3.125   3.123
13122TIP3    H139309   1.748   3.182   3.198
13122TIP3    H239310   1.814   3.116   3.078
13123TIP3   OH239311   5.747   6.459   4.930
13123TIP3    H139312   5.753   6.381   4.875
13123TIP3    H239313   5.677   6.511   4.891
13124TIP3   OH239314   6.747   5.334   0.940
13124TIP3    H139315   6.792   5.338   0.856
13124TIP3    H239316   6.817   5.331   1.005
13125TIP3   OH239317   3.720   4.537   5.786
13125TIP3    H139318   3.639   4.485   5.790
13125TIP3    H239319   3.700   4.616   5.836
13126TIP3   OH239320   6.058   2.286   3.057
13126TIP3    H139321   6.090   2.264   3.145
13126TIP3    H239322   6.056   2.381   3.056
13127TIP3   OH239323   2.126   6.095   2.775
13127TIP3    H139324   2.061   6.146   2.823
13127TIP3    H239325   2.209   6.138   2.794
13128TIP3   OH239326   0.830   4.606   6.307
13128TIP3    H139327   0.845   4.586   6.399
13128TIP3    H239328   0.739   4.581   6.291
13129TIP3   OH239329   2.149   7.775   2.731
13129TIP3    H139330   2.066   7.737   2.701
13129TIP3    H239331   2.216   7.734   2.677
13130TIP3   OH239332   8.122   2.893   1.649
13130TIP3    H139333   8.045   2.836   1.651
13130TIP3    H239334   8.102   2.957   1.580
13131TIP3   OH239335   3.440   0.590   3.198
13131TIP3    H139336   3.362   0.542   3.226
13131TIP3    H239337   3.510   0.525   3.201
13132TIP3   OH239338   5.275   4.952   2.691
13132TIP3    H139339   5.351   4.943   2.633
13132TIP3    H239340   5.272   5.045   2.712
13133TIP3   OH239341   2.191   3.226   3.809
13133TIP3    H139342   2.142   3.305   3.833
13133TIP3    H239343   2.241   3.205   3.887
13134TIP3   OH239344   3.500   4.753   6.532
13134TIP3    H139345   3.500   4.799   6.447
13134TIP3    H239346   3.477   4.821   6.595
13135TIP3   OH239347   8.047   2.652   1.338
13135TIP3    H139348   8.129   2.691   1.367
13135TIP3    H239349   7.982   2.721   1.348
13136TIP3   OH239350   2.058   4.281   5.888
13136TIP3    H139351   2.008   4.350   5.930
13136TIP3    H239352   2.096   4.231   5.960
13137TIP3   OH239353   2.052   6.677   3.140
13137TIP3    H139354   1.969   6.635   3.118
13137TIP3    H239355   2.081   6.718   3.059
13138TIP3   OH239356   0.510   4.368   3.846
13138TIP3    H139357   0.521   4.449   3.895
13138TIP3    H239358   0.520   4.394   3.754
13139TIP3   OH239359   2.374   2.824   6.096
13139TIP3    H139360   2.285   2.802   6.123
13139TIP3    H239361   2.371   2.918   6.075
13140TIP3   OH239362   4.777   5.135   5.643
13140TIP3    H139363   4.808   5.168   5.558
13140TIP3    H239364   4.793   5.207   5.704
13141TIP3   OH239365   3.758   4.825   3.230
13141TIP3    H139366   3.756   4.897   3.168
13141TIP3    H239367   3.678   4.835   3.281
13142TIP3   OH239368   8.299   4.049   1.642
13142TIP3    H139369   8.244   4.122   1.669
13142TIP3    H239370   8.275   4.033   1.550
13143TIP3   OH239371   3.003   5.492   1.834
13143TIP3    H139372   3.021   5.581   1.866
13143TIP3    H239373   3.088   5.458   1.807
13144TIP3   OH239374   0.364   4.646   5.260
13144TIP3    H139375   0.333   4.608   5.178
13144TIP3    H239376   0.291   4.635   5.321
13145TIP3   OH239377   4.568   1.069   6.453
13145TIP3    H139378   4.517   1.097   6.378
13145TIP3    H239379   4.633   1.008   6.418
13146TIP3   OH239380   8.148   3.743   0.257
13146TIP3    H139381   8.173   3.788   0.176
13146TIP3    H239382   8.227   3.698   0.286
13147TIP3   OH239383   4.793   7.141   3.874
13147TIP3    H139384   4.823   7.130   3.784
13147TIP3    H239385   4.873   7.135   3.927
13148TIP3   OH239386   4.027   4.561   2.991
13148TIP3    H139387   4.012   4.508   2.912
13148TIP3    H239388   4.122   4.575   2.992
13149TIP3   OH239389   4.209   0.150   3.361
13149TIP3    H139390   4.196   0.241   3.336
13149TIP3    H239391   4.299   0.131   3.336
13150TIP3   OH239392   0.526   4.553   3.235
13150TIP3    H139393   0.446   4.583   3.279
13150TIP3    H239394   0.508   4.565   3.141
13151TIP3   OH239395   2.002   0.642   3.130
13151TIP3    H139396   2.068   0.577   3.155
13151TIP3    H239397   1.970   0.611   3.045
13152TIP3   OH239398   0.252   6.490   2.669
13152TIP3    H139399   0.210   6.545   2.603
13152TIP3    H239400   0.217   6.402   2.653
13153TIP3   OH239401   1.823   2.823   0.659
13153TIP3    H139402   1.885   2.755   0.684
13153TIP3    H239403   1.743   2.801   0.707
13154TIP3   OH239404   6.407   7.539   1.238
13154TIP3    H139405   6.401   7.604   1.169
13154TIP3    H239406   6.409   7.590   1.319
13155TIP3   OH239407   2.693   2.130   1.813
13155TIP3    H139408   2.640   2.104   1.888
13155TIP3    H239409   2.783   2.125   1.844
13156TIP3   OH239410   7.666   1.754   4.960
13156TIP3    H139411   7.645   1.758   4.866
13156TIP3    H239412   7.584   1.776   5.003
13157TIP3   OH239413   7.574   4.540   0.635
13157TIP3    H139414   7.623   4.539   0.717
13157TIP3    H239415   7.641   4.544   0.567
13158TIP3   OH239416   6.702   1.498   3.882
13158TIP3    H139417   6.629   1.543   3.924
13158TIP3    H239418   6.724   1.553   3.807
13159TIP3   OH239419   1.310   1.711   5.629
13159TIP3    H139420   1.334   1.669   5.711
13159TIP3    H239421   1.256   1.646   5.583
13160TIP3   OH239422   5.881   1.312   1.271
13160TIP3    H139423   5.821   1.327   1.345
13160TIP3    H239424   5.968   1.328   1.308
13161TIP3   OH239425   6.987   0.119   0.970
13161TIP3    H139426   7.013   0.043   0.919
13161TIP3    H239427   7.061   0.135   1.028
13162TIP3   OH239428   5.613   0.168   3.603
13162TIP3    H139429   5.595   0.159   3.696
13162TIP3    H239430   5.537   0.129   3.560
13163TIP3   OH239431   7.632   5.752   2.607
13163TIP3    H139432   7.664   5.683   2.549
13163TIP3    H239433   7.643   5.717   2.695
13164TIP3   OH239434   3.212   4.172   0.747
13164TIP3    H139435   3.173   4.092   0.783
13164TIP3    H239436   3.226   4.153   0.654
13165TIP3   OH239437   6.596   3.304   5.186
13165TIP3    H139438   6.655   3.342   5.250
13165TIP3    H239439   6.509   3.333   5.214
13166TIP3   OH239440   7.468   2.814   1.676
13166TIP3    H139441   7.490   2.725   1.649
13166TIP3    H239442   7.511   2.870   1.611
13167TIP3   OH239443   2.506   0.290   5.544
13167TIP3    H139444   2.475   0.377   5.568
13167TIP3    H239445   2.426   0.240   5.527
13168TIP3   OH239446   4.973   1.227   4.359
13168TIP3    H139447   4.987   1.321   4.365
13168TIP3    H239448   5.022   1.200   4.281
13169TIP3   OH239449   0.719   6.625   4.992
13169TIP3    H139450   0.705   6.717   4.969
13169TIP3    H239451   0.785   6.595   4.930
13170TIP3   OH239452   4.445   7.064   2.898
13170TIP3    H139453   4.406   7.035   2.981
13170TIP3    H239454   4.422   7.156   2.892
13171TIP3   OH239455   7.859   4.209   1.254
13171TIP3    H139456   7.775   4.186   1.294
13171TIP3    H239457   7.835   4.248   1.170
13172TIP3   OH239458   1.591   5.250   6.062
13172TIP3    H139459   1.645   5.270   5.986
13172TIP3    H239460   1.650   5.205   6.123
13173TIP3   OH239461   5.873   4.845   0.988
13173TIP3    H139462   5.907   4.903   1.057
13173TIP3    H239463   5.849   4.765   1.035
13174TIP3   OH239464   7.046   3.001   5.038
13174TIP3    H139465   6.962   3.041   5.062
13174TIP3    H239466   7.022   2.920   4.992
13175TIP3   OH239467   4.581   4.622   0.980
13175TIP3    H139468   4.645   4.638   0.910
13175TIP3    H239469   4.503   4.591   0.934
13176TIP3   OH239470   6.818   4.256   5.494
13176TIP3    H139471   6.813   4.187   5.560
13176TIP3    H239472   6.909   4.257   5.466
13177TIP3   OH239473   5.073   7.630   0.436
13177TIP3    H139474   5.163   7.613   0.407
13177TIP3    H239475   5.042   7.700   0.378
13178TIP3   OH239476   4.130   3.386   1.048
13178TIP3    H139477   4.207   3.422   1.093
13178TIP3    H239478   4.142   3.413   0.957
13179TIP3   OH239479   0.420   6.408   6.091
13179TIP3    H139480   0.353   6.409   6.022
13179TIP3    H239481   0.370   6.412   6.173
13180TIP3   OH239482   6.219   3.767   3.022
13180TIP3    H139483   6.270   3.848   3.022
13180TIP3    H239484   6.253   3.717   3.096
13181TIP3   OH239485   2.694   0.217   5.761
13181TIP3    H139486   2.766   0.168   5.721
13181TIP3    H239487   2.643   0.250   5.687
13182TIP3   OH239488   4.499   5.428   2.164
13182TIP3    H139489   4.519   5.340   2.132
13182TIP3    H239490   4.423   5.456   2.112
13183TIP3   OH239491   3.364   1.744   2.477
13183TIP3    H139492   3.398   1.662   2.444
13183TIP3    H239493   3.311   1.779   2.405
13184TIP3   OH239494   2.628   4.191   6.533
13184TIP3    H139495   2.584   4.268   6.570
13184TIP3    H239496   2.557   4.140   6.494
13185TIP3   OH239497   7.371   7.727   6.038
13185TIP3    H139498   7.448   7.670   6.046
13185TIP3    H239499   7.378   7.787   6.112
13186TIP3   OH239500   7.129   1.835   6.399
13186TIP3    H139501   7.122   1.808   6.491
13186TIP3    H239502   7.138   1.753   6.351
13187TIP3   OH239503   4.334   2.178   3.218
13187TIP3    H139504   4.244   2.209   3.229
13187TIP3    H239505   4.328   2.083   3.233
13188TIP3   OH239506   2.579   0.367   2.811
13188TIP3    H139507   2.652   0.347   2.753
13188TIP3    H239508   2.526   0.431   2.763
13189TIP3   OH239509   4.889   2.012   2.666
13189TIP3    H139510   4.818   1.963   2.707
13189TIP3    H239511   4.894   2.093   2.717
13190TIP3   OH239512   0.515   3.122   4.712
13190TIP3    H139513   0.606   3.149   4.706
13190TIP3    H239514   0.519   3.028   4.732
13191TIP3   OH239515   2.228   0.680   0.563
13191TIP3    H139516   2.264   0.767   0.581
13191TIP3    H239517   2.151   0.674   0.620
13192TIP3   OH239518   7.710   4.886   3.551
13192TIP3    H139519   7.684   4.844   3.633
13192TIP3    H239520   7.805   4.897   3.559
13193TIP3   OH239521   4.053   3.544   2.942
13193TIP3    H139522   3.963   3.529   2.970
13193TIP3    H239523   4.102   3.471   2.980
13194TIP3   OH239524   7.424   7.113   4.649
13194TIP3    H139525   7.437   7.206   4.630
13194TIP3    H239526   7.390   7.076   4.567
13195TIP3   OH239527   0.457   1.838   1.297
13195TIP3    H139528   0.469   1.933   1.299
13195TIP3    H239529   0.532   1.803   1.345
13196TIP3   OH239530   7.813   5.129   2.902
13196TIP3    H139531   7.861   5.180   2.966
13196TIP3    H239532   7.881   5.086   2.849
13197TIP3   OH239533   2.579   6.113   2.759
13197TIP3    H139534   2.561   6.206   2.752
13197TIP3    H239535   2.519   6.082   2.827
13198TIP3   OH239536   7.051   6.021   3.946
13198TIP3    H139537   7.098   5.973   3.878
13198TIP3    H239538   7.061   6.113   3.922
13199TIP3   OH239539   1.121   3.929   0.514
13199TIP3    H139540   1.036   3.934   0.558
13199TIP3    H239541   1.102   3.953   0.424
13200TIP3   OH239542   1.083   5.038   0.467
13200TIP3    H139543   1.111   5.125   0.498
13200TIP3    H239544   0.988   5.046   0.457
13201TIP3   OH239545   4.858   1.068   3.872
13201TIP3    H139546   4.864   1.138   3.807
13201TIP3    H239547   4.779   1.088   3.922
13202TIP3   OH239548   4.703   0.747   6.609
13202TIP3    H139549   4.770   0.815   6.619
13202TIP3    H239550   4.738   0.688   6.543
13203TIP3   OH239551   7.258   2.500   3.787
13203TIP3    H139552   7.326   2.557   3.752
13203TIP3    H239553   7.305   2.425   3.822
13204TIP3   OH239554   7.147   2.001   5.015
13204TIP3    H139555   7.054   2.021   5.011
13204TIP3    H239556   7.176   2.040   5.098
13205TIP3   OH239557   2.166   4.655   2.554
13205TIP3    H139558   2.155   4.561   2.539
13205TIP3    H239559   2.107   4.675   2.627
13206TIP3   OH239560   2.380   2.004   1.871
13206TIP3    H139561   2.299   2.050   1.894
13206TIP3    H239562   2.423   1.989   1.955
13207TIP3   OH239563   2.553   4.012   4.208
13207TIP3    H139564   2.482   3.965   4.164
13207TIP3    H239565   2.633   3.970   4.177
13208TIP3   OH239566   2.691   2.956   3.421
13208TIP3    H139567   2.776   2.987   3.454
13208TIP3    H239568   2.634   3.033   3.426
13209TIP3   OH239569   4.972   2.998   0.112
13209TIP3    H139570   4.932   2.987   0.198
13209TIP3    H239571   4.944   2.921   0.063
13210TIP3   OH239572   1.277   1.389   6.629
13210TIP3    H139573   1.342   1.442   6.582
13210TIP3    H239574   1.303   1.298   6.612
13211TIP3   OH239575   2.439   7.453   1.254
13211TIP3    H139576   2.391   7.465   1.171
13211TIP3    H239577   2.526   7.425   1.227
13212TIP3   OH239578   0.369   6.188   0.285
13212TIP3    H139579   0.313   6.148   0.352
13212TIP3    H239580   0.315   6.190   0.207
13213TIP3   OH239581   3.465   4.013   0.373
13213TIP3    H139582   3.524   4.063   0.316
13213TIP3    H239583   3.460   3.926   0.333
13214TIP3   OH239584   2.906   6.224   1.035
13214TIP3    H139585   2.858   6.172   1.100
13214TIP3    H239586   2.874   6.192   0.950
13215TIP3   OH239587   0.529   4.403   5.938
13215TIP3    H139588   0.480   4.479   5.907
13215TIP3    H239589   0.512   4.400   6.032
13216TIP3   OH239590   3.418   4.289   3.235
13216TIP3    H139591   3.425   4.380   3.262
13216TIP3    H239592   3.448   4.238   3.311
13217TIP3   OH239593   1.804   7.272   2.756
13217TIP3    H139594   1.868   7.340   2.778
13217TIP3    H239595   1.726   7.296   2.805
13218TIP3   OH239596   6.988   2.161   2.912
13218TIP3    H139597   6.993   2.216   2.834
13218TIP3    H239598   6.899   2.175   2.946
13219TIP3   OH239599   7.059   4.090   0.922
13219TIP3    H139600   6.998   4.017   0.917
13219TIP3    H239601   7.137   4.060   0.874
13220TIP3   OH239602   3.356   0.748   1.417
13220TIP3    H139603   3.427   0.786   1.365
13220TIP3    H239604   3.387   0.661   1.440
13221TIP3   OH239605   0.014   3.827   2.270
13221TIP3    H139606   0.080   3.849   2.335
13221TIP3    H239607   0.052   3.855   2.187
13222TIP3   OH239608   5.286   5.995   3.269
13222TIP3    H139609   5.333   6.078   3.260
13222TIP3    H239610   5.355   5.931   3.284
13223TIP3   OH239611   8.119   7.253   4.407
13223TIP3    H139612   8.156   7.326   4.357
13223TIP3    H239613   8.027   7.251   4.381
13224TIP3   OH239614   0.618   6.536   5.903
13224TIP3    H139615   0.567   6.490   5.969
13224TIP3    H239616   0.622   6.627   5.934
13225TIP3   OH239617   4.590   3.012   1.744
13225TIP3    H139618   4.521   3.062   1.701
13225TIP3    H239619   4.560   3.002   1.834
13226TIP3   OH239620   2.547   5.521   3.877
13226TIP3    H139621   2.573   5.439   3.919
13226TIP3    H239622   2.630   5.562   3.851
13227TIP3   OH239623   1.382   4.058   3.530
13227TIP3    H139624   1.327   4.018   3.598
13227TIP3    H239625   1.429   3.984   3.491
13228TIP3   OH239626   3.281   0.591   0.047
13228TIP3    H139627   3.258   0.649  -0.026
13228TIP3    H239628   3.304   0.508   0.006
13229TIP3   OH239629   6.702   1.503   0.445
13229TIP3    H139630   6.738   1.424   0.404
13229TIP3    H239631   6.755   1.516   0.523
13230TIP3   OH239632   5.741   5.152   3.653
13230TIP3    H139633   5.646   5.153   3.637
13230TIP3    H239634   5.775   5.086   3.593
13231TIP3   OH239635   3.006   1.150   2.334
13231TIP3    H139636   3.080   1.097   2.305
13231TIP3    H239637   2.963   1.178   2.254
13232TIP3   OH239638   5.818   2.960   0.474
13232TIP3    H139639   5.808   2.885   0.415
13232TIP3    H239640   5.783   2.929   0.558
13233TIP3   OH239641   4.535   3.829   5.824
13233TIP3    H139642   4.529   3.733   5.816
13233TIP3    H239643   4.444   3.858   5.826
13234TIP3   OH239644   1.288   5.407   5.694
13234TIP3    H139645   1.368   5.364   5.724
13234TIP3    H239646   1.284   5.387   5.600
13235TIP3   OH239647   2.085   7.349   6.472
13235TIP3    H139648   2.008   7.405   6.482
13235TIP3    H239649   2.143   7.377   6.543
13236TIP3   OH239650   8.253   7.805   2.571
13236TIP3    H139651   8.270   7.803   2.477
13236TIP3    H239652   8.243   7.713   2.596
13237TIP3   OH239653   5.865   6.404   0.157
13237TIP3    H139654   5.785   6.362   0.187
13237TIP3    H239655   5.895   6.456   0.231
13238TIP3   OH239656   1.290   5.572   4.556
13238TIP3    H139657   1.335   5.601   4.477
13238TIP3    H239658   1.349   5.596   4.628
13239TIP3   OH239659   3.327   1.576   4.005
13239TIP3    H139660   3.276   1.525   4.068
13239TIP3    H239661   3.365   1.511   3.947
13240TIP3   OH239662   7.577   7.738   3.453
13240TIP3    H139663   7.590   7.765   3.362
13240TIP3    H239664   7.519   7.804   3.490
13241TIP3   OH239665   3.177   2.006   2.610
13241TIP3    H139666   3.202   2.040   2.695
13241TIP3    H239667   3.181   1.911   2.620
13242TIP3   OH239668   7.456   3.638   0.467
13242TIP3    H139669   7.523   3.570   0.463
13242TIP3    H239670   7.376   3.591   0.494
13243TIP3   OH239671   7.093   6.260   3.765
13243TIP3    H139672   7.115   6.351   3.782
13243TIP3    H239673   7.093   6.253   3.669
13244TIP3   OH239674   4.289   0.223   4.100
13244TIP3    H139675   4.272   0.248   4.009
13244TIP3    H239676   4.308   0.129   4.096
13245TIP3   OH239677   3.842   0.850   4.747
13245TIP3    H139678   3.883   0.917   4.694
13245TIP3    H239679   3.756   0.886   4.770
13246TIP3   OH239680   0.598   0.803   2.490
13246TIP3    H139681   0.538   0.850   2.548
13246TIP3    H239682   0.639   0.871   2.438
13247TIP3   OH239683   0.852   6.969   2.080
13247TIP3    H139684   0.823   6.914   2.154
13247TIP3    H239685   0.773   7.011   2.049
13248TIP3   OH239686   0.686   3.411   0.764
13248TIP3    H139687   0.617   3.460   0.808
13248TIP3    H239688   0.667   3.319   0.785
13249TIP3   OH239689   7.260   5.678   6.023
13249TIP3    H139690   7.197   5.698   5.954
13249TIP3    H239691   7.275   5.583   6.015
13250TIP3   OH239692   5.245   0.916   5.217
13250TIP3    H139693   5.202   0.922   5.131
13250TIP3    H239694   5.239   0.823   5.240
13251TIP3   OH239695   5.978   6.510   3.708
13251TIP3    H139696   5.916   6.452   3.751
13251TIP3    H239697   5.926   6.555   3.641
13252TIP3   OH239698   6.416   0.915   3.892
13252TIP3    H139699   6.386   0.866   3.815
13252TIP3    H239700   6.472   0.984   3.857
13253TIP3   OH239701   2.509   5.449   3.089
13253TIP3    H139702   2.413   5.447   3.079
13253TIP3    H239703   2.523   5.512   3.160
13254TIP3   OH239704   4.807   3.996   3.234
13254TIP3    H139705   4.852   3.976   3.152
13254TIP3    H239706   4.717   4.015   3.208
13255TIP3   OH239707   5.663   5.779   5.658
13255TIP3    H139708   5.614   5.861   5.666
13255TIP3    H239709   5.726   5.781   5.729
13256TIP3   OH239710   7.615   0.321   3.069
13256TIP3    H139711   7.637   0.413   3.054
13256TIP3    H239712   7.633   0.277   2.986
13257TIP3   OH239713   6.983   7.648   5.145
13257TIP3    H139714   7.076   7.634   5.161
13257TIP3    H239715   6.938   7.603   5.216
13258TIP3   OH239716   0.648   0.975   5.390
13258TIP3    H139717   0.598   0.984   5.471
13258TIP3    H239718   0.582   0.967   5.322
13259TIP3   OH239719   3.120   3.107   5.431
13259TIP3    H139720   3.065   3.046   5.382
13259TIP3    H239721   3.156   3.167   5.366
13260TIP3   OH239722   1.092   3.907   5.521
13260TIP3    H139723   0.998   3.926   5.516
13260TIP3    H239724   1.097   3.824   5.569
13261TIP3   OH239725   7.956   1.554   1.015
13261TIP3    H139726   7.972   1.645   1.038
13261TIP3    H239727   8.033   1.507   1.048
13262TIP3   OH239728   2.119   6.479   5.779
13262TIP3    H139729   2.116   6.390   5.742
13262TIP3    H239730   2.123   6.536   5.702
13263TIP3   OH239731   7.066   0.591   4.955
13263TIP3    H139732   7.147   0.553   4.989
13263TIP3    H239733   7.073   0.580   4.860
13264TIP3   OH239734   7.472   1.841   1.940
13264TIP3    H139735   7.479   1.807   1.850
13264TIP3    H239736   7.534   1.914   1.942
13265TIP3   OH239737   4.991   1.086   4.970
13265TIP3    H139738   4.950   1.134   4.898
13265TIP3    H239739   4.980   0.994   4.947
13266TIP3   OH239740   0.948   7.036   2.825
13266TIP3    H139741   1.036   6.997   2.823
13266TIP3    H239742   0.889   6.961   2.834
13267TIP3   OH239743   6.331   3.409   5.568
13267TIP3    H139744   6.289   3.411   5.482
13267TIP3    H239745   6.388   3.487   5.569
13268TIP3   OH239746   2.615   6.678   2.926
13268TIP3    H139747   2.529   6.717   2.946
13268TIP3    H239748   2.619   6.677   2.830
13269TIP3   OH239749   4.598   7.588   5.669
13269TIP3    H139750   4.540   7.664   5.669
13269TIP3    H239751   4.561   7.529   5.735
13270TIP3   OH239752   7.596   1.750   3.990
13270TIP3    H139753   7.599   1.738   4.085
13270TIP3    H239754   7.687   1.742   3.962
13271TIP3   OH239755   2.655   4.888   1.415
13271TIP3    H139756   2.638   4.796   1.397
13271TIP3    H239757   2.750   4.897   1.407
13272TIP3   OH239758   4.160   0.392   4.251
13272TIP3    H139759   4.227   0.324   4.244
13272TIP3    H239760   4.210   0.474   4.249
13273TIP3   OH239761   0.434   6.705   6.220
13273TIP3    H139762   0.504   6.716   6.284
13273TIP3    H239763   0.358   6.747   6.261
13274TIP3   OH239764   7.283   3.385   6.757
13274TIP3    H139765   7.351   3.333   6.715
13274TIP3    H239766   7.286   3.470   6.712
13275TIP3   OH239767   2.013   7.237   0.206
13275TIP3    H139768   2.068   7.192   0.143
13275TIP3    H239769   1.948   7.171   0.232
13276TIP3   OH239770   4.082   7.208   0.275
13276TIP3    H139771   4.115   7.132   0.228
13276TIP3    H239772   4.039   7.172   0.353
13277TIP3   OH239773   2.382   2.593   4.745
13277TIP3    H139774   2.387   2.672   4.692
13277TIP3    H239775   2.449   2.535   4.708
13278TIP3   OH239776   0.290   4.729   2.765
13278TIP3    H139777   0.261   4.643   2.796
13278TIP3    H239778   0.311   4.778   2.845
13279TIP3   OH239779   6.145   0.141   3.062
13279TIP3    H139780   6.069   0.083   3.055
13279TIP3    H239781   6.220   0.082   3.064
13280TIP3   OH239782   6.128   5.698   3.862
13280TIP3    H139783   6.129   5.789   3.890
13280TIP3    H239784   6.158   5.700   3.771
13281TIP3   OH239785   4.999   3.769   1.547
13281TIP3    H139786   5.045   3.759   1.630
13281TIP3    H239787   4.956   3.685   1.532
13282TIP3   OH239788   4.523   3.573   1.402
13282TIP3    H139789   4.572   3.537   1.328
13282TIP3    H239790   4.432   3.574   1.371
13283TIP3   OH239791   0.591   3.107   3.430
13283TIP3    H139792   0.643   3.175   3.388
13283TIP3    H239793   0.501   3.126   3.404
13284TIP3   OH239794   7.933   6.402   5.081
13284TIP3    H139795   8.015   6.407   5.032
13284TIP3    H239796   7.951   6.340   5.152
13285TIP3   OH239797   6.874   5.090   1.404
13285TIP3    H139798   6.910   5.165   1.450
13285TIP3    H239799   6.895   5.104   1.312
13286TIP3   OH239800   5.511   2.732   4.922
13286TIP3    H139801   5.553   2.777   4.849
13286TIP3    H239802   5.576   2.668   4.952
13287TIP3   OH239803   0.212   2.443   1.088
13287TIP3    H139804   0.127   2.457   1.047
13287TIP3    H239805   0.193   2.429   1.180
13288TIP3   OH239806   6.139   2.682   5.525
13288TIP3    H139807   6.130   2.593   5.559
13288TIP3    H239808   6.229   2.687   5.494
13289TIP3   OH239809   7.125   6.982   2.384
13289TIP3    H139810   7.120   7.018   2.473
13289TIP3    H239811   7.059   7.031   2.335
13290TIP3   OH239812   0.018   6.794   5.617
13290TIP3    H139813  -0.034   6.855   5.565
13290TIP3    H239814   0.087   6.848   5.656
13291TIP3   OH239815   3.082   4.732   2.755
13291TIP3    H139816   3.019   4.690   2.696
13291TIP3    H239817   3.080   4.824   2.729
13292TIP3   OH239818   0.317   1.776   4.103
13292TIP3    H139819   0.335   1.842   4.170
13292TIP3    H239820   0.233   1.803   4.066
13293TIP3   OH239821   7.786   4.044   2.472
13293TIP3    H139822   7.758   3.973   2.529
13293TIP3    H239823   7.872   4.069   2.504
13294TIP3   OH239824   7.322   6.015   3.065
13294TIP3    H139825   7.304   6.072   3.139
13294TIP3    H239826   7.331   5.927   3.103
13295TIP3   OH239827   4.843   7.193   2.715
13295TIP3    H139828   4.783   7.122   2.692
13295TIP3    H239829   4.825   7.211   2.807
13296TIP3   OH239830   0.881   5.559   1.795
13296TIP3    H139831   0.913   5.494   1.733
13296TIP3    H239832   0.855   5.633   1.741
13297TIP3   OH239833   5.102   6.838   4.365
13297TIP3    H139834   5.161   6.782   4.315
13297TIP3    H239835   5.039   6.778   4.405
13298TIP3   OH239836   2.641   4.554   6.533
13298TIP3    H139837   2.629   4.640   6.494
13298TIP3    H239838   2.694   4.506   6.470
13299TIP3   OH239839   5.678   6.766   2.700
13299TIP3    H139840   5.762   6.788   2.740
13299TIP3    H239841   5.680   6.670   2.695
13300TIP3   OH239842   0.669   1.750   0.489
13300TIP3    H139843   0.708   1.663   0.476
13300TIP3    H239844   0.715   1.806   0.427
13301TIP3   OH239845   7.492   3.642   1.139
13301TIP3    H139846   7.491   3.727   1.184
13301TIP3    H239847   7.500   3.665   1.046
13302TIP3   OH239848   2.575   5.151   3.188
13302TIP3    H139849   2.670   5.151   3.178
13302TIP3    H239850   2.560   5.201   3.268
13303TIP3   OH239851   5.199   3.884   3.043
13303TIP3    H139852   5.212   3.972   3.079
13303TIP3    H239853   5.130   3.846   3.096
13304TIP3   OH239854   7.207   3.412   1.851
13304TIP3    H139855   7.161   3.479   1.801
13304TIP3    H239856   7.137   3.362   1.893
13305TIP3   OH239857   3.092   0.822   2.296
13305TIP3    H139858   3.033   0.762   2.341
13305TIP3    H239859   3.068   0.816   2.204
13306TIP3   OH239860   0.387   3.751   3.562
13306TIP3    H139861   0.480   3.740   3.584
13306TIP3    H239862   0.342   3.752   3.646
13307TIP3   OH239863   4.196   6.694   6.268
13307TIP3    H139864   4.272   6.753   6.263
13307TIP3    H239865   4.188   6.674   6.362
13308TIP3   OH239866   5.558   1.042   2.204
13308TIP3    H139867   5.538   1.011   2.292
13308TIP3    H239868   5.629   0.985   2.174
13309TIP3   OH239869   6.727   0.222   1.562
13309TIP3    H139870   6.663   0.157   1.534
13309TIP3    H239871   6.795   0.172   1.607
13310TIP3   OH239872   4.995   3.169   3.653
13310TIP3    H139873   4.914   3.192   3.699
13310TIP3    H239874   4.968   3.154   3.563
13311TIP3   OH239875   7.339   7.068   5.426
13311TIP3    H139876   7.395   7.056   5.503
13311TIP3    H239877   7.302   6.981   5.410
13312TIP3   OH239878   0.515   5.671   5.158
13312TIP3    H139879   0.542   5.734   5.225
13312TIP3    H239880   0.440   5.625   5.197
13313TIP3   OH239881   8.056   4.685   1.423
13313TIP3    H139882   8.070   4.652   1.334
13313TIP3    H239883   8.143   4.684   1.462
13314TIP3   OH239884   5.305   4.798   5.563
13314TIP3    H139885   5.223   4.772   5.606
13314TIP3    H239886   5.353   4.716   5.551
13315TIP3   OH239887   3.720   1.459   0.134
13315TIP3    H139888   3.772   1.494   0.061
13315TIP3    H239889   3.755   1.371   0.148
13316TIP3   OH239890   4.163   3.472   6.372
13316TIP3    H139891   4.201   3.560   6.360
13316TIP3    H239892   4.165   3.459   6.467
13317TIP3   OH239893   4.230   3.760   1.740
13317TIP3    H139894   4.156   3.807   1.704
13317TIP3    H239895   4.298   3.768   1.673
13318TIP3   OH239896   0.390   0.946   2.321
13318TIP3    H139897   0.411   0.860   2.285
13318TIP3    H239898   0.355   0.995   2.247
13319TIP3   OH239899   3.184   7.590   5.586
13319TIP3    H139900   3.231   7.627   5.511
13319TIP3    H239901   3.231   7.623   5.663
13320TIP3   OH239902   6.750   4.070   0.535
13320TIP3    H139903   6.759   4.164   0.553
13320TIP3    H239904   6.782   4.060   0.445
13321TIP3   OH239905   4.980   4.487   4.282
13321TIP3    H139906   5.065   4.500   4.239
13321TIP3    H239907   4.916   4.492   4.210
13322TIP3   OH239908   5.516   6.234   2.906
13322TIP3    H139909   5.584   6.232   2.839
13322TIP3    H239910   5.503   6.142   2.930
13323TIP3   OH239911   5.812   0.366   2.602
13323TIP3    H139912   5.822   0.409   2.517
13323TIP3    H239913   5.756   0.426   2.652
13324TIP3   OH239914   3.890   1.285   4.017
13324TIP3    H139915   3.969   1.301   4.068
13324TIP3    H239916   3.821   1.270   4.082
13325TIP3   OH239917   1.385   4.807   2.219
13325TIP3    H139918   1.464   4.853   2.192
13325TIP3    H239919   1.399   4.787   2.312
13326TIP3   OH239920   1.865   2.315   2.787
13326TIP3    H139921   1.777   2.349   2.799
13326TIP3    H239922   1.868   2.288   2.695
13327TIP3   OH239923   1.816   0.460   0.888
13327TIP3    H139924   1.886   0.524   0.899
13327TIP3    H239925   1.791   0.437   0.978
13328TIP3   OH239926   2.732   4.607   6.799
13328TIP3    H139927   2.711   4.603   6.706
13328TIP3    H239928   2.742   4.701   6.817
13329TIP3   OH239929   6.073   0.994   0.091
13329TIP3    H139930   6.099   1.086   0.098
13329TIP3    H239931   6.077   0.974  -0.002
13330TIP3   OH239932   0.540   6.061   5.710
13330TIP3    H139933   0.482   6.128   5.747
13330TIP3    H239934   0.625   6.078   5.752
13331TIP3   OH239935   2.378   6.196   3.468
13331TIP3    H139936   2.474   6.201   3.468
13331TIP3    H239937   2.354   6.210   3.560
13332TIP3   OH239938   6.461   6.137   2.886
13332TIP3    H139939   6.446   6.232   2.891
13332TIP3    H239940   6.541   6.128   2.835
13333TIP3   OH239941   3.736   6.525   3.880
13333TIP3    H139942   3.789   6.480   3.946
13333TIP3    H239943   3.799   6.577   3.830
13334TIP3   OH239944   0.501   2.516   3.926
13334TIP3    H139945   0.468   2.552   4.009
13334TIP3    H239946   0.423   2.505   3.872
13335TIP3   OH239947   2.228   4.175   1.972
13335TIP3    H139948   2.318   4.175   1.938
13335TIP3    H239949   2.209   4.267   1.991
13336TIP3   OH239950   6.093   6.135   5.624
13336TIP3    H139951   6.126   6.091   5.545
13336TIP3    H239952   6.169   6.180   5.660
13337TIP3   OH239953   7.840   4.522   4.676
13337TIP3    H139954   7.748   4.544   4.692
13337TIP3    H239955   7.861   4.455   4.741
13338TIP3   OH239956   6.608   5.218   1.553
13338TIP3    H139957   6.550   5.254   1.621
13338TIP3    H239958   6.690   5.201   1.599
13339TIP3   OH239959   5.459   2.882   4.273
13339TIP3    H139960   5.469   2.921   4.360
13339TIP3    H239961   5.512   2.938   4.216
13340TIP3   OH239962   4.057   7.629   2.875
13340TIP3    H139963   4.056   7.539   2.908
13340TIP3    H239964   4.109   7.677   2.939
13341TIP3   OH239965   1.972   1.836   0.642
13341TIP3    H139966   1.994   1.919   0.599
13341TIP3    H239967   1.970   1.772   0.572
13342TIP3   OH239968   6.593   4.824   3.238
13342TIP3    H139969   6.653   4.750   3.243
13342TIP3    H239970   6.612   4.865   3.154
13343TIP3   OH239971   3.804   6.790   0.412
13343TIP3    H139972   3.862   6.853   0.369
13343TIP3    H239973   3.717   6.827   0.403
13344TIP3   OH239974   4.435   0.535   2.018
13344TIP3    H139975   4.371   0.533   2.088
13344TIP3    H239976   4.479   0.620   2.027
13345TIP3   OH239977   6.680   2.175   2.108
13345TIP3    H139978   6.721   2.159   2.023
13345TIP3    H239979   6.588   2.156   2.095
13346TIP3   OH239980   1.874   3.951   0.836
13346TIP3    H139981   1.839   3.956   0.925
13346TIP3    H239982   1.818   4.009   0.785
13347TIP3   OH239983   0.328   0.261   3.549
13347TIP3    H139984   0.300   0.349   3.573
13347TIP3    H239985   0.261   0.230   3.489
13348TIP3   OH239986   5.453   7.767   3.010
13348TIP3    H139987   5.414   7.808   3.087
13348TIP3    H239988   5.430   7.826   2.938
13349TIP3   OH239989   6.965   4.889   5.869
13349TIP3    H139990   6.885   4.839   5.856
13349TIP3    H239991   6.979   4.935   5.786
13350TIP3   OH239992   1.904   5.557   4.775
13350TIP3    H139993   1.913   5.524   4.865
13350TIP3    H239994   1.895   5.479   4.721
13351TIP3   OH239995   3.399   4.088   1.152
13351TIP3    H139996   3.432   4.176   1.171
13351TIP3    H239997   3.306   4.101   1.132
13352TIP3   OH239998   0.635   2.751   6.276
13352TIP3    H139999   0.578   2.782   6.347
13352TIP3    H240000   0.605   2.661   6.259
13353TIP3   OH240001   2.801   4.452   6.350
13353TIP3    H140002   2.804   4.457   6.255
13353TIP3    H240003   2.891   4.437   6.377
13354TIP3   OH240004   3.877   5.147   6.722
13354TIP3    H140005   3.891   5.216   6.657
13354TIP3    H240006   3.788   5.161   6.753
13355TIP3   OH240007   5.757   2.693   6.067
13355TIP3    H140008   5.745   2.772   6.119
13355TIP3    H240009   5.696   2.703   5.994
13356TIP3   OH240010   0.002   3.117   6.517
13356TIP3    H140011   0.074   3.083   6.570
13356TIP3    H240012  -0.002   3.210   6.540
13357TIP3   OH240013   7.098   0.829   5.262
13357TIP3    H140014   7.135   0.790   5.183
13357TIP3    H240015   7.107   0.762   5.329
13358TIP3   OH240016   1.255   2.748   6.724
13358TIP3    H140017   1.324   2.723   6.663
13358TIP3    H240018   1.221   2.831   6.690
13359TIP3   OH240019   4.999   4.560   6.781
13359TIP3    H140020   4.961   4.582   6.696
13359TIP3    H240021   4.927   4.572   6.843
13360TIP3   OH240022   1.957   7.435   1.371
13360TIP3    H140023   1.931   7.480   1.451
13360TIP3    H240024   1.902   7.474   1.303
13361TIP3   OH240025   4.410   0.579   4.883
13361TIP3    H140026   4.396   0.485   4.868
13361TIP3    H240027   4.501   0.584   4.914
13362TIP3   OH240028   4.314   0.253   2.312
13362TIP3    H140029   4.334   0.210   2.229
13362TIP3    H240030   4.377   0.217   2.374
13363TIP3   OH240031   7.398   2.520   4.397
13363TIP3    H140032   7.313   2.485   4.371
13363TIP3    H240033   7.460   2.448   4.380
13364TIP3   OH240034   6.177   3.985   0.974
13364TIP3    H140035   6.205   3.908   0.925
13364TIP3    H240036   6.162   4.052   0.907
13365TIP3   OH240037   3.681   0.793   4.362
13365TIP3    H140038   3.764   0.745   4.364
13365TIP3    H240039   3.616   0.728   4.336
13366TIP3   OH240040   5.990   7.825   6.463
13366TIP3    H140041   5.934   7.762   6.418
13366TIP3    H240042   5.942   7.847   6.543
13367TIP3   OH240043   7.045   6.635   3.535
13367TIP3    H140044   7.074   6.567   3.474
13367TIP3    H240045   7.109   6.706   3.525
13368TIP3   OH240046   0.065   5.419   0.333
13368TIP3    H140047   0.062   5.465   0.417
13368TIP3    H240048   0.096   5.331   0.355
13369TIP3   OH240049   5.736   2.409   5.988
13369TIP3    H140050   5.806   2.375   5.933
13369TIP3    H240051   5.777   2.479   6.038
13370TIP3   OH240052   7.013   7.632   1.012
13370TIP3    H140053   7.001   7.717   0.971
13370TIP3    H240054   6.952   7.574   0.967
13371TIP3   OH240055   2.090   1.775   2.007
13371TIP3    H140056   2.160   1.754   2.068
13371TIP3    H240057   2.076   1.694   1.958
13372TIP3   OH240058   1.888   5.435   5.037
13372TIP3    H140059   1.817   5.419   5.099
13372TIP3    H240060   1.913   5.347   5.006
13373TIP3   OH240061   0.832   6.766   5.926
13373TIP3    H140062   0.909   6.821   5.911
13373TIP3    H240063   0.813   6.777   6.019
13374TIP3   OH240064   3.224   6.846   5.259
13374TIP3    H140065   3.169   6.892   5.195
13374TIP3    H240066   3.256   6.769   5.212
13375TIP3   OH240067   3.045   2.238   5.432
13375TIP3    H140068   2.989   2.204   5.362
13375TIP3    H240069   3.103   2.300   5.389
13376TIP3   OH240070   4.528   7.081   5.753
13376TIP3    H140071   4.557   7.165   5.718
13376TIP3    H240072   4.449   7.060   5.704
13377TIP3   OH240073   5.961   3.275   3.264
13377TIP3    H140074   5.904   3.302   3.192
13377TIP3    H240075   5.951   3.343   3.330
13378TIP3   OH240076   6.406   2.515   4.194
13378TIP3    H140077   6.434   2.603   4.169
13378TIP3    H240078   6.459   2.456   4.139
13379TIP3   OH240079   4.379   7.435   1.871
13379TIP3    H140080   4.369   7.528   1.847
13379TIP3    H240081   4.292   7.397   1.857
13380TIP3   OH240082   4.672   1.022   5.228
13380TIP3    H140083   4.669   1.052   5.137
13380TIP3    H240084   4.736   1.078   5.270
13381TIP3   OH240085   2.749   5.657   0.116
13381TIP3    H140086   2.754   5.733   0.173
13381TIP3    H240087   2.669   5.612   0.143
13382TIP3   OH240088   7.441   7.454   0.213
13382TIP3    H140089   7.459   7.377   0.267
13382TIP3    H240090   7.494   7.442   0.135
13383TIP3   OH240091   8.239   2.947   1.287
13383TIP3    H140092   8.144   2.943   1.291
13383TIP3    H240093   8.259   3.040   1.281
13384TIP3   OH240094   6.984   1.353   1.028
13384TIP3    H140095   7.000   1.443   1.054
13384TIP3    H240096   6.918   1.359   0.960
13385TIP3   OH240097   5.213   2.338   5.604
13385TIP3    H140098   5.169   2.348   5.519
13385TIP3    H240099   5.213   2.426   5.641
13386TIP3   OH240100   3.966   0.908   1.162
13386TIP3    H140101   3.920   0.984   1.196
13386TIP3    H240102   4.047   0.905   1.212
13387TIP3   OH240103   7.548   4.871   5.935
13387TIP3    H140104   7.497   4.824   5.868
13387TIP3    H240105   7.503   4.955   5.944
13388TIP3   OH240106   1.756   3.861   5.675
13388TIP3    H140107   1.763   3.911   5.593
13388TIP3    H240108   1.671   3.887   5.711
13389TIP3   OH240109   6.617   1.373   2.391
13389TIP3    H140110   6.599   1.338   2.304
13389TIP3    H240111   6.632   1.467   2.377
13390TIP3   OH240112   7.944   4.828   4.520
13390TIP3    H140113   7.856   4.829   4.482
13390TIP3    H240114   7.984   4.748   4.484
13391TIP3   OH240115   3.465   5.017   0.421
13391TIP3    H140116   3.549   5.046   0.458
13391TIP3    H240117   3.421   5.098   0.397
13392TIP3   OH240118   1.156   3.403   1.269
13392TIP3    H140119   1.189   3.352   1.343
13392TIP3    H240120   1.226   3.466   1.250
13393TIP3   OH240121   3.752   2.601   0.984
13393TIP3    H140122   3.811   2.570   0.915
13393TIP3    H240123   3.788   2.565   1.065
13394TIP3   OH240124   0.826   6.072   5.810
13394TIP3    H140125   0.833   6.002   5.875
13394TIP3    H240126   0.883   6.044   5.739
13395TIP3   OH240127   0.527   6.029   1.445
13395TIP3    H140128   0.529   5.957   1.382
13395TIP3    H240129   0.600   6.085   1.419
13396TIP3   OH240130   0.836   1.063   1.256
13396TIP3    H140131   0.832   1.128   1.186
13396TIP3    H240132   0.886   1.106   1.326
13397TIP3   OH240133   7.847   5.293   0.445
13397TIP3    H140134   7.895   5.221   0.487
13397TIP3    H240135   7.864   5.369   0.501
13398TIP3   OH240136   3.774   3.142   6.302
13398TIP3    H140137   3.840   3.073   6.317
13398TIP3    H240138   3.813   3.221   6.339
13399TIP3   OH240139   1.230   5.688   5.739
13399TIP3    H140140   1.237   5.594   5.724
13399TIP3    H240141   1.170   5.697   5.812
13400TIP3   OH240142   7.464   4.418   6.168
13400TIP3    H140143   7.408   4.399   6.092
13400TIP3    H240144   7.543   4.367   6.152
13401TIP3   OH240145   1.754   2.654   0.441
13401TIP3    H140146   1.783   2.723   0.500
13401TIP3    H240147   1.813   2.581   0.457
13402TIP3   OH240148   1.869   4.059   2.257
13402TIP3    H140149   1.848   3.971   2.286
13402TIP3    H240150   1.962   4.057   2.238
13403TIP3   OH240151   2.167   4.359   0.679
13403TIP3    H140152   2.172   4.447   0.642
13403TIP3    H240153   2.073   4.338   0.679
13404TIP3   OH240154   8.032   7.759   1.074
13404TIP3    H140155   7.940   7.734   1.082
13404TIP3    H240156   8.030   7.851   1.051
13405TIP3   OH240157   1.620   7.234   1.172
13405TIP3    H140158   1.622   7.162   1.235
13405TIP3    H240159   1.626   7.193   1.086
13406TIP3   OH240160   0.652   6.509   1.550
13406TIP3    H140161   0.633   6.598   1.580
13406TIP3    H240162   0.681   6.521   1.460
13407TIP3   OH240163   7.753   5.301   5.267
13407TIP3    H140164   7.709   5.263   5.191
13407TIP3    H240165   7.691   5.367   5.299
13408TIP3   OH240166   3.456   7.803   2.404
13408TIP3    H140167   3.421   7.720   2.435
13408TIP3    H240168   3.381   7.862   2.401
13409TIP3   OH240169   6.732   4.694   0.483
13409TIP3    H140170   6.761   4.762   0.545
13409TIP3    H240171   6.672   4.739   0.424
13410TIP3   OH240172   2.694   1.663   5.946
13410TIP3    H140173   2.749   1.729   5.904
13410TIP3    H240174   2.722   1.580   5.908
13411TIP3   OH240175   4.136   0.165   5.372
13411TIP3    H140176   4.198   0.231   5.340
13411TIP3    H240177   4.091   0.134   5.293
13412TIP3   OH240178   2.649   5.892   0.719
13412TIP3    H140179   2.605   5.910   0.636
13412TIP3    H240180   2.609   5.810   0.749
13413TIP3   OH240181   1.042   0.086   5.413
13413TIP3    H140182   1.008   0.169   5.379
13413TIP3    H240183   1.124   0.072   5.365
13414TIP3   OH240184   7.006   1.888   2.997
13414TIP3    H140185   7.044   1.833   2.928
13414TIP3    H240186   6.999   1.975   2.958
13415TIP3   OH240187   1.993   7.346   2.229
13415TIP3    H140188   1.935   7.334   2.155
13415TIP3    H240189   1.969   7.275   2.290
13416TIP3   OH240190   3.438   3.815   0.177
13416TIP3    H140191   3.524   3.780   0.150
13416TIP3    H240192   3.411   3.870   0.104
13417TIP3   OH240193   0.313   1.415   3.830
13417TIP3    H140194   0.268   1.495   3.801
13417TIP3    H240195   0.318   1.424   3.925
13418TIP3   OH240196   5.155   5.443   2.283
13418TIP3    H140197   5.192   5.381   2.220
13418TIP3    H240198   5.135   5.389   2.360
13419TIP3   OH240199  -0.033   0.265   3.668
13419TIP3    H140200   0.021   0.281   3.745
13419TIP3    H240201   0.024   0.215   3.609
13420TIP3   OH240202   5.881   5.579   4.532
13420TIP3    H140203   5.874   5.554   4.439
13420TIP3    H240204   5.973   5.605   4.542
13421TIP3   OH240205   1.354   0.753   3.580
13421TIP3    H140206   1.403   0.800   3.648
13421TIP3    H240207   1.420   0.706   3.531
13422TIP3   OH240208   6.069   4.616   5.364
13422TIP3    H140209   6.020   4.689   5.325
13422TIP3    H240210   6.003   4.564   5.410
13423TIP3   OH240211   1.979   1.901   1.157
13423TIP3    H140212   1.966   1.893   1.062
13423TIP3    H240213   2.073   1.915   1.167
13424TIP3   OH240214   3.052   4.254   3.859
13424TIP3    H140215   3.012   4.248   3.772
13424TIP3    H240216   3.121   4.319   3.849
13425TIP3   OH240217   3.771   7.754   0.729
13425TIP3    H140218   3.753   7.785   0.640
13425TIP3    H240219   3.693   7.778   0.779
13426TIP3   OH240220   2.815   4.690   4.240
13426TIP3    H140221   2.884   4.642   4.194
13426TIP3    H240222   2.799   4.767   4.186
13427TIP3   OH240223   8.130   1.225   6.538
13427TIP3    H140224   8.099   1.246   6.626
13427TIP3    H240225   8.099   1.298   6.484
13428TIP3   OH240226   4.633   4.939   2.590
13428TIP3    H140227   4.556   4.891   2.559
13428TIP3    H240228   4.698   4.871   2.605
13429TIP3   OH240229   1.207   6.940   2.801
13429TIP3    H140230   1.259   6.872   2.757
13429TIP3    H240231   1.243   6.943   2.890
13430TIP3   OH240232   6.237   1.148   5.816
13430TIP3    H140233   6.204   1.235   5.837
13430TIP3    H240234   6.290   1.123   5.892
13431TIP3   OH240235   3.132   5.324   5.536
13431TIP3    H140236   3.205   5.283   5.490
13431TIP3    H240237   3.063   5.257   5.535
13432TIP3   OH240238   5.173   0.883   5.915
13432TIP3    H140239   5.097   0.834   5.885
13432TIP3    H240240   5.219   0.822   5.974
13433TIP3   OH240241   6.630   4.052   5.292
13433TIP3    H140242   6.542   4.047   5.328
13433TIP3    H240243   6.688   4.033   5.366
13434TIP3   OH240244   6.790   3.444   3.163
13434TIP3    H140245   6.728   3.516   3.173
13434TIP3    H240246   6.854   3.457   3.233
13435TIP3   OH240247   0.043   1.121   5.375
13435TIP3    H140248   0.108   1.189   5.360
13435TIP3    H240249  -0.037   1.168   5.398
13436TIP3   OH240250   0.123   2.995   5.269
13436TIP3    H140251   0.028   3.003   5.281
13436TIP3    H240252   0.155   3.085   5.269
13437TIP3   OH240253   2.660   6.725   0.940
13437TIP3    H140254   2.715   6.802   0.954
13437TIP3    H240255   2.717   6.650   0.958
13438TIP3   OH240256   0.231   4.829   6.431
13438TIP3    H140257   0.320   4.800   6.414
13438TIP3    H240258   0.181   4.748   6.445
13439TIP3   OH240259   1.125   4.666   3.511
13439TIP3    H140260   1.180   4.626   3.444
13439TIP3    H240261   1.155   4.757   3.517
13440TIP3   OH240262   1.474   1.179   4.111
13440TIP3    H140263   1.430   1.193   4.028
13440TIP3    H240264   1.492   1.085   4.114
13441TIP3   OH240265   3.797   4.077   4.080
13441TIP3    H140266   3.734   4.148   4.068
13441TIP3    H240267   3.769   4.034   4.161
13442TIP3   OH240268   6.328   3.286   0.468
13442TIP3    H140269   6.244   3.241   0.475
13442TIP3    H240270   6.387   3.237   0.525
13443TIP3   OH240271   3.494   3.664   2.374
13443TIP3    H140272   3.540   3.720   2.312
13443TIP3    H240273   3.563   3.608   2.410
13444TIP3   OH240274   7.279   5.595   0.508
13444TIP3    H140275   7.349   5.562   0.451
13444TIP3    H240276   7.211   5.624   0.448
13445TIP3   OH240277   3.867   3.896   5.588
13445TIP3    H140278   3.776   3.875   5.605
13445TIP3    H240279   3.894   3.951   5.662
13446TIP3   OH240280   4.583   0.221   5.067
13446TIP3    H140281   4.590   0.146   5.125
13446TIP3    H240282   4.659   0.213   5.009
13447TIP3   OH240283   0.290   6.587   6.494
13447TIP3    H140284   0.216   6.568   6.551
13447TIP3    H240285   0.312   6.679   6.513
13448TIP3   OH240286   8.171   1.985   0.214
13448TIP3    H140287   8.257   2.019   0.191
13448TIP3    H240288   8.110   2.038   0.164
13449TIP3   OH240289   7.576   2.760   2.525
13449TIP3    H140290   7.516   2.708   2.579
13449TIP3    H240291   7.533   2.766   2.440
13450TIP3   OH240292   0.565   3.942   5.885
13450TIP3    H140293   0.554   3.917   5.793
13450TIP3    H240294   0.493   3.897   5.930
13451TIP3   OH240295   3.596   1.542   5.856
13451TIP3    H140296   3.601   1.576   5.946
13451TIP3    H240297   3.600   1.619   5.800
13452TIP3   OH240298   8.139   4.358   3.759
13452TIP3    H140299   8.101   4.270   3.753
13452TIP3    H240300   8.137   4.390   3.669
13453TIP3   OH240301   2.865   6.922   3.331
13453TIP3    H140302   2.866   7.009   3.290
13453TIP3    H240303   2.821   6.866   3.267
13454TIP3   OH240304   1.087   1.681   1.940
13454TIP3    H140305   1.174   1.719   1.947
13454TIP3    H240306   1.101   1.586   1.948
13455TIP3   OH240307   4.815   7.210   3.417
13455TIP3    H140308   4.901   7.207   3.375
13455TIP3    H240309   4.817   7.140   3.482
13456TIP3   OH240310   7.309   5.531   1.657
13456TIP3    H140311   7.341   5.455   1.608
13456TIP3    H240312   7.378   5.597   1.644
13457TIP3   OH240313   7.540   7.382   5.286
13457TIP3    H140314   7.580   7.422   5.209
13457TIP3    H240315   7.447   7.380   5.267
13458TIP3   OH240316   0.757   1.052   3.622
13458TIP3    H140317   0.804   1.042   3.540
13458TIP3    H240318   0.680   1.104   3.599
13459TIP3   OH240319   7.695   7.060   6.529
13459TIP3    H140320   7.757   7.133   6.523
13459TIP3    H240321   7.632   7.088   6.596
13460TIP3   OH240322   2.036   1.132   0.250
13460TIP3    H140323   2.053   1.039   0.262
13460TIP3    H240324   2.005   1.139   0.159
13461TIP3   OH240325   0.358   3.701   4.484
13461TIP3    H140326   0.346   3.782   4.533
13461TIP3    H240327   0.449   3.704   4.454
13462TIP3   OH240328   7.769   4.083   2.904
13462TIP3    H140329   7.819   4.020   2.851
13462TIP3    H240330   7.834   4.145   2.937
13463TIP3   OH240331   3.422   7.039   4.410
13463TIP3    H140332   3.445   6.946   4.422
13463TIP3    H240333   3.415   7.074   4.498
13464TIP3   OH240334   0.988   2.695   5.868
13464TIP3    H140335   0.987   2.745   5.950
13464TIP3    H240336   0.895   2.679   5.849
13465TIP3   OH240337   6.221   2.781   5.911
13465TIP3    H140338   6.173   2.836   5.850
13465TIP3    H240339   6.154   2.728   5.954
13466TIP3   OH240340   1.197   7.691   5.290
13466TIP3    H140341   1.111   7.649   5.294
13466TIP3    H240342   1.207   7.715   5.197
13467TIP3   OH240343   5.540   6.677   1.458
13467TIP3    H140344   5.564   6.736   1.386
13467TIP3    H240345   5.444   6.680   1.460
13468TIP3   OH240346   7.518   3.176   5.550
13468TIP3    H140347   7.498   3.128   5.469
13468TIP3    H240348   7.606   3.210   5.536
13469TIP3   OH240349   1.100   5.920   6.567
13469TIP3    H140350   1.157   5.988   6.533
13469TIP3    H240351   1.113   5.846   6.508
13470TIP3   OH240352   4.529   4.472   0.021
13470TIP3    H140353   4.591   4.406   0.052
13470TIP3    H240354   4.477   4.493   0.099
13471TIP3   OH240355   0.888   7.707   4.659
13471TIP3    H140356   0.825   7.746   4.719
13471TIP3    H240357   0.864   7.614   4.656
13472TIP3   OH240358   5.529   0.685   2.098
13472TIP3    H140359   5.552   0.592   2.093
13472TIP3    H240360   5.442   0.690   2.058
13473TIP3   OH240361   6.956   1.463   5.957
13473TIP3    H140362   6.956   1.558   5.953
13473TIP3    H240363   6.896   1.441   6.028
13474TIP3   OH240364   0.594   3.554   6.646
13474TIP3    H140365   0.581   3.506   6.565
13474TIP3    H240366   0.523   3.618   6.648
13475TIP3   OH240367   0.615   4.467   2.158
13475TIP3    H140368   0.693   4.471   2.213
13475TIP3    H240369   0.599   4.558   2.133
13476TIP3   OH240370   3.823   7.104   0.405
13476TIP3    H140371   3.853   7.127   0.493
13476TIP3    H240372   3.813   7.188   0.360
13477TIP3   OH240373   1.929   0.478   4.914
13477TIP3    H140374   1.893   0.540   4.851
13477TIP3    H240375   1.866   0.479   4.987
13478TIP3   OH240376   3.029   2.634   4.162
13478TIP3    H140377   3.043   2.712   4.216
13478TIP3    H240378   3.054   2.662   4.074
13479TIP3   OH240379   2.317   7.083   6.634
13479TIP3    H140380   2.350   7.133   6.560
13479TIP3    H240381   2.356   7.124   6.711
13480TIP3   OH240382   6.748   1.456   4.411
13480TIP3    H140383   6.754   1.539   4.459
13480TIP3    H240384   6.739   1.390   4.480
13481TIP3   OH240385   4.001   5.220   1.995
13481TIP3    H140386   3.995   5.246   2.087
13481TIP3    H240387   3.983   5.126   1.995
13482TIP3   OH240388   3.323   1.907   4.972
13482TIP3    H140389   3.302   1.830   5.024
13482TIP3    H240390   3.246   1.920   4.915
13483TIP3   OH240391   3.953   5.865   0.538
13483TIP3    H140392   4.016   5.893   0.471
13483TIP3    H240393   3.867   5.881   0.499
13484TIP3   OH240394   3.314   2.647   5.209
13484TIP3    H140395   3.307   2.688   5.123
13484TIP3    H240396   3.380   2.698   5.255
13485TIP3   OH240397   2.715   5.096   2.080
13485TIP3    H140398   2.722   5.181   2.036
13485TIP3    H240399   2.661   5.113   2.157
13486TIP3   OH240400   2.819   2.529   5.324
13486TIP3    H140401   2.756   2.485   5.267
13486TIP3    H240402   2.780   2.615   5.341
13487TIP3   OH240403   1.614   3.695   0.365
13487TIP3    H140404   1.522   3.713   0.383
13487TIP3    H240405   1.662   3.760   0.417
13488TIP3   OH240406   4.613   3.215   5.244
13488TIP3    H140407   4.642   3.283   5.184
13488TIP3    H240408   4.574   3.262   5.318
13489TIP3   OH240409   4.708   7.696   1.546
13489TIP3    H140410   4.690   7.783   1.579
13489TIP3    H240411   4.759   7.711   1.466
13490TIP3   OH240412   1.794   7.050   3.758
13490TIP3    H140413   1.835   7.044   3.671
13490TIP3    H240414   1.823   7.134   3.793
13491TIP3   OH240415   6.454   1.034   2.196
13491TIP3    H140416   6.503   0.971   2.249
13491TIP3    H240417   6.441   0.990   2.112
13492TIP3   OH240418   5.516   4.678   2.460
13492TIP3    H140419   5.594   4.633   2.429
13492TIP3    H240420   5.546   4.733   2.532
13493TIP3   OH240421   5.315   0.645   1.362
13493TIP3    H140422   5.397   0.690   1.382
13493TIP3    H240423   5.338   0.580   1.296
13494TIP3   OH240424   0.777   6.266   3.994
13494TIP3    H140425   0.809   6.176   3.991
13494TIP3    H240426   0.695   6.263   3.945
13495TIP3   OH240427   0.115   7.766   2.940
13495TIP3    H140428   0.066   7.845   2.918
13495TIP3    H240429   0.136   7.726   2.856
13496TIP3   OH240430   1.657   3.680   1.244
13496TIP3    H140431   1.564   3.705   1.246
13496TIP3    H240432   1.700   3.743   1.303
13497TIP3   OH240433   7.663   2.904   4.753
13497TIP3    H140434   7.751   2.940   4.764
13497TIP3    H240435   7.610   2.979   4.725
13498TIP3   OH240436   7.753   6.050   5.434
13498TIP3    H140437   7.662   6.065   5.457
13498TIP3    H240438   7.761   5.954   5.431
13499TIP3   OH240439   2.046   7.493   4.220
13499TIP3    H140440   2.007   7.454   4.297
13499TIP3    H240441   2.137   7.463   4.221
13500TIP3   OH240442   6.003   6.519   5.423
13500TIP3    H140443   6.093   6.494   5.404
13500TIP3    H240444   5.952   6.440   5.406
13501TIP3   OH240445   3.692   2.565   1.430
13501TIP3    H140446   3.718   2.601   1.514
13501TIP3    H240447   3.604   2.530   1.445
13502TIP3   OH240448   2.530   7.751   3.143
13502TIP3    H140449   2.542   7.662   3.111
13502TIP3    H240450   2.613   7.772   3.186
13503TIP3   OH240451   4.170   4.355   2.282
13503TIP3    H140452   4.151   4.377   2.374
13503TIP3    H240453   4.141   4.432   2.233
13504TIP3   OH240454   0.991   7.325   0.581
13504TIP3    H140455   1.071   7.315   0.632
13504TIP3    H240456   0.953   7.407   0.611
13505TIP3   OH240457   4.026   4.204   3.291
13505TIP3    H140458   4.106   4.194   3.241
13505TIP3    H240459   4.008   4.116   3.324
13506TIP3   OH240460   3.523   5.744   1.165
13506TIP3    H140461   3.521   5.839   1.158
13506TIP3    H240462   3.568   5.715   1.086
13507TIP3   OH240463   3.444   2.093   1.777
13507TIP3    H140464   3.352   2.071   1.757
13507TIP3    H240465   3.495   2.039   1.716
13508TIP3   OH240466   0.556   7.552   5.392
13508TIP3    H140467   0.478   7.604   5.376
13508TIP3    H240468   0.625   7.596   5.343
13509TIP3   OH240469   4.352   7.145   0.435
13509TIP3    H140470   4.362   7.145   0.530
13509TIP3    H240471   4.323   7.234   0.414
13510TIP3   OH240472   2.716   2.636   2.972
13510TIP3    H140473   2.767   2.630   2.892
13510TIP3    H240474   2.634   2.591   2.953
13511TIP3   OH240475   7.630   4.093   2.258
13511TIP3    H140476   7.557   4.141   2.297
13511TIP3    H240477   7.692   4.081   2.329
13512TIP3   OH240478   2.037   2.625   2.149
13512TIP3    H140479   2.000   2.690   2.089
13512TIP3    H240480   1.960   2.585   2.191
13513TIP3   OH240481   5.563   2.849   1.207
13513TIP3    H140482   5.525   2.922   1.159
13513TIP3    H240483   5.546   2.869   1.299
13514TIP3   OH240484   3.144   6.484   1.276
13514TIP3    H140485   3.067   6.535   1.298
13514TIP3    H240486   3.207   6.548   1.242
13515TIP3   OH240487   6.789   1.176   2.974
13515TIP3    H140488   6.722   1.144   3.034
13515TIP3    H240489   6.872   1.159   3.020
13516TIP3   OH240490   5.271   4.473   6.309
13516TIP3    H140491   5.191   4.523   6.329
13516TIP3    H240492   5.274   4.405   6.377
13517TIP3   OH240493   5.239   3.595   2.373
13517TIP3    H140494   5.321   3.568   2.415
13517TIP3    H240495   5.185   3.516   2.373
13518TIP3   OH240496   4.033   0.378   3.087
13518TIP3    H140497   4.010   0.469   3.069
13518TIP3    H240498   4.087   0.382   3.166
13519TIP3   OH240499   7.703   2.565   5.023
13519TIP3    H140500   7.714   2.613   5.104
13519TIP3    H240501   7.735   2.476   5.043
13520TIP3   OH240502   6.749   3.258   6.053
13520TIP3    H140503   6.801   3.179   6.066
13520TIP3    H240504   6.756   3.306   6.136
13521TIP3   OH240505   6.655   2.256   3.879
13521TIP3    H140506   6.746   2.272   3.907
13521TIP3    H240507   6.615   2.343   3.879
13522TIP3   OH240508   0.478   4.274   0.282
13522TIP3    H140509   0.432   4.195   0.310
13522TIP3    H240510   0.409   4.333   0.252
13523TIP3   OH240511   3.206   3.306   5.221
13523TIP3    H140512   3.244   3.246   5.158
13523TIP3    H240513   3.138   3.353   5.172
13524TIP3   OH240514   3.715   2.557   6.788
13524TIP3    H140515   3.650   2.583   6.723
13524TIP3    H240516   3.726   2.634   6.844
13525TIP3   OH240517   2.262   0.148   4.459
13525TIP3    H140518   2.249   0.186   4.546
13525TIP3    H240519   2.272   0.224   4.401
13526TIP3   OH240520   6.553   4.511   6.742
13526TIP3    H140521   6.492   4.557   6.685
13526TIP3    H240522   6.616   4.578   6.769
13527TIP3   OH240523   1.127   4.255   1.533
13527TIP3    H140524   1.090   4.190   1.474
13527TIP3    H240525   1.161   4.323   1.475
13528TIP3   OH240526   2.423   3.049   5.789
13528TIP3    H140527   2.440   3.046   5.884
13528TIP3    H240528   2.332   3.077   5.782
13529TIP3   OH240529   5.499   1.832   6.139
13529TIP3    H140530   5.570   1.809   6.199
13529TIP3    H240531   5.458   1.908   6.178
13530TIP3   OH240532   2.078   0.144   2.744
13530TIP3    H140533   2.025   0.074   2.782
13530TIP3    H240534   2.032   0.167   2.663
13531TIP3   OH240535   1.287   6.741   2.602
13531TIP3    H140536   1.198   6.707   2.588
13531TIP3    H240537   1.344   6.665   2.587
13532TIP3   OH240538   6.439   5.814   2.342
13532TIP3    H140539   6.441   5.906   2.368
13532TIP3    H240540   6.348   5.787   2.358
13533TIP3   OH240541   0.829   1.644   3.600
13533TIP3    H140542   0.743   1.602   3.606
13533TIP3    H240543   0.880   1.604   3.670
13534TIP3   OH240544   3.585   7.431   0.144
13534TIP3    H140545   3.649   7.434   0.072
13534TIP3    H240546   3.518   7.495   0.119
13535TIP3   OH240547   7.729   5.933   3.633
13535TIP3    H140548   7.655   5.877   3.652
13535TIP3    H240549   7.804   5.874   3.630
13536TIP3   OH240550   7.080   4.133   3.932
13536TIP3    H140551   7.006   4.163   3.879
13536TIP3    H240552   7.145   4.204   3.924
13537TIP3   OH240553   7.669   5.759   1.193
13537TIP3    H140554   7.715   5.843   1.185
13537TIP3    H240555   7.576   5.782   1.185
13538TIP3   OH240556   7.339   5.068   0.334
13538TIP3    H140557   7.408   5.131   0.317
13538TIP3    H240558   7.355   4.997   0.271
13539TIP3   OH240559   2.510   5.015   6.717
13539TIP3    H140560   2.604   5.025   6.700
13539TIP3    H240561   2.468   5.041   6.634
13540TIP3   OH240562   7.548   5.750   0.208
13540TIP3    H140563   7.473   5.807   0.228
13540TIP3    H240564   7.514   5.687   0.145
13541TIP3   OH240565   4.286   0.535   2.253
13541TIP3    H140566   4.219   0.491   2.201
13541TIP3    H240567   4.334   0.463   2.295
13542TIP3   OH240568   1.006   5.399   2.409
13542TIP3    H140569   0.958   5.342   2.348
13542TIP3    H240570   0.941   5.462   2.439
13543TIP3   OH240571   0.810   6.384   2.843
13543TIP3    H140572   0.861   6.459   2.811
13543TIP3    H240573   0.719   6.412   2.837
13544TIP3   OH240574   4.285   1.952   1.655
13544TIP3    H140575   4.378   1.959   1.631
13544TIP3    H240576   4.258   1.867   1.621
13545TIP3   OH240577   5.358   0.777   4.379
13545TIP3    H140578   5.287   0.826   4.337
13545TIP3    H240579   5.362   0.694   4.330
13546TIP3   OH240580   5.125   2.932   0.660
13546TIP3    H140581   5.218   2.925   0.640
13546TIP3    H240582   5.090   2.989   0.592
13547TIP3   OH240583   5.224   0.348   1.305
13547TIP3    H140584   5.262   0.429   1.270
13547TIP3    H240585   5.297   0.306   1.351
13548TIP3   OH240586   5.417   2.667   1.051
13548TIP3    H140587   5.346   2.727   1.025
13548TIP3    H240588   5.464   2.714   1.120
13549TIP3   OH240589   7.301   2.714   4.089
13549TIP3    H140590   7.364   2.655   4.047
13549TIP3    H240591   7.216   2.682   4.060
13550TIP3   OH240592   0.189   5.315   6.316
13550TIP3    H140593   0.226   5.234   6.282
13550TIP3    H240594   0.113   5.288   6.367
13551TIP3   OH240595   2.510   3.738   4.584
13551TIP3    H140596   2.476   3.700   4.503
13551TIP3    H240597   2.601   3.709   4.589
13552TIP3   OH240598   7.057   1.164   1.960
13552TIP3    H140599   7.123   1.192   2.024
13552TIP3    H240600   7.056   1.069   1.967
13553TIP3   OH240601   1.689   0.664   3.763
13553TIP3    H140602   1.654   0.672   3.852
13553TIP3    H240603   1.642   0.590   3.725
13554TIP3   OH240604   7.371   6.699   2.681
13554TIP3    H140605   7.453   6.688   2.633
13554TIP3    H240606   7.365   6.792   2.699
13555TIP3   OH240607   0.889   7.766   3.668
13555TIP3    H140608   0.814   7.775   3.608
13555TIP3    H240609   0.874   7.833   3.734
13556TIP3   OH240610   4.834   1.899   0.680
13556TIP3    H140611   4.806   1.963   0.745
13556TIP3    H240612   4.890   1.948   0.620
13557TIP3   OH240613   3.401   6.581   0.112
13557TIP3    H140614   3.406   6.605   0.019
13557TIP3    H240615   3.384   6.664   0.157
13558TIP3   OH240616   7.905   2.274   0.831
13558TIP3    H140617   7.916   2.180   0.842
13558TIP3    H240618   7.992   2.306   0.809
13559TIP3   OH240619   5.854   0.150   2.782
13559TIP3    H140620   5.856   0.189   2.694
13559TIP3    H240621   5.919   0.080   2.777
13560TIP3   OH240622   7.363   4.279   0.694
13560TIP3    H140623   7.425   4.272   0.621
13560TIP3    H240624   7.308   4.353   0.672
13561TIP3   OH240625   6.221   3.656   1.215
13561TIP3    H140626   6.238   3.596   1.288
13561TIP3    H240627   6.305   3.699   1.200
13562TIP3   OH240628   6.634   7.855   5.074
13562TIP3    H140629   6.650   7.761   5.079
13562TIP3    H240630   6.625   7.874   4.981
13563TIP3   OH240631   5.375   6.260   5.742
13563TIP3    H140632   5.465   6.229   5.732
13563TIP3    H240633   5.341   6.212   5.817
13564TIP3   OH240634   4.086   5.187   5.147
13564TIP3    H140635   3.992   5.204   5.158
13564TIP3    H240636   4.106   5.223   5.060
13565TIP3   OH240637   6.573   0.558   1.973
13565TIP3    H140638   6.662   0.550   1.940
13565TIP3    H240639   6.528   0.480   1.940
13566TIP3   OH240640   1.432   6.840   6.731
13566TIP3    H140641   1.498   6.772   6.744
13566TIP3    H240642   1.471   6.898   6.665
13567TIP3   OH240643   7.240   1.836   1.748
13567TIP3    H140644   7.295   1.894   1.801
13567TIP3    H240645   7.256   1.864   1.658
13568TIP3   OH240646   6.308   0.961   0.576
13568TIP3    H140647   6.307   0.871   0.543
13568TIP3    H240648   6.389   0.969   0.626
13569TIP3   OH240649   0.607   0.995   2.085
13569TIP3    H140650   0.532   0.944   2.115
13569TIP3    H240651   0.571   1.081   2.065
13570TIP3   OH240652   1.164   3.675   4.852
13570TIP3    H140653   1.174   3.657   4.946
13570TIP3    H240654   1.131   3.593   4.816
13571TIP3   OH240655   1.122   5.716   6.403
13571TIP3    H140656   1.211   5.717   6.367
13571TIP3    H240657   1.067   5.692   6.328
13572TIP3   OH240658   1.526   5.817   0.797
13572TIP3    H140659   1.579   5.760   0.852
13572TIP3    H240660   1.484   5.758   0.734
13573TIP3   OH240661   0.425   2.997   6.550
13573TIP3    H140662   0.471   3.078   6.571
13573TIP3    H240663   0.396   3.008   6.460
13574TIP3   OH240664   5.407   6.869   0.062
13574TIP3    H140665   5.468   6.936   0.029
13574TIP3    H240666   5.407   6.801  -0.005
13575TIP3   OH240667   7.216   7.643   6.384
13575TIP3    H140668   7.163   7.580   6.334
13575TIP3    H240669   7.242   7.596   6.463
13576TIP3   OH240670   5.708   1.424   5.440
13576TIP3    H140671   5.797   1.390   5.435
13576TIP3    H240672   5.653   1.346   5.433
13577TIP3   OH240673   8.278   1.809   2.338
13577TIP3    H140674   8.329   1.731   2.320
13577TIP3    H240675   8.212   1.811   2.268
13578TIP3   OH240676   4.484   2.883   4.940
13578TIP3    H140677   4.559   2.847   4.893
13578TIP3    H240678   4.408   2.846   4.896
13579TIP3   OH240679   3.528   3.287   2.205
13579TIP3    H140680   3.554   3.293   2.297
13579TIP3    H240681   3.589   3.344   2.159
13580TIP3   OH240682   7.179   2.098   5.279
13580TIP3    H140683   7.167   2.193   5.272
13580TIP3    H240684   7.096   2.065   5.314
13581TIP3   OH240685   2.180   2.721   0.161
13581TIP3    H140686   2.134   2.721   0.245
13581TIP3    H240687   2.272   2.711   0.183
13582TIP3   OH240688   6.081   3.678   5.508
13582TIP3    H140689   6.005   3.667   5.566
13582TIP3    H240690   6.149   3.716   5.564
13583TIP3   OH240691   5.761   1.268   3.284
13583TIP3    H140692   5.844   1.260   3.237
13583TIP3    H240693   5.785   1.267   3.377
13584TIP3   OH240694   1.943   1.828   5.519
13584TIP3    H140695   1.880   1.814   5.449
13584TIP3    H240696   1.894   1.875   5.587
13585TIP3   OH240697   2.578   4.873   4.371
13585TIP3    H140698   2.488   4.858   4.341
13585TIP3    H240699   2.628   4.884   4.291
13586TIP3   OH240700   5.036   6.875   5.966
13586TIP3    H140701   4.965   6.852   5.905
13586TIP3    H240702   5.054   6.967   5.949
13587TIP3   OH240703   6.688   1.050   5.757
13587TIP3    H140704   6.749   1.050   5.830
13587TIP3    H240705   6.705   0.968   5.711
13588TIP3   OH240706   5.164   2.884   3.274
13588TIP3    H140707   5.071   2.901   3.262
13588TIP3    H240708   5.207   2.968   3.257
13589TIP3   OH240709   6.030   6.471   1.791
13589TIP3    H140710   6.018   6.547   1.848
13589TIP3    H240711   6.100   6.497   1.731
13590TIP3   OH240712   5.315   6.446   0.740
13590TIP3    H140713   5.271   6.366   0.770
13590TIP3    H240714   5.251   6.489   0.683
13591TIP3   OH240715   2.416   7.677   6.275
13591TIP3    H140716   2.463   7.598   6.248
13591TIP3    H240717   2.346   7.685   6.211
13592TIP3   OH240718   8.159   0.067   0.307
13592TIP3    H140719   8.171   0.148   0.357
13592TIP3    H240720   8.114   0.095   0.227
13593TIP3   OH240721   5.285   2.920   5.746
13593TIP3    H140722   5.194   2.927   5.717
13593TIP3    H240723   5.327   3.000   5.715
13594TIP3   OH240724   7.075   6.314   3.500
13594TIP3    H140725   7.089   6.383   3.435
13594TIP3    H240726   6.991   6.274   3.476
13595TIP3   OH240727   4.219   6.189   1.964
13595TIP3    H140728   4.283   6.258   1.951
13595TIP3    H240729   4.152   6.205   1.898
13596TIP3   OH240730   3.397   2.431   2.125
13596TIP3    H140731   3.443   2.474   2.053
13596TIP3    H240732   3.354   2.356   2.085
13597TIP3   OH240733   4.825   2.851   5.343
13597TIP3    H140734   4.816   2.928   5.399
13597TIP3    H240735   4.743   2.847   5.294
13598TIP3   OH240736   0.513   1.776   4.765
13598TIP3    H140737   0.518   1.867   4.795
13598TIP3    H240738   0.499   1.783   4.670
13599TIP3   OH240739   2.209   0.306   0.286
13599TIP3    H140740   2.200   0.303   0.191
13599TIP3    H240741   2.253   0.223   0.308
13600TIP3   OH240742   7.373   5.491   0.758
13600TIP3    H140743   7.447   5.432   0.746
13600TIP3    H240744   7.342   5.509   0.670
13601TIP3   OH240745   2.441   6.061   2.346
13601TIP3    H140746   2.377   6.010   2.295
13601TIP3    H240747   2.473   6.000   2.412
13602TIP3   OH240748   5.943   6.903   0.810
13602TIP3    H140749   5.996   6.954   0.871
13602TIP3    H240750   5.854   6.936   0.823
13603TIP3   OH240751   0.790   4.719   2.357
13603TIP3    H140752   0.835   4.648   2.312
13603TIP3    H240753   0.823   4.799   2.316
13604TIP3   OH240754   5.144   2.929   2.679
13604TIP3    H140755   5.230   2.926   2.638
13604TIP3    H240756   5.101   3.005   2.639
13605TIP3   OH240757   6.392   7.658   2.819
13605TIP3    H140758   6.321   7.599   2.795
13605TIP3    H240759   6.358   7.707   2.894
13606TIP3   OH240760   3.552   3.469   3.887
13606TIP3    H140761   3.560   3.484   3.792
13606TIP3    H240762   3.638   3.437   3.913
13607TIP3   OH240763   5.410   4.904   2.341
13607TIP3    H140764   5.486   4.961   2.330
13607TIP3    H240765   5.446   4.824   2.382
13608TIP3   OH240766   7.573   2.132   4.810
13608TIP3    H140767   7.594   2.223   4.827
13608TIP3    H240768   7.579   2.089   4.895
13609TIP3   OH240769   7.529   4.843   1.659
13609TIP3    H140770   7.465   4.888   1.714
13609TIP3    H240771   7.614   4.868   1.697
13610TIP3   OH240772   5.710   2.578   5.600
13610TIP3    H140773   5.724   2.518   5.527
13610TIP3    H240774   5.660   2.651   5.563
13611TIP3   OH240775   5.579   2.970   5.209
13611TIP3    H140776   5.573   3.029   5.284
13611TIP3    H240777   5.497   2.982   5.161
13612TIP3   OH240778   1.980   0.202   4.830
13612TIP3    H140779   1.916   0.161   4.887
13612TIP3    H240780   1.971   0.296   4.846
13613TIP3   OH240781   7.921   5.239   2.580
13613TIP3    H140782   7.928   5.214   2.488
13613TIP3    H240783   7.915   5.156   2.628
13614TIP3   OH240784   7.516   2.691   2.251
13614TIP3    H140785   7.491   2.599   2.261
13614TIP3    H240786   7.494   2.712   2.161
13615TIP3   OH240787   5.499   2.083   2.703
13615TIP3    H140788   5.418   2.072   2.753
13615TIP3    H240789   5.557   2.014   2.736
13616TIP3   OH240790   1.743   2.573   6.344
13616TIP3    H140791   1.810   2.505   6.345
13616TIP3    H240792   1.667   2.532   6.303
13617TIP3   OH240793   4.104   6.998   6.172
13617TIP3    H140794   4.105   6.905   6.195
13617TIP3    H240795   4.068   6.999   6.083
13618TIP3   OH240796   2.325   2.924  -0.034
13618TIP3    H140797   2.400   2.900   0.019
13618TIP3    H240798   2.296   2.842  -0.074
13619TIP3   OH240799   6.942   4.406   4.381
13619TIP3    H140800   6.928   4.312   4.393
13619TIP3    H240801   7.001   4.431   4.452
13620TIP3   OH240802   2.443   4.784   0.347
13620TIP3    H140803   2.511   4.721   0.327
13620TIP3    H240804   2.410   4.813   0.261
13621TIP3   OH240805   3.215   7.446   0.186
13621TIP3    H140806   3.235   7.361   0.225
13621TIP3    H240807   3.192   7.502   0.260
13622TIP3   OH240808   2.200   3.449   1.908
13622TIP3    H140809   2.201   3.434   2.003
13622TIP3    H240810   2.169   3.539   1.899
13623TIP3   OH240811   5.809   7.123   5.645
13623TIP3    H140812   5.813   7.028   5.640
13623TIP3    H240813   5.761   7.149   5.567
13624TIP3   OH240814   1.567   2.673   0.006
13624TIP3    H140815   1.558   2.578   0.016
13624TIP3    H240816   1.655   2.692   0.037
13625TIP3   OH240817   3.964   7.206   3.249
13625TIP3    H140818   3.996   7.292   3.277
13625TIP3    H240819   3.963   7.209   3.154
13626TIP3   OH240820   5.498   5.964   5.472
13626TIP3    H140821   5.572   5.949   5.413
13626TIP3    H240822   5.508   6.054   5.501
13627TIP3   OH240823   5.392   4.416   4.378
13627TIP3    H140824   5.421   4.459   4.458
13627TIP3    H240825   5.448   4.451   4.309
13628TIP3   OH240826   3.685   4.174   5.247
13628TIP3    H140827   3.596   4.173   5.212
13628TIP3    H240828   3.687   4.247   5.308
13629TIP3   OH240829   1.574   3.714   6.113
13629TIP3    H140830   1.613   3.627   6.110
13629TIP3    H240831   1.638   3.770   6.070
13630TIP3   OH240832   3.217   7.319   0.913
13630TIP3    H140833   3.270   7.253   0.869
13630TIP3    H240834   3.279   7.368   0.967
13631TIP3   OH240835   2.626   1.002   6.154
13631TIP3    H140836   2.571   0.991   6.231
13631TIP3    H240837   2.694   0.934   6.163
13632TIP3   OH240838   0.116   4.263   0.232
13632TIP3    H140839   0.146   4.353   0.216
13632TIP3    H240840   0.154   4.212   0.160
13633TIP3   OH240841   5.419   4.199   6.734
13633TIP3    H140842   5.332   4.209   6.772
13633TIP3    H240843   5.479   4.217   6.807
13634TIP3   OH240844   7.292   4.835   4.510
13634TIP3    H140845   7.304   4.925   4.479
13634TIP3    H240846   7.222   4.842   4.575
13635TIP3   OH240847   1.009   1.609   2.375
13635TIP3    H140848   0.927   1.646   2.408
13635TIP3    H240849   0.983   1.563   2.295
13636TIP3   OH240850   7.038   4.069   5.574
13636TIP3    H140851   6.968   4.003   5.581
13636TIP3    H240852   7.107   4.024   5.524
13637TIP3   OH240853   2.614   1.011   3.998
13637TIP3    H140854   2.595   1.104   4.014
13637TIP3    H240855   2.553   0.986   3.928
13638TIP3   OH240856   1.504   6.348   3.394
13638TIP3    H140857   1.540   6.430   3.427
13638TIP3    H240858   1.518   6.285   3.466
13639TIP3   OH240859   4.323   4.194   2.835
13639TIP3    H140860   4.332   4.238   2.750
13639TIP3    H240861   4.272   4.115   2.815
13640TIP3   OH240862   0.854   0.732   2.286
13640TIP3    H140863   0.856   0.707   2.379
13640TIP3    H240864   0.900   0.816   2.284
13641TIP3   OH240865   0.689   2.363   6.477
13641TIP3    H140866   0.635   2.393   6.404
13641TIP3    H240867   0.635   2.377   6.555
13642TIP3   OH240868   8.227   6.410   3.546
13642TIP3    H140869   8.255   6.402   3.637
13642TIP3    H240870   8.226   6.504   3.529
13643TIP3   OH240871   0.777   2.285   3.917
13643TIP3    H140872   0.743   2.201   3.949
13643TIP3    H240873   0.768   2.345   3.991
13644TIP3   OH240874   5.557   3.478   6.070
13644TIP3    H140875   5.590   3.431   6.147
13644TIP3    H240876   5.509   3.552   6.105
13645TIP3   OH240877   0.618   6.779   6.423
13645TIP3    H140878   0.648   6.846   6.485
13645TIP3    H240879   0.547   6.735   6.469
13646TIP3   OH240880   2.794   4.347   6.054
13646TIP3    H140881   2.714   4.311   6.015
13646TIP3    H240882   2.858   4.345   5.983
13647TIP3   OH240883   2.981   6.128   6.438
13647TIP3    H140884   2.898   6.083   6.450
13647TIP3    H240885   3.005   6.112   6.346
13648TIP3   OH240886   1.948   6.503   1.124
13648TIP3    H140887   2.035   6.468   1.103
13648TIP3    H240888   1.954   6.596   1.102
13649TIP3   OH240889   7.314   4.941   1.347
13649TIP3    H140890   7.364   4.873   1.302
13649TIP3    H240891   7.264   4.895   1.414
13650TIP3   OH240892   0.811   7.204   0.865
13650TIP3    H140893   0.766   7.174   0.786
13650TIP3    H240894   0.897   7.162   0.861
13651TIP3   OH240895   1.764   4.063   3.413
13651TIP3    H140896   1.853   4.095   3.397
13651TIP3    H240897   1.710   4.142   3.410
13652TIP3   OH240898   8.083   0.495   4.746
13652TIP3    H140899   8.150   0.534   4.802
13652TIP3    H240900   8.024   0.568   4.725
13653TIP3   OH240901   4.296   4.970   4.205
13653TIP3    H140902   4.344   4.993   4.285
13653TIP3    H240903   4.204   4.984   4.228
13654TIP3   OH240904   1.531   3.488   3.534
13654TIP3    H140905   1.516   3.582   3.545
13654TIP3    H240906   1.528   3.473   3.440
13655TIP3   OH240907   2.611   2.173   1.202
13655TIP3    H140908   2.586   2.090   1.244
13655TIP3    H240909   2.657   2.146   1.122
13656TIP3   OH240910   3.275   2.159   4.699
13656TIP3    H140911   3.258   2.183   4.790
13656TIP3    H240912   3.286   2.242   4.653
13657TIP3   OH240913   7.242   4.401   5.910
13657TIP3    H140914   7.195   4.450   5.978
13657TIP3    H240915   7.174   4.353   5.864
13658TIP3   OH240916   3.766   4.974   6.511
13658TIP3    H140917   3.804   5.061   6.503
13658TIP3    H240918   3.832   4.915   6.474
13659TIP3   OH240919   3.699   1.757   2.736
13659TIP3    H140920   3.763   1.807   2.685
13659TIP3    H240921   3.633   1.821   2.762
13660TIP3   OH240922   6.069   3.669   0.455
13660TIP3    H140923   6.049   3.655   0.548
13660TIP3    H240924   6.162   3.648   0.447
13661TIP3   OH240925   7.366   6.245   4.786
13661TIP3    H140926   7.286   6.235   4.733
13661TIP3    H240927   7.409   6.160   4.780
13662TIP3   OH240928   6.204   4.554   6.125
13662TIP3    H140929   6.244   4.475   6.088
13662TIP3    H240930   6.117   4.525   6.153
13663TIP3   OH240931   1.936   0.800   2.528
13663TIP3    H140932   1.983   0.882   2.546
13663TIP3    H240933   2.002   0.742   2.491
13664TIP3   OH240934   3.223   6.778   1.727
13664TIP3    H140935   3.179   6.859   1.702
13664TIP3    H240936   3.275   6.802   1.804
13665TIP3   OH240937   2.807   0.839   4.859
13665TIP3    H140938   2.810   0.787   4.939
13665TIP3    H240939   2.714   0.854   4.843
13666TIP3   OH240940   6.814   7.197   6.080
13666TIP3    H140941   6.817   7.121   6.020
13666TIP3    H240942   6.868   7.263   6.036
13667TIP3   OH240943   0.972   1.498   1.010
13667TIP3    H140944   1.065   1.516   1.001
13667TIP3    H240945   0.933   1.528   0.928
13668TIP3   OH240946   2.580   1.662   1.841
13668TIP3    H140947   2.644   1.725   1.874
13668TIP3    H240948   2.534   1.709   1.771
13669TIP3   OH240949   4.707   7.452   3.043
13669TIP3    H140950   4.767   7.512   3.086
13669TIP3    H240951   4.691   7.491   2.957
13670TIP3   OH240952   2.597   1.870   5.183
13670TIP3    H140953   2.521   1.874   5.240
13670TIP3    H240954   2.585   1.790   5.132
13671TIP3   OH240955   6.968   6.321   2.489
13671TIP3    H140956   6.900   6.367   2.439
13671TIP3    H240957   6.977   6.237   2.444
13672TIP3   OH240958   7.330   0.217   4.354
13672TIP3    H140959   7.423   0.235   4.368
13672TIP3    H240960   7.306   0.158   4.425
13673TIP3   OH240961   0.497   3.591   5.471
13673TIP3    H140962   0.405   3.565   5.481
13673TIP3    H240963   0.542   3.552   5.546
13674TIP3   OH240964   8.120   1.351   4.607
13674TIP3    H140965   8.035   1.330   4.646
13674TIP3    H240966   8.108   1.335   4.514
13675TIP3   OH240967   7.472   7.764   1.990
13675TIP3    H140968   7.404   7.760   2.057
13675TIP3    H240969   7.532   7.693   2.013
13676TIP3   OH240970   0.660   3.174   1.603
13676TIP3    H140971   0.606   3.204   1.677
13676TIP3    H240972   0.661   3.248   1.543
13677TIP3   OH240973   8.126   3.870   5.636
13677TIP3    H140974   8.165   3.836   5.555
13677TIP3    H240975   8.104   3.792   5.687
13678TIP3   OH240976   6.911   0.764   5.830
13678TIP3    H140977   6.988   0.743   5.883
13678TIP3    H240978   6.838   0.723   5.878
13679TIP3   OH240979   2.095   0.577   6.337
13679TIP3    H140980   2.096   0.492   6.293
13679TIP3    H240981   2.145   0.562   6.417
13680TIP3   OH240982   2.775   5.366   0.086
13680TIP3    H140983   2.844   5.334   0.143
13680TIP3    H240984   2.754   5.453   0.119
13681TIP3   OH240985   7.871   0.267   6.288
13681TIP3    H140986   7.946   0.313   6.327
13681TIP3    H240987   7.896   0.175   6.290
13682TIP3   OH240988   3.733   4.383   3.275
13682TIP3    H140989   3.639   4.393   3.262
13682TIP3    H240990   3.764   4.339   3.196
13683TIP3   OH240991   6.221   1.993   3.622
13683TIP3    H140992   6.138   2.036   3.642
13683TIP3    H240993   6.287   2.045   3.668
13684TIP3   OH240994   3.383   3.562   0.284
13684TIP3    H140995   3.411   3.653   0.272
13684TIP3    H240996   3.289   3.569   0.303
13685TIP3   OH240997   7.690   4.252   6.105
13685TIP3    H140998   7.745   4.173   6.101
13685TIP3    H240999   7.732   4.314   6.045
13686TIP3   OH241000   0.587   1.264   2.808
13686TIP3    H141001   0.530   1.222   2.744
13686TIP3    H241002   0.529   1.285   2.882
13687TIP3   OH241003   6.787   7.803   2.415
13687TIP3    H141004   6.732   7.873   2.450
13687TIP3    H241005   6.740   7.723   2.434
13688TIP3   OH241006   4.432   5.135   3.901
13688TIP3    H141007   4.496   5.207   3.910
13688TIP3    H241008   4.413   5.109   3.991
13689TIP3   OH241009   7.366   1.893   4.238
13689TIP3    H141010   7.308   1.838   4.184
13689TIP3    H241011   7.417   1.943   4.174
13690TIP3   OH241012   1.769   6.766   4.298
13690TIP3    H141013   1.706   6.821   4.345
13690TIP3    H241014   1.854   6.807   4.315
13691TIP3   OH241015   6.225   3.541   0.956
13691TIP3    H141016   6.235   3.446   0.945
13691TIP3    H241017   6.212   3.553   1.050
13692TIP3   OH241018   6.276   0.603   6.185
13692TIP3    H141019   6.328   0.668   6.232
13692TIP3    H241020   6.189   0.641   6.180
13693TIP3   OH241021   7.925   3.315   2.316
13693TIP3    H141022   7.991   3.367   2.271
13693TIP3    H241023   7.880   3.378   2.374
13694TIP3   OH241024   5.810   3.855   1.949
13694TIP3    H141025   5.739   3.918   1.936
13694TIP3    H241026   5.832   3.826   1.861
13695TIP3   OH241027   3.975   2.658   0.387
13695TIP3    H141028   4.001   2.690   0.474
13695TIP3    H241029   3.965   2.564   0.398
13696TIP3   OH241030   1.798   6.985   0.749
13696TIP3    H141031   1.765   6.897   0.735
13696TIP3    H241032   1.892   6.980   0.729
13697TIP3   OH241033   3.497   1.116   6.792
13697TIP3    H141034   3.469   1.203   6.822
13697TIP3    H241035   3.527   1.130   6.702
13698TIP3   OH241036   3.572   6.826   6.025
13698TIP3    H141037   3.552   6.749   5.972
13698TIP3    H241038   3.617   6.791   6.102
13699TIP3   OH241039   4.543   5.525   5.842
13699TIP3    H141040   4.480   5.582   5.797
13699TIP3    H241041   4.624   5.576   5.844
13700TIP3   OH241042   2.817   6.932   5.231
13700TIP3    H141043   2.771   6.988   5.294
13700TIP3    H241044   2.867   6.994   5.177
13701TIP3   OH241045   3.422   0.663   2.670
13701TIP3    H141046   3.373   0.706   2.741
13701TIP3    H241047   3.492   0.615   2.715
13702TIP3   OH241048   4.958   2.444   0.116
13702TIP3    H141049   5.048   2.435   0.083
13702TIP3    H241050   4.903   2.426   0.039
13703TIP3   OH241051   2.236   0.880   6.436
13703TIP3    H141052   2.269   0.964   6.405
13703TIP3    H241053   2.311   0.839   6.478
13704TIP3   OH241054   3.158   3.008   3.497
13704TIP3    H141055   3.097   3.074   3.529
13704TIP3    H241056   3.211   3.055   3.432
13705TIP3   OH241057   8.147   3.835   6.383
13705TIP3    H141058   8.076   3.788   6.427
13705TIP3    H241059   8.133   3.927   6.409
13706TIP3   OH241060   8.252   6.595   1.774
13706TIP3    H141061   8.317   6.648   1.729
13706TIP3    H241062   8.189   6.658   1.809
13707TIP3   OH241063   4.623   4.873   3.928
13707TIP3    H141064   4.528   4.871   3.938
13707TIP3    H241065   4.639   4.930   3.853
13708TIP3   OH241066   7.213   3.020   6.073
13708TIP3    H141067   7.127   2.990   6.105
13708TIP3    H241068   7.275   2.962   6.116
13709TIP3   OH241069   7.996   5.468   5.111
13709TIP3    H141070   8.063   5.405   5.140
13709TIP3    H241071   7.919   5.446   5.164
13710TIP3   OH241072   3.279   0.692   6.751
13710TIP3    H141073   3.345   0.745   6.797
13710TIP3    H241074   3.197   0.710   6.798
13711TIP3   OH241075   3.814   0.397   1.507
13711TIP3    H141076   3.840   0.308   1.529
13711TIP3    H241077   3.780   0.433   1.589
13712TIP3   OH241078   7.376   4.361   1.752
13712TIP3    H141079   7.383   4.445   1.797
13712TIP3    H241080   7.458   4.355   1.702
13713TIP3   OH241081   2.734   7.059   5.468
13713TIP3    H141082   2.754   7.153   5.470
13713TIP3    H241083   2.645   7.052   5.502
13714TIP3   OH241084   7.027   2.946   6.563
13714TIP3    H141085   6.944   2.964   6.607
13714TIP3    H241086   7.085   3.016   6.593
13715TIP3   OH241087   6.025   0.606   0.081
13715TIP3    H141088   5.943   0.595   0.034
13715TIP3    H241089   5.999   0.627   0.171
13716TIP3   OH241090   3.208   4.572   5.863
13716TIP3    H141091   3.178   4.515   5.792
13716TIP3    H241092   3.175   4.659   5.839
13717TIP3   OH241093   5.152   3.305   5.748
13717TIP3    H141094   5.143   3.317   5.842
13717TIP3    H241095   5.073   3.257   5.722
13718TIP3   OH241096   4.947   5.765   2.173
13718TIP3    H141097   4.899   5.848   2.177
13718TIP3    H241098   4.880   5.700   2.151
13719TIP3   OH241099   4.310   6.986   0.051
13719TIP3    H141100   4.234   6.995  -0.007
13719TIP3    H241101   4.355   7.070   0.045
13720TIP3   OH241102   2.972   2.526   0.165
13720TIP3    H141103   3.045   2.587   0.151
13720TIP3    H241104   2.899   2.566   0.118
13721TIP3   OH241105   1.245   4.083   5.371
13721TIP3    H141106   1.336   4.061   5.391
13721TIP3    H241107   1.193   4.013   5.411
13722TIP3   OH241108   6.564   1.908   3.429
13722TIP3    H141109   6.480   1.870   3.403
13722TIP3    H241110   6.618   1.903   3.350
13723TIP3   OH241111   1.918   1.494   5.235
13723TIP3    H141112   1.870   1.419   5.271
13723TIP3    H241113   1.994   1.455   5.191
13724TIP3   OH241114   1.088   2.752   6.407
13724TIP3    H141115   1.172   2.742   6.363
13724TIP3    H241116   1.057   2.662   6.419
13725TIP3   OH241117   7.710   5.182   4.688
13725TIP3    H141118   7.800   5.213   4.680
13725TIP3    H241119   7.691   5.141   4.604
13726TIP3   OH241120   7.011   4.027   1.618
13726TIP3    H141121   7.043   4.115   1.598
13726TIP3    H241122   7.042   4.009   1.707
13727TIP3   OH241123   3.575   7.458   3.453
13727TIP3    H141124   3.590   7.552   3.445
13727TIP3    H241125   3.493   7.451   3.502
13728TIP3   OH241126   8.319   3.613   2.485
13728TIP3    H141127   8.287   3.680   2.425
13728TIP3    H241128   8.249   3.548   2.489
13729TIP3   OH241129   2.563   4.572   2.342
13729TIP3    H141130   2.472   4.595   2.321
13729TIP3    H241131   2.611   4.587   2.260
13730TIP3   OH241132   2.031   2.104   2.806
13730TIP3    H141133   1.962   2.168   2.822
13730TIP3    H241134   2.006   2.028   2.858
13731TIP3   OH241135   2.106   3.525   2.181
13731TIP3    H141136   2.034   3.549   2.122
13731TIP3    H241137   2.065   3.516   2.267
13732TIP3   OH241138   3.686   3.211   1.199
13732TIP3    H141139   3.762   3.257   1.234
13732TIP3    H241140   3.692   3.222   1.104
13733TIP3   OH241141   3.139   5.410   0.168
13733TIP3    H141142   3.194   5.410   0.246
13733TIP3    H241143   3.135   5.502   0.141
13734TIP3   OH241144   2.787   4.800   3.411
13734TIP3    H141145   2.725   4.852   3.463
13734TIP3    H241146   2.761   4.815   3.320
13735TIP3   OH241147   2.616   1.588   5.434
13735TIP3    H141148   2.675   1.574   5.360
13735TIP3    H241149   2.532   1.552   5.405
13736TIP3   OH241150   3.707   1.975   6.634
13736TIP3    H141151   3.658   2.047   6.594
13736TIP3    H241152   3.789   1.972   6.585
13737TIP3   OH241153   0.778   5.876   0.660
13737TIP3    H141154   0.843   5.879   0.590
13737TIP3    H241155   0.821   5.830   0.731
13738TIP3   OH241156   6.553   0.922   2.754
13738TIP3    H141157   6.543   0.960   2.841
13738TIP3    H241158   6.488   0.967   2.701
13739TIP3   OH241159   6.621   5.593   1.510
13739TIP3    H141160   6.630   5.542   1.591
13739TIP3    H241161   6.638   5.530   1.440
13740TIP3   OH241162   0.301   7.043   6.308
13740TIP3    H141163   0.395   7.050   6.295
13740TIP3    H241164   0.284   7.084   6.393
13741TIP3   OH241165   6.176   5.959   3.956
13741TIP3    H141166   6.108   6.019   3.987
13741TIP3    H241167   6.216   6.004   3.882
13742TIP3   OH241168   7.484   5.363   5.514
13742TIP3    H141169   7.532   5.286   5.544
13742TIP3    H241170   7.541   5.437   5.537
13743TIP3   OH241171   4.106   7.572   4.420
13743TIP3    H141172   4.102   7.492   4.473
13743TIP3    H241173   4.028   7.567   4.364
13744TIP3   OH241174   0.179   2.184   5.755
13744TIP3    H141175   0.207   2.127   5.684
13744TIP3    H241176   0.256   2.237   5.775
13745TIP3   OH241177   5.561   6.976   6.165
13745TIP3    H141178   5.602   7.055   6.130
13745TIP3    H241179   5.484   7.007   6.212
13746TIP3   OH241180   8.198   4.981   0.883
13746TIP3    H141181   8.155   5.027   0.955
13746TIP3    H241182   8.130   4.923   0.848
13747TIP3   OH241183   7.314   4.384   6.390
13747TIP3    H141184   7.258   4.461   6.397
13747TIP3    H241185   7.361   4.395   6.307
13748TIP3   OH241186   4.555   4.666   5.883
13748TIP3    H141187   4.528   4.668   5.792
13748TIP3    H241188   4.490   4.719   5.929
13749TIP3   OH241189   4.031   7.676   2.461
13749TIP3    H141190   4.075   7.594   2.482
13749TIP3    H241191   4.070   7.740   2.521
13750TIP3   OH241192   1.126   4.647   4.735
13750TIP3    H141193   1.217   4.669   4.717
13750TIP3    H241194   1.123   4.551   4.730
13751TIP3   OH241195   0.423   2.601   4.183
13751TIP3    H141196   0.343   2.605   4.235
13751TIP3    H241197   0.471   2.680   4.207
13752TIP3   OH241198   7.639   5.546   5.285
13752TIP3    H141199   7.555   5.592   5.279
13752TIP3    H241200   7.691   5.598   5.346
13753TIP3   OH241201   2.959   2.886   3.836
13753TIP3    H141202   3.052   2.883   3.857
13753TIP3    H241203   2.941   2.802   3.795
13754TIP3   OH241204   1.302   7.462   3.894
13754TIP3    H141205   1.343   7.541   3.929
13754TIP3    H241206   1.374   7.411   3.858
13755TIP3   OH241207   7.434   7.681   1.727
13755TIP3    H141208   7.511   7.642   1.687
13755TIP3    H241209   7.467   7.730   1.801
13756TIP3   OH241210   7.426   5.416   4.383
13756TIP3    H141211   7.465   5.370   4.308
13756TIP3    H241212   7.333   5.423   4.361
13757TIP3   OH241213   3.918   7.440   3.797
13757TIP3    H141214   3.995   7.409   3.750
13757TIP3    H241215   3.878   7.360   3.832
13758TIP3   OH241216   7.904   1.618   1.691
13758TIP3    H141217   7.898   1.687   1.757
13758TIP3    H241218   7.832   1.635   1.631
13759TIP3   OH241219   6.092   1.813   0.531
13759TIP3    H141220   6.175   1.827   0.485
13759TIP3    H241221   6.096   1.872   0.607
13760TIP3   OH241222   0.163   6.961   4.140
13760TIP3    H141223   0.118   6.986   4.221
13760TIP3    H241224   0.095   6.963   4.073
13761TIP3   OH241225   3.017   4.333   1.939
13761TIP3    H141226   2.990   4.288   2.019
13761TIP3    H241227   2.943   4.390   1.918
13762TIP3   OH241228   3.809   4.080   1.873
13762TIP3    H141229   3.866   4.084   1.796
13762TIP3    H241230   3.833   4.157   1.924
13763TIP3   OH241231   0.962   4.189   5.352
13763TIP3    H141232   1.055   4.170   5.348
13763TIP3    H241233   0.957   4.283   5.371
13764TIP3   OH241234   7.180   3.630   0.631
13764TIP3    H141235   7.157   3.572   0.559
13764TIP3    H241236   7.213   3.572   0.699
13765TIP3   OH241237   2.288   1.471   0.201
13765TIP3    H141238   2.230   1.485   0.126
13765TIP3    H241239   2.338   1.552   0.208
13766TIP3   OH241240   3.300   2.601   4.420
13766TIP3    H141241   3.319   2.631   4.331
13766TIP3    H241242   3.293   2.681   4.471
13767TIP3   OH241243   6.969   4.302   1.518
13767TIP3    H141244   6.908   4.377   1.518
13767TIP3    H241245   6.968   4.270   1.428
13768TIP3   OH241246   3.130   4.521   2.922
13768TIP3    H141247   3.096   4.606   2.893
13768TIP3    H241248   3.175   4.541   3.005
13769TIP3   OH241249   7.313   4.639   5.395
13769TIP3    H141250   7.358   4.561   5.427
13769TIP3    H241251   7.252   4.661   5.465
13770TIP3   OH241252   7.216   2.115   2.129
13770TIP3    H141253   7.311   2.113   2.139
13770TIP3    H241254   7.185   2.037   2.175
13771TIP3   OH241255   0.550   3.719   0.548
13771TIP3    H141256   0.475   3.668   0.518
13771TIP3    H241257   0.532   3.735   0.641
13772TIP3   OH241258   3.627   4.566   1.492
13772TIP3    H141259   3.723   4.570   1.492
13772TIP3    H241260   3.604   4.534   1.579
13773TIP3   OH241261   5.145   1.238   0.829
13773TIP3    H141262   5.051   1.223   0.821
13773TIP3    H241263   5.163   1.311   0.770
13774TIP3   OH241264   0.793   7.548   6.138
13774TIP3    H141265   0.824   7.626   6.185
13774TIP3    H241266   0.717   7.519   6.188
13775TIP3   OH241267   2.747   0.190   6.270
13775TIP3    H141268   2.669   0.142   6.296
13775TIP3    H241269   2.820   0.137   6.303
13776TIP3   OH241270   4.753   2.915   4.491
13776TIP3    H141271   4.719   2.826   4.482
13776TIP3    H241272   4.798   2.932   4.409
13777TIP3   OH241273   5.668   7.736   3.739
13777TIP3    H141274   5.681   7.642   3.751
13777TIP3    H241275   5.584   7.744   3.695
13778TIP3   OH241276   6.717   7.277   5.075
13778TIP3    H141277   6.631   7.278   5.032
13778TIP3    H241278   6.698   7.250   5.165
13779TIP3   OH241279   7.578   1.958   1.583
13779TIP3    H141280   7.602   2.014   1.509
13779TIP3    H241281   7.482   1.964   1.587
13780TIP3   OH241282   5.196   3.249   1.816
13780TIP3    H141283   5.198   3.219   1.907
13780TIP3    H241284   5.284   3.283   1.800
13781TIP3   OH241285   4.493   7.407   0.595
13781TIP3    H141286   4.420   7.421   0.657
13781TIP3    H241287   4.450   7.387   0.512
13782TIP3   OH241288   1.289   4.829   0.490
13782TIP3    H141289   1.303   4.870   0.404
13782TIP3    H241290   1.243   4.894   0.541
13783TIP3   OH241291   4.653   0.532   6.746
13783TIP3    H141292   4.579   0.503   6.693
13783TIP3    H241293   4.669   0.622   6.717
13784TIP3   OH241294   1.868   2.080   1.371
13784TIP3    H141295   1.888   2.110   1.283
13784TIP3    H241296   1.941   2.022   1.394
13785TIP3   OH241297   1.308   0.540   2.629
13785TIP3    H141298   1.378   0.586   2.582
13785TIP3    H241299   1.331   0.447   2.620
13786TIP3   OH241300   4.989   5.650   1.096
13786TIP3    H141301   5.059   5.674   1.158
13786TIP3    H241302   4.952   5.570   1.133
13787TIP3   OH241303   5.953   2.322   5.802
13787TIP3    H141304   5.971   2.344   5.711
13787TIP3    H241305   6.018   2.255   5.824
13788TIP3   OH241306   7.378   1.942   3.601
13788TIP3    H141307   7.367   2.030   3.637
13788TIP3    H241308   7.327   1.886   3.659
13789TIP3   OH241309   2.320   6.404   2.540
13789TIP3    H141310   2.263   6.480   2.557
13789TIP3    H241311   2.315   6.392   2.445
13790TIP3   OH241312   5.546   7.106   2.030
13790TIP3    H141313   5.477   7.132   2.091
13790TIP3    H241314   5.521   7.019   2.000
13791TIP3   OH241315   3.996   3.858   1.615
13791TIP3    H141316   4.017   3.941   1.573
13791TIP3    H241317   3.904   3.842   1.594
13792TIP3   OH241318   4.249   5.648   5.386
13792TIP3    H141319   4.217   5.737   5.370
13792TIP3    H241320   4.170   5.594   5.382
13793TIP3   OH241321   5.061   0.477   4.460
13793TIP3    H141322   5.007   0.412   4.416
13793TIP3    H241323   5.138   0.428   4.490
13794TIP3   OH241324   7.928   6.550   0.613
13794TIP3    H141325   7.853   6.609   0.602
13794TIP3    H241326   7.890   6.470   0.649
13795TIP3   OH241327   5.644   0.293   4.077
13795TIP3    H141328   5.578   0.360   4.096
13795TIP3    H241329   5.666   0.257   4.163
13796TIP3   OH241330   0.642   0.719   6.108
13796TIP3    H141331   0.565   0.704   6.052
13796TIP3    H241332   0.614   0.690   6.195
13797TIP3   OH241333   4.272   0.169   2.629
13797TIP3    H141334   4.185   0.148   2.594
13797TIP3    H241335   4.330   0.103   2.591
13798TIP3   OH241336   1.283   1.481   1.312
13798TIP3    H141337   1.325   1.475   1.227
13798TIP3    H241338   1.337   1.428   1.370
13799TIP3   OH241339   1.944   7.632   4.818
13799TIP3    H141340   1.927   7.574   4.743
13799TIP3    H241341   2.022   7.681   4.793
13800TIP3   OH241342   6.953   6.736   5.705
13800TIP3    H141343   6.972   6.770   5.618
13800TIP3    H241344   6.895   6.662   5.690
13801TIP3   OH241345   4.440   6.991   3.220
13801TIP3    H141346   4.349   7.008   3.247
13801TIP3    H241347   4.492   7.054   3.270
13802TIP3   OH241348   5.470   3.060   3.951
13802TIP3    H141349   5.413   2.985   3.969
13802TIP3    H241350   5.554   3.035   3.990
13803TIP3   OH241351   0.187   2.179   1.542
13803TIP3    H141352   0.208   2.093   1.507
13803TIP3    H241353   0.261   2.200   1.599
13804TIP3   OH241354   4.445   2.296   4.689
13804TIP3    H141355   4.418   2.309   4.598
13804TIP3    H241356   4.538   2.320   4.689
13805TIP3   OH241357   3.267   3.647   3.274
13805TIP3    H141358   3.272   3.706   3.349
13805TIP3    H241359   3.288   3.702   3.198
13806TIP3   OH241360   4.884   6.530   6.207
13806TIP3    H141361   4.927   6.604   6.250
13806TIP3    H241362   4.793   6.558   6.196
13807TIP3   OH241363   2.113   2.551   3.791
13807TIP3    H141364   2.144   2.470   3.830
13807TIP3    H241365   2.029   2.569   3.834
13808TIP3   OH241366   4.126   1.838   4.613
13808TIP3    H141367   4.050   1.847   4.556
13808TIP3    H241368   4.179   1.916   4.596
13809TIP3   OH241369   0.841   1.989   5.067
13809TIP3    H141370   0.900   1.973   5.141
13809TIP3    H241371   0.799   2.072   5.088
13810TIP3   OH241372   5.959   2.548   2.990
13810TIP3    H141373   6.044   2.591   2.993
13810TIP3    H241374   5.895   2.619   2.997
13811TIP3   OH241375   7.432   4.261   2.316
13811TIP3    H141376   7.354   4.207   2.301
13811TIP3    H241377   7.428   4.284   2.409
13812TIP3   OH241378   0.266   3.550   2.591
13812TIP3    H141379   0.190   3.564   2.536
13812TIP3    H241380   0.340   3.582   2.539
13813TIP3   OH241381   0.343   3.307   1.544
13813TIP3    H141382   0.278   3.271   1.604
13813TIP3    H241383   0.319   3.272   1.458
13814TIP3   OH241384   3.250   4.155   0.458
13814TIP3    H141385   3.168   4.128   0.417
13814TIP3    H241386   3.316   4.099   0.418
13815TIP3   OH241387   0.795   5.544   5.437
13815TIP3    H141388   0.727   5.607   5.413
13815TIP3    H241389   0.870   5.598   5.460
13816TIP3   OH241390   0.803   1.996   5.503
13816TIP3    H141391   0.867   1.947   5.555
13816TIP3    H241392   0.744   1.929   5.467
13817TIP3   OH241393   1.456   2.746   4.956
13817TIP3    H141394   1.527   2.682   4.967
13817TIP3    H241395   1.379   2.694   4.936
13818TIP3   OH241396   1.273   0.752   1.103
13818TIP3    H141397   1.294   0.837   1.065
13818TIP3    H241398   1.266   0.693   1.028
13819TIP3   OH241399   4.152   4.788   2.061
13819TIP3    H141400   4.159   4.743   1.977
13819TIP3    H241401   4.230   4.759   2.110
13820TIP3   OH241402   5.062   7.481   5.237
13820TIP3    H141403   4.989   7.474   5.174
13820TIP3    H241404   5.087   7.573   5.233
13821TIP3   OH241405   0.515   1.811   6.382
13821TIP3    H141406   0.482   1.893   6.344
13821TIP3    H241407   0.611   1.821   6.378
13822TIP3   OH241408   7.948   7.703   2.479
13822TIP3    H141409   7.951   7.726   2.386
13822TIP3    H241410   7.968   7.785   2.525
13823TIP3   OH241411   6.049   2.903   0.611
13823TIP3    H141412   6.036   2.967   0.681
13823TIP3    H241413   5.985   2.927   0.545
13824TIP3   OH241414   6.469   0.462   1.132
13824TIP3    H141415   6.387   0.510   1.126
13824TIP3    H241416   6.512   0.478   1.047
13825TIP3   OH241417   0.727   7.015   6.542
13825TIP3    H141418   0.808   6.968   6.563
13825TIP3    H241419   0.715   7.076   6.615
13826TIP3   OH241420   6.795   1.086   6.700
13826TIP3    H141421   6.742   1.097   6.779
13826TIP3    H241422   6.823   1.174   6.677
13827TIP3   OH241423   5.326   1.299   2.161
13827TIP3    H141424   5.359   1.278   2.248
13827TIP3    H241425   5.292   1.216   2.128
13828TIP3   OH241426   7.596   0.209   0.253
13828TIP3    H141427   7.629   0.120   0.268
13828TIP3    H241428   7.544   0.203   0.173
13829TIP3   OH241429   4.325   4.798   1.063
13829TIP3    H141430   4.411   4.764   1.039
13829TIP3    H241431   4.263   4.751   1.007
13830TIP3   OH241432   7.975   4.924   3.610
13830TIP3    H141433   8.027   4.914   3.531
13830TIP3    H241434   8.005   5.006   3.649
13831TIP3   OH241435   2.675   2.243   0.739
13831TIP3    H141436   2.663   2.306   0.668
13831TIP3    H241437   2.688   2.159   0.696
13832TIP3   OH241438   0.864   4.915   4.043
13832TIP3    H141439   0.824   4.990   4.000
13832TIP3    H241440   0.909   4.952   4.119
13833TIP3   OH241441   2.625   5.992   3.898
13833TIP3    H141442   2.660   6.078   3.873
13833TIP3    H241443   2.690   5.957   3.959
13834TIP3   OH241444   1.675   7.681   3.685
13834TIP3    H141445   1.767   7.661   3.669
13834TIP3    H241446   1.660   7.764   3.641
13835TIP3   OH241447   4.036   7.352   6.493
13835TIP3    H141448   3.997   7.419   6.437
13835TIP3    H241449   4.127   7.347   6.465
13836TIP3   OH241450   8.120   2.384   0.642
13836TIP3    H141451   8.093   2.318   0.578
13836TIP3    H241452   8.069   2.462   0.619
13837TIP3   OH241453   0.408   2.788   0.821
13837TIP3    H141454   0.450   2.703   0.836
13837TIP3    H241455   0.445   2.845   0.888
13838TIP3   OH241456   5.640   2.120   0.391
13838TIP3    H141457   5.689   2.039   0.408
13838TIP3    H241458   5.606   2.146   0.476
13839TIP3   OH241459   3.398   3.576   5.166
13839TIP3    H141460   3.339   3.623   5.225
13839TIP3    H241461   3.438   3.508   5.221
13840TIP3   OH241462   4.400   7.203   6.445
13840TIP3    H141463   4.359   7.187   6.530
13840TIP3    H241464   4.472   7.140   6.441
13841TIP3   OH241465   5.281   0.680   4.640
13841TIP3    H141466   5.326   0.715   4.563
13841TIP3    H241467   5.211   0.743   4.657
13842TIP3   OH241468   4.909   2.036   5.939
13842TIP3    H141469   4.969   2.059   5.868
13842TIP3    H241470   4.925   2.102   6.006
13843TIP3   OH241471   6.783   7.149   0.313
13843TIP3    H141472   6.764   7.068   0.361
13843TIP3    H241473   6.716   7.151   0.244
13844TIP3   OH241474   6.427   6.359   3.486
13844TIP3    H141475   6.506   6.411   3.470
13844TIP3    H241476   6.374   6.413   3.544
13845TIP3   OH241477   0.834   4.469   4.099
13845TIP3    H141478   0.855   4.438   4.011
13845TIP3    H241479   0.814   4.389   4.148
13846TIP3   OH241480   1.346   4.159   1.660
13846TIP3    H141481   1.263   4.188   1.624
13846TIP3    H241482   1.362   4.217   1.734
13847TIP3   OH241483   2.030   4.237   2.478
13847TIP3    H141484   1.968   4.276   2.416
13847TIP3    H241485   1.999   4.264   2.564
13848TIP3   OH241486   5.267   0.961   0.828
13848TIP3    H141487   5.353   0.975   0.789
13848TIP3    H241488   5.214   1.034   0.795
13849TIP3   OH241489   1.453   3.196   3.892
13849TIP3    H141490   1.505   3.193   3.811
13849TIP3    H241491   1.405   3.114   3.893
13850TIP3   OH241492   7.627   7.419   2.444
13850TIP3    H141493   7.688   7.454   2.509
13850TIP3    H241494   7.555   7.383   2.496
13851TIP3   OH241495   7.301   6.996   3.048
13851TIP3    H141496   7.316   7.040   3.132
13851TIP3    H241497   7.376   6.937   3.039
13852TIP3   OH241498   0.436   5.883   0.185
13852TIP3    H141499   0.434   5.846   0.273
13852TIP3    H241500   0.344   5.885   0.158
13853TIP3   OH241501   4.874   0.062   4.684
13853TIP3    H141502   4.968   0.073   4.695
13853TIP3    H241503   4.862   0.056   4.589
13854TIP3   OH241504   7.734   0.526   4.864
13854TIP3    H141505   7.822   0.546   4.834
13854TIP3    H241506   7.677   0.564   4.797
13855TIP3   OH241507   4.241   6.897   4.413
13855TIP3    H141508   4.308   6.959   4.384
13855TIP3    H241509   4.286   6.813   4.416
13856TIP3   OH241510   6.586   2.795   0.752
13856TIP3    H141511   6.525   2.816   0.681
13856TIP3    H241512   6.548   2.837   0.829
13857TIP3   OH241513   6.975   5.288   5.552
13857TIP3    H141514   6.993   5.377   5.582
13857TIP3    H241515   6.981   5.293   5.457
13858TIP3   OH241516   2.586   2.486   0.967
13858TIP3    H141517   2.518   2.487   0.900
13858TIP3    H241518   2.545   2.524   1.045
13859TIP3   OH241519   2.367   2.903   5.017
13859TIP3    H141520   2.333   2.961   4.949
13859TIP3    H241521   2.321   2.928   5.096
13860TIP3   OH241522   1.855   3.214   3.699
13860TIP3    H141523   1.863   3.151   3.771
13860TIP3    H241524   1.880   3.298   3.738
13861TIP3   OH241525   6.407   6.469   1.652
13861TIP3    H141526   6.440   6.404   1.590
13861TIP3    H241527   6.475   6.475   1.719
13862TIP3   OH241528   3.287   0.106   5.386
13862TIP3    H141529   3.217   0.040   5.390
13862TIP3    H241530   3.363   0.061   5.423
13863TIP3   OH241531   5.968   1.250   2.276
13863TIP3    H141532   5.955   1.161   2.243
13863TIP3    H241533   6.004   1.298   2.201
13864TIP3   OH241534   3.775   2.602   1.681
13864TIP3    H141535   3.775   2.687   1.727
13864TIP3    H241536   3.867   2.582   1.668
13865TIP3   OH241537   4.900   6.804   6.503
13865TIP3    H141538   4.871   6.732   6.558
13865TIP3    H241539   4.901   6.880   6.561
13866TIP3   OH241540   2.821   5.727   5.759
13866TIP3    H141541   2.894   5.669   5.780
13866TIP3    H241542   2.778   5.685   5.685
13867TIP3   OH241543   4.708   7.433   4.476
13867TIP3    H141544   4.621   7.467   4.498
13867TIP3    H241545   4.748   7.503   4.424
13868TIP3   OH241546   7.207   2.968   0.717
13868TIP3    H141547   7.127   2.982   0.666
13868TIP3    H241548   7.187   2.890   0.770
13869TIP3   OH241549   2.298   3.079   2.736
13869TIP3    H141550   2.222   3.022   2.722
13869TIP3    H241551   2.300   3.094   2.830
13870TIP3   OH241552   0.039   1.968   5.918
13870TIP3    H141553   0.114   2.027   5.913
13870TIP3    H241554  -0.025   2.004   5.856
13871TIP3   OH241555   8.146   7.457   1.941
13871TIP3    H141556   8.144   7.428   1.850
13871TIP3    H241557   8.237   7.445   1.968
13872TIP3   OH241558   7.044   3.592   2.640
13872TIP3    H141559   7.002   3.513   2.674
13872TIP3    H241560   7.084   3.564   2.557
13873TIP3   OH241561   1.343   3.790   2.959
13873TIP3    H141562   1.259   3.834   2.970
13873TIP3    H241563   1.340   3.717   3.020
13874TIP3   OH241564   0.073   7.802   2.293
13874TIP3    H141565   0.066   7.708   2.279
13874TIP3    H241566   0.161   7.824   2.262
13875TIP3   OH241567   1.567   4.163   4.595
13875TIP3    H141568   1.595   4.094   4.654
13875TIP3    H241569   1.648   4.208   4.571
13876TIP3   OH241570   4.818   0.008   6.376
13876TIP3    H141571   4.724   0.011   6.358
13876TIP3    H241572   4.823  -0.007   6.471
13877TIP3   OH241573   5.808   0.226   0.043
13877TIP3    H141574   5.757   0.151   0.073
13877TIP3    H241575   5.898   0.208   0.072
13878TIP3   OH241576   5.369   3.326   3.453
13878TIP3    H141577   5.431   3.399   3.447
13878TIP3    H241578   5.351   3.317   3.546
13879TIP3   OH241579   5.391   7.048   4.180
13879TIP3    H141580   5.374   7.040   4.086
13879TIP3    H241581   5.405   6.958   4.209
13880TIP3   OH241582   1.714   5.040   5.290
13880TIP3    H141583   1.644   4.979   5.265
13880TIP3    H241584   1.763   5.055   5.209
13881TIP3   OH241585   4.648   6.680   5.336
13881TIP3    H141586   4.602   6.615   5.284
13881TIP3    H241587   4.705   6.725   5.273
13882TIP3   OH241588   1.549   5.043   1.406
13882TIP3    H141589   1.632   5.021   1.449
13882TIP3    H241590   1.515   4.959   1.376
13883TIP3   OH241591   4.158   6.498   3.058
13883TIP3    H141592   4.075   6.465   3.093
13883TIP3    H241593   4.204   6.420   3.028
13884TIP3   OH241594   3.777   4.854   2.869
13884TIP3    H141595   3.749   4.793   2.937
13884TIP3    H241596   3.752   4.811   2.786
13885TIP3   OH241597   7.422   6.893   4.205
13885TIP3    H141598   7.478   6.856   4.137
13885TIP3    H241599   7.451   6.852   4.286
13886TIP3   OH241600   3.587   4.506   6.659
13886TIP3    H141601   3.639   4.479   6.583
13886TIP3    H241602   3.529   4.574   6.624
13887TIP3   OH241603   2.411   5.284   2.492
13887TIP3    H141604   2.335   5.335   2.463
13887TIP3    H241605   2.456   5.261   2.411
13888TIP3   OH241606   8.055   3.587   0.611
13888TIP3    H141607   8.012   3.672   0.625
13888TIP3    H241608   8.034   3.564   0.521
13889TIP3   OH241609   6.903   1.673   0.267
13889TIP3    H141610   6.815   1.650   0.297
13889TIP3    H241611   6.891   1.755   0.219
13890TIP3   OH241612   3.706   5.223   2.422
13890TIP3    H141613   3.676   5.195   2.508
13890TIP3    H241614   3.641   5.287   2.393
13891TIP3   OH241615   1.407   4.674   0.217
13891TIP3    H141616   1.322   4.645   0.252
13891TIP3    H241617   1.461   4.596   0.219
13892TIP3   OH241618   7.290   3.217   1.666
13892TIP3    H141619   7.262   3.282   1.730
13892TIP3    H241620   7.284   3.263   1.582
13893TIP3   OH241621   2.723   7.467   1.998
13893TIP3    H141622   2.749   7.501   2.083
13893TIP3    H241623   2.788   7.502   1.937
13894TIP3   OH241624   4.896   1.663   3.749
13894TIP3    H141625   4.972   1.659   3.691
13894TIP3    H241626   4.821   1.667   3.690
13895TIP3   OH241627   6.004   4.539   0.436
13895TIP3    H141628   5.967   4.455   0.465
13895TIP3    H241629   6.080   4.553   0.493
13896TIP3   OH241630   0.088   3.916   6.318
13896TIP3    H141631   0.013   3.899   6.374
13896TIP3    H241632   0.073   3.863   6.240
13897TIP3   OH241633   0.013   4.131   4.721
13897TIP3    H141634   0.017   4.046   4.766
13897TIP3    H241635   0.008   4.195   4.793
13898TIP3   OH241636   7.451   3.015   1.347
13898TIP3    H141637   7.461   2.925   1.314
13898TIP3    H241638   7.514   3.020   1.419
13899TIP3   OH241639   1.781   2.016   3.104
13899TIP3    H141640   1.750   2.092   3.055
13899TIP3    H241641   1.870   2.001   3.072
13900TIP3   OH241642   7.086   4.831   2.103
13900TIP3    H141643   7.021   4.811   2.035
13900TIP3    H241644   7.072   4.764   2.170
13901TIP3   OH241645   2.017   2.619   4.581
13901TIP3    H141646   2.007   2.710   4.610
13901TIP3    H241647   2.046   2.626   4.490
13902TIP3   OH241648   4.850   0.873   0.061
13902TIP3    H141649   4.784   0.926   0.107
13902TIP3    H241650   4.863   0.918  -0.022
13903TIP3   OH241651   7.675   0.834   2.614
13903TIP3    H141652   7.717   0.787   2.542
13903TIP3    H241653   7.714   0.922   2.612
13904TIP3   OH241654   6.054   3.400   5.695
13904TIP3    H141655   6.124   3.455   5.660
13904TIP3    H241656   5.975   3.455   5.688
13905TIP3   OH241657   3.415   2.200   1.037
13905TIP3    H141658   3.506   2.208   1.007
13905TIP3    H241659   3.363   2.220   0.959
13906TIP3   OH241660   4.530   3.015   2.020
13906TIP3    H141661   4.437   3.035   2.010
13906TIP3    H241662   4.531   2.931   2.067
13907TIP3   OH241663   0.239   3.759   1.826
13907TIP3    H141664   0.299   3.765   1.901
13907TIP3    H241665   0.182   3.685   1.848
13908TIP3   OH241666   7.768   1.122   0.060
13908TIP3    H141667   7.863   1.137   0.067
13908TIP3    H241668   7.734   1.150   0.145
13909TIP3   OH241669   0.589   4.911   2.772
13909TIP3    H141670   0.662   4.922   2.711
13909TIP3    H241671   0.519   4.966   2.737
13910TIP3   OH241672   6.490   3.672   0.172
13910TIP3    H141673   6.403   3.707   0.188
13910TIP3    H241674   6.550   3.736   0.212
13911TIP3   OH241675   1.971   4.010   0.528
13911TIP3    H141676   1.945   3.918   0.519
13911TIP3    H241677   1.895   4.052   0.569
13912TIP3   OH241678   1.806   6.513   3.186
13912TIP3    H141679   1.779   6.602   3.210
13912TIP3    H241680   1.727   6.473   3.150
13913TIP3   OH241681   1.047   0.425   0.060
13913TIP3    H141682   1.025   0.338   0.025
13913TIP3    H241683   1.090   0.406   0.144
13914TIP3   OH241684   1.285   5.879   0.411
13914TIP3    H141685   1.285   5.957   0.355
13914TIP3    H241686   1.376   5.850   0.411
13915TIP3   OH241687   6.819   6.459   5.025
13915TIP3    H141688   6.792   6.384   5.078
13915TIP3    H241689   6.811   6.534   5.084
13916TIP3   OH241690   7.974   5.433   1.870
13916TIP3    H141691   8.060   5.448   1.832
13916TIP3    H241692   7.917   5.413   1.795
13917TIP3   OH241693   7.006   7.786   0.373
13917TIP3    H141694   6.997   7.878   0.397
13917TIP3    H241695   7.014   7.740   0.456
13918TIP3   OH241696   5.845   1.641   2.165
13918TIP3    H141697   5.854   1.571   2.100
13918TIP3    H241698   5.904   1.615   2.236
13919TIP3   OH241699   7.847   1.350   5.523
13919TIP3    H141700   7.809   1.313   5.443
13919TIP3    H241701   7.817   1.440   5.524
13920TIP3   OH241702   6.026   3.085   0.138
13920TIP3    H141703   6.009   3.030   0.214
13920TIP3    H241704   6.115   3.061   0.110
13921TIP3   OH241705   7.263   6.974   1.179
13921TIP3    H141706   7.200   6.902   1.169
13921TIP3    H241707   7.210   7.053   1.175
13922TIP3   OH241708   6.538   7.123   1.133
13922TIP3    H141709   6.590   7.074   1.197
13922TIP3    H241710   6.602   7.163   1.076
13923TIP3   OH241711   7.438   2.725   4.739
13923TIP3    H141712   7.509   2.787   4.754
13923TIP3    H241713   7.482   2.643   4.717
13924TIP3   OH241714   0.062   5.952   0.723
13924TIP3    H141715   0.004   5.876   0.724
13924TIP3    H241716   0.142   5.922   0.766
13925TIP3   OH241717   4.959   0.273   6.375
13925TIP3    H141718   4.892   0.316   6.321
13925TIP3    H241719   4.921   0.188   6.395
13926TIP3   OH241720   0.760   7.099   2.641
13926TIP3    H141721   0.825   7.105   2.711
13926TIP3    H241722   0.799   7.040   2.577
13927TIP3   OH241723   4.697   3.292   1.374
13927TIP3    H141724   4.708   3.201   1.404
13927TIP3    H241725   4.675   3.340   1.454
13928TIP3   OH241726   6.332   4.240   2.473
13928TIP3    H141727   6.266   4.307   2.456
13928TIP3    H241728   6.384   4.275   2.545
13929TIP3   OH241729   3.922   2.863   1.604
13929TIP3    H141730   3.875   2.938   1.567
13929TIP3    H241731   3.876   2.844   1.686
13930TIP3   OH241732   5.057   1.351   2.579
13930TIP3    H141733   5.013   1.273   2.613
13930TIP3    H241734   5.042   1.418   2.646
13931TIP3   OH241735   3.338   3.029   0.858
13931TIP3    H141736   3.428   3.061   0.845
13931TIP3    H241737   3.338   2.943   0.817
13932TIP3   OH241738   3.302   5.597   2.625
13932TIP3    H141739   3.271   5.612   2.536
13932TIP3    H241740   3.395   5.623   2.623
13933TIP3   OH241741   4.800   2.028   1.862
13933TIP3    H141742   4.852   2.046   1.940
13933TIP3    H241743   4.736   2.099   1.858
13934TIP3   OH241744   1.243   3.759   4.199
13934TIP3    H141745   1.263   3.820   4.270
13934TIP3    H241746   1.185   3.809   4.141
13935TIP3   OH241747   5.764   2.005   4.817
13935TIP3    H141748   5.788   1.935   4.756
13935TIP3    H241749   5.747   2.080   4.761
13936TIP3   OH241750   8.071   0.280   1.323
13936TIP3    H141751   8.151   0.306   1.369
13936TIP3    H241752   8.102   0.231   1.247
13937TIP3   OH241753   3.124   0.494   1.867
13937TIP3    H141754   3.136   0.547   1.947
13937TIP3    H241755   3.195   0.430   1.871
13938TIP3   OH241756   2.908   1.776   0.163
13938TIP3    H141757   2.858   1.713   0.215
13938TIP3    H241758   2.859   1.784   0.082
13939TIP3   OH241759   1.880   6.454   5.914
13939TIP3    H141760   1.969   6.455   5.879
13939TIP3    H241761   1.870   6.366   5.952
13940TIP3   OH241762   4.617   1.427   2.201
13940TIP3    H141763   4.644   1.366   2.270
13940TIP3    H241764   4.530   1.396   2.175
13941TIP3   OH241765   2.864   0.716   4.208
13941TIP3    H141766   2.790   0.674   4.251
13941TIP3    H241767   2.933   0.716   4.274
13942TIP3   OH241768   7.121   6.031   4.923
13942TIP3    H141769   7.155   6.047   5.011
13942TIP3    H241770   7.027   6.019   4.936
13943TIP3   OH241771   3.774   6.722   1.767
13943TIP3    H141772   3.720   6.644   1.757
13943TIP3    H241773   3.739   6.785   1.703
13944TIP3   OH241774   4.822   3.944   6.525
13944TIP3    H141775   4.779   3.944   6.440
13944TIP3    H241776   4.790   4.024   6.568
13945TIP3   OH241777   7.516   0.277   6.329
13945TIP3    H141778   7.555   0.349   6.280
13945TIP3    H241779   7.582   0.254   6.395
13946TIP3   OH241780   7.135   5.100   4.354
13946TIP3    H141781   7.081   5.093   4.276
13946TIP3    H241782   7.072   5.101   4.427
13947TIP3   OH241783   1.685   5.423   1.684
13947TIP3    H141784   1.621   5.479   1.639
13947TIP3    H241785   1.644   5.336   1.685
13948TIP3   OH241786   7.915   0.476   0.790
13948TIP3    H141787   7.994   0.486   0.736
13948TIP3    H241788   7.844   0.506   0.735
13949TIP3   OH241789   6.552   6.620   5.866
13949TIP3    H141790   6.585   6.624   5.777
13949TIP3    H241791   6.457   6.627   5.857
13950TIP3   OH241792   7.470   2.666   6.491
13950TIP3    H141793   7.559   2.666   6.525
13950TIP3    H241794   7.436   2.752   6.512
13951TIP3   OH241795   0.854   1.561   0.187
13951TIP3    H141796   0.885   1.609   0.263
13951TIP3    H241797   0.789   1.500   0.221
13952TIP3   OH241798   7.307   5.600   5.511
13952TIP3    H141799   7.213   5.584   5.518
13952TIP3    H241800   7.347   5.524   5.551
13953TIP3   OH241801   0.526   5.174   3.133
13953TIP3    H141802   0.600   5.214   3.088
13953TIP3    H241803   0.542   5.079   3.127
13954TIP3   OH241804   4.465   6.947   6.643
13954TIP3    H141805   4.508   6.871   6.603
13954TIP3    H241806   4.531   6.982   6.704
13955TIP3   OH241807   3.539   7.703   0.860
13955TIP3    H141808   3.506   7.626   0.815
13955TIP3    H241809   3.461   7.757   0.877
13956TIP3   OH241810   1.583   4.706   1.653
13956TIP3    H141811   1.638   4.655   1.712
13956TIP3    H241812   1.544   4.774   1.709
13957TIP3   OH241813   8.289   1.491   6.613
13957TIP3    H141814   8.293   1.470   6.706
13957TIP3    H241815   8.225   1.562   6.607
13958TIP3   OH241816   6.642   2.041   6.521
13958TIP3    H141817   6.624   1.996   6.438
13958TIP3    H241818   6.557   2.078   6.546
13959TIP3   OH241819   6.374   7.053   6.535
13959TIP3    H141820   6.380   7.002   6.616
13959TIP3    H241821   6.458   7.039   6.491
13960TIP3   OH241822   6.975   5.613   5.363
13960TIP3    H141823   6.908   5.578   5.304
13960TIP3    H241824   7.048   5.636   5.305
13961TIP3   OH241825   6.960   5.372   2.315
13961TIP3    H141826   6.979   5.278   2.309
13961TIP3    H241827   6.956   5.402   2.224
13962TIP3   OH241828   0.398   1.962   4.306
13962TIP3    H141829   0.345   2.013   4.367
13962TIP3    H241830   0.447   2.028   4.257
13963TIP3   OH241831   8.132   4.255   5.058
13963TIP3    H141832   8.219   4.282   5.028
13963TIP3    H241833   8.148   4.172   5.104
13964TIP3   OH241834   1.809   3.803   4.709
13964TIP3    H141835   1.821   3.710   4.690
13964TIP3    H241836   1.821   3.811   4.803
13965TIP3   OH241837   2.161   5.446   6.595
13965TIP3    H141838   2.177   5.466   6.687
13965TIP3    H241839   2.173   5.351   6.589
13966TIP3   OH241840   3.040   1.535   2.257
13966TIP3    H141841   3.091   1.527   2.337
13966TIP3    H241842   3.087   1.482   2.193
13967TIP3   OH241843   5.055   5.339   3.613
13967TIP3    H141844   5.116   5.287   3.559
13967TIP3    H241845   5.096   5.425   3.619
13968TIP3   OH241846   2.448   5.890   6.140
13968TIP3    H141847   2.424   5.942   6.063
13968TIP3    H241848   2.543   5.881   6.134
13969TIP3   OH241849   4.526   6.860   2.181
13969TIP3    H141850   4.574   6.923   2.129
13969TIP3    H241851   4.441   6.851   2.137
13970TIP3   OH241852   0.657   0.257   2.084
13970TIP3    H141853   0.656   0.333   2.142
13970TIP3    H241854   0.748   0.227   2.085
13971TIP3   OH241855   5.151   0.306   4.986
13971TIP3    H141856   5.149   0.358   4.906
13971TIP3    H241857   5.176   0.368   5.055
13972TIP3   OH241858   3.951   2.687   1.996
13972TIP3    H141859   4.038   2.692   1.955
13972TIP3    H241860   3.953   2.754   2.064
13973TIP3   OH241861   6.763   2.573   5.154
13973TIP3    H141862   6.742   2.481   5.169
13973TIP3    H241863   6.726   2.592   5.067
13974TIP3   OH241864   8.277   4.139   0.436
13974TIP3    H141865   8.306   4.200   0.503
13974TIP3    H241866   8.292   4.185   0.353
13975TIP3   OH241867   4.319   6.647   4.103
13975TIP3    H141868   4.362   6.657   4.188
13975TIP3    H241869   4.273   6.563   4.109
13976TIP3   OH241870   3.128   7.130   6.302
13976TIP3    H141871   3.155   7.071   6.231
13976TIP3    H241872   3.062   7.187   6.261
13977TIP3   OH241873   5.241   5.961   5.369
13977TIP3    H141874   5.325   5.979   5.411
13977TIP3    H241875   5.176   5.975   5.438
13978TIP3   OH241876   5.230   6.873   2.987
13978TIP3    H141877   5.283   6.885   3.065
13978TIP3    H241878   5.193   6.785   2.996
13979TIP3   OH241879   1.398   2.945   3.818
13979TIP3    H141880   1.344   2.887   3.765
13979TIP3    H241881   1.488   2.926   3.791
13980TIP3   OH241882   2.809   1.117   5.566
13980TIP3    H141883   2.784   1.186   5.627
13980TIP3    H241884   2.859   1.162   5.498
13981TIP3   OH241885   3.719   4.341   6.047
13981TIP3    H141886   3.649   4.332   5.983
13981TIP3    H241887   3.796   4.365   5.995
13982TIP3   OH241888   7.374   4.333   3.595
13982TIP3    H141889   7.436   4.322   3.523
13982TIP3    H241890   7.295   4.368   3.553
13983TIP3   OH241891   2.526   0.882   2.397
13983TIP3    H141892   2.508   0.889   2.491
13983TIP3    H241893   2.615   0.848   2.392
13984TIP3   OH241894   5.000   2.290   6.043
13984TIP3    H141895   5.052   2.259   6.117
13984TIP3    H241896   5.058   2.350   5.996
13985TIP3   OH241897   2.083   4.093   5.306
13985TIP3    H141898   2.034   4.028   5.256
13985TIP3    H241899   2.136   4.041   5.367
13986TIP3   OH241900   1.829   3.587   3.290
13986TIP3    H141901   1.771   3.636   3.231
13986TIP3    H241902   1.857   3.652   3.355
13987TIP3   OH241903   0.173   0.048   3.030
13987TIP3    H141904   0.091   0.012   2.996
13987TIP3    H241905   0.188   0.000   3.112
13988TIP3   OH241906   6.801   7.431   0.292
13988TIP3    H141907   6.829   7.477   0.371
13988TIP3    H241908   6.826   7.340   0.308
13989TIP3   OH241909   5.165   1.535   1.077
13989TIP3    H141910   5.197   1.625   1.084
13989TIP3    H241911   5.070   1.542   1.082
13990TIP3   OH241912   0.093   7.165   1.759
13990TIP3    H141913   0.142   7.199   1.684
13990TIP3    H241914   0.105   7.230   1.828
13991TIP3   OH241915   3.069   7.711   6.121
13991TIP3    H141916   3.074   7.766   6.043
13991TIP3    H241917   3.093   7.624   6.091
13992TIP3   OH241918   3.494   2.675   3.413
13992TIP3    H141919   3.500   2.588   3.452
13992TIP3    H241920   3.417   2.715   3.453
13993TIP3   OH241921   6.834   5.698   4.960
13993TIP3    H141922   6.832   5.655   4.875
13993TIP3    H241923   6.748   5.738   4.969
13994TIP3   OH241924   0.221   1.624   4.699
13994TIP3    H141925   0.182   1.697   4.650
13994TIP3    H241926   0.181   1.629   4.785
13995TIP3   OH241927   2.851   4.974   0.603
13995TIP3    H141928   2.918   5.017   0.548
13995TIP3    H241929   2.872   5.001   0.692
13996TIP3   OH241930   5.427   3.947   2.792
13996TIP3    H141931   5.343   3.905   2.811
13996TIP3    H241932   5.489   3.875   2.786
13997TIP3   OH241933   6.774   7.518   3.315
13997TIP3    H141934   6.819   7.589   3.362
13997TIP3    H241935   6.775   7.444   3.377
13998TIP3   OH241936   2.261   5.213   0.296
13998TIP3    H141937   2.166   5.215   0.289
13998TIP3    H241938   2.285   5.295   0.337
13999TIP3   OH241939   4.621   3.234   0.714
13999TIP3    H141940   4.532   3.243   0.681
13999TIP3    H241941   4.628   3.301   0.783
14000TIP3   OH241942   1.552   0.414   0.822
14000TIP3    H141943   1.530   0.503   0.847
14000TIP3    H241944   1.648   0.413   0.821
14001TIP3   OH241945   4.959   2.673   5.482
14001TIP3    H141946   4.950   2.666   5.577
14001TIP3    H241947   4.895   2.740   5.457
14002TIP3   OH241948   3.285   5.962   5.306
14002TIP3    H141949   3.227   5.916   5.367
14002TIP3    H241950   3.225   6.015   5.252
14003TIP3   OH241951   3.576   0.549   4.892
14003TIP3    H141952   3.627   0.555   4.811
14003TIP3    H241953   3.486   0.532   4.863
14004TIP3   OH241954   1.709   0.592   3.171
14004TIP3    H141955   1.797   0.628   3.173
14004TIP3    H241956   1.655   0.657   3.216
14005TIP3   OH241957   0.927   5.041   2.833
14005TIP3    H141958   0.945   4.949   2.813
14005TIP3    H241959   0.913   5.082   2.748
14006TIP3   OH241960   8.293   1.343   3.604
14006TIP3    H141961   8.202   1.316   3.593
14006TIP3    H241962   8.289   1.438   3.608
14007TIP3   OH241963   5.440   0.653   3.016
14007TIP3    H141964   5.377   0.672   2.947
14007TIP3    H241965   5.525   0.675   2.978
14008TIP3   OH241966   2.152   4.641   3.698
14008TIP3    H141967   2.122   4.676   3.614
14008TIP3    H241968   2.220   4.578   3.675
14009TIP3   OH241969   3.397   0.869   4.647
14009TIP3    H141970   3.461   0.923   4.602
14009TIP3    H241971   3.398   0.900   4.738
14010TIP3   OH241972   4.987   0.908   2.240
14010TIP3    H141973   4.991   0.906   2.144
14010TIP3    H241974   5.049   0.841   2.268
14011TIP3   OH241975   3.556   4.753   3.948
14011TIP3    H141976   3.534   4.777   3.858
14011TIP3    H241977   3.563   4.836   3.995
14012TIP3   OH241978   3.496   0.606   0.807
14012TIP3    H141979   3.539   0.642   0.885
14012TIP3    H241980   3.462   0.521   0.835
14013TIP3   OH241981   3.370   1.470   1.417
14013TIP3    H141982   3.387   1.552   1.369
14013TIP3    H241983   3.445   1.462   1.475
14014TIP3   OH241984   3.623   2.398   4.861
14014TIP3    H141985   3.677   2.470   4.895
14014TIP3    H241986   3.686   2.334   4.827
14015TIP3   OH241987   2.325   5.399   5.436
14015TIP3    H141988   2.305   5.387   5.529
14015TIP3    H241989   2.244   5.376   5.391
14016TIP3   OH241990   2.366   5.932   3.963
14016TIP3    H141991   2.310   5.927   3.885
14016TIP3    H241992   2.452   5.957   3.929
14017TIP3   OH241993   2.306   5.169   2.725
14017TIP3    H141994   2.335   5.174   2.816
14017TIP3    H241995   2.338   5.251   2.686
14018TIP3   OH241996   1.512   3.265   2.281
14018TIP3    H141997   1.539   3.177   2.256
14018TIP3    H241998   1.483   3.256   2.372
14019TIP3   OH241999   3.543   3.025   5.163
14019TIP3    H142000   3.632   2.990   5.174
14019TIP3    H242001   3.555   3.119   5.151
14020TIP3   OH242002   0.286   0.106   5.253
14020TIP3    H142003   0.303   0.079   5.343
14020TIP3    H242004   0.354   0.171   5.234
14021TIP3   OH242005  -0.022   2.745   1.096
14021TIP3    H142006   0.019   2.798   1.028
14021TIP3    H242007  -0.047   2.808   1.163
14022TIP3   OH242008   5.659   6.603   6.398
14022TIP3    H142009   5.729   6.636   6.342
14022TIP3    H242010   5.580   6.612   6.345
14023TIP3   OH242011   1.065   1.984   5.706
14023TIP3    H142012   1.116   2.003   5.628
14023TIP3    H242013   1.051   1.889   5.704
14024TIP3   OH242014   5.112   3.686   3.794
14024TIP3    H142015   5.130   3.680   3.700
14024TIP3    H242016   5.188   3.646   3.835
14025TIP3   OH242017   5.342   5.877   5.132
14025TIP3    H142018   5.304   5.921   5.208
14025TIP3    H242019   5.408   5.818   5.168
14026TIP3   OH242020   8.263   6.158   4.446
14026TIP3    H142021   8.237   6.134   4.357
14026TIP3    H242022   8.330   6.093   4.469
14027TIP3   OH242023   5.679   7.541   3.091
14027TIP3    H142024   5.649   7.622   3.133
14027TIP3    H242025   5.605   7.515   3.035
14028TIP3   OH242026   4.301   4.123   3.542
14028TIP3    H142027   4.213   4.098   3.569
14028TIP3    H242028   4.359   4.057   3.580
14029TIP3   OH242029   7.323   0.405   0.893
14029TIP3    H142030   7.398   0.350   0.870
14029TIP3    H242031   7.281   0.424   0.809
14030TIP3   OH242032   1.622   2.324   2.088
14030TIP3    H142033   1.565   2.250   2.110
14030TIP3    H242034   1.686   2.288   2.027
14031TIP3   OH242035   1.723   0.826   3.264
14031TIP3    H142036   1.663   0.901   3.261
14031TIP3    H242037   1.809   0.865   3.281
14032TIP3   OH242038   4.511   1.580   0.812
14032TIP3    H142039   4.418   1.586   0.831
14032TIP3    H242040   4.546   1.523   0.880
14033TIP3   OH242041   2.017   6.664   6.289
14033TIP3    H142042   1.963   6.743   6.281
14033TIP3    H242043   1.973   6.599   6.234
14034TIP3   OH242044   7.365   5.945   5.301
14034TIP3    H142045   7.417   5.992   5.237
14034TIP3    H242046   7.398   5.975   5.386
14035TIP3   OH242047   5.725   5.115   1.510
14035TIP3    H142048   5.649   5.078   1.555
14035TIP3    H242049   5.719   5.082   1.420
14036TIP3   OH242050   6.173   7.825   5.555
14036TIP3    H142051   6.169   7.784   5.641
14036TIP3    H242052   6.240   7.775   5.508
14037TIP3   OH242053   6.481   4.548   0.127
14037TIP3    H142054   6.464   4.561   0.220
14037TIP3    H242055   6.571   4.580   0.114
14038TIP3   OH242056   0.331   7.305   3.028
14038TIP3    H142057   0.305   7.219   3.062
14038TIP3    H242058   0.257   7.362   3.048
14039TIP3   OH242059   7.334   1.350   6.495
14039TIP3    H142060   7.304   1.297   6.421
14039TIP3    H242061   7.422   1.316   6.514
14040TIP3   OH242062   6.359   5.545   3.221
14040TIP3    H142063   6.312   5.625   3.246
14040TIP3    H242064   6.358   5.491   3.301
14041TIP3   OH242065   3.596   4.244   4.092
14041TIP3    H142066   3.580   4.291   4.174
14041TIP3    H242067   3.509   4.239   4.051
14042TIP3   OH242068   6.947   5.298   3.466
14042TIP3    H142069   6.859   5.268   3.442
14042TIP3    H242070   6.932   5.357   3.540
14043TIP3   OH242071   2.241   4.045   2.978
14043TIP3    H142072   2.198   4.093   2.908
14043TIP3    H242073   2.309   4.104   3.011
14044TIP3   OH242074   4.533   4.868   4.769
14044TIP3    H142075   4.503   4.796   4.713
14044TIP3    H242076   4.462   4.880   4.833
14045TIP3   OH242077   1.450   5.832   4.055
14045TIP3    H142078   1.524   5.800   4.003
14045TIP3    H242079   1.385   5.761   4.049
14046TIP3   OH242080   5.021   4.852   4.573
14046TIP3    H142081   5.075   4.775   4.553
14046TIP3    H242082   4.938   4.836   4.529
14047TIP3   OH242083   6.014   5.191   3.344
14047TIP3    H142084   6.030   5.166   3.435
14047TIP3    H242085   5.918   5.188   3.336
14048TIP3   OH242086   8.229   5.036   2.060
14048TIP3    H142087   8.205   5.021   1.969
14048TIP3    H242088   8.163   5.098   2.091
14049TIP3   OH242089   7.269   5.700   2.726
14049TIP3    H142090   7.197   5.644   2.696
14049TIP3    H242091   7.296   5.662   2.810
14050TIP3   OH242092   7.780   6.756   5.739
14050TIP3    H142093   7.749   6.683   5.793
14050TIP3    H242094   7.854   6.718   5.690
14051TIP3   OH242095   4.704   1.660   6.470
14051TIP3    H142096   4.735   1.743   6.432
14051TIP3    H242097   4.783   1.606   6.477
14052TIP3   OH242098   0.752   0.659   6.510
14052TIP3    H142099   0.662   0.672   6.478
14052TIP3    H242100   0.751   0.692   6.600
14053TIP3   OH242101   1.476   6.907   0.422
14053TIP3    H142102   1.384   6.906   0.397
14053TIP3    H242103   1.523   6.887   0.342
14054TIP3   OH242104   6.273   6.371   6.460
14054TIP3    H142105   6.346   6.387   6.520
14054TIP3    H242106   6.207   6.436   6.486
14055TIP3   OH242107   0.890   4.598   1.316
14055TIP3    H142108   0.935   4.582   1.233
14055TIP3    H242109   0.889   4.693   1.325
14056TIP3   OH242110   6.247   5.256   4.719
14056TIP3    H142111   6.242   5.318   4.792
14056TIP3    H242112   6.295   5.181   4.755
14057TIP3   OH242113   8.209   0.541   1.003
14057TIP3    H142114   8.218   0.598   0.928
14057TIP3    H242115   8.134   0.576   1.052
14058TIP3   OH242116   3.398   5.279   1.357
14058TIP3    H142117   3.405   5.346   1.424
14058TIP3    H242118   3.310   5.291   1.321
14059TIP3   OH242119   0.261   6.468   5.890
14059TIP3    H142120   0.176   6.443   5.853
14059TIP3    H242121   0.276   6.557   5.859
14060TIP3   OH242122   5.808   2.897   5.084
14060TIP3    H142123   5.723   2.917   5.124
14060TIP3    H242124   5.864   2.874   5.158
14061TIP3   OH242125   3.433   5.576   0.934
14061TIP3    H142126   3.486   5.648   0.898
14061TIP3    H242127   3.390   5.614   1.011
14062TIP3   OH242128   8.154   5.494   0.592
14062TIP3    H142129   8.135   5.443   0.671
14062TIP3    H242130   8.097   5.456   0.525
14063TIP3   OH242131   7.033   5.286   5.287
14063TIP3    H142132   7.049   5.364   5.234
14063TIP3    H242133   7.106   5.227   5.267
14064TIP3   OH242134   2.266   5.861   2.648
14064TIP3    H142135   2.202   5.796   2.620
14064TIP3    H242136   2.215   5.924   2.700
14065TIP3   OH242137   4.629   4.280   1.009
14065TIP3    H142138   4.574   4.331   0.949
14065TIP3    H242139   4.714   4.275   0.966
14066TIP3   OH242140   7.844   5.390   0.144
14066TIP3    H142141   7.852   5.477   0.183
14066TIP3    H242142   7.813   5.335   0.216
14067TIP3   OH242143   8.012   2.496   6.162
14067TIP3    H142144   8.076   2.546   6.212
14067TIP3    H242145   7.928   2.535   6.185
14068TIP3   OH242146   4.899   1.123   2.633
14068TIP3    H142147   4.925   1.035   2.608
14068TIP3    H242148   4.848   1.156   2.559
14069TIP3   OH242149   1.611   7.638   1.528
14069TIP3    H142150   1.681   7.573   1.517
14069TIP3    H242151   1.644   7.697   1.595
14070TIP3   OH242152   4.046   0.953   5.476
14070TIP3    H142153   4.073   0.868   5.439
14070TIP3    H242154   4.007   0.930   5.561
14071TIP3   OH242155   5.226   1.026   2.135
14071TIP3    H142156   5.304   0.991   2.178
14071TIP3    H242157   5.187   1.084   2.201
14072TIP3   OH242158   6.193   1.184   3.707
14072TIP3    H142159   6.177   1.131   3.785
14072TIP3    H242160   6.158   1.131   3.635
14073TIP3   OH242161   3.180   0.087   5.983
14073TIP3    H142162   3.093   0.048   5.987
14073TIP3    H242163   3.169   0.164   5.926
14074TIP3   OH242164   7.497   7.275   6.585
14074TIP3    H142165   7.570   7.334   6.565
14074TIP3    H242166   7.479   7.290   6.678
14075TIP3   OH242167   3.700   5.194   3.565
14075TIP3    H142168   3.732   5.269   3.614
14075TIP3    H242169   3.749   5.197   3.482
14076TIP3   OH242170   1.712   5.055   2.420
14076TIP3    H142171   1.787   5.003   2.448
14076TIP3    H242172   1.639   4.993   2.419
14077TIP3   OH242173   8.300   7.227   6.662
14077TIP3    H142174   8.324   7.318   6.680
14077TIP3    H242175   8.252   7.198   6.740
14078TIP3   OH242176   1.732   1.344   3.338
14078TIP3    H142177   1.753   1.367   3.247
14078TIP3    H242178   1.807   1.291   3.366
14079TIP3   OH242179   1.793   3.454   1.272
14079TIP3    H142180   1.768   3.409   1.354
14079TIP3    H242181   1.739   3.533   1.271
14080TIP3   OH242182   1.776   2.284   1.643
14080TIP3    H142183   1.778   2.366   1.593
14080TIP3    H242184   1.718   2.227   1.593
14081TIP3   OH242185   4.264   5.311   0.186
14081TIP3    H142186   4.255   5.267   0.102
14081TIP3    H242187   4.219   5.254   0.248
14082TIP3   OH242188   2.007   7.008   2.373
14082TIP3    H142189   2.101   7.021   2.377
14082TIP3    H242190   1.986   6.964   2.455
14083TIP3   OH242191   6.995   1.064   1.412
14083TIP3    H142192   7.012   1.076   1.318
14083TIP3    H242193   7.059   0.999   1.439
14084TIP3   OH242194   7.939   1.824   1.900
14084TIP3    H142195   8.007   1.853   1.961
14084TIP3    H242196   7.929   1.897   1.839
14085TIP3   OH242197   2.427   1.601   4.174
14085TIP3    H142198   2.507   1.635   4.132
14085TIP3    H242199   2.408   1.665   4.242
14086TIP3   OH242200   0.347   4.928   0.217
14086TIP3    H142201   0.359   5.019   0.245
14086TIP3    H242202   0.413   4.914   0.149
14087TIP3   OH242203   6.280   5.082   2.485
14087TIP3    H142204   6.238   5.060   2.568
14087TIP3    H242205   6.207   5.090   2.423
14088TIP3   OH242206   7.934   3.963   3.470
14088TIP3    H142207   7.889   3.995   3.392
14088TIP3    H242208   8.008   3.913   3.437
14089TIP3   OH242209   3.810   7.298   4.687
14089TIP3    H142210   3.805   7.289   4.592
14089TIP3    H242211   3.748   7.233   4.721
14090TIP3   OH242212   3.103   4.031   5.367
14090TIP3    H142213   3.027   4.086   5.383
14090TIP3    H242214   3.095   3.960   5.431
14091TIP3   OH242215   1.374   5.770   6.212
14091TIP3    H142216   1.309   5.813   6.157
14091TIP3    H242217   1.456   5.777   6.161
14092TIP3   OH242218   7.294   0.797   0.202
14092TIP3    H142219   7.251   0.794   0.116
14092TIP3    H242220   7.238   0.854   0.254
14093TIP3   OH242221   0.570   7.303   4.075
14093TIP3    H142222   0.639   7.289   4.010
14093TIP3    H242223   0.528   7.217   4.084
14094TIP3   OH242224   1.060   7.084   0.862
14094TIP3    H142225   1.111   7.064   0.784
14094TIP3    H242226   1.125   7.097   0.931
14095TIP3   OH242227   7.910   0.014   4.917
14095TIP3    H142228   7.937   0.105   4.906
14095TIP3    H242229   7.814   0.017   4.921
14096TIP3   OH242230   8.277   4.582   0.055
14096TIP3    H142231   8.232   4.631  -0.014
14096TIP3    H242232   8.337   4.525   0.008
14097TIP3   OH242233   2.568   6.211   0.654
14097TIP3    H142234   2.565   6.249   0.741
14097TIP3    H242235   2.655   6.234   0.621
14098TIP3   OH242236   3.749   4.530   4.231
14098TIP3    H142237   3.723   4.507   4.320
14098TIP3    H242238   3.809   4.460   4.205
14099TIP3   OH242239   5.116   0.400   5.817
14099TIP3    H142240   5.154   0.314   5.835
14099TIP3    H242241   5.027   0.382   5.788
14100TIP3   OH242242   2.463   7.103   4.378
14100TIP3    H142243   2.529   7.170   4.361
14100TIP3    H242244   2.450   7.060   4.294
14101TIP3   OH242245   5.676   6.098   0.444
14101TIP3    H142246   5.752   6.156   0.445
14101TIP3    H242247   5.682   6.048   0.524
14102TIP3   OH242248   2.995   1.794   2.616
14102TIP3    H142249   2.952   1.780   2.532
14102TIP3    H242250   2.949   1.735   2.676
14103TIP3   OH242251   3.936   7.192   0.643
14103TIP3    H142252   3.969   7.280   0.625
14103TIP3    H242253   3.984   7.164   0.721
14104TIP3   OH242254   2.407   2.526   3.460
14104TIP3    H142255   2.432   2.559   3.373
14104TIP3    H242256   2.472   2.563   3.519
14105TIP3   OH242257   6.982   7.648   0.632
14105TIP3    H142258   6.978   7.711   0.704
14105TIP3    H242259   6.898   7.601   0.637
14106TIP3   OH242260   1.162   3.894   0.805
14106TIP3    H142261   1.186   3.928   0.719
14106TIP3    H242262   1.138   3.803   0.788
14107TIP3   OH242263   1.012   6.495   0.720
14107TIP3    H142264   0.954   6.519   0.648
14107TIP3    H242265   1.040   6.579   0.757
14108TIP3   OH242266   3.035   7.454   1.578
14108TIP3    H142267   3.128   7.430   1.571
14108TIP3    H242268   3.027   7.532   1.523
14109TIP3   OH242269   2.504   5.940   5.617
14109TIP3    H142270   2.545   5.962   5.534
14109TIP3    H242271   2.559   5.980   5.683
14110TIP3   OH242272   8.214   4.284   1.788
14110TIP3    H142273   8.298   4.249   1.819
14110TIP3    H242274   8.193   4.353   1.851
14111TIP3   OH242275   6.126   5.145   6.672
14111TIP3    H142276   6.183   5.216   6.700
14111TIP3    H242277   6.067   5.186   6.608
14112TIP3   OH242278   6.672   3.467   4.064
14112TIP3    H142279   6.609   3.527   4.106
14112TIP3    H242280   6.708   3.518   3.991
14113TIP3   OH242281   0.064   2.020   0.724
14113TIP3    H142282   0.096   2.095   0.673
14113TIP3    H242283   0.131   1.953   0.713
14114TIP3   OH242284   7.643   0.257   5.588
14114TIP3    H142285   7.602   0.274   5.673
14114TIP3    H242286   7.735   0.240   5.608
14115TIP3   OH242287   1.021   1.879   0.656
14115TIP3    H142288   1.029   1.969   0.623
14115TIP3    H242289   0.945   1.881   0.713
14116TIP3   OH242290   1.465   3.456   2.034
14116TIP3    H142291   1.447   3.399   1.959
14116TIP3    H242292   1.445   3.403   2.111
14117TIP3   OH242293   8.316   1.587   5.334
14117TIP3    H142294   8.243   1.646   5.315
14117TIP3    H242295   8.311   1.520   5.266
14118TIP3   OH242296   4.642   3.644   6.121
14118TIP3    H142297   4.675   3.686   6.042
14118TIP3    H242298   4.616   3.717   6.178
14119TIP3   OH242299   7.661   5.615   0.758
14119TIP3    H142300   7.650   5.521   0.740
14119TIP3    H242301   7.571   5.647   0.768
14120TIP3   OH242302   1.531   4.362   5.472
14120TIP3    H142303   1.625   4.370   5.486
14120TIP3    H242304   1.493   4.368   5.559
14121TIP3   OH242305   5.021   6.290   2.742
14121TIP3    H142306   5.107   6.250   2.743
14121TIP3    H242307   4.983   6.265   2.657
14122TIP3   OH242308   4.328   3.220   6.489
14122TIP3    H142309   4.317   3.200   6.582
14122TIP3    H242310   4.363   3.139   6.451
14123TIP3   OH242311   2.545   2.140   5.110
14123TIP3    H142312   2.475   2.173   5.166
14123TIP3    H242313   2.567   2.054   5.147
14124TIP3   OH242314   0.673   3.706   1.761
14124TIP3    H142315   0.699   3.665   1.679
14124TIP3    H242316   0.680   3.800   1.744
14125TIP3   OH242317   6.934   4.041   6.388
14125TIP3    H142318   6.899   4.031   6.477
14125TIP3    H242319   7.023   4.074   6.400
14126TIP3   OH242320   7.238   1.795   0.613
14126TIP3    H142321   7.276   1.806   0.700
14126TIP3    H242322   7.305   1.749   0.563
14127TIP3   OH242323   2.567   4.523   5.765
14127TIP3    H142324   2.566   4.429   5.745
14127TIP3    H242325   2.659   4.547   5.758
14128TIP3   OH242326   6.618   4.075   1.505
14128TIP3    H142327   6.576   4.034   1.581
14128TIP3    H242328   6.692   4.019   1.484
14129TIP3   OH242329   3.636   4.122   0.155
14129TIP3    H142330   3.636   4.216   0.175
14129TIP3    H242331   3.700   4.112   0.085
14130TIP3   OH242332   0.978   0.462   6.139
14130TIP3    H142333   0.918   0.389   6.154
14130TIP3    H242334   1.061   0.421   6.115
14131TIP3   OH242335   1.265   3.775   5.795
14131TIP3    H142336   1.218   3.692   5.806
14131TIP3    H242337   1.297   3.773   5.705
14132TIP3   OH242338   2.166   6.858   0.983
14132TIP3    H142339   2.234   6.806   1.027
14132TIP3    H242340   2.195   6.864   0.892
14133TIP3   OH242341   6.423   0.533   3.834
14133TIP3    H142342   6.428   0.597   3.905
14133TIP3    H242343   6.343   0.484   3.851
14134TIP3   OH242344   4.579   5.450   2.672
14134TIP3    H142345   4.662   5.495   2.658
14134TIP3    H242346   4.534   5.502   2.738
14135TIP3   OH242347   6.056   3.588   1.819
14135TIP3    H142348   6.004   3.573   1.898
14135TIP3    H242349   5.992   3.607   1.751
14136TIP3   OH242350   1.517   5.999   2.017
14136TIP3    H142351   1.583   5.950   2.066
14136TIP3    H242352   1.558   6.014   1.931
14137TIP3   OH242353   8.285   2.173   4.162
14137TIP3    H142354   8.271   2.258   4.122
14137TIP3    H242355   8.197   2.142   4.185
14138TIP3   OH242356   5.434   5.858   2.058
14138TIP3    H142357   5.410   5.944   2.093
14138TIP3    H242358   5.450   5.804   2.136
14139TIP3   OH242359   7.793   7.717   1.995
14139TIP3    H142360   7.724   7.658   2.024
14139TIP3    H242361   7.756   7.763   1.920
14140TIP3   OH242362   3.796   7.225   3.911
14140TIP3    H142363   3.864   7.183   3.964
14140TIP3    H242364   3.758   7.153   3.861
14141TIP3   OH242365   7.517   7.501   2.842
14141TIP3    H142366   7.494   7.549   2.763
14141TIP3    H242367   7.554   7.567   2.900
14142TIP3   OH242368   7.691   6.597   0.415
14142TIP3    H142369   7.646   6.600   0.330
14142TIP3    H242370   7.765   6.656   0.405
14143TIP3   OH242371   4.927   5.737   1.552
14143TIP3    H142372   5.000   5.759   1.610
14143TIP3    H242373   4.853   5.785   1.587
14144TIP3   OH242374   6.857   0.750   4.521
14144TIP3    H142375   6.832   0.763   4.612
14144TIP3    H242376   6.823   0.827   4.475
14145TIP3   OH242377   2.476   2.956   1.263
14145TIP3    H142378   2.540   2.992   1.324
14145TIP3    H242379   2.392   2.969   1.306
14146TIP3   OH242380   0.849   5.959   6.416
14146TIP3    H142381   0.899   6.016   6.358
14146TIP3    H242382   0.915   5.920   6.474
14147TIP3   OH242383   7.826   1.578   2.236
14147TIP3    H142384   7.884   1.620   2.300
14147TIP3    H242385   7.741   1.576   2.279
14148TIP3   OH242386   1.192   4.546   0.319
14148TIP3    H142387   1.184   4.493   0.398
14148TIP3    H242388   1.123   4.612   0.327
14149TIP3   OH242389   0.606   1.849   1.719
14149TIP3    H142390   0.628   1.794   1.794
14149TIP3    H242391   0.645   1.934   1.739
14150TIP3   OH242392   1.199   2.051   2.833
14150TIP3    H142393   1.105   2.058   2.816
14150TIP3    H242394   1.212   1.959   2.856
14151TIP3   OH242395   3.167   1.607   5.578
14151TIP3    H142396   3.263   1.606   5.573
14151TIP3    H242397   3.139   1.621   5.487
14152TIP3   OH242398   5.974   6.708   3.900
14152TIP3    H142399   5.971   6.664   3.815
14152TIP3    H242400   6.064   6.693   3.931
14153TIP3   OH242401   0.607   4.464   2.966
14153TIP3    H142402   0.598   4.451   2.872
14153TIP3    H242403   0.672   4.534   2.975
14154TIP3   OH242404   0.914   7.391   5.430
14154TIP3    H142405   0.951   7.470   5.470
14154TIP3    H242406   0.907   7.328   5.503
14155TIP3   OH242407   4.621   4.209   2.926
14155TIP3    H142408   4.533   4.177   2.907
14155TIP3    H242409   4.628   4.203   3.021
14156TIP3   OH242410   5.827   7.106   5.296
14156TIP3    H142411   5.739   7.139   5.317
14156TIP3    H242412   5.880   7.185   5.287
14157TIP3   OH242413   6.555   7.693   0.464
14157TIP3    H142414   6.579   7.732   0.380
14157TIP3    H242415   6.459   7.689   0.462
14158TIP3   OH242416   7.811   1.898   2.451
14158TIP3    H142417   7.886   1.954   2.470
14158TIP3    H242418   7.735   1.949   2.477
14159TIP3   OH242419   0.347   5.435   5.584
14159TIP3    H142420   0.422   5.408   5.531
14159TIP3    H242421   0.382   5.449   5.672
14160TIP3   OH242422   5.403   1.228   4.722
14160TIP3    H142423   5.471   1.273   4.772
14160TIP3    H242424   5.439   1.221   4.633
14161TIP3   OH242425   5.003   5.829   3.885
14161TIP3    H142426   4.930   5.818   3.824
14161TIP3    H242427   5.065   5.886   3.840
14162TIP3   OH242428   5.977   1.425   2.946
14162TIP3    H142429   6.009   1.515   2.950
14162TIP3    H242430   6.051   1.375   2.912
14163TIP3   OH242431   2.569   0.943   4.951
14163TIP3    H142432   2.640   0.985   5.001
14163TIP3    H242433   2.490   0.967   4.998
14164TIP3   OH242434   4.747   7.337   0.391
14164TIP3    H142435   4.662   7.356   0.351
14164TIP3    H242436   4.795   7.288   0.324
14165TIP3   OH242437   4.426   4.639   4.949
14165TIP3    H142438   4.332   4.628   4.940
14165TIP3    H242439   4.438   4.732   4.966
14166TIP3   OH242440   0.491   2.846   2.458
14166TIP3    H142441   0.454   2.854   2.370
14166TIP3    H242442   0.435   2.902   2.513
14167TIP3   OH242443   3.969   0.218   3.656
14167TIP3    H142444   3.899   0.243   3.716
14167TIP3    H242445   3.970   0.287   3.590
14168TIP3   OH242446   1.368   6.877   0.106
14168TIP3    H142447   1.409   6.793   0.086
14168TIP3    H242448   1.304   6.888   0.036
14169TIP3   OH242449   3.245   7.567   3.600
14169TIP3    H142450   3.167   7.621   3.609
14169TIP3    H242451   3.315   7.628   3.579
14170TIP3   OH242452   6.841   4.270   3.221
14170TIP3    H142453   6.893   4.320   3.158
14170TIP3    H242454   6.852   4.318   3.304
14171TIP3   OH242455   1.071   2.953   0.049
14171TIP3    H142456   1.042   2.866   0.075
14171TIP3    H242457   1.145   2.938  -0.010
14172TIP3   OH242458   4.430   0.005   2.850
14172TIP3    H142459   4.354   0.004   2.909
14172TIP3    H242460   4.393  -0.010   2.763
14173TIP3   OH242461   2.777   6.428   2.984
14173TIP3    H142462   2.721   6.504   2.967
14173TIP3    H242463   2.830   6.418   2.905
14174TIP3   OH242464   5.312   7.771   1.578
14174TIP3    H142465   5.283   7.798   1.665
14174TIP3    H242466   5.270   7.686   1.564
14175TIP3   OH242467   0.332   7.725   5.341
14175TIP3    H142468   0.258   7.772   5.379
14175TIP3    H242469   0.299   7.691   5.258
14176TIP3   OH242470   5.366   0.592   2.333
14176TIP3    H142471   5.442   0.623   2.285
14176TIP3    H242472   5.361   0.498   2.312
14177TIP3   OH242473   3.643   0.101   5.760
14177TIP3    H142474   3.629   0.006   5.766
14177TIP3    H242475   3.695   0.112   5.680
14178TIP3   OH242476   3.925   7.561   6.278
14178TIP3    H142477   3.996   7.614   6.241
14178TIP3    H242478   3.883   7.521   6.202
14179TIP3   OH242479   5.766   4.463   0.901
14179TIP3    H142480   5.852   4.421   0.898
14179TIP3    H242481   5.778   4.535   0.963
14180TIP3   OH242482   6.121   0.583   2.009
14180TIP3    H142483   6.095   0.563   1.919
14180TIP3    H242484   6.197   0.527   2.025
14181TIP3   OH242485   2.892   7.208   4.643
14181TIP3    H142486   2.877   7.217   4.549
14181TIP3    H242487   2.864   7.118   4.664
14182TIP3   OH242488   3.118   3.029   4.828
14182TIP3    H142489   3.055   2.982   4.773
14182TIP3    H242490   3.197   3.036   4.774
14183TIP3   OH242491   5.184   6.664   5.613
14183TIP3    H142492   5.179   6.575   5.647
14183TIP3    H242493   5.170   6.720   5.689
14184TIP3   OH242494   4.834   1.867   6.343
14184TIP3    H142495   4.842   1.963   6.336
14184TIP3    H242496   4.856   1.836   6.255
14185TIP3   OH242497   5.765   7.752   0.012
14185TIP3    H142498   5.774   7.847  -0.001
14185TIP3    H242499   5.704   7.743   0.085
14186TIP3   OH242500   4.289   4.211   3.174
14186TIP3    H142501   4.340   4.253   3.104
14186TIP3    H242502   4.315   4.257   3.253
14187TIP3   OH242503   4.293   5.792   0.250
14187TIP3    H142504   4.244   5.860   0.203
14187TIP3    H242505   4.316   5.832   0.333
14188TIP3   OH242506   3.710   4.006   3.259
14188TIP3    H142507   3.674   4.046   3.338
14188TIP3    H242508   3.798   3.979   3.284
14189TIP3   OH242509   5.628   0.498   2.341
14189TIP3    H142510   5.663   0.430   2.283
14189TIP3    H242511   5.565   0.453   2.397
14190TIP3   OH242512   6.041   3.518   2.129
14190TIP3    H142513   6.057   3.543   2.220
14190TIP3    H242514   6.110   3.455   2.109
14191TIP3   OH242515   5.368   5.186   5.691
14191TIP3    H142516   5.412   5.215   5.771
14191TIP3    H242517   5.419   5.110   5.662
14192TIP3   OH242518   7.968   5.695   4.135
14192TIP3    H142519   7.906   5.768   4.134
14192TIP3    H242520   7.915   5.619   4.161
14193TIP3   OH242521   6.527   0.546   0.887
14193TIP3    H142522   6.503   0.638   0.890
14193TIP3    H242523   6.622   0.546   0.877
14194TIP3   OH242524   3.360   2.519   4.834
14194TIP3    H142525   3.438   2.464   4.844
14194TIP3    H242526   3.324   2.494   4.749
14195TIP3   OH242527   7.982   2.186   2.870
14195TIP3    H142528   8.007   2.102   2.906
14195TIP3    H242529   7.887   2.179   2.856
14196TIP3   OH242530   7.016   3.332   1.455
14196TIP3    H142531   7.067   3.254   1.434
14196TIP3    H242532   6.964   3.348   1.376
14197TIP3   OH242533   1.821   7.046   5.615
14197TIP3    H142534   1.797   7.115   5.552
14197TIP3    H242535   1.770   7.067   5.693
14198TIP3   OH242536   3.819   5.976   1.186
14198TIP3    H142537   3.908   5.944   1.201
14198TIP3    H242538   3.818   6.001   1.094
14199TIP3   OH242539   1.514   3.735   5.446
14199TIP3    H142540   1.508   3.829   5.459
14199TIP3    H242541   1.588   3.723   5.387
14200TIP3   OH242542   0.704   7.779   2.077
14200TIP3    H142543   0.725   7.873   2.074
14200TIP3    H242544   0.713   7.756   2.169
14201TIP3   OH242545   3.193   0.692   4.561
14201TIP3    H142546   3.247   0.765   4.593
14201TIP3    H242547   3.147   0.661   4.638
14202TIP3   OH242548   4.851   1.382   4.792
14202TIP3    H142549   4.821   1.472   4.777
14202TIP3    H242550   4.944   1.385   4.773
14203TIP3   OH242551   2.205   5.550   0.865
14203TIP3    H142552   2.283   5.504   0.898
14203TIP3    H242553   2.165   5.587   0.944
14204TIP3   OH242554   7.082   5.756   3.172
14204TIP3    H142555   7.174   5.760   3.196
14204TIP3    H242556   7.080   5.789   3.082
14205TIP3   OH242557   8.048   4.440   1.104
14205TIP3    H142558   7.964   4.481   1.084
14205TIP3    H242559   8.042   4.417   1.197
14206TIP3   OH242560   8.100   0.633   6.106
14206TIP3    H142561   8.173   0.694   6.116
14206TIP3    H242562   8.034   0.683   6.058
14207TIP3   OH242563   4.505   3.754   1.639
14207TIP3    H142564   4.508   3.683   1.575
14207TIP3    H242565   4.573   3.815   1.611
14208TIP3   OH242566   3.641   4.645   2.092
14208TIP3    H142567   3.717   4.669   2.144
14208TIP3    H242568   3.660   4.556   2.060
14209TIP3   OH242569   1.165   2.036   0.151
14209TIP3    H142570   1.197   1.946   0.144
14209TIP3    H242571   1.070   2.027   0.155
14210TIP3   OH242572   4.403   5.011   4.442
14210TIP3    H142573   4.347   5.031   4.516
14210TIP3    H242574   4.461   5.086   4.434
14211TIP3   OH242575   5.170   5.226   0.028
14211TIP3    H142576   5.155   5.302   0.085
14211TIP3    H242577   5.089   5.175   0.034
14212TIP3   OH242578   1.880   3.857   1.122
14212TIP3    H142579   1.820   3.875   1.194
14212TIP3    H242580   1.956   3.818   1.164
14213TIP3   OH242581   7.312   5.979   0.196
14213TIP3    H142582   7.238   5.927   0.163
14213TIP3    H242583   7.365   5.995   0.118
14214TIP3   OH242584   2.476   1.443   1.544
14214TIP3    H142585   2.447   1.532   1.523
14214TIP3    H242586   2.460   1.393   1.464
14215TIP3   OH242587   4.560   2.668   2.611
14215TIP3    H142588   4.638   2.719   2.588
14215TIP3    H242589   4.563   2.591   2.555
14216TIP3   OH242590   1.654   2.649   4.098
14216TIP3    H142591   1.668   2.695   4.181
14216TIP3    H242592   1.592   2.579   4.120
14217TIP3   OH242593   7.678   3.947   5.902
14217TIP3    H142594   7.644   3.985   5.820
14217TIP3    H242595   7.616   3.878   5.923
14218TIP3   OH242596   2.177   2.499   4.888
14218TIP3    H142597   2.128   2.450   4.822
14218TIP3    H242598   2.251   2.537   4.840
14219TIP3   OH242599   4.187   6.425   3.752
14219TIP3    H142600   4.269   6.472   3.766
14219TIP3    H242601   4.152   6.462   3.671
14220TIP3   OH242602   3.226   0.003   6.495
14220TIP3    H142603   3.170   0.076   6.523
14220TIP3    H242604   3.304   0.009   6.551
14221TIP3   OH242605   0.470   0.155   1.480
14221TIP3    H142606   0.432   0.198   1.404
14221TIP3    H242607   0.419   0.189   1.555
14222TIP3   OH242608   2.379   7.487   5.572
14222TIP3    H142609   2.392   7.548   5.500
14222TIP3    H242610   2.464   7.482   5.615
14223TIP3   OH242611   5.825   0.906   5.218
14223TIP3    H142612   5.823   0.880   5.310
14223TIP3    H242613   5.767   0.844   5.174
14224TIP3   OH242614   2.825   6.022   1.845
14224TIP3    H142615   2.769   6.088   1.884
14224TIP3    H242616   2.901   6.071   1.812
14225TIP3   OH242617   1.639   5.839   1.307
14225TIP3    H142618   1.654   5.745   1.298
14225TIP3    H242619   1.621   5.869   1.218
14226TIP3   OH242620   6.975   3.477   3.355
14226TIP3    H142621   7.070   3.487   3.354
14226TIP3    H242622   6.946   3.529   3.430
14227TIP3   OH242623   2.173   3.321   2.934
14227TIP3    H142624   2.254   3.270   2.925
14227TIP3    H242625   2.145   3.336   2.844
14228TIP3   OH242626   4.607   5.803   2.379
14228TIP3    H142627   4.679   5.844   2.426
14228TIP3    H242628   4.545   5.874   2.362
14229TIP3   OH242629   7.815   2.986   0.147
14229TIP3    H142630   7.818   3.053   0.079
14229TIP3    H242631   7.879   2.921   0.119
14230TIP3   OH242632   8.137   4.652   3.073
14230TIP3    H142633   8.111   4.738   3.106
14230TIP3    H242634   8.202   4.670   3.006
14231TIP3   OH242635   6.461   0.859   1.671
14231TIP3    H142636   6.466   0.917   1.596
14231TIP3    H242637   6.373   0.821   1.667
14232TIP3   OH242638   0.993   5.359   5.764
14232TIP3    H142639   0.949   5.444   5.760
14232TIP3    H242640   1.083   5.377   5.737
14233TIP3   OH242641   5.079   4.086   2.420
14233TIP3    H142642   5.122   4.010   2.380
14233TIP3    H242643   5.145   4.123   2.478
14234TIP3   OH242644   0.952   0.168   1.173
14234TIP3    H142645   0.974   0.249   1.128
14234TIP3    H242646   0.900   0.118   1.110
14235TIP3   OH242647   7.324   3.899   6.195
14235TIP3    H142648   7.348   3.974   6.249
14235TIP3    H242649   7.293   3.937   6.113
14236TIP3   OH242650   1.411   1.996   3.533
14236TIP3    H142651   1.390   1.908   3.501
14236TIP3    H242652   1.477   1.982   3.601
14237TIP3   OH242653   3.671   3.718   0.078
14237TIP3    H142654   3.688   3.788   0.015
14237TIP3    H242655   3.721   3.744   0.156
14238TIP3   OH242656   3.709   6.512   6.594
14238TIP3    H142657   3.778   6.481   6.535
14238TIP3    H242658   3.704   6.446   6.663
14239TIP3   OH242659   3.913   7.813   1.926
14239TIP3    H142660   3.823   7.843   1.913
14239TIP3    H242661   3.955   7.826   1.841
14240TIP3   OH242662   7.699   0.131   1.165
14240TIP3    H142663   7.735   0.091   1.244
14240TIP3    H242664   7.772   0.182   1.129
14241TIP3   OH242665   0.206   7.611   4.742
14241TIP3    H142666   0.209   7.702   4.715
14241TIP3    H242667   0.143   7.570   4.682
14242TIP3   OH242668   2.309   6.098   1.833
14242TIP3    H142669   2.281   6.007   1.843
14242TIP3    H242670   2.233   6.150   1.858
14243TIP3   OH242671   6.769   1.388   3.402
14243TIP3    H142672   6.769   1.411   3.309
14243TIP3    H242673   6.786   1.471   3.447
14244TIP3   OH242674   6.303   1.538   2.397
14244TIP3    H142675   6.398   1.550   2.397
14244TIP3    H242676   6.290   1.448   2.427
14245TIP3   OH242677   6.296   5.013   5.807
14245TIP3    H142678   6.307   4.946   5.875
14245TIP3    H242679   6.337   5.091   5.843
14246TIP3   OH242680   4.560   4.041   2.603
14246TIP3    H142681   4.606   4.030   2.520
14246TIP3    H242682   4.533   4.133   2.603
14247TIP3   OH242683   3.388   4.746   2.200
14247TIP3    H142684   3.476   4.722   2.170
14247TIP3    H242685   3.330   4.704   2.137
14248TIP3   OH242686   3.764   6.870   4.953
14248TIP3    H142687   3.848   6.847   4.993
14248TIP3    H242688   3.698   6.826   5.007
14249TIP3   OH242689   2.540   3.346   2.119
14249TIP3    H142690   2.610   3.408   2.098
14249TIP3    H242691   2.475   3.397   2.167
14250TIP3   OH242692   2.409   2.099   4.071
14250TIP3    H142693   2.362   2.134   4.146
14250TIP3    H242694   2.454   2.021   4.105
14251TIP3   OH242695   1.459   3.341   3.299
14251TIP3    H142696   1.454   3.318   3.206
14251TIP3    H242697   1.409   3.272   3.344
14252TIP3   OH242698   6.494   0.056   5.905
14252TIP3    H142699   6.491   0.126   5.840
14252TIP3    H242700   6.518   0.100   5.987
14253TIP3   OH242701   3.755   2.524   6.331
14253TIP3    H142702   3.740   2.432   6.308
14253TIP3    H242703   3.722   2.573   6.256
14254TIP3   OH242704   6.009   3.443   4.609
14254TIP3    H142705   6.062   3.421   4.532
14254TIP3    H242706   6.040   3.383   4.677
14255TIP3   OH242707   3.069   3.811   2.724
14255TIP3    H142708   3.112   3.880   2.675
14255TIP3    H242709   2.976   3.829   2.715
14256TIP3   OH242710   7.463   0.760   2.815
14256TIP3    H142711   7.424   0.831   2.764
14256TIP3    H242712   7.399   0.740   2.883
14257TIP3   OH242713   3.075   5.428   2.923
14257TIP3    H142714   3.081   5.334   2.906
14257TIP3    H242715   2.991   5.440   2.966
14258TIP3   OH242716   0.249   1.913   0.087
14258TIP3    H142717   0.205   1.985   0.132
14258TIP3    H242718   0.342   1.930   0.101
14259TIP3   OH242719   5.199   7.560   4.894
14259TIP3    H142720   5.230   7.562   4.804
14259TIP3    H242721   5.205   7.651   4.924
14260TIP3   OH242722   5.984   6.715   5.853
14260TIP3    H142723   5.986   6.803   5.891
14260TIP3    H242724   5.909   6.672   5.894
14261TIP3   OH242725   4.419   6.162   1.648
14261TIP3    H142726   4.463   6.211   1.717
14261TIP3    H242727   4.415   6.073   1.682
14262TIP3   OH242728   5.960   2.053   2.094
14262TIP3    H142729   5.978   2.013   2.009
14262TIP3    H242730   5.994   2.142   2.086
14263TIP3   OH242731   6.295   2.875   1.083
14263TIP3    H142732   6.202   2.877   1.057
14263TIP3    H242733   6.317   2.782   1.083
14264TIP3   OH242734   7.819   6.010   1.813
14264TIP3    H142735   7.807   6.100   1.843
14264TIP3    H242736   7.884   6.016   1.743
14265TIP3   OH242737   2.011   1.693   6.431
14265TIP3    H142738   2.069   1.619   6.446
14265TIP3    H242739   2.029   1.752   6.504
14266TIP3   OH242740   7.769   7.103   3.558
14266TIP3    H142741   7.840   7.142   3.609
14266TIP3    H242742   7.786   7.131   3.468
14267TIP3   OH242743   1.374   2.288   6.292
14267TIP3    H142744   1.360   2.287   6.198
14267TIP3    H242745   1.455   2.338   6.304
14268TIP3   OH242746   7.728   2.088   5.850
14268TIP3    H142747   7.777   2.153   5.901
14268TIP3    H242748   7.788   2.063   5.780
14269TIP3   OH242749   4.890   0.917   0.734
14269TIP3    H142750   4.824   0.957   0.791
14269TIP3    H242751   4.921   0.988   0.679
14270TIP3   OH242752   1.650   4.849   2.141
14270TIP3    H142753   1.707   4.790   2.189
14270TIP3    H242754   1.708   4.921   2.114
14271TIP3   OH242755   5.782   0.863   6.162
14271TIP3    H142756   5.775   0.771   6.137
14271TIP3    H242757   5.692   0.895   6.163
14272TIP3   OH242758   6.173   2.700   3.017
14272TIP3    H142759   6.238   2.744   2.963
14272TIP3    H242760   6.159   2.759   3.091
14273TIP3   OH242761   1.858   4.455   5.950
14273TIP3    H142762   1.876   4.461   6.044
14273TIP3    H242763   1.877   4.542   5.916
14274TIP3   OH242764   5.607   5.073   2.864
14274TIP3    H142765   5.674   5.132   2.830
14274TIP3    H242766   5.578   5.023   2.788
14275TIP3   OH242767   6.741   4.531   2.554
14275TIP3    H142768   6.763   4.469   2.624
14275TIP3    H242769   6.665   4.579   2.587
14276TIP3   OH242770   0.682   4.647   6.704
14276TIP3    H142771   0.670   4.710   6.632
14276TIP3    H242772   0.594   4.633   6.738
14277TIP3   OH242773   8.130   0.192   4.591
14277TIP3    H142774   8.124   0.139   4.511
14277TIP3    H242775   8.199   0.150   4.642
14278TIP3   OH242776   6.697   4.839   4.372
14278TIP3    H142777   6.609   4.846   4.334
14278TIP3    H242778   6.733   4.759   4.335
14279TIP3   OH242779   5.195   2.716   0.157
14279TIP3    H142780   5.125   2.753   0.103
14279TIP3    H242781   5.171   2.740   0.247
14280TIP3   OH242782   8.042   6.033   3.333
14280TIP3    H142783   7.958   6.044   3.378
14280TIP3    H242784   8.049   5.939   3.317
14281TIP3   OH242785   6.081   4.069   3.587
14281TIP3    H142786   6.001   4.017   3.579
14281TIP3    H242787   6.058   4.154   3.550
14282TIP3   OH242788   3.245   1.672   1.688
14282TIP3    H142789   3.267   1.734   1.619
14282TIP3    H242790   3.207   1.597   1.643
14283TIP3   OH242791   7.340   0.668   0.963
14283TIP3    H142792   7.325   0.573   0.955
14283TIP3    H242793   7.434   0.675   0.980
14284TIP3   OH242794   5.948   5.515   3.974
14284TIP3    H142795   5.929   5.431   3.933
14284TIP3    H242796   6.021   5.551   3.922
14285TIP3   OH242797   0.943   7.717   5.481
14285TIP3    H142798   0.947   7.805   5.442
14285TIP3    H242799   1.016   7.715   5.543
14286TIP3   OH242800   1.480   2.015   4.404
14286TIP3    H142801   1.389   2.044   4.415
14286TIP3    H242802   1.497   1.961   4.481
14287TIP3   OH242803   5.967   1.420   6.738
14287TIP3    H142804   5.885   1.432   6.786
14287TIP3    H242805   5.991   1.328   6.755
14288TIP3   OH242806   8.030   7.743   0.731
14288TIP3    H142807   8.050   7.730   0.824
14288TIP3    H242808   7.958   7.682   0.713
14289TIP3   OH242809   0.748   6.881   4.875
14289TIP3    H142810   0.767   6.894   4.782
14289TIP3    H242811   0.663   6.923   4.888
14290TIP3   OH242812   3.559   3.524   3.306
14290TIP3    H142813   3.552   3.455   3.240
14290TIP3    H242814   3.469   3.553   3.319
14291TIP3   OH242815   0.745   3.033   6.393
14291TIP3    H142816   0.710   3.004   6.309
14291TIP3    H242817   0.745   2.954   6.447
14292TIP3   OH242818   4.860   3.175   1.689
14292TIP3    H142819   4.772   3.194   1.722
14292TIP3    H242820   4.895   3.112   1.751
14293TIP3   OH242821   6.893   5.286   4.919
14293TIP3    H142822   6.951   5.361   4.909
14293TIP3    H242823   6.943   5.212   4.883
14294TIP3   OH242824   1.231   2.989   1.914
14294TIP3    H142825   1.278   2.918   1.957
14294TIP3    H242826   1.139   2.974   1.936
14295TIP3   OH242827   8.217   5.747   6.374
14295TIP3    H142828   8.209   5.654   6.350
14295TIP3    H242829   8.128   5.775   6.393
14296TIP3   OH242830   0.054   5.743   0.435
14296TIP3    H142831   0.026   5.733   0.526
14296TIP3    H242832  -0.023   5.718   0.383
14297TIP3   OH242833   6.231   4.547   1.038
14297TIP3    H142834   6.313   4.590   1.062
14297TIP3    H242835   6.248   4.509   0.953
14298TIP3   OH242836   3.223   5.336   4.697
14298TIP3    H142837   3.307   5.311   4.736
14298TIP3    H242838   3.176   5.253   4.689
14299TIP3   OH242839   6.787   0.997   4.401
14299TIP3    H142840   6.700   1.035   4.407
14299TIP3    H242841   6.788   0.955   4.315
14300TIP3   OH242842   1.627   7.794   1.768
14300TIP3    H142843   1.711   7.769   1.807
14300TIP3    H242844   1.563   7.778   1.837
14301TIP3   OH242845   6.703   2.209   0.243
14301TIP3    H142846   6.621   2.228   0.289
14301TIP3    H242847   6.695   2.118   0.216
14302TIP3   OH242848   7.149   2.740   5.668
14302TIP3    H142849   7.059   2.713   5.686
14302TIP3    H242850   7.142   2.829   5.636
14303TIP3   OH242851   0.780   1.220   2.988
14303TIP3    H142852   0.865   1.225   2.945
14303TIP3    H242853   0.716   1.223   2.917
14304TIP3   OH242854   7.961   7.003   1.579
14304TIP3    H142855   7.992   7.017   1.490
14304TIP3    H242856   8.040   6.981   1.629
14305TIP3   OH242857   2.185   3.895   5.754
14305TIP3    H142858   2.119   3.957   5.784
14305TIP3    H242859   2.198   3.917   5.662
14306TIP3   OH242860   0.837   5.629   5.746
14306TIP3    H142861   0.886   5.682   5.683
14306TIP3    H242862   0.746   5.657   5.735
14307TIP3   OH242863   3.307   2.823   1.420
14307TIP3    H142864   3.337   2.836   1.330
14307TIP3    H242865   3.268   2.907   1.444
14308TIP3   OH242866   2.130   4.065   6.423
14308TIP3    H142867   2.052   4.111   6.453
14308TIP3    H242868   2.135   3.987   6.478
14309TIP3   OH242869   3.268   2.807   4.611
14309TIP3    H142870   3.222   2.881   4.571
14309TIP3    H242871   3.332   2.848   4.669
14310TIP3   OH242872   5.247   4.270   1.027
14310TIP3    H142873   5.279   4.266   1.117
14310TIP3    H242874   5.213   4.182   1.009
14311TIP3   OH242875   7.670   7.591   5.799
14311TIP3    H142876   7.710   7.544   5.726
14311TIP3    H242877   7.579   7.561   5.801
14312TIP3   OH242878   0.072   6.655   5.294
14312TIP3    H142879   0.107   6.595   5.229
14312TIP3    H242880  -0.017   6.624   5.310
14313TIP3   OH242881   1.655   2.641   5.143
14313TIP3    H142882   1.681   2.733   5.139
14313TIP3    H242883   1.649   2.621   5.236
14314TIP3   OH242884   0.139   1.127   4.952
14314TIP3    H142885   0.197   1.052   4.961
14314TIP3    H242886   0.056   1.099   4.991
14315TIP3   OH242887   6.361   7.580   4.828
14315TIP3    H142888   6.282   7.570   4.775
14315TIP3    H242889   6.342   7.652   4.888
14316TIP3   OH242890   0.085   4.372   4.578
14316TIP3    H142891   0.179   4.387   4.568
14316TIP3    H242892   0.078   4.281   4.607
14317TIP3   OH242893   3.491   6.171   6.090
14317TIP3    H142894   3.536   6.142   6.169
14317TIP3    H242895   3.538   6.250   6.063
14318TIP3   OH242896   6.586   6.288   3.868
14318TIP3    H142897   6.646   6.214   3.877
14318TIP3    H242898   6.643   6.365   3.862
14319TIP3   OH242899   5.778   5.497   1.334
14319TIP3    H142900   5.852   5.536   1.380
14319TIP3    H242901   5.705   5.558   1.349
14320TIP3   OH242902   7.726   7.150   1.473
14320TIP3    H142903   7.685   7.086   1.415
14320TIP3    H242904   7.800   7.104   1.512
14321TIP3   OH242905   6.805   4.617   3.249
14321TIP3    H142906   6.855   4.666   3.314
14321TIP3    H242907   6.795   4.530   3.287
14322TIP3   OH242908   7.365   2.435   4.952
14322TIP3    H142909   7.328   2.496   5.016
14322TIP3    H242910   7.298   2.367   4.944
14323TIP3   OH242911   6.654   0.624   5.855
14323TIP3    H142912   6.582   0.561   5.864
14323TIP3    H242913   6.630   0.677   5.780
14324TIP3   OH242914   7.169   1.666   2.832
14324TIP3    H142915   7.235   1.607   2.798
14324TIP3    H242916   7.124   1.616   2.901
14325TIP3   OH242917   7.100   3.466   3.617
14325TIP3    H142918   7.187   3.504   3.627
14325TIP3    H242919   7.042   3.525   3.665
14326TIP3   OH242920   4.715   3.443   0.071
14326TIP3    H142921   4.725   3.519   0.128
14326TIP3    H242922   4.782   3.382   0.100
14327TIP3   OH242923   2.168   4.243   1.340
14327TIP3    H142924   2.080   4.244   1.376
14327TIP3    H242925   2.221   4.198   1.406
14328TIP3   OH242926   2.491   5.636   3.310
14328TIP3    H142927   2.531   5.717   3.342
14328TIP3    H242928   2.426   5.613   3.377
14329TIP3   OH242929   2.240   2.155   5.043
14329TIP3    H142930   2.200   2.134   4.958
14329TIP3    H242931   2.264   2.247   5.036
14330TIP3   OH242932   1.441   7.733   1.955
14330TIP3    H142933   1.353   7.735   1.916
14330TIP3    H242934   1.440   7.655   2.011
14331TIP3   OH242935   7.050   0.335   4.470
14331TIP3    H142936   7.131   0.284   4.467
14331TIP3    H242937   7.001   0.299   4.544
14332TIP3   OH242938   5.841   7.528   2.167
14332TIP3    H142939   5.826   7.453   2.109
14332TIP3    H242940   5.876   7.596   2.108
14333TIP3   OH242941   1.561   2.018   2.397
14333TIP3    H142942   1.528   1.957   2.463
14333TIP3    H242943   1.522   1.988   2.315
14334TIP3   OH242944   5.067   6.880   5.176
14334TIP3    H142945   5.132   6.951   5.171
14334TIP3    H242946   5.010   6.906   5.248
14335TIP3   OH242947   0.426   0.490   3.108
14335TIP3    H142948   0.450   0.579   3.081
14335TIP3    H242949   0.332   0.484   3.090
14336TIP3   OH242950   3.048   2.802   2.537
14336TIP3    H142951   3.042   2.898   2.544
14336TIP3    H242952   2.964   2.776   2.498
14337TIP3   OH242953   6.975   5.372   4.583
14337TIP3    H142954   7.014   5.364   4.671
14337TIP3    H242955   6.934   5.287   4.567
14338TIP3   OH242956   3.019   3.580   3.530
14338TIP3    H142957   2.949   3.520   3.557
14338TIP3    H242958   3.089   3.565   3.594
14339TIP3   OH242959   3.945   0.936   3.093
14339TIP3    H142960   3.874   0.979   3.045
14339TIP3    H242961   3.913   0.929   3.182
14340TIP3   OH242962   2.684   7.071   5.835
14340TIP3    H142963   2.639   7.096   5.755
14340TIP3    H242964   2.741   7.145   5.855
14341TIP3   OH242965   1.221   5.345   3.341
14341TIP3    H142966   1.144   5.357   3.398
14341TIP3    H242967   1.278   5.287   3.391
14342TIP3   OH242968   4.368   6.296   6.830
14342TIP3    H142969   4.456   6.321   6.802
14342TIP3    H242970   4.321   6.275   6.749
14343TIP3   OH242971   7.254   7.687   0.604
14343TIP3    H142972   7.296   7.649   0.682
14343TIP3    H242973   7.160   7.680   0.621
14344TIP3   OH242974   7.623   4.767   4.452
14344TIP3    H142975   7.528   4.771   4.451
14344TIP3    H242976   7.649   4.764   4.360
14345TIP3   OH242977   4.031   5.879   1.323
14345TIP3    H142978   4.126   5.875   1.315
14345TIP3    H242979   4.003   5.788   1.329
14346TIP3   OH242980   1.386   2.586   3.631
14346TIP3    H142981   1.366   2.545   3.547
14346TIP3    H242982   1.302   2.595   3.675
14347TIP3   OH242983   8.194   0.611   5.231
14347TIP3    H142984   8.169   0.702   5.249
14347TIP3    H242985   8.208   0.572   5.317
14348TIP3   OH242986   0.288   1.906   2.475
14348TIP3    H142987   0.369   1.935   2.433
14348TIP3    H242988   0.220   1.958   2.433
14349TIP3   OH242989   5.425   1.920   0.957
14349TIP3    H142990   5.428   1.882   0.869
14349TIP3    H242991   5.361   1.991   0.950
14350TIP3   OH242992   3.637   5.029   2.638
14350TIP3    H142993   3.551   4.987   2.641
14350TIP3    H242994   3.646   5.069   2.725
14351TIP3   OH242995   6.172   2.531   2.330
14351TIP3    H142996   6.154   2.625   2.335
14351TIP3    H242997   6.143   2.506   2.242
14352TIP3   OH242998   3.773   5.862   4.604
14352TIP3    H142999   3.689   5.845   4.646
14352TIP3    H243000   3.820   5.779   4.608
14353TIP3   OH243001   6.691   3.418   5.399
14353TIP3    H143002   6.767   3.459   5.359
14353TIP3    H243003   6.665   3.478   5.469
14354TIP3   OH243004   7.386   5.479   6.237
14354TIP3    H143005   7.426   5.392   6.239
14354TIP3    H243006   7.383   5.502   6.144
14355TIP3   OH243007   3.833   2.757   0.733
14355TIP3    H143008   3.924   2.742   0.757
14355TIP3    H243009   3.798   2.670   0.713
14356TIP3   OH243010   8.265   7.585   0.849
14356TIP3    H143011   8.263   7.519   0.918
14356TIP3    H243012   8.253   7.668   0.895
14357TIP3   OH243013   1.470   5.737   2.171
14357TIP3    H143014   1.519   5.659   2.145
14357TIP3    H243015   1.537   5.804   2.185
14358TIP3   OH243016   2.736   0.190   3.208
14358TIP3    H143017   2.743   0.283   3.231
14358TIP3    H243018   2.823   0.167   3.175
14359TIP3   OH243019   0.016   5.956   3.736
14359TIP3    H143020  -0.055   6.010   3.702
14359TIP3    H243021   0.063   5.926   3.658
14360TIP3   OH243022   5.003   0.353   5.539
14360TIP3    H143023   5.079   0.335   5.483
14360TIP3    H243024   4.969   0.436   5.506
14361TIP3   OH243025   6.001   5.305   5.640
14361TIP3    H143026   6.048   5.262   5.711
14361TIP3    H243027   5.925   5.249   5.624
14362TIP3   OH243028   0.501   3.268   3.683
14362TIP3    H143029   0.421   3.221   3.662
14362TIP3    H243030   0.471   3.355   3.712
14363TIP3   OH243031   1.155   6.623   5.042
14363TIP3    H143032   1.071   6.641   5.084
14363TIP3    H243033   1.182   6.707   5.006
14364TIP3   OH243034   4.916   5.554   0.309
14364TIP3    H143035   4.877   5.574   0.394
14364TIP3    H243036   4.845   5.570   0.246
14365TIP3   OH243037   6.814   0.106   4.298
14365TIP3    H143038   6.744   0.164   4.326
14365TIP3    H243039   6.849   0.069   4.379
14366TIP3   OH243040   0.264   0.554   2.459
14366TIP3    H143041   0.195   0.594   2.406
14366TIP3    H243042   0.346   0.587   2.423
14367TIP3   OH243043   7.246   1.253   2.115
14367TIP3    H143044   7.186   1.326   2.127
14367TIP3    H243045   7.307   1.259   2.188
14368TIP3   OH243046   7.200   5.605   2.149
14368TIP3    H143047   7.204   5.558   2.233
14368TIP3    H243048   7.117   5.576   2.110
14369TIP3   OH243049   0.949   6.678   5.691
14369TIP3    H143050   1.005   6.755   5.686
14369TIP3    H243051   0.946   6.656   5.784
14370TIP3   OH243052   5.304   0.572   1.647
14370TIP3    H143053   5.281   0.619   1.567
14370TIP3    H243054   5.391   0.606   1.670
14371TIP3   OH243055   4.919   3.892   2.628
14371TIP3    H143056   4.906   3.983   2.657
14371TIP3    H243057   4.873   3.839   2.693
14372TIP3   OH243058   7.045   1.107   5.612
14372TIP3    H143059   7.024   1.014   5.598
14372TIP3    H243060   7.128   1.106   5.659
14373TIP3   OH243061   2.262   5.684   6.478
14373TIP3    H143062   2.240   5.674   6.386
14373TIP3    H243063   2.238   5.601   6.518
14374TIP3   OH243064   4.685   4.180   6.602
14374TIP3    H143065   4.634   4.222   6.533
14374TIP3    H243066   4.620   4.144   6.662
14375TIP3   OH243067   5.128   2.398   0.577
14375TIP3    H143068   5.189   2.393   0.504
14375TIP3    H243069   5.172   2.352   0.648
14376TIP3   OH243070   6.255   2.899   5.158
14376TIP3    H143071   6.346   2.888   5.186
14376TIP3    H243072   6.213   2.944   5.231
14377TIP3   OH243073   6.075   5.506   1.139
14377TIP3    H143074   6.048   5.476   1.053
14377TIP3    H243075   6.044   5.439   1.200
14378TIP3   OH243076   2.079   1.779   1.635
14378TIP3    H143077   1.989   1.752   1.616
14378TIP3    H243078   2.101   1.841   1.566
14379TIP3   OH243079   5.415   3.660   1.158
14379TIP3    H143080   5.372   3.588   1.112
14379TIP3    H243081   5.411   3.734   1.097
14380TIP3   OH243082   6.168   7.492   2.786
14380TIP3    H143083   6.089   7.519   2.835
14380TIP3    H243084   6.188   7.405   2.818
14381TIP3   OH243085   1.036   0.856   1.185
14381TIP3    H143086   1.040   0.900   1.270
14381TIP3    H243087   1.110   0.795   1.186
14382TIP3   OH243088   3.266   4.594   6.683
14382TIP3    H143089   3.270   4.688   6.665
14382TIP3    H243090   3.183   4.581   6.727
14383TIP3   OH243091   2.409   1.803   4.350
14383TIP3    H143092   2.359   1.860   4.408
14383TIP3    H243093   2.455   1.863   4.292
14384TIP3   OH243094   5.296   2.431   0.334
14384TIP3    H143095   5.362   2.392   0.276
14384TIP3    H243096   5.221   2.448   0.277
14385TIP3   OH243097   1.526   4.422   0.256
14385TIP3    H143098   1.520   4.473   0.337
14385TIP3    H243099   1.462   4.352   0.267
14386TIP3   OH243100   1.497   1.270   5.862
14386TIP3    H143101   1.422   1.279   5.921
14386TIP3    H243102   1.470   1.204   5.799
14387TIP3   OH243103   3.322   1.725   5.975
14387TIP3    H143104   3.308   1.635   5.944
14387TIP3    H243105   3.328   1.777   5.894
14388TIP3   OH243106   6.802   0.010   3.575
14388TIP3    H143107   6.886   0.035   3.536
14388TIP3    H243108   6.740   0.076   3.542
14389TIP3   OH243109   0.352   5.319   4.586
14389TIP3    H143110   0.293   5.306   4.660
14389TIP3    H243111   0.427   5.365   4.624
14390TIP3   OH243112   0.170   0.006   6.104
14390TIP3    H143113   0.265  -0.005   6.102
14390TIP3    H243114   0.148   0.031   6.014
14391TIP3   OH243115   4.453   5.176   4.801
14391TIP3    H143116   4.429   5.156   4.891
14391TIP3    H243117   4.463   5.091   4.759
14392TIP3   OH243118   6.971   1.934   5.435
14392TIP3    H143119   6.948   1.928   5.528
14392TIP3    H243120   6.921   1.864   5.394
14393TIP3   OH243121   6.789   2.799   4.325
14393TIP3    H143122   6.792   2.710   4.360
14393TIP3    H243123   6.703   2.831   4.351
14394TIP3   OH243124   2.932   0.395   6.348
14394TIP3    H143125   2.893   0.482   6.341
14394TIP3    H243126   2.860   0.335   6.329
14395TIP3   OH243127   5.499   4.994   1.681
14395TIP3    H143128   5.571   4.931   1.683
14395TIP3    H243129   5.475   5.006   1.772
14396TIP3   OH243130   2.052   3.509   1.637
14396TIP3    H143131   2.026   3.429   1.591
14396TIP3    H243132   2.112   3.479   1.705
14397TIP3   OH243133   7.417   0.656   5.371
14397TIP3    H143134   7.453   0.571   5.395
14397TIP3    H243135   7.323   0.647   5.383
14398TIP3   OH243136   6.757   0.494   6.321
14398TIP3    H143137   6.679   0.495   6.266
14398TIP3    H243138   6.727   0.525   6.406
14399TIP3   OH243139   2.609   7.825   0.476
14399TIP3    H143140   2.520   7.833   0.444
14399TIP3    H243141   2.604   7.765   0.550
14400TIP3   OH243142   7.622   7.793   0.542
14400TIP3    H143143   7.695   7.808   0.483
14400TIP3    H243144   7.580   7.714   0.508
14401TIP3   OH243145   4.521   1.725   0.136
14401TIP3    H143146   4.528   1.641   0.092
14401TIP3    H243147   4.552   1.789   0.072
14402TIP3   OH243148   2.143   4.423   5.117
14402TIP3    H143149   2.062   4.408   5.166
14402TIP3    H243150   2.196   4.476   5.176
14403TIP3   OH243151   5.499   6.167   0.919
14403TIP3    H143152   5.479   6.106   0.990
14403TIP3    H243153   5.476   6.253   0.955
14404TIP3   OH243154   6.262   2.436   5.852
14404TIP3    H143155   6.273   2.452   5.758
14404TIP3    H243156   6.261   2.340   5.860
14405TIP3   OH243157   8.033   1.651   6.605
14405TIP3    H143158   7.944   1.632   6.576
14405TIP3    H243159   8.039   1.747   6.603
14406TIP3   OH243160   6.268   7.342   5.082
14406TIP3    H143161   6.347   7.288   5.086
14406TIP3    H243162   6.297   7.428   5.113
14407TIP3   OH243163   1.312   3.780   6.059
14407TIP3    H143164   1.278   3.757   5.972
14407TIP3    H243165   1.399   3.741   6.063
14408TIP3   OH243166   5.166   1.954   6.718
14408TIP3    H143167   5.207   1.910   6.792
14408TIP3    H243168   5.087   1.994   6.756
14409TIP3   OH243169   6.425   0.586   4.105
14409TIP3    H143170   6.470   0.510   4.067
14409TIP3    H243171   6.483   0.615   4.175
14410TIP3   OH243172   7.776   6.396   4.838
14410TIP3    H143173   7.844   6.386   4.905
14410TIP3    H243174   7.727   6.473   4.865
14411TIP3   OH243175   5.023   6.177   3.851
14411TIP3    H143176   4.966   6.119   3.801
14411TIP3    H243177   4.963   6.229   3.905
14412TIP3   OH243178   0.992   5.151   6.132
14412TIP3    H143179   0.962   5.170   6.043
14412TIP3    H243180   0.927   5.091   6.168
14413TIP3   OH243181   5.596   1.118   1.583
14413TIP3    H143182   5.653   1.047   1.553
14413TIP3    H243183   5.616   1.127   1.676
14414TIP3   OH243184   8.079   7.647   6.201
14414TIP3    H143185   8.053   7.721   6.145
14414TIP3    H243186   8.007   7.585   6.193
14415TIP3   OH243187   2.182   2.715   5.765
14415TIP3    H143188   2.274   2.725   5.790
14415TIP3    H243189   2.134   2.767   5.830
14416TIP3   OH243190   7.794   7.014   5.677
14416TIP3    H143191   7.761   6.929   5.705
14416TIP3    H243192   7.864   7.034   5.739
14417TIP3   OH243193   4.170   0.062   6.651
14417TIP3    H143194   4.237   0.122   6.684
14417TIP3    H243195   4.142   0.012   6.728
14418TIP3   OH243196   4.329   4.158   2.397
14418TIP3    H143197   4.347   4.080   2.345
14418TIP3    H243198   4.269   4.209   2.343
14419TIP3   OH243199   2.260   5.190   4.467
14419TIP3    H143200   2.287   5.166   4.556
14419TIP3    H243201   2.206   5.116   4.438
14420TIP3   OH243202   1.847   2.297   4.002
14420TIP3    H143203   1.788   2.320   4.074
14420TIP3    H243204   1.852   2.376   3.949
14421TIP3   OH243205   3.323   3.700   1.027
14421TIP3    H143206   3.353   3.643   0.955
14421TIP3    H243207   3.266   3.644   1.079
14422TIP3   OH243208   6.058   7.311   2.012
14422TIP3    H143209   6.020   7.392   1.975
14422TIP3    H243210   6.116   7.342   2.081
14423TIP3   OH243211   1.492   2.249   1.185
14423TIP3    H143212   1.431   2.266   1.257
14423TIP3    H243213   1.520   2.159   1.198
14424TIP3   OH243214   0.120   5.915   5.664
14424TIP3    H143215   0.079   5.832   5.689
14424TIP3    H243216   0.064   5.982   5.702
14425TIP3   OH243217   5.865   4.142   3.145
14425TIP3    H143218   5.812   4.078   3.193
14425TIP3    H243219   5.817   4.224   3.153
14426TIP3   OH243220   4.522   0.831   0.776
14426TIP3    H143221   4.499   0.881   0.698
14426TIP3    H243222   4.588   0.885   0.820
14427TIP3   OH243223   2.185   7.230   1.566
14427TIP3    H143224   2.189   7.184   1.650
14427TIP3    H243225   2.156   7.318   1.588
14428TIP3   OH243226   1.891   1.167   3.495
14428TIP3    H143227   1.952   1.126   3.434
14428TIP3    H243228   1.882   1.104   3.566
14429TIP3   OH243229   0.842   7.559   0.569
14429TIP3    H143230   0.795   7.634   0.533
14429TIP3    H243231   0.802   7.544   0.655
14430TIP3   OH243232   2.826   0.639   2.762
14430TIP3    H143233   2.744   0.611   2.802
14430TIP3    H243234   2.803   0.716   2.710
14431TIP3   OH243235   7.170   0.581   6.435
14431TIP3    H143236   7.177   0.494   6.396
14431TIP3    H243237   7.258   0.600   6.468
14432TIP3   OH243238   4.481   6.872   5.939
14432TIP3    H143239   4.482   6.933   5.866
14432TIP3    H243240   4.395   6.830   5.934
14433TIP3   OH243241   3.158   5.741   5.695
14433TIP3    H143242   3.117   5.825   5.717
14433TIP3    H243243   3.214   5.721   5.770
14434TIP3   OH243244   1.298   5.328   3.066
14434TIP3    H143245   1.234   5.280   3.014
14434TIP3    H243246   1.250   5.352   3.146
14435TIP3   OH243247   6.818   3.438   6.438
14435TIP3    H143248   6.778   3.460   6.521
14435TIP3    H243249   6.779   3.499   6.375
14436TIP3   OH243250   7.566   3.499   5.040
14436TIP3    H143251   7.503   3.554   5.086
14436TIP3    H243252   7.595   3.436   5.106
14437TIP3   OH243253   2.681   4.038   0.681
14437TIP3    H143254   2.720   4.119   0.716
14437TIP3    H243255   2.618   4.068   0.616
14438TIP3   OH243256   1.401   1.232   4.379
14438TIP3    H143257   1.310   1.203   4.373
14438TIP3    H243258   1.435   1.223   4.290
14439TIP3   OH243259   7.057   5.914   0.744
14439TIP3    H143260   7.029   5.927   0.835
14439TIP3    H243261   7.054   5.819   0.731
14440TIP3   OH243262   7.208   4.106   5.042
14440TIP3    H143263   7.144   4.054   5.091
14440TIP3    H243264   7.164   4.190   5.027
14441TIP3   OH243265   5.255   6.137   6.465
14441TIP3    H143266   5.221   6.216   6.507
14441TIP3    H243267   5.342   6.125   6.504
14442TIP3   OH243268   7.317   0.747   5.654
14442TIP3    H143269   7.316   0.764   5.748
14442TIP3    H243270   7.393   0.796   5.622
14443TIP3   OH243271   3.483   2.839   3.804
14443TIP3    H143272   3.478   2.871   3.894
14443TIP3    H243273   3.468   2.745   3.811
14444TIP3   OH243274   4.825   5.779   5.014
14444TIP3    H143275   4.895   5.791   5.078
14444TIP3    H243276   4.768   5.712   5.052
14445TIP3   OH243277   5.081   4.447   5.864
14445TIP3    H143278   4.995   4.488   5.859
14445TIP3    H243279   5.063   4.353   5.862
14446TIP3   OH243280   4.077   5.612   6.283
14446TIP3    H143281   4.021   5.563   6.344
14446TIP3    H243282   4.146   5.550   6.259
14447TIP3   OH243283   4.839   5.275   4.170
14447TIP3    H143284   4.780   5.256   4.243
14447TIP3    H243285   4.875   5.189   4.146
14448TIP3   OH243286   6.252   4.708   5.729
14448TIP3    H143287   6.209   4.749   5.805
14448TIP3    H243288   6.256   4.778   5.664
14449TIP3   OH243289   7.510   2.279   3.046
14449TIP3    H143290   7.472   2.348   2.992
14449TIP3    H243291   7.438   2.217   3.059
14450TIP3   OH243292   6.590   0.190   3.830
14450TIP3    H143293   6.518   0.202   3.892
14450TIP3    H243294   6.646   0.123   3.870
14451TIP3   OH243295   7.630   4.047   3.883
14451TIP3    H143296   7.565   4.008   3.941
14451TIP3    H243297   7.683   3.973   3.852
14452TIP3   OH243298   2.888   1.180   2.877
14452TIP3    H143299   2.976   1.190   2.912
14452TIP3    H243300   2.842   1.260   2.902
14453TIP3   OH243301   1.277   2.390   2.798
14453TIP3    H143302   1.261   2.337   2.719
14453TIP3    H243303   1.228   2.471   2.783
14454TIP3   OH243304   5.081   0.544   4.125
14454TIP3    H143305   5.137   0.617   4.099
14454TIP3    H243306   5.063   0.559   4.218
14455TIP3   OH243307   5.139   3.180   1.085
14455TIP3    H143308   5.051   3.212   1.066
14455TIP3    H243309   5.126   3.088   1.110
14456TIP3   OH243310   3.248   6.457   5.450
14456TIP3    H143311   3.179   6.521   5.432
14456TIP3    H243312   3.202   6.383   5.489
14457TIP3   OH243313   7.912   3.600   4.402
14457TIP3    H143314   7.937   3.580   4.312
14457TIP3    H243315   7.979   3.559   4.456
14458TIP3   OH243316   6.266   1.326   6.161
14458TIP3    H143317   6.346   1.344   6.210
14458TIP3    H243318   6.204   1.294   6.226
14459TIP3   OH243319   4.469   0.517   1.330
14459TIP3    H143320   4.445   0.425   1.334
14459TIP3    H243321   4.480   0.535   1.237
14460TIP3   OH243322   2.288   4.060   4.372
14460TIP3    H143323   2.354   3.996   4.345
14460TIP3    H243324   2.278   4.047   4.466
14461TIP3   OH243325   5.326   0.066   2.175
14461TIP3    H143326   5.343   0.067   2.269
14461TIP3    H243327   5.234   0.040   2.167
14462TIP3   OH243328   6.250   7.285   3.594
14462TIP3    H143329   6.322   7.271   3.533
14462TIP3    H243330   6.178   7.231   3.560
14463TIP3   OH243331   5.511   3.508   0.936
14463TIP3    H143332   5.530   3.477   0.848
14463TIP3    H243333   5.421   3.480   0.953
14464TIP3   OH243334   4.334   4.827   2.728
14464TIP3    H143335   4.251   4.807   2.771
14464TIP3    H243336   4.391   4.859   2.799
14465TIP3   OH243337   4.574   1.577   3.357
14465TIP3    H143338   4.563   1.652   3.298
14465TIP3    H243339   4.487   1.563   3.395
14466TIP3   OH243340   5.918   7.677   3.428
14466TIP3    H143341   5.964   7.728   3.361
14466TIP3    H243342   5.988   7.632   3.476
14467TIP3   OH243343   4.739   3.982   4.896
14467TIP3    H143344   4.684   3.922   4.946
14467TIP3    H243345   4.685   4.060   4.885
14468TIP3   OH243346   2.033   2.394   5.654
14468TIP3    H143347   2.051   2.456   5.725
14468TIP3    H243348   1.979   2.326   5.695
14469TIP3   OH243349   2.553   7.294   0.717
14469TIP3    H143350   2.643   7.262   0.711
14469TIP3    H243351   2.550   7.366   0.654
14470TIP3   OH243352   2.870   5.589   0.775
14470TIP3    H143353   2.871   5.638   0.692
14470TIP3    H243354   2.957   5.549   0.780
14471TIP3   OH243355   4.709   2.001   2.182
14471TIP3    H143356   4.778   1.983   2.246
14471TIP3    H243357   4.716   2.095   2.165
14472TIP3   OH243358   3.339   0.108   3.020
14472TIP3    H143359   3.350   0.013   3.012
14472TIP3    H243360   3.376   0.129   3.106
14473TIP3   OH243361   1.913   4.206   2.991
14473TIP3    H143362   1.880   4.289   2.957
14473TIP3    H243363   1.966   4.170   2.920
14474TIP3   OH243364   3.277   5.867   3.094
14474TIP3    H143365   3.281   5.897   3.003
14474TIP3    H243366   3.283   5.947   3.146
14475TIP3   OH243367   4.236   5.254   1.823
14475TIP3    H143368   4.258   5.185   1.885
14475TIP3    H243369   4.141   5.266   1.833
14476TIP3   OH243370   4.311   1.775   4.105
14476TIP3    H143371   4.269   1.728   4.177
14476TIP3    H243372   4.250   1.766   4.031
14477TIP3   OH243373   0.535   6.412   5.072
14477TIP3    H143374   0.491   6.375   4.995
14477TIP3    H243375   0.567   6.497   5.043
14478TIP3   OH243376   6.746   0.509   1.531
14478TIP3    H143377   6.682   0.559   1.481
14478TIP3    H243378   6.729   0.418   1.507
14479TIP3   OH243379   5.961   7.682   4.133
14479TIP3    H143380   5.974   7.771   4.166
14479TIP3    H243381   5.952   7.692   4.039
14480TIP3   OH243382   6.128   1.603   6.037
14480TIP3    H143383   6.157   1.568   5.953
14480TIP3    H243384   6.151   1.535   6.100
14481TIP3   OH243385   3.651   5.443   1.697
14481TIP3    H143386   3.733   5.468   1.655
14481TIP3    H243387   3.652   5.347   1.697
14482TIP3   OH243388   8.138   4.879   3.386
14482TIP3    H143389   8.188   4.822   3.444
14482TIP3    H243390   8.173   4.967   3.402
14483TIP3   OH243391   3.254   1.082   2.230
14483TIP3    H143392   3.243   1.012   2.165
14483TIP3    H243393   3.349   1.091   2.239
14484TIP3   OH243394   1.530   2.188   0.226
14484TIP3    H143395   1.595   2.125   0.196
14484TIP3    H243396   1.557   2.272   0.188
14485TIP3   OH243397   0.803   3.910   5.523
14485TIP3    H143398   0.714   3.909   5.556
14485TIP3    H243399   0.835   3.820   5.534
14486TIP3   OH243400   5.243   5.236   3.803
14486TIP3    H143401   5.265   5.307   3.864
14486TIP3    H243402   5.155   5.256   3.773
14487TIP3   OH243403   2.343   2.228   1.306
14487TIP3    H143404   2.436   2.230   1.282
14487TIP3    H243405   2.340   2.176   1.386
14488TIP3   OH243406   7.552   2.297   0.204
14488TIP3    H143407   7.581   2.253   0.124
14488TIP3    H243408   7.627   2.349   0.232
14489TIP3   OH243409   4.952   6.059   4.554
14489TIP3    H143410   5.044   6.082   4.571
14489TIP3    H243411   4.909   6.142   4.535
14490TIP3   OH243412   3.221   0.793   3.319
14490TIP3    H143413   3.227   0.744   3.401
14490TIP3    H243414   3.135   0.771   3.284
14491TIP3   OH243415   5.891   1.659   4.926
14491TIP3    H143416   5.805   1.701   4.918
14491TIP3    H243417   5.887   1.612   5.009
14492TIP3   OH243418   3.511   3.735   1.443
14492TIP3    H143419   3.450   3.770   1.378
14492TIP3    H243420   3.557   3.665   1.397
14493TIP3   OH243421   5.750   3.772   4.795
14493TIP3    H143422   5.824   3.711   4.792
14493TIP3    H243423   5.732   3.783   4.888
14494TIP3   OH243424   7.148   3.551   4.866
14494TIP3    H143425   7.081   3.561   4.799
14494TIP3    H243426   7.199   3.632   4.862
14495TIP3   OH243427   4.794   6.650   6.711
14495TIP3    H143428   4.708   6.643   6.753
14495TIP3    H243429   4.856   6.658   6.783
14496TIP3   OH243430   0.044   5.003   2.564
14496TIP3    H143431   0.120   4.978   2.513
14496TIP3    H243432  -0.026   5.013   2.500
14497TIP3   OH243433   2.477   3.005   3.671
14497TIP3    H143434   2.545   2.939   3.685
14497TIP3    H243435   2.401   2.955   3.639
14498TIP3   OH243436   1.795   6.539   6.178
14498TIP3    H143437   1.796   6.504   6.089
14498TIP3    H243438   1.742   6.619   6.172
14499TIP3   OH243439   1.840   3.813   3.465
14499TIP3    H143440   1.810   3.902   3.445
14499TIP3    H243441   1.846   3.810   3.560
14500TIP3   OH243442   0.569   6.074   0.050
14500TIP3    H143443   0.494   6.049   0.104
14500TIP3    H243444   0.644   6.032   0.092
14501TIP3   OH243445   3.343   4.732   5.039
14501TIP3    H143446   3.384   4.734   5.125
14501TIP3    H243447   3.410   4.766   4.980
14502TIP3   OH243448   0.960   6.417   4.415
14502TIP3    H143449   0.919   6.372   4.341
14502TIP3    H243450   1.046   6.375   4.423
14503TIP3   OH243451   3.963   4.593   0.114
14503TIP3    H143452   3.961   4.524   0.049
14503TIP3    H243453   3.918   4.667   0.073
14504TIP3   OH243454   6.491   5.322   2.591
14504TIP3    H143455   6.583   5.327   2.564
14504TIP3    H243456   6.448   5.277   2.519
14505TIP3   OH243457   3.022   1.100   3.425
14505TIP3    H143458   3.004   1.027   3.365
14505TIP3    H243459   3.069   1.060   3.498
14506TIP3   OH243460   2.269   5.675   3.472
14506TIP3    H143461   2.208   5.646   3.404
14506TIP3    H243462   2.247   5.767   3.486
14507TIP3   OH243463   7.882   5.328   0.734
14507TIP3    H143464   7.972   5.333   0.700
14507TIP3    H243465   7.891   5.286   0.819
14508TIP3   OH243466   6.169   3.091   1.851
14508TIP3    H143467   6.151   3.002   1.821
14508TIP3    H243468   6.102   3.108   1.917
14509TIP3   OH243469   4.192   1.974   5.574
14509TIP3    H143470   4.269   1.972   5.518
14509TIP3    H243471   4.118   1.980   5.514
14510TIP3   OH243472   7.784   2.423   3.788
14510TIP3    H143473   7.802   2.406   3.696
14510TIP3    H243474   7.695   2.392   3.802
14511TIP3   OH243475   7.144   1.145   2.777
14511TIP3    H143476   7.054   1.149   2.742
14511TIP3    H243477   7.153   1.226   2.827
14512TIP3   OH243478   1.094   6.351   4.037
14512TIP3    H143479   1.007   6.388   4.021
14512TIP3    H243480   1.130   6.405   4.108
14513TIP3   OH243481   8.193   4.504   1.945
14513TIP3    H143482   8.225   4.462   2.025
14513TIP3    H243483   8.186   4.597   1.968
14514TIP3   OH243484   0.924   2.004   4.287
14514TIP3    H143485   0.994   2.002   4.221
14514TIP3    H243486   0.970   2.022   4.369
14515TIP3   OH243487   0.806   4.385   3.572
14515TIP3    H143488   0.724   4.356   3.533
14515TIP3    H243489   0.870   4.381   3.502
14516TIP3   OH243490   3.853   6.717   5.410
14516TIP3    H143491   3.836   6.792   5.353
14516TIP3    H243492   3.936   6.738   5.453
14517TIP3   OH243493   7.888   7.500   3.327
14517TIP3    H143494   7.890   7.585   3.282
14517TIP3    H243495   7.967   7.499   3.381
14518TIP3   OH243496   0.728   4.109   3.720
14518TIP3    H143497   0.701   4.192   3.681
14518TIP3    H243498   0.704   4.117   3.812
14519TIP3   OH243499   7.856   0.164   0.618
14519TIP3    H143500   7.930   0.105   0.632
14519TIP3    H243501   7.783   0.106   0.595
14520TIP3   OH243502   7.350   2.478   2.357
14520TIP3    H143503   7.323   2.496   2.266
14520TIP3    H243504   7.310   2.548   2.408
14521TIP3   OH243505   0.781   6.727   0.273
14521TIP3    H143506   0.743   6.794   0.330
14521TIP3    H243507   0.772   6.761   0.185
14522TIP3   OH243508   4.053   4.667   6.240
14522TIP3    H143509   4.115   4.713   6.183
14522TIP3    H243510   4.103   4.649   6.320
14523TIP3   OH243511   1.289   1.691   2.291
14523TIP3    H143512   1.293   1.774   2.243
14523TIP3    H243513   1.198   1.686   2.322
14524TIP3   OH243514   5.260   1.394   5.833
14524TIP3    H143515   5.238   1.483   5.860
14524TIP3    H243516   5.286   1.402   5.741
14525TIP3   OH243517   6.580   6.163   1.814
14525TIP3    H143518   6.600   6.218   1.738
14525TIP3    H243519   6.564   6.076   1.776
14526TIP3   OH243520   5.428   7.226   1.157
14526TIP3    H143521   5.499   7.173   1.120
14526TIP3    H243522   5.468   7.269   1.232
14527TIP3   OH243523   2.180   0.946   2.336
14527TIP3    H143524   2.217   0.860   2.319
14527TIP3    H243525   2.250   0.996   2.379
14528TIP3   OH243526   2.122   3.292   4.336
14528TIP3    H143527   2.099   3.199   4.337
14528TIP3    H243528   2.193   3.299   4.399
14529TIP3   OH243529   7.191   7.009   1.805
14529TIP3    H143530   7.172   6.917   1.785
14529TIP3    H243531   7.106   7.052   1.802
14530TIP3   OH243532   1.914   2.422   2.507
14530TIP3    H143533   1.906   2.391   2.417
14530TIP3    H243534   2.001   2.393   2.534
14531TIP3   OH243535   8.151   4.516   0.525
14531TIP3    H143536   8.091   4.466   0.580
14531TIP3    H243537   8.130   4.608   0.543
14532TIP3   OH243538   4.219   7.055   3.352
14532TIP3    H143539   4.235   7.084   3.442
14532TIP3    H243540   4.153   7.116   3.319
14533TIP3   OH243541   5.438   5.570   5.756
14533TIP3    H143542   5.344   5.554   5.748
14533TIP3    H243543   5.452   5.588   5.849
14534TIP3   OH243544   2.996   3.771   5.065
14534TIP3    H143545   2.937   3.805   5.132
14534TIP3    H243546   2.940   3.718   5.009
14535TIP3   OH243547   1.812   0.308   3.272
14535TIP3    H143548   1.780   0.381   3.220
14535TIP3    H243549   1.742   0.291   3.335
14536TIP3   OH243550   6.038   2.887   5.713
14536TIP3    H143551   6.035   2.817   5.648
14536TIP3    H243552   6.047   2.967   5.660
14537TIP3   OH243553   6.772   4.680   1.183
14537TIP3    H143554   6.750   4.770   1.159
14537TIP3    H243555   6.708   4.626   1.136
14538TIP3   OH243556   3.500   0.667   3.509
14538TIP3    H143557   3.411   0.637   3.492
14538TIP3    H243558   3.526   0.710   3.427
14539TIP3   OH243559   8.173   7.672   5.164
14539TIP3    H143560   8.139   7.757   5.193
14539TIP3    H243561   8.160   7.614   5.239
14540TIP3   OH243562   0.984   5.722   5.527
14540TIP3    H143563   1.074   5.747   5.546
14540TIP3    H243564   0.942   5.803   5.496
14541TIP3   OH243565   3.882   7.616   4.712
14541TIP3    H143566   3.798   7.607   4.666
14541TIP3    H243567   3.902   7.527   4.741
14542TIP3   OH243568   0.696   2.431   0.689
14542TIP3    H143569   0.746   2.432   0.608
14542TIP3    H243570   0.762   2.437   0.758
14543TIP3   OH243571   7.048   0.615   4.367
14543TIP3    H143572   7.032   0.523   4.388
14543TIP3    H243573   6.983   0.663   4.419
14544TIP3   OH243574   5.024   3.487   1.637
14544TIP3    H143575   5.116   3.513   1.636
14544TIP3    H243576   5.006   3.465   1.728
14545TIP3   OH243577   0.654   0.705   0.675
14545TIP3    H143578   0.720   0.650   0.717
14545TIP3    H243579   0.643   0.667   0.588
14546TIP3   OH243580   0.451   5.224   4.110
14546TIP3    H143581   0.408   5.229   4.024
14546TIP3    H243582   0.380   5.239   4.173
14547TIP3   OH243583   0.597   0.199   3.490
14547TIP3    H143584   0.502   0.211   3.490
14547TIP3    H243585   0.619   0.174   3.579
14548TIP3   OH243586   3.178   1.184   1.910
14548TIP3    H143587   3.264   1.191   1.868
14548TIP3    H243588   3.135   1.111   1.865
14549TIP3   OH243589   4.660   7.120   1.514
14549TIP3    H143590   4.608   7.168   1.578
14549TIP3    H243591   4.654   7.172   1.434
14550TIP3   OH243592   1.817   5.294   4.694
14550TIP3    H143593   1.907   5.273   4.720
14550TIP3    H243594   1.780   5.211   4.666
14551TIP3   OH243595   7.800   4.085   3.237
14551TIP3    H143596   7.831   4.175   3.247
14551TIP3    H243597   7.710   4.094   3.207
14552TIP3   OH243598   5.020   5.151   1.447
14552TIP3    H143599   5.005   5.064   1.410
14552TIP3    H243600   5.059   5.135   1.533
14553TIP3   OH243601   3.215   4.901   0.595
14553TIP3    H143602   3.241   4.853   0.673
14553TIP3    H243603   3.256   4.853   0.523
14554TIP3   OH243604   4.081   6.588   3.557
14554TIP3    H143605   4.115   6.660   3.503
14554TIP3    H243606   3.988   6.584   3.536
14555TIP3   OH243607   5.030   5.654   4.876
14555TIP3    H143608   4.941   5.689   4.881
14555TIP3    H243609   5.059   5.675   4.787
14556TIP3   OH243610   2.407   2.167   6.051
14556TIP3    H143611   2.501   2.157   6.066
14556TIP3    H243612   2.393   2.262   6.052
14557TIP3   OH243613   3.973   1.916   0.238
14557TIP3    H143614   3.987   1.997   0.188
14557TIP3    H243615   4.034   1.853   0.198
14558TIP3   OH243616   1.796   3.918   1.435
14558TIP3    H143617   1.733   3.946   1.501
14558TIP3    H243618   1.858   3.863   1.483
14559TIP3   OH243619   3.280   4.536   4.538
14559TIP3    H143620   3.361   4.555   4.586
14559TIP3    H243621   3.231   4.480   4.598
14560TIP3   OH243622   3.111   1.209   0.387
14560TIP3    H143623   3.060   1.283   0.420
14560TIP3    H243624   3.128   1.155   0.464
14561TIP3   OH243625   1.621   7.425   5.058
14561TIP3    H143626   1.678   7.487   5.011
14561TIP3    H243627   1.641   7.439   5.150
14562TIP3   OH243628   3.669   0.227   3.450
14562TIP3    H143629   3.655   0.299   3.511
14562TIP3    H243630   3.723   0.265   3.381
14563TIP3   OH243631   0.547   3.283   5.575
14563TIP3    H143632   0.547   3.334   5.656
14563TIP3    H243633   0.612   3.326   5.520
14564TIP3   OH243634   7.736   6.254   2.705
14564TIP3    H143635   7.819   6.205   2.703
14564TIP3    H243636   7.715   6.268   2.612
14565TIP3   OH243637   6.569   7.601   6.271
14565TIP3    H143638   6.527   7.685   6.286
14565TIP3    H243639   6.534   7.544   6.340
14566TIP3   OH243640   2.339   6.234   0.239
14566TIP3    H143641   2.387   6.257   0.319
14566TIP3    H243642   2.336   6.315   0.189
14567TIP3   OH243643   6.172   5.788   1.850
14567TIP3    H143644   6.227   5.724   1.897
14567TIP3    H243645   6.196   5.778   1.758
14568TIP3   OH243646   2.414   0.837   3.595
14568TIP3    H143647   2.342   0.867   3.650
14568TIP3    H243648   2.430   0.747   3.624
14569TIP3   OH243649   6.377   5.548   4.507
14569TIP3    H143650   6.339   5.464   4.482
14569TIP3    H243651   6.470   5.540   4.486
14570TIP3   OH243652   3.049   2.351   4.008
14570TIP3    H143653   2.956   2.327   4.017
14570TIP3    H243654   3.047   2.445   3.990
14571TIP3   OH243655   8.155   4.485   5.248
14571TIP3    H143656   8.083   4.426   5.268
14571TIP3    H243657   8.216   4.432   5.196
14572TIP3   OH243658   5.933   0.058   4.237
14572TIP3    H143659   5.894   0.122   4.297
14572TIP3    H243660   5.988   0.110   4.178
14573TIP3   OH243661   2.658   7.665   0.708
14573TIP3    H143662   2.622   7.619   0.784
14573TIP3    H243663   2.750   7.637   0.705
14574TIP3   OH243664   6.988   3.536   0.092
14574TIP3    H143665   7.058   3.514   0.154
14574TIP3    H243666   6.908   3.508   0.136
14575TIP3   OH243667   3.210   7.452   5.016
14575TIP3    H143668   3.245   7.499   5.091
14575TIP3    H243669   3.127   7.495   4.997
14576TIP3   OH243670   6.549   0.109   6.158
14576TIP3    H143671   6.494   0.072   6.227
14576TIP3    H243672   6.638   0.106   6.194
14577TIP3   OH243673   2.524   0.024   5.943
14577TIP3    H143674   2.479  -0.008   5.864
14577TIP3    H243675   2.545   0.115   5.923
14578TIP3   OH243676   1.569   1.200   4.688
14578TIP3    H143677   1.533   1.252   4.616
14578TIP3    H243678   1.512   1.219   4.763
14579TIP3   OH243679   2.532   1.364   6.103
14579TIP3    H143680   2.528   1.302   6.030
14579TIP3    H243681   2.624   1.366   6.127
14580TIP3   OH243682   2.082   5.093   5.474
14580TIP3    H143683   2.026   5.171   5.466
14580TIP3    H243684   2.167   5.127   5.501
14581TIP3   OH243685   5.119   4.849   1.416
14581TIP3    H143686   5.070   4.800   1.350
14581TIP3    H243687   5.112   4.795   1.495
14582TIP3   OH243688   0.511   4.999   2.512
14582TIP3    H143689   0.607   5.009   2.514
14582TIP3    H243690   0.497   4.906   2.494
14583TIP3   OH243691   0.451   2.027   3.669
14583TIP3    H143692   0.437   1.995   3.580
14583TIP3    H243693   0.505   2.105   3.658
14584TIP3   OH243694   4.867   7.077   0.775
14584TIP3    H143695   4.779   7.098   0.744
14584TIP3    H243696   4.897   7.156   0.820
14585TIP3   OH243697   8.137   1.815   5.297
14585TIP3    H143698   8.089   1.884   5.250
14585TIP3    H243699   8.086   1.799   5.375
14586TIP3   OH243700   1.549   7.348   2.851
14586TIP3    H143701   1.512   7.397   2.924
14586TIP3    H243702   1.474   7.327   2.795
14587TIP3   OH243703   1.911   2.151   4.417
14587TIP3    H143704   1.944   2.235   4.386
14587TIP3    H243705   1.832   2.136   4.366
14588TIP3   OH243706   2.828   0.957   1.960
14588TIP3    H143707   2.884   1.025   1.997
14588TIP3    H243708   2.764   1.004   1.907
14589TIP3   OH243709   6.796   2.745   4.030
14589TIP3    H143710   6.776   2.776   4.118
14589TIP3    H243711   6.878   2.696   4.040
14590TIP3   OH243712   0.162   7.000   5.744
14590TIP3    H143713   0.230   6.968   5.686
14590TIP3    H243714   0.204   7.005   5.830
14591TIP3   OH243715   8.147   4.778   3.854
14591TIP3    H143716   8.125   4.715   3.922
14591TIP3    H243717   8.074   4.840   3.853
14592TIP3   OH243718   8.083   5.136   0.541
14592TIP3    H143719   8.025   5.067   0.574
14592TIP3    H243720   8.149   5.146   0.610
14593TIP3   OH243721   0.700   7.470   3.492
14593TIP3    H143722   0.640   7.544   3.504
14593TIP3    H243723   0.648   7.405   3.444
14594TIP3   OH243724   6.250   6.612   2.214
14594TIP3    H143725   6.312   6.682   2.196
14594TIP3    H243726   6.180   6.625   2.150
14595TIP3   OH243727   5.837   5.109   6.706
14595TIP3    H143728   5.920   5.060   6.712
14595TIP3    H243729   5.860   5.197   6.735
14596TIP3   OH243730   6.218   5.368   6.046
14596TIP3    H143731   6.264   5.317   5.979
14596TIP3    H243732   6.271   5.357   6.125
14597TIP3   OH243733   7.868   4.432   0.110
14597TIP3    H143734   7.907   4.448   0.197
14597TIP3    H243735   7.910   4.351   0.080
14598TIP3   OH243736   4.750   4.661   0.748
14598TIP3    H143737   4.766   4.567   0.736
14598TIP3    H243738   4.824   4.704   0.704
14599TIP3   OH243739   0.237   3.289   5.734
14599TIP3    H143740   0.332   3.303   5.731
14599TIP3    H243741   0.221   3.223   5.667
14600TIP3   OH243742   2.944   1.332   0.184
14600TIP3    H143743   2.968   1.245   0.215
14600TIP3    H243744   3.026   1.367   0.148
14601TIP3   OH243745   0.256   6.609   4.135
14601TIP3    H143746   0.267   6.651   4.221
14601TIP3    H243747   0.213   6.676   4.081
14602TIP3   OH243748   0.403   3.006   5.903
14602TIP3    H143749   0.317   3.028   5.939
14602TIP3    H243750   0.388   2.999   5.808
14603TIP3   OH243751   6.771   4.968   6.657
14603TIP3    H143752   6.862   4.963   6.686
14603TIP3    H243753   6.777   4.998   6.567
14604TIP3   OH243754   5.627   2.924   1.692
14604TIP3    H143755   5.655   3.015   1.688
14604TIP3    H243756   5.663   2.884   1.612
14605TIP3   OH243757   0.486   0.231   3.165
14605TIP3    H143758   0.475   0.299   3.231
14605TIP3    H243759   0.420   0.252   3.098
14606TIP3   OH243760   1.322   4.843   1.547
14606TIP3    H143761   1.401   4.821   1.498
14606TIP3    H243762   1.353   4.861   1.636
14607TIP3   OH243763   4.873   3.234   5.715
14607TIP3    H143764   4.842   3.150   5.749
14607TIP3    H243765   4.807   3.259   5.651
14608TIP3   OH243766   1.099   2.926   1.659
14608TIP3    H143767   1.144   2.850   1.622
14608TIP3    H243768   1.160   2.961   1.724
14609TIP3   OH243769   0.207   2.539   2.305
14609TIP3    H143770   0.187   2.626   2.271
14609TIP3    H243771   0.236   2.555   2.395
14610TIP3   OH243772   6.619   6.896   4.418
14610TIP3    H143773   6.676   6.819   4.414
14610TIP3    H243774   6.535   6.862   4.449
14611TIP3   OH243775   0.352   3.051   6.295
14611TIP3    H143776   0.265   3.036   6.257
14611TIP3    H243777   0.398   3.103   6.229
14612TIP3   OH243778   6.905   3.537   0.862
14612TIP3    H143779   6.909   3.441   0.870
14612TIP3    H243780   6.858   3.566   0.940
14613TIP3   OH243781   3.845   1.451   4.330
14613TIP3    H143782   3.835   1.489   4.418
14613TIP3    H243783   3.860   1.527   4.273
14614TIP3   OH243784   1.830   1.494   2.794
14614TIP3    H143785   1.804   1.549   2.720
14614TIP3    H243786   1.758   1.503   2.856
14615TIP3   OH243787   7.664   5.840   6.432
14615TIP3    H143788   7.583   5.789   6.428
14615TIP3    H243789   7.641   5.926   6.397
14616TIP3   OH243790   8.010   2.459   1.604
14616TIP3    H143791   8.043   2.428   1.689
14616TIP3    H243792   8.033   2.552   1.603
14617TIP3   OH243793   1.713   6.215   2.916
14617TIP3    H143794   1.664   6.265   2.981
14617TIP3    H243795   1.805   6.229   2.939
14618TIP3   OH243796   3.495   4.733   1.310
14618TIP3    H143797   3.540   4.674   1.370
14618TIP3    H243798   3.473   4.809   1.362
14619TIP3   OH243799   1.249   0.409   1.743
14619TIP3    H143800   1.232   0.371   1.829
14619TIP3    H243801   1.207   0.495   1.747
14620TIP3   OH243802   5.544   1.630   1.469
14620TIP3    H143803   5.542   1.721   1.439
14620TIP3    H243804   5.555   1.637   1.564
14621TIP3   OH243805   7.293   6.838   5.872
14621TIP3    H143806   7.331   6.893   5.941
14621TIP3    H243807   7.367   6.790   5.835
14622TIP3   OH243808   5.804   0.257   1.324
14622TIP3    H143809   5.888   0.231   1.286
14622TIP3    H243810   5.748   0.274   1.248
14623TIP3   OH243811   7.497   4.650   4.194
14623TIP3    H143812   7.470   4.725   4.140
14623TIP3    H243813   7.427   4.586   4.182
14624TIP3   OH243814   7.204   5.321   4.767
14624TIP3    H143815   7.265   5.361   4.704
14624TIP3    H243816   7.259   5.298   4.841
14625TIP3   OH243817   0.305   5.446   0.160
14625TIP3    H143818   0.210   5.452   0.170
14625TIP3    H243819   0.338   5.529   0.195
14626TIP3   OH243820   1.050   4.476   5.547
14626TIP3    H143821   1.110   4.438   5.482
14626TIP3    H243822   1.004   4.545   5.500
14627TIP3   OH243823   0.043   2.815   6.358
14627TIP3    H143824   0.035   2.906   6.388
14627TIP3    H243825   0.125   2.784   6.396
14628TIP3   OH243826   3.153   6.998   5.671
14628TIP3    H143827   3.221   6.930   5.680
14628TIP3    H243828   3.071   6.949   5.666
14629TIP3   OH243829   0.776   3.309   0.013
14629TIP3    H143830   0.843   3.281   0.075
14629TIP3    H243831   0.768   3.237  -0.049
14630TIP3   OH243832   4.127   5.010   3.528
14630TIP3    H143833   4.090   5.096   3.546
14630TIP3    H243834   4.056   4.949   3.547
14631TIP3   OH243835   8.141   0.988   0.940
14631TIP3    H143836   8.203   1.008   1.010
14631TIP3    H243837   8.061   0.962   0.985
14632TIP3   OH243838   3.864   1.828   2.524
14632TIP3    H143839   3.934   1.869   2.473
14632TIP3    H243840   3.817   1.773   2.461
14633TIP3   OH243841   6.815   5.892   4.711
14633TIP3    H143842   6.772   5.883   4.626
14633TIP3    H243843   6.863   5.810   4.722
14634TIP3   OH243844   3.794   5.198   1.408
14634TIP3    H143845   3.756   5.161   1.488
14634TIP3    H243846   3.888   5.181   1.416
14635TIP3   OH243847   4.489   2.136   2.313
14635TIP3    H143848   4.393   2.129   2.311
14635TIP3    H243849   4.518   2.091   2.234
14636TIP3   OH243850   0.857   0.599   1.961
14636TIP3    H143851   0.841   0.595   2.055
14636TIP3    H243852   0.770   0.603   1.922
14637TIP3   OH243853   8.022   3.779   1.502
14637TIP3    H143854   8.085   3.850   1.489
14637TIP3    H243855   8.075   3.703   1.524
14638TIP3   OH243856   3.975   0.960   6.321
14638TIP3    H143857   3.941   1.014   6.249
14638TIP3    H243858   3.997   0.877   6.279
14639TIP3   OH243859   3.571   6.163   0.557
14639TIP3    H143860   3.491   6.122   0.523
14639TIP3    H243861   3.541   6.241   0.603
14640TIP3   OH243862   3.056   0.874   0.094
14640TIP3    H143863   3.070   0.821   0.173
14640TIP3    H243864   3.143   0.909   0.074
14641TIP3   OH243865   6.168   7.271   4.836
14641TIP3    H143866   6.149   7.180   4.856
14641TIP3    H243867   6.203   7.307   4.918
14642TIP3   OH243868   5.579   1.069   6.433
14642TIP3    H143869   5.576   1.033   6.344
14642TIP3    H243870   5.488   1.075   6.460
14643TIP3   OH243871   6.337   0.256   0.961
14643TIP3    H143872   6.361   0.294   0.877
14643TIP3    H243873   6.330   0.331   1.020
14644TIP3   OH243874   5.769   6.442   3.980
14644TIP3    H143875   5.751   6.367   4.037
14644TIP3    H243876   5.804   6.509   4.040
14645TIP3   OH243877   7.129   1.588   1.775
14645TIP3    H143878   7.187   1.664   1.772
14645TIP3    H243879   7.077   1.594   1.695
14646TIP3   OH243880   4.965   1.167   5.701
14646TIP3    H143881   5.017   1.128   5.631
14646TIP3    H243882   4.924   1.092   5.745
14647TIP3   OH243883   3.168   1.552   4.814
14647TIP3    H143884   3.242   1.522   4.762
14647TIP3    H243885   3.093   1.503   4.780
14648TIP3   OH243886   5.959   5.456   3.180
14648TIP3    H143887   6.034   5.453   3.120
14648TIP3    H243888   5.947   5.365   3.206
14649TIP3   OH243889   3.342   7.685   5.823
14649TIP3    H143890   3.430   7.650   5.813
14649TIP3    H243891   3.345   7.734   5.906
14650TIP3   OH243892   3.056   6.169   1.791
14650TIP3    H143893   3.040   6.197   1.881
14650TIP3    H243894   3.074   6.250   1.743
14651TIP3   OH243895   4.695   5.720   1.803
14651TIP3    H143896   4.683   5.667   1.724
14651TIP3    H243897   4.755   5.669   1.858
14652TIP3   OH243898   3.010   2.359   4.720
14652TIP3    H143899   2.944   2.363   4.790
14652TIP3    H243900   3.013   2.266   4.696
14653TIP3   OH243901   5.421   0.215   1.433
14653TIP3    H143902   5.396   0.196   1.524
14653TIP3    H243903   5.411   0.132   1.387
14654TIP3   OH243904   6.371   7.270   5.474
14654TIP3    H143905   6.442   7.250   5.535
14654TIP3    H243906   6.331   7.349   5.510
14655TIP3   OH243907   6.206   1.911   3.183
14655TIP3    H143908   6.143   1.945   3.120
14655TIP3    H243909   6.152   1.883   3.257
14656TIP3   OH243910   7.195   7.331   1.544
14656TIP3    H143911   7.202   7.251   1.596
14656TIP3    H243912   7.285   7.360   1.532
14657TIP3   OH243913   6.826   7.756   3.529
14657TIP3    H143914   6.761   7.783   3.465
14657TIP3    H243915   6.910   7.762   3.483
14658TIP3   OH243916   1.728   1.966   0.291
14658TIP3    H143917   1.696   1.880   0.319
14658TIP3    H243918   1.810   1.947   0.245
14659TIP3   OH243919   3.118   5.039   1.585
14659TIP3    H143920   3.126   4.949   1.615
14659TIP3    H243921   3.068   5.033   1.504
14660TIP3   OH243922   1.632   1.405   6.061
14660TIP3    H143923   1.580   1.366   5.990
14660TIP3    H243924   1.681   1.475   6.019
14661TIP3   OH243925   4.972   1.405   3.879
14661TIP3    H143926   5.066   1.400   3.862
14661TIP3    H243927   4.945   1.489   3.843
14662TIP3   OH243928   6.822   7.103   4.883
14662TIP3    H143929   6.821   7.166   4.955
14662TIP3    H243930   6.741   7.053   4.894
14663TIP3   OH243931   7.374   4.065   1.689
14663TIP3    H143932   7.444   4.024   1.740
14663TIP3    H243933   7.348   4.141   1.741
14664TIP3   OH243934   4.817   2.542   2.189
14664TIP3    H143935   4.740   2.563   2.243
14664TIP3    H243936   4.799   2.583   2.105
14665TIP3   OH243937   6.925   1.677   3.488
14665TIP3    H143938   6.913   1.731   3.409
14665TIP3    H243939   6.845   1.690   3.538
14666TIP3   OH243940   6.227   1.981   6.473
14666TIP3    H143941   6.214   1.935   6.389
14666TIP3    H243942   6.217   2.074   6.451
14667TIP3   OH243943   3.406   2.985   3.585
14667TIP3    H143944   3.312   2.989   3.566
14667TIP3    H243945   3.414   2.915   3.649
14668TIP3   OH243946   2.189   3.217   3.498
14668TIP3    H143947   2.278   3.253   3.494
14668TIP3    H243948   2.165   3.223   3.590
14669TIP3   OH243949   0.038   5.023   0.650
14669TIP3    H143950   0.077   4.935   0.655
14669TIP3    H243951   0.009   5.041   0.740
14670TIP3   OH243952   4.187   5.320   0.853
14670TIP3    H143953   4.265   5.335   0.907
14670TIP3    H243954   4.158   5.407   0.827
14671TIP3   OH243955   0.687   2.951   6.111
14671TIP3    H143956   0.703   2.943   6.017
14671TIP3    H243957   0.641   2.871   6.136
14672TIP3   OH243958   7.137   1.355   2.570
14672TIP3    H143959   7.151   1.271   2.525
14672TIP3    H243960   7.053   1.345   2.614
14673TIP3   OH243961   2.051   2.444   3.183
14673TIP3    H143962   2.092   2.383   3.122
14673TIP3    H243963   2.095   2.527   3.168
14674TIP3   OH243964   5.508   4.505   5.923
14674TIP3    H143965   5.471   4.531   5.839
14674TIP3    H243966   5.476   4.416   5.938
14675TIP3   OH243967   2.220   4.530   6.474
14675TIP3    H143968   2.285   4.600   6.485
14675TIP3    H243969   2.213   4.520   6.379
14676TIP3   OH243970   6.926   5.091   4.613
14676TIP3    H143971   6.928   5.005   4.572
14676TIP3    H243972   6.978   5.082   4.692
14677TIP3   OH243973   1.775   7.804   0.719
14677TIP3    H143974   1.830   7.813   0.641
14677TIP3    H243975   1.743   7.714   0.716
14678TIP3   OH243976   6.792   0.177   5.321
14678TIP3    H143977   6.702   0.192   5.350
14678TIP3    H243978   6.787   0.178   5.226
14679TIP3   OH243979   6.961   5.931   5.987
14679TIP3    H143980   7.006   5.982   6.054
14679TIP3    H243981   6.893   5.883   6.034
14680TIP3   OH243982   8.304   3.358   6.621
14680TIP3    H143983   8.252   3.422   6.574
14680TIP3    H243984   8.319   3.397   6.707
14681TIP3   OH243985   4.841   2.285   2.921
14681TIP3    H143986   4.895   2.332   2.857
14681TIP3    H243987   4.770   2.247   2.869
14682TIP3   OH243988   7.574   2.144   4.145
14682TIP3    H143989   7.487   2.148   4.184
14682TIP3    H243990   7.611   2.231   4.160
14683TIP3   OH243991   2.025   2.936   1.896
14683TIP3    H143992   2.023   2.919   1.801
14683TIP3    H243993   2.096   2.881   1.928
14684TIP3   OH243994   1.107   4.390   5.112
14684TIP3    H143995   1.055   4.470   5.114
14684TIP3    H243996   1.150   4.386   5.197
14685TIP3   OH243997   7.532   7.003   5.594
14685TIP3    H143998   7.512   6.918   5.633
14685TIP3    H243999   7.626   7.001   5.576
14686TIP3   OH244000   2.008   2.862   5.928
14686TIP3    H144001   1.915   2.868   5.906
14686TIP3    H244002   2.010   2.811   6.009
14687TIP3   OH244003   7.045   1.624   0.029
14687TIP3    H144004   7.019   1.631   0.121
14687TIP3    H244005   7.100   1.547   0.025
14688TIP3   OH244006   2.576   4.586   2.602
14688TIP3    H144007   2.591   4.570   2.508
14688TIP3    H244008   2.566   4.499   2.640
14689TIP3   OH244009   4.287   3.553   6.613
14689TIP3    H144010   4.343   3.486   6.652
14689TIP3    H244011   4.227   3.579   6.684
14690TIP3   OH244012   5.113   6.413   4.709
14690TIP3    H144013   5.122   6.332   4.659
14690TIP3    H244014   5.154   6.394   4.793
14691TIP3   OH244015   5.500   7.434   0.687
14691TIP3    H144016   5.545   7.490   0.750
14691TIP3    H244017   5.547   7.449   0.605
14692TIP3   OH244018   0.280   5.590   6.714
14692TIP3    H144019   0.296   5.683   6.729
14692TIP3    H244020   0.293   5.578   6.620
14693TIP3   OH244021   5.908   1.431   0.057
14693TIP3    H144022   5.867   1.506   0.013
14693TIP3    H244023   5.962   1.470   0.125
14694TIP3   OH244024   2.807   3.982   3.490
14694TIP3    H144025   2.746   4.055   3.504
14694TIP3    H244026   2.846   4.000   3.404
14695TIP3   OH244027   2.640   0.596   4.311
14695TIP3    H144028   2.573   0.647   4.265
14695TIP3    H244029   2.640   0.631   4.400
14696TIP3   OH244030   3.449   2.064   3.957
14696TIP3    H144031   3.374   2.044   4.012
14696TIP3    H244032   3.492   1.979   3.943
14697TIP3   OH244033   3.480   5.464   5.424
14697TIP3    H144034   3.447   5.421   5.502
14697TIP3    H244035   3.484   5.396   5.358
14698TIP3   OH244036   3.364   6.342   6.739
14698TIP3    H144037   3.348   6.249   6.755
14698TIP3    H244038   3.311   6.362   6.661
14699TIP3   OH244039   5.855   2.221   2.891
14699TIP3    H144040   5.915   2.256   2.958
14699TIP3    H244041   5.769   2.224   2.933
14700TIP3   OH244042   5.196   3.334   6.030
14700TIP3    H144043   5.238   3.366   6.110
14700TIP3    H244044   5.102   3.346   6.046
14701TIP3   OH244045   0.354   3.789   2.227
14701TIP3    H144046   0.328   3.846   2.300
14701TIP3    H244047   0.422   3.733   2.264
14702TIP3   OH244048   4.855   0.684   2.781
14702TIP3    H144049   4.860   0.765   2.832
14702TIP3    H244050   4.767   0.650   2.799
14703TIP3   OH244051   7.125   3.186   6.669
14703TIP3    H144052   7.051   3.233   6.707
14703TIP3    H244053   7.202   3.239   6.690
14704TIP3   OH244054   2.501   7.046   3.693
14704TIP3    H144055   2.582   7.076   3.651
14704TIP3    H244056   2.468   7.123   3.739
14705TIP3   OH244057   5.091   7.086   6.603
14705TIP3    H144058   5.106   7.003   6.648
14705TIP3    H244059   5.130   7.152   6.661
14706TIP3   OH244060   2.385   3.926   3.795
14706TIP3    H144061   2.471   3.963   3.819
14706TIP3    H244062   2.360   3.974   3.716
14707TIP3   OH244063   7.086   4.780   6.106
14707TIP3    H144064   7.121   4.868   6.120
14707TIP3    H244065   7.034   4.787   6.026
14708TIP3   OH244066   7.027   1.191   6.436
14708TIP3    H144067   6.984   1.201   6.521
14708TIP3    H244068   7.037   1.281   6.404
14709TIP3   OH244069   4.184   5.726   1.751
14709TIP3    H144070   4.181   5.657   1.817
14709TIP3    H244071   4.095   5.761   1.748
14710TIP3   OH244072   2.492   5.849   5.001
14710TIP3    H144073   2.532   5.780   5.054
14710TIP3    H244074   2.534   5.841   4.916
14711TIP3   OH244075   3.741   7.324   0.323
14711TIP3    H144076   3.707   7.332   0.233
14711TIP3    H244077   3.703   7.398   0.370
14712TIP3   OH244078   5.491   3.896   3.290
14712TIP3    H144079   5.441   3.933   3.217
14712TIP3    H244080   5.488   3.802   3.276
14713TIP3   OH244081   1.559   5.841   2.929
14713TIP3    H144082   1.478   5.841   2.877
14713TIP3    H244083   1.563   5.753   2.968
14714TIP3   OH244084   0.163   1.133   0.516
14714TIP3    H144085   0.078   1.172   0.536
14714TIP3    H244086   0.174   1.065   0.582
14715TIP3   OH244087   0.905   2.953   0.469
14715TIP3    H144088   0.983   2.901   0.488
14715TIP3    H244089   0.846   2.892   0.425
14716TIP3   OH244090   2.092   4.955   4.890
14716TIP3    H144091   2.134   4.953   4.976
14716TIP3    H244092   2.055   4.867   4.880
14717TIP3   OH244093   8.089   5.713   0.348
14717TIP3    H144094   8.010   5.754   0.383
14717TIP3    H244095   8.074   5.619   0.359
14718TIP3   OH244096   7.279   7.436   3.986
14718TIP3    H144097   7.247   7.347   3.976
14718TIP3    H244098   7.266   7.457   4.078
14719TIP3   OH244099   3.859   7.286   1.966
14719TIP3    H144100   3.885   7.320   2.052
14719TIP3    H244101   3.811   7.206   1.985
14720TIP3   OH244102   7.004   1.198   3.384
14720TIP3    H144103   6.963   1.172   3.301
14720TIP3    H244104   6.936   1.249   3.429
14721TIP3   OH244105   3.797   6.785   4.276
14721TIP3    H144106   3.752   6.728   4.338
14721TIP3    H244107   3.852   6.841   4.331
14722TIP3   OH244108   1.158   2.344   2.091
14722TIP3    H144109   1.138   2.273   2.030
14722TIP3    H244110   1.129   2.423   2.046
14723TIP3   OH244111   4.996   6.955   2.880
14723TIP3    H144112   5.085   6.935   2.910
14723TIP3    H244113   5.004   6.956   2.784
14724TIP3   OH244114   0.609   2.640   1.356
14724TIP3    H144115   0.581   2.698   1.286
14724TIP3    H244116   0.669   2.579   1.315
14725TIP3   OH244117   0.506   2.174   4.140
14725TIP3    H144118   0.484   2.167   4.047
14725TIP3    H244119   0.423   2.199   4.182
14726TIP3   OH244120   4.889   2.554   0.541
14726TIP3    H144121   4.958   2.488   0.550
14726TIP3    H244122   4.836   2.524   0.467
14727TIP3   OH244123   0.329   3.197   3.285
14727TIP3    H144124   0.252   3.142   3.270
14727TIP3    H244125   0.378   3.192   3.203
14728TIP3   OH244126   2.132   5.538   4.095
14728TIP3    H144127   2.217   5.573   4.067
14728TIP3    H244128   2.154   5.479   4.167
14729TIP3   OH244129   5.605   0.893   4.834
14729TIP3    H144130   5.616   0.862   4.744
14729TIP3    H244131   5.660   0.971   4.840
14730TIP3   OH244132   7.919   4.346   5.390
14730TIP3    H144133   7.862   4.313   5.320
14730TIP3    H244134   7.863   4.407   5.439
14731TIP3   OH244135   6.594   7.319   6.653
14731TIP3    H144136   6.566   7.384   6.589
14731TIP3    H244137   6.659   7.266   6.606
14732TIP3   OH244138   6.663   2.752   2.979
14732TIP3    H144139   6.688   2.662   2.960
14732TIP3    H244140   6.619   2.748   3.064
14733TIP3   OH244141   0.327   0.995   3.697
14733TIP3    H144142   0.274   1.050   3.753
14733TIP3    H244143   0.401   1.050   3.671
14734TIP3   OH244144   3.464   0.262   4.872
14734TIP3    H144145   3.539   0.238   4.817
14734TIP3    H244146   3.503   0.281   4.957
14735TIP3   OH244147   3.603   5.005   4.119
14735TIP3    H144148   3.669   5.072   4.136
14735TIP3    H244149   3.521   5.044   4.149
14736TIP3   OH244150   5.267   4.450   5.643
14736TIP3    H144151   5.200   4.445   5.711
14736TIP3    H244152   5.256   4.369   5.593
14737TIP3   OH244153   5.571   6.504   2.771
14737TIP3    H144154   5.529   6.449   2.836
14737TIP3    H244155   5.536   6.474   2.687
14738TIP3   OH244156   0.901   2.256   2.309
14738TIP3    H144157   0.913   2.190   2.241
14738TIP3    H244158   0.891   2.206   2.389
14739TIP3   OH244159   7.327   0.944   6.162
14739TIP3    H144160   7.330   1.009   6.233
14739TIP3    H244161   7.386   0.874   6.191
14740TIP3   OH244162   0.749   6.035   2.033
14740TIP3    H144163   0.767   6.128   2.050
14740TIP3    H244164   0.685   6.036   1.962
14741TIP3   OH244165   0.756   1.492   0.472
14741TIP3    H144166   0.851   1.492   0.463
14741TIP3    H244167   0.729   1.405   0.444
14742TIP3   OH244168   2.877   7.588   3.569
14742TIP3    H144169   2.915   7.564   3.484
14742TIP3    H244170   2.936   7.655   3.604
14743TIP3   OH244171   3.004   1.279   5.392
14743TIP3    H144172   3.079   1.253   5.339
14743TIP3    H244173   2.955   1.340   5.337
14744TIP3   OH244174   8.156   6.112   3.562
14744TIP3    H144175   8.202   6.189   3.528
14744TIP3    H244176   8.118   6.070   3.484
14745TIP3   OH244177   6.868   6.023   4.952
14745TIP3    H144178   6.826   6.108   4.968
14745TIP3    H244179   6.827   5.991   4.872
14746TIP3   OH244180   5.756   2.908   6.249
14746TIP3    H144181   5.740   2.869   6.335
14746TIP3    H244182   5.675   2.954   6.228
14747TIP3   OH244183   0.266   4.102   6.048
14747TIP3    H144184   0.321   4.098   6.126
14747TIP3    H244185   0.321   4.144   5.982
14748TIP3   OH244186   6.033   2.434   3.322
14748TIP3    H144187   6.097   2.363   3.319
14748TIP3    H244188   6.085   2.513   3.303
14749TIP3   OH244189   4.578   5.257   5.358
14749TIP3    H144190   4.642   5.310   5.404
14749TIP3    H244191   4.493   5.292   5.386
14750TIP3   OH244192   4.609   2.758   5.877
14750TIP3    H144193   4.657   2.680   5.850
14750TIP3    H244194   4.567   2.733   5.959
14751TIP3   OH244195   3.316   2.241   6.586
14751TIP3    H144196   3.309   2.271   6.677
14751TIP3    H244197   3.318   2.146   6.592
14752TIP3   OH244198   3.265   6.249   3.662
14752TIP3    H144199   3.317   6.308   3.717
14752TIP3    H244200   3.312   6.166   3.663
14753TIP3   OH244201   0.467   2.910   5.157
14753TIP3    H144202   0.511   2.827   5.141
14753TIP3    H244203   0.538   2.970   5.180
14754TIP3   OH244204   4.398   2.428   6.419
14754TIP3    H144205   4.350   2.459   6.496
14754TIP3    H244206   4.478   2.388   6.454
14755TIP3   OH244207   5.055   0.495   2.799
14755TIP3    H144208   5.142   0.536   2.798
14755TIP3    H244209   4.994   0.568   2.797
14756TIP3   OH244210   1.183   6.519   6.000
14756TIP3    H144211   1.216   6.584   6.063
14756TIP3    H244212   1.092   6.543   5.986
14757TIP3   OH244213   8.316   2.825   1.885
14757TIP3    H144214   8.289   2.734   1.873
14757TIP3    H244215   8.253   2.876   1.834
14758TIP3   OH244216   8.080   5.553   5.632
14758TIP3    H144217   8.158   5.526   5.584
14758TIP3    H244218   8.009   5.547   5.569
14759TIP3   OH244219   6.104   4.280   6.005
14759TIP3    H144220   6.191   4.315   5.988
14759TIP3    H244221   6.045   4.355   5.994
14760TIP3   OH244222   8.132   3.741   3.869
14760TIP3    H144223   8.143   3.677   3.939
14760TIP3    H244224   8.138   3.689   3.788
14761TIP3   OH244225   0.735   2.173   1.542
14761TIP3    H144226   0.827   2.195   1.522
14761TIP3    H244227   0.738   2.141   1.632
14762TIP3   OH244228   7.054   1.093   3.085
14762TIP3    H144229   7.096   1.175   3.061
14762TIP3    H244230   7.118   1.025   3.063
14763TIP3   OH244231   2.161   4.821   5.952
14763TIP3    H144232   2.237   4.784   5.907
14763TIP3    H244233   2.153   4.909   5.915
14764TIP3   OH244234   6.813   7.647   3.046
14764TIP3    H144235   6.803   7.740   3.069
14764TIP3    H244236   6.778   7.600   3.121
14765TIP3   OH244237   6.281   2.749   1.561
14765TIP3    H144238   6.249   2.777   1.647
14765TIP3    H244239   6.242   2.811   1.500
14766TIP3   OH244240   1.007   1.199   2.516
14766TIP3    H144241   1.072   1.173   2.582
14766TIP3    H244242   0.951   1.262   2.561
14767TIP3   OH244243   0.839   4.394   5.989
14767TIP3    H144244   0.764   4.347   6.026
14767TIP3    H244245   0.802   4.478   5.961
14768TIP3   OH244246   5.855   2.422   1.890
14768TIP3    H144247   5.900   2.479   1.953
14768TIP3    H244248   5.794   2.372   1.944
14769TIP3   OH244249   6.362   5.164   5.550
14769TIP3    H144250   6.346   5.115   5.631
14769TIP3    H244251   6.339   5.254   5.572
14770TIP3   OH244252   5.435   7.091   0.586
14770TIP3    H144253   5.523   7.125   0.604
14770TIP3    H244254   5.451   7.006   0.545
14771TIP3   OH244255   4.232   0.651   4.343
14771TIP3    H144256   4.288   0.625   4.416
14771TIP3    H244257   4.196   0.736   4.369
14772TIP3   OH244258   4.180   2.439   5.131
14772TIP3    H144259   4.180   2.493   5.210
14772TIP3    H244260   4.237   2.487   5.070
14773TIP3   OH244261   7.702   5.267   4.022
14773TIP3    H144262   7.710   5.174   4.002
14773TIP3    H244263   7.709   5.311   3.938
14774TIP3   OH244264   4.779   3.820   3.828
14774TIP3    H144265   4.813   3.735   3.803
14774TIP3    H244266   4.723   3.846   3.755
14775TIP3   OH244267   7.591   1.685   0.978
14775TIP3    H144268   7.639   1.603   0.988
14775TIP3    H244269   7.555   1.702   1.064
14776TIP3   OH244270   0.518   7.763   1.054
14776TIP3    H144271   0.602   7.722   1.073
14776TIP3    H244272   0.464   7.692   1.018
14777TIP3   OH244273   6.357   1.780   2.204
14777TIP3    H144274   6.276   1.769   2.155
14777TIP3    H244275   6.344   1.728   2.284
14778TIP3   OH244276   2.252   1.887   0.290
14778TIP3    H144277   2.301   1.808   0.313
14778TIP3    H244278   2.285   1.954   0.350
14779TIP3   OH244279   8.052   0.470   1.738
14779TIP3    H144280   7.997   0.545   1.756
14779TIP3    H244281   8.138   0.507   1.717
14780TIP3   OH244282   7.427   7.448   5.953
14780TIP3    H144283   7.389   7.388   6.016
14780TIP3    H244284   7.352   7.494   5.915
14781TIP3   OH244285   6.650   0.607   4.298
14781TIP3    H144286   6.728   0.653   4.267
14781TIP3    H244287   6.618   0.662   4.370
14782TIP3   OH244288   4.149   3.418   3.281
14782TIP3    H144289   4.107   3.337   3.311
14782TIP3    H244290   4.195   3.394   3.201
14783TIP3   OH244291   4.271   7.166   5.890
14783TIP3    H144292   4.220   7.177   5.970
14783TIP3    H244293   4.331   7.094   5.910
14784TIP3   OH244294   4.767   5.302   1.299
14784TIP3    H144295   4.721   5.233   1.348
14784TIP3    H244296   4.820   5.347   1.365
14785TIP3   OH244297   6.287   1.033   4.583
14785TIP3    H144298   6.377   1.006   4.603
14785TIP3    H244299   6.271   1.108   4.640
14786TIP3   OH244300   4.448   2.483   5.598
14786TIP3    H144301   4.487   2.477   5.510
14786TIP3    H244302   4.522   2.502   5.655
14787TIP3   OH244303   1.968   4.746   2.188
14787TIP3    H144304   1.988   4.658   2.157
14787TIP3    H244305   1.881   4.737   2.228
14788TIP3   OH244306   0.305   3.259   4.903
14788TIP3    H144307   0.262   3.184   4.944
14788TIP3    H244308   0.345   3.223   4.824
14789TIP3   OH244309   5.584   6.332   0.258
14789TIP3    H144310   5.531   6.406   0.285
14789TIP3    H244311   5.573   6.267   0.327
14790TIP3   OH244312   7.627   3.363   0.441
14790TIP3    H144313   7.689   3.435   0.433
14790TIP3    H244314   7.681   3.286   0.454
14791TIP3   OH244315   0.312   0.905   4.971
14791TIP3    H144316   0.385   0.855   4.935
14791TIP3    H244317   0.286   0.856   5.049
14792TIP3   OH244318   0.351   5.550   4.276
14792TIP3    H144319   0.303   5.493   4.335
14792TIP3    H244320   0.441   5.517   4.278
14793TIP3   OH244321   6.892   6.526   0.374
14793TIP3    H144322   6.924   6.614   0.357
14793TIP3    H244323   6.937   6.498   0.453
14794TIP3   OH244324   6.636   2.302   0.747
14794TIP3    H144325   6.613   2.251   0.825
14794TIP3    H244326   6.693   2.243   0.696
14795TIP3   OH244327   7.510   3.501   2.482
14795TIP3    H144328   7.504   3.411   2.450
14795TIP3    H244329   7.477   3.496   2.572
14796TIP3   OH244330   1.213   0.024   0.257
14796TIP3    H144331   1.279  -0.011   0.317
14796TIP3    H244332   1.257   0.026   0.172
14797TIP3   OH244333   0.891   7.581   2.025
14797TIP3    H144334   0.851   7.494   2.033
14797TIP3    H244335   0.823   7.642   2.054
14798TIP3   OH244336   8.197   3.558   1.571
14798TIP3    H144337   8.223   3.511   1.491
14798TIP3    H244338   8.254   3.634   1.573
14799TIP3   OH244339   1.307   1.102   2.249
14799TIP3    H144340   1.254   1.166   2.201
14799TIP3    H244341   1.359   1.058   2.181
14800TIP3   OH244342   2.771   3.291   4.203
14800TIP3    H144343   2.714   3.247   4.141
14800TIP3    H244344   2.859   3.258   4.184
14801TIP3   OH244345   2.082   5.139   6.374
14801TIP3    H144346   2.015   5.072   6.358
14801TIP3    H244347   2.087   5.187   6.291
14802TIP3   OH244348   4.179   3.555   4.064
14802TIP3    H144349   4.218   3.641   4.074
14802TIP3    H244350   4.178   3.540   3.969
14803TIP3   OH244351   0.895   3.544   5.070
14803TIP3    H144352   0.849   3.588   4.999
14803TIP3    H244353   0.829   3.533   5.138
14804TIP3   OH244354   2.948   4.282   5.841
14804TIP3    H144355   3.042   4.292   5.853
14804TIP3    H244356   2.940   4.210   5.777
14805TIP3   OH244357   7.214   5.147   5.142
14805TIP3    H144358   7.275   5.196   5.086
14805TIP3    H244359   7.210   5.060   5.104
14806TIP3   OH244360   0.831   6.854   0.026
14806TIP3    H144361   0.846   6.787  -0.040
14806TIP3    H244362   0.750   6.897  -0.001
14807TIP3   OH244363   3.317   0.803   0.470
14807TIP3    H144364   3.392   0.749   0.447
14807TIP3    H244365   3.344   0.892   0.448
14808TIP3   OH244366   2.983   0.588   0.676
14808TIP3    H144367   2.935   0.618   0.599
14808TIP3    H244368   3.051   0.529   0.642
14809TIP3   OH244369   5.336   0.483   5.616
14809TIP3    H144370   5.323   0.401   5.566
14809TIP3    H244371   5.307   0.462   5.704
14810TIP3   OH244372   4.512   2.035   3.666
14810TIP3    H144373   4.505   2.029   3.761
14810TIP3    H244374   4.426   2.064   3.637
14811TIP3   OH244375   2.482   3.233   3.845
14811TIP3    H144376   2.504   3.207   3.934
14811TIP3    H244377   2.446   3.154   3.805
14812TIP3   OH244378   4.157   2.958   1.352
14812TIP3    H144379   4.227   3.012   1.390
14812TIP3    H244380   4.081   2.977   1.407
14813TIP3   OH244381   4.432   6.157   0.011
14813TIP3    H144382   4.402   6.235   0.056
14813TIP3    H244383   4.528   6.165   0.009
14814TIP3   OH244384   2.487   7.678   1.693
14814TIP3    H144385   2.402   7.701   1.732
14814TIP3    H244386   2.515   7.600   1.743
14815TIP3   OH244387   7.769   3.629   5.761
14815TIP3    H144388   7.813   3.580   5.831
14815TIP3    H244389   7.694   3.670   5.803
14816TIP3   OH244390   0.188   4.922   1.298
14816TIP3    H144391   0.143   4.998   1.261
14816TIP3    H244392   0.177   4.854   1.232
14817TIP3   OH244393   0.510   3.906   0.325
14817TIP3    H144394   0.576   3.840   0.345
14817TIP3    H244395   0.488   3.945   0.410
14818TIP3   OH244396   3.692   4.651   2.710
14818TIP3    H144397   3.640   4.656   2.630
14818TIP3    H244398   3.710   4.558   2.721
14819TIP3   OH244399   8.172   7.093   6.122
14819TIP3    H144400   8.157   7.001   6.098
14819TIP3    H244401   8.152   7.096   6.216
14820TIP3   OH244402   0.597   1.961   4.965
14820TIP3    H144403   0.682   1.933   4.998
14820TIP3    H244404   0.533   1.921   5.024
14821TIP3   OH244405   1.917   5.766   5.005
14821TIP3    H144406   1.853   5.824   5.046
14821TIP3    H244407   1.977   5.825   4.959
14822TIP3   OH244408   3.780   5.419   5.508
14822TIP3    H144409   3.760   5.358   5.579
14822TIP3    H244410   3.695   5.459   5.486
14823TIP3   OH244411   2.040   7.197   3.474
14823TIP3    H144412   2.008   7.273   3.522
14823TIP3    H244413   1.982   7.125   3.501
14824TIP3   OH244414   8.277   1.101   4.142
14824TIP3    H144415   8.265   1.018   4.188
14824TIP3    H244416   8.264   1.079   4.050
14825TIP3   OH244417   5.357   7.422   1.894
14825TIP3    H144418   5.398   7.440   1.810
14825TIP3    H244419   5.420   7.453   1.959
14826TIP3   OH244420   0.976   1.117   4.964
14826TIP3    H144421   0.920   1.086   5.035
14826TIP3    H244422   0.930   1.094   4.884
14827TIP3   OH244423   0.398   3.776   3.267
14827TIP3    H144424   0.376   3.822   3.347
14827TIP3    H244425   0.351   3.693   3.273
14828TIP3   OH244426   0.565   0.391   2.851
14828TIP3    H144427   0.541   0.472   2.805
14828TIP3    H244428   0.483   0.344   2.861
14829TIP3   OH244429   0.241   4.930   6.691
14829TIP3    H144430   0.242   4.905   6.598
14829TIP3    H244431   0.295   5.009   6.695
14830TIP3   OH244432   0.409   5.828   4.023
14830TIP3    H144433   0.387   5.889   3.953
14830TIP3    H244434   0.454   5.756   3.979
   8.30280   7.82795   6.77920   0.00000   0.00000  -2.76760   0.00000  -2.76760  -3.91397
