Title t= 181.00000 step= 90500
19927
    1ASP      N    1   1.664   0.255   2.874
    1ASP    HT1    2   1.577   0.311   2.889
    1ASP    HT2    3   1.734   0.282   2.945
    1ASP    HT3    4   1.632   0.158   2.891
    1ASP     CA    5   1.705   0.276   2.736
    1ASP     HA    6   1.794   0.214   2.736
    1ASP     CB    7   1.606   0.205   2.635
    1ASP    HB1    8   1.518   0.272   2.646
    1ASP    HB2    9   1.583   0.101   2.668
    1ASP     CG   10   1.649   0.195   2.494
    1ASP    OD1   11   1.767   0.220   2.460
    1ASP    OD2   12   1.559   0.172   2.408
    1ASP      C   13   1.738   0.425   2.711
    1ASP      O   14   1.713   0.509   2.796
    2ALA      N   15   1.775   0.468   2.588
    2ALA     HN   16   1.774   0.400   2.515
    2ALA     CA   17   1.808   0.604   2.554
    2ALA     HA   18   1.885   0.644   2.618
    2ALA     CB   19   1.859   0.605   2.408
    2ALA    HB1   20   1.778   0.595   2.333
    2ALA    HB2   21   1.927   0.521   2.382
    2ALA    HB3   22   1.910   0.700   2.383
    2ALA      C   23   1.694   0.707   2.556
    2ALA      O   24   1.578   0.678   2.528
    3ASP      N   25   1.723   0.838   2.590
    3ASP     HN   26   1.815   0.876   2.599
    3ASP     CA   27   1.635   0.948   2.599
    3ASP     HA   28   1.547   0.924   2.658
    3ASP     CB   29   1.713   1.071   2.661
    3ASP    HB1   30   1.638   1.152   2.679
    3ASP    HB2   31   1.805   1.104   2.609
    3ASP     CG   32   1.757   1.037   2.800
    3ASP    OD1   33   1.688   0.969   2.877
    3ASP    OD2   34   1.872   1.077   2.837
    3ASP      C   35   1.593   0.990   2.459
    3ASP      O   36   1.654   0.963   2.356
    4GLY      N   37   1.482   1.062   2.450
    4GLY     HN   38   1.434   1.080   2.536
    4GLY     CA   39   1.427   1.120   2.327
    4GLY    HA1   40   1.322   1.113   2.350
    4GLY    HA2   41   1.452   1.062   2.239
    4GLY      C   42   1.475   1.267   2.312
    4GLY      O   43   1.574   1.302   2.382
    5PRO      N   44   1.420   1.351   2.232
    5PRO     CD   45   1.324   1.317   2.126
    5PRO    HD1   46   1.225   1.304   2.176
    5PRO    HD2   47   1.355   1.226   2.071
    5PRO     CA   48   1.451   1.496   2.234
    5PRO     HA   49   1.554   1.509   2.263
    5PRO     CB   50   1.437   1.526   2.079
    5PRO    HB1   51   1.529   1.494   2.026
    5PRO    HB2   52   1.416   1.634   2.063
    5PRO     CG   53   1.319   1.435   2.030
    5PRO    HG1   54   1.227   1.491   2.056
    5PRO    HG2   55   1.320   1.419   1.920
    5PRO      C   56   1.363   1.565   2.330
    5PRO      O   57   1.254   1.607   2.292
    6GLY      N   58   1.402   1.576   2.461
    6GLY     HN   59   1.478   1.524   2.498
    6GLY     CA   60   1.341   1.661   2.566
    6GLY    HA1   61   1.397   1.655   2.657
    6GLY    HA2   62   1.250   1.603   2.575
    6GLY      C   63   1.298   1.803   2.525
    6GLY      O   64   1.379   1.873   2.463
    7ASP      N   65   1.176   1.843   2.552
    7ASP     HN   66   1.119   1.784   2.608
    7ASP     CA   67   1.132   1.976   2.532
    7ASP     HA   68   1.160   2.003   2.431
    7ASP     CB   69   0.975   1.979   2.549
    7ASP    HB1   70   0.932   2.082   2.544
    7ASP    HB2   71   0.939   1.938   2.646
    7ASP     CG   72   0.906   1.904   2.442
    7ASP    OD1   73   0.953   1.893   2.326
    7ASP    OD2   74   0.783   1.879   2.467
    7ASP      C   75   1.189   2.082   2.627
    7ASP      O   76   1.222   2.049   2.740
    8PRO      N   77   1.209   2.202   2.582
    8PRO     CD   78   1.216   2.245   2.447
    8PRO    HD1   79   1.114   2.226   2.406
    8PRO    HD2   80   1.294   2.197   2.383
    8PRO     CA   81   1.208   2.322   2.670
    8PRO     HA   82   1.305   2.321   2.716
    8PRO     CB   83   1.179   2.441   2.578
    8PRO    HB1   84   1.215   2.536   2.624
    8PRO    HB2   85   1.071   2.457   2.554
    8PRO     CG   86   1.249   2.396   2.453
    8PRO    HG1   87   1.223   2.458   2.364
    8PRO    HG2   88   1.358   2.410   2.462
    8PRO      C   89   1.110   2.333   2.794
    8PRO      O   90   0.998   2.270   2.788
    9ASP      N   91   1.153   2.403   2.906
    9ASP     HN   92   1.245   2.441   2.913
    9ASP     CA   93   1.064   2.444   3.016
    9ASP     HA   94   1.023   2.355   3.062
    9ASP     CB   95   1.140   2.526   3.124
    9ASP    HB1   96   1.072   2.555   3.206
    9ASP    HB2   97   1.198   2.608   3.077
    9ASP     CG   98   1.244   2.441   3.196
    9ASP    OD1   99   1.231   2.316   3.207
    9ASP    OD2  100   1.334   2.511   3.255
    9ASP      C  101   0.940   2.524   2.964
    9ASP      O  102   0.949   2.604   2.870
   10ALA      N  103   0.821   2.505   3.023
   10ALA     HN  104   0.814   2.436   3.095
   10ALA     CA  105   0.692   2.557   2.978
   10ALA     HA  106   0.672   2.516   2.881
   10ALA     CB  107   0.575   2.520   3.076
   10ALA    HB1  108   0.604   2.558   3.176
   10ALA    HB2  109   0.567   2.409   3.079
   10ALA    HB3  110   0.477   2.564   3.046
   10ALA      C  111   0.680   2.711   2.947
   10ALA      O  112   0.753   2.795   3.000
   11GLY      N  113   0.587   2.739   2.850
   11GLY     HN  114   0.526   2.671   2.810
   11GLY     CA  115   0.567   2.870   2.786
   11GLY    HA1  116   0.505   2.859   2.699
   11GLY    HA2  117   0.659   2.916   2.753
   11GLY      C  118   0.493   2.974   2.870
   11GLY    OT1  119   0.429   2.941   2.975
   11GLY    OT2  120   0.512   3.093   2.846
   12SOD    SOD  121   5.201   2.065   3.977
   13SOD    SOD  122   5.910   2.269   4.640
   14SOD    SOD  123   4.997   5.917   3.120
   15SOD    SOD  124   0.089   2.134   1.140
   16SOD    SOD  125   1.006   3.437   2.877
   17SOD    SOD  126   2.270   2.630   4.563
   18SOD    SOD  127   0.699   3.126   1.559
   19SOD    SOD  128   1.911   1.450   0.445
   20SOD    SOD  129   1.026   5.519   2.593
   21SOD    SOD  130   3.945   3.765   2.623
   22SOD    SOD  131   0.056   3.056   2.636
   23SOD    SOD  132   1.735   5.080   2.159
   24SOD    SOD  133   3.215   0.854   3.695
   25SOD    SOD  134   3.887   5.852   1.773
   26SOD    SOD  135   6.098   4.691   1.811
   27SOD    SOD  136   0.110   3.294   3.835
   28SOD    SOD  137   5.144   3.953   0.600
   29SOD    SOD  138   0.228   2.912   0.089
   30SOD    SOD  139   1.994   1.705   3.658
   31SOD    SOD  140   3.218   3.496   1.070
   32SOD    SOD  141   5.534   0.952   0.014
   33SOD    SOD  142   5.688   0.812   3.469
   34CLA    CLA  143   1.012   3.855   4.660
   35CLA    CLA  144   0.050   2.615   1.134
   36CLA    CLA  145   1.399   0.413   2.934
   37CLA    CLA  146   2.650   3.979   2.771
   38CLA    CLA  147   2.826   2.857   4.416
   39CLA    CLA  148   5.003   0.262   1.939
   40CLA    CLA  149   2.966   3.460   0.076
   41CLA    CLA  150   5.407   2.191   4.726
   42CLA    CLA  151   5.730   3.784   0.243
   43CLA    CLA  152   4.821   4.285   2.797
   44CLA    CLA  153   6.232   3.565   4.952
   45CLA    CLA  154   0.302   3.150   3.706
   46CLA    CLA  155   5.625   0.101   1.141
   47CLA    CLA  156   0.433   1.010   0.876
   48CLA    CLA  157   4.826   0.886   3.145
   49CLA    CLA  158   5.781   3.775   1.956
   50CLA    CLA  159   5.452   0.441   4.382
   51CLA    CLA  160   2.927   4.554   4.648
   52TIP3   OH2  161   5.613   1.923   0.715
   52TIP3    H1  162   5.583   1.918   0.625
   52TIP3    H2  163   5.628   1.832   0.741
   53TIP3   OH2  164   1.254   2.230   0.093
   53TIP3    H1  165   1.308   2.195   0.023
   53TIP3    H2  166   1.180   2.272   0.048
   54TIP3   OH2  167   4.612   4.124   3.191
   54TIP3    H1  168   4.605   4.030   3.207
   54TIP3    H2  169   4.652   4.159   3.271
   55TIP3   OH2  170   4.081   5.192   0.875
   55TIP3    H1  171   4.042   5.142   0.946
   55TIP3    H2  172   4.159   5.232   0.913
   56TIP3   OH2  173   5.543   4.718   0.902
   56TIP3    H1  174   5.513   4.670   0.979
   56TIP3    H2  175   5.501   4.674   0.828
   57TIP3   OH2  176   3.137   2.224   2.000
   57TIP3    H1  177   3.213   2.275   1.971
   57TIP3    H2  178   3.093   2.198   1.920
   58TIP3   OH2  179   4.276   4.553   3.029
   58TIP3    H1  180   4.305   4.626   3.084
   58TIP3    H2  181   4.336   4.553   2.955
   59TIP3   OH2  182   0.516   0.164   1.015
   59TIP3    H1  183   0.453   0.236   1.005
   59TIP3    H2  184   0.532   0.133   0.926
   60TIP3   OH2  185   5.269   1.473   0.610
   60TIP3    H1  186   5.264   1.564   0.641
   60TIP3    H2  187   5.222   1.475   0.526
   61TIP3   OH2  188   0.073   3.856   4.219
   61TIP3    H1  189   0.166   3.836   4.231
   61TIP3    H2  190   0.044   3.796   4.151
   62TIP3   OH2  191   2.586   5.067   4.065
   62TIP3    H1  192   2.534   5.146   4.077
   62TIP3    H2  193   2.675   5.093   4.092
   63TIP3   OH2  194   2.304   5.726   2.834
   63TIP3    H1  195   2.236   5.747   2.770
   63TIP3    H2  196   2.357   5.659   2.792
   64TIP3   OH2  197   1.313   1.820   1.927
   64TIP3    H1  198   1.244   1.777   1.876
   64TIP3    H2  199   1.268   1.851   2.006
   65TIP3   OH2  200   2.403   5.118   5.187
   65TIP3    H1  201   2.328   5.146   5.135
   65TIP3    H2  202   2.472   5.104   5.123
   66TIP3   OH2  203   3.146   1.503   0.720
   66TIP3    H1  204   3.119   1.496   0.629
   66TIP3    H2  205   3.217   1.439   0.729
   67TIP3   OH2  206   0.165   1.466   0.665
   67TIP3    H1  207   0.222   1.527   0.619
   67TIP3    H2  208   0.224   1.411   0.716
   68TIP3   OH2  209   2.039   4.393   2.261
   68TIP3    H1  210   1.985   4.334   2.313
   68TIP3    H2  211   2.128   4.376   2.289
   69TIP3   OH2  212   4.628   3.909   4.319
   69TIP3    H1  213   4.651   3.937   4.231
   69TIP3    H2  214   4.689   3.837   4.338
   70TIP3   OH2  215   1.917   2.690   2.776
   70TIP3    H1  216   1.844   2.687   2.839
   70TIP3    H2  217   1.937   2.599   2.757
   71TIP3   OH2  218   1.342   4.642   4.491
   71TIP3    H1  219   1.432   4.640   4.459
   71TIP3    H2  220   1.324   4.735   4.506
   72TIP3   OH2  221   2.031   3.473   3.449
   72TIP3    H1  222   2.092   3.407   3.417
   72TIP3    H2  223   1.971   3.488   3.376
   73TIP3   OH2  224   3.408   3.327   3.018
   73TIP3    H1  225   3.372   3.335   3.106
   73TIP3    H2  226   3.332   3.325   2.960
   74TIP3   OH2  227   0.310   2.537   0.388
   74TIP3    H1  228   0.327   2.443   0.397
   74TIP3    H2  229   0.396   2.576   0.378
   75TIP3   OH2  230   2.083   3.263   4.206
   75TIP3    H1  231   2.044   3.266   4.118
   75TIP3    H2  232   2.017   3.301   4.263
   76TIP3   OH2  233   1.920   1.383   4.097
   76TIP3    H1  234   2.006   1.411   4.130
   76TIP3    H2  235   1.936   1.296   4.060
   77TIP3   OH2  236   1.883   2.911   3.420
   77TIP3    H1  237   1.823   2.970   3.374
   77TIP3    H2  238   1.969   2.929   3.382
   78TIP3   OH2  239   3.489   1.530   3.479
   78TIP3    H1  240   3.487   1.455   3.419
   78TIP3    H2  241   3.578   1.565   3.470
   79TIP3   OH2  242   5.666   3.406   3.565
   79TIP3    H1  243   5.730   3.453   3.512
   79TIP3    H2  244   5.648   3.464   3.638
   80TIP3   OH2  245   2.345   0.943   0.536
   80TIP3    H1  246   2.405   0.869   0.540
   80TIP3    H2  247   2.313   0.954   0.625
   81TIP3   OH2  248   5.132   4.431   0.836
   81TIP3    H1  249   5.225   4.413   0.851
   81TIP3    H2  250   5.116   4.513   0.883
   82TIP3   OH2  251   4.945   0.855   2.663
   82TIP3    H1  252   4.857   0.825   2.643
   82TIP3    H2  253   4.971   0.909   2.588
   83TIP3   OH2  254   4.342   1.254   2.819
   83TIP3    H1  255   4.331   1.159   2.814
   83TIP3    H2  256   4.259   1.290   2.790
   84TIP3   OH2  257   2.413   0.819   2.736
   84TIP3    H1  258   2.378   0.808   2.648
   84TIP3    H2  259   2.414   0.914   2.750
   85TIP3   OH2  260   3.169   0.504   2.530
   85TIP3    H1  261   3.136   0.564   2.597
   85TIP3    H2  262   3.091   0.460   2.496
   86TIP3   OH2  263   3.637   0.873   5.036
   86TIP3    H1  264   3.560   0.914   4.998
   86TIP3    H2  265   3.603   0.793   5.078
   87TIP3   OH2  266   3.606   4.022   1.345
   87TIP3    H1  267   3.537   3.986   1.401
   87TIP3    H2  268   3.640   3.946   1.297
   88TIP3   OH2  269   1.337   0.563   2.443
   88TIP3    H1  270   1.411   0.597   2.493
   88TIP3    H2  271   1.260   0.588   2.494
   89TIP3   OH2  272   2.366   4.759   3.124
   89TIP3    H1  273   2.360   4.778   3.031
   89TIP3    H2  274   2.415   4.677   3.129
   90TIP3   OH2  275   5.503   5.410   1.521
   90TIP3    H1  276   5.477   5.447   1.606
   90TIP3    H2  277   5.591   5.444   1.506
   91TIP3   OH2  278   0.891   2.916   3.646
   91TIP3    H1  279   0.893   2.829   3.607
   91TIP3    H2  280   0.801   2.945   3.636
   92TIP3   OH2  281   1.167   0.015   1.314
   92TIP3    H1  282   1.195  -0.005   1.225
   92TIP3    H2  283   1.073   0.032   1.307
   93TIP3   OH2  284   2.800   5.243   3.413
   93TIP3    H1  285   2.774   5.304   3.482
   93TIP3    H2  286   2.725   5.185   3.402
   94TIP3   OH2  287   2.365   0.026   2.588
   94TIP3    H1  288   2.410   0.099   2.631
   94TIP3    H2  289   2.380   0.040   2.495
   95TIP3   OH2  290   5.722   2.057   4.327
   95TIP3    H1  291   5.663   2.132   4.325
   95TIP3    H2  292   5.810   2.095   4.335
   96TIP3   OH2  293   3.010   3.455   4.525
   96TIP3    H1  294   3.074   3.421   4.462
   96TIP3    H2  295   3.054   3.448   4.610
   97TIP3   OH2  296   0.908   4.908   4.012
   97TIP3    H1  297   0.875   4.883   4.098
   97TIP3    H2  298   0.875   4.996   3.998
   98TIP3   OH2  299   0.848   4.800   2.319
   98TIP3    H1  300   0.755   4.784   2.300
   98TIP3    H2  301   0.869   4.739   2.389
   99TIP3   OH2  302   6.006   1.204   0.883
   99TIP3    H1  303   6.013   1.256   0.803
   99TIP3    H2  304   6.056   1.253   0.948
  100TIP3   OH2  305   1.176   0.368   0.504
  100TIP3    H1  306   1.139   0.282   0.482
  100TIP3    H2  307   1.106   0.430   0.483
  101TIP3   OH2  308   3.122   0.869   2.827
  101TIP3    H1  309   3.086   0.841   2.743
  101TIP3    H2  310   3.047   0.904   2.875
  102TIP3   OH2  311   3.989   3.203   5.003
  102TIP3    H1  312   3.929   3.275   5.021
  102TIP3    H2  313   3.965   3.135   5.065
  103TIP3   OH2  314   6.254   5.667   3.919
  103TIP3    H1  315   6.258   5.742   3.860
  103TIP3    H2  316   6.276   5.592   3.865
  104TIP3   OH2  317   0.381   0.316   1.548
  104TIP3    H1  318   0.307   0.374   1.566
  104TIP3    H2  319   0.342   0.231   1.529
  105TIP3   OH2  320   1.301   0.047   2.496
  105TIP3    H1  321   1.328   0.011   2.580
  105TIP3    H2  322   1.364   0.116   2.478
  106TIP3   OH2  323   0.713   3.279   1.198
  106TIP3    H1  324   0.675   3.210   1.144
  106TIP3    H2  325   0.737   3.348   1.135
  107TIP3   OH2  326   1.564   2.488   0.203
  107TIP3    H1  327   1.625   2.525   0.139
  107TIP3    H2  328   1.494   2.553   0.209
  108TIP3   OH2  329   4.147   1.998   2.312
  108TIP3    H1  330   4.172   2.090   2.303
  108TIP3    H2  331   4.173   1.957   2.230
  109TIP3   OH2  332   3.669   1.091   2.190
  109TIP3    H1  333   3.679   1.151   2.117
  109TIP3    H2  334   3.583   1.112   2.226
  110TIP3   OH2  335   0.915   2.635   3.598
  110TIP3    H1  336   0.849   2.570   3.572
  110TIP3    H2  337   0.944   2.606   3.684
  111TIP3   OH2  338   0.719   2.854   0.226
  111TIP3    H1  339   0.774   2.867   0.303
  111TIP3    H2  340   0.775   2.810   0.163
  112TIP3   OH2  341   3.421   1.142   3.860
  112TIP3    H1  342   3.408   1.234   3.837
  112TIP3    H2  343   3.333   1.105   3.863
  113TIP3   OH2  344   2.565   2.621   3.236
  113TIP3    H1  345   2.513   2.557   3.188
  113TIP3    H2  346   2.527   2.623   3.323
  114TIP3   OH2  347   0.008   0.337   2.901
  114TIP3    H1  348   0.045   0.266   2.953
  114TIP3    H2  349  -0.009   0.299   2.815
  115TIP3   OH2  350   6.063   4.098   3.959
  115TIP3    H1  351   6.115   4.156   4.014
  115TIP3    H2  352   6.035   4.027   4.017
  116TIP3   OH2  353   5.772   5.616   3.399
  116TIP3    H1  354   5.758   5.587   3.489
  116TIP3    H2  355   5.711   5.688   3.387
  117TIP3   OH2  356   2.525   1.949   3.104
  117TIP3    H1  357   2.514   1.883   3.035
  117TIP3    H2  358   2.562   2.025   3.059
  118TIP3   OH2  359   5.231   4.741   1.261
  118TIP3    H1  360   5.221   4.828   1.298
  118TIP3    H2  361   5.291   4.696   1.321
  119TIP3   OH2  362   3.132   4.295   3.358
  119TIP3    H1  363   3.212   4.291   3.409
  119TIP3    H2  364   3.065   4.325   3.420
  120TIP3   OH2  365   2.716   1.552   0.806
  120TIP3    H1  366   2.644   1.610   0.830
  120TIP3    H2  367   2.705   1.475   0.862
  121TIP3   OH2  368   1.095   4.556   0.172
  121TIP3    H1  369   1.123   4.645   0.150
  121TIP3    H2  370   1.015   4.567   0.222
  122TIP3   OH2  371   0.325   1.871   3.534
  122TIP3    H1  372   0.236   1.896   3.508
  122TIP3    H2  373   0.323   1.775   3.536
  123TIP3   OH2  374   3.706   2.323   3.057
  123TIP3    H1  375   3.702   2.322   2.961
  123TIP3    H2  376   3.786   2.276   3.079
  124TIP3   OH2  377   5.714   0.149   2.574
  124TIP3    H1  378   5.779   0.134   2.642
  124TIP3    H2  379   5.658   0.218   2.609
  125TIP3   OH2  380   4.732   0.259   1.751
  125TIP3    H1  381   4.747   0.289   1.661
  125TIP3    H2  382   4.819   0.254   1.789
  126TIP3   OH2  383   1.310   2.106   1.785
  126TIP3    H1  384   1.286   2.140   1.871
  126TIP3    H2  385   1.392   2.059   1.799
  127TIP3   OH2  386   3.987   0.817   2.512
  127TIP3    H1  387   3.955   0.845   2.427
  127TIP3    H2  388   3.944   0.876   2.574
  128TIP3   OH2  389   6.215   0.429   1.760
  128TIP3    H1  390   6.211   0.498   1.826
  128TIP3    H2  391   6.283   0.458   1.699
  129TIP3   OH2  392   4.426   4.410   3.218
  129TIP3    H1  393   4.456   4.451   3.136
  129TIP3    H2  394   4.376   4.333   3.189
  130TIP3   OH2  395   3.573   4.437   1.464
  130TIP3    H1  396   3.575   4.491   1.543
  130TIP3    H2  397   3.647   4.468   1.412
  131TIP3   OH2  398   0.709   5.249   4.509
  131TIP3    H1  399   0.786   5.256   4.452
  131TIP3    H2  400   0.720   5.319   4.573
  132TIP3   OH2  401   5.089   0.063   5.093
  132TIP3    H1  402   5.060  -0.028   5.094
  132TIP3    H2  403   5.131   0.073   5.008
  133TIP3   OH2  404   1.972   3.395   0.676
  133TIP3    H1  405   1.938   3.321   0.626
  133TIP3    H2  406   1.921   3.470   0.645
  134TIP3   OH2  407   0.998   3.621   1.253
  134TIP3    H1  408   0.968   3.571   1.329
  134TIP3    H2  409   1.089   3.594   1.242
  135TIP3   OH2  410   4.739   5.664   4.062
  135TIP3    H1  411   4.652   5.669   4.100
  135TIP3    H2  412   4.783   5.595   4.111
  136TIP3   OH2  413   0.359   5.412   0.847
  136TIP3    H1  414   0.269   5.378   0.835
  136TIP3    H2  415   0.375   5.463   0.768
  137TIP3   OH2  416   0.410   5.084   5.015
  137TIP3    H1  417   0.348   5.038   4.959
  137TIP3    H2  418   0.372   5.171   5.027
  138TIP3   OH2  419   3.168   3.363   2.200
  138TIP3    H1  420   3.176   3.362   2.104
  138TIP3    H2  421   3.256   3.341   2.231
  139TIP3   OH2  422   3.309   5.099   4.066
  139TIP3    H1  423   3.276   5.017   4.029
  139TIP3    H2  424   3.255   5.114   4.143
  140TIP3   OH2  425   0.915   2.581   1.490
  140TIP3    H1  426   0.959   2.628   1.420
  140TIP3    H2  427   0.984   2.528   1.530
  141TIP3   OH2  428   5.646   2.665   4.570
  141TIP3    H1  429   5.694   2.620   4.639
  141TIP3    H2  430   5.595   2.596   4.528
  142TIP3   OH2  431   2.829   0.187   4.481
  142TIP3    H1  432   2.880   0.134   4.420
  142TIP3    H2  433   2.747   0.206   4.434
  143TIP3   OH2  434   2.866   3.780   1.229
  143TIP3    H1  435   2.814   3.761   1.151
  143TIP3    H2  436   2.935   3.839   1.199
  144TIP3   OH2  437   1.222   2.921   4.390
  144TIP3    H1  438   1.258   2.981   4.455
  144TIP3    H2  439   1.287   2.922   4.318
  145TIP3   OH2  440   3.273   5.465   2.514
  145TIP3    H1  441   3.350   5.412   2.534
  145TIP3    H2  442   3.233   5.481   2.600
  146TIP3   OH2  443   2.065   2.092   3.752
  146TIP3    H1  444   2.133   2.119   3.690
  146TIP3    H2  445   2.046   2.171   3.803
  147TIP3   OH2  446   4.213   1.415   3.086
  147TIP3    H1  447   4.288   1.369   3.125
  147TIP3    H2  448   4.147   1.347   3.076
  148TIP3   OH2  449   0.841   5.387   3.013
  148TIP3    H1  450   0.924   5.377   3.059
  148TIP3    H2  451   0.826   5.302   2.972
  149TIP3   OH2  452   6.046   3.935   3.336
  149TIP3    H1  453   6.139   3.958   3.333
  149TIP3    H2  454   6.040   3.869   3.405
  150TIP3   OH2  455   1.745   0.238   3.995
  150TIP3    H1  456   1.780   0.308   3.940
  150TIP3    H2  457   1.814   0.171   3.996
  151TIP3   OH2  458   5.269   1.509   3.671
  151TIP3    H1  459   5.256   1.435   3.611
  151TIP3    H2  460   5.212   1.578   3.636
  152TIP3   OH2  461   2.762   3.006   1.250
  152TIP3    H1  462   2.667   3.019   1.252
  152TIP3    H2  463   2.779   2.966   1.165
  153TIP3   OH2  464   6.210   5.129   1.588
  153TIP3    H1  465   6.176   5.043   1.615
  153TIP3    H2  466   6.218   5.178   1.670
  154TIP3   OH2  467   6.045   2.713   4.149
  154TIP3    H1  468   6.096   2.681   4.074
  154TIP3    H2  469   6.100   2.693   4.225
  155TIP3   OH2  470   5.800   4.082   0.427
  155TIP3    H1  471   5.748   4.088   0.346
  155TIP3    H2  472   5.871   4.022   0.405
  156TIP3   OH2  473   4.319   5.530   3.918
  156TIP3    H1  474   4.326   5.557   3.827
  156TIP3    H2  475   4.324   5.611   3.968
  157TIP3   OH2  476   2.011   0.882   2.654
  157TIP3    H1  477   2.096   0.904   2.616
  157TIP3    H2  478   1.995   0.950   2.720
  158TIP3   OH2  479   4.997   2.102   4.144
  158TIP3    H1  480   5.033   2.145   4.222
  158TIP3    H2  481   4.910   2.141   4.133
  159TIP3   OH2  482   6.281   2.966   0.497
  159TIP3    H1  483   6.204   2.936   0.544
  159TIP3    H2  484   6.354   2.920   0.537
  160TIP3   OH2  485  -0.017   1.324   1.715
  160TIP3    H1  486  -0.041   1.319   1.622
  160TIP3    H2  487   0.074   1.294   1.717
  161TIP3   OH2  488   1.230   3.769   3.032
  161TIP3    H1  489   1.217   3.767   3.127
  161TIP3    H2  490   1.226   3.861   3.009
  162TIP3   OH2  491   3.062   2.357   1.072
  162TIP3    H1  492   3.152   2.389   1.066
  162TIP3    H2  493   3.070   2.263   1.080
  163TIP3   OH2  494   2.042   5.707   3.243
  163TIP3    H1  495   2.073   5.796   3.259
  163TIP3    H2  496   1.952   5.707   3.278
  164TIP3   OH2  497   6.008   0.612   2.507
  164TIP3    H1  498   6.010   0.580   2.417
  164TIP3    H2  499   5.925   0.659   2.515
  165TIP3   OH2  500   4.886   4.799   1.127
  165TIP3    H1  501   4.804   4.753   1.111
  165TIP3    H2  502   4.873   4.845   1.210
  166TIP3   OH2  503   4.887   1.623   4.250
  166TIP3    H1  504   4.846   1.687   4.192
  166TIP3    H2  505   4.932   1.676   4.317
  167TIP3   OH2  506   5.741   3.644   1.239
  167TIP3    H1  507   5.826   3.688   1.238
  167TIP3    H2  508   5.762   3.552   1.253
  168TIP3   OH2  509   1.068   2.276   4.745
  168TIP3    H1  510   1.137   2.222   4.707
  168TIP3    H2  511   1.022   2.313   4.670
  169TIP3   OH2  512   0.235   4.639   5.056
  169TIP3    H1  513   0.201   4.572   4.997
  169TIP3    H2  514   0.323   4.657   5.024
  170TIP3   OH2  515   0.291   1.386   3.032
  170TIP3    H1  516   0.311   1.366   3.124
  170TIP3    H2  517   0.283   1.301   2.990
  171TIP3   OH2  518   6.232   0.434   4.920
  171TIP3    H1  519   6.182   0.478   4.851
  171TIP3    H2  520   6.232   0.496   4.993
  172TIP3   OH2  521   6.227   4.829   1.224
  172TIP3    H1  522   6.321   4.848   1.233
  172TIP3    H2  523   6.187   4.915   1.210
  173TIP3   OH2  524   5.420   3.380   0.579
  173TIP3    H1  525   5.394   3.418   0.662
  173TIP3    H2  526   5.511   3.353   0.592
  174TIP3   OH2  527   1.327   4.089   3.761
  174TIP3    H1  528   1.316   4.171   3.713
  174TIP3    H2  529   1.360   4.027   3.695
  175TIP3   OH2  530   5.359   5.007   1.761
  175TIP3    H1  531   5.430   5.039   1.817
  175TIP3    H2  532   5.389   5.025   1.672
  176TIP3   OH2  533  -0.010   4.532   1.833
  176TIP3    H1  534   0.027   4.606   1.882
  176TIP3    H2  535  -0.028   4.465   1.900
  177TIP3   OH2  536   3.927   5.468   1.653
  177TIP3    H1  537   3.947   5.374   1.648
  177TIP3    H2  538   3.831   5.471   1.657
  178TIP3   OH2  539   4.993   0.633   3.086
  178TIP3    H1  540   5.068   0.659   3.140
  178TIP3    H2  541   4.931   0.705   3.095
  179TIP3   OH2  542   3.965   1.789   0.835
  179TIP3    H1  543   3.883   1.749   0.807
  179TIP3    H2  544   4.021   1.787   0.757
  180TIP3   OH2  545   6.022   4.377   2.738
  180TIP3    H1  546   5.931   4.389   2.765
  180TIP3    H2  547   6.025   4.287   2.705
  181TIP3   OH2  548   6.053   3.190   0.757
  181TIP3    H1  549   5.980   3.252   0.769
  181TIP3    H2  550   6.017   3.121   0.701
  182TIP3   OH2  551   4.289   1.577   0.544
  182TIP3    H1  552   4.293   1.672   0.530
  182TIP3    H2  553   4.209   1.549   0.501
  183TIP3   OH2  554   0.796   1.153   1.246
  183TIP3    H1  555   0.880   1.118   1.277
  183TIP3    H2  556   0.750   1.178   1.327
  184TIP3   OH2  557   4.187   3.897   2.250
  184TIP3    H1  558   4.173   3.822   2.308
  184TIP3    H2  559   4.100   3.935   2.239
  185TIP3   OH2  560   5.013   0.830   4.746
  185TIP3    H1  561   4.939   0.844   4.805
  185TIP3    H2  562   4.977   0.848   4.659
  186TIP3   OH2  563   1.485   0.922   4.722
  186TIP3    H1  564   1.505   0.829   4.712
  186TIP3    H2  565   1.529   0.948   4.803
  187TIP3   OH2  566   2.201   1.279   1.816
  187TIP3    H1  567   2.137   1.305   1.750
  187TIP3    H2  568   2.285   1.279   1.770
  188TIP3   OH2  569   3.923   3.650   2.190
  188TIP3    H1  570   3.860   3.720   2.173
  188TIP3    H2  571   3.986   3.656   2.118
  189TIP3   OH2  572   3.280   0.907   4.713
  189TIP3    H1  573   3.187   0.889   4.724
  189TIP3    H2  574   3.302   0.868   4.629
  190TIP3   OH2  575   0.747   1.630   1.419
  190TIP3    H1  576   0.799   1.550   1.414
  190TIP3    H2  577   0.708   1.639   1.332
  191TIP3   OH2  578   5.423   0.267   3.484
  191TIP3    H1  579   5.408   0.294   3.575
  191TIP3    H2  580   5.338   0.234   3.454
  192TIP3   OH2  581   5.690   5.054   4.832
  192TIP3    H1  582   5.617   5.040   4.892
  192TIP3    H2  583   5.677   4.989   4.763
  193TIP3   OH2  584   4.347   2.690   0.203
  193TIP3    H1  585   4.394   2.766   0.237
  193TIP3    H2  586   4.288   2.725   0.137
  194TIP3   OH2  587   2.511   0.476   1.684
  194TIP3    H1  588   2.459   0.554   1.662
  194TIP3    H2  589   2.570   0.464   1.609
  195TIP3   OH2  590   5.219   2.562   2.110
  195TIP3    H1  591   5.232   2.554   2.204
  195TIP3    H2  592   5.225   2.656   2.093
  196TIP3   OH2  593   2.967   5.366   1.104
  196TIP3    H1  594   3.041   5.403   1.151
  196TIP3    H2  595   2.926   5.306   1.167
  197TIP3   OH2  596   4.366   1.673   2.673
  197TIP3    H1  597   4.306   1.740   2.707
  197TIP3    H2  598   4.451   1.716   2.671
  198TIP3   OH2  599   2.927   1.768   0.759
  198TIP3    H1  600   2.847   1.819   0.752
  198TIP3    H2  601   2.898   1.677   0.759
  199TIP3   OH2  602   5.634   4.916   3.502
  199TIP3    H1  603   5.666   4.832   3.533
  199TIP3    H2  604   5.545   4.899   3.472
  200TIP3   OH2  605   1.237   2.167   0.921
  200TIP3    H1  606   1.244   2.090   0.977
  200TIP3    H2  607   1.282   2.236   0.969
  201TIP3   OH2  608   5.871   3.773   2.264
  201TIP3    H1  609   5.855   3.758   2.171
  201TIP3    H2  610   5.850   3.690   2.306
  202TIP3   OH2  611   2.600   1.966   0.638
  202TIP3    H1  612   2.581   1.955   0.731
  202TIP3    H2  613   2.518   1.947   0.594
  203TIP3   OH2  614   4.052   5.199   1.713
  203TIP3    H1  615   4.008   5.161   1.790
  203TIP3    H2  616   4.126   5.248   1.750
  204TIP3   OH2  617   3.038   4.064   4.025
  204TIP3    H1  618   3.125   4.104   4.019
  204TIP3    H2  619   2.978   4.138   4.027
  205TIP3   OH2  620   5.363   2.551   3.429
  205TIP3    H1  621   5.440   2.561   3.487
  205TIP3    H2  622   5.312   2.481   3.469
  206TIP3   OH2  623   3.227   4.939   4.507
  206TIP3    H1  624   3.217   4.853   4.548
  206TIP3    H2  625   3.321   4.957   4.510
  207TIP3   OH2  626   2.173   0.822   1.084
  207TIP3    H1  627   2.215   0.770   1.153
  207TIP3    H2  628   2.187   0.771   1.004
  208TIP3   OH2  629   6.327   1.230   0.831
  208TIP3    H1  630   6.358   1.161   0.772
  208TIP3    H2  631   6.252   1.191   0.876
  209TIP3   OH2  632   4.313   0.838   4.331
  209TIP3    H1  633   4.220   0.823   4.313
  209TIP3    H2  634   4.313   0.889   4.412
  210TIP3   OH2  635   3.623   5.020   2.386
  210TIP3    H1  636   3.531   4.997   2.402
  210TIP3    H2  637   3.630   5.023   2.291
  211TIP3   OH2  638   4.704   1.961   1.009
  211TIP3    H1  639   4.673   1.966   0.918
  211TIP3    H2  640   4.686   1.871   1.036
  212TIP3   OH2  641   4.641   2.793   4.536
  212TIP3    H1  642   4.657   2.726   4.470
  212TIP3    H2  643   4.614   2.744   4.614
  213TIP3   OH2  644   2.575   5.592   4.684
  213TIP3    H1  645   2.550   5.520   4.626
  213TIP3    H2  646   2.581   5.668   4.626
  214TIP3   OH2  647   1.813   2.408   4.215
  214TIP3    H1  648   1.773   2.332   4.172
  214TIP3    H2  649   1.824   2.381   4.306
  215TIP3   OH2  650   1.445   2.206   0.294
  215TIP3    H1  651   1.384   2.237   0.227
  215TIP3    H2  652   1.488   2.286   0.325
  216TIP3   OH2  653   3.688   0.930   2.621
  216TIP3    H1  654   3.738   1.010   2.603
  216TIP3    H2  655   3.603   0.961   2.651
  217TIP3   OH2  656   2.934   1.988   4.063
  217TIP3    H1  657   2.884   2.008   4.142
  217TIP3    H2  658   2.974   2.071   4.038
  218TIP3   OH2  659   4.587   1.037   3.295
  218TIP3    H1  660   4.623   0.978   3.362
  218TIP3    H2  661   4.611   0.995   3.212
  219TIP3   OH2  662   5.423   3.092   5.076
  219TIP3    H1  663   5.361   3.118   5.008
  219TIP3    H2  664   5.451   3.175   5.115
  220TIP3   OH2  665   2.076   5.265   2.051
  220TIP3    H1  666   2.099   5.309   2.133
  220TIP3    H2  667   2.147   5.288   1.991
  221TIP3   OH2  668   2.225   4.716   1.403
  221TIP3    H1  669   2.148   4.771   1.411
  221TIP3    H2  670   2.208   4.642   1.461
  222TIP3   OH2  671   4.151   2.260   0.171
  222TIP3    H1  672   4.089   2.209   0.120
  222TIP3    H2  673   4.212   2.295   0.107
  223TIP3   OH2  674   3.687   4.683   2.198
  223TIP3    H1  675   3.773   4.720   2.218
  223TIP3    H2  676   3.654   4.653   2.283
  224TIP3   OH2  677   4.654   1.427   3.327
  224TIP3    H1  678   4.581   1.409   3.386
  224TIP3    H2  679   4.639   1.369   3.252
  225TIP3   OH2  680   5.707   3.187   3.980
  225TIP3    H1  681   5.684   3.164   3.890
  225TIP3    H2  682   5.666   3.119   4.033
  226TIP3   OH2  683   3.961   4.556   1.003
  226TIP3    H1  684   4.046   4.546   0.961
  226TIP3    H2  685   3.967   4.502   1.082
  227TIP3   OH2  686   1.064   1.419   1.059
  227TIP3    H1  687   1.012   1.339   1.048
  227TIP3    H2  688   1.108   1.431   0.975
  228TIP3   OH2  689   1.612   5.538   5.146
  228TIP3    H1  690   1.654   5.621   5.170
  228TIP3    H2  691   1.679   5.472   5.167
  229TIP3   OH2  692   4.620   0.789   4.545
  229TIP3    H1  693   4.575   0.715   4.504
  229TIP3    H2  694   4.622   0.766   4.638
  230TIP3   OH2  695   4.334   4.778   5.065
  230TIP3    H1  696   4.383   4.859   5.081
  230TIP3    H2  697   4.397   4.721   5.020
  231TIP3   OH2  698   5.745   0.520   3.225
  231TIP3    H1  699   5.719   0.429   3.240
  231TIP3    H2  700   5.766   0.553   3.312
  232TIP3   OH2  701   4.231   1.314   3.385
  232TIP3    H1  702   4.308   1.302   3.330
  232TIP3    H2  703   4.162   1.263   3.342
  233TIP3   OH2  704   1.828   0.302   2.230
  233TIP3    H1  705   1.753   0.329   2.176
  233TIP3    H2  706   1.789   0.250   2.301
  234TIP3   OH2  707   5.408   1.833   2.717
  234TIP3    H1  708   5.368   1.910   2.677
  234TIP3    H2  709   5.502   1.854   2.721
  235TIP3   OH2  710   2.013   3.658   0.535
  235TIP3    H1  711   2.053   3.634   0.451
  235TIP3    H2  712   2.088   3.682   0.590
  236TIP3   OH2  713   5.941   3.998   2.939
  236TIP3    H1  714   5.948   4.058   2.865
  236TIP3    H2  715   5.859   3.952   2.925
  237TIP3   OH2  716   3.141   2.168   2.760
  237TIP3    H1  717   3.064   2.126   2.721
  237TIP3    H2  718   3.152   2.123   2.844
  238TIP3   OH2  719   1.228   2.535   4.688
  238TIP3    H1  720   1.186   2.621   4.697
  238TIP3    H2  721   1.163   2.482   4.642
  239TIP3   OH2  722   4.448   5.084   2.637
  239TIP3    H1  723   4.519   5.147   2.623
  239TIP3    H2  724   4.388   5.128   2.697
  240TIP3   OH2  725   3.004   5.781   3.637
  240TIP3    H1  726   2.929   5.779   3.577
  240TIP3    H2  727   2.965   5.784   3.724
  241TIP3   OH2  728   1.860   4.873   0.367
  241TIP3    H1  729   1.849   4.787   0.326
  241TIP3    H2  730   1.819   4.864   0.453
  242TIP3   OH2  731   5.940   5.785   4.879
  242TIP3    H1  732   5.949   5.694   4.852
  242TIP3    H2  733   5.921   5.832   4.797
  243TIP3   OH2  734   0.618   5.996   5.035
  243TIP3    H1  735   0.598   5.916   4.987
  243TIP3    H2  736   0.660   5.965   5.116
  244TIP3   OH2  737   3.493   5.184   3.612
  244TIP3    H1  738   3.546   5.121   3.661
  244TIP3    H2  739   3.412   5.193   3.663
  245TIP3   OH2  740   2.402   5.938   3.055
  245TIP3    H1  741   2.454   5.863   3.085
  245TIP3    H2  742   2.385   5.920   2.962
  246TIP3   OH2  743   3.072   0.134   2.497
  246TIP3    H1  744   3.028   0.203   2.547
  246TIP3    H2  745   3.158   0.126   2.540
  247TIP3   OH2  746   5.277   5.461   2.560
  247TIP3    H1  747   5.321   5.416   2.632
  247TIP3    H2  748   5.232   5.392   2.512
  248TIP3   OH2  749   1.613   4.105   1.510
  248TIP3    H1  750   1.674   4.143   1.447
  248TIP3    H2  751   1.646   4.016   1.524
  249TIP3   OH2  752   0.625   4.080   3.089
  249TIP3    H1  753   0.539   4.121   3.085
  249TIP3    H2  754   0.658   4.083   2.999
  250TIP3   OH2  755   2.531   2.884   1.767
  250TIP3    H1  756   2.583   2.963   1.754
  250TIP3    H2  757   2.460   2.911   1.825
  251TIP3   OH2  758   2.526   3.315   3.665
  251TIP3    H1  759   2.450   3.325   3.723
  251TIP3    H2  760   2.497   3.352   3.581
  252TIP3   OH2  761   2.219   1.562   2.561
  252TIP3    H1  762   2.222   1.623   2.488
  252TIP3    H2  763   2.260   1.609   2.634
  253TIP3   OH2  764   6.066   0.344   4.474
  253TIP3    H1  765   5.987   0.321   4.425
  253TIP3    H2  766   6.090   0.431   4.442
  254TIP3   OH2  767   0.440   2.759   3.812
  254TIP3    H1  768   0.397   2.733   3.731
  254TIP3    H2  769   0.487   2.680   3.841
  255TIP3   OH2  770   3.015   4.452   1.116
  255TIP3    H1  771   3.014   4.436   1.210
  255TIP3    H2  772   3.042   4.543   1.107
  256TIP3   OH2  773   4.338   2.544   4.874
  256TIP3    H1  774   4.394   2.589   4.811
  256TIP3    H2  775   4.269   2.608   4.895
  257TIP3   OH2  776   4.043   0.745   0.970
  257TIP3    H1  777   4.034   0.762   1.064
  257TIP3    H2  778   4.041   0.650   0.962
  258TIP3   OH2  779   4.564   0.430   4.243
  258TIP3    H1  780   4.501   0.357   4.245
  258TIP3    H2  781   4.618   0.413   4.166
  259TIP3   OH2  782   5.270   4.226   4.067
  259TIP3    H1  783   5.179   4.251   4.052
  259TIP3    H2  784   5.278   4.140   4.027
  260TIP3   OH2  785   1.437   3.444   2.570
  260TIP3    H1  786   1.404   3.532   2.589
  260TIP3    H2  787   1.454   3.406   2.656
  261TIP3   OH2  788   2.746   4.341   3.131
  261TIP3    H1  789   2.667   4.319   3.081
  261TIP3    H2  790   2.818   4.317   3.073
  262TIP3   OH2  791   4.621   4.504   1.459
  262TIP3    H1  792   4.570   4.423   1.451
  262TIP3    H2  793   4.639   4.512   1.553
  263TIP3   OH2  794   5.893   2.381   0.287
  263TIP3    H1  795   5.899   2.298   0.240
  263TIP3    H2  796   5.982   2.414   0.290
  264TIP3   OH2  797   3.502   0.493   3.978
  264TIP3    H1  798   3.547   0.569   3.941
  264TIP3    H2  799   3.436   0.469   3.913
  265TIP3   OH2  800   1.541   0.858   4.416
  265TIP3    H1  801   1.632   0.830   4.426
  265TIP3    H2  802   1.503   0.852   4.503
  266TIP3   OH2  803   4.905   3.854   3.195
  266TIP3    H1  804   4.926   3.797   3.270
  266TIP3    H2  805   4.960   3.932   3.209
  267TIP3   OH2  806  -0.050   5.595   0.920
  267TIP3    H1  807  -0.036   5.506   0.888
  267TIP3    H2  808  -0.008   5.651   0.854
  268TIP3   OH2  809   1.613   5.853   4.588
  268TIP3    H1  810   1.700   5.888   4.610
  268TIP3    H2  811   1.552   5.914   4.630
  269TIP3   OH2  812   0.842   1.652   2.266
  269TIP3    H1  813   0.767   1.692   2.221
  269TIP3    H2  814   0.901   1.725   2.284
  270TIP3   OH2  815   4.541   0.429   1.546
  270TIP3    H1  816   4.574   0.340   1.555
  270TIP3    H2  817   4.447   0.419   1.535
  271TIP3   OH2  818   1.408   4.727   3.238
  271TIP3    H1  819   1.372   4.665   3.302
  271TIP3    H2  820   1.445   4.672   3.169
  272TIP3   OH2  821   2.611   4.192   4.332
  272TIP3    H1  822   2.634   4.225   4.419
  272TIP3    H2  823   2.652   4.106   4.327
  273TIP3   OH2  824   1.565   1.984   3.692
  273TIP3    H1  825   1.597   2.011   3.606
  273TIP3    H2  826   1.518   2.060   3.725
  274TIP3   OH2  827   0.426   3.738   0.308
  274TIP3    H1  828   0.352   3.786   0.344
  274TIP3    H2  829   0.430   3.767   0.217
  275TIP3   OH2  830   2.894   2.145   3.612
  275TIP3    H1  831   2.925   2.204   3.543
  275TIP3    H2  832   2.838   2.200   3.666
  276TIP3   OH2  833   5.780   5.635   2.478
  276TIP3    H1  834   5.701   5.593   2.443
  276TIP3    H2  835   5.783   5.720   2.433
  277TIP3   OH2  836   0.336   2.216   4.878
  277TIP3    H1  837   0.405   2.158   4.908
  277TIP3    H2  838   0.334   2.287   4.943
  278TIP3   OH2  839   5.557   4.255   2.862
  278TIP3    H1  840   5.519   4.209   2.787
  278TIP3    H2  841   5.488   4.255   2.928
  279TIP3   OH2  842   5.900   0.639   0.863
  279TIP3    H1  843   5.887   0.695   0.939
  279TIP3    H2  844   5.874   0.551   0.892
  280TIP3   OH2  845   1.724   3.851   2.319
  280TIP3    H1  846   1.734   3.938   2.358
  280TIP3    H2  847   1.689   3.867   2.232
  281TIP3   OH2  848   0.799   1.222   2.004
  281TIP3    H1  849   0.813   1.144   2.058
  281TIP3    H2  850   0.704   1.225   1.990
  282TIP3   OH2  851   1.102   0.966   3.859
  282TIP3    H1  852   1.112   0.944   3.767
  282TIP3    H2  853   1.012   0.942   3.880
  283TIP3   OH2  854   1.067   0.804   1.418
  283TIP3    H1  855   1.004   0.870   1.448
  283TIP3    H2  856   1.068   0.738   1.487
  284TIP3   OH2  857   5.910   4.662   4.018
  284TIP3    H1  858   5.856   4.710   3.956
  284TIP3    H2  859   5.852   4.598   4.057
  285TIP3   OH2  860   1.867   3.105   2.025
  285TIP3    H1  861   1.944   3.105   2.082
  285TIP3    H2  862   1.883   3.034   1.963
  286TIP3   OH2  863   6.077   2.720   2.141
  286TIP3    H1  864   5.986   2.736   2.168
  286TIP3    H2  865   6.129   2.765   2.208
  287TIP3   OH2  866   5.871   5.457   2.822
  287TIP3    H1  867   5.942   5.472   2.760
  287TIP3    H2  868   5.899   5.502   2.902
  288TIP3   OH2  869   2.911   0.103   3.552
  288TIP3    H1  870   2.968   0.173   3.521
  288TIP3    H2  871   2.969   0.027   3.561
  289TIP3   OH2  872   2.520   2.115   1.602
  289TIP3    H1  873   2.610   2.143   1.585
  289TIP3    H2  874   2.479   2.190   1.645
  290TIP3   OH2  875   5.501   0.134   3.087
  290TIP3    H1  876   5.439   0.206   3.074
  290TIP3    H2  877   5.525   0.107   2.999
  291TIP3   OH2  878   2.582   2.126   2.435
  291TIP3    H1  879   2.508   2.122   2.375
  291TIP3    H2  880   2.571   2.209   2.481
  292TIP3   OH2  881   4.608   3.531   1.899
  292TIP3    H1  882   4.575   3.540   1.989
  292TIP3    H2  883   4.571   3.606   1.853
  293TIP3   OH2  884   4.739   1.886   2.474
  293TIP3    H1  885   4.702   1.845   2.396
  293TIP3    H2  886   4.744   1.980   2.452
  294TIP3   OH2  887   0.501   2.087   0.238
  294TIP3    H1  888   0.410   2.101   0.213
  294TIP3    H2  889   0.552   2.130   0.169
  295TIP3   OH2  890   4.096   1.088   4.496
  295TIP3    H1  891   4.016   1.081   4.548
  295TIP3    H2  892   4.065   1.097   4.406
  296TIP3   OH2  893   5.283   0.828   1.532
  296TIP3    H1  894   5.333   0.908   1.550
  296TIP3    H2  895   5.236   0.846   1.450
  297TIP3   OH2  896   3.187   5.674   1.970
  297TIP3    H1  897   3.108   5.696   2.019
  297TIP3    H2  898   3.259   5.708   2.023
  298TIP3   OH2  899   2.265   1.566   4.853
  298TIP3    H1  900   2.227   1.608   4.776
  298TIP3    H2  901   2.236   1.476   4.849
  299TIP3   OH2  902   3.536   2.701   2.316
  299TIP3    H1  903   3.623   2.661   2.311
  299TIP3    H2  904   3.475   2.627   2.316
  300TIP3   OH2  905   4.247   1.911   2.772
  300TIP3    H1  906   4.179   1.918   2.706
  300TIP3    H2  907   4.269   2.001   2.794
  301TIP3   OH2  908   1.618   0.898   1.785
  301TIP3    H1  909   1.693   0.891   1.725
  301TIP3    H2  910   1.657   0.897   1.872
  302TIP3   OH2  911   0.747   3.080   2.964
  302TIP3    H1  912   0.751   2.985   2.969
  302TIP3    H2  913   0.660   3.098   2.928
  303TIP3   OH2  914   4.992   5.262   4.639
  303TIP3    H1  915   5.010   5.335   4.699
  303TIP3    H2  916   5.055   5.195   4.663
  304TIP3   OH2  917   2.474   4.288   1.424
  304TIP3    H1  918   2.443   4.329   1.505
  304TIP3    H2  919   2.560   4.326   1.409
  305TIP3   OH2  920   5.204   1.321   3.001
  305TIP3    H1  921   5.124   1.312   3.052
  305TIP3    H2  922   5.216   1.416   2.993
  306TIP3   OH2  923   0.581   5.764   4.883
  306TIP3    H1  924   0.507   5.707   4.859
  306TIP3    H2  925   0.659   5.711   4.867
  307TIP3   OH2  926   1.515   5.375   1.093
  307TIP3    H1  927   1.444   5.312   1.081
  307TIP3    H2  928   1.585   5.344   1.036
  308TIP3   OH2  929   0.572   0.395   1.712
  308TIP3    H1  930   0.507   0.374   1.645
  308TIP3    H2  931   0.650   0.422   1.664
  309TIP3   OH2  932   0.653   4.316   4.602
  309TIP3    H1  933   0.579   4.369   4.632
  309TIP3    H2  934   0.614   4.231   4.581
  310TIP3   OH2  935   0.901   4.088   2.903
  310TIP3    H1  936   0.890   4.148   2.977
  310TIP3    H2  937   0.812   4.076   2.869
  311TIP3   OH2  938   1.447   1.657   5.138
  311TIP3    H1  939   1.470   1.747   5.160
  311TIP3    H2  940   1.380   1.665   5.071
  312TIP3   OH2  941   3.014   1.695   3.603
  312TIP3    H1  942   3.106   1.671   3.608
  312TIP3    H2  943   3.012   1.789   3.617
  313TIP3   OH2  944   4.556   4.119   4.467
  313TIP3    H1  945   4.593   4.058   4.404
  313TIP3    H2  946   4.529   4.064   4.540
  314TIP3   OH2  947   5.969   2.513   5.013
  314TIP3    H1  948   6.009   2.589   4.972
  314TIP3    H2  949   5.892   2.548   5.059
  315TIP3   OH2  950   1.216   2.858   2.275
  315TIP3    H1  951   1.260   2.905   2.204
  315TIP3    H2  952   1.282   2.852   2.344
  316TIP3   OH2  953   0.661   5.456   3.539
  316TIP3    H1  954   0.568   5.444   3.518
  316TIP3    H2  955   0.706   5.445   3.456
  317TIP3   OH2  956   4.037   3.136   1.538
  317TIP3    H1  957   4.047   3.113   1.630
  317TIP3    H2  958   4.058   3.056   1.490
  318TIP3   OH2  959   1.940   0.936   2.248
  318TIP3    H1  960   2.036   0.936   2.252
  318TIP3    H2  961   1.913   1.008   2.305
  319TIP3   OH2  962   0.764   0.925   4.637
  319TIP3    H1  963   0.687   0.908   4.584
  319TIP3    H2  964   0.808   0.840   4.644
  320TIP3   OH2  965   0.705   2.205   0.952
  320TIP3    H1  966   0.800   2.197   0.950
  320TIP3    H2  967   0.673   2.115   0.941
  321TIP3   OH2  968   3.375   2.866   0.566
  321TIP3    H1  969   3.454   2.889   0.518
  321TIP3    H2  970   3.311   2.846   0.498
  322TIP3   OH2  971   4.862   0.099   4.562
  322TIP3    H1  972   4.788   0.100   4.502
  322TIP3    H2  973   4.937   0.127   4.508
  323TIP3   OH2  974   1.632   3.304   4.205
  323TIP3    H1  975   1.693   3.347   4.145
  323TIP3    H2  976   1.582   3.376   4.244
  324TIP3   OH2  977   1.629   4.894   3.964
  324TIP3    H1  978   1.562   4.826   3.961
  324TIP3    H2  979   1.626   4.926   4.055
  325TIP3   OH2  980   2.205   2.951   3.438
  325TIP3    H1  981   2.235   2.980   3.525
  325TIP3    H2  982   2.241   2.863   3.429
  326TIP3   OH2  983   2.879   5.280   5.021
  326TIP3    H1  984   2.881   5.259   4.928
  326TIP3    H2  985   2.788   5.306   5.038
  327TIP3   OH2  986   1.603  -0.004   3.329
  327TIP3    H1  987   1.609   0.039   3.414
  327TIP3    H2  988   1.692  -0.002   3.294
  328TIP3   OH2  989   1.916   1.518   2.460
  328TIP3    H1  990   1.964   1.600   2.470
  328TIP3    H2  991   1.958   1.475   2.385
  329TIP3   OH2  992   1.139   1.254   2.501
  329TIP3    H1  993   1.061   1.224   2.547
  329TIP3    H2  994   1.106   1.311   2.432
  330TIP3   OH2  995   5.521   1.715   0.227
  330TIP3    H1  996   5.592   1.652   0.224
  330TIP3    H2  997   5.444   1.666   0.198
  331TIP3   OH2  998   2.394   3.950   0.750
  331TIP3    H1  999   2.460   3.955   0.818
  331TIP3    H2 1000   2.438   3.911   0.675
  332TIP3   OH2 1001   2.328   1.299   2.543
  332TIP3    H1 1002   2.386   1.329   2.613
  332TIP3    H2 1003   2.252   1.358   2.548
  333TIP3   OH2 1004   4.989   3.539   4.138
  333TIP3    H1 1005   5.083   3.520   4.136
  333TIP3    H2 1006   4.949   3.473   4.083
  334TIP3   OH2 1007   5.267   1.575   3.198
  334TIP3    H1 1008   5.177   1.546   3.212
  334TIP3    H2 1009   5.279   1.570   3.103
  335TIP3   OH2 1010   1.885   0.776   1.180
  335TIP3    H1 1011   1.821   0.706   1.173
  335TIP3    H2 1012   1.965   0.740   1.141
  336TIP3   OH2 1013   3.855   5.765   1.311
  336TIP3    H1 1014   3.861   5.847   1.263
  336TIP3    H2 1015   3.764   5.762   1.342
  337TIP3   OH2 1016   1.160   1.866   4.556
  337TIP3    H1 1017   1.113   1.887   4.475
  337TIP3    H2 1018   1.094   1.875   4.625
  338TIP3   OH2 1019   5.077   0.465   5.047
  338TIP3    H1 1020   5.137   0.474   4.973
  338TIP3    H2 1021   5.120   0.402   5.105
  339TIP3   OH2 1022   1.562   3.508   3.717
  339TIP3    H1 1023   1.617   3.535   3.643
  339TIP3    H2 1024   1.474   3.507   3.682
  340TIP3   OH2 1025   5.327   2.745   1.333
  340TIP3    H1 1026   5.380   2.669   1.309
  340TIP3    H2 1027   5.369   2.780   1.411
  341TIP3   OH2 1028   1.365   0.355   5.199
  341TIP3    H1 1029   1.333   0.398   5.279
  341TIP3    H2 1030   1.352   0.421   5.130
  342TIP3   OH2 1031   1.844   4.825   4.828
  342TIP3    H1 1032   1.919   4.810   4.885
  342TIP3    H2 1033   1.768   4.801   4.882
  343TIP3   OH2 1034   3.084   0.302   4.221
  343TIP3    H1 1035   3.070   0.210   4.243
  343TIP3    H2 1036   2.996   0.338   4.209
  344TIP3   OH2 1037   3.355   0.091   4.530
  344TIP3    H1 1038   3.347   0.024   4.462
  344TIP3    H2 1039   3.306   0.166   4.496
  345TIP3   OH2 1040   5.868   1.656   0.034
  345TIP3    H1 1041   5.850   1.701  -0.048
  345TIP3    H2 1042   5.907   1.723   0.090
  346TIP3   OH2 1043   5.585   2.514   0.108
  346TIP3    H1 1044   5.674   2.479   0.104
  346TIP3    H2 1045   5.534   2.445   0.151
  347TIP3   OH2 1046   2.374   5.406   4.557
  347TIP3    H1 1047   2.390   5.421   4.464
  347TIP3    H2 1048   2.282   5.380   4.562
  348TIP3   OH2 1049   5.441   3.590   0.800
  348TIP3    H1 1050   5.526   3.591   0.756
  348TIP3    H2 1051   5.463   3.582   0.893
  349TIP3   OH2 1052   5.661   4.456   3.118
  349TIP3    H1 1053   5.634   4.495   3.035
  349TIP3    H2 1054   5.604   4.381   3.129
  350TIP3   OH2 1055   5.887   1.104   1.360
  350TIP3    H1 1056   5.965   1.049   1.370
  350TIP3    H2 1057   5.901   1.176   1.421
  351TIP3   OH2 1058   6.196   3.003   4.608
  351TIP3    H1 1059   6.269   3.057   4.578
  351TIP3    H2 1060   6.204   2.921   4.559
  352TIP3   OH2 1061   4.826   5.613   2.414
  352TIP3    H1 1062   4.856   5.682   2.355
  352TIP3    H2 1063   4.896   5.604   2.479
  353TIP3   OH2 1064   6.032   4.195   3.258
  353TIP3    H1 1065   6.010   4.103   3.277
  353TIP3    H2 1066   6.113   4.211   3.307
  354TIP3   OH2 1067   3.872   2.699   1.041
  354TIP3    H1 1068   3.937   2.769   1.032
  354TIP3    H2 1069   3.808   2.716   0.972
  355TIP3   OH2 1070   0.993   3.636   0.618
  355TIP3    H1 1071   1.068   3.577   0.610
  355TIP3    H2 1072   1.027   3.711   0.668
  356TIP3   OH2 1073   0.438   4.689   3.299
  356TIP3    H1 1074   0.446   4.751   3.372
  356TIP3    H2 1075   0.387   4.736   3.233
  357TIP3   OH2 1076   0.327   3.847   3.604
  357TIP3    H1 1077   0.358   3.844   3.513
  357TIP3    H2 1078   0.370   3.924   3.641
  358TIP3   OH2 1079   1.601   2.803   1.354
  358TIP3    H1 1080   1.689   2.767   1.364
  358TIP3    H2 1081   1.554   2.737   1.302
  359TIP3   OH2 1082   0.792   0.522   1.574
  359TIP3    H1 1083   0.886   0.538   1.579
  359TIP3    H2 1084   0.782   0.461   1.500
  360TIP3   OH2 1085   1.911   4.127   3.275
  360TIP3    H1 1086   1.924   4.125   3.180
  360TIP3    H2 1087   1.920   4.219   3.298
  361TIP3   OH2 1088   4.319   0.744   0.357
  361TIP3    H1 1089   4.336   0.659   0.318
  361TIP3    H2 1090   4.226   0.741   0.382
  362TIP3   OH2 1091   1.294   5.049   3.021
  362TIP3    H1 1092   1.342   5.098   3.088
  362TIP3    H2 1093   1.285   4.962   3.058
  363TIP3   OH2 1094   6.134   1.441   1.857
  363TIP3    H1 1095   6.062   1.396   1.813
  363TIP3    H2 1096   6.212   1.420   1.805
  364TIP3   OH2 1097   5.303   1.855   1.058
  364TIP3    H1 1098   5.342   1.892   1.137
  364TIP3    H2 1099   5.350   1.898   0.986
  365TIP3   OH2 1100   1.912   4.563   1.363
  365TIP3    H1 1101   1.955   4.599   1.286
  365TIP3    H2 1102   1.833   4.615   1.374
  366TIP3   OH2 1103   0.511   1.074   3.819
  366TIP3    H1 1104   0.449   1.142   3.792
  366TIP3    H2 1105   0.594   1.120   3.831
  367TIP3   OH2 1106   4.564   0.717   3.056
  367TIP3    H1 1107   4.577   0.680   2.969
  367TIP3    H2 1108   4.652   0.729   3.091
  368TIP3   OH2 1109   2.389   1.597   3.687
  368TIP3    H1 1110   2.430   1.533   3.629
  368TIP3    H2 1111   2.374   1.550   3.769
  369TIP3   OH2 1112   5.482   4.239   3.466
  369TIP3    H1 1113   5.414   4.307   3.462
  369TIP3    H2 1114   5.534   4.261   3.543
  370TIP3   OH2 1115   3.913   1.336   0.670
  370TIP3    H1 1116   3.965   1.288   0.605
  370TIP3    H2 1117   3.906   1.425   0.634
  371TIP3   OH2 1118   4.948   0.738   2.043
  371TIP3    H1 1119   4.928   0.724   1.950
  371TIP3    H2 1120   5.035   0.778   2.042
  372TIP3   OH2 1121   3.102   0.511   0.534
  372TIP3    H1 1122   3.033   0.575   0.518
  372TIP3    H2 1123   3.083   0.478   0.622
  373TIP3   OH2 1124   2.411   1.856   3.419
  373TIP3    H1 1125   2.497   1.891   3.399
  373TIP3    H2 1126   2.400   1.782   3.360
  374TIP3   OH2 1127   4.368   1.861   0.525
  374TIP3    H1 1128   4.324   1.942   0.499
  374TIP3    H2 1129   4.434   1.846   0.457
  375TIP3   OH2 1130   2.380   5.669   4.246
  375TIP3    H1 1131   2.285   5.678   4.251
  375TIP3    H2 1132   2.413   5.758   4.259
  376TIP3   OH2 1133   3.525   3.241   0.291
  376TIP3    H1 1134   3.493   3.331   0.285
  376TIP3    H2 1135   3.511   3.217   0.382
  377TIP3   OH2 1136   3.039   0.237   0.056
  377TIP3    H1 1137   3.102   0.308   0.043
  377TIP3    H2 1138   3.011   0.246   0.147
  378TIP3   OH2 1139   2.038   2.867   0.896
  378TIP3    H1 1140   2.072   2.917   0.970
  378TIP3    H2 1141   2.045   2.776   0.924
  379TIP3   OH2 1142   4.737   1.653   5.121
  379TIP3    H1 1143   4.731   1.560   5.101
  379TIP3    H2 1144   4.740   1.696   5.035
  380TIP3   OH2 1145   2.414   2.625   5.109
  380TIP3    H1 1146   2.416   2.699   5.171
  380TIP3    H2 1147   2.339   2.572   5.137
  381TIP3   OH2 1148   1.896   4.467   3.802
  381TIP3    H1 1149   1.814   4.489   3.758
  381TIP3    H2 1150   1.884   4.377   3.832
  382TIP3   OH2 1151   0.364   2.498   1.990
  382TIP3    H1 1152   0.285   2.450   2.014
  382TIP3    H2 1153   0.421   2.432   1.951
  383TIP3   OH2 1154   4.154   3.673   1.151
  383TIP3    H1 1155   4.176   3.607   1.085
  383TIP3    H2 1156   4.233   3.727   1.157
  384TIP3   OH2 1157   6.087   2.967   1.635
  384TIP3    H1 1158   6.033   2.930   1.565
  384TIP3    H2 1159   6.153   3.019   1.589
  385TIP3   OH2 1160   5.990   1.211   3.091
  385TIP3    H1 1161   6.000   1.116   3.085
  385TIP3    H2 1162   5.902   1.228   3.057
  386TIP3   OH2 1163   2.653   4.338   4.097
  386TIP3    H1 1164   2.621   4.320   4.009
  386TIP3    H2 1165   2.657   4.253   4.140
  387TIP3   OH2 1166   1.099   2.625   2.228
  387TIP3    H1 1167   1.153   2.561   2.183
  387TIP3    H2 1168   1.154   2.703   2.236
  388TIP3   OH2 1169   1.552   2.403   3.371
  388TIP3    H1 1170   1.572   2.456   3.448
  388TIP3    H2 1171   1.477   2.447   3.330
  389TIP3   OH2 1172   4.818   1.482   4.608
  389TIP3    H1 1173   4.806   1.456   4.517
  389TIP3    H2 1174   4.845   1.402   4.653
  390TIP3   OH2 1175   4.049   2.692   4.633
  390TIP3    H1 1176   4.069   2.744   4.555
  390TIP3    H2 1177   4.086   2.606   4.614
  391TIP3   OH2 1178   6.322   1.680   1.208
  391TIP3    H1 1179   6.275   1.641   1.282
  391TIP3    H2 1180   6.254   1.717   1.153
  392TIP3   OH2 1181   2.107   0.139   2.708
  392TIP3    H1 1182   2.183   0.105   2.661
  392TIP3    H2 1183   2.111   0.233   2.694
  393TIP3   OH2 1184   2.561   1.054   3.386
  393TIP3    H1 1185   2.507   1.052   3.307
  393TIP3    H2 1186   2.650   1.039   3.355
  394TIP3   OH2 1187   3.744   0.770   4.438
  394TIP3    H1 1188   3.692   0.800   4.513
  394TIP3    H2 1189   3.712   0.681   4.421
  395TIP3   OH2 1190   5.964   4.735   2.935
  395TIP3    H1 1191   6.022   4.685   2.877
  395TIP3    H2 1192   6.002   4.724   3.022
  396TIP3   OH2 1193   4.364   2.348   1.360
  396TIP3    H1 1194   4.397   2.436   1.379
  396TIP3    H2 1195   4.381   2.335   1.267
  397TIP3   OH2 1196   5.547   1.663   1.087
  397TIP3    H1 1197   5.458   1.656   1.123
  397TIP3    H2 1198   5.604   1.659   1.164
  398TIP3   OH2 1199   3.213   3.290   5.165
  398TIP3    H1 1200   3.168   3.357   5.217
  398TIP3    H2 1201   3.293   3.333   5.134
  399TIP3   OH2 1202   3.290   4.177   3.931
  399TIP3    H1 1203   3.367   4.171   3.874
  399TIP3    H2 1204   3.322   4.220   4.010
  400TIP3   OH2 1205   5.339   2.546   3.143
  400TIP3    H1 1206   5.419   2.499   3.120
  400TIP3    H2 1207   5.339   2.548   3.238
  401TIP3   OH2 1208   5.329   4.630   1.507
  401TIP3    H1 1209   5.410   4.650   1.553
  401TIP3    H2 1210   5.262   4.684   1.550
  402TIP3   OH2 1211   0.633  -0.026   0.622
  402TIP3    H1 1212   0.712   0.027   0.608
  402TIP3    H2 1213   0.604  -0.049   0.534
  403TIP3   OH2 1214   5.375   4.491   2.750
  403TIP3    H1 1215   5.290   4.484   2.795
  403TIP3    H2 1216   5.397   4.401   2.727
  404TIP3   OH2 1217   0.049   2.867   2.817
  404TIP3    H1 1218   0.116   2.845   2.883
  404TIP3    H2 1219   0.026   2.783   2.778
  405TIP3   OH2 1220   3.997   3.701   0.849
  405TIP3    H1 1221   4.009   3.747   0.932
  405TIP3    H2 1222   4.026   3.763   0.783
  406TIP3   OH2 1223   5.593   0.573   3.493
  406TIP3    H1 1224   5.530   0.610   3.555
  406TIP3    H2 1225   5.550   0.496   3.457
  407TIP3   OH2 1226   1.145   1.794   2.133
  407TIP3    H1 1227   1.162   1.709   2.174
  407TIP3    H2 1228   1.081   1.836   2.190
  408TIP3   OH2 1229   0.703   3.460   1.891
  408TIP3    H1 1230   0.614   3.457   1.855
  408TIP3    H2 1231   0.689   3.457   1.986
  409TIP3   OH2 1232   1.529   0.287   3.583
  409TIP3    H1 1233   1.605   0.324   3.540
  409TIP3    H2 1234   1.456   0.306   3.525
  410TIP3   OH2 1235   4.735   1.271   4.816
  410TIP3    H1 1236   4.709   1.311   4.899
  410TIP3    H2 1237   4.658   1.278   4.760
  411TIP3   OH2 1238   5.379   3.405   3.852
  411TIP3    H1 1239   5.334   3.404   3.767
  411TIP3    H2 1240   5.459   3.455   3.836
  412TIP3   OH2 1241   0.184   3.522   3.224
  412TIP3    H1 1242   0.227   3.568   3.152
  412TIP3    H2 1243   0.255   3.498   3.283
  413TIP3   OH2 1244   2.476   2.134   0.192
  413TIP3    H1 1245   2.519   2.217   0.211
  413TIP3    H2 1246   2.446   2.142   0.102
  414TIP3   OH2 1247   0.785   4.812   1.790
  414TIP3    H1 1248   0.697   4.848   1.801
  414TIP3    H2 1249   0.791   4.746   1.859
  415TIP3   OH2 1250   5.193   4.453   2.491
  415TIP3    H1 1251   5.131   4.518   2.457
  415TIP3    H2 1252   5.279   4.490   2.471
  416TIP3   OH2 1253   0.255   5.378   2.321
  416TIP3    H1 1254   0.239   5.301   2.375
  416TIP3    H2 1255   0.186   5.375   2.254
  417TIP3   OH2 1256   3.722   0.249   0.144
  417TIP3    H1 1257   3.651   0.190   0.170
  417TIP3    H2 1258   3.777   0.197   0.086
  418TIP3   OH2 1259   4.803   1.686   1.932
  418TIP3    H1 1260   4.798   1.780   1.946
  418TIP3    H2 1261   4.885   1.660   1.975
  419TIP3   OH2 1262   4.302   3.083   2.910
  419TIP3    H1 1263   4.347   3.157   2.871
  419TIP3    H2 1264   4.233   3.061   2.848
  420TIP3   OH2 1265   0.265   2.082   4.297
  420TIP3    H1 1266   0.344   2.040   4.262
  420TIP3    H2 1267   0.193   2.039   4.251
  421TIP3   OH2 1268   2.587   1.594   1.881
  421TIP3    H1 1269   2.555   1.553   1.961
  421TIP3    H2 1270   2.679   1.615   1.900
  422TIP3   OH2 1271   0.250   1.204   0.479
  422TIP3    H1 1272   0.282   1.289   0.450
  422TIP3    H2 1273   0.279   1.143   0.411
  423TIP3   OH2 1274   2.440   0.732   1.615
  423TIP3    H1 1275   2.375   0.792   1.580
  423TIP3    H2 1276   2.518   0.786   1.629
  424TIP3   OH2 1277   1.668   1.468   2.572
  424TIP3    H1 1278   1.750   1.490   2.527
  424TIP3    H2 1279   1.641   1.385   2.533
  425TIP3   OH2 1280   5.250   1.270   2.277
  425TIP3    H1 1281   5.328   1.298   2.229
  425TIP3    H2 1282   5.209   1.351   2.306
  426TIP3   OH2 1283   6.141   5.579   1.123
  426TIP3    H1 1284   6.203   5.584   1.050
  426TIP3    H2 1285   6.055   5.576   1.081
  427TIP3   OH2 1286   0.694   5.562   3.812
  427TIP3    H1 1287   0.706   5.576   3.718
  427TIP3    H2 1288   0.606   5.525   3.819
  428TIP3   OH2 1289   2.926   0.398   0.752
  428TIP3    H1 1290   2.882   0.426   0.672
  428TIP3    H2 1291   2.857   0.354   0.803
  429TIP3   OH2 1292   0.626   0.103   5.026
  429TIP3    H1 1293   0.658   0.013   5.023
  429TIP3    H2 1294   0.531   0.095   5.035
  430TIP3   OH2 1295   3.569   5.399   2.081
  430TIP3    H1 1296   3.563   5.457   2.157
  430TIP3    H2 1297   3.549   5.455   2.006
  431TIP3   OH2 1298   1.174   3.017   4.811
  431TIP3    H1 1299   1.151   3.093   4.758
  431TIP3    H2 1300   1.111   3.019   4.884
  432TIP3   OH2 1301   2.511   3.120   4.906
  432TIP3    H1 1302   2.493   3.207   4.941
  432TIP3    H2 1303   2.590   3.131   4.853
  433TIP3   OH2 1304   0.071   1.215   2.570
  433TIP3    H1 1305  -0.019   1.182   2.564
  433TIP3    H2 1306   0.107   1.202   2.482
  434TIP3   OH2 1307   6.328   4.444   0.602
  434TIP3    H1 1308   6.256   4.479   0.655
  434TIP3    H2 1309   6.289   4.429   0.516
  435TIP3   OH2 1310   4.755   0.237   2.946
  435TIP3    H1 1311   4.816   0.222   2.874
  435TIP3    H2 1312   4.672   0.256   2.904
  436TIP3   OH2 1313   4.204   2.304   2.223
  436TIP3    H1 1314   4.200   2.395   2.252
  436TIP3    H2 1315   4.149   2.302   2.144
  437TIP3   OH2 1316   1.887   5.520   0.412
  437TIP3    H1 1317   1.880   5.463   0.336
  437TIP3    H2 1318   1.935   5.469   0.477
  438TIP3   OH2 1319   4.602   4.724   4.531
  438TIP3    H1 1320   4.652   4.644   4.546
  438TIP3    H2 1321   4.668   4.794   4.538
  439TIP3   OH2 1322   6.362   4.274   1.051
  439TIP3    H1 1323   6.281   4.304   1.010
  439TIP3    H2 1324   6.339   4.263   1.144
  440TIP3   OH2 1325   2.495   4.147   0.358
  440TIP3    H1 1326   2.558   4.212   0.387
  440TIP3    H2 1327   2.427   4.198   0.314
  441TIP3   OH2 1328   6.141   1.438   3.079
  441TIP3    H1 1329   6.084   1.365   3.105
  441TIP3    H2 1330   6.180   1.409   2.997
  442TIP3   OH2 1331   2.829   1.113   0.765
  442TIP3    H1 1332   2.749   1.146   0.805
  442TIP3    H2 1333   2.849   1.032   0.812
  443TIP3   OH2 1334   4.781   0.833   4.897
  443TIP3    H1 1335   4.687   0.815   4.890
  443TIP3    H2 1336   4.786   0.919   4.939
  444TIP3   OH2 1337   3.361   2.773   3.336
  444TIP3    H1 1338   3.269   2.747   3.338
  444TIP3    H2 1339   3.360   2.864   3.307
  445TIP3   OH2 1340   6.270   2.545   4.713
  445TIP3    H1 1341   6.273   2.472   4.774
  445TIP3    H2 1342   6.287   2.505   4.627
  446TIP3   OH2 1343   4.370   2.572   1.618
  446TIP3    H1 1344   4.416   2.622   1.685
  446TIP3    H2 1345   4.282   2.558   1.654
  447TIP3   OH2 1346   1.055   5.765   2.950
  447TIP3    H1 1347   0.993   5.836   2.964
  447TIP3    H2 1348   1.129   5.806   2.906
  448TIP3   OH2 1349   2.004   3.438   2.462
  448TIP3    H1 1350   1.928   3.413   2.516
  448TIP3    H2 1351   1.966   3.482   2.386
  449TIP3   OH2 1352   2.266   5.940   2.149
  449TIP3    H1 1353   2.309   5.900   2.225
  449TIP3    H2 1354   2.317   6.019   2.131
  450TIP3   OH2 1355   3.768   0.061   1.651
  450TIP3    H1 1356   3.692   0.008   1.674
  450TIP3    H2 1357   3.839  -0.003   1.639
  451TIP3   OH2 1358   1.213   2.804   5.168
  451TIP3    H1 1359   1.291   2.762   5.132
  451TIP3    H2 1360   1.157   2.732   5.195
  452TIP3   OH2 1361   2.252   2.213   3.579
  452TIP3    H1 1362   2.334   2.252   3.548
  452TIP3    H2 1363   2.186   2.246   3.517
  453TIP3   OH2 1364   0.124   5.522   1.186
  453TIP3    H1 1365   0.140   5.474   1.105
  453TIP3    H2 1366   0.056   5.585   1.163
  454TIP3   OH2 1367   2.045   3.358   3.165
  454TIP3    H1 1368   2.046   3.334   3.072
  454TIP3    H2 1369   1.952   3.368   3.186
  455TIP3   OH2 1370   4.883   1.643   3.930
  455TIP3    H1 1371   4.868   1.679   3.842
  455TIP3    H2 1372   4.839   1.704   3.989
  456TIP3   OH2 1373   2.998   2.607   4.445
  456TIP3    H1 1374   2.982   2.558   4.525
  456TIP3    H2 1375   2.922   2.665   4.437
  457TIP3   OH2 1376   5.680   1.963   1.364
  457TIP3    H1 1377   5.772   1.938   1.353
  457TIP3    H2 1378   5.675   2.053   1.333
  458TIP3   OH2 1379   1.230   4.189   2.471
  458TIP3    H1 1380   1.230   4.132   2.395
  458TIP3    H2 1381   1.303   4.159   2.525
  459TIP3   OH2 1382   2.803   4.240   3.778
  459TIP3    H1 1383   2.861   4.266   3.849
  459TIP3    H2 1384   2.734   4.306   3.777
  460TIP3   OH2 1385   5.044   3.611   2.129
  460TIP3    H1 1386   4.987   3.586   2.056
  460TIP3    H2 1387   5.103   3.536   2.140
  461TIP3   OH2 1388   1.091   3.097   0.571
  461TIP3    H1 1389   1.055   3.161   0.509
  461TIP3    H2 1390   1.065   3.012   0.536
  462TIP3   OH2 1391   0.756   3.936   2.190
  462TIP3    H1 1392   0.701   4.015   2.195
  462TIP3    H2 1393   0.844   3.970   2.174
  463TIP3   OH2 1394   1.793   5.549   4.898
  463TIP3    H1 1395   1.729   5.611   4.934
  463TIP3    H2 1396   1.790   5.563   4.804
  464TIP3   OH2 1397   5.350   4.219   2.655
  464TIP3    H1 1398   5.387   4.244   2.570
  464TIP3    H2 1399   5.256   4.215   2.639
  465TIP3   OH2 1400   6.335   3.293   3.614
  465TIP3    H1 1401   6.369   3.226   3.555
  465TIP3    H2 1402   6.304   3.362   3.555
  466TIP3   OH2 1403   5.017   3.382   2.366
  466TIP3    H1 1404   5.047   3.368   2.276
  466TIP3    H2 1405   5.077   3.447   2.401
  467TIP3   OH2 1406   1.971   0.971   0.108
  467TIP3    H1 1407   1.975   1.065   0.089
  467TIP3    H2 1408   2.044   0.955   0.168
  468TIP3   OH2 1409   2.061   4.170   4.099
  468TIP3    H1 1410   2.023   4.133   4.019
  468TIP3    H2 1411   2.152   4.141   4.098
  469TIP3   OH2 1412   0.714   0.378   1.319
  469TIP3    H1 1413   0.683   0.415   1.236
  469TIP3    H2 1414   0.706   0.283   1.307
  470TIP3   OH2 1415   1.849   2.461   0.376
  470TIP3    H1 1416   1.793   2.454   0.453
  470TIP3    H2 1417   1.806   2.405   0.310
  471TIP3   OH2 1418   1.733   2.279   0.169
  471TIP3    H1 1419   1.758   2.287   0.077
  471TIP3    H2 1420   1.655   2.334   0.178
  472TIP3   OH2 1421   4.505   2.726   4.755
  472TIP3    H1 1422   4.570   2.775   4.805
  472TIP3    H2 1423   4.434   2.788   4.739
  473TIP3   OH2 1424   6.136   0.572   0.365
  473TIP3    H1 1425   6.136   0.605   0.455
  473TIP3    H2 1426   6.213   0.612   0.325
  474TIP3   OH2 1427   2.152   4.269   4.795
  474TIP3    H1 1428   2.145   4.238   4.705
  474TIP3    H2 1429   2.072   4.320   4.809
  475TIP3   OH2 1430   1.665   5.625   2.039
  475TIP3    H1 1431   1.655   5.564   1.967
  475TIP3    H2 1432   1.721   5.694   2.005
  476TIP3   OH2 1433   3.644   1.521   4.318
  476TIP3    H1 1434   3.636   1.520   4.413
  476TIP3    H2 1435   3.661   1.613   4.296
  477TIP3   OH2 1436   0.042   5.636   2.256
  477TIP3    H1 1437   0.078   5.697   2.321
  477TIP3    H2 1438   0.116   5.618   2.197
  478TIP3   OH2 1439   3.760   0.564   0.968
  478TIP3    H1 1440   3.738   0.587   0.877
  478TIP3    H2 1441   3.850   0.532   0.963
  479TIP3   OH2 1442   4.167   2.986   3.918
  479TIP3    H1 1443   4.193   2.958   3.830
  479TIP3    H2 1444   4.154   2.904   3.966
  480TIP3   OH2 1445   3.615   3.371   2.429
  480TIP3    H1 1446   3.656   3.423   2.497
  480TIP3    H2 1447   3.578   3.296   2.475
  481TIP3   OH2 1448   3.606   4.753   0.904
  481TIP3    H1 1449   3.686   4.710   0.873
  481TIP3    H2 1450   3.561   4.780   0.824
  482TIP3   OH2 1451   0.624   0.454   2.123
  482TIP3    H1 1452   0.621   0.415   2.210
  482TIP3    H2 1453   0.713   0.438   2.092
  483TIP3   OH2 1454   3.104   3.640   2.335
  483TIP3    H1 1455   3.120   3.582   2.260
  483TIP3    H2 1456   3.024   3.608   2.375
  484TIP3   OH2 1457   4.603   1.700   1.105
  484TIP3    H1 1458   4.641   1.616   1.130
  484TIP3    H2 1459   4.509   1.683   1.099
  485TIP3   OH2 1460   3.117   2.594   3.358
  485TIP3    H1 1461   3.109   2.597   3.263
  485TIP3    H2 1462   3.046   2.651   3.390
  486TIP3   OH2 1463   0.212   5.124   1.063
  486TIP3    H1 1464   0.203   5.069   1.141
  486TIP3    H2 1465   0.289   5.089   1.018
  487TIP3   OH2 1466   0.261   3.241   4.015
  487TIP3    H1 1467   0.354   3.251   4.037
  487TIP3    H2 1468   0.240   3.151   4.040
  488TIP3   OH2 1469   3.372   1.417   2.296
  488TIP3    H1 1470   3.440   1.484   2.286
  488TIP3    H2 1471   3.314   1.431   2.221
  489TIP3   OH2 1472   1.577   3.054   2.282
  489TIP3    H1 1473   1.566   3.063   2.187
  489TIP3    H2 1474   1.623   3.133   2.309
  490TIP3   OH2 1475   5.011   4.586   3.254
  490TIP3    H1 1476   4.979   4.514   3.307
  490TIP3    H2 1477   4.991   4.562   3.164
  491TIP3   OH2 1478   5.076   2.888   0.294
  491TIP3    H1 1479   5.144   2.832   0.331
  491TIP3    H2 1480   5.038   2.934   0.368
  492TIP3   OH2 1481   3.541   1.580   5.051
  492TIP3    H1 1482   3.455   1.611   5.078
  492TIP3    H2 1483   3.594   1.659   5.045
  493TIP3   OH2 1484   4.755   5.882   4.694
  493TIP3    H1 1485   4.686   5.877   4.759
  493TIP3    H2 1486   4.756   5.974   4.667
  494TIP3   OH2 1487   2.578   3.622   0.274
  494TIP3    H1 1488   2.663   3.666   0.273
  494TIP3    H2 1489   2.514   3.692   0.274
  495TIP3   OH2 1490   1.027   0.686   1.150
  495TIP3    H1 1491   1.115   0.696   1.114
  495TIP3    H2 1492   1.030   0.735   1.233
  496TIP3   OH2 1493   0.950   1.712   0.168
  496TIP3    H1 1494   0.876   1.657   0.195
  496TIP3    H2 1495   0.980   1.675   0.085
  497TIP3   OH2 1496   4.170   5.497   3.039
  497TIP3    H1 1497   4.196   5.573   2.986
  497TIP3    H2 1498   4.141   5.432   2.974
  498TIP3   OH2 1499   0.583   2.300   4.043
  498TIP3    H1 1500   0.598   2.362   4.114
  498TIP3    H2 1501   0.660   2.244   4.044
  499TIP3   OH2 1502   1.195   5.110   1.711
  499TIP3    H1 1503   1.118   5.068   1.672
  499TIP3    H2 1504   1.195   5.082   1.802
  500TIP3   OH2 1505   0.165   2.394   4.762
  500TIP3    H1 1506   0.168   2.436   4.676
  500TIP3    H2 1507   0.253   2.359   4.775
  501TIP3   OH2 1508   0.686   3.276   4.289
  501TIP3    H1 1509   0.714   3.354   4.336
  501TIP3    H2 1510   0.694   3.205   4.353
  502TIP3   OH2 1511   4.327   5.525   2.572
  502TIP3    H1 1512   4.400   5.580   2.544
  502TIP3    H2 1513   4.268   5.585   2.617
  503TIP3   OH2 1514   0.203   5.161   4.291
  503TIP3    H1 1515   0.210   5.202   4.204
  503TIP3    H2 1516   0.293   5.143   4.316
  504TIP3   OH2 1517   4.463   2.817   0.647
  504TIP3    H1 1518   4.499   2.776   0.726
  504TIP3    H2 1519   4.437   2.744   0.592
  505TIP3   OH2 1520   0.651   5.828   3.803
  505TIP3    H1 1521   0.731   5.832   3.751
  505TIP3    H2 1522   0.648   5.738   3.836
  506TIP3   OH2 1523   1.049   3.688   4.353
  506TIP3    H1 1524   1.007   3.603   4.343
  506TIP3    H2 1525   1.011   3.724   4.433
  507TIP3   OH2 1526   4.337   1.692   4.502
  507TIP3    H1 1527   4.422   1.734   4.515
  507TIP3    H2 1528   4.357   1.600   4.487
  508TIP3   OH2 1529   2.221   4.776   0.267
  508TIP3    H1 1530   2.157   4.707   0.283
  508TIP3    H2 1531   2.183   4.854   0.306
  509TIP3   OH2 1532   2.657   5.390   1.315
  509TIP3    H1 1533   2.678   5.456   1.249
  509TIP3    H2 1534   2.612   5.321   1.266
  510TIP3   OH2 1535   4.028   5.726   0.696
  510TIP3    H1 1536   3.992   5.647   0.656
  510TIP3    H2 1537   3.992   5.727   0.784
  511TIP3   OH2 1538   4.244   2.550   1.174
  511TIP3    H1 1539   4.220   2.465   1.136
  511TIP3    H2 1540   4.175   2.567   1.239
  512TIP3   OH2 1541   0.971   4.204   0.305
  512TIP3    H1 1542   1.047   4.215   0.248
  512TIP3    H2 1543   0.993   4.130   0.361
  513TIP3   OH2 1544   6.186   4.069   0.121
  513TIP3    H1 1545   6.170   4.121   0.200
  513TIP3    H2 1546   6.099   4.060   0.080
  514TIP3   OH2 1547   3.249   4.141   4.474
  514TIP3    H1 1548   3.276   4.159   4.564
  514TIP3    H2 1549   3.187   4.210   4.453
  515TIP3   OH2 1550   0.958   3.461   1.499
  515TIP3    H1 1551   0.891   3.473   1.568
  515TIP3    H2 1552   0.937   3.376   1.461
  516TIP3   OH2 1553   6.106   5.691   2.682
  516TIP3    H1 1554   6.157   5.763   2.719
  516TIP3    H2 1555   6.149   5.674   2.598
  517TIP3   OH2 1556   5.413   2.616   4.996
  517TIP3    H1 1557   5.439   2.708   4.992
  517TIP3    H2 1558   5.451   2.584   5.078
  518TIP3   OH2 1559   2.961   1.372   0.208
  518TIP3    H1 1560   2.994   1.460   0.189
  518TIP3    H2 1561   2.941   1.335   0.123
  519TIP3   OH2 1562   2.829   4.138   4.695
  519TIP3    H1 1563   2.841   4.057   4.645
  519TIP3    H2 1564   2.757   4.118   4.756
  520TIP3   OH2 1565   0.878   0.050   4.848
  520TIP3    H1 1566   0.861   0.066   4.941
  520TIP3    H2 1567   0.822   0.114   4.803
  521TIP3   OH2 1568   6.301   2.549   0.235
  521TIP3    H1 1569   6.262   2.586   0.315
  521TIP3    H2 1570   6.346   2.470   0.264
  522TIP3   OH2 1571   0.978   2.203   0.817
  522TIP3    H1 1572   1.065   2.164   0.828
  522TIP3    H2 1573   0.995   2.297   0.812
  523TIP3   OH2 1574   2.388   0.733   3.903
  523TIP3    H1 1575   2.391   0.676   3.979
  523TIP3    H2 1576   2.406   0.675   3.829
  524TIP3   OH2 1577   5.217   2.781  -0.011
  524TIP3    H1 1578   5.232   2.778   0.083
  524TIP3    H2 1579   5.256   2.864  -0.040
  525TIP3   OH2 1580   0.520   1.675   1.585
  525TIP3    H1 1581   0.579   1.662   1.511
  525TIP3    H2 1582   0.553   1.615   1.652
  526TIP3   OH2 1583   3.451   0.401   4.550
  526TIP3    H1 1584   3.499   0.415   4.632
  526TIP3    H2 1585   3.430   0.308   4.550
  527TIP3   OH2 1586   1.634   1.059   1.280
  527TIP3    H1 1587   1.564   1.073   1.344
  527TIP3    H2 1588   1.653   0.966   1.285
  528TIP3   OH2 1589   0.438   1.771   1.057
  528TIP3    H1 1590   0.373   1.839   1.075
  528TIP3    H2 1591   0.480   1.756   1.142
  529TIP3   OH2 1592   4.988   2.730   4.516
  529TIP3    H1 1593   4.940   2.677   4.578
  529TIP3    H2 1594   5.077   2.736   4.552
  530TIP3   OH2 1595   0.399   3.176   1.836
  530TIP3    H1 1596   0.404   3.272   1.837
  530TIP3    H2 1597   0.308   3.157   1.858
  531TIP3   OH2 1598   1.651   0.044   1.014
  531TIP3    H1 1599   1.674   0.133   1.039
  531TIP3    H2 1600   1.662  -0.007   1.095
  532TIP3   OH2 1601   0.497   5.604   0.663
  532TIP3    H1 1602   0.592   5.599   0.675
  532TIP3    H2 1603   0.484   5.680   0.607
  533TIP3   OH2 1604   0.769   4.153   0.488
  533TIP3    H1 1605   0.829   4.167   0.415
  533TIP3    H2 1606   0.749   4.059   0.485
  534TIP3   OH2 1607   5.269   1.847   0.521
  534TIP3    H1 1608   5.361   1.871   0.523
  534TIP3    H2 1609   5.260   1.777   0.586
  535TIP3   OH2 1610   6.012   4.729   1.340
  535TIP3    H1 1611   6.087   4.729   1.279
  535TIP3    H2 1612   5.954   4.796   1.306
  536TIP3   OH2 1613   2.719   5.759   3.090
  536TIP3    H1 1614   2.649   5.759   3.156
  536TIP3    H2 1615   2.698   5.684   3.035
  537TIP3   OH2 1616   4.393   5.130   1.966
  537TIP3    H1 1617   4.450   5.174   2.029
  537TIP3    H2 1618   4.453   5.084   1.908
  538TIP3   OH2 1619   2.183   1.854   3.027
  538TIP3    H1 1620   2.135   1.926   2.986
  538TIP3    H2 1621   2.207   1.887   3.113
  539TIP3   OH2 1622   5.465   2.208   2.467
  539TIP3    H1 1623   5.413   2.166   2.535
  539TIP3    H2 1624   5.402   2.259   2.416
  540TIP3   OH2 1625   0.040   3.218   2.459
  540TIP3    H1 1626   0.098   3.294   2.460
  540TIP3    H2 1627   0.041   3.190   2.368
  541TIP3   OH2 1628   4.352   2.220   1.818
  541TIP3    H1 1629   4.270   2.170   1.811
  541TIP3    H2 1630   4.333   2.303   1.772
  542TIP3   OH2 1631   0.395   3.573   0.767
  542TIP3    H1 1632   0.432   3.539   0.686
  542TIP3    H2 1633   0.402   3.668   0.759
  543TIP3   OH2 1634   4.002   3.284   0.713
  543TIP3    H1 1635   3.921   3.332   0.728
  543TIP3    H2 1636   4.032   3.314   0.627
  544TIP3   OH2 1637   6.328   3.139   1.625
  544TIP3    H1 1638   6.365   3.085   1.694
  544TIP3    H2 1639   6.399   3.198   1.599
  545TIP3   OH2 1640   3.708   2.035   1.821
  545TIP3    H1 1641   3.676   1.955   1.780
  545TIP3    H2 1642   3.680   2.028   1.912
  546TIP3   OH2 1643   3.210   3.538   4.222
  546TIP3    H1 1644   3.151   3.612   4.232
  546TIP3    H2 1645   3.212   3.522   4.127
  547TIP3   OH2 1646   5.055   1.637   4.562
  547TIP3    H1 1647   4.966   1.602   4.560
  547TIP3    H2 1648   5.072   1.655   4.654
  548TIP3   OH2 1649   1.990   2.576   1.210
  548TIP3    H1 1650   1.997   2.505   1.274
  548TIP3    H2 1651   1.984   2.656   1.264
  549TIP3   OH2 1652   4.181   6.026   0.728
  549TIP3    H1 1653   4.093   5.993   0.709
  549TIP3    H2 1654   4.239   5.966   0.682
  550TIP3   OH2 1655   1.294   4.786   5.127
  550TIP3    H1 1656   1.344   4.711   5.094
  550TIP3    H2 1657   1.323   4.797   5.217
  551TIP3   OH2 1658   2.527   0.193   4.802
  551TIP3    H1 1659   2.446   0.229   4.840
  551TIP3    H2 1660   2.596   0.248   4.839
  552TIP3   OH2 1661   0.850   0.996   1.474
  552TIP3    H1 1662   0.776   0.935   1.473
  552TIP3    H2 1663   0.846   1.038   1.560
  553TIP3   OH2 1664   3.152   3.235   3.641
  553TIP3    H1 1665   3.247   3.248   3.640
  553TIP3    H2 1666   3.120   3.286   3.566
  554TIP3   OH2 1667   1.146   0.451   2.096
  554TIP3    H1 1668   1.182   0.386   2.157
  554TIP3    H2 1669   1.203   0.527   2.106
  555TIP3   OH2 1670   0.451   3.476   2.408
  555TIP3    H1 1671   0.517   3.468   2.476
  555TIP3    H2 1672   0.494   3.443   2.329
  556TIP3   OH2 1673   1.691   5.250   0.897
  556TIP3    H1 1674   1.682   5.186   0.827
  556TIP3    H2 1675   1.682   5.335   0.854
  557TIP3   OH2 1676   5.470   4.589   4.633
  557TIP3    H1 1677   5.431   4.605   4.718
  557TIP3    H2 1678   5.436   4.659   4.577
  558TIP3   OH2 1679   1.588   4.787   4.966
  558TIP3    H1 1680   1.583   4.880   4.989
  558TIP3    H2 1681   1.505   4.769   4.921
  559TIP3   OH2 1682   0.306   4.815   2.869
  559TIP3    H1 1683   0.279   4.778   2.953
  559TIP3    H2 1684   0.269   4.903   2.868
  560TIP3   OH2 1685   5.292   1.921   4.897
  560TIP3    H1 1686   5.205   1.917   4.859
  560TIP3    H2 1687   5.325   2.008   4.873
  561TIP3   OH2 1688   2.545   4.929   3.823
  561TIP3    H1 1689   2.518   4.840   3.848
  561TIP3    H2 1690   2.549   4.977   3.906
  562TIP3   OH2 1691   2.357   5.855   5.050
  562TIP3    H1 1692   2.435   5.876   4.999
  562TIP3    H2 1693   2.284   5.875   4.992
  563TIP3   OH2 1694   2.851   4.116   5.026
  563TIP3    H1 1695   2.866   4.046   4.961
  563TIP3    H2 1696   2.761   4.145   5.009
  564TIP3   OH2 1697   2.938   4.905   2.782
  564TIP3    H1 1698   2.958   4.816   2.752
  564TIP3    H2 1699   2.996   4.961   2.731
  565TIP3   OH2 1700   4.982   2.065   1.478
  565TIP3    H1 1701   5.038   2.054   1.401
  565TIP3    H2 1702   4.923   2.137   1.455
  566TIP3   OH2 1703   6.056   3.178   0.434
  566TIP3    H1 1704   6.083   3.088   0.423
  566TIP3    H2 1705   6.105   3.209   0.510
  567TIP3   OH2 1706   2.739   1.016   1.783
  567TIP3    H1 1707   2.824   1.059   1.776
  567TIP3    H2 1708   2.731   0.966   1.701
  568TIP3   OH2 1709   0.167   0.884   1.894
  568TIP3    H1 1710   0.239   0.839   1.937
  568TIP3    H2 1711   0.202   0.911   1.810
  569TIP3   OH2 1712   0.735   5.127   2.901
  569TIP3    H1 1713   0.779   5.054   2.945
  569TIP3    H2 1714   0.724   5.097   2.811
  570TIP3   OH2 1715   5.810   1.807   3.340
  570TIP3    H1 1716   5.827   1.872   3.409
  570TIP3    H2 1717   5.897   1.787   3.305
  571TIP3   OH2 1718   4.720   0.152   4.825
  571TIP3    H1 1719   4.712   0.145   4.730
  571TIP3    H2 1720   4.814   0.160   4.841
  572TIP3   OH2 1721   5.700   5.799   1.704
  572TIP3    H1 1722   5.716   5.845   1.786
  572TIP3    H2 1723   5.630   5.850   1.662
  573TIP3   OH2 1724   1.123   4.256   1.844
  573TIP3    H1 1725   1.190   4.238   1.777
  573TIP3    H2 1726   1.109   4.350   1.840
  574TIP3   OH2 1727   6.137   2.333   4.259
  574TIP3    H1 1728   6.130   2.424   4.290
  574TIP3    H2 1729   6.230   2.322   4.239
  575TIP3   OH2 1730   2.638   0.149   1.537
  575TIP3    H1 1731   2.698   0.223   1.547
  575TIP3    H2 1732   2.680   0.078   1.584
  576TIP3   OH2 1733   0.148   4.041   1.347
  576TIP3    H1 1734   0.228   4.050   1.398
  576TIP3    H2 1735   0.090   4.109   1.379
  577TIP3   OH2 1736   0.594   1.940   0.886
  577TIP3    H1 1737   0.513   1.981   0.856
  577TIP3    H2 1738   0.565   1.869   0.944
  578TIP3   OH2 1739   0.588   3.434   5.078
  578TIP3    H1 1740   0.627   3.479   5.153
  578TIP3    H2 1741   0.499   3.412   5.107
  579TIP3   OH2 1742   6.236   5.631   0.192
  579TIP3    H1 1743   6.267   5.600   0.108
  579TIP3    H2 1744   6.311   5.676   0.231
  580TIP3   OH2 1745   4.562   2.287   3.481
  580TIP3    H1 1746   4.609   2.365   3.509
  580TIP3    H2 1747   4.514   2.314   3.403
  581TIP3   OH2 1748   1.577   4.201   0.743
  581TIP3    H1 1749   1.489   4.165   0.752
  581TIP3    H2 1750   1.579   4.238   0.654
  582TIP3   OH2 1751   3.148   1.372   1.449
  582TIP3    H1 1752   3.131   1.452   1.399
  582TIP3    H2 1753   3.243   1.366   1.454
  583TIP3   OH2 1754   5.597   2.882   3.871
  583TIP3    H1 1755   5.534   2.816   3.842
  583TIP3    H2 1756   5.672   2.831   3.904
  584TIP3   OH2 1757   1.235   3.464   1.520
  584TIP3    H1 1758   1.142   3.442   1.519
  584TIP3    H2 1759   1.277   3.389   1.562
  585TIP3   OH2 1760   0.118   5.184   3.276
  585TIP3    H1 1761   0.211   5.198   3.257
  585TIP3    H2 1762   0.077   5.268   3.253
  586TIP3   OH2 1763   3.996   5.416   3.249
  586TIP3    H1 1764   4.051   5.458   3.182
  586TIP3    H2 1765   4.039   5.332   3.266
  587TIP3   OH2 1766   4.104   5.905   1.833
  587TIP3    H1 1767   4.166   5.977   1.823
  587TIP3    H2 1768   4.141   5.852   1.904
  588TIP3   OH2 1769   0.076   4.576   4.480
  588TIP3    H1 1770   0.011   4.611   4.418
  588TIP3    H2 1771   0.026   4.561   4.560
  589TIP3   OH2 1772   6.024   1.742   2.441
  589TIP3    H1 1773   6.100   1.703   2.398
  589TIP3    H2 1774   6.039   1.836   2.435
  590TIP3   OH2 1775   2.485   0.710   0.531
  590TIP3    H1 1776   2.547   0.693   0.460
  590TIP3    H2 1777   2.430   0.632   0.535
  591TIP3   OH2 1778   0.758   5.822   2.927
  591TIP3    H1 1779   0.768   5.812   2.833
  591TIP3    H2 1780   0.699   5.751   2.953
  592TIP3   OH2 1781   5.706   1.474   0.217
  592TIP3    H1 1782   5.783   1.527   0.196
  592TIP3    H2 1783   5.689   1.422   0.139
  593TIP3   OH2 1784   2.116   0.915   5.035
  593TIP3    H1 1785   2.060   0.843   5.006
  593TIP3    H2 1786   2.203   0.877   5.042
  594TIP3   OH2 1787   3.863   4.633   0.589
  594TIP3    H1 1788   3.800   4.604   0.524
  594TIP3    H2 1789   3.891   4.553   0.633
  595TIP3   OH2 1790   4.119   5.411   3.518
  595TIP3    H1 1791   4.063   5.450   3.452
  595TIP3    H2 1792   4.175   5.350   3.470
  596TIP3   OH2 1793   5.086   4.960   1.020
  596TIP3    H1 1794   5.061   4.986   0.932
  596TIP3    H2 1795   5.030   4.884   1.039
  597TIP3   OH2 1796   1.599   4.971   4.248
  597TIP3    H1 1797   1.668   4.953   4.312
  597TIP3    H2 1798   1.521   4.989   4.300
  598TIP3   OH2 1799   4.773   4.015   2.920
  598TIP3    H1 1800   4.772   4.055   3.006
  598TIP3    H2 1801   4.767   4.088   2.859
  599TIP3   OH2 1802   5.235   0.559   3.681
  599TIP3    H1 1803   5.214   0.561   3.588
  599TIP3    H2 1804   5.235   0.651   3.708
  600TIP3   OH2 1805   3.915   2.988   0.564
  600TIP3    H1 1806   3.927   3.063   0.622
  600TIP3    H2 1807   3.965   2.918   0.603
  601TIP3   OH2 1808   5.748   1.592   2.921
  601TIP3    H1 1809   5.741   1.681   2.956
  601TIP3    H2 1810   5.791   1.603   2.837
  602TIP3   OH2 1811   0.527   1.399   1.293
  602TIP3    H1 1812   0.598   1.343   1.326
  602TIP3    H2 1813   0.457   1.389   1.357
  603TIP3   OH2 1814   2.713   2.296   4.480
  603TIP3    H1 1815   2.798   2.303   4.437
  603TIP3    H2 1816   2.699   2.382   4.520
  604TIP3   OH2 1817   5.695   3.541   3.075
  604TIP3    H1 1818   5.643   3.573   3.148
  604TIP3    H2 1819   5.699   3.616   3.015
  605TIP3   OH2 1820   0.124   3.595   4.768
  605TIP3    H1 1821   0.170   3.580   4.851
  605TIP3    H2 1822   0.031   3.593   4.792
  606TIP3   OH2 1823   1.073   4.899   2.791
  606TIP3    H1 1824   1.146   4.852   2.831
  606TIP3    H2 1825   0.996   4.866   2.837
  607TIP3   OH2 1826   2.955   5.388   4.161
  607TIP3    H1 1827   2.918   5.476   4.165
  607TIP3    H2 1828   3.023   5.388   4.229
  608TIP3   OH2 1829   2.997   4.247   2.146
  608TIP3    H1 1830   3.033   4.208   2.066
  608TIP3    H2 1831   3.043   4.330   2.156
  609TIP3   OH2 1832   5.226   0.462   4.197
  609TIP3    H1 1833   5.291   0.465   4.267
  609TIP3    H2 1834   5.278   0.462   4.116
  610TIP3   OH2 1835  -0.002   4.896   3.849
  610TIP3    H1 1836  -0.013   4.834   3.777
  610TIP3    H2 1837  -0.067   4.867   3.914
  611TIP3   OH2 1838   0.101   4.597   4.103
  611TIP3    H1 1839   0.136   4.522   4.150
  611TIP3    H2 1840   0.013   4.609   4.139
  612TIP3   OH2 1841   1.194   0.165   5.097
  612TIP3    H1 1842   1.253   0.093   5.073
  612TIP3    H2 1843   1.251   0.233   5.133
  613TIP3   OH2 1844   5.127   1.677   1.803
  613TIP3    H1 1845   5.128   1.771   1.785
  613TIP3    H2 1846   5.040   1.648   1.777
  614TIP3   OH2 1847   4.559   0.372   0.006
  614TIP3    H1 1848   4.594   0.283   0.001
  614TIP3    H2 1849   4.506   0.372   0.086
  615TIP3   OH2 1850   4.356   4.642   2.317
  615TIP3    H1 1851   4.279   4.598   2.280
  615TIP3    H2 1852   4.330   4.664   2.406
  616TIP3   OH2 1853   2.684   4.873   1.711
  616TIP3    H1 1854   2.658   4.959   1.746
  616TIP3    H2 1855   2.604   4.838   1.672
  617TIP3   OH2 1856   2.767   1.189   4.023
  617TIP3    H1 1857   2.849   1.237   4.017
  617TIP3    H2 1858   2.701   1.256   4.038
  618TIP3   OH2 1859   0.719   3.962   4.070
  618TIP3    H1 1860   0.767   3.944   4.151
  618TIP3    H2 1861   0.757   4.045   4.038
  619TIP3   OH2 1862   5.712   5.056   4.246
  619TIP3    H1 1863   5.741   5.010   4.167
  619TIP3    H2 1864   5.792   5.091   4.285
  620TIP3   OH2 1865   5.374   2.056   3.811
  620TIP3    H1 1866   5.449   2.106   3.777
  620TIP3    H2 1867   5.374   1.975   3.759
  621TIP3   OH2 1868   0.082   4.807   0.959
  621TIP3    H1 1869   0.068   4.720   0.922
  621TIP3    H2 1870   0.088   4.791   1.054
  622TIP3   OH2 1871   0.596   3.984   3.540
  622TIP3    H1 1872   0.646   3.987   3.622
  622TIP3    H2 1873   0.547   4.066   3.539
  623TIP3   OH2 1874   3.386   0.247   0.380
  623TIP3    H1 1875   3.407   0.172   0.324
  623TIP3    H2 1876   3.468   0.295   0.388
  624TIP3   OH2 1877   3.685   4.269   5.137
  624TIP3    H1 1878   3.741   4.194   5.158
  624TIP3    H2 1879   3.739   4.346   5.160
  625TIP3   OH2 1880   2.140   2.481   2.474
  625TIP3    H1 1881   2.062   2.500   2.422
  625TIP3    H2 1882   2.208   2.536   2.436
  626TIP3   OH2 1883   0.538   1.933   3.718
  626TIP3    H1 1884   0.568   1.994   3.650
  626TIP3    H2 1885   0.464   1.888   3.678
  627TIP3   OH2 1886   6.111   3.836   2.735
  627TIP3    H1 1887   6.071   3.801   2.655
  627TIP3    H2 1888   6.083   3.776   2.804
  628TIP3   OH2 1889   5.567   4.974   0.505
  628TIP3    H1 1890   5.485   4.961   0.458
  628TIP3    H2 1891   5.625   5.015   0.442
  629TIP3   OH2 1892   1.406   4.204   1.028
  629TIP3    H1 1893   1.495   4.233   1.008
  629TIP3    H2 1894   1.397   4.120   0.985
  630TIP3   OH2 1895   3.792   1.064   4.455
  630TIP3    H1 1896   3.714   1.109   4.422
  630TIP3    H2 1897   3.780   0.973   4.426
  631TIP3   OH2 1898   5.858   1.064   3.864
  631TIP3    H1 1899   5.769   1.062   3.901
  631TIP3    H2 1900   5.875   1.157   3.848
  632TIP3   OH2 1901   0.243   1.492   2.204
  632TIP3    H1 1902   0.303   1.558   2.169
  632TIP3    H2 1903   0.213   1.444   2.128
  633TIP3   OH2 1904   3.494   4.207   0.603
  633TIP3    H1 1905   3.529   4.290   0.634
  633TIP3    H2 1906   3.426   4.184   0.665
  634TIP3   OH2 1907   1.998   1.460   0.904
  634TIP3    H1 1908   1.965   1.407   0.977
  634TIP3    H2 1909   2.040   1.397   0.846
  635TIP3   OH2 1910   3.448   3.592   1.094
  635TIP3    H1 1911   3.530   3.541   1.092
  635TIP3    H2 1912   3.475   3.678   1.124
  636TIP3   OH2 1913   4.966   0.682   0.715
  636TIP3    H1 1914   5.020   0.611   0.748
  636TIP3    H2 1915   4.940   0.654   0.627
  637TIP3   OH2 1916   1.611   4.197   3.822
  637TIP3    H1 1917   1.517   4.180   3.816
  637TIP3    H2 1918   1.650   4.146   3.751
  638TIP3   OH2 1919   3.098   1.632   1.306
  638TIP3    H1 1920   3.105   1.627   1.210
  638TIP3    H2 1921   3.015   1.676   1.321
  639TIP3   OH2 1922   3.410   3.999   1.878
  639TIP3    H1 1923   3.391   3.923   1.933
  639TIP3    H2 1924   3.498   3.983   1.843
  640TIP3   OH2 1925   2.608   5.060   4.986
  640TIP3    H1 1926   2.623   5.044   4.892
  640TIP3    H2 1927   2.673   5.005   5.030
  641TIP3   OH2 1928   4.537   5.095   4.377
  641TIP3    H1 1929   4.590   5.025   4.339
  641TIP3    H2 1930   4.599   5.145   4.432
  642TIP3   OH2 1931   6.010   4.571   1.990
  642TIP3    H1 1932   5.950   4.572   2.064
  642TIP3    H2 1933   6.014   4.479   1.964
  643TIP3   OH2 1934   1.226   2.409   2.098
  643TIP3    H1 1935   1.307   2.434   2.142
  643TIP3    H2 1936   1.241   2.318   2.070
  644TIP3   OH2 1937   6.044   1.145   5.049
  644TIP3    H1 1938   6.102   1.206   5.095
  644TIP3    H2 1939   6.041   1.178   4.959
  645TIP3   OH2 1940   4.019   2.329   1.969
  645TIP3    H1 1941   3.939   2.366   1.931
  645TIP3    H2 1942   4.030   2.244   1.925
  646TIP3   OH2 1943   5.446   5.514   4.791
  646TIP3    H1 1944   5.375   5.457   4.761
  646TIP3    H2 1945   5.419   5.542   4.879
  647TIP3   OH2 1946   2.728   0.721   3.625
  647TIP3    H1 1947   2.698   0.662   3.694
  647TIP3    H2 1948   2.662   0.790   3.621
  648TIP3   OH2 1949   2.701   0.252   0.818
  648TIP3    H1 1950   2.624   0.266   0.873
  648TIP3    H2 1951   2.708   0.157   0.809
  649TIP3   OH2 1952   1.109   4.151   1.252
  649TIP3    H1 1953   1.086   4.058   1.258
  649TIP3    H2 1954   1.202   4.154   1.276
  650TIP3   OH2 1955   0.432   2.721   1.317
  650TIP3    H1 1956   0.524   2.738   1.298
  650TIP3    H2 1957   0.423   2.735   1.411
  651TIP3   OH2 1958   0.895   5.311   2.622
  651TIP3    H1 1959   0.947   5.303   2.702
  651TIP3    H2 1960   0.901   5.225   2.581
  652TIP3   OH2 1961   5.727   0.692   2.562
  652TIP3    H1 1962   5.668   0.677   2.636
  652TIP3    H2 1963   5.676   0.668   2.485
  653TIP3   OH2 1964   3.129   2.020   3.619
  653TIP3    H1 1965   3.164   2.088   3.676
  653TIP3    H2 1966   3.037   2.045   3.605
  654TIP3   OH2 1967   5.148   0.392   2.183
  654TIP3    H1 1968   5.092   0.465   2.208
  654TIP3    H2 1969   5.105   0.354   2.107
  655TIP3   OH2 1970   5.880   0.469   3.854
  655TIP3    H1 1971   5.808   0.515   3.898
  655TIP3    H2 1972   5.959   0.498   3.902
  656TIP3   OH2 1973   5.407   4.220   1.623
  656TIP3    H1 1974   5.452   4.269   1.691
  656TIP3    H2 1975   5.369   4.145   1.669
  657TIP3   OH2 1976   3.914   1.860   1.970
  657TIP3    H1 1977   3.971   1.801   1.921
  657TIP3    H2 1978   3.894   1.930   1.908
  658TIP3   OH2 1979   3.821   5.196   0.661
  658TIP3    H1 1980   3.900   5.145   0.644
  658TIP3    H2 1981   3.851   5.269   0.715
  659TIP3   OH2 1982   0.893   4.611   5.130
  659TIP3    H1 1983   0.950   4.671   5.082
  659TIP3    H2 1984   0.938   4.596   5.213
  660TIP3   OH2 1985   4.896   2.941   1.698
  660TIP3    H1 1986   4.984   2.943   1.737
  660TIP3    H2 1987   4.896   2.863   1.643
  661TIP3   OH2 1988   3.753   3.325   0.806
  661TIP3    H1 1989   3.733   3.418   0.802
  661TIP3    H2 1990   3.743   3.302   0.899
  662TIP3   OH2 1991   4.360   0.589   4.010
  662TIP3    H1 1992   4.310   0.534   3.949
  662TIP3    H2 1993   4.327   0.565   4.096
  663TIP3   OH2 1994   2.920   3.350   1.936
  663TIP3    H1 1995   2.924   3.405   2.015
  663TIP3    H2 1996   2.892   3.265   1.968
  664TIP3   OH2 1997   2.139   1.812   0.685
  664TIP3    H1 1998   2.057   1.850   0.655
  664TIP3    H2 1999   2.192   1.888   0.711
  665TIP3   OH2 2000   1.758   2.608   5.085
  665TIP3    H1 2001   1.806   2.652   5.156
  665TIP3    H2 2002   1.721   2.680   5.034
  666TIP3   OH2 2003   5.234   3.154   3.547
  666TIP3    H1 2004   5.206   3.110   3.467
  666TIP3    H2 2005   5.327   3.133   3.554
  667TIP3   OH2 2006   5.612   5.900   2.727
  667TIP3    H1 2007   5.643   5.921   2.815
  667TIP3    H2 2008   5.579   5.810   2.734
  668TIP3   OH2 2009   0.028   2.859   4.467
  668TIP3    H1 2010   0.070   2.942   4.489
  668TIP3    H2 2011   0.084   2.820   4.400
  669TIP3   OH2 2012   1.507   4.513   4.760
  669TIP3    H1 2013   1.512   4.445   4.692
  669TIP3    H2 2014   1.467   4.588   4.716
  670TIP3   OH2 2015   1.457   5.410   2.513
  670TIP3    H1 2016   1.545   5.448   2.516
  670TIP3    H2 2017   1.438   5.403   2.419
  671TIP3   OH2 2018   3.744   4.127   0.788
  671TIP3    H1 2019   3.809   4.196   0.778
  671TIP3    H2 2020   3.698   4.147   0.869
  672TIP3   OH2 2021   4.281   3.158   0.187
  672TIP3    H1 2022   4.254   3.152   0.096
  672TIP3    H2 2023   4.204   3.130   0.237
  673TIP3   OH2 2024   2.490   2.823   4.207
  673TIP3    H1 2025   2.514   2.906   4.249
  673TIP3    H2 2026   2.536   2.826   4.122
  674TIP3   OH2 2027   2.143   0.812   0.293
  674TIP3    H1 2028   2.223   0.790   0.246
  674TIP3    H2 2029   2.172   0.847   0.377
  675TIP3   OH2 2030   3.720   2.040   1.278
  675TIP3    H1 2031   3.766   1.957   1.267
  675TIP3    H2 2032   3.696   2.065   1.189
  676TIP3   OH2 2033   2.351   1.852   4.753
  676TIP3    H1 2034   2.340   1.838   4.659
  676TIP3    H2 2035   2.262   1.850   4.788
  677TIP3   OH2 2036   0.391   4.474   2.797
  677TIP3    H1 2037   0.395   4.556   2.748
  677TIP3    H2 2038   0.298   4.452   2.800
  678TIP3   OH2 2039   4.549   3.322   2.564
  678TIP3    H1 2040   4.624   3.300   2.508
  678TIP3    H2 2041   4.587   3.330   2.652
  679TIP3   OH2 2042   4.376   0.503   0.225
  679TIP3    H1 2043   4.396   0.557   0.148
  679TIP3    H2 2044   4.294   0.459   0.203
  680TIP3   OH2 2045   6.104   2.691   3.132
  680TIP3    H1 2046   6.027   2.732   3.171
  680TIP3    H2 2047   6.097   2.599   3.156
  681TIP3   OH2 2048   0.133   1.645   2.432
  681TIP3    H1 2049   0.151   1.584   2.504
  681TIP3    H2 2050   0.180   1.608   2.357
  682TIP3   OH2 2051   0.294   1.122   5.181
  682TIP3    H1 2052   0.212   1.073   5.168
  682TIP3    H2 2053   0.311   1.162   5.096
  683TIP3   OH2 2054   2.889   1.733   3.995
  683TIP3    H1 2055   2.974   1.701   4.025
  683TIP3    H2 2056   2.894   1.828   4.004
  684TIP3   OH2 2057   0.938   2.759   3.334
  684TIP3    H1 2058   0.845   2.745   3.316
  684TIP3    H2 2059   0.957   2.701   3.408
  685TIP3   OH2 2060   2.903   3.680   4.004
  685TIP3    H1 2061   2.857   3.596   4.005
  685TIP3    H2 2062   2.883   3.719   4.089
  686TIP3   OH2 2063   3.940   2.090   0.872
  686TIP3    H1 2064   4.029   2.059   0.892
  686TIP3    H2 2065   3.915   2.141   0.949
  687TIP3   OH2 2066   4.596   4.329   0.607
  687TIP3    H1 2067   4.640   4.414   0.613
  687TIP3    H2 2068   4.667   4.265   0.611
  688TIP3   OH2 2069   2.680   4.859   4.407
  688TIP3    H1 2070   2.751   4.841   4.345
  688TIP3    H2 2071   2.720   4.916   4.472
  689TIP3   OH2 2072   1.676   1.079   0.254
  689TIP3    H1 2073   1.632   1.000   0.223
  689TIP3    H2 2074   1.723   1.111   0.177
  690TIP3   OH2 2075   6.130   3.972   1.225
  690TIP3    H1 2076   6.189   3.977   1.150
  690TIP3    H2 2077   6.106   3.879   1.230
  691TIP3   OH2 2078   1.455   5.237   1.722
  691TIP3    H1 2079   1.508   5.181   1.666
  691TIP3    H2 2080   1.366   5.205   1.710
  692TIP3   OH2 2081   1.078   4.674   1.215
  692TIP3    H1 2082   1.150   4.613   1.197
  692TIP3    H2 2083   1.015   4.658   1.145
  693TIP3   OH2 2084   2.718   2.310   1.189
  693TIP3    H1 2085   2.738   2.295   1.097
  693TIP3    H2 2086   2.687   2.400   1.193
  694TIP3   OH2 2087   0.501   1.972   1.587
  694TIP3    H1 2088   0.408   1.995   1.589
  694TIP3    H2 2089   0.503   1.877   1.590
  695TIP3   OH2 2090   1.830   1.145   1.435
  695TIP3    H1 2091   1.873   1.062   1.410
  695TIP3    H2 2092   1.753   1.150   1.379
  696TIP3   OH2 2093   0.911   1.935   1.109
  696TIP3    H1 2094   0.891   1.948   1.016
  696TIP3    H2 2095   0.917   1.840   1.119
  697TIP3   OH2 2096   0.238   2.463   2.853
  697TIP3    H1 2097   0.211   2.549   2.886
  697TIP3    H2 2098   0.314   2.482   2.797
  698TIP3   OH2 2099   1.258   5.232   4.033
  698TIP3    H1 2100   1.340   5.275   4.009
  698TIP3    H2 2101   1.191   5.278   3.983
  699TIP3   OH2 2102   2.718   3.726   2.902
  699TIP3    H1 2103   2.630   3.700   2.928
  699TIP3    H2 2104   2.704   3.804   2.847
  700TIP3   OH2 2105   1.577   2.582   2.438
  700TIP3    H1 2106   1.644   2.619   2.382
  700TIP3    H2 2107   1.572   2.643   2.512
  701TIP3   OH2 2108   4.454   0.370   0.723
  701TIP3    H1 2109   4.494   0.380   0.637
  701TIP3    H2 2110   4.373   0.419   0.718
  702TIP3   OH2 2111   2.524   1.375   2.722
  702TIP3    H1 2112   2.562   1.460   2.702
  702TIP3    H2 2113   2.509   1.377   2.817
  703TIP3   OH2 2114   5.178   3.563   2.739
  703TIP3    H1 2115   5.132   3.528   2.662
  703TIP3    H2 2116   5.230   3.490   2.771
  704TIP3   OH2 2117   3.071   4.975   3.560
  704TIP3    H1 2118   2.985   4.944   3.589
  704TIP3    H2 2119   3.133   4.921   3.608
  705TIP3   OH2 2120   4.771   5.549   4.449
  705TIP3    H1 2121   4.830   5.624   4.451
  705TIP3    H2 2122   4.743   5.538   4.539
  706TIP3   OH2 2123   5.577   0.016   2.821
  706TIP3    H1 2124   5.637  -0.048   2.782
  706TIP3    H2 2125   5.511   0.031   2.754
  707TIP3   OH2 2126   4.020   2.396   1.040
  707TIP3    H1 2127   4.005   2.355   1.125
  707TIP3    H2 2128   3.965   2.474   1.040
  708TIP3   OH2 2129   2.826   0.216   1.160
  708TIP3    H1 2130   2.801   0.306   1.138
  708TIP3    H2 2131   2.854   0.178   1.077
  709TIP3   OH2 2132   2.631   2.381   0.670
  709TIP3    H1 2133   2.550   2.351   0.628
  709TIP3    H2 2134   2.646   2.317   0.740
  710TIP3   OH2 2135   2.217   5.276   5.060
  710TIP3    H1 2136   2.179   5.334   4.994
  710TIP3    H2 2137   2.155   5.279   5.133
  711TIP3   OH2 2138   5.527   1.965   1.949
  711TIP3    H1 2139   5.470   1.889   1.964
  711TIP3    H2 2140   5.614   1.928   1.940
  712TIP3   OH2 2141   2.594   2.387   5.171
  712TIP3    H1 2142   2.532   2.454   5.202
  712TIP3    H2 2143   2.543   2.334   5.109
  713TIP3   OH2 2144   1.128   0.762   4.081
  713TIP3    H1 2145   1.098   0.852   4.092
  713TIP3    H2 2146   1.209   0.757   4.132
  714TIP3   OH2 2147   2.316   0.291   1.189
  714TIP3    H1 2148   2.223   0.288   1.164
  714TIP3    H2 2149   2.315   0.294   1.284
  715TIP3   OH2 2150   5.179   3.426   1.013
  715TIP3    H1 2151   5.219   3.357   0.960
  715TIP3    H2 2152   5.240   3.440   1.085
  716TIP3   OH2 2153   0.258   3.294   0.737
  716TIP3    H1 2154   0.218   3.269   0.821
  716TIP3    H2 2155   0.294   3.381   0.753
  717TIP3   OH2 2156   1.054   5.054   4.620
  717TIP3    H1 2157   1.114   4.998   4.669
  717TIP3    H2 2158   1.038   5.129   4.678
  718TIP3   OH2 2159   4.210   4.287   4.059
  718TIP3    H1 2160   4.221   4.209   4.005
  718TIP3    H2 2161   4.119   4.282   4.089
  719TIP3   OH2 2162   1.869   3.231   4.383
  719TIP3    H1 2163   1.827   3.208   4.466
  719TIP3    H2 2164   1.808   3.199   4.316
  720TIP3   OH2 2165   0.228   2.243   3.006
  720TIP3    H1 2166   0.241   2.317   2.946
  720TIP3    H2 2167   0.215   2.284   3.091
  721TIP3   OH2 2168   2.943   2.000   1.814
  721TIP3    H1 2169   2.974   1.949   1.739
  721TIP3    H2 2170   2.874   2.056   1.779
  722TIP3   OH2 2171   4.838   2.833   2.209
  722TIP3    H1 2172   4.868   2.785   2.286
  722TIP3    H2 2173   4.820   2.765   2.144
  723TIP3   OH2 2174   0.844   4.318   3.053
  723TIP3    H1 2175   0.796   4.300   3.134
  723TIP3    H2 2176   0.779   4.308   2.983
  724TIP3   OH2 2177   2.036   1.447   0.208
  724TIP3    H1 2178   2.117   1.398   0.219
  724TIP3    H2 2179   2.055   1.512   0.141
  725TIP3   OH2 2180   2.502   3.567   2.370
  725TIP3    H1 2181   2.565   3.552   2.441
  725TIP3    H2 2182   2.416   3.558   2.411
  726TIP3   OH2 2183   5.981   0.354   5.103
  726TIP3    H1 2184   6.065   0.351   5.059
  726TIP3    H2 2185   5.929   0.418   5.053
  727TIP3   OH2 2186   2.814   2.724   3.154
  727TIP3    H1 2187   2.742   2.669   3.186
  727TIP3    H2 2188   2.841   2.776   3.230
  728TIP3   OH2 2189   6.008   0.388   2.260
  728TIP3    H1 2190   5.940   0.323   2.276
  728TIP3    H2 2191   5.992   0.417   2.170
  729TIP3   OH2 2192   4.251   2.801   1.825
  729TIP3    H1 2193   4.254   2.867   1.755
  729TIP3    H2 2194   4.336   2.809   1.869
  730TIP3   OH2 2195   0.450   5.821   2.713
  730TIP3    H1 2196   0.525   5.868   2.679
  730TIP3    H2 2197   0.374   5.863   2.671
  731TIP3   OH2 2198   0.933   2.084   1.945
  731TIP3    H1 2199   0.988   2.087   1.867
  731TIP3    H2 2200   0.987   2.124   2.013
  732TIP3   OH2 2201   5.535   1.624   3.616
  732TIP3    H1 2202   5.477   1.551   3.595
  732TIP3    H2 2203   5.622   1.594   3.588
  733TIP3   OH2 2204   4.802   4.526   1.249
  733TIP3    H1 2205   4.728   4.543   1.307
  733TIP3    H2 2206   4.771   4.555   1.163
  734TIP3   OH2 2207   1.113   1.524   4.511
  734TIP3    H1 2208   1.136   1.496   4.422
  734TIP3    H2 2209   1.019   1.542   4.506
  735TIP3   OH2 2210   1.555   0.976   0.974
  735TIP3    H1 2211   1.526   0.959   1.063
  735TIP3    H2 2212   1.560   1.071   0.968
  736TIP3   OH2 2213   5.605   0.983   3.973
  736TIP3    H1 2214   5.530   0.954   3.922
  736TIP3    H2 2215   5.640   0.903   4.013
  737TIP3   OH2 2216   0.197   0.141   3.895
  737TIP3    H1 2217   0.175   0.178   3.809
  737TIP3    H2 2218   0.117   0.153   3.947
  738TIP3   OH2 2219   2.087   2.040   4.928
  738TIP3    H1 2220   2.116   1.949   4.939
  738TIP3    H2 2221   2.002   2.033   4.886
  739TIP3   OH2 2222   6.369   2.039   0.340
  739TIP3    H1 2223   6.408   2.110   0.391
  739TIP3    H2 2224   6.288   2.077   0.306
  740TIP3   OH2 2225   2.702   4.715   3.163
  740TIP3    H1 2226   2.760   4.657   3.212
  740TIP3    H2 2227   2.619   4.668   3.159
  741TIP3   OH2 2228   1.758   3.640   3.052
  741TIP3    H1 2229   1.846   3.609   3.032
  741TIP3    H2 2230   1.738   3.600   3.137
  742TIP3   OH2 2231   5.472   1.315   4.858
  742TIP3    H1 2232   5.497   1.314   4.765
  742TIP3    H2 2233   5.387   1.270   4.860
  743TIP3   OH2 2234   5.723   0.770   1.088
  743TIP3    H1 2235   5.713   0.865   1.089
  743TIP3    H2 2236   5.634   0.736   1.102
  744TIP3   OH2 2237   2.773   5.557   2.812
  744TIP3    H1 2238   2.715   5.523   2.743
  744TIP3    H2 2239   2.816   5.632   2.773
  745TIP3   OH2 2240   5.110   4.006   2.148
  745TIP3    H1 2241   5.187   3.969   2.191
  745TIP3    H2 2242   5.095   3.948   2.072
  746TIP3   OH2 2243   5.994   5.827   1.198
  746TIP3    H1 2244   6.081   5.788   1.195
  746TIP3    H2 2245   5.938   5.764   1.152
  747TIP3   OH2 2246   3.977   4.420   0.675
  747TIP3    H1 2247   4.054   4.400   0.622
  747TIP3    H2 2248   3.988   4.368   0.754
  748TIP3   OH2 2249   2.928   2.026   2.607
  748TIP3    H1 2250   2.912   2.068   2.522
  748TIP3    H2 2251   2.861   1.959   2.614
  749TIP3   OH2 2252   3.987   2.003   4.456
  749TIP3    H1 2253   4.035   2.054   4.521
  749TIP3    H2 2254   4.006   1.912   4.479
  750TIP3   OH2 2255   5.224   1.230   3.273
  750TIP3    H1 2256   5.292   1.271   3.220
  750TIP3    H2 2257   5.142   1.252   3.229
  751TIP3   OH2 2258   6.286   4.396   3.850
  751TIP3    H1 2259   6.217   4.462   3.857
  751TIP3    H2 2260   6.245   4.315   3.880
  752TIP3   OH2 2261   6.139   5.158   4.236
  752TIP3    H1 2262   6.070   5.219   4.211
  752TIP3    H2 2263   6.093   5.084   4.277
  753TIP3   OH2 2264   3.893   3.606   1.269
  753TIP3    H1 2265   3.899   3.553   1.349
  753TIP3    H2 2266   3.979   3.600   1.229
  754TIP3   OH2 2267   4.872   0.583   4.827
  754TIP3    H1 2268   4.827   0.661   4.857
  754TIP3    H2 2269   4.964   0.599   4.847
  755TIP3   OH2 2270   5.787   1.513   0.792
  755TIP3    H1 2271   5.878   1.520   0.819
  755TIP3    H2 2272   5.788   1.529   0.698
  756TIP3   OH2 2273   2.748   5.727   3.767
  756TIP3    H1 2274   2.756   5.643   3.812
  756TIP3    H2 2275   2.676   5.716   3.706
  757TIP3   OH2 2276   2.116   5.003   2.617
  757TIP3    H1 2277   2.112   5.046   2.703
  757TIP3    H2 2278   2.034   4.954   2.611
  758TIP3   OH2 2279   4.132   0.058   0.313
  758TIP3    H1 2280   4.217   0.096   0.295
  758TIP3    H2 2281   4.076   0.132   0.336
  759TIP3   OH2 2282   1.997   2.759   5.141
  759TIP3    H1 2283   2.080   2.753   5.093
  759TIP3    H2 2284   2.009   2.702   5.217
  760TIP3   OH2 2285   1.704   0.075   1.348
  760TIP3    H1 2286   1.790   0.116   1.350
  760TIP3    H2 2287   1.716  -0.003   1.294
  761TIP3   OH2 2288   5.046   3.144   4.244
  761TIP3    H1 2289   5.034   3.230   4.283
  761TIP3    H2 2290   5.063   3.162   4.151
  762TIP3   OH2 2291   3.373   5.523   4.951
  762TIP3    H1 2292   3.279   5.541   4.949
  762TIP3    H2 2293   3.404   5.544   4.863
  763TIP3   OH2 2294   1.966   5.900   4.068
  763TIP3    H1 2295   1.887   5.851   4.089
  763TIP3    H2 2296   1.969   5.901   3.972
  764TIP3   OH2 2297   1.220   4.299   0.661
  764TIP3    H1 2298   1.141   4.320   0.612
  764TIP3    H2 2299   1.193   4.306   0.753
  765TIP3   OH2 2300   0.105   1.421   3.901
  765TIP3    H1 2301   0.024   1.381   3.932
  765TIP3    H2 2302   0.174   1.379   3.951
  766TIP3   OH2 2303   3.683   2.597   1.235
  766TIP3    H1 2304   3.738   2.574   1.310
  766TIP3    H2 2305   3.743   2.637   1.172
  767TIP3   OH2 2306   3.741   1.387   3.834
  767TIP3    H1 2307   3.682   1.450   3.793
  767TIP3    H2 2308   3.829   1.416   3.810
  768TIP3   OH2 2309   5.329   4.678   3.592
  768TIP3    H1 2310   5.358   4.594   3.628
  768TIP3    H2 2311   5.310   4.660   3.500
  769TIP3   OH2 2312   3.357   5.063   2.762
  769TIP3    H1 2313   3.278   5.093   2.807
  769TIP3    H2 2314   3.324   5.013   2.688
  770TIP3   OH2 2315   0.592   1.361   2.242
  770TIP3    H1 2316   0.521   1.331   2.298
  770TIP3    H2 2317   0.646   1.417   2.298
  771TIP3   OH2 2318   5.848   0.444   0.335
  771TIP3    H1 2319   5.942   0.464   0.325
  771TIP3    H2 2320   5.825   0.481   0.420
  772TIP3   OH2 2321   3.163   1.844   4.712
  772TIP3    H1 2322   3.175   1.798   4.629
  772TIP3    H2 2323   3.132   1.777   4.773
  773TIP3   OH2 2324   1.201   4.764   2.540
  773TIP3    H1 2325   1.141   4.721   2.479
  773TIP3    H2 2326   1.155   4.845   2.565
  774TIP3   OH2 2327   3.302   2.211   2.557
  774TIP3    H1 2328   3.228   2.199   2.498
  774TIP3    H2 2329   3.268   2.189   2.644
  775TIP3   OH2 2330   3.781   3.983   4.049
  775TIP3    H1 2331   3.849   3.983   4.117
  775TIP3    H2 2332   3.829   3.991   3.967
  776TIP3   OH2 2333   6.239   5.938   1.033
  776TIP3    H1 2334   6.223   5.899   0.947
  776TIP3    H2 2335   6.323   5.899   1.061
  777TIP3   OH2 2336   6.055   0.711   1.454
  777TIP3    H1 2337   6.034   0.719   1.361
  777TIP3    H2 2338   6.063   0.617   1.469
  778TIP3   OH2 2339   4.905   5.086   2.399
  778TIP3    H1 2340   4.853   5.165   2.386
  778TIP3    H2 2341   4.851   5.016   2.360
  779TIP3   OH2 2342   5.955   3.965   4.195
  779TIP3    H1 2343   5.948   3.870   4.197
  779TIP3    H2 2344   6.043   3.984   4.226
  780TIP3   OH2 2345   6.121   2.379   2.285
  780TIP3    H1 2346   6.192   2.329   2.325
  780TIP3    H2 2347   6.042   2.352   2.332
  781TIP3   OH2 2348   1.293   3.726   2.238
  781TIP3    H1 2349   1.383   3.723   2.271
  781TIP3    H2 2350   1.275   3.636   2.211
  782TIP3   OH2 2351   2.796   2.195   1.632
  782TIP3    H1 2352   2.836   2.190   1.545
  782TIP3    H2 2353   2.857   2.249   1.683
  783TIP3   OH2 2354   3.420   2.560   3.545
  783TIP3    H1 2355   3.380   2.638   3.508
  783TIP3    H2 2356   3.347   2.499   3.559
  784TIP3   OH2 2357   1.744   3.270   2.282
  784TIP3    H1 2358   1.770   3.360   2.298
  784TIP3    H2 2359   1.826   3.224   2.265
  785TIP3   OH2 2360   3.139   2.751   0.839
  785TIP3    H1 2361   3.098   2.751   0.752
  785TIP3    H2 2362   3.129   2.841   0.870
  786TIP3   OH2 2363   1.672   4.253   0.166
  786TIP3    H1 2364   1.708   4.327   0.117
  786TIP3    H2 2365   1.644   4.191   0.098
  787TIP3   OH2 2366   0.006   0.250   1.096
  787TIP3    H1 2367   0.026   0.344   1.105
  787TIP3    H2 2368   0.030   0.230   1.005
  788TIP3   OH2 2369   3.387   1.555   1.088
  788TIP3    H1 2370   3.386   1.595   1.001
  788TIP3    H2 2371   3.328   1.480   1.080
  789TIP3   OH2 2372   5.380   0.411   2.956
  789TIP3    H1 2373   5.460   0.372   2.919
  789TIP3    H2 2374   5.338   0.453   2.881
  790TIP3   OH2 2375   4.533   0.640   3.566
  790TIP3    H1 2376   4.603   0.686   3.519
  790TIP3    H2 2377   4.493   0.584   3.500
  791TIP3   OH2 2378   2.744   2.483   1.513
  791TIP3    H1 2379   2.776   2.397   1.538
  791TIP3    H2 2380   2.769   2.540   1.586
  792TIP3   OH2 2381   5.032   2.758   4.871
  792TIP3    H1 2382   5.098   2.715   4.815
  792TIP3    H2 2383   5.028   2.848   4.839
  793TIP3   OH2 2384   0.348   0.355   4.882
  793TIP3    H1 2385   0.300   0.315   4.954
  793TIP3    H2 2386   0.282   0.370   4.814
  794TIP3   OH2 2387   3.291   4.798   3.650
  794TIP3    H1 2388   3.245   4.716   3.629
  794TIP3    H2 2389   3.374   4.791   3.602
  795TIP3   OH2 2390   2.708   2.287   0.311
  795TIP3    H1 2391   2.770   2.217   0.293
  795TIP3    H2 2392   2.760   2.367   0.303
  796TIP3   OH2 2393   3.094   0.301   4.560
  796TIP3    H1 2394   3.033   0.280   4.489
  796TIP3    H2 2395   3.056   0.260   4.637
  797TIP3   OH2 2396   3.518   5.294   3.060
  797TIP3    H1 2397   3.493   5.379   3.096
  797TIP3    H2 2398   3.446   5.235   3.086
  798TIP3   OH2 2399   1.772   0.196   4.501
  798TIP3    H1 2400   1.773   0.108   4.537
  798TIP3    H2 2401   1.709   0.192   4.429
  799TIP3   OH2 2402   3.409   5.083   1.433
  799TIP3    H1 2403   3.473   5.079   1.362
  799TIP3    H2 2404   3.433   5.012   1.491
  800TIP3   OH2 2405   4.540   2.016   0.352
  800TIP3    H1 2406   4.582   2.032   0.267
  800TIP3    H2 2407   4.613   2.005   0.413
  801TIP3   OH2 2408   2.324   3.289   1.115
  801TIP3    H1 2409   2.307   3.265   1.024
  801TIP3    H2 2410   2.317   3.385   1.116
  802TIP3   OH2 2411   4.518   2.032   1.292
  802TIP3    H1 2412   4.578   1.975   1.243
  802TIP3    H2 2413   4.444   2.045   1.234
  803TIP3   OH2 2414   4.490   2.937   0.246
  803TIP3    H1 2415   4.564   2.997   0.236
  803TIP3    H2 2416   4.413   2.994   0.247
  804TIP3   OH2 2417   1.492   4.979   0.951
  804TIP3    H1 2418   1.551   5.014   0.884
  804TIP3    H2 2419   1.548   4.922   1.004
  805TIP3   OH2 2420   1.400   4.936   0.533
  805TIP3    H1 2421   1.453   4.904   0.460
  805TIP3    H2 2422   1.346   5.005   0.496
  806TIP3   OH2 2423   5.463   5.557   1.756
  806TIP3    H1 2424   5.523   5.625   1.727
  806TIP3    H2 2425   5.389   5.604   1.795
  807TIP3   OH2 2426   3.687   0.328   4.713
  807TIP3    H1 2427   3.761   0.317   4.653
  807TIP3    H2 2428   3.719   0.389   4.779
  808TIP3   OH2 2429   0.820   3.277   3.131
  808TIP3    H1 2430   0.736   3.319   3.154
  808TIP3    H2 2431   0.795   3.200   3.081
  809TIP3   OH2 2432   4.397   5.272   4.234
  809TIP3    H1 2433   4.435   5.210   4.296
  809TIP3    H2 2434   4.473   5.306   4.185
  810TIP3   OH2 2435   5.991   0.843   4.044
  810TIP3    H1 2436   5.989   0.910   3.976
  810TIP3    H2 2437   5.899   0.818   4.055
  811TIP3   OH2 2438   5.527   2.300   1.525
  811TIP3    H1 2439   5.557   2.300   1.434
  811TIP3    H2 2440   5.570   2.224   1.564
  812TIP3   OH2 2441   4.770   2.404   1.867
  812TIP3    H1 2442   4.849   2.349   1.859
  812TIP3    H2 2443   4.758   2.440   1.779
  813TIP3   OH2 2444   0.639   0.530   3.785
  813TIP3    H1 2445   0.641   0.437   3.761
  813TIP3    H2 2446   0.651   0.530   3.880
  814TIP3   OH2 2447   2.116   3.251   4.855
  814TIP3    H1 2448   2.130   3.345   4.869
  814TIP3    H2 2449   2.066   3.246   4.774
  815TIP3   OH2 2450   0.713   2.542   2.401
  815TIP3    H1 2451   0.777   2.580   2.461
  815TIP3    H2 2452   0.633   2.594   2.414
  816TIP3   OH2 2453   3.008   3.704   0.791
  816TIP3    H1 2454   3.033   3.794   0.769
  816TIP3    H2 2455   2.998   3.704   0.886
  817TIP3   OH2 2456   4.391   3.079   0.569
  817TIP3    H1 2457   4.475   3.125   0.574
  817TIP3    H2 2458   4.411   2.991   0.599
  818TIP3   OH2 2459   3.358   5.397   0.445
  818TIP3    H1 2460   3.384   5.438   0.362
  818TIP3    H2 2461   3.441   5.388   0.493
  819TIP3   OH2 2462   4.815   2.156   3.412
  819TIP3    H1 2463   4.856   2.151   3.326
  819TIP3    H2 2464   4.725   2.181   3.394
  820TIP3   OH2 2465   6.015   3.428   3.696
  820TIP3    H1 2466   6.004   3.351   3.753
  820TIP3    H2 2467   5.988   3.397   3.610
  821TIP3   OH2 2468   0.671   1.305   4.042
  821TIP3    H1 2469   0.677   1.317   3.947
  821TIP3    H2 2470   0.578   1.289   4.058
  822TIP3   OH2 2471   3.104   4.755   3.239
  822TIP3    H1 2472   3.133   4.666   3.217
  822TIP3    H2 2473   3.045   4.780   3.168
  823TIP3   OH2 2474   6.086   4.637   0.721
  823TIP3    H1 2475   6.006   4.596   0.688
  823TIP3    H2 2476   6.067   4.731   0.721
  824TIP3   OH2 2477   3.331   0.373   0.008
  824TIP3    H1 2478   3.401   0.396  -0.052
  824TIP3    H2 2479   3.348   0.426   0.087
  825TIP3   OH2 2480   2.415   5.299   0.524
  825TIP3    H1 2481   2.356   5.273   0.595
  825TIP3    H2 2482   2.503   5.281   0.558
  826TIP3   OH2 2483   0.495   3.425   3.707
  826TIP3    H1 2484   0.438   3.358   3.744
  826TIP3    H2 2485   0.584   3.389   3.717
  827TIP3   OH2 2486   2.826   1.127   1.065
  827TIP3    H1 2487   2.850   1.035   1.056
  827TIP3    H2 2488   2.788   1.151   0.981
  828TIP3   OH2 2489   0.977   5.546   2.815
  828TIP3    H1 2490   0.997   5.623   2.867
  828TIP3    H2 2491   0.947   5.481   2.878
  829TIP3   OH2 2492   3.879   5.377   0.858
  829TIP3    H1 2493   3.962   5.330   0.859
  829TIP3    H2 2494   3.848   5.374   0.948
  830TIP3   OH2 2495   2.956   4.844   0.094
  830TIP3    H1 2496   2.901   4.876   0.165
  830TIP3    H2 2497   3.031   4.804   0.138
  831TIP3   OH2 2498   3.740   0.509   0.174
  831TIP3    H1 2499   3.716   0.553   0.092
  831TIP3    H2 2500   3.729   0.416   0.155
  832TIP3   OH2 2501   2.615   5.151   0.370
  832TIP3    H1 2502   2.628   5.201   0.450
  832TIP3    H2 2503   2.525   5.118   0.377
  833TIP3   OH2 2504   4.936   4.998   0.712
  833TIP3    H1 2505   4.864   5.029   0.658
  833TIP3    H2 2506   5.015   5.018   0.661
  834TIP3   OH2 2507   2.056   0.472   1.325
  834TIP3    H1 2508   2.003   0.394   1.342
  834TIP3    H2 2509   2.027   0.503   1.239
  835TIP3   OH2 2510   2.838   0.309   0.275
  835TIP3    H1 2511   2.882   0.385   0.238
  835TIP3    H2 2512   2.775   0.345   0.337
  836TIP3   OH2 2513   0.412   0.086   0.728
  836TIP3    H1 2514   0.492   0.046   0.695
  836TIP3    H2 2515   0.365   0.014   0.771
  837TIP3   OH2 2516   5.193   1.556   0.349
  837TIP3    H1 2517   5.141   1.496   0.296
  837TIP3    H2 2518   5.268   1.578   0.294
  838TIP3   OH2 2519   1.265   4.392   4.417
  838TIP3    H1 2520   1.172   4.400   4.437
  838TIP3    H2 2521   1.303   4.474   4.448
  839TIP3   OH2 2522   5.136   0.923   1.949
  839TIP3    H1 2523   5.113   0.992   2.012
  839TIP3    H2 2524   5.139   0.968   1.864
  840TIP3   OH2 2525   2.115   5.761   0.257
  840TIP3    H1 2526   2.088   5.852   0.271
  840TIP3    H2 2527   2.033   5.713   0.251
  841TIP3   OH2 2528   3.611   5.872   4.943
  841TIP3    H1 2529   3.537   5.856   5.002
  841TIP3    H2 2530   3.628   5.966   4.951
  842TIP3   OH2 2531   2.609   1.569   2.967
  842TIP3    H1 2532   2.516   1.547   2.969
  842TIP3    H2 2533   2.625   1.598   2.877
  843TIP3   OH2 2534   5.934   5.881   1.930
  843TIP3    H1 2535   6.027   5.891   1.951
  843TIP3    H2 2536   5.918   5.787   1.939
  844TIP3   OH2 2537   4.961   0.542   3.932
  844TIP3    H1 2538   5.001   0.456   3.947
  844TIP3    H2 2539   5.020   0.603   3.976
  845TIP3   OH2 2540   1.272   5.153   5.117
  845TIP3    H1 2541   1.323   5.222   5.074
  845TIP3    H2 2542   1.248   5.093   5.047
  846TIP3   OH2 2543   2.261   4.561   1.895
  846TIP3    H1 2544   2.307   4.568   1.978
  846TIP3    H2 2545   2.250   4.652   1.866
  847TIP3   OH2 2546   4.295   1.291   4.486
  847TIP3    H1 2547   4.242   1.216   4.459
  847TIP3    H2 2548   4.237   1.366   4.476
  848TIP3   OH2 2549   5.077   5.661   1.251
  848TIP3    H1 2550   5.160   5.612   1.254
  848TIP3    H2 2551   5.016   5.603   1.205
  849TIP3   OH2 2552   5.932   3.842   1.477
  849TIP3    H1 2553   5.995   3.770   1.474
  849TIP3    H2 2554   5.887   3.831   1.561
  850TIP3   OH2 2555   3.498   2.964   4.744
  850TIP3    H1 2556   3.406   2.937   4.752
  850TIP3    H2 2557   3.507   2.994   4.654
  851TIP3   OH2 2558   0.764   4.477   3.787
  851TIP3    H1 2559   0.847   4.511   3.754
  851TIP3    H2 2560   0.747   4.527   3.867
  852TIP3   OH2 2561   2.086   6.023   3.765
  852TIP3    H1 2562   2.115   5.934   3.745
  852TIP3    H2 2563   2.166   6.074   3.770
  853TIP3   OH2 2564   0.367   1.017   0.020
  853TIP3    H1 2565   0.298   1.082   0.032
  853TIP3    H2 2566   0.396   0.996   0.108
  854TIP3   OH2 2567   2.798   3.079   2.032
  854TIP3    H1 2568   2.771   3.095   2.122
  854TIP3    H2 2569   2.719   3.047   1.988
  855TIP3   OH2 2570   1.870   5.074   1.424
  855TIP3    H1 2571   1.817   5.097   1.348
  855TIP3    H2 2572   1.841   4.985   1.448
  856TIP3   OH2 2573   2.335   1.989   1.240
  856TIP3    H1 2574   2.283   1.932   1.184
  856TIP3    H2 2575   2.274   2.055   1.271
  857TIP3   OH2 2576   3.684   2.790   2.622
  857TIP3    H1 2577   3.591   2.790   2.600
  857TIP3    H2 2578   3.691   2.851   2.696
  858TIP3   OH2 2579   2.408   4.392   0.767
  858TIP3    H1 2580   2.400   4.408   0.861
  858TIP3    H2 2581   2.501   4.372   0.755
  859TIP3   OH2 2582   4.684   3.240   1.980
  859TIP3    H1 2583   4.712   3.197   2.061
  859TIP3    H2 2584   4.755   3.224   1.918
  860TIP3   OH2 2585   5.928   4.342   4.706
  860TIP3    H1 2586   5.990   4.278   4.741
  860TIP3    H2 2587   5.852   4.291   4.681
  861TIP3   OH2 2588   3.543   1.804   1.718
  861TIP3    H1 2589   3.450   1.799   1.695
  861TIP3    H2 2590   3.548   1.775   1.809
  862TIP3   OH2 2591   2.317   2.587   0.432
  862TIP3    H1 2592   2.398   2.556   0.391
  862TIP3    H2 2593   2.338   2.592   0.526
  863TIP3   OH2 2594   5.693   1.297   0.942
  863TIP3    H1 2595   5.738   1.326   1.022
  863TIP3    H2 2596   5.732   1.350   0.872
  864TIP3   OH2 2597   3.024   3.254   0.301
  864TIP3    H1 2598   3.007   3.326   0.240
  864TIP3    H2 2599   2.984   3.178   0.259
  865TIP3   OH2 2600   5.558   0.540   0.845
  865TIP3    H1 2601   5.653   0.530   0.846
  865TIP3    H2 2602   5.529   0.505   0.930
  866TIP3   OH2 2603   4.044   5.336   4.715
  866TIP3    H1 2604   4.089   5.274   4.657
  866TIP3    H2 2605   3.955   5.341   4.679
  867TIP3   OH2 2606   6.174   1.439   3.692
  867TIP3    H1 2607   6.196   1.387   3.615
  867TIP3    H2 2608   6.244   1.504   3.699
  868TIP3   OH2 2609   2.949   3.868   4.529
  868TIP3    H1 2610   2.953   3.899   4.619
  868TIP3    H2 2611   2.913   3.779   4.535
  869TIP3   OH2 2612   1.542   0.191   2.140
  869TIP3    H1 2613   1.582   0.185   2.227
  869TIP3    H2 2614   1.576   0.272   2.104
  870TIP3   OH2 2615   4.978   2.651   0.578
  870TIP3    H1 2616   4.976   2.555   0.580
  870TIP3    H2 2617   5.062   2.674   0.617
  871TIP3   OH2 2618   3.067   2.254   0.452
  871TIP3    H1 2619   3.066   2.348   0.439
  871TIP3    H2 2620   2.978   2.233   0.480
  872TIP3   OH2 2621   2.418   1.219   0.370
  872TIP3    H1 2622   2.418   1.281   0.297
  872TIP3    H2 2623   2.490   1.159   0.352
  873TIP3   OH2 2624   5.346   2.080   4.413
  873TIP3    H1 2625   5.398   2.113   4.486
  873TIP3    H2 2626   5.383   1.994   4.394
  874TIP3   OH2 2627   3.096   1.890   1.007
  874TIP3    H1 2628   3.073   1.801   0.979
  874TIP3    H2 2629   3.036   1.947   0.959
  875TIP3   OH2 2630   2.410   5.122   1.552
  875TIP3    H1 2631   2.440   5.042   1.508
  875TIP3    H2 2632   2.474   5.135   1.623
  876TIP3   OH2 2633   6.128   1.754   1.010
  876TIP3    H1 2634   6.033   1.769   1.009
  876TIP3    H2 2635   6.139   1.665   0.977
  877TIP3   OH2 2636   0.511   4.330   0.507
  877TIP3    H1 2637   0.530   4.382   0.430
  877TIP3    H2 2638   0.416   4.336   0.517
  878TIP3   OH2 2639   0.625   1.103   0.656
  878TIP3    H1 2640   0.589   1.191   0.645
  878TIP3    H2 2641   0.577   1.066   0.730
  879TIP3   OH2 2642   4.821   2.743   3.744
  879TIP3    H1 2643   4.768   2.749   3.824
  879TIP3    H2 2644   4.895   2.801   3.760
  880TIP3   OH2 2645   3.781   3.103   4.224
  880TIP3    H1 2646   3.713   3.055   4.177
  880TIP3    H2 2647   3.759   3.196   4.212
  881TIP3   OH2 2648   1.353   0.731   0.644
  881TIP3    H1 2649   1.383   0.658   0.588
  881TIP3    H2 2650   1.425   0.794   0.641
  882TIP3   OH2 2651   1.036   2.110   2.195
  882TIP3    H1 2652   0.990   2.189   2.223
  882TIP3    H2 2653   1.015   2.045   2.262
  883TIP3   OH2 2654   2.174   2.104   1.537
  883TIP3    H1 2655   2.158   2.061   1.621
  883TIP3    H2 2656   2.100   2.079   1.483
  884TIP3   OH2 2657   3.906   4.781   5.166
  884TIP3    H1 2658   3.958   4.822   5.097
  884TIP3    H2 2659   3.875   4.854   5.220
  885TIP3   OH2 2660   3.223   2.161   3.827
  885TIP3    H1 2661   3.230   2.255   3.810
  885TIP3    H2 2662   3.175   2.155   3.910
  886TIP3   OH2 2663   0.250   5.956   0.383
  886TIP3    H1 2664   0.226   5.892   0.315
  886TIP3    H2 2665   0.254   6.040   0.336
  887TIP3   OH2 2666   5.677   3.021   2.110
  887TIP3    H1 2667   5.733   3.095   2.088
  887TIP3    H2 2668   5.607   3.059   2.162
  888TIP3   OH2 2669   2.185   2.954   1.345
  888TIP3    H1 2670   2.201   2.861   1.364
  888TIP3    H2 2671   2.249   3.000   1.400
  889TIP3   OH2 2672   2.960   1.127   0.378
  889TIP3    H1 2673   3.045   1.141   0.422
  889TIP3    H2 2674   2.950   1.204   0.322
  890TIP3   OH2 2675   5.707   3.619   1.691
  890TIP3    H1 2676   5.754   3.535   1.694
  890TIP3    H2 2677   5.719   3.656   1.778
  891TIP3   OH2 2678   3.598   4.477   0.167
  891TIP3    H1 2679   3.532   4.525   0.217
  891TIP3    H2 2680   3.626   4.539   0.100
  892TIP3   OH2 2681   3.582   1.307   4.060
  892TIP3    H1 2682   3.642   1.347   3.998
  892TIP3    H2 2683   3.531   1.244   4.008
  893TIP3   OH2 2684   4.464   5.801   3.030
  893TIP3    H1 2685   4.456   5.896   3.021
  893TIP3    H2 2686   4.531   5.776   2.966
  894TIP3   OH2 2687   4.580   1.938   2.148
  894TIP3    H1 2688   4.572   1.965   2.057
  894TIP3    H2 2689   4.520   1.995   2.195
  895TIP3   OH2 2690   5.495   0.354   1.040
  895TIP3    H1 2691   5.401   0.358   1.059
  895TIP3    H2 2692   5.529   0.286   1.097
  896TIP3   OH2 2693   1.018   3.422   2.331
  896TIP3    H1 2694   1.113   3.412   2.332
  896TIP3    H2 2695   0.985   3.343   2.371
  897TIP3   OH2 2696   2.684   0.231   2.426
  897TIP3    H1 2697   2.695   0.257   2.334
  897TIP3    H2 2698   2.651   0.310   2.469
  898TIP3   OH2 2699   0.128   5.035   4.619
  898TIP3    H1 2700   0.105   5.112   4.568
  898TIP3    H2 2701   0.161   4.972   4.553
  899TIP3   OH2 2702   0.637   4.364   2.865
  899TIP3    H1 2703   0.646   4.310   2.787
  899TIP3    H2 2704   0.545   4.391   2.865
  900TIP3   OH2 2705   1.625   1.744   1.431
  900TIP3    H1 2706   1.547   1.751   1.487
  900TIP3    H2 2707   1.613   1.812   1.365
  901TIP3   OH2 2708   2.686   5.401   0.177
  901TIP3    H1 2709   2.716   5.365   0.260
  901TIP3    H2 2710   2.602   5.443   0.198
  902TIP3   OH2 2711   1.308   0.777   4.910
  902TIP3    H1 2712   1.213   0.782   4.899
  902TIP3    H2 2713   1.334   0.862   4.946
  903TIP3   OH2 2714   2.581   3.341   4.653
  903TIP3    H1 2715   2.659   3.323   4.600
  903TIP3    H2 2716   2.513   3.286   4.615
  904TIP3   OH2 2717   2.285   3.868   3.544
  904TIP3    H1 2718   2.229   3.833   3.614
  904TIP3    H2 2719   2.234   3.939   3.506
  905TIP3   OH2 2720   5.715   1.162   0.462
  905TIP3    H1 2721   5.635   1.153   0.514
  905TIP3    H2 2722   5.785   1.165   0.528
  906TIP3   OH2 2723   3.817   3.656   3.659
  906TIP3    H1 2724   3.822   3.573   3.707
  906TIP3    H2 2725   3.744   3.702   3.699
  907TIP3   OH2 2726   6.119   5.950   4.665
  907TIP3    H1 2727   6.062   5.913   4.598
  907TIP3    H2 2728   6.162   5.875   4.704
  908TIP3   OH2 2729   2.469   4.439   2.797
  908TIP3    H1 2730   2.551   4.479   2.769
  908TIP3    H2 2731   2.489   4.399   2.882
  909TIP3   OH2 2732   3.715   1.184   3.492
  909TIP3    H1 2733   3.768   1.208   3.417
  909TIP3    H2 2734   3.624   1.192   3.462
  910TIP3   OH2 2735   1.614   3.104   0.061
  910TIP3    H1 2736   1.664   3.130  -0.017
  910TIP3    H2 2737   1.671   3.043   0.107
  911TIP3   OH2 2738   4.757   0.632   4.236
  911TIP3    H1 2739   4.702   0.558   4.260
  911TIP3    H2 2740   4.705   0.683   4.174
  912TIP3   OH2 2741   1.612   1.289   0.809
  912TIP3    H1 2742   1.519   1.278   0.788
  912TIP3    H2 2743   1.618   1.263   0.901
  913TIP3   OH2 2744   2.034   4.520   3.014
  913TIP3    H1 2745   2.084   4.537   2.934
  913TIP3    H2 2746   2.062   4.589   3.075
  914TIP3   OH2 2747   4.013   3.841   3.554
  914TIP3    H1 2748   3.974   3.779   3.616
  914TIP3    H2 2749   4.085   3.793   3.513
  915TIP3   OH2 2750   0.932   3.976   1.814
  915TIP3    H1 2751   1.024   3.960   1.794
  915TIP3    H2 2752   0.892   3.889   1.810
  916TIP3   OH2 2753   0.624   5.285   4.140
  916TIP3    H1 2754   0.573   5.205   4.128
  916TIP3    H2 2755   0.559   5.355   4.147
  917TIP3   OH2 2756   3.586   3.220   0.572
  917TIP3    H1 2757   3.651   3.229   0.642
  917TIP3    H2 2758   3.501   3.227   0.617
  918TIP3   OH2 2759   4.329   5.419   1.281
  918TIP3    H1 2760   4.272   5.493   1.258
  918TIP3    H2 2761   4.272   5.359   1.329
  919TIP3   OH2 2762   5.492   1.723   4.847
  919TIP3    H1 2763   5.463   1.672   4.771
  919TIP3    H2 2764   5.415   1.776   4.870
  920TIP3   OH2 2765   1.936   3.209   1.618
  920TIP3    H1 2766   2.023   3.220   1.656
  920TIP3    H2 2767   1.911   3.297   1.591
  921TIP3   OH2 2768   5.305   4.045   1.816
  921TIP3    H1 2769   5.354   3.990   1.877
  921TIP3    H2 2770   5.249   3.983   1.768
  922TIP3   OH2 2771   1.750   3.105   2.629
  922TIP3    H1 2772   1.778   3.102   2.537
  922TIP3    H2 2773   1.747   3.013   2.656
  923TIP3   OH2 2774   5.036   4.676   4.200
  923TIP3    H1 2775   4.960   4.644   4.151
  923TIP3    H2 2776   5.009   4.672   4.292
  924TIP3   OH2 2777   6.263   2.971   3.326
  924TIP3    H1 2778   6.268   2.974   3.230
  924TIP3    H2 2779   6.336   3.026   3.356
  925TIP3   OH2 2780   4.151   1.070   1.746
  925TIP3    H1 2781   4.169   0.976   1.739
  925TIP3    H2 2782   4.159   1.103   1.657
  926TIP3   OH2 2783   0.299   3.884   0.951
  926TIP3    H1 2784   0.305   3.966   1.000
  926TIP3    H2 2785   0.376   3.885   0.894
  927TIP3   OH2 2786   1.014   1.380   1.328
  927TIP3    H1 2787   1.020   1.285   1.317
  927TIP3    H2 2788   1.041   1.415   1.243
  928TIP3   OH2 2789   0.579   0.352   3.054
  928TIP3    H1 2790   0.592   0.390   3.140
  928TIP3    H2 2791   0.593   0.424   2.993
  929TIP3   OH2 2792   4.843   0.939   0.063
  929TIP3    H1 2793   4.873   0.852   0.090
  929TIP3    H2 2794   4.750   0.941   0.086
  930TIP3   OH2 2795   4.902   1.852   3.687
  930TIP3    H1 2796   4.808   1.858   3.672
  930TIP3    H2 2797   4.941   1.905   3.617
  931TIP3   OH2 2798   1.619   3.944   4.003
  931TIP3    H1 2799   1.554   4.005   4.036
  931TIP3    H2 2800   1.570   3.885   3.946
  932TIP3   OH2 2801   0.686   3.224   2.314
  932TIP3    H1 2802   0.777   3.203   2.294
  932TIP3    H2 2803   0.647   3.140   2.341
  933TIP3   OH2 2804   1.449   5.781   2.080
  933TIP3    H1 2805   1.441   5.867   2.040
  933TIP3    H2 2806   1.539   5.754   2.062
  934TIP3   OH2 2807   4.235   1.859   2.091
  934TIP3    H1 2808   4.229   1.763   2.090
  934TIP3    H2 2809   4.305   1.879   2.030
  935TIP3   OH2 2810   3.783   4.867   1.295
  935TIP3    H1 2811   3.879   4.864   1.291
  935TIP3    H2 2812   3.760   4.954   1.265
  936TIP3   OH2 2813   4.739   3.225   4.166
  936TIP3    H1 2814   4.807   3.179   4.117
  936TIP3    H2 2815   4.699   3.158   4.221
  937TIP3   OH2 2816   5.023   3.405   4.380
  937TIP3    H1 2817   5.031   3.478   4.319
  937TIP3    H2 2818   4.933   3.408   4.411
  938TIP3   OH2 2819   4.208   2.090   0.396
  938TIP3    H1 2820   4.130   2.035   0.391
  938TIP3    H2 2821   4.216   2.128   0.308
  939TIP3   OH2 2822   6.067   3.922   4.686
  939TIP3    H1 2823   5.981   3.933   4.644
  939TIP3    H2 2824   6.119   3.875   4.621
  940TIP3   OH2 2825   5.426   4.366   0.835
  940TIP3    H1 2826   5.452   4.343   0.924
  940TIP3    H2 2827   5.509   4.380   0.789
  941TIP3   OH2 2828   3.813   2.625   2.815
  941TIP3    H1 2829   3.757   2.664   2.748
  941TIP3    H2 2830   3.779   2.661   2.897
  942TIP3   OH2 2831   5.848   0.653   3.025
  942TIP3    H1 2832   5.804   0.601   3.092
  942TIP3    H2 2833   5.909   0.708   3.074
  943TIP3   OH2 2834   5.071   4.235   2.290
  943TIP3    H1 2835   5.069   4.228   2.385
  943TIP3    H2 2836   5.118   4.157   2.261
  944TIP3   OH2 2837   3.201   3.093   4.827
  944TIP3    H1 2838   3.127   3.130   4.778
  944TIP3    H2 2839   3.269   3.159   4.821
  945TIP3   OH2 2840   3.681   3.949   2.992
  945TIP3    H1 2841   3.644   3.900   3.065
  945TIP3    H2 2842   3.616   4.017   2.975
  946TIP3   OH2 2843   1.138   0.206   2.840
  946TIP3    H1 2844   1.219   0.238   2.880
  946TIP3    H2 2845   1.099   0.284   2.800
  947TIP3   OH2 2846   5.481   1.506   2.802
  947TIP3    H1 2847   5.540   1.543   2.868
  947TIP3    H2 2848   5.505   1.551   2.721
  948TIP3   OH2 2849   3.856   0.051   3.466
  948TIP3    H1 2850   3.930   0.102   3.432
  948TIP3    H2 2851   3.864   0.058   3.561
  949TIP3   OH2 2852   1.557   4.092   1.788
  949TIP3    H1 2853   1.582   4.084   1.696
  949TIP3    H2 2854   1.488   4.158   1.788
  950TIP3   OH2 2855   4.275   5.276   2.718
  950TIP3    H1 2856   4.314   5.352   2.674
  950TIP3    H2 2857   4.185   5.303   2.737
  951TIP3   OH2 2858   0.384   4.100   3.697
  951TIP3    H1 2859   0.458   4.120   3.753
  951TIP3    H2 2860   0.353   4.186   3.668
  952TIP3   OH2 2861   3.438   3.924   0.952
  952TIP3    H1 2862   3.525   3.908   0.988
  952TIP3    H2 2863   3.383   3.943   1.028
  953TIP3   OH2 2864   1.720   3.151   2.996
  953TIP3    H1 2865   1.740   3.236   3.035
  953TIP3    H2 2866   1.744   3.088   3.063
  954TIP3   OH2 2867   6.146   0.879   2.342
  954TIP3    H1 2868   6.205   0.867   2.268
  954TIP3    H2 2869   6.067   0.831   2.319
  955TIP3   OH2 2870   2.175   1.795   3.810
  955TIP3    H1 2871   2.231   1.726   3.845
  955TIP3    H2 2872   2.235   1.856   3.768
  956TIP3   OH2 2873   2.163   0.550   1.885
  956TIP3    H1 2874   2.172   0.562   1.790
  956TIP3    H2 2875   2.071   0.566   1.902
  957TIP3   OH2 2876   0.149   1.911   4.099
  957TIP3    H1 2877   0.087   1.839   4.104
  957TIP3    H2 2878   0.206   1.890   4.025
  958TIP3   OH2 2879   5.640   4.310   3.704
  958TIP3    H1 2880   5.725   4.301   3.660
  958TIP3    H2 2881   5.642   4.244   3.773
  959TIP3   OH2 2882   4.285   0.839   3.938
  959TIP3    H1 2883   4.328   0.839   3.853
  959TIP3    H2 2884   4.290   0.748   3.968
  960TIP3   OH2 2885   5.312   5.865   0.519
  960TIP3    H1 2886   5.384   5.805   0.501
  960TIP3    H2 2887   5.279   5.838   0.605
  961TIP3   OH2 2888   2.177   2.826   4.583
  961TIP3    H1 2889   2.207   2.893   4.644
  961TIP3    H2 2890   2.147   2.875   4.506
  962TIP3   OH2 2891   0.397   3.578   2.068
  962TIP3    H1 2892   0.466   3.540   2.122
  962TIP3    H2 2893   0.324   3.591   2.129
  963TIP3   OH2 2894   5.163   1.205   4.043
  963TIP3    H1 2895   5.222   1.271   4.081
  963TIP3    H2 2896   5.128   1.247   3.965
  964TIP3   OH2 2897   2.404   5.833   2.357
  964TIP3    H1 2898   2.410   5.901   2.425
  964TIP3    H2 2899   2.357   5.761   2.399
  965TIP3   OH2 2900   5.751   5.729   4.184
  965TIP3    H1 2901   5.677   5.761   4.134
  965TIP3    H2 2902   5.714   5.697   4.266
  966TIP3   OH2 2903   4.421   3.817   0.516
  966TIP3    H1 2904   4.391   3.846   0.602
  966TIP3    H2 2905   4.492   3.755   0.535
  967TIP3   OH2 2906   4.179   1.805   3.035
  967TIP3    H1 2907   4.115   1.866   3.073
  967TIP3    H2 2908   4.208   1.848   2.955
  968TIP3   OH2 2909   4.198   2.183   2.758
  968TIP3    H1 2910   4.200   2.275   2.784
  968TIP3    H2 2911   4.107   2.167   2.732
  969TIP3   OH2 2912   1.861   1.545   3.322
  969TIP3    H1 2913   1.878   1.451   3.329
  969TIP3    H2 2914   1.825   1.555   3.234
  970TIP3   OH2 2915   4.926   5.136   0.328
  970TIP3    H1 2916   4.929   5.171   0.239
  970TIP3    H2 2917   4.980   5.197   0.379
  971TIP3   OH2 2918   3.713   4.429   0.461
  971TIP3    H1 2919   3.668   4.475   0.389
  971TIP3    H2 2920   3.704   4.336   0.440
  972TIP3   OH2 2921   5.230   3.542   1.828
  972TIP3    H1 2922   5.218   3.631   1.862
  972TIP3    H2 2923   5.259   3.554   1.738
  973TIP3   OH2 2924   5.585   3.662   3.362
  973TIP3    H1 2925   5.676   3.632   3.368
  973TIP3    H2 2926   5.588   3.734   3.299
  974TIP3   OH2 2927   2.933   5.164   2.090
  974TIP3    H1 2928   2.921   5.100   2.160
  974TIP3    H2 2929   3.023   5.196   2.102
  975TIP3   OH2 2930   1.414   1.037   0.633
  975TIP3    H1 2931   1.372   1.084   0.561
  975TIP3    H2 2932   1.391   1.087   0.711
  976TIP3   OH2 2933   5.586   3.829   3.165
  976TIP3    H1 2934   5.677   3.831   3.134
  976TIP3    H2 2935   5.565   3.920   3.184
  977TIP3   OH2 2936   2.951   4.495   1.643
  977TIP3    H1 2937   2.999   4.450   1.713
  977TIP3    H2 2938   2.993   4.581   1.637
  978TIP3   OH2 2939   3.679   1.210   0.512
  978TIP3    H1 2940   3.706   1.120   0.492
  978TIP3    H2 2941   3.736   1.236   0.585
  979TIP3   OH2 2942   6.049   0.223   4.730
  979TIP3    H1 2943   6.100   0.273   4.795
  979TIP3    H2 2944   6.055   0.276   4.650
  980TIP3   OH2 2945   1.453   3.767   3.878
  980TIP3    H1 2946   1.479   3.687   3.832
  980TIP3    H2 2947   1.365   3.786   3.845
  981TIP3   OH2 2948   4.112   1.702   1.834
  981TIP3    H1 2949   4.145   1.633   1.892
  981TIP3    H2 2950   4.154   1.684   1.750
  982TIP3   OH2 2951   4.686   3.532   3.230
  982TIP3    H1 2952   4.665   3.570   3.315
  982TIP3    H2 2953   4.624   3.460   3.219
  983TIP3   OH2 2954   0.832   3.099   4.970
  983TIP3    H1 2955   0.837   3.153   5.050
  983TIP3    H2 2956   0.865   3.156   4.901
  984TIP3   OH2 2957   0.917   3.553   4.662
  984TIP3    H1 2958   0.943   3.643   4.642
  984TIP3    H2 2959   0.887   3.556   4.753
  985TIP3   OH2 2960   1.481   5.139   3.253
  985TIP3    H1 2961   1.475   5.148   3.348
  985TIP3    H2 2962   1.485   5.229   3.220
  986TIP3   OH2 2963   6.145   5.966   3.548
  986TIP3    H1 2964   6.186   6.003   3.470
  986TIP3    H2 2965   6.182   5.878   3.556
  987TIP3   OH2 2966   3.875   5.208   0.176
  987TIP3    H1 2967   3.867   5.234   0.084
  987TIP3    H2 2968   3.831   5.278   0.224
  988TIP3   OH2 2969   2.306   3.323   2.868
  988TIP3    H1 2970   2.398   3.344   2.850
  988TIP3    H2 2971   2.305   3.228   2.877
  989TIP3   OH2 2972   5.780   1.857   2.952
  989TIP3    H1 2973   5.744   1.929   3.003
  989TIP3    H2 2974   5.875   1.866   2.960
  990TIP3   OH2 2975   4.999   1.274   4.721
  990TIP3    H1 2976   4.984   1.262   4.627
  990TIP3    H2 2977   4.917   1.247   4.762
  991TIP3   OH2 2978   0.222   5.642   0.746
  991TIP3    H1 2979   0.185   5.669   0.662
  991TIP3    H2 2980   0.315   5.632   0.730
  992TIP3   OH2 2981   0.820   0.553   3.464
  992TIP3    H1 2982   0.816   0.617   3.535
  992TIP3    H2 2983   0.891   0.583   3.408
  993TIP3   OH2 2984   0.638   1.324   2.736
  993TIP3    H1 2985   0.642   1.372   2.818
  993TIP3    H2 2986   0.563   1.265   2.746
  994TIP3   OH2 2987   4.500   2.772   2.855
  994TIP3    H1 2988   4.525   2.728   2.936
  994TIP3    H2 2989   4.453   2.850   2.884
  995TIP3   OH2 2990   4.770   2.750   3.205
  995TIP3    H1 2991   4.701   2.694   3.240
  995TIP3    H2 2992   4.733   2.839   3.208
  996TIP3   OH2 2993   1.028   3.308   4.747
  996TIP3    H1 2994   1.104   3.315   4.804
  996TIP3    H2 2995   1.007   3.398   4.723
  997TIP3   OH2 2996   5.964   5.742   0.180
  997TIP3    H1 2997   5.899   5.694   0.128
  997TIP3    H2 2998   6.036   5.679   0.192
  998TIP3   OH2 2999   2.393   4.840   2.854
  998TIP3    H1 3000   2.365   4.927   2.826
  998TIP3    H2 3001   2.489   4.843   2.847
  999TIP3   OH2 3002   2.458   4.524   0.468
  999TIP3    H1 3003   2.479   4.461   0.399
  999TIP3    H2 3004   2.439   4.605   0.421
 1000TIP3   OH2 3005   0.667   3.707   3.955
 1000TIP3    H1 3006   0.682   3.636   4.017
 1000TIP3    H2 3007   0.655   3.785   4.009
 1001TIP3   OH2 3008   5.165   1.123   1.124
 1001TIP3    H1 3009   5.147   1.060   1.054
 1001TIP3    H2 3010   5.226   1.186   1.085
 1002TIP3   OH2 3011   0.199   5.453   1.440
 1002TIP3    H1 3012   0.163   5.493   1.361
 1002TIP3    H2 3013   0.155   5.368   1.446
 1003TIP3   OH2 3014   3.307   1.348   2.545
 1003TIP3    H1 3015   3.236   1.412   2.546
 1003TIP3    H2 3016   3.338   1.348   2.454
 1004TIP3   OH2 3017   2.669   1.142   1.374
 1004TIP3    H1 3018   2.637   1.230   1.392
 1004TIP3    H2 3019   2.742   1.155   1.313
 1005TIP3   OH2 3020   0.876   5.194   4.094
 1005TIP3    H1 3021   0.908   5.199   4.184
 1005TIP3    H2 3022   0.784   5.221   4.099
 1006TIP3   OH2 3023   0.244   2.616   0.723
 1006TIP3    H1 3024   0.173   2.657   0.674
 1006TIP3    H2 3025   0.315   2.681   0.720
 1007TIP3   OH2 3026   4.622   2.548   4.379
 1007TIP3    H1 3027   4.552   2.484   4.366
 1007TIP3    H2 3028   4.697   2.495   4.405
 1008TIP3   OH2 3029   6.112   3.232   2.393
 1008TIP3    H1 3030   6.198   3.237   2.435
 1008TIP3    H2 3031   6.126   3.268   2.306
 1009TIP3   OH2 3032   3.237   3.699   4.859
 1009TIP3    H1 3033   3.326   3.720   4.830
 1009TIP3    H2 3034   3.227   3.749   4.940
 1010TIP3   OH2 3035   5.537   2.243   3.681
 1010TIP3    H1 3036   5.618   2.285   3.711
 1010TIP3    H2 3037   5.555   2.216   3.591
 1011TIP3   OH2 3038   4.765   0.774   2.292
 1011TIP3    H1 3039   4.789   0.775   2.200
 1011TIP3    H2 3040   4.828   0.714   2.333
 1012TIP3   OH2 3041   5.163   4.969   4.283
 1012TIP3    H1 3042   5.128   5.054   4.258
 1012TIP3    H2 3043   5.257   4.975   4.265
 1013TIP3   OH2 3044   3.979   3.489   0.005
 1013TIP3    H1 3045   4.016   3.477   0.092
 1013TIP3    H2 3046   3.957   3.401  -0.024
 1014TIP3   OH2 3047   0.403   1.248   4.080
 1014TIP3    H1 3048   0.363   1.334   4.065
 1014TIP3    H2 3049   0.336   1.186   4.051
 1015TIP3   OH2 3050   1.762   4.993   4.459
 1015TIP3    H1 3051   1.723   4.939   4.528
 1015TIP3    H2 3052   1.856   4.976   4.466
 1016TIP3   OH2 3053   2.417   0.495   3.663
 1016TIP3    H1 3054   2.513   0.490   3.664
 1016TIP3    H2 3055   2.390   0.452   3.744
 1017TIP3   OH2 3056   4.704   5.599   4.708
 1017TIP3    H1 3057   4.729   5.691   4.719
 1017TIP3    H2 3058   4.611   5.602   4.686
 1018TIP3   OH2 3059   3.302   1.922   0.689
 1018TIP3    H1 3060   3.242   1.882   0.626
 1018TIP3    H2 3061   3.250   1.991   0.731
 1019TIP3   OH2 3062   6.167   4.914   4.471
 1019TIP3    H1 3063   6.215   4.886   4.549
 1019TIP3    H2 3064   6.138   5.003   4.492
 1020TIP3   OH2 3065   0.089   3.189   2.190
 1020TIP3    H1 3066   0.002   3.222   2.166
 1020TIP3    H2 3067   0.141   3.200   2.111
 1021TIP3   OH2 3068   4.560   3.938   0.294
 1021TIP3    H1 3069   4.654   3.924   0.303
 1021TIP3    H2 3070   4.523   3.911   0.378
 1022TIP3   OH2 3071   6.256   2.278   1.693
 1022TIP3    H1 3072   6.315   2.233   1.754
 1022TIP3    H2 3073   6.176   2.225   1.694
 1023TIP3   OH2 3074   3.126   4.675   0.430
 1023TIP3    H1 3075   3.147   4.676   0.336
 1023TIP3    H2 3076   3.180   4.605   0.465
 1024TIP3   OH2 3077   0.358   4.022   2.532
 1024TIP3    H1 3078   0.324   4.082   2.466
 1024TIP3    H2 3079   0.354   3.936   2.490
 1025TIP3   OH2 3080   0.743   0.803   2.784
 1025TIP3    H1 3081   0.717   0.786   2.693
 1025TIP3    H2 3082   0.837   0.820   2.778
 1026TIP3   OH2 3083   3.686   0.740   2.455
 1026TIP3    H1 3084   3.591   0.725   2.462
 1026TIP3    H2 3085   3.705   0.802   2.525
 1027TIP3   OH2 3086   3.957   0.772   1.235
 1027TIP3    H1 3087   3.916   0.791   1.319
 1027TIP3    H2 3088   4.028   0.710   1.256
 1028TIP3   OH2 3089   0.863   0.267   3.420
 1028TIP3    H1 3090   0.843   0.358   3.441
 1028TIP3    H2 3091   0.959   0.261   3.427
 1029TIP3   OH2 3092   5.691   4.925   3.149
 1029TIP3    H1 3093   5.674   4.913   3.243
 1029TIP3    H2 3094   5.605   4.948   3.112
 1030TIP3   OH2 3095   1.851   4.523   4.290
 1030TIP3    H1 3096   1.926   4.464   4.277
 1030TIP3    H2 3097   1.829   4.553   4.202
 1031TIP3   OH2 3098   4.576   1.710   2.289
 1031TIP3    H1 3099   4.609   1.785   2.239
 1031TIP3    H2 3100   4.495   1.741   2.328
 1032TIP3   OH2 3101   4.932   2.956   3.436
 1032TIP3    H1 3102   4.945   2.964   3.342
 1032TIP3    H2 3103   4.861   2.892   3.445
 1033TIP3   OH2 3104   2.018   5.939   2.838
 1033TIP3    H1 3105   1.974   5.972   2.916
 1033TIP3    H2 3106   1.960   5.871   2.804
 1034TIP3   OH2 3107   3.580   4.680   1.619
 1034TIP3    H1 3108   3.606   4.771   1.632
 1034TIP3    H2 3109   3.506   4.684   1.558
 1035TIP3   OH2 3110   2.916   1.355   3.718
 1035TIP3    H1 3111   2.858   1.399   3.656
 1035TIP3    H2 3112   2.870   1.274   3.740
 1036TIP3   OH2 3113   5.099   3.892   1.359
 1036TIP3    H1 3114   5.030   3.940   1.313
 1036TIP3    H2 3115   5.105   3.934   1.444
 1037TIP3   OH2 3116   1.542   0.198   0.356
 1037TIP3    H1 3117   1.479   0.133   0.388
 1037TIP3    H2 3118   1.568   0.246   0.434
 1038TIP3   OH2 3119   0.241   2.749   5.073
 1038TIP3    H1 3120   0.189   2.758   5.153
 1038TIP3    H2 3121   0.176   2.739   5.004
 1039TIP3   OH2 3122   5.546   0.911   4.252
 1039TIP3    H1 3123   5.590   0.834   4.215
 1039TIP3    H2 3124   5.518   0.884   4.339
 1040TIP3   OH2 3125   3.269   2.158   1.667
 1040TIP3    H1 3126   3.364   2.155   1.673
 1040TIP3    H2 3127   3.242   2.066   1.659
 1041TIP3   OH2 3128   4.576   2.587   3.347
 1041TIP3    H1 3129   4.623   2.646   3.405
 1041TIP3    H2 3130   4.506   2.550   3.401
 1042TIP3   OH2 3131   2.764   0.309   4.879
 1042TIP3    H1 3132   2.800   0.222   4.899
 1042TIP3    H2 3133   2.796   0.365   4.950
 1043TIP3   OH2 3134   1.646   5.206   3.458
 1043TIP3    H1 3135   1.685   5.170   3.379
 1043TIP3    H2 3136   1.689   5.160   3.530
 1044TIP3   OH2 3137   2.949   3.615   3.288
 1044TIP3    H1 3138   2.990   3.673   3.352
 1044TIP3    H2 3139   2.938   3.669   3.210
 1045TIP3   OH2 3140   5.990   3.222   1.496
 1045TIP3    H1 3141   5.972   3.216   1.590
 1045TIP3    H2 3142   5.917   3.174   1.455
 1046TIP3   OH2 3143   2.453   5.664   3.177
 1046TIP3    H1 3144   2.418   5.625   3.257
 1046TIP3    H2 3145   2.389   5.641   3.109
 1047TIP3   OH2 3146   2.721   1.349   0.349
 1047TIP3    H1 3147   2.741   1.369   0.441
 1047TIP3    H2 3148   2.800   1.374   0.301
 1048TIP3   OH2 3149   4.326   5.237   3.900
 1048TIP3    H1 3150   4.312   5.332   3.897
 1048TIP3    H2 3151   4.246   5.202   3.938
 1049TIP3   OH2 3152   6.025   3.059   4.832
 1049TIP3    H1 3153   6.040   3.149   4.805
 1049TIP3    H2 3154   6.076   3.006   4.771
 1050TIP3   OH2 3155   3.029   2.568   3.092
 1050TIP3    H1 3156   3.030   2.530   3.005
 1050TIP3    H2 3157   2.962   2.636   3.088
 1051TIP3   OH2 3158   5.302   1.589   4.472
 1051TIP3    H1 3159   5.212   1.603   4.501
 1051TIP3    H2 3160   5.330   1.510   4.517
 1052TIP3   OH2 3161   1.679   1.329   3.755
 1052TIP3    H1 3162   1.620   1.284   3.815
 1052TIP3    H2 3163   1.720   1.396   3.808
 1053TIP3   OH2 3164   2.063   0.226   2.381
 1053TIP3    H1 3165   2.057   0.280   2.460
 1053TIP3    H2 3166   1.980   0.238   2.336
 1054TIP3   OH2 3167   0.373   2.442   1.247
 1054TIP3    H1 3168   0.360   2.426   1.154
 1054TIP3    H2 3169   0.416   2.528   1.251
 1055TIP3   OH2 3170   0.684   2.648   0.600
 1055TIP3    H1 3171   0.655   2.631   0.510
 1055TIP3    H2 3172   0.654   2.572   0.649
 1056TIP3   OH2 3173   0.827   1.323   5.094
 1056TIP3    H1 3174   0.913   1.356   5.119
 1056TIP3    H2 3175   0.770   1.400   5.098
 1057TIP3   OH2 3176   2.049   4.151   1.721
 1057TIP3    H1 3177   2.077   4.063   1.745
 1057TIP3    H2 3178   2.043   4.198   1.805
 1058TIP3   OH2 3179   6.093   3.188   4.243
 1058TIP3    H1 3180   6.019   3.132   4.216
 1058TIP3    H2 3181   6.170   3.143   4.209
 1059TIP3   OH2 3182   3.880   5.968   4.632
 1059TIP3    H1 3183   3.960   5.917   4.617
 1059TIP3    H2 3184   3.912   6.051   4.668
 1060TIP3   OH2 3185   4.969   5.743   3.934
 1060TIP3    H1 3186   4.930   5.818   3.889
 1060TIP3    H2 3187   4.901   5.714   3.995
 1061TIP3   OH2 3188   4.440   5.778   0.644
 1061TIP3    H1 3189   4.472   5.717   0.577
 1061TIP3    H2 3190   4.502   5.768   0.716
 1062TIP3   OH2 3191   1.491   3.843   2.811
 1062TIP3    H1 3192   1.558   3.822   2.746
 1062TIP3    H2 3193   1.436   3.765   2.815
 1063TIP3   OH2 3194   3.870   1.189   2.392
 1063TIP3    H1 3195   3.837   1.252   2.456
 1063TIP3    H2 3196   3.797   1.177   2.331
 1064TIP3   OH2 3197   6.243   4.939   0.818
 1064TIP3    H1 3198   6.312   4.878   0.844
 1064TIP3    H2 3199   6.251   4.946   0.723
 1065TIP3   OH2 3200   0.557   5.713   0.118
 1065TIP3    H1 3201   0.598   5.773   0.056
 1065TIP3    H2 3202   0.532   5.637   0.065
 1066TIP3   OH2 3203   0.261   0.547   0.775
 1066TIP3    H1 3204   0.273   0.601   0.697
 1066TIP3    H2 3205   0.224   0.465   0.742
 1067TIP3   OH2 3206   2.275   5.828   1.643
 1067TIP3    H1 3207   2.329   5.893   1.597
 1067TIP3    H2 3208   2.339   5.770   1.684
 1068TIP3   OH2 3209   3.751   4.564   1.302
 1068TIP3    H1 3210   3.768   4.659   1.296
 1068TIP3    H2 3211   3.837   4.524   1.292
 1069TIP3   OH2 3212   4.136   0.961   3.567
 1069TIP3    H1 3213   4.218   0.927   3.602
 1069TIP3    H2 3214   4.068   0.920   3.620
 1070TIP3   OH2 3215   2.459   3.553   1.512
 1070TIP3    H1 3216   2.415   3.614   1.453
 1070TIP3    H2 3217   2.490   3.608   1.584
 1071TIP3   OH2 3218   5.047   1.645   2.091
 1071TIP3    H1 3219   5.130   1.643   2.045
 1071TIP3    H2 3220   5.040   1.734   2.126
 1072TIP3   OH2 3221   5.234   4.006   0.149
 1072TIP3    H1 3222   5.225   3.967   0.062
 1072TIP3    H2 3223   5.309   3.961   0.188
 1073TIP3   OH2 3224   3.775   3.408   4.251
 1073TIP3    H1 3225   3.851   3.454   4.286
 1073TIP3    H2 3226   3.758   3.451   4.167
 1074TIP3   OH2 3227   5.680   1.641   1.741
 1074TIP3    H1 3228   5.614   1.585   1.701
 1074TIP3    H2 3229   5.655   1.730   1.716
 1075TIP3   OH2 3230   4.828   5.242   3.312
 1075TIP3    H1 3231   4.810   5.288   3.394
 1075TIP3    H2 3232   4.749   5.254   3.260
 1076TIP3   OH2 3233   5.157   4.467   2.886
 1076TIP3    H1 3234   5.131   4.375   2.891
 1076TIP3    H2 3235   5.077   4.516   2.909
 1077TIP3   OH2 3236   3.195   5.926   4.918
 1077TIP3    H1 3237   3.169   5.903   4.828
 1077TIP3    H2 3238   3.277   5.975   4.906
 1078TIP3   OH2 3239   3.885   0.441   1.300
 1078TIP3    H1 3240   3.968   0.443   1.251
 1078TIP3    H2 3241   3.898   0.373   1.366
 1079TIP3   OH2 3242   3.134   4.959   1.986
 1079TIP3    H1 3243   3.060   5.019   1.992
 1079TIP3    H2 3244   3.100   4.883   1.940
 1080TIP3   OH2 3245   1.908   1.364   4.983
 1080TIP3    H1 3246   1.847   1.371   4.910
 1080TIP3    H2 3247   1.891   1.277   5.020
 1081TIP3   OH2 3248   5.564   4.889   3.777
 1081TIP3    H1 3249   5.599   4.816   3.726
 1081TIP3    H2 3250   5.469   4.876   3.776
 1082TIP3   OH2 3251   2.506   0.874   3.608
 1082TIP3    H1 3252   2.413   0.854   3.601
 1082TIP3    H2 3253   2.515   0.960   3.568
 1083TIP3   OH2 3254   0.454   2.783   0.726
 1083TIP3    H1 3255   0.537   2.781   0.678
 1083TIP3    H2 3256   0.401   2.847   0.679
 1084TIP3   OH2 3257   3.763   5.835   4.100
 1084TIP3    H1 3258   3.700   5.897   4.138
 1084TIP3    H2 3259   3.726   5.815   4.013
 1085TIP3   OH2 3260   6.262   3.261   5.075
 1085TIP3    H1 3261   6.236   3.344   5.035
 1085TIP3    H2 3262   6.357   3.259   5.067
 1086TIP3   OH2 3263   2.194   4.107   2.865
 1086TIP3    H1 3264   2.229   4.173   2.924
 1086TIP3    H2 3265   2.100   4.106   2.883
 1087TIP3   OH2 3266   4.309   2.574   5.162
 1087TIP3    H1 3267   4.329   2.528   5.080
 1087TIP3    H2 3268   4.357   2.656   5.156
 1088TIP3   OH2 3269   2.179   5.071   1.667
 1088TIP3    H1 3270   2.258   5.098   1.621
 1088TIP3    H2 3271   2.204   5.067   1.759
 1089TIP3   OH2 3272   3.590   0.858   2.924
 1089TIP3    H1 3273   3.610   0.924   2.990
 1089TIP3    H2 3274   3.624   0.893   2.843
 1090TIP3   OH2 3275   2.299   0.614   1.216
 1090TIP3    H1 3276   2.335   0.659   1.292
 1090TIP3    H2 3277   2.362   0.631   1.146
 1091TIP3   OH2 3278   6.003   1.886   2.741
 1091TIP3    H1 3279   6.014   1.876   2.646
 1091TIP3    H2 3280   6.011   1.796   2.775
 1092TIP3   OH2 3281   2.821   1.447   1.309
 1092TIP3    H1 3282   2.831   1.541   1.324
 1092TIP3    H2 3283   2.732   1.427   1.341
 1093TIP3   OH2 3284   2.712   1.796   1.630
 1093TIP3    H1 3285   2.631   1.771   1.586
 1093TIP3    H2 3286   2.683   1.845   1.707
 1094TIP3   OH2 3287   2.474   1.730   0.824
 1094TIP3    H1 3288   2.411   1.739   0.896
 1094TIP3    H2 3289   2.423   1.696   0.751
 1095TIP3   OH2 3290   6.075   0.942   4.283
 1095TIP3    H1 3291   6.040   0.923   4.196
 1095TIP3    H2 3292   6.093   1.036   4.282
 1096TIP3   OH2 3293   0.327   2.315   2.248
 1096TIP3    H1 3294   0.356   2.319   2.340
 1096TIP3    H2 3295   0.408   2.306   2.198
 1097TIP3   OH2 3296   2.133   5.780   4.246
 1097TIP3    H1 3297   2.093   5.800   4.330
 1097TIP3    H2 3298   2.081   5.830   4.183
 1098TIP3   OH2 3299   1.305   2.430   0.701
 1098TIP3    H1 3300   1.348   2.385   0.775
 1098TIP3    H2 3301   1.228   2.377   0.682
 1099TIP3   OH2 3302   4.476   4.633   0.146
 1099TIP3    H1 3303   4.380   4.631   0.146
 1099TIP3    H2 3304   4.498   4.723   0.120
 1100TIP3   OH2 3305   5.784   0.587   1.821
 1100TIP3    H1 3306   5.738   0.619   1.744
 1100TIP3    H2 3307   5.828   0.664   1.857
 1101TIP3   OH2 3308   4.849   4.850   0.011
 1101TIP3    H1 3309   4.859   4.883   0.100
 1101TIP3    H2 3310   4.867   4.756   0.019
 1102TIP3   OH2 3311   1.840   0.179   0.521
 1102TIP3    H1 3312   1.934   0.171   0.504
 1102TIP3    H2 3313   1.804   0.094   0.498
 1103TIP3   OH2 3314   3.035   3.840   0.055
 1103TIP3    H1 3315   2.950   3.800   0.037
 1103TIP3    H2 3316   3.085   3.772   0.099
 1104TIP3   OH2 3317   5.151   1.058   1.696
 1104TIP3    H1 3318   5.064   1.025   1.673
 1104TIP3    H2 3319   5.179   1.107   1.619
 1105TIP3   OH2 3320   2.943   0.630   0.925
 1105TIP3    H1 3321   3.016   0.619   0.985
 1105TIP3    H2 3322   2.955   0.561   0.859
 1106TIP3   OH2 3323   2.848   4.590   4.354
 1106TIP3    H1 3324   2.858   4.565   4.446
 1106TIP3    H2 3325   2.753   4.591   4.340
 1107TIP3   OH2 3326   0.655   0.118   1.406
 1107TIP3    H1 3327   0.624   0.154   1.489
 1107TIP3    H2 3328   0.576   0.099   1.356
 1108TIP3   OH2 3329   5.055   4.368   0.075
 1108TIP3    H1 3330   4.999   4.290   0.077
 1108TIP3    H2 3331   5.106   4.363   0.155
 1109TIP3   OH2 3332   5.245   0.673   3.231
 1109TIP3    H1 3333   5.251   0.766   3.254
 1109TIP3    H2 3334   5.229   0.629   3.315
 1110TIP3   OH2 3335   0.638   2.838   4.779
 1110TIP3    H1 3336   0.726   2.806   4.795
 1110TIP3    H2 3337   0.591   2.820   4.861
 1111TIP3   OH2 3338   5.048   5.739   0.305
 1111TIP3    H1 3339   5.140   5.756   0.327
 1111TIP3    H2 3340   5.005   5.824   0.313
 1112TIP3   OH2 3341   1.035   5.172   2.843
 1112TIP3    H1 3342   1.020   5.085   2.880
 1112TIP3    H2 3343   1.098   5.213   2.903
 1113TIP3   OH2 3344   1.755   0.346   3.375
 1113TIP3    H1 3345   1.850   0.362   3.375
 1113TIP3    H2 3346   1.728   0.363   3.285
 1114TIP3   OH2 3347   5.252   4.852   0.101
 1114TIP3    H1 3348   5.218   4.935   0.134
 1114TIP3    H2 3349   5.241   4.857   0.006
 1115TIP3   OH2 3350   5.076   0.187   0.457
 1115TIP3    H1 3351   5.001   0.150   0.410
 1115TIP3    H2 3352   5.099   0.120   0.522
 1116TIP3   OH2 3353   0.345   3.738   2.473
 1116TIP3    H1 3354   0.399   3.717   2.549
 1116TIP3    H2 3355   0.342   3.657   2.422
 1117TIP3   OH2 3356   4.012   4.424   1.282
 1117TIP3    H1 3357   3.992   4.422   1.375
 1117TIP3    H2 3358   4.095   4.473   1.276
 1118TIP3   OH2 3359   1.101   4.035   3.311
 1118TIP3    H1 3360   1.124   4.123   3.340
 1118TIP3    H2 3361   1.009   4.042   3.286
 1119TIP3   OH2 3362   1.267   5.669   2.234
 1119TIP3    H1 3363   1.335   5.700   2.175
 1119TIP3    H2 3364   1.279   5.574   2.237
 1120TIP3   OH2 3365   3.227   3.657   1.847
 1120TIP3    H1 3366   3.309   3.650   1.798
 1120TIP3    H2 3367   3.239   3.598   1.921
 1121TIP3   OH2 3368   0.851   0.724   2.460
 1121TIP3    H1 3369   0.921   0.761   2.405
 1121TIP3    H2 3370   0.771   0.740   2.411
 1122TIP3   OH2 3371   0.572   0.219   2.319
 1122TIP3    H1 3372   0.554   0.184   2.406
 1122TIP3    H2 3373   0.633   0.157   2.279
 1123TIP3   OH2 3374   5.944   4.469   0.414
 1123TIP3    H1 3375   5.899   4.551   0.396
 1123TIP3    H2 3376   5.873   4.405   0.424
 1124TIP3   OH2 3377   1.110   5.415   2.384
 1124TIP3    H1 3378   1.043   5.422   2.316
 1124TIP3    H2 3379   1.157   5.334   2.362
 1125TIP3   OH2 3380   6.187   4.562   3.110
 1125TIP3    H1 3381   6.210   4.511   3.032
 1125TIP3    H2 3382   6.098   4.534   3.131
 1126TIP3   OH2 3383   5.252   5.325   0.686
 1126TIP3    H1 3384   5.270   5.265   0.758
 1126TIP3    H2 3385   5.335   5.329   0.637
 1127TIP3   OH2 3386   3.457   0.999   2.727
 1127TIP3    H1 3387   3.400   1.073   2.748
 1127TIP3    H2 3388   3.416   0.925   2.772
 1128TIP3   OH2 3389   1.696   2.858   3.950
 1128TIP3    H1 3390   1.638   2.833   3.878
 1128TIP3    H2 3391   1.668   2.804   4.024
 1129TIP3   OH2 3392   3.369   4.321   4.162
 1129TIP3    H1 3393   3.290   4.315   4.215
 1129TIP3    H2 3394   3.411   4.403   4.188
 1130TIP3   OH2 3395   1.814   4.972   5.138
 1130TIP3    H1 3396   1.761   4.996   5.062
 1130TIP3    H2 3397   1.905   4.978   5.107
 1131TIP3   OH2 3398   0.448   4.277   3.913
 1131TIP3    H1 3399   0.371   4.333   3.905
 1131TIP3    H2 3400   0.513   4.317   3.856
 1132TIP3   OH2 3401   1.107   2.101   3.072
 1132TIP3    H1 3402   1.139   2.188   3.096
 1132TIP3    H2 3403   1.079   2.110   2.981
 1133TIP3   OH2 3404   5.442   1.382   2.511
 1133TIP3    H1 3405   5.382   1.444   2.469
 1133TIP3    H2 3406   5.498   1.436   2.566
 1134TIP3   OH2 3407   4.893   3.213   1.416
 1134TIP3    H1 3408   4.918   3.246   1.330
 1134TIP3    H2 3409   4.800   3.192   1.408
 1135TIP3   OH2 3410   0.120   1.748   3.086
 1135TIP3    H1 3411   0.199   1.791   3.119
 1135TIP3    H2 3412   0.062   1.821   3.062
 1136TIP3   OH2 3413   3.182   1.279   3.556
 1136TIP3    H1 3414   3.106   1.336   3.571
 1136TIP3    H2 3415   3.257   1.336   3.570
 1137TIP3   OH2 3416   0.021   3.106   1.085
 1137TIP3    H1 3417   0.006   3.195   1.051
 1137TIP3    H2 3418   0.069   3.120   1.166
 1138TIP3   OH2 3419   0.698   2.209   0.089
 1138TIP3    H1 3420   0.736   2.233   0.004
 1138TIP3    H2 3421   0.733   2.275   0.150
 1139TIP3   OH2 3422   1.126   0.066   4.372
 1139TIP3    H1 3423   1.111   0.158   4.393
 1139TIP3    H2 3424   1.089   0.055   4.284
 1140TIP3   OH2 3425   1.006   3.156   4.516
 1140TIP3    H1 3426   0.936   3.102   4.480
 1140TIP3    H2 3427   0.963   3.207   4.585
 1141TIP3   OH2 3428   1.697   1.066   2.070
 1141TIP3    H1 3429   1.641   1.064   2.148
 1141TIP3    H2 3430   1.775   1.016   2.095
 1142TIP3   OH2 3431   4.547   0.833   1.898
 1142TIP3    H1 3432   4.466   0.781   1.897
 1142TIP3    H2 3433   4.617   0.768   1.899
 1143TIP3   OH2 3434   5.521   3.091   4.193
 1143TIP3    H1 3435   5.543   3.012   4.242
 1143TIP3    H2 3436   5.471   3.145   4.255
 1144TIP3   OH2 3437   1.112   3.084   1.232
 1144TIP3    H1 3438   1.123   3.094   1.137
 1144TIP3    H2 3439   1.197   3.108   1.268
 1145TIP3   OH2 3440   2.776   3.276   1.180
 1145TIP3    H1 3441   2.753   3.192   1.221
 1145TIP3    H2 3442   2.751   3.342   1.245
 1146TIP3   OH2 3443   0.800   5.086   1.997
 1146TIP3    H1 3444   0.731   5.096   2.062
 1146TIP3    H2 3445   0.832   4.997   2.009
 1147TIP3   OH2 3446   5.762   3.660   0.915
 1147TIP3    H1 3447   5.731   3.650   0.825
 1147TIP3    H2 3448   5.688   3.634   0.970
 1148TIP3   OH2 3449   3.716   2.790   4.795
 1148TIP3    H1 3450   3.665   2.840   4.731
 1148TIP3    H2 3451   3.707   2.699   4.769
 1149TIP3   OH2 3452   5.279   3.529   2.443
 1149TIP3    H1 3453   5.275   3.612   2.490
 1149TIP3    H2 3454   5.358   3.537   2.388
 1150TIP3   OH2 3455   6.359   2.577   5.199
 1150TIP3    H1 3456   6.368   2.565   5.104
 1150TIP3    H2 3457   6.268   2.604   5.210
 1151TIP3   OH2 3458   2.393   2.664   0.015
 1151TIP3    H1 3459   2.399   2.600   0.086
 1151TIP3    H2 3460   2.399   2.749   0.059
 1152TIP3   OH2 3461   4.582   0.616   0.856
 1152TIP3    H1 3462   4.574   0.708   0.828
 1152TIP3    H2 3463   4.539   0.566   0.787
 1153TIP3   OH2 3464   6.065   3.620   0.924
 1153TIP3    H1 3465   6.125   3.695   0.918
 1153TIP3    H2 3466   6.070   3.578   0.838
 1154TIP3   OH2 3467   3.324   4.728   1.810
 1154TIP3    H1 3468   3.377   4.669   1.757
 1154TIP3    H2 3469   3.383   4.759   1.879
 1155TIP3   OH2 3470   0.157   1.112   1.064
 1155TIP3    H1 3471   0.146   1.190   1.010
 1155TIP3    H2 3472   0.229   1.064   1.022
 1156TIP3   OH2 3473   0.059   5.731   2.538
 1156TIP3    H1 3474   0.151   5.711   2.519
 1156TIP3    H2 3475   0.056   5.826   2.542
 1157TIP3   OH2 3476   4.768   3.997   1.847
 1157TIP3    H1 3477   4.687   4.037   1.816
 1157TIP3    H2 3478   4.800   4.056   1.915
 1158TIP3   OH2 3479   0.181   3.058   3.135
 1158TIP3    H1 3480   0.112   2.993   3.123
 1158TIP3    H2 3481   0.246   3.036   3.069
 1159TIP3   OH2 3482   6.192   5.604   0.485
 1159TIP3    H1 3483   6.224   5.514   0.496
 1159TIP3    H2 3484   6.188   5.618   0.391
 1160TIP3   OH2 3485   4.241   1.976   1.727
 1160TIP3    H1 3486   4.307   2.020   1.674
 1160TIP3    H2 3487   4.255   1.883   1.712
 1161TIP3   OH2 3488   6.286   0.244   2.657
 1161TIP3    H1 3489   6.296   0.276   2.567
 1161TIP3    H2 3490   6.258   0.153   2.647
 1162TIP3   OH2 3491   3.802   5.094   2.572
 1162TIP3    H1 3492   3.740   5.053   2.512
 1162TIP3    H2 3493   3.888   5.069   2.539
 1163TIP3   OH2 3494   3.607   5.786   1.035
 1163TIP3    H1 3495   3.583   5.735   1.112
 1163TIP3    H2 3496   3.556   5.867   1.044
 1164TIP3   OH2 3497   2.173   2.140   1.997
 1164TIP3    H1 3498   2.104   2.113   1.937
 1164TIP3    H2 3499   2.200   2.225   1.965
 1165TIP3   OH2 3500   3.825   4.891   0.510
 1165TIP3    H1 3501   3.863   4.809   0.543
 1165TIP3    H2 3502   3.874   4.959   0.555
 1166TIP3   OH2 3503   1.929   1.968   1.457
 1166TIP3    H1 3504   1.973   1.908   1.397
 1166TIP3    H2 3505   1.872   1.912   1.510
 1167TIP3   OH2 3506   5.990   5.351   4.134
 1167TIP3    H1 3507   5.973   5.312   4.048
 1167TIP3    H2 3508   6.007   5.443   4.116
 1168TIP3   OH2 3509   5.326   0.700   0.679
 1168TIP3    H1 3510   5.334   0.606   0.663
 1168TIP3    H2 3511   5.295   0.706   0.770
 1169TIP3   OH2 3512   4.394   4.720   3.227
 1169TIP3    H1 3513   4.428   4.706   3.315
 1169TIP3    H2 3514   4.365   4.811   3.227
 1170TIP3   OH2 3515   4.080   2.375   4.318
 1170TIP3    H1 3516   4.114   2.314   4.252
 1170TIP3    H2 3517   4.069   2.457   4.271
 1171TIP3   OH2 3518   4.498   3.719   0.113
 1171TIP3    H1 3519   4.505   3.811   0.139
 1171TIP3    H2 3520   4.404   3.700   0.115
 1172TIP3   OH2 3521   5.382   4.274   0.044
 1172TIP3    H1 3522   5.331   4.194   0.058
 1172TIP3    H2 3523   5.393   4.279  -0.051
 1173TIP3   OH2 3524   3.362   5.055   1.838
 1173TIP3    H1 3525   3.297   5.017   1.897
 1173TIP3    H2 3526   3.332   5.030   1.751
 1174TIP3   OH2 3527   1.473   5.112   2.802
 1174TIP3    H1 3528   1.520   5.159   2.871
 1174TIP3    H2 3529   1.382   5.110   2.832
 1175TIP3   OH2 3530   0.251   5.434   0.420
 1175TIP3    H1 3531   0.253   5.443   0.325
 1175TIP3    H2 3532   0.210   5.516   0.451
 1176TIP3   OH2 3533   4.463   4.624   1.122
 1176TIP3    H1 3534   4.547   4.638   1.078
 1176TIP3    H2 3535   4.399   4.616   1.051
 1177TIP3   OH2 3536   0.607   0.796   3.540
 1177TIP3    H1 3537   0.685   0.783   3.594
 1177TIP3    H2 3538   0.626   0.875   3.489
 1178TIP3   OH2 3539   2.280   3.771   3.102
 1178TIP3    H1 3540   2.312   3.859   3.086
 1178TIP3    H2 3541   2.248   3.773   3.193
 1179TIP3   OH2 3542   4.269   3.519   0.165
 1179TIP3    H1 3543   4.216   3.445   0.197
 1179TIP3    H2 3544   4.303   3.560   0.245
 1180TIP3   OH2 3545   2.041   5.670   5.003
 1180TIP3    H1 3546   1.948   5.660   4.982
 1180TIP3    H2 3547   2.085   5.606   4.947
 1181TIP3   OH2 3548   5.506   4.006   2.042
 1181TIP3    H1 3549   5.553   3.932   2.005
 1181TIP3    H2 3550   5.555   4.083   2.014
 1182TIP3   OH2 3551   2.117   3.934   1.246
 1182TIP3    H1 3552   2.087   3.875   1.177
 1182TIP3    H2 3553   2.040   3.986   1.268
 1183TIP3   OH2 3554   5.081   2.845   4.131
 1183TIP3    H1 3555   5.057   2.917   4.189
 1183TIP3    H2 3556   5.163   2.874   4.090
 1184TIP3   OH2 3557   4.572   2.537   1.428
 1184TIP3    H1 3558   4.506   2.540   1.497
 1184TIP3    H2 3559   4.536   2.590   1.357
 1185TIP3   OH2 3560   5.997   4.915   4.252
 1185TIP3    H1 3561   5.917   4.863   4.266
 1185TIP3    H2 3562   6.053   4.893   4.327
 1186TIP3   OH2 3563   3.855   2.378   4.997
 1186TIP3    H1 3564   3.887   2.464   4.972
 1186TIP3    H2 3565   3.896   2.318   4.935
 1187TIP3   OH2 3566   2.112   4.986   0.385
 1187TIP3    H1 3567   2.103   5.076   0.356
 1187TIP3    H2 3568   2.022   4.957   0.402
 1188TIP3   OH2 3569   4.318   4.093   4.315
 1188TIP3    H1 3570   4.376   4.106   4.240
 1188TIP3    H2 3571   4.370   4.121   4.391
 1189TIP3   OH2 3572   6.072   0.435   1.474
 1189TIP3    H1 3573   6.039   0.401   1.557
 1189TIP3    H2 3574   6.010   0.402   1.408
 1190TIP3   OH2 3575   0.124   4.447   2.835
 1190TIP3    H1 3576   0.072   4.501   2.775
 1190TIP3    H2 3577   0.059   4.392   2.879
 1191TIP3   OH2 3578   1.276   2.254   4.367
 1191TIP3    H1 3579   1.355   2.302   4.344
 1191TIP3    H2 3580   1.278   2.176   4.312
 1192TIP3   OH2 3581   2.875   3.073   0.165
 1192TIP3    H1 3582   2.894   2.989   0.124
 1192TIP3    H2 3583   2.830   3.124   0.097
 1193TIP3   OH2 3584   4.107   5.454   2.019
 1193TIP3    H1 3585   4.197   5.478   2.041
 1193TIP3    H2 3586   4.113   5.364   1.988
 1194TIP3   OH2 3587   0.095   2.326   0.317
 1194TIP3    H1 3588   0.079   2.313   0.410
 1194TIP3    H2 3589   0.191   2.324   0.309
 1195TIP3   OH2 3590   2.109   3.846   5.135
 1195TIP3    H1 3591   2.106   3.914   5.068
 1195TIP3    H2 3592   2.180   3.788   5.108
 1196TIP3   OH2 3593   6.063   4.811   4.814
 1196TIP3    H1 3594   6.059   4.906   4.818
 1196TIP3    H2 3595   5.998   4.787   4.748
 1197TIP3   OH2 3596   3.245   1.971   4.414
 1197TIP3    H1 3597   3.301   1.904   4.454
 1197TIP3    H2 3598   3.161   1.926   4.399
 1198TIP3   OH2 3599   5.318   5.200   3.424
 1198TIP3    H1 3600   5.283   5.174   3.509
 1198TIP3    H2 3601   5.317   5.296   3.426
 1199TIP3   OH2 3602   0.174   0.619   4.690
 1199TIP3    H1 3603   0.168   0.523   4.688
 1199TIP3    H2 3604   0.180   0.640   4.783
 1200TIP3   OH2 3605   2.549   0.475   3.210
 1200TIP3    H1 3606   2.515   0.516   3.130
 1200TIP3    H2 3607   2.558   0.547   3.272
 1201TIP3   OH2 3608   2.542   3.769   2.203
 1201TIP3    H1 3609   2.585   3.828   2.264
 1201TIP3    H2 3610   2.533   3.687   2.251
 1202TIP3   OH2 3611   0.871   4.798   1.403
 1202TIP3    H1 3612   0.810   4.840   1.342
 1202TIP3    H2 3613   0.945   4.771   1.348
 1203TIP3   OH2 3614   1.282   3.718   1.623
 1203TIP3    H1 3615   1.278   3.771   1.544
 1203TIP3    H2 3616   1.247   3.632   1.596
 1204TIP3   OH2 3617   6.263   0.979   2.774
 1204TIP3    H1 3618   6.217   1.062   2.763
 1204TIP3    H2 3619   6.207   0.914   2.733
 1205TIP3   OH2 3620   5.559   2.727   0.579
 1205TIP3    H1 3621   5.480   2.721   0.525
 1205TIP3    H2 3622   5.542   2.669   0.653
 1206TIP3   OH2 3623   0.090   4.095   3.781
 1206TIP3    H1 3624   0.144   4.148   3.840
 1206TIP3    H2 3625   0.152   4.063   3.715
 1207TIP3   OH2 3626   2.520   5.829   1.782
 1207TIP3    H1 3627   2.542   5.908   1.832
 1207TIP3    H2 3628   2.579   5.831   1.707
 1208TIP3   OH2 3629   3.758   2.459   3.437
 1208TIP3    H1 3630   3.757   2.514   3.515
 1208TIP3    H2 3631   3.710   2.510   3.371
 1209TIP3   OH2 3632   2.372   3.459   3.159
 1209TIP3    H1 3633   2.325   3.409   3.092
 1209TIP3    H2 3634   2.374   3.548   3.125
 1210TIP3   OH2 3635   0.116   0.752   4.974
 1210TIP3    H1 3636   0.203   0.777   5.004
 1210TIP3    H2 3637   0.068   0.836   4.969
 1211TIP3   OH2 3638   4.221   5.893   4.732
 1211TIP3    H1 3639   4.293   5.867   4.674
 1211TIP3    H2 3640   4.182   5.810   4.759
 1212TIP3   OH2 3641   1.873   2.669   4.629
 1212TIP3    H1 3642   1.894   2.762   4.637
 1212TIP3    H2 3643   1.843   2.644   4.717
 1213TIP3   OH2 3644   4.975   2.832   2.926
 1213TIP3    H1 3645   4.890   2.788   2.920
 1213TIP3    H2 3646   5.036   2.762   2.949
 1214TIP3   OH2 3647   4.037   6.009   2.634
 1214TIP3    H1 3648   4.011   5.921   2.606
 1214TIP3    H2 3649   3.954   6.055   2.646
 1215TIP3   OH2 3650   2.219   2.682   3.368
 1215TIP3    H1 3651   2.242   2.612   3.308
 1215TIP3    H2 3652   2.212   2.639   3.454
 1216TIP3   OH2 3653   5.680   0.743   0.017
 1216TIP3    H1 3654   5.773   0.746  -0.006
 1216TIP3    H2 3655   5.657   0.650   0.008
 1217TIP3   OH2 3656   5.250   1.316   4.505
 1217TIP3    H1 3657   5.190   1.271   4.565
 1217TIP3    H2 3658   5.276   1.249   4.442
 1218TIP3   OH2 3659   4.249   1.700   1.587
 1218TIP3    H1 3660   4.187   1.703   1.514
 1218TIP3    H2 3661   4.323   1.650   1.553
 1219TIP3   OH2 3662   2.134   3.527   4.908
 1219TIP3    H1 3663   2.120   3.610   4.864
 1219TIP3    H2 3664   2.215   3.539   4.957
 1220TIP3   OH2 3665   1.044   1.088   5.130
 1220TIP3    H1 3666   0.986   1.026   5.175
 1220TIP3    H2 3667   0.990   1.125   5.060
 1221TIP3   OH2 3668   0.298   1.497   1.153
 1221TIP3    H1 3669   0.387   1.474   1.179
 1221TIP3    H2 3670   0.292   1.591   1.167
 1222TIP3   OH2 3671   3.416   5.282   1.078
 1222TIP3    H1 3672   3.426   5.373   1.050
 1222TIP3    H2 3673   3.381   5.237   1.001
 1223TIP3   OH2 3674   4.914   1.447   0.887
 1223TIP3    H1 3675   4.997   1.492   0.901
 1223TIP3    H2 3676   4.870   1.497   0.818
 1224TIP3   OH2 3677   4.244   4.427   4.301
 1224TIP3    H1 3678   4.250   4.357   4.237
 1224TIP3    H2 3679   4.335   4.454   4.315
 1225TIP3   OH2 3680   0.573   1.726   2.375
 1225TIP3    H1 3681   0.565   1.695   2.465
 1225TIP3    H2 3682   0.644   1.790   2.377
 1226TIP3   OH2 3683   5.699   1.880   3.725
 1226TIP3    H1 3684   5.644   1.838   3.659
 1226TIP3    H2 3685   5.787   1.879   3.689
 1227TIP3   OH2 3686   3.348   2.475   2.366
 1227TIP3    H1 3687   3.287   2.454   2.437
 1227TIP3    H2 3688   3.299   2.455   2.287
 1228TIP3   OH2 3689   5.867   3.797   3.178
 1228TIP3    H1 3690   5.915   3.825   3.100
 1228TIP3    H2 3691   5.928   3.811   3.250
 1229TIP3   OH2 3692   0.857   2.079   2.892
 1229TIP3    H1 3693   0.913   2.147   2.855
 1229TIP3    H2 3694   0.793   2.061   2.823
 1230TIP3   OH2 3695   4.642   4.400   3.728
 1230TIP3    H1 3696   4.703   4.471   3.711
 1230TIP3    H2 3697   4.573   4.411   3.662
 1231TIP3   OH2 3698   4.846   1.203   3.262
 1231TIP3    H1 3699   4.861   1.186   3.169
 1231TIP3    H2 3700   4.774   1.144   3.286
 1232TIP3   OH2 3701   1.447   5.768   2.473
 1232TIP3    H1 3702   1.391   5.722   2.411
 1232TIP3    H2 3703   1.452   5.857   2.439
 1233TIP3   OH2 3704   1.211   0.414   4.247
 1233TIP3    H1 3705   1.117   0.412   4.265
 1233TIP3    H2 3706   1.247   0.472   4.313
 1234TIP3   OH2 3707   3.889   3.351   1.459
 1234TIP3    H1 3708   3.815   3.358   1.519
 1234TIP3    H2 3709   3.922   3.262   1.471
 1235TIP3   OH2 3710   0.534   1.007   4.777
 1235TIP3    H1 3711   0.551   0.913   4.782
 1235TIP3    H2 3712   0.587   1.044   4.848
 1236TIP3   OH2 3713   1.157   1.860   0.812
 1236TIP3    H1 3714   1.158   1.833   0.720
 1236TIP3    H2 3715   1.064   1.873   0.832
 1237TIP3   OH2 3716   2.458   5.563   4.943
 1237TIP3    H1 3717   2.440   5.653   4.970
 1237TIP3    H2 3718   2.501   5.572   4.858
 1238TIP3   OH2 3719   3.468   1.309   3.303
 1238TIP3    H1 3720   3.517   1.310   3.220
 1238TIP3    H2 3721   3.396   1.248   3.288
 1239TIP3   OH2 3722   2.949   1.328   2.121
 1239TIP3    H1 3723   3.028   1.325   2.067
 1239TIP3    H2 3724   2.980   1.309   2.209
 1240TIP3   OH2 3725   4.084   0.783   2.182
 1240TIP3    H1 3726   4.159   0.842   2.176
 1240TIP3    H2 3727   4.008   0.841   2.188
 1241TIP3   OH2 3728   5.259   2.155   3.027
 1241TIP3    H1 3729   5.188   2.098   2.997
 1241TIP3    H2 3730   5.335   2.128   2.977
 1242TIP3   OH2 3731   6.156   0.141   2.008
 1242TIP3    H1 3732   6.250   0.141   2.024
 1242TIP3    H2 3733   6.139   0.054   1.970
 1243TIP3   OH2 3734   1.350   0.053   0.493
 1243TIP3    H1 3735   1.263   0.035   0.457
 1243TIP3    H2 3736   1.341   0.037   0.587
 1244TIP3   OH2 3737   5.457   0.262   5.004
 1244TIP3    H1 3738   5.508   0.224   4.933
 1244TIP3    H2 3739   5.521   0.278   5.074
 1245TIP3   OH2 3740   3.918   2.031   0.144
 1245TIP3    H1 3741   3.917   2.054   0.237
 1245TIP3    H2 3742   3.888   1.940   0.141
 1246TIP3   OH2 3743   1.798   4.257   1.325
 1246TIP3    H1 3744   1.878   4.215   1.295
 1246TIP3    H2 3745   1.827   4.333   1.376
 1247TIP3   OH2 3746   1.360   2.394   5.181
 1247TIP3    H1 3747   1.296   2.342   5.230
 1247TIP3    H2 3748   1.330   2.390   5.090
 1248TIP3   OH2 3749   4.385   3.985   1.863
 1248TIP3    H1 3750   4.442   4.061   1.848
 1248TIP3    H2 3751   4.352   3.997   1.952
 1249TIP3   OH2 3752   1.276   2.710   0.617
 1249TIP3    H1 3753   1.292   2.616   0.622
 1249TIP3    H2 3754   1.215   2.728   0.688
 1250TIP3   OH2 3755   3.446   1.860   1.109
 1250TIP3    H1 3756   3.525   1.807   1.094
 1250TIP3    H2 3757   3.378   1.815   1.059
 1251TIP3   OH2 3758   3.697   4.297   2.843
 1251TIP3    H1 3759   3.764   4.239   2.806
 1251TIP3    H2 3760   3.747   4.366   2.887
 1252TIP3   OH2 3761   2.211   0.944   2.174
 1252TIP3    H1 3762   2.264   0.874   2.138
 1252TIP3    H2 3763   2.274   1.009   2.206
 1253TIP3   OH2 3764   3.270   1.150   1.973
 1253TIP3    H1 3765   3.249   1.059   1.955
 1253TIP3    H2 3766   3.291   1.187   1.887
 1254TIP3   OH2 3767   0.869   1.056   0.782
 1254TIP3    H1 3768   0.949   1.065   0.729
 1254TIP3    H2 3769   0.799   1.085   0.723
 1255TIP3   OH2 3770   0.685   0.846   0.752
 1255TIP3    H1 3771   0.745   0.919   0.772
 1255TIP3    H2 3772   0.601   0.874   0.789
 1256TIP3   OH2 3773   2.261   0.530   3.433
 1256TIP3    H1 3774   2.315   0.541   3.512
 1256TIP3    H2 3775   2.309   0.468   3.379
 1257TIP3   OH2 3776   1.248   2.833   2.767
 1257TIP3    H1 3777   1.314   2.899   2.788
 1257TIP3    H2 3778   1.202   2.819   2.850
 1258TIP3   OH2 3779   2.846   0.795   2.309
 1258TIP3    H1 3780   2.807   0.730   2.250
 1258TIP3    H2 3781   2.772   0.827   2.361
 1259TIP3   OH2 3782   4.773   5.403   3.525
 1259TIP3    H1 3783   4.774   5.474   3.589
 1259TIP3    H2 3784   4.693   5.418   3.475
 1260TIP3   OH2 3785   2.931   5.886   0.133
 1260TIP3    H1 3786   3.002   5.844   0.181
 1260TIP3    H2 3787   2.930   5.844   0.047
 1261TIP3   OH2 3788   2.815   4.200   2.620
 1261TIP3    H1 3789   2.830   4.148   2.541
 1261TIP3    H2 3790   2.739   4.159   2.662
 1262TIP3   OH2 3791   5.895   1.363   1.760
 1262TIP3    H1 3792   5.915   1.286   1.706
 1262TIP3    H2 3793   5.800   1.359   1.772
 1263TIP3   OH2 3794   5.598   1.615   2.587
 1263TIP3    H1 3795   5.680   1.590   2.544
 1263TIP3    H2 3796   5.614   1.704   2.618
 1264TIP3   OH2 3797   0.540   5.794   1.441
 1264TIP3    H1 3798   0.530   5.879   1.398
 1264TIP3    H2 3799   0.478   5.737   1.396
 1265TIP3   OH2 3800   0.229   3.610   3.568
 1265TIP3    H1 3801   0.300   3.559   3.528
 1265TIP3    H2 3802   0.270   3.694   3.591
 1266TIP3   OH2 3803   6.314   0.968   3.160
 1266TIP3    H1 3804   6.353   0.896   3.111
 1266TIP3    H2 3805   6.351   1.047   3.121
 1267TIP3   OH2 3806   0.703   4.130   1.742
 1267TIP3    H1 3807   0.784   4.081   1.757
 1267TIP3    H2 3808   0.683   4.116   1.650
 1268TIP3   OH2 3809   2.625   1.043   4.612
 1268TIP3    H1 3810   2.693   1.098   4.573
 1268TIP3    H2 3811   2.667   1.005   4.690
 1269TIP3   OH2 3812   0.596   4.176   2.177
 1269TIP3    H1 3813   0.598   4.252   2.119
 1269TIP3    H2 3814   0.525   4.195   2.239
 1270TIP3   OH2 3815   4.122   5.020   1.422
 1270TIP3    H1 3816   4.084   4.974   1.498
 1270TIP3    H2 3817   4.180   4.955   1.382
 1271TIP3   OH2 3818   1.782   0.983   3.832
 1271TIP3    H1 3819   1.691   0.953   3.836
 1271TIP3    H2 3820   1.832   0.914   3.876
 1272TIP3   OH2 3821   5.056   1.877   4.309
 1272TIP3    H1 3822   5.149   1.857   4.298
 1272TIP3    H2 3823   5.038   1.945   4.244
 1273TIP3   OH2 3824   3.883   5.267   3.002
 1273TIP3    H1 3825   3.957   5.221   3.043
 1273TIP3    H2 3826   3.846   5.319   3.072
 1274TIP3   OH2 3827   6.254   1.145   2.119
 1274TIP3    H1 3828   6.247   1.057   2.157
 1274TIP3    H2 3829   6.235   1.204   2.192
 1275TIP3   OH2 3830   2.130   0.039   3.871
 1275TIP3    H1 3831   2.112   0.125   3.834
 1275TIP3    H2 3832   2.084  -0.022   3.813
 1276TIP3   OH2 3833   5.040   2.898   3.802
 1276TIP3    H1 3834   5.129   2.882   3.774
 1276TIP3    H2 3835   5.027   2.993   3.791
 1277TIP3   OH2 3836   0.924   1.663   4.214
 1277TIP3    H1 3837   0.937   1.577   4.254
 1277TIP3    H2 3838   0.970   1.658   4.130
 1278TIP3   OH2 3839   3.763   1.638   3.435
 1278TIP3    H1 3840   3.849   1.598   3.425
 1278TIP3    H2 3841   3.735   1.661   3.347
 1279TIP3   OH2 3842   3.276   1.614   5.103
 1279TIP3    H1 3843   3.258   1.646   5.015
 1279TIP3    H2 3844   3.258   1.520   5.099
 1280TIP3   OH2 3845   2.739   5.869   1.399
 1280TIP3    H1 3846   2.773   5.958   1.406
 1280TIP3    H2 3847   2.791   5.829   1.329
 1281TIP3   OH2 3848   5.717   0.525   0.577
 1281TIP3    H1 3849   5.637   0.567   0.546
 1281TIP3    H2 3850   5.760   0.592   0.630
 1282TIP3   OH2 3851   1.412   2.971   3.069
 1282TIP3    H1 3852   1.347   3.041   3.063
 1282TIP3    H2 3853   1.361   2.891   3.079
 1283TIP3   OH2 3854   6.108   1.733   3.344
 1283TIP3    H1 3855   6.192   1.743   3.389
 1283TIP3    H2 3856   6.068   1.656   3.384
 1284TIP3   OH2 3857   0.112   5.806   2.002
 1284TIP3    H1 3858   0.050   5.821   2.073
 1284TIP3    H2 3859   0.056   5.794   1.925
 1285TIP3   OH2 3860   4.587   4.175   0.215
 1285TIP3    H1 3861   4.582   4.096   0.269
 1285TIP3    H2 3862   4.578   4.143   0.125
 1286TIP3   OH2 3863   1.771   5.237   4.592
 1286TIP3    H1 3864   1.850   5.266   4.546
 1286TIP3    H2 3865   1.752   5.151   4.555
 1287TIP3   OH2 3866   4.693   1.495   2.549
 1287TIP3    H1 3867   4.647   1.461   2.473
 1287TIP3    H2 3868   4.629   1.491   2.620
 1288TIP3   OH2 3869   0.823   1.567   3.204
 1288TIP3    H1 3870   0.872   1.618   3.140
 1288TIP3    H2 3871   0.874   1.575   3.285
 1289TIP3   OH2 3872   3.032   4.655   2.692
 1289TIP3    H1 3873   3.057   4.599   2.619
 1289TIP3    H2 3874   3.101   4.643   2.757
 1290TIP3   OH2 3875   5.031   4.570   4.459
 1290TIP3    H1 3876   5.081   4.492   4.433
 1290TIP3    H2 3877   5.080   4.606   4.533
 1291TIP3   OH2 3878   3.852   4.342   3.951
 1291TIP3    H1 3879   3.899   4.325   4.032
 1291TIP3    H2 3880   3.851   4.257   3.906
 1292TIP3   OH2 3881   3.686   0.087   0.705
 1292TIP3    H1 3882   3.664   0.178   0.688
 1292TIP3    H2 3883   3.779   0.089   0.729
 1293TIP3   OH2 3884   4.057   4.170   1.200
 1293TIP3    H1 3885   4.137   4.206   1.163
 1293TIP3    H2 3886   4.018   4.243   1.249
 1294TIP3   OH2 3887   3.355   3.945   3.261
 1294TIP3    H1 3888   3.379   3.993   3.340
 1294TIP3    H2 3889   3.268   3.976   3.239
 1295TIP3   OH2 3890   1.117   3.214   1.901
 1295TIP3    H1 3891   1.113   3.121   1.880
 1295TIP3    H2 3892   1.036   3.232   1.949
 1296TIP3   OH2 3893   0.658   4.787   1.012
 1296TIP3    H1 3894   0.620   4.817   0.929
 1296TIP3    H2 3895   0.753   4.794   0.999
 1297TIP3   OH2 3896   0.489   2.265   1.843
 1297TIP3    H1 3897   0.584   2.263   1.826
 1297TIP3    H2 3898   0.450   2.264   1.755
 1298TIP3   OH2 3899   4.451   4.090   1.324
 1298TIP3    H1 3900   4.518   4.102   1.391
 1298TIP3    H2 3901   4.373   4.133   1.360
 1299TIP3   OH2 3902   5.575   3.642   1.444
 1299TIP3    H1 3903   5.641   3.656   1.376
 1299TIP3    H2 3904   5.623   3.602   1.516
 1300TIP3   OH2 3905   3.883   4.696   0.073
 1300TIP3    H1 3906   3.877   4.784   0.110
 1300TIP3    H2 3907   3.885   4.638   0.149
 1301TIP3   OH2 3908   0.439   3.419   4.193
 1301TIP3    H1 3909   0.387   3.473   4.135
 1301TIP3    H2 3910   0.528   3.423   4.157
 1302TIP3   OH2 3911   5.072   2.233   3.849
 1302TIP3    H1 3912   5.001   2.197   3.796
 1302TIP3    H2 3913   5.042   2.321   3.872
 1303TIP3   OH2 3914   1.304   1.719   3.866
 1303TIP3    H1 3915   1.329   1.783   3.800
 1303TIP3    H2 3916   1.341   1.636   3.834
 1304TIP3   OH2 3917   4.528   3.696   4.661
 1304TIP3    H1 3918   4.445   3.737   4.685
 1304TIP3    H2 3919   4.511   3.659   4.574
 1305TIP3   OH2 3920   2.817   0.388   3.167
 1305TIP3    H1 3921   2.830   0.336   3.246
 1305TIP3    H2 3922   2.723   0.403   3.163
 1306TIP3   OH2 3923   4.869   0.747   1.737
 1306TIP3    H1 3924   4.899   0.762   1.648
 1306TIP3    H2 3925   4.774   0.738   1.729
 1307TIP3   OH2 3926   3.150   1.690   3.315
 1307TIP3    H1 3927   3.183   1.694   3.405
 1307TIP3    H2 3928   3.084   1.622   3.317
 1308TIP3   OH2 3929   1.041   4.529   2.735
 1308TIP3    H1 3930   1.097   4.596   2.773
 1308TIP3    H2 3931   1.030   4.464   2.805
 1309TIP3   OH2 3932   3.731   0.278   2.314
 1309TIP3    H1 3933   3.695   0.265   2.227
 1309TIP3    H2 3934   3.824   0.258   2.305
 1310TIP3   OH2 3935   5.628   4.705   0.201
 1310TIP3    H1 3936   5.544   4.684   0.242
 1310TIP3    H2 3937   5.605   4.758   0.125
 1311TIP3   OH2 3938   4.299   4.973   0.476
 1311TIP3    H1 3939   4.277   4.945   0.388
 1311TIP3    H2 3940   4.394   4.969   0.480
 1312TIP3   OH2 3941   3.644  -0.013   2.353
 1312TIP3    H1 3942   3.627   0.081   2.348
 1312TIP3    H2 3943   3.712  -0.029   2.287
 1313TIP3   OH2 3944   4.476   2.596   4.078
 1313TIP3    H1 3945   4.520   2.536   4.137
 1313TIP3    H2 3946   4.383   2.579   4.091
 1314TIP3   OH2 3947   1.017   0.586   3.870
 1314TIP3    H1 3948   1.056   0.652   3.926
 1314TIP3    H2 3949   1.087   0.522   3.855
 1315TIP3   OH2 3950   3.854   2.704   2.024
 1315TIP3    H1 3951   3.766   2.725   1.995
 1315TIP3    H2 3952   3.898   2.671   1.946
 1316TIP3   OH2 3953   3.712   3.710   0.936
 1316TIP3    H1 3954   3.798   3.703   0.893
 1316TIP3    H2 3955   3.690   3.619   0.958
 1317TIP3   OH2 3956   1.154   0.272   4.558
 1317TIP3    H1 3957   1.181   0.208   4.624
 1317TIP3    H2 3958   1.090   0.327   4.604
 1318TIP3   OH2 3959   4.234   4.755   2.716
 1318TIP3    H1 3960   4.186   4.814   2.773
 1318TIP3    H2 3961   4.182   4.675   2.714
 1319TIP3   OH2 3962   5.942   2.008   3.570
 1319TIP3    H1 3963   6.037   2.019   3.566
 1319TIP3    H2 3964   5.907   2.096   3.558
 1320TIP3   OH2 3965   4.712   3.569   0.074
 1320TIP3    H1 3966   4.661   3.493   0.044
 1320TIP3    H2 3967   4.646   3.630   0.107
 1321TIP3   OH2 3968   3.452   5.747   4.073
 1321TIP3    H1 3969   3.372   5.792   4.099
 1321TIP3    H2 3970   3.489   5.715   4.155
 1322TIP3   OH2 3971   5.576   0.997   0.278
 1322TIP3    H1 3972   5.650   1.030   0.330
 1322TIP3    H2 3973   5.498   1.028   0.323
 1323TIP3   OH2 3974   4.511   3.639   0.997
 1323TIP3    H1 3975   4.442   3.600   1.050
 1323TIP3    H2 3976   4.541   3.715   1.046
 1324TIP3   OH2 3977   5.238   0.064   2.905
 1324TIP3    H1 3978   5.191  -0.018   2.916
 1324TIP3    H2 3979   5.296   0.049   2.830
 1325TIP3   OH2 3980   1.748   3.897   1.378
 1325TIP3    H1 3981   1.732   3.952   1.302
 1325TIP3    H2 3982   1.833   3.926   1.411
 1326TIP3   OH2 3983   4.151   2.054   5.094
 1326TIP3    H1 3984   4.152   2.148   5.114
 1326TIP3    H2 3985   4.243   2.031   5.083
 1327TIP3   OH2 3986   0.313   0.965   1.686
 1327TIP3    H1 3987   0.381   0.898   1.674
 1327TIP3    H2 3988   0.355   1.046   1.655
 1328TIP3   OH2 3989   6.222   2.088   3.563
 1328TIP3    H1 3990   6.277   2.100   3.640
 1328TIP3    H2 3991   6.279   2.048   3.498
 1329TIP3   OH2 3992   2.130   3.425   2.018
 1329TIP3    H1 3993   2.178   3.504   2.040
 1329TIP3    H2 3994   2.114   3.382   2.101
 1330TIP3   OH2 3995   4.915   0.573   2.812
 1330TIP3    H1 3996   4.914   0.616   2.898
 1330TIP3    H2 3997   5.000   0.598   2.775
 1331TIP3   OH2 3998   5.152   4.457   1.319
 1331TIP3    H1 3999   5.231   4.404   1.326
 1331TIP3    H2 4000   5.170   4.534   1.372
 1332TIP3   OH2 4001   4.570   4.325   1.994
 1332TIP3    H1 4002   4.580   4.261   1.924
 1332TIP3    H2 4003   4.617   4.287   2.069
 1333TIP3   OH2 4004   2.485   5.946   1.425
 1333TIP3    H1 4005   2.572   5.905   1.419
 1333TIP3    H2 4006   2.430   5.893   1.368
 1334TIP3   OH2 4007   2.835   1.749   4.955
 1334TIP3    H1 4008   2.802   1.838   4.963
 1334TIP3    H2 4009   2.819   1.710   5.041
 1335TIP3   OH2 4010   4.598   2.113   2.838
 1335TIP3    H1 4011   4.569   2.058   2.911
 1335TIP3    H2 4012   4.546   2.084   2.764
 1336TIP3   OH2 4013   2.961   5.769   2.289
 1336TIP3    H1 4014   3.008   5.823   2.352
 1336TIP3    H2 4015   2.872   5.806   2.288
 1337TIP3   OH2 4016   2.563   0.939   3.926
 1337TIP3    H1 4017   2.498   0.873   3.902
 1337TIP3    H2 4018   2.596   0.972   3.842
 1338TIP3   OH2 4019   5.248   5.237   5.034
 1338TIP3    H1 4020   5.245   5.227   5.129
 1338TIP3    H2 4021   5.219   5.327   5.018
 1339TIP3   OH2 4022   2.017   1.615   1.556
 1339TIP3    H1 4023   2.097   1.640   1.510
 1339TIP3    H2 4024   1.953   1.597   1.487
 1340TIP3   OH2 4025   5.105   0.283   3.958
 1340TIP3    H1 4026   5.176   0.276   3.894
 1340TIP3    H2 4027   5.145   0.327   4.033
 1341TIP3   OH2 4028   0.256   2.685   3.252
 1341TIP3    H1 4029   0.308   2.613   3.288
 1341TIP3    H2 4030   0.170   2.675   3.292
 1342TIP3   OH2 4031   5.530   1.153   2.350
 1342TIP3    H1 4032   5.483   1.224   2.393
 1342TIP3    H2 4033   5.599   1.196   2.300
 1343TIP3   OH2 4034   3.625   5.670   0.258
 1343TIP3    H1 4035   3.616   5.748   0.313
 1343TIP3    H2 4036   3.538   5.631   0.257
 1344TIP3   OH2 4037   0.696   1.390   4.311
 1344TIP3    H1 4038   0.749   1.316   4.341
 1344TIP3    H2 4039   0.670   1.367   4.222
 1345TIP3   OH2 4040   2.117   1.874   3.542
 1345TIP3    H1 4041   2.202   1.908   3.568
 1345TIP3    H2 4042   2.105   1.906   3.452
 1346TIP3   OH2 4043   6.026   2.095   1.759
 1346TIP3    H1 4044   6.025   1.999   1.760
 1346TIP3    H2 4045   6.011   2.120   1.850
 1347TIP3   OH2 4046   2.230   3.580   4.228
 1347TIP3    H1 4047   2.139   3.597   4.251
 1347TIP3    H2 4048   2.250   3.646   4.161
 1348TIP3   OH2 4049   4.936   4.372   1.514
 1348TIP3    H1 4050   4.959   4.294   1.564
 1348TIP3    H2 4051   5.006   4.380   1.449
 1349TIP3   OH2 4052   3.217   4.626   4.126
 1349TIP3    H1 4053   3.170   4.702   4.160
 1349TIP3    H2 4054   3.272   4.598   4.199
 1350TIP3   OH2 4055   2.408   4.852   2.105
 1350TIP3    H1 4056   2.354   4.773   2.100
 1350TIP3    H2 4057   2.383   4.894   2.188
 1351TIP3   OH2 4058   2.352   5.696   0.185
 1351TIP3    H1 4059   2.257   5.705   0.181
 1351TIP3    H2 4060   2.367   5.602   0.184
 1352TIP3   OH2 4061   4.760   5.237   0.847
 1352TIP3    H1 4062   4.853   5.226   0.825
 1352TIP3    H2 4063   4.714   5.177   0.787
 1353TIP3   OH2 4064   3.064   5.209   3.707
 1353TIP3    H1 4065   3.145   5.228   3.753
 1353TIP3    H2 4066   3.082   5.129   3.658
 1354TIP3   OH2 4067   2.156   4.324   3.342
 1354TIP3    H1 4068   2.209   4.397   3.375
 1354TIP3    H2 4069   2.068   4.360   3.332
 1355TIP3   OH2 4070   2.292   4.869   0.017
 1355TIP3    H1 4071   2.264   4.854   0.107
 1355TIP3    H2 4072   2.385   4.891   0.024
 1356TIP3   OH2 4073   1.254   4.446   2.076
 1356TIP3    H1 4074   1.268   4.352   2.065
 1356TIP3    H2 4075   1.160   4.455   2.091
 1357TIP3   OH2 4076   4.687   1.070   2.224
 1357TIP3    H1 4077   4.615   1.055   2.286
 1357TIP3    H2 4078   4.723   0.983   2.209
 1358TIP3   OH2 4079   4.296   1.307   2.152
 1358TIP3    H1 4080   4.222   1.291   2.092
 1358TIP3    H2 4081   4.371   1.267   2.108
 1359TIP3   OH2 4082   4.319   1.641   1.076
 1359TIP3    H1 4083   4.308   1.568   1.137
 1359TIP3    H2 4084   4.322   1.599   0.990
 1360TIP3   OH2 4085   0.781   1.995   1.365
 1360TIP3    H1 4086   0.802   1.918   1.418
 1360TIP3    H2 4087   0.821   1.978   1.280
 1361TIP3   OH2 4088   1.861   5.717   0.836
 1361TIP3    H1 4089   1.953   5.733   0.818
 1361TIP3    H2 4090   1.849   5.747   0.926
 1362TIP3   OH2 4091   0.641   3.996   2.792
 1362TIP3    H1 4092   0.597   3.912   2.796
 1362TIP3    H2 4093   0.643   4.018   2.699
 1363TIP3   OH2 4094   5.115   5.245   1.063
 1363TIP3    H1 4095   5.159   5.175   1.016
 1363TIP3    H2 4096   5.060   5.201   1.127
 1364TIP3   OH2 4097   5.050   5.135   3.059
 1364TIP3    H1 4098   5.100   5.065   3.017
 1364TIP3    H2 4099   4.970   5.093   3.090
 1365TIP3   OH2 4100   4.766   3.065   4.599
 1365TIP3    H1 4101   4.752   2.970   4.591
 1365TIP3    H2 4102   4.806   3.089   4.515
 1366TIP3   OH2 4103   3.496   2.237   3.192
 1366TIP3    H1 4104   3.426   2.294   3.160
 1366TIP3    H2 4105   3.573   2.263   3.143
 1367TIP3   OH2 4106   0.942   2.902   4.313
 1367TIP3    H1 4107   1.027   2.878   4.350
 1367TIP3    H2 4108   0.888   2.925   4.389
 1368TIP3   OH2 4109   2.163   0.749   4.332
 1368TIP3    H1 4110   2.203   0.830   4.365
 1368TIP3    H2 4111   2.100   0.779   4.266
 1369TIP3   OH2 4112   1.409   4.782   1.192
 1369TIP3    H1 4113   1.343   4.836   1.149
 1369TIP3    H2 4114   1.379   4.773   1.283
 1370TIP3   OH2 4115   2.345   2.146   3.906
 1370TIP3    H1 4116   2.355   2.079   3.838
 1370TIP3    H2 4117   2.397   2.114   3.980
 1371TIP3   OH2 4118   3.165   1.235   0.533
 1371TIP3    H1 4119   3.177   1.258   0.625
 1371TIP3    H2 4120   3.237   1.278   0.487
 1372TIP3   OH2 4121   2.221   4.048   2.504
 1372TIP3    H1 4122   2.304   4.089   2.481
 1372TIP3    H2 4123   2.231   4.025   2.597
 1373TIP3   OH2 4124   0.795   5.141   3.234
 1373TIP3    H1 4125   0.830   5.100   3.154
 1373TIP3    H2 4126   0.727   5.080   3.264
 1374TIP3   OH2 4127   4.645  -0.010   0.450
 1374TIP3    H1 4128   4.688   0.054   0.506
 1374TIP3    H2 4129   4.574  -0.044   0.503
 1375TIP3   OH2 4130   5.196   5.125   0.118
 1375TIP3    H1 4131   5.238   5.155   0.037
 1375TIP3    H2 4132   5.110   5.167   0.117
 1376TIP3   OH2 4133   3.759   0.796   0.280
 1376TIP3    H1 4134   3.728   0.707   0.263
 1376TIP3    H2 4135   3.765   0.836   0.193
 1377TIP3   OH2 4136   2.485   2.117   1.074
 1377TIP3    H1 4137   2.431   2.066   1.134
 1377TIP3    H2 4138   2.431   2.192   1.050
 1378TIP3   OH2 4139   2.109   5.413   4.565
 1378TIP3    H1 4140   2.041   5.479   4.552
 1378TIP3    H2 4141   2.065   5.330   4.547
 1379TIP3   OH2 4142   3.682   0.386   4.137
 1379TIP3    H1 4143   3.607   0.436   4.106
 1379TIP3    H2 4144   3.704   0.426   4.221
 1380TIP3   OH2 4145   2.059   5.891  -0.034
 1380TIP3    H1 4146   2.068   5.858   0.055
 1380TIP3    H2 4147   2.119   5.965  -0.039
 1381TIP3   OH2 4148   2.599   5.895   0.808
 1381TIP3    H1 4149   2.662   5.923   0.874
 1381TIP3    H2 4150   2.617   5.950   0.732
 1382TIP3   OH2 4151   5.115   5.313   0.442
 1382TIP3    H1 4152   5.130   5.269   0.525
 1382TIP3    H2 4153   5.177   5.386   0.442
 1383TIP3   OH2 4154   1.914   5.836   4.466
 1383TIP3    H1 4155   1.979   5.874   4.525
 1383TIP3    H2 4156   1.860   5.911   4.440
 1384TIP3   OH2 4157   3.997   3.990   2.607
 1384TIP3    H1 4158   4.001   4.022   2.697
 1384TIP3    H2 4159   3.972   4.067   2.556
 1385TIP3   OH2 4160   2.357   1.479   2.956
 1385TIP3    H1 4161   2.302   1.556   2.945
 1385TIP3    H2 4162   2.358   1.464   3.051
 1386TIP3   OH2 4163   3.776   4.450   2.066
 1386TIP3    H1 4164   3.736   4.372   2.104
 1386TIP3    H2 4165   3.766   4.518   2.133
 1387TIP3   OH2 4166   4.734   2.170   4.414
 1387TIP3    H1 4167   4.660   2.126   4.455
 1387TIP3    H2 4168   4.713   2.170   4.320
 1388TIP3   OH2 4169   0.568   4.506   2.089
 1388TIP3    H1 4170   0.638   4.556   2.130
 1388TIP3    H2 4171   0.603   4.481   2.003
 1389TIP3   OH2 4172   1.718   5.129   1.662
 1389TIP3    H1 4173   1.683   5.045   1.691
 1389TIP3    H2 4174   1.780   5.106   1.593
 1390TIP3   OH2 4175   6.010   2.950   3.446
 1390TIP3    H1 4176   5.932   2.936   3.392
 1390TIP3    H2 4177   6.083   2.943   3.385
 1391TIP3   OH2 4178   3.797   2.285   3.672
 1391TIP3    H1 4179   3.761   2.317   3.589
 1391TIP3    H2 4180   3.730   2.228   3.708
 1392TIP3   OH2 4181   6.234   1.304   5.163
 1392TIP3    H1 4182   6.270   1.301   5.252
 1392TIP3    H2 4183   6.301   1.348   5.111
 1393TIP3   OH2 4184   1.586   4.142   4.370
 1393TIP3    H1 4185   1.656   4.172   4.312
 1393TIP3    H2 4186   1.532   4.086   4.315
 1394TIP3   OH2 4187   5.119   4.623   1.049
 1394TIP3    H1 4188   5.193   4.638   1.107
 1394TIP3    H2 4189   5.046   4.668   1.092
 1395TIP3   OH2 4190   3.534   1.992   2.571
 1395TIP3    H1 4191   3.609   2.023   2.621
 1395TIP3    H2 4192   3.471   2.063   2.575
 1396TIP3   OH2 4193   2.823   2.518   0.282
 1396TIP3    H1 4194   2.887   2.575   0.325
 1396TIP3    H2 4195   2.823   2.546   0.191
 1397TIP3   OH2 4196   3.470   3.780   2.046
 1397TIP3    H1 4197   3.407   3.734   2.100
 1397TIP3    H2 4198   3.511   3.712   1.993
 1398TIP3   OH2 4199   2.690   0.271   2.823
 1398TIP3    H1 4200   2.781   0.298   2.822
 1398TIP3    H2 4201   2.676   0.234   2.911
 1399TIP3   OH2 4202   1.905   5.289   2.743
 1399TIP3    H1 4203   1.861   5.350   2.802
 1399TIP3    H2 4204   1.837   5.266   2.679
 1400TIP3   OH2 4205   5.383   3.400   1.220
 1400TIP3    H1 4206   5.397   3.309   1.194
 1400TIP3    H2 4207   5.384   3.398   1.315
 1401TIP3   OH2 4208   6.055   1.975   0.579
 1401TIP3    H1 4209   6.012   2.055   0.608
 1401TIP3    H2 4210   6.141   1.976   0.621
 1402TIP3   OH2 4211   4.950   5.159   1.258
 1402TIP3    H1 4212   4.866   5.181   1.217
 1402TIP3    H2 4213   4.925   5.118   1.341
 1403TIP3   OH2 4214   4.416   3.239   2.075
 1403TIP3    H1 4215   4.375   3.318   2.042
 1403TIP3    H2 4216   4.507   3.244   2.045
 1404TIP3   OH2 4217   1.005   4.478   3.658
 1404TIP3    H1 4218   1.019   4.519   3.573
 1404TIP3    H2 4219   1.062   4.527   3.718
 1405TIP3   OH2 4220   2.103   3.967   2.249
 1405TIP3    H1 4221   2.170   3.999   2.309
 1405TIP3    H2 4222   2.048   3.911   2.302
 1406TIP3   OH2 4223   0.188   2.465   1.682
 1406TIP3    H1 4224   0.167   2.486   1.590
 1406TIP3    H2 4225   0.267   2.412   1.676
 1407TIP3   OH2 4226   2.643   3.115   2.867
 1407TIP3    H1 4227   2.601   3.098   2.951
 1407TIP3    H2 4228   2.605   3.197   2.837
 1408TIP3   OH2 4229   5.794   3.832   4.867
 1408TIP3    H1 4230   5.755   3.766   4.924
 1408TIP3    H2 4231   5.881   3.846   4.904
 1409TIP3   OH2 4232   2.425   5.301   3.947
 1409TIP3    H1 4233   2.381   5.219   3.927
 1409TIP3    H2 4234   2.407   5.357   3.871
 1410TIP3   OH2 4235   1.644   4.798   2.367
 1410TIP3    H1 4236   1.611   4.801   2.456
 1410TIP3    H2 4237   1.709   4.728   2.368
 1411TIP3   OH2 4238   4.323   5.080   4.597
 1411TIP3    H1 4239   4.387   5.094   4.527
 1411TIP3    H2 4240   4.359   5.128   4.672
 1412TIP3   OH2 4241   2.940   4.676   0.769
 1412TIP3    H1 4242   2.949   4.610   0.699
 1412TIP3    H2 4243   2.978   4.634   0.846
 1413TIP3   OH2 4244   4.735   5.935   4.136
 1413TIP3    H1 4245   4.765   5.845   4.134
 1413TIP3    H2 4246   4.703   5.952   4.047
 1414TIP3   OH2 4247   5.245   4.778   4.475
 1414TIP3    H1 4248   5.307   4.843   4.508
 1414TIP3    H2 4249   5.240   4.795   4.381
 1415TIP3   OH2 4250   5.769   5.764   3.709
 1415TIP3    H1 4251   5.788   5.855   3.685
 1415TIP3    H2 4252   5.848   5.733   3.752
 1416TIP3   OH2 4253   1.696   1.874   3.421
 1416TIP3    H1 4254   1.728   1.797   3.468
 1416TIP3    H2 4255   1.753   1.945   3.450
 1417TIP3   OH2 4256   4.421   5.098   1.542
 1417TIP3    H1 4257   4.366   5.176   1.539
 1417TIP3    H2 4258   4.360   5.027   1.563
 1418TIP3   OH2 4259   3.628   2.960   0.444
 1418TIP3    H1 4260   3.614   3.054   0.432
 1418TIP3    H2 4261   3.710   2.954   0.493
 1419TIP3   OH2 4262   4.719   4.552   2.594
 1419TIP3    H1 4263   4.759   4.476   2.637
 1419TIP3    H2 4264   4.794   4.605   2.565
 1420TIP3   OH2 4265   4.964   0.108   1.506
 1420TIP3    H1 4266   5.032   0.113   1.574
 1420TIP3    H2 4267   4.920   0.193   1.510
 1421TIP3   OH2 4268   4.946   1.755   1.236
 1421TIP3    H1 4269   5.005   1.763   1.311
 1421TIP3    H2 4270   4.861   1.735   1.274
 1422TIP3   OH2 4271   0.771   0.059   2.223
 1422TIP3    H1 4272   0.842   0.118   2.198
 1422TIP3    H2 4273   0.815  -0.017   2.261
 1423TIP3   OH2 4274   3.378   5.337   1.349
 1423TIP3    H1 4275   3.397   5.315   1.257
 1423TIP3    H2 4276   3.405   5.260   1.398
 1424TIP3   OH2 4277   4.280   4.057   0.077
 1424TIP3    H1 4278   4.316   4.021  -0.004
 1424TIP3    H2 4279   4.282   3.983   0.138
 1425TIP3   OH2 4280   0.686   2.731   1.525
 1425TIP3    H1 4281   0.645   2.682   1.596
 1425TIP3    H2 4282   0.774   2.695   1.518
 1426TIP3   OH2 4283   1.254   1.189   3.098
 1426TIP3    H1 4284   1.290   1.173   3.011
 1426TIP3    H2 4285   1.261   1.105   3.143
 1427TIP3   OH2 4286   3.831   2.110   2.466
 1427TIP3    H1 4287   3.845   2.037   2.406
 1427TIP3    H2 4288   3.803   2.182   2.409
 1428TIP3   OH2 4289   4.806   4.961   3.157
 1428TIP3    H1 4290   4.759   4.977   3.239
 1428TIP3    H2 4291   4.761   4.887   3.117
 1429TIP3   OH2 4292   2.978   3.259   3.980
 1429TIP3    H1 4293   3.017   3.172   3.968
 1429TIP3    H2 4294   2.928   3.273   3.900
 1430TIP3   OH2 4295   4.133   3.135   1.947
 1430TIP3    H1 4296   4.193   3.061   1.939
 1430TIP3    H2 4297   4.103   3.132   2.038
 1431TIP3   OH2 4298   4.780   5.123   4.837
 1431TIP3    H1 4299   4.792   5.214   4.866
 1431TIP3    H2 4300   4.761   5.075   4.918
 1432TIP3   OH2 4301   0.009   2.489   3.644
 1432TIP3    H1 4302   0.028   2.449   3.728
 1432TIP3    H2 4303   0.037   2.580   3.653
 1433TIP3   OH2 4304   0.707   5.344   1.510
 1433TIP3    H1 4305   0.753   5.425   1.530
 1433TIP3    H2 4306   0.632   5.372   1.457
 1434TIP3   OH2 4307   2.148   0.267   4.322
 1434TIP3    H1 4308   2.101   0.183   4.323
 1434TIP3    H2 4309   2.185   0.275   4.410
 1435TIP3   OH2 4310   4.613   0.590   2.071
 1435TIP3    H1 4311   4.563   0.550   2.000
 1435TIP3    H2 4312   4.548   0.616   2.135
 1436TIP3   OH2 4313   0.599   3.234   2.612
 1436TIP3    H1 4314   0.565   3.189   2.534
 1436TIP3    H2 4315   0.544   3.202   2.683
 1437TIP3   OH2 4316   4.040   3.375   0.252
 1437TIP3    H1 4317   4.071   3.429   0.324
 1437TIP3    H2 4318   3.998   3.300   0.294
 1438TIP3   OH2 4319   5.222   4.763   2.542
 1438TIP3    H1 4320   5.293   4.709   2.508
 1438TIP3    H2 4321   5.235   4.763   2.637
 1439TIP3   OH2 4322   4.335   0.579   3.094
 1439TIP3    H1 4323   4.419   0.618   3.072
 1439TIP3    H2 4324   4.289   0.573   3.010
 1440TIP3   OH2 4325   3.403   4.395   1.236
 1440TIP3    H1 4326   3.426   4.383   1.329
 1440TIP3    H2 4327   3.458   4.468   1.207
 1441TIP3   OH2 4328   2.722   4.293   2.129
 1441TIP3    H1 4329   2.817   4.302   2.127
 1441TIP3    H2 4330   2.699   4.294   2.222
 1442TIP3   OH2 4331   1.989   4.895   4.619
 1442TIP3    H1 4332   1.924   4.885   4.688
 1442TIP3    H2 4333   2.053   4.825   4.635
 1443TIP3   OH2 4334   2.718   4.457   0.752
 1443TIP3    H1 4335   2.682   4.544   0.768
 1443TIP3    H2 4336   2.786   4.471   0.686
 1444TIP3   OH2 4337   5.077   0.049   1.742
 1444TIP3    H1 4338   5.057   0.114   1.810
 1444TIP3    H2 4339   5.007  -0.015   1.749
 1445TIP3   OH2 4340   3.164   4.057   1.683
 1445TIP3    H1 4341   3.175   4.097   1.597
 1445TIP3    H2 4342   3.251   4.060   1.723
 1446TIP3   OH2 4343   3.089   2.472   2.531
 1446TIP3    H1 4344   3.061   2.433   2.614
 1446TIP3    H2 4345   3.022   2.444   2.468
 1447TIP3   OH2 4346   2.317   4.448   4.495
 1447TIP3    H1 4347   2.235   4.404   4.518
 1447TIP3    H2 4348   2.291   4.533   4.461
 1448TIP3   OH2 4349   1.404   5.882   1.709
 1448TIP3    H1 4350   1.389   5.787   1.703
 1448TIP3    H2 4351   1.404   5.900   1.803
 1449TIP3   OH2 4352   4.493   2.304   4.172
 1449TIP3    H1 4353   4.436   2.287   4.247
 1449TIP3    H2 4354   4.439   2.283   4.095
 1450TIP3   OH2 4355   1.385   3.539   0.792
 1450TIP3    H1 4356   1.290   3.535   0.781
 1450TIP3    H2 4357   1.406   3.457   0.837
 1451TIP3   OH2 4358   4.785   2.274   1.431
 1451TIP3    H1 4359   4.738   2.302   1.352
 1451TIP3    H2 4360   4.794   2.354   1.483
 1452TIP3   OH2 4361   0.195   5.407   3.054
 1452TIP3    H1 4362   0.210   5.501   3.065
 1452TIP3    H2 4363   0.273   5.366   3.092
 1453TIP3   OH2 4364   1.551   5.142   2.300
 1453TIP3    H1 4365   1.514   5.104   2.380
 1453TIP3    H2 4366   1.506   5.226   2.290
 1454TIP3   OH2 4367   2.544   5.114   1.817
 1454TIP3    H1 4368   2.592   5.151   1.892
 1454TIP3    H2 4369   2.457   5.094   1.852
 1455TIP3   OH2 4370   2.906   2.612   1.673
 1455TIP3    H1 4371   2.994   2.587   1.701
 1455TIP3    H2 4372   2.895   2.701   1.707
 1456TIP3   OH2 4373   1.780   4.057   4.579
 1456TIP3    H1 4374   1.796   4.140   4.624
 1456TIP3    H2 4375   1.706   4.075   4.521
 1457TIP3   OH2 4376   1.571   3.825   1.669
 1457TIP3    H1 4377   1.507   3.757   1.646
 1457TIP3    H2 4378   1.524   3.882   1.729
 1458TIP3   OH2 4379   5.175   4.785   1.842
 1458TIP3    H1 4380   5.249   4.842   1.824
 1458TIP3    H2 4381   5.130   4.777   1.758
 1459TIP3   OH2 4382   4.675   5.091   4.021
 1459TIP3    H1 4383   4.603   5.059   3.967
 1459TIP3    H2 4384   4.681   5.030   4.093
 1460TIP3   OH2 4385   4.454   5.842   1.074
 1460TIP3    H1 4386   4.464   5.927   1.117
 1460TIP3    H2 4387   4.462   5.778   1.145
 1461TIP3   OH2 4388   6.285   1.593   0.680
 1461TIP3    H1 4389   6.358   1.532   0.668
 1461TIP3    H2 4390   6.282   1.643   0.598
 1462TIP3   OH2 4391   5.270   3.140   4.850
 1462TIP3    H1 4392   5.245   3.052   4.820
 1462TIP3    H2 4393   5.269   3.193   4.771
 1463TIP3   OH2 4394   2.823   2.560   4.935
 1463TIP3    H1 4395   2.866   2.623   4.877
 1463TIP3    H2 4396   2.788   2.613   5.007
 1464TIP3   OH2 4397   3.045   0.957   2.031
 1464TIP3    H1 4398   3.080   0.868   2.030
 1464TIP3    H2 4399   3.096   1.002   2.099
 1465TIP3   OH2 4400   4.440   2.767   1.161
 1465TIP3    H1 4401   4.381   2.692   1.158
 1465TIP3    H2 4402   4.523   2.731   1.194
 1466TIP3   OH2 4403   5.460   3.360   1.773
 1466TIP3    H1 4404   5.383   3.416   1.786
 1466TIP3    H2 4405   5.525   3.393   1.835
 1467TIP3   OH2 4406   2.852   1.755   1.378
 1467TIP3    H1 4407   2.818   1.830   1.331
 1467TIP3    H2 4408   2.797   1.748   1.456
 1468TIP3   OH2 4409   1.414   4.034   2.615
 1468TIP3    H1 4410   1.431   3.958   2.671
 1468TIP3    H2 4411   1.498   4.053   2.573
 1469TIP3   OH2 4412   3.859   2.345   4.105
 1469TIP3    H1 4413   3.851   2.259   4.146
 1469TIP3    H2 4414   3.769   2.373   4.088
 1470TIP3   OH2 4415   2.707   4.688   1.006
 1470TIP3    H1 4416   2.716   4.651   1.094
 1470TIP3    H2 4417   2.791   4.732   0.989
 1471TIP3   OH2 4418   4.184   2.990   5.127
 1471TIP3    H1 4419   4.089   2.985   5.135
 1471TIP3    H2 4420   4.216   2.991   5.217
 1472TIP3   OH2 4421   5.271   5.771   1.796
 1472TIP3    H1 4422   5.193   5.822   1.772
 1472TIP3    H2 4423   5.316   5.826   1.860
 1473TIP3   OH2 4424   2.321   2.346   1.498
 1473TIP3    H1 4425   2.307   2.251   1.494
 1473TIP3    H2 4426   2.350   2.370   1.410
 1474TIP3   OH2 4427   1.828   0.748   2.058
 1474TIP3    H1 4428   1.891   0.676   2.053
 1474TIP3    H2 4429   1.850   0.794   2.139
 1475TIP3   OH2 4430   2.830   3.105   3.728
 1475TIP3    H1 4431   2.788   3.057   3.656
 1475TIP3    H2 4432   2.922   3.079   3.723
 1476TIP3   OH2 4433   4.520   1.737   0.766
 1476TIP3    H1 4434   4.438   1.757   0.721
 1476TIP3    H2 4435   4.555   1.822   0.791
 1477TIP3   OH2 4436   0.480   1.876   1.300
 1477TIP3    H1 4437   0.394   1.870   1.342
 1477TIP3    H2 4438   0.509   1.965   1.316
 1478TIP3   OH2 4439   2.678   3.122   1.738
 1478TIP3    H1 4440   2.656   3.205   1.781
 1478TIP3    H2 4441   2.695   3.146   1.647
 1479TIP3   OH2 4442   3.932   0.645   2.869
 1479TIP3    H1 4443   3.891   0.581   2.928
 1479TIP3    H2 4444   3.879   0.640   2.789
 1480TIP3   OH2 4445   4.795   2.466   2.294
 1480TIP3    H1 4446   4.788   2.370   2.295
 1480TIP3    H2 4447   4.794   2.489   2.201
 1481TIP3   OH2 4448   4.417   2.094   2.567
 1481TIP3    H1 4449   4.402   2.155   2.494
 1481TIP3    H2 4450   4.344   2.110   2.627
 1482TIP3   OH2 4451   2.895   2.517   3.879
 1482TIP3    H1 4452   2.956   2.547   3.946
 1482TIP3    H2 4453   2.921   2.565   3.800
 1483TIP3   OH2 4454   2.784   1.515   3.513
 1483TIP3    H1 4455   2.832   1.579   3.566
 1483TIP3    H2 4456   2.848   1.487   3.447
 1484TIP3   OH2 4457   3.413   0.749   2.495
 1484TIP3    H1 4458   3.327   0.713   2.472
 1484TIP3    H2 4459   3.422   0.732   2.589
 1485TIP3   OH2 4460   1.364   2.976   3.531
 1485TIP3    H1 4461   1.304   2.959   3.458
 1485TIP3    H2 4462   1.412   3.054   3.506
 1486TIP3   OH2 4463   1.232   1.035   4.733
 1486TIP3    H1 4464   1.320   0.998   4.733
 1486TIP3    H2 4465   1.245   1.129   4.749
 1487TIP3   OH2 4466   2.636   1.605   3.921
 1487TIP3    H1 4467   2.713   1.644   3.963
 1487TIP3    H2 4468   2.618   1.526   3.972
 1488TIP3   OH2 4469   5.034   2.999   4.741
 1488TIP3    H1 4470   4.979   3.074   4.763
 1488TIP3    H2 4471   5.027   2.991   4.645
 1489TIP3   OH2 4472   2.753   0.423   1.824
 1489TIP3    H1 4473   2.782   0.370   1.749
 1489TIP3    H2 4474   2.661   0.401   1.834
 1490TIP3   OH2 4475   5.393   0.797   3.911
 1490TIP3    H1 4476   5.348   0.826   3.990
 1490TIP3    H2 4477   5.348   0.843   3.840
 1491TIP3   OH2 4478   0.664   4.553   1.136
 1491TIP3    H1 4479   0.602   4.617   1.100
 1491TIP3    H2 4480   0.750   4.583   1.106
 1492TIP3   OH2 4481   2.565   4.900   3.499
 1492TIP3    H1 4482   2.567   4.878   3.592
 1492TIP3    H2 4483   2.474   4.882   3.473
 1493TIP3   OH2 4484   3.680   3.511   2.199
 1493TIP3    H1 4485   3.770   3.536   2.179
 1493TIP3    H2 4486   3.687   3.460   2.280
 1494TIP3   OH2 4487   5.773   3.260   0.068
 1494TIP3    H1 4488   5.693   3.209   0.077
 1494TIP3    H2 4489   5.840   3.197   0.041
 1495TIP3   OH2 4490   0.606   5.402   2.613
 1495TIP3    H1 4491   0.700   5.393   2.629
 1495TIP3    H2 4492   0.599   5.420   2.519
 1496TIP3   OH2 4493   3.358   1.727   4.493
 1496TIP3    H1 4494   3.448   1.697   4.501
 1496TIP3    H2 4495   3.307   1.646   4.486
 1497TIP3   OH2 4496   0.543   0.109   1.730
 1497TIP3    H1 4497   0.549   0.204   1.719
 1497TIP3    H2 4498   0.449   0.091   1.727
 1498TIP3   OH2 4499   1.025   3.614   3.371
 1498TIP3    H1 4500   0.931   3.596   3.374
 1498TIP3    H2 4501   1.042   3.667   3.449
 1499TIP3   OH2 4502   5.801   2.140   0.190
 1499TIP3    H1 4503   5.823   2.081   0.263
 1499TIP3    H2 4504   5.731   2.095   0.144
 1500TIP3   OH2 4505   4.379   3.619   5.009
 1500TIP3    H1 4506   4.385   3.531   4.972
 1500TIP3    H2 4507   4.467   3.636   5.044
 1501TIP3   OH2 4508   2.928   1.264   1.643
 1501TIP3    H1 4509   2.944   1.240   1.552
 1501TIP3    H2 4510   2.970   1.195   1.694
 1502TIP3   OH2 4511   5.324   4.735   4.162
 1502TIP3    H1 4512   5.235   4.701   4.158
 1502TIP3    H2 4513   5.369   4.694   4.088
 1503TIP3   OH2 4514   2.028   5.289   3.609
 1503TIP3    H1 4515   1.965   5.332   3.551
 1503TIP3    H2 4516   2.093   5.252   3.549
 1504TIP3   OH2 4517   3.117   4.390   4.423
 1504TIP3    H1 4518   3.057   4.417   4.493
 1504TIP3    H2 4519   3.061   4.378   4.346
 1505TIP3   OH2 4520   4.618   2.367   2.550
 1505TIP3    H1 4521   4.629   2.287   2.498
 1505TIP3    H2 4522   4.598   2.435   2.485
 1506TIP3   OH2 4523   5.978   0.105   1.436
 1506TIP3    H1 4524   5.958   0.161   1.361
 1506TIP3    H2 4525   5.950   0.017   1.409
 1507TIP3   OH2 4526   3.670   2.708   0.305
 1507TIP3    H1 4527   3.633   2.785   0.346
 1507TIP3    H2 4528   3.754   2.694   0.349
 1508TIP3   OH2 4529   1.896   0.275   0.941
 1508TIP3    H1 4530   1.910   0.185   0.970
 1508TIP3    H2 4531   1.803   0.291   0.957
 1509TIP3   OH2 4532   5.916   4.204   5.100
 1509TIP3    H1 4533   5.995   4.250   5.127
 1509TIP3    H2 4534   5.941   4.160   5.018
 1510TIP3   OH2 4535   3.330   2.810   5.125
 1510TIP3    H1 4536   3.418   2.825   5.090
 1510TIP3    H2 4537   3.274   2.808   5.048
 1511TIP3   OH2 4538   6.231   4.358   4.900
 1511TIP3    H1 4539   6.157   4.297   4.893
 1511TIP3    H2 4540   6.249   4.362   4.994
 1512TIP3   OH2 4541   3.791   4.045   3.313
 1512TIP3    H1 4542   3.721   3.980   3.305
 1512TIP3    H2 4543   3.753   4.125   3.275
 1513TIP3   OH2 4544   4.220   1.228   3.647
 1513TIP3    H1 4545   4.215   1.149   3.593
 1513TIP3    H2 4546   4.195   1.299   3.587
 1514TIP3   OH2 4547   4.426   1.389   1.233
 1514TIP3    H1 4548   4.412   1.344   1.149
 1514TIP3    H2 4549   4.398   1.326   1.299
 1515TIP3   OH2 4550   4.319   3.933   0.742
 1515TIP3    H1 4551   4.266   4.007   0.713
 1515TIP3    H2 4552   4.344   3.955   0.832
 1516TIP3   OH2 4553   3.611   2.980   2.284
 1516TIP3    H1 4554   3.599   3.018   2.371
 1516TIP3    H2 4555   3.623   2.886   2.300
 1517TIP3   OH2 4556   3.007   4.342   1.849
 1517TIP3    H1 4557   3.098   4.361   1.871
 1517TIP3    H2 4558   2.958   4.417   1.884
 1518TIP3   OH2 4559   2.638   1.114   0.226
 1518TIP3    H1 4560   2.699   1.092   0.156
 1518TIP3    H2 4561   2.674   1.195   0.264
 1519TIP3   OH2 4562   5.133   1.463   2.453
 1519TIP3    H1 4563   5.083   1.441   2.532
 1519TIP3    H2 4564   5.067   1.496   2.392
 1520TIP3   OH2 4565   2.642   4.689   4.652
 1520TIP3    H1 4566   2.618   4.676   4.561
 1520TIP3    H2 4567   2.711   4.626   4.668
 1521TIP3   OH2 4568   5.460   1.440   1.711
 1521TIP3    H1 4569   5.407   1.489   1.774
 1521TIP3    H2 4570   5.400   1.420   1.639
 1522TIP3   OH2 4571   0.503   3.481   2.866
 1522TIP3    H1 4572   0.514   3.398   2.912
 1522TIP3    H2 4573   0.534   3.547   2.928
 1523TIP3   OH2 4574   0.099   2.309   3.263
 1523TIP3    H1 4575   0.050   2.239   3.219
 1523TIP3    H2 4576   0.053   2.322   3.346
 1524TIP3   OH2 4577   0.541   3.573   0.526
 1524TIP3    H1 4578   0.625   3.609   0.554
 1524TIP3    H2 4579   0.510   3.634   0.459
 1525TIP3   OH2 4580   3.939   2.774   3.747
 1525TIP3    H1 4581   3.899   2.833   3.683
 1525TIP3    H2 4582   4.015   2.738   3.702
 1526TIP3   OH2 4583   4.992   2.941   5.191
 1526TIP3    H1 4584   4.924   2.976   5.249
 1526TIP3    H2 4585   4.984   2.992   5.110
 1527TIP3   OH2 4586   3.069   0.978   0.733
 1527TIP3    H1 4587   3.015   0.928   0.672
 1527TIP3    H2 4588   3.029   1.065   0.735
 1528TIP3   OH2 4589   1.396   1.769   1.615
 1528TIP3    H1 4590   1.373   1.773   1.708
 1528TIP3    H2 4591   1.359   1.849   1.578
 1529TIP3   OH2 4592   2.638   4.527   3.698
 1529TIP3    H1 4593   2.623   4.563   3.611
 1529TIP3    H2 4594   2.583   4.449   3.701
 1530TIP3   OH2 4595   3.875   1.575   0.566
 1530TIP3    H1 4596   3.857   1.629   0.489
 1530TIP3    H2 4597   3.806   1.598   0.628
 1531TIP3   OH2 4598   4.032   0.173   4.218
 1531TIP3    H1 4599   4.062   0.104   4.159
 1531TIP3    H2 4600   4.089   0.166   4.295
 1532TIP3   OH2 4601   6.344   0.291   3.996
 1532TIP3    H1 4602   6.395   0.353   4.049
 1532TIP3    H2 4603   6.282   0.346   3.949
 1533TIP3   OH2 4604   4.546   4.423   2.943
 1533TIP3    H1 4605   4.522   4.497   2.887
 1533TIP3    H2 4606   4.631   4.394   2.908
 1534TIP3   OH2 4607   0.626   0.241   3.838
 1534TIP3    H1 4608   0.665   0.157   3.815
 1534TIP3    H2 4609   0.547   0.219   3.887
 1535TIP3   OH2 4610   5.018   2.532   5.031
 1535TIP3    H1 4611   5.092   2.480   5.003
 1535TIP3    H2 4612   5.025   2.614   4.982
 1536TIP3   OH2 4613   6.043   1.377   0.654
 1536TIP3    H1 4614   6.134   1.347   0.656
 1536TIP3    H2 4615   6.048   1.469   0.681
 1537TIP3   OH2 4616   5.983   1.980   4.958
 1537TIP3    H1 4617   5.943   2.030   4.886
 1537TIP3    H2 4618   5.912   1.925   4.991
 1538TIP3   OH2 4619   0.350   0.971   0.300
 1538TIP3    H1 4620   0.282   0.904   0.311
 1538TIP3    H2 4621   0.418   0.947   0.363
 1539TIP3   OH2 4622   5.686   1.884   2.652
 1539TIP3    H1 4623   5.747   1.942   2.605
 1539TIP3    H2 4624   5.732   1.861   2.732
 1540TIP3   OH2 4625   5.148   4.223   0.308
 1540TIP3    H1 4626   5.107   4.180   0.383
 1540TIP3    H2 4627   5.192   4.152   0.261
 1541TIP3   OH2 4628   5.545   5.336   3.027
 1541TIP3    H1 4629   5.633   5.313   2.997
 1541TIP3    H2 4630   5.513   5.258   3.073
 1542TIP3   OH2 4631   4.414   3.401   4.191
 1542TIP3    H1 4632   4.339   3.347   4.166
 1542TIP3    H2 4633   4.482   3.377   4.127
 1543TIP3   OH2 4634   5.164   4.158   1.035
 1543TIP3    H1 4635   5.091   4.199   1.079
 1543TIP3    H2 4636   5.241   4.204   1.067
 1544TIP3   OH2 4637   0.773   4.451   2.312
 1544TIP3    H1 4638   0.812   4.366   2.330
 1544TIP3    H2 4639   0.718   4.469   2.389
 1545TIP3   OH2 4640   0.707   1.861   5.008
 1545TIP3    H1 4641   0.741   1.860   5.098
 1545TIP3    H2 4642   0.784   1.848   4.953
 1546TIP3   OH2 4643   1.650   3.250   1.487
 1546TIP3    H1 4644   1.695   3.307   1.424
 1546TIP3    H2 4645   1.668   3.161   1.457
 1547TIP3   OH2 4646   4.427   1.356   0.452
 1547TIP3    H1 4647   4.489   1.365   0.524
 1547TIP3    H2 4648   4.420   1.444   0.415
 1548TIP3   OH2 4649   5.460   5.125   1.533
 1548TIP3    H1 4650   5.460   5.131   1.438
 1548TIP3    H2 4651   5.492   5.210   1.562
 1549TIP3   OH2 4652   4.584   3.185   1.372
 1549TIP3    H1 4653   4.501   3.141   1.392
 1549TIP3    H2 4654   4.584   3.262   1.427
 1550TIP3   OH2 4655   4.213   3.705   3.402
 1550TIP3    H1 4656   4.193   3.614   3.380
 1550TIP3    H2 4657   4.185   3.755   3.325
 1551TIP3   OH2 4658   1.485   0.210   1.764
 1551TIP3    H1 4659   1.408   0.190   1.817
 1551TIP3    H2 4660   1.485   0.305   1.757
 1552TIP3   OH2 4661   3.966   3.082   0.325
 1552TIP3    H1 4662   3.922   3.039   0.398
 1552TIP3    H2 4663   3.895   3.115   0.270
 1553TIP3   OH2 4664   4.681   5.152   2.938
 1553TIP3    H1 4665   4.677   5.235   2.986
 1553TIP3    H2 4666   4.758   5.161   2.881
 1554TIP3   OH2 4667   5.445   2.701   0.250
 1554TIP3    H1 4668   5.367   2.667   0.294
 1554TIP3    H2 4669   5.495   2.623   0.226
 1555TIP3   OH2 4670   4.147   4.852   0.232
 1555TIP3    H1 4671   4.118   4.766   0.200
 1555TIP3    H2 4672   4.066   4.895   0.260
 1556TIP3   OH2 4673   1.883   0.618   4.113
 1556TIP3    H1 4674   1.795   0.583   4.101
 1556TIP3    H2 4675   1.939   0.540   4.117
 1557TIP3   OH2 4676   0.016   0.881   2.143
 1557TIP3    H1 4677   0.060   0.920   2.067
 1557TIP3    H2 4678   0.063   0.798   2.157
 1558TIP3   OH2 4679   0.058   2.245   0.580
 1558TIP3    H1 4680   0.100   2.312   0.634
 1558TIP3    H2 4681   0.051   2.169   0.638
 1559TIP3   OH2 4682   2.212   4.460   1.126
 1559TIP3    H1 4683   2.125   4.498   1.132
 1559TIP3    H2 4684   2.203   4.372   1.162
 1560TIP3   OH2 4685   5.116   1.918   4.568
 1560TIP3    H1 4686   5.105   1.851   4.500
 1560TIP3    H2 4687   5.092   1.872   4.649
 1561TIP3   OH2 4688   4.211   0.696   4.777
 1561TIP3    H1 4689   4.182   0.645   4.852
 1561TIP3    H2 4690   4.213   0.633   4.704
 1562TIP3   OH2 4691   1.973   0.145   1.221
 1562TIP3    H1 4692   1.985   0.068   1.166
 1562TIP3    H2 4693   2.035   0.132   1.293
 1563TIP3   OH2 4694   2.429   0.244   2.720
 1563TIP3    H1 4695   2.412   0.313   2.657
 1563TIP3    H2 4696   2.514   0.267   2.758
 1564TIP3   OH2 4697   5.161   0.292   3.082
 1564TIP3    H1 4698   5.224   0.359   3.053
 1564TIP3    H2 4699   5.165   0.224   3.015
 1565TIP3   OH2 4700   0.362   2.430   3.299
 1565TIP3    H1 4701   0.282   2.381   3.282
 1565TIP3    H2 4702   0.432   2.373   3.269
 1566TIP3   OH2 4703   1.074   4.015   4.400
 1566TIP3    H1 4704   1.089   4.100   4.441
 1566TIP3    H2 4705   1.099   3.951   4.466
 1567TIP3   OH2 4706   2.222   2.046   0.826
 1567TIP3    H1 4707   2.182   2.092   0.752
 1567TIP3    H2 4708   2.166   2.066   0.901
 1568TIP3   OH2 4709   4.002   3.884   1.073
 1568TIP3    H1 4710   4.036   3.966   1.109
 1568TIP3    H2 4711   4.043   3.816   1.128
 1569TIP3   OH2 4712   3.014   3.845   2.806
 1569TIP3    H1 4713   2.970   3.906   2.865
 1569TIP3    H2 4714   3.051   3.900   2.738
 1570TIP3   OH2 4715   1.223   3.377   3.295
 1570TIP3    H1 4716   1.169   3.444   3.254
 1570TIP3    H2 4717   1.196   3.378   3.387
 1571TIP3   OH2 4718   3.575   0.146   3.022
 1571TIP3    H1 4719   3.644   0.147   3.088
 1571TIP3    H2 4720   3.520   0.071   3.046
 1572TIP3   OH2 4721   1.108   4.492   1.448
 1572TIP3    H1 4722   1.185   4.478   1.393
 1572TIP3    H2 4723   1.040   4.438   1.408
 1573TIP3   OH2 4724   0.548   0.318   0.288
 1573TIP3    H1 4725   0.615   0.269   0.240
 1573TIP3    H2 4726   0.473   0.319   0.229
 1574TIP3   OH2 4727   4.742   4.669   0.352
 1574TIP3    H1 4728   4.812   4.709   0.300
 1574TIP3    H2 4729   4.709   4.598   0.298
 1575TIP3   OH2 4730   3.067   0.527   5.168
 1575TIP3    H1 4731   3.152   0.551   5.131
 1575TIP3    H2 4732   3.020   0.609   5.175
 1576TIP3   OH2 4733   2.972   1.629   0.102
 1576TIP3    H1 4734   2.901   1.628   0.039
 1576TIP3    H2 4735   3.005   1.719   0.100
 1577TIP3   OH2 4736   3.278   1.872   1.694
 1577TIP3    H1 4737   3.253   1.852   1.784
 1577TIP3    H2 4738   3.197   1.861   1.644
 1578TIP3   OH2 4739   2.250   3.735   2.376
 1578TIP3    H1 4740   2.321   3.795   2.400
 1578TIP3    H2 4741   2.171   3.777   2.410
 1579TIP3   OH2 4742   5.818   3.083   1.274
 1579TIP3    H1 4743   5.898   3.102   1.224
 1579TIP3    H2 4744   5.838   3.002   1.321
 1580TIP3   OH2 4745   6.087   2.438   0.070
 1580TIP3    H1 4746   6.165   2.487   0.097
 1580TIP3    H2 4747   6.118   2.375   0.006
 1581TIP3   OH2 4748   2.881   5.355   4.470
 1581TIP3    H1 4749   2.853   5.370   4.560
 1581TIP3    H2 4750   2.837   5.422   4.418
 1582TIP3   OH2 4751   0.254   0.281   0.636
 1582TIP3    H1 4752   0.308   0.204   0.651
 1582TIP3    H2 4753   0.305   0.335   0.576
 1583TIP3   OH2 4754   2.935   4.872   4.621
 1583TIP3    H1 4755   2.916   4.780   4.639
 1583TIP3    H2 4756   2.992   4.870   4.544
 1584TIP3   OH2 4757   1.756   1.776   3.147
 1584TIP3    H1 4758   1.683   1.823   3.107
 1584TIP3    H2 4759   1.767   1.818   3.233
 1585TIP3   OH2 4760   5.661   2.648   1.990
 1585TIP3    H1 4761   5.647   2.557   2.018
 1585TIP3    H2 4762   5.710   2.641   1.908
 1586TIP3   OH2 4763   3.297   1.553   1.661
 1586TIP3    H1 4764   3.326   1.625   1.603
 1586TIP3    H2 4765   3.202   1.554   1.655
 1587TIP3   OH2 4766   0.375   1.372   2.416
 1587TIP3    H1 4767   0.341   1.429   2.485
 1587TIP3    H2 4768   0.323   1.393   2.339
 1588TIP3   OH2 4769   3.875   3.985   4.578
 1588TIP3    H1 4770   3.882   4.061   4.522
 1588TIP3    H2 4771   3.805   3.932   4.539
 1589TIP3   OH2 4772   3.732   2.842   3.589
 1589TIP3    H1 4773   3.726   2.753   3.622
 1589TIP3    H2 4774   3.732   2.832   3.493
 1590TIP3   OH2 4775   5.739   1.268   2.187
 1590TIP3    H1 4776   5.715   1.319   2.110
 1590TIP3    H2 4777   5.829   1.241   2.171
 1591TIP3   OH2 4778   5.381   0.441   2.319
 1591TIP3    H1 4779   5.316   0.458   2.250
 1591TIP3    H2 4780   5.457   0.494   2.293
 1592TIP3   OH2 4781   1.802   1.788   4.222
 1592TIP3    H1 4782   1.874   1.751   4.171
 1592TIP3    H2 4783   1.745   1.828   4.156
 1593TIP3   OH2 4784   2.559   1.395   2.092
 1593TIP3    H1 4785   2.465   1.406   2.079
 1593TIP3    H2 4786   2.580   1.313   2.047
 1594TIP3   OH2 4787   1.665   5.850   0.604
 1594TIP3    H1 4788   1.751   5.873   0.640
 1594TIP3    H2 4789   1.608   5.923   0.629
 1595TIP3   OH2 4790   1.998   4.960   1.130
 1595TIP3    H1 4791   1.974   5.006   1.049
 1595TIP3    H2 4792   2.079   5.002   1.157
 1596TIP3   OH2 4793   2.293   3.996   4.130
 1596TIP3    H1 4794   2.222   3.951   4.176
 1596TIP3    H2 4795   2.328   3.931   4.070
 1597TIP3   OH2 4796   4.302   5.847   5.030
 1597TIP3    H1 4797   4.211   5.821   5.015
 1597TIP3    H2 4798   4.298   5.905   5.105
 1598TIP3   OH2 4799   3.125   5.661   2.707
 1598TIP3    H1 4800   3.099   5.713   2.783
 1598TIP3    H2 4801   3.121   5.570   2.737
 1599TIP3   OH2 4802   3.829   4.491   3.665
 1599TIP3    H1 4803   3.829   4.451   3.752
 1599TIP3    H2 4804   3.804   4.582   3.680
 1600TIP3   OH2 4805   4.733   1.359   5.082
 1600TIP3    H1 4806   4.662   1.342   5.143
 1600TIP3    H2 4807   4.812   1.360   5.136
 1601TIP3   OH2 4808   0.237   4.995   3.942
 1601TIP3    H1 4809   0.292   5.029   3.872
 1601TIP3    H2 4810   0.154   4.974   3.899
 1602TIP3   OH2 4811   2.737   4.555   2.750
 1602TIP3    H1 4812   2.805   4.622   2.746
 1602TIP3    H2 4813   2.779   4.481   2.795
 1603TIP3   OH2 4814   1.401   3.184   4.998
 1603TIP3    H1 4815   1.428   3.115   4.937
 1603TIP3    H2 4816   1.434   3.265   4.958
 1604TIP3   OH2 4817   5.558   1.906   0.445
 1604TIP3    H1 4818   5.555   1.842   0.374
 1604TIP3    H2 4819   5.634   1.961   0.425
 1605TIP3   OH2 4820   5.525   2.847   1.500
 1605TIP3    H1 4821   5.463   2.900   1.551
 1605TIP3    H2 4822   5.606   2.897   1.502
 1606TIP3   OH2 4823   5.356   4.660   0.291
 1606TIP3    H1 4824   5.300   4.712   0.233
 1606TIP3    H2 4825   5.294   4.608   0.342
 1607TIP3   OH2 4826   0.132   3.921   1.947
 1607TIP3    H1 4827   0.063   3.863   1.979
 1607TIP3    H2 4828   0.092   3.967   1.873
 1608TIP3   OH2 4829   0.455   5.061   2.965
 1608TIP3    H1 4830   0.536   5.101   2.933
 1608TIP3    H2 4831   0.399   5.056   2.888
 1609TIP3   OH2 4832   0.321   0.042   5.044
 1609TIP3    H1 4833   0.251   0.106   5.058
 1609TIP3    H2 4834   0.280  -0.027   4.992
 1610TIP3   OH2 4835   0.813   0.170   2.552
 1610TIP3    H1 4836   0.855   0.166   2.466
 1610TIP3    H2 4837   0.882   0.150   2.614
 1611TIP3   OH2 4838   0.302   0.349   1.034
 1611TIP3    H1 4839   0.279   0.393   0.952
 1611TIP3    H2 4840   0.243   0.386   1.099
 1612TIP3   OH2 4841   2.986   5.911   0.527
 1612TIP3    H1 4842   2.917   5.876   0.471
 1612TIP3    H2 4843   2.982   5.858   0.607
 1613TIP3   OH2 4844   0.293   3.399   4.609
 1613TIP3    H1 4845   0.269   3.489   4.631
 1613TIP3    H2 4846   0.270   3.348   4.686
 1614TIP3   OH2 4847   0.490   5.803   2.354
 1614TIP3    H1 4848   0.564   5.856   2.385
 1614TIP3    H2 4849   0.501   5.719   2.399
 1615TIP3   OH2 4850   5.906   0.208   3.864
 1615TIP3    H1 4851   5.917   0.301   3.844
 1615TIP3    H2 4852   5.972   0.164   3.811
 1616TIP3   OH2 4853   2.759   5.003   0.633
 1616TIP3    H1 4854   2.846   4.981   0.600
 1616TIP3    H2 4855   2.709   4.921   0.625
 1617TIP3   OH2 4856   3.143   0.984   1.362
 1617TIP3    H1 4857   3.060   1.031   1.372
 1617TIP3    H2 4858   3.199   1.019   1.432
 1618TIP3   OH2 4859   2.025   1.244   2.655
 1618TIP3    H1 4860   1.978   1.198   2.725
 1618TIP3    H2 4861   2.017   1.336   2.677
 1619TIP3   OH2 4862   0.715   5.507   2.312
 1619TIP3    H1 4863   0.777   5.521   2.241
 1619TIP3    H2 4864   0.634   5.478   2.268
 1620TIP3   OH2 4865   5.559   0.808   3.268
 1620TIP3    H1 4866   5.556   0.753   3.190
 1620TIP3    H2 4867   5.474   0.852   3.270
 1621TIP3   OH2 4868   1.017   1.334   2.862
 1621TIP3    H1 4869   0.966   1.414   2.852
 1621TIP3    H2 4870   0.981   1.292   2.940
 1622TIP3   OH2 4871   3.892   3.031   0.937
 1622TIP3    H1 4872   3.809   3.016   0.984
 1622TIP3    H2 4873   3.919   3.119   0.964
 1623TIP3   OH2 4874   6.024   1.028   3.596
 1623TIP3    H1 4875   6.095   1.023   3.532
 1623TIP3    H2 4876   5.981   1.111   3.577
 1624TIP3   OH2 4877   3.770   3.188   0.184
 1624TIP3    H1 4878   3.690   3.210   0.231
 1624TIP3    H2 4879   3.757   3.226   0.096
 1625TIP3   OH2 4880   5.465   2.514   4.401
 1625TIP3    H1 4881   5.460   2.547   4.311
 1625TIP3    H2 4882   5.375   2.520   4.434
 1626TIP3   OH2 4883   5.346   0.415   0.652
 1626TIP3    H1 4884   5.343   0.375   0.565
 1626TIP3    H2 4885   5.436   0.400   0.682
 1627TIP3   OH2 4886   6.262   2.082   4.359
 1627TIP3    H1 4887   6.233   1.992   4.374
 1627TIP3    H2 4888   6.201   2.116   4.293
 1628TIP3   OH2 4889   1.308   5.155   2.122
 1628TIP3    H1 4890   1.397   5.126   2.145
 1628TIP3    H2 4891   1.320   5.206   2.041
 1629TIP3   OH2 4892   0.871   5.972   1.809
 1629TIP3    H1 4893   0.779   5.973   1.782
 1629TIP3    H2 4894   0.918   6.007   1.734
 1630TIP3   OH2 4895   6.283   2.625   1.991
 1630TIP3    H1 4896   6.203   2.650   2.036
 1630TIP3    H2 4897   6.254   2.594   1.905
 1631TIP3   OH2 4898   0.646   2.625   4.068
 1631TIP3    H1 4899   0.656   2.604   3.976
 1631TIP3    H2 4900   0.694   2.707   4.080
 1632TIP3   OH2 4901   3.910   0.076   3.725
 1632TIP3    H1 4902   3.892   0.170   3.723
 1632TIP3    H2 4903   3.999   0.070   3.760
 1633TIP3   OH2 4904   2.068   4.078   4.984
 1633TIP3    H1 4905   2.128   4.127   4.928
 1633TIP3    H2 4906   2.034   4.142   5.046
 1634TIP3   OH2 4907   4.905   4.076   1.263
 1634TIP3    H1 4908   4.832   4.067   1.201
 1634TIP3    H2 4909   4.943   4.161   1.242
 1635TIP3   OH2 4910   0.807   2.439   3.356
 1635TIP3    H1 4911   0.887   2.413   3.401
 1635TIP3    H2 4912   0.768   2.357   3.326
 1636TIP3   OH2 4913   0.789   2.703   4.510
 1636TIP3    H1 4914   0.834   2.746   4.583
 1636TIP3    H2 4915   0.858   2.657   4.463
 1637TIP3   OH2 4916   5.855   2.780   3.709
 1637TIP3    H1 4917   5.875   2.857   3.655
 1637TIP3    H2 4918   5.923   2.716   3.686
 1638TIP3   OH2 4919   3.294   2.488   0.563
 1638TIP3    H1 4920   3.222   2.452   0.512
 1638TIP3    H2 4921   3.344   2.541   0.501
 1639TIP3   OH2 4922   5.408   2.002   0.868
 1639TIP3    H1 4923   5.453   1.951   0.800
 1639TIP3    H2 4924   5.460   2.082   0.877
 1640TIP3   OH2 4925   4.371   0.418   2.779
 1640TIP3    H1 4926   4.388   0.352   2.846
 1640TIP3    H2 4927   4.457   0.458   2.762
 1641TIP3   OH2 4928   2.118   1.431   0.522
 1641TIP3    H1 4929   2.154   1.410   0.608
 1641TIP3    H2 4930   2.185   1.485   0.480
 1642TIP3   OH2 4931   5.919   2.998   4.156
 1642TIP3    H1 4932   5.924   2.902   4.161
 1642TIP3    H2 4933   5.943   3.019   4.066
 1643TIP3   OH2 4934   4.327   4.483   3.862
 1643TIP3    H1 4935   4.400   4.509   3.918
 1643TIP3    H2 4936   4.280   4.418   3.914
 1644TIP3   OH2 4937   3.203   5.403   2.772
 1644TIP3    H1 4938   3.178   5.311   2.779
 1644TIP3    H2 4939   3.229   5.428   2.861
 1645TIP3   OH2 4940   0.307   3.901   3.051
 1645TIP3    H1 4941   0.369   3.879   3.121
 1645TIP3    H2 4942   0.304   3.997   3.052
 1646TIP3   OH2 4943   3.025   4.888   0.594
 1646TIP3    H1 4944   3.069   4.835   0.527
 1646TIP3    H2 4945   3.018   4.829   0.669
 1647TIP3   OH2 4946   2.520   5.906   0.184
 1647TIP3    H1 4947   2.467   5.827   0.170
 1647TIP3    H2 4948   2.502   5.930   0.275
 1648TIP3   OH2 4949   5.339   3.677   4.939
 1648TIP3    H1 4950   5.370   3.605   4.884
 1648TIP3    H2 4951   5.336   3.753   4.881
 1649TIP3   OH2 4952   4.538   2.682   1.801
 1649TIP3    H1 4953   4.587   2.759   1.774
 1649TIP3    H2 4954   4.577   2.656   1.885
 1650TIP3   OH2 4955   5.842   0.122   0.325
 1650TIP3    H1 4956   5.836   0.217   0.324
 1650TIP3    H2 4957   5.897   0.100   0.250
 1651TIP3   OH2 4958   3.829   1.978   3.382
 1651TIP3    H1 4959   3.912   1.936   3.358
 1651TIP3    H2 4960   3.850   2.072   3.384
 1652TIP3   OH2 4961   0.971   5.238   1.470
 1652TIP3    H1 4962   0.980   5.172   1.539
 1652TIP3    H2 4963   0.877   5.258   1.469
 1653TIP3   OH2 4964   3.790   2.870   3.970
 1653TIP3    H1 4965   3.807   2.840   3.881
 1653TIP3    H2 4966   3.752   2.794   4.014
 1654TIP3   OH2 4967   2.747   2.320   3.767
 1654TIP3    H1 4968   2.653   2.338   3.768
 1654TIP3    H2 4969   2.787   2.395   3.811
 1655TIP3   OH2 4970   4.762   1.063   5.041
 1655TIP3    H1 4971   4.782   1.155   5.021
 1655TIP3    H2 4972   4.693   1.067   5.107
 1656TIP3   OH2 4973   4.595   3.364   3.989
 1656TIP3    H1 4974   4.605   3.325   3.902
 1656TIP3    H2 4975   4.659   3.318   4.043
 1657TIP3   OH2 4976   6.294   1.379   0.487
 1657TIP3    H1 4977   6.380   1.396   0.527
 1657TIP3    H2 4978   6.309   1.390   0.393
 1658TIP3   OH2 4979   6.204   1.874   3.102
 1658TIP3    H1 4980   6.140   1.940   3.076
 1658TIP3    H2 4981   6.161   1.826   3.172
 1659TIP3   OH2 4982   0.238   0.835   1.353
 1659TIP3    H1 4983   0.231   0.784   1.434
 1659TIP3    H2 4984   0.293   0.782   1.296
 1660TIP3   OH2 4985   3.543   3.113   2.581
 1660TIP3    H1 4986   3.499   3.111   2.666
 1660TIP3    H2 4987   3.621   3.059   2.594
 1661TIP3   OH2 4988   5.476   1.340   0.291
 1661TIP3    H1 4989   5.482   1.305   0.380
 1661TIP3    H2 4990   5.553   1.397   0.283
 1662TIP3   OH2 4991   0.757   2.838   0.932
 1662TIP3    H1 4992   0.701   2.769   0.895
 1662TIP3    H2 4993   0.783   2.891   0.856
 1663TIP3   OH2 4994   3.994   2.893   3.115
 1663TIP3    H1 4995   3.992   2.881   3.020
 1663TIP3    H2 4996   3.965   2.983   3.128
 1664TIP3   OH2 4997   0.462   4.019   4.001
 1664TIP3    H1 4998   0.460   4.105   3.960
 1664TIP3    H2 4999   0.556   4.000   4.013
 1665TIP3   OH2 5000   4.693   4.940   5.038
 1665TIP3    H1 5001   4.729   4.895   5.114
 1665TIP3    H2 5002   4.627   4.999   5.074
 1666TIP3   OH2 5003   1.182   5.159   2.388
 1666TIP3    H1 5004   1.094   5.124   2.405
 1666TIP3    H2 5005   1.198   5.139   2.296
 1667TIP3   OH2 5006   4.978   4.355   1.136
 1667TIP3    H1 5007   5.056   4.400   1.170
 1667TIP3    H2 5008   4.904   4.408   1.167
 1668TIP3   OH2 5009   2.562   1.187   3.724
 1668TIP3    H1 5010   2.470   1.167   3.738
 1668TIP3    H2 5011   2.565   1.231   3.638
 1669TIP3   OH2 5012   5.972   5.327   0.495
 1669TIP3    H1 5013   6.068   5.330   0.497
 1669TIP3    H2 5014   5.949   5.349   0.405
 1670TIP3   OH2 5015   0.307   3.692   4.589
 1670TIP3    H1 5016   0.280   3.768   4.538
 1670TIP3    H2 5017   0.231   3.670   4.642
 1671TIP3   OH2 5018   0.047   0.530   0.244
 1671TIP3    H1 5019  -0.010   0.458   0.269
 1671TIP3    H2 5020   0.008   0.565   0.165
 1672TIP3   OH2 5021   5.181   3.024   3.044
 1672TIP3    H1 5022   5.142   3.105   3.013
 1672TIP3    H2 5023   5.113   2.958   3.033
 1673TIP3   OH2 5024   5.326   0.728   0.348
 1673TIP3    H1 5025   5.385   0.734   0.424
 1673TIP3    H2 5026   5.275   0.809   0.352
 1674TIP3   OH2 5027   5.581   4.100   3.882
 1674TIP3    H1 5028   5.515   4.053   3.832
 1674TIP3    H2 5029   5.617   4.035   3.943
 1675TIP3   OH2 5030   2.243   0.557   0.563
 1675TIP3    H1 5031   2.174   0.494   0.540
 1675TIP3    H2 5032   2.196   0.629   0.605
 1676TIP3   OH2 5033   1.470   0.351   3.878
 1676TIP3    H1 5034   1.520   0.339   3.797
 1676TIP3    H2 5035   1.521   0.412   3.930
 1677TIP3   OH2 5036   4.630   2.920   1.726
 1677TIP3    H1 5037   4.725   2.929   1.728
 1677TIP3    H2 5038   4.608   2.916   1.633
 1678TIP3   OH2 5039   2.246   0.829   2.956
 1678TIP3    H1 5040   2.301   0.807   2.881
 1678TIP3    H2 5041   2.308   0.851   3.026
 1679TIP3   OH2 5042   2.593   3.985   0.930
 1679TIP3    H1 5043   2.640   4.013   0.851
 1679TIP3    H2 5044   2.589   4.063   0.984
 1680TIP3   OH2 5045   4.684   5.272   5.111
 1680TIP3    H1 5046   4.768   5.237   5.141
 1680TIP3    H2 5047   4.702   5.304   5.022
 1681TIP3   OH2 5048   5.730   1.052   1.885
 1681TIP3    H1 5049   5.823   1.057   1.864
 1681TIP3    H2 5050   5.709   1.138   1.921
 1682TIP3   OH2 5051   1.099   2.949   2.563
 1682TIP3    H1 5052   1.030   2.978   2.623
 1682TIP3    H2 5053   1.161   2.902   2.619
 1683TIP3   OH2 5054   1.616   4.832   4.636
 1683TIP3    H1 5055   1.693   4.818   4.691
 1683TIP3    H2 5056   1.612   4.754   4.580
 1684TIP3   OH2 5057   0.029   4.058   4.673
 1684TIP3    H1 5058   0.003   3.989   4.613
 1684TIP3    H2 5059   0.064   4.013   4.749
 1685TIP3   OH2 5060   3.906   0.204   0.448
 1685TIP3    H1 5061   3.855   0.184   0.526
 1685TIP3    H2 5062   3.850   0.178   0.375
 1686TIP3   OH2 5063   5.875   4.582   0.092
 1686TIP3    H1 5064   5.848   4.491   0.111
 1686TIP3    H2 5065   5.793   4.631   0.093
 1687TIP3   OH2 5066   2.497   4.532   3.204
 1687TIP3    H1 5067   2.529   4.448   3.173
 1687TIP3    H2 5068   2.511   4.530   3.299
 1688TIP3   OH2 5069   0.609   2.354   2.220
 1688TIP3    H1 5070   0.654   2.403   2.290
 1688TIP3    H2 5071   0.610   2.413   2.145
 1689TIP3   OH2 5072   0.632   5.229   1.160
 1689TIP3    H1 5073   0.683   5.175   1.221
 1689TIP3    H2 5074   0.695   5.255   1.092
 1690TIP3   OH2 5075   1.564   4.575   4.092
 1690TIP3    H1 5076   1.499   4.646   4.090
 1690TIP3    H2 5077   1.512   4.496   4.106
 1691TIP3   OH2 5078   5.552   5.686   1.398
 1691TIP3    H1 5079   5.471   5.692   1.449
 1691TIP3    H2 5080   5.589   5.774   1.402
 1692TIP3   OH2 5081   2.362   2.393   4.590
 1692TIP3    H1 5082   2.432   2.333   4.566
 1692TIP3    H2 5083   2.299   2.340   4.638
 1693TIP3   OH2 5084   3.733   4.355   0.944
 1693TIP3    H1 5085   3.765   4.435   0.986
 1693TIP3    H2 5086   3.664   4.323   1.002
 1694TIP3   OH2 5087   1.796   1.933   1.700
 1694TIP3    H1 5088   1.702   1.928   1.681
 1694TIP3    H2 5089   1.801   1.978   1.784
 1695TIP3   OH2 5090   0.941   0.225   1.459
 1695TIP3    H1 5091   0.990   0.242   1.379
 1695TIP3    H2 5092   0.849   0.228   1.432
 1696TIP3   OH2 5093   2.545   1.617   4.931
 1696TIP3    H1 5094   2.587   1.667   4.861
 1696TIP3    H2 5095   2.452   1.619   4.908
 1697TIP3   OH2 5096   5.795   5.236   2.954
 1697TIP3    H1 5097   5.853   5.160   2.956
 1697TIP3    H2 5098   5.829   5.290   2.883
 1698TIP3   OH2 5099   1.043   3.660   2.085
 1698TIP3    H1 5100   1.033   3.712   2.005
 1698TIP3    H2 5101   1.129   3.685   2.119
 1699TIP3   OH2 5102   5.864   1.940   0.379
 1699TIP3    H1 5103   5.906   1.893   0.307
 1699TIP3    H2 5104   5.916   1.916   0.456
 1700TIP3   OH2 5105   1.523   1.580   4.174
 1700TIP3    H1 5106   1.440   1.532   4.171
 1700TIP3    H2 5107   1.558   1.560   4.261
 1701TIP3   OH2 5108   0.431   0.220   4.035
 1701TIP3    H1 5109   0.384   0.287   4.085
 1701TIP3    H2 5110   0.362   0.169   3.993
 1702TIP3   OH2 5111   3.454   1.530   4.140
 1702TIP3    H1 5112   3.474   1.461   4.077
 1702TIP3    H2 5113   3.507   1.510   4.217
 1703TIP3   OH2 5114   1.993   5.277   1.595
 1703TIP3    H1 5115   2.041   5.199   1.623
 1703TIP3    H2 5116   1.939   5.247   1.522
 1704TIP3   OH2 5117   1.560   4.610   0.706
 1704TIP3    H1 5118   1.555   4.550   0.631
 1704TIP3    H2 5119   1.485   4.587   0.760
 1705TIP3   OH2 5120   4.223   0.999   2.810
 1705TIP3    H1 5121   4.181   0.914   2.822
 1705TIP3    H2 5122   4.244   1.003   2.717
 1706TIP3   OH2 5123   0.198   1.231   2.049
 1706TIP3    H1 5124   0.150   1.152   2.025
 1706TIP3    H2 5125   0.225   1.216   2.140
 1707TIP3   OH2 5126   2.930   0.501   1.374
 1707TIP3    H1 5127   2.865   0.568   1.396
 1707TIP3    H2 5128   2.927   0.494   1.279
 1708TIP3   OH2 5129   3.536   2.189   1.678
 1708TIP3    H1 5130   3.582   2.125   1.732
 1708TIP3    H2 5131   3.588   2.195   1.599
 1709TIP3   OH2 5132   5.429   5.233   3.940
 1709TIP3    H1 5133   5.334   5.231   3.950
 1709TIP3    H2 5134   5.448   5.317   3.899
 1710TIP3   OH2 5135   5.451   1.229   2.846
 1710TIP3    H1 5136   5.458   1.157   2.784
 1710TIP3    H2 5137   5.457   1.308   2.791
 1711TIP3   OH2 5138   5.092   4.067   0.792
 1711TIP3    H1 5139   5.082   4.158   0.764
 1711TIP3    H2 5140   5.111   4.072   0.886
 1712TIP3   OH2 5141   5.444   5.274   1.298
 1712TIP3    H1 5142   5.357   5.306   1.275
 1712TIP3    H2 5143   5.463   5.314   1.383
 1713TIP3   OH2 5144   6.224   5.668   3.512
 1713TIP3    H1 5145   6.160   5.685   3.444
 1713TIP3    H2 5146   6.261   5.582   3.490
 1714TIP3   OH2 5147   5.939   3.425   4.954
 1714TIP3    H1 5148   5.954   3.432   4.860
 1714TIP3    H2 5149   6.020   3.457   4.994
 1715TIP3   OH2 5150   2.233   3.446   0.629
 1715TIP3    H1 5151   2.146   3.408   0.640
 1715TIP3    H2 5152   2.225   3.534   0.665
 1716TIP3   OH2 5153   3.297   0.799   4.450
 1716TIP3    H1 5154   3.307   0.712   4.489
 1716TIP3    H2 5155   3.357   0.799   4.375
 1717TIP3   OH2 5156   4.057   3.740   0.146
 1717TIP3    H1 5157   4.127   3.793   0.184
 1717TIP3    H2 5158   4.100   3.658   0.121
 1718TIP3   OH2 5159   4.536   5.631   4.232
 1718TIP3    H1 5160   4.469   5.690   4.268
 1718TIP3    H2 5161   4.559   5.574   4.306
 1719TIP3   OH2 5162   4.947   3.726   4.506
 1719TIP3    H1 5163   5.034   3.737   4.546
 1719TIP3    H2 5164   4.915   3.643   4.539
 1720TIP3   OH2 5165   0.417   5.429   3.431
 1720TIP3    H1 5166   0.335   5.437   3.479
 1720TIP3    H2 5167   0.400   5.363   3.364
 1721TIP3   OH2 5168   5.371   5.794   4.675
 1721TIP3    H1 5169   5.424   5.720   4.704
 1721TIP3    H2 5170   5.332   5.765   4.593
 1722TIP3   OH2 5171   1.030   4.864   5.118
 1722TIP3    H1 5172   1.032   4.921   5.195
 1722TIP3    H2 5173   1.118   4.829   5.111
 1723TIP3   OH2 5174   1.465   2.734   1.773
 1723TIP3    H1 5175   1.560   2.725   1.770
 1723TIP3    H2 5176   1.432   2.644   1.776
 1724TIP3   OH2 5177   2.000   5.085   0.652
 1724TIP3    H1 5178   1.985   4.990   0.657
 1724TIP3    H2 5179   2.074   5.095   0.592
 1725TIP3   OH2 5180   5.500   0.530   0.217
 1725TIP3    H1 5181   5.588   0.493   0.225
 1725TIP3    H2 5182   5.443   0.464   0.256
 1726TIP3   OH2 5183   3.589   5.539   2.315
 1726TIP3    H1 5184   3.559   5.563   2.402
 1726TIP3    H2 5185   3.672   5.587   2.305
 1727TIP3   OH2 5186   4.633   5.300   2.613
 1727TIP3    H1 5187   4.663   5.354   2.686
 1727TIP3    H2 5188   4.705   5.302   2.550
 1728TIP3   OH2 5189   3.954   4.752   2.239
 1728TIP3    H1 5190   4.028   4.719   2.189
 1728TIP3    H2 5191   3.993   4.815   2.300
 1729TIP3   OH2 5192   3.079   2.834   2.820
 1729TIP3    H1 5193   3.143   2.765   2.806
 1729TIP3    H2 5194   3.034   2.842   2.736
 1730TIP3   OH2 5195   5.082   0.052   4.232
 1730TIP3    H1 5196   5.058   0.076   4.143
 1730TIP3    H2 5197   5.046   0.122   4.287
 1731TIP3   OH2 5198   4.511   3.756   1.782
 1731TIP3    H1 5199   4.522   3.782   1.690
 1731TIP3    H2 5200   4.493   3.838   1.828
 1732TIP3   OH2 5201   5.865   2.031   0.831
 1732TIP3    H1 5202   5.872   1.945   0.873
 1732TIP3    H2 5203   5.799   2.018   0.762
 1733TIP3   OH2 5204   6.064   4.480   1.701
 1733TIP3    H1 5205   6.074   4.396   1.657
 1733TIP3    H2 5206   5.978   4.512   1.673
 1734TIP3   OH2 5207   1.767   3.807   0.598
 1734TIP3    H1 5208   1.682   3.765   0.611
 1734TIP3    H2 5209   1.827   3.734   0.578
 1735TIP3   OH2 5210   3.531   2.238   3.695
 1735TIP3    H1 5211   3.487   2.169   3.744
 1735TIP3    H2 5212   3.516   2.216   3.603
 1736TIP3   OH2 5213   2.878   2.886   1.745
 1736TIP3    H1 5214   2.798   2.928   1.777
 1736TIP3    H2 5215   2.885   2.914   1.654
 1737TIP3   OH2 5216   5.737   1.039   1.139
 1737TIP3    H1 5217   5.806   1.032   1.205
 1737TIP3    H2 5218   5.764   1.112   1.084
 1738TIP3   OH2 5219   3.849   0.745   1.509
 1738TIP3    H1 5220   3.824   0.798   1.585
 1738TIP3    H2 5221   3.909   0.680   1.543
 1739TIP3   OH2 5222   0.042   0.268   0.807
 1739TIP3    H1 5223   0.006   0.192   0.761
 1739TIP3    H2 5224   0.126   0.284   0.762
 1740TIP3   OH2 5225   4.207   2.223   0.964
 1740TIP3    H1 5226   4.201   2.171   0.884
 1740TIP3    H2 5227   4.121   2.265   0.971
 1741TIP3   OH2 5228   4.037   1.375   3.790
 1741TIP3    H1 5229   4.054   1.359   3.883
 1741TIP3    H2 5230   4.105   1.325   3.744
 1742TIP3   OH2 5231   0.562   4.718   3.632
 1742TIP3    H1 5232   0.516   4.788   3.584
 1742TIP3    H2 5233   0.644   4.757   3.659
 1743TIP3   OH2 5234   4.806   5.593   3.737
 1743TIP3    H1 5235   4.764   5.623   3.818
 1743TIP3    H2 5236   4.900   5.603   3.754
 1744TIP3   OH2 5237   5.976   0.711   1.186
 1744TIP3    H1 5238   5.887   0.744   1.180
 1744TIP3    H2 5239   6.027   0.766   1.126
 1745TIP3   OH2 5240   3.280   4.090   3.678
 1745TIP3    H1 5241   3.243   4.086   3.766
 1745TIP3    H2 5242   3.204   4.079   3.620
 1746TIP3   OH2 5243   0.745   5.023   1.316
 1746TIP3    H1 5244   0.653   5.000   1.328
 1746TIP3    H2 5245   0.787   4.995   1.398
 1747TIP3   OH2 5246   5.858   2.011   2.469
 1747TIP3    H1 5247   5.848   2.020   2.374
 1747TIP3    H2 5248   5.947   2.040   2.487
 1748TIP3   OH2 5249   1.755   5.434   3.940
 1748TIP3    H1 5250   1.830   5.381   3.969
 1748TIP3    H2 5251   1.761   5.513   3.993
 1749TIP3   OH2 5252   3.755   5.388   2.591
 1749TIP3    H1 5253   3.666   5.414   2.567
 1749TIP3    H2 5254   3.753   5.292   2.591
 1750TIP3   OH2 5255   4.940   4.697   2.510
 1750TIP3    H1 5256   5.007   4.763   2.526
 1750TIP3    H2 5257   4.945   4.682   2.415
 1751TIP3   OH2 5258   4.734   5.806   1.362
 1751TIP3    H1 5259   4.761   5.814   1.271
 1751TIP3    H2 5260   4.759   5.718   1.388
 1752TIP3   OH2 5261   0.293   3.834   3.885
 1752TIP3    H1 5262   0.360   3.896   3.913
 1752TIP3    H2 5263   0.288   3.846   3.790
 1753TIP3   OH2 5264   5.922   0.112   0.027
 1753TIP3    H1 5265   5.994   0.085  -0.030
 1753TIP3    H2 5266   5.895   0.197  -0.008
 1754TIP3   OH2 5267   1.523   1.933   3.117
 1754TIP3    H1 5268   1.471   1.901   3.191
 1754TIP3    H2 5269   1.496   2.024   3.106
 1755TIP3   OH2 5270   2.138   5.705   2.582
 1755TIP3    H1 5271   2.052   5.671   2.609
 1755TIP3    H2 5272   2.118   5.788   2.539
 1756TIP3   OH2 5273   0.277   4.818   4.145
 1756TIP3    H1 5274   0.244   4.890   4.091
 1756TIP3    H2 5275   0.213   4.747   4.131
 1757TIP3   OH2 5276   0.860   3.076   2.698
 1757TIP3    H1 5277   0.874   3.135   2.771
 1757TIP3    H2 5278   0.765   3.080   2.682
 1758TIP3   OH2 5279   5.638   2.832   3.405
 1758TIP3    H1 5280   5.561   2.887   3.390
 1758TIP3    H2 5281   5.677   2.822   3.319
 1759TIP3   OH2 5282   4.961   0.405   3.236
 1759TIP3    H1 5283   4.958   0.487   3.187
 1759TIP3    H2 5284   5.028   0.352   3.192
 1760TIP3   OH2 5285   3.770   5.539   4.098
 1760TIP3    H1 5286   3.823   5.517   4.022
 1760TIP3    H2 5287   3.768   5.634   4.100
 1761TIP3   OH2 5288   5.575   3.146   3.503
 1761TIP3    H1 5289   5.582   3.234   3.539
 1761TIP3    H2 5290   5.607   3.155   3.413
 1762TIP3   OH2 5291   4.183   5.653   1.220
 1762TIP3    H1 5292   4.191   5.705   1.300
 1762TIP3    H2 5293   4.185   5.718   1.149
 1763TIP3   OH2 5294   4.445   3.078   3.985
 1763TIP3    H1 5295   4.360   3.081   3.941
 1763TIP3    H2 5296   4.504   3.125   3.927
 1764TIP3   OH2 5297   5.819   5.177   1.038
 1764TIP3    H1 5298   5.889   5.171   0.973
 1764TIP3    H2 5299   5.750   5.228   0.994
 1765TIP3   OH2 5300   6.055   5.122   4.608
 1765TIP3    H1 5301   6.047   5.216   4.592
 1765TIP3    H2 5302   6.049   5.114   4.704
 1766TIP3   OH2 5303   3.643   2.576   5.194
 1766TIP3    H1 5304   3.561   2.541   5.158
 1766TIP3    H2 5305   3.647   2.665   5.160
 1767TIP3   OH2 5306   1.759   0.686   4.455
 1767TIP3    H1 5307   1.826   0.625   4.488
 1767TIP3    H2 5308   1.705   0.633   4.397
 1768TIP3   OH2 5309   5.241   2.555   1.632
 1768TIP3    H1 5310   5.292   2.506   1.568
 1768TIP3    H2 5311   5.288   2.542   1.715
 1769TIP3   OH2 5312   2.570   4.526   4.402
 1769TIP3    H1 5313   2.626   4.465   4.451
 1769TIP3    H2 5314   2.481   4.504   4.430
 1770TIP3   OH2 5315   3.825   2.025   3.960
 1770TIP3    H1 5316   3.907   2.068   3.935
 1770TIP3    H2 5317   3.820   2.037   4.055
 1771TIP3   OH2 5318   3.786   2.589   2.282
 1771TIP3    H1 5319   3.807   2.614   2.192
 1771TIP3    H2 5320   3.844   2.643   2.336
 1772TIP3   OH2 5321   3.715   2.352   0.327
 1772TIP3    H1 5322   3.777   2.416   0.292
 1772TIP3    H2 5323   3.766   2.300   0.390
 1773TIP3   OH2 5324   3.380   2.621   4.002
 1773TIP3    H1 5325   3.417   2.695   4.050
 1773TIP3    H2 5326   3.397   2.545   4.059
 1774TIP3   OH2 5327   5.737   1.556   3.202
 1774TIP3    H1 5328   5.726   1.553   3.106
 1774TIP3    H2 5329   5.731   1.649   3.224
 1775TIP3   OH2 5330   1.886   4.171   3.863
 1775TIP3    H1 5331   1.791   4.182   3.870
 1775TIP3    H2 5332   1.898   4.076   3.857
 1776TIP3   OH2 5333   0.491   0.162   4.676
 1776TIP3    H1 5334   0.438   0.187   4.600
 1776TIP3    H2 5335   0.458   0.216   4.747
 1777TIP3   OH2 5336   0.982   3.918   1.246
 1777TIP3    H1 5337   0.892   3.924   1.214
 1777TIP3    H2 5338   1.000   3.824   1.252
 1778TIP3   OH2 5339   2.583   5.527   0.462
 1778TIP3    H1 5340   2.511   5.517   0.400
 1778TIP3    H2 5341   2.608   5.619   0.454
 1779TIP3   OH2 5342   1.360   0.532   3.632
 1779TIP3    H1 5343   1.311   0.519   3.714
 1779TIP3    H2 5344   1.347   0.452   3.583
 1780TIP3   OH2 5345   0.419   3.109   5.152
 1780TIP3    H1 5346   0.470   3.073   5.080
 1780TIP3    H2 5347   0.430   3.045   5.223
 1781TIP3   OH2 5348   5.472   5.796   3.156
 1781TIP3    H1 5349   5.466   5.719   3.213
 1781TIP3    H2 5350   5.558   5.788   3.115
 1782TIP3   OH2 5351   0.241   0.112   1.178
 1782TIP3    H1 5352   0.156   0.154   1.168
 1782TIP3    H2 5353   0.304   0.179   1.151
 1783TIP3   OH2 5354   1.549   3.341   4.843
 1783TIP3    H1 5355   1.597   3.423   4.860
 1783TIP3    H2 5356   1.503   3.358   4.760
 1784TIP3   OH2 5357   2.429   2.229   4.856
 1784TIP3    H1 5358   2.341   2.238   4.820
 1784TIP3    H2 5359   2.459   2.318   4.869
 1785TIP3   OH2 5360   0.741   4.519   4.412
 1785TIP3    H1 5361   0.691   4.589   4.453
 1785TIP3    H2 5362   0.701   4.438   4.444
 1786TIP3   OH2 5363   2.713   0.961   4.184
 1786TIP3    H1 5364   2.712   1.045   4.139
 1786TIP3    H2 5365   2.806   0.942   4.197
 1787TIP3   OH2 5366   4.841   4.758   2.000
 1787TIP3    H1 5367   4.823   4.667   2.020
 1787TIP3    H2 5368   4.760   4.804   2.022
 1788TIP3   OH2 5369   0.729   2.317   2.693
 1788TIP3    H1 5370   0.714   2.238   2.643
 1788TIP3    H2 5371   0.817   2.345   2.669
 1789TIP3   OH2 5372   3.438   4.197   3.480
 1789TIP3    H1 5373   3.377   4.171   3.549
 1789TIP3    H2 5374   3.491   4.266   3.520
 1790TIP3   OH2 5375   4.707   3.822   1.140
 1790TIP3    H1 5376   4.777   3.841   1.079
 1790TIP3    H2 5377   4.748   3.826   1.226
 1791TIP3   OH2 5378   1.456   4.577   0.982
 1791TIP3    H1 5379   1.454   4.653   1.040
 1791TIP3    H2 5380   1.371   4.577   0.938
 1792TIP3   OH2 5381   4.921   5.473   1.137
 1792TIP3    H1 5382   4.915   5.439   1.226
 1792TIP3    H2 5383   4.923   5.394   1.082
 1793TIP3   OH2 5384   1.242   2.387   4.944
 1793TIP3    H1 5385   1.166   2.333   4.921
 1793TIP3    H2 5386   1.236   2.463   4.885
 1794TIP3   OH2 5387   3.744   0.847   1.060
 1794TIP3    H1 5388   3.734   0.757   1.029
 1794TIP3    H2 5389   3.814   0.842   1.126
 1795TIP3   OH2 5390   3.757   4.660   1.848
 1795TIP3    H1 5391   3.713   4.650   1.763
 1795TIP3    H2 5392   3.739   4.578   1.894
 1796TIP3   OH2 5393   4.845   3.099   2.938
 1796TIP3    H1 5394   4.929   3.140   2.915
 1796TIP3    H2 5395   4.858   3.006   2.921
 1797TIP3   OH2 5396   1.373   4.937   4.455
 1797TIP3    H1 5397   1.278   4.940   4.463
 1797TIP3    H2 5398   1.402   5.027   4.467
 1798TIP3   OH2 5399   3.798   0.072   1.317
 1798TIP3    H1 5400   3.719   0.071   1.370
 1798TIP3    H2 5401   3.767   0.066   1.226
 1799TIP3   OH2 5402   1.334   4.190   1.997
 1799TIP3    H1 5403   1.323   4.119   2.060
 1799TIP3    H2 5404   1.249   4.197   1.954
 1800TIP3   OH2 5405   1.559   5.819   1.006
 1800TIP3    H1 5406   1.596   5.794   1.091
 1800TIP3    H2 5407   1.636   5.827   0.949
 1801TIP3   OH2 5408   4.598   5.950   4.379
 1801TIP3    H1 5409   4.572   6.042   4.391
 1801TIP3    H2 5410   4.650   5.950   4.299
 1802TIP3   OH2 5411   4.770   1.698   4.847
 1802TIP3    H1 5412   4.698   1.662   4.795
 1802TIP3    H2 5413   4.845   1.641   4.826
 1803TIP3   OH2 5414   5.643   5.585   0.788
 1803TIP3    H1 5415   5.620   5.550   0.702
 1803TIP3    H2 5416   5.692   5.665   0.768
 1804TIP3   OH2 5417   3.765   1.895   4.640
 1804TIP3    H1 5418   3.750   1.921   4.549
 1804TIP3    H2 5419   3.858   1.912   4.655
 1805TIP3   OH2 5420   2.846   1.164   0.036
 1805TIP3    H1 5421   2.889   1.105   0.097
 1805TIP3    H2 5422   2.847   1.117  -0.047
 1806TIP3   OH2 5423   4.761   2.688   2.860
 1806TIP3    H1 5424   4.733   2.604   2.897
 1806TIP3    H2 5425   4.680   2.738   2.851
 1807TIP3   OH2 5426   0.716   1.635   2.017
 1807TIP3    H1 5427   0.773   1.562   2.043
 1807TIP3    H2 5428   0.776   1.704   1.989
 1808TIP3   OH2 5429   0.464   2.485   2.716
 1808TIP3    H1 5430   0.426   2.448   2.636
 1808TIP3    H2 5431   0.554   2.451   2.718
 1809TIP3   OH2 5432   2.409   5.620   2.528
 1809TIP3    H1 5433   2.326   5.655   2.561
 1809TIP3    H2 5434   2.437   5.557   2.595
 1810TIP3   OH2 5435   2.165   2.256   4.756
 1810TIP3    H1 5436   2.084   2.308   4.761
 1810TIP3    H2 5437   2.137   2.167   4.779
 1811TIP3   OH2 5438   4.650   5.713   2.173
 1811TIP3    H1 5439   4.560   5.728   2.201
 1811TIP3    H2 5440   4.680   5.799   2.142
 1812TIP3   OH2 5441   1.296   4.712   2.810
 1812TIP3    H1 5442   1.276   4.725   2.718
 1812TIP3    H2 5443   1.379   4.664   2.811
 1813TIP3   OH2 5444   2.072   1.093   3.321
 1813TIP3    H1 5445   2.009   1.021   3.323
 1813TIP3    H2 5446   2.068   1.127   3.231
 1814TIP3   OH2 5447   2.437   5.147   2.728
 1814TIP3    H1 5448   2.515   5.171   2.778
 1814TIP3    H2 5449   2.366   5.152   2.791
 1815TIP3   OH2 5450   1.017   4.887   3.241
 1815TIP3    H1 5451   1.070   4.825   3.191
 1815TIP3    H2 5452   1.071   4.909   3.317
 1816TIP3   OH2 5453   2.631   4.414   0.307
 1816TIP3    H1 5454   2.705   4.360   0.335
 1816TIP3    H2 5455   2.671   4.489   0.264
 1817TIP3   OH2 5456   2.376   1.965   3.657
 1817TIP3    H1 5457   2.341   2.045   3.616
 1817TIP3    H2 5458   2.415   1.917   3.584
 1818TIP3   OH2 5459   3.940  -0.005   4.707
 1818TIP3    H1 5460   3.917   0.070   4.762
 1818TIP3    H2 5461   4.030  -0.027   4.733
 1819TIP3   OH2 5462   3.399   3.531   0.233
 1819TIP3    H1 5463   3.469   3.596   0.231
 1819TIP3    H2 5464   3.319   3.583   0.225
 1820TIP3   OH2 5465   3.654   3.308   4.861
 1820TIP3    H1 5466   3.739   3.297   4.817
 1820TIP3    H2 5467   3.646   3.403   4.873
 1821TIP3   OH2 5468   5.389   1.856   3.622
 1821TIP3    H1 5469   5.431   1.781   3.664
 1821TIP3    H2 5470   5.381   1.830   3.530
 1822TIP3   OH2 5471   4.244   2.127   4.519
 1822TIP3    H1 5472   4.283   2.173   4.594
 1822TIP3    H2 5473   4.274   2.037   4.529
 1823TIP3   OH2 5474   1.565   3.042   3.759
 1823TIP3    H1 5475   1.501   3.063   3.690
 1823TIP3    H2 5476   1.611   2.965   3.725
 1824TIP3   OH2 5477   2.422   3.046   1.458
 1824TIP3    H1 5478   2.485   3.118   1.460
 1824TIP3    H2 5479   2.475   2.967   1.461
 1825TIP3   OH2 5480   1.834   2.829   2.553
 1825TIP3    H1 5481   1.742   2.809   2.573
 1825TIP3    H2 5482   1.883   2.791   2.625
 1826TIP3   OH2 5483   4.660   5.084   3.655
 1826TIP3    H1 5484   4.739   5.132   3.678
 1826TIP3    H2 5485   4.588   5.145   3.672
 1827TIP3   OH2 5486   1.020   1.680   3.955
 1827TIP3    H1 5487   0.989   1.603   3.907
 1827TIP3    H2 5488   1.114   1.684   3.936
 1828TIP3   OH2 5489   1.703   1.362   4.780
 1828TIP3    H1 5490   1.729   1.452   4.760
 1828TIP3    H2 5491   1.633   1.343   4.717
 1829TIP3   OH2 5492   4.153   0.069   1.118
 1829TIP3    H1 5493   4.193   0.072   1.031
 1829TIP3    H2 5494   4.089   0.140   1.117
 1830TIP3   OH2 5495   0.396   4.665   0.182
 1830TIP3    H1 5496   0.302   4.669   0.204
 1830TIP3    H2 5497   0.399   4.681   0.088
 1831TIP3   OH2 5498   0.101   1.758   0.822
 1831TIP3    H1 5499   0.168   1.728   0.884
 1831TIP3    H2 5500   0.053   1.679   0.798
 1832TIP3   OH2 5501   2.518   0.801   2.351
 1832TIP3    H1 5502   2.531   0.719   2.303
 1832TIP3    H2 5503   2.551   0.869   2.291
 1833TIP3   OH2 5504   3.694   2.991   2.804
 1833TIP3    H1 5505   3.634   2.992   2.879
 1833TIP3    H2 5506   3.781   3.005   2.841
 1834TIP3   OH2 5507   6.254   0.338   2.397
 1834TIP3    H1 5508   6.173   0.379   2.366
 1834TIP3    H2 5509   6.252   0.250   2.359
 1835TIP3   OH2 5510   6.149   0.472   3.515
 1835TIP3    H1 5511   6.156   0.446   3.423
 1835TIP3    H2 5512   6.055   0.477   3.532
 1836TIP3   OH2 5513   2.041   5.936   2.416
 1836TIP3    H1 5514   1.954   5.959   2.447
 1836TIP3    H2 5515   2.083   6.019   2.397
 1837TIP3   OH2 5516   4.812   2.690   0.911
 1837TIP3    H1 5517   4.801   2.778   0.877
 1837TIP3    H2 5518   4.723   2.660   0.929
 1838TIP3   OH2 5519   2.654   5.507   2.067
 1838TIP3    H1 5520   2.564   5.505   2.034
 1838TIP3    H2 5521   2.703   5.557   2.001
 1839TIP3   OH2 5522   1.757   4.631   0.975
 1839TIP3    H1 5523   1.816   4.558   0.953
 1839TIP3    H2 5524   1.674   4.608   0.934
 1840TIP3   OH2 5525   0.630   3.862   4.910
 1840TIP3    H1 5526   0.680   3.810   4.972
 1840TIP3    H2 5527   0.614   3.803   4.836
 1841TIP3   OH2 5528   5.346   2.755   3.784
 1841TIP3    H1 5529   5.396   2.760   3.702
 1841TIP3    H2 5530   5.310   2.667   3.784
 1842TIP3   OH2 5531   3.124   1.575   2.222
 1842TIP3    H1 5532   3.170   1.552   2.142
 1842TIP3    H2 5533   3.148   1.666   2.239
 1843TIP3   OH2 5534   1.015   5.046   3.681
 1843TIP3    H1 5535   1.063   5.040   3.764
 1843TIP3    H2 5536   0.937   4.992   3.695
 1844TIP3   OH2 5537   2.176   5.479   4.841
 1844TIP3    H1 5538   2.138   5.475   4.753
 1844TIP3    H2 5539   2.269   5.493   4.826
 1845TIP3   OH2 5540   3.797  -0.011   2.131
 1845TIP3    H1 5541   3.863   0.054   2.155
 1845TIP3    H2 5542   3.840  -0.065   2.064
 1846TIP3   OH2 5543   5.018   1.927   4.837
 1846TIP3    H1 5544   5.032   1.922   4.932
 1846TIP3    H2 5545   4.948   1.992   4.827
 1847TIP3   OH2 5546   4.576   2.518   1.141
 1847TIP3    H1 5547   4.564   2.432   1.101
 1847TIP3    H2 5548   4.653   2.509   1.197
 1848TIP3   OH2 5549   0.143   4.100   0.428
 1848TIP3    H1 5550   0.186   4.170   0.478
 1848TIP3    H2 5551   0.051   4.127   0.424
 1849TIP3   OH2 5552   4.546   5.900   3.845
 1849TIP3    H1 5553   4.496   5.852   3.911
 1849TIP3    H2 5554   4.506   5.987   3.843
 1850TIP3   OH2 5555   6.174   4.776   2.497
 1850TIP3    H1 5556   6.215   4.750   2.414
 1850TIP3    H2 5557   6.080   4.775   2.479
 1851TIP3   OH2 5558   3.243   2.524   2.086
 1851TIP3    H1 5559   3.160   2.496   2.048
 1851TIP3    H2 5560   3.309   2.474   2.039
 1852TIP3   OH2 5561   5.574   0.315   3.717
 1852TIP3    H1 5562   5.645   0.311   3.780
 1852TIP3    H2 5563   5.500   0.274   3.762
 1853TIP3   OH2 5564   1.002   5.726   2.265
 1853TIP3    H1 5565   1.087   5.684   2.257
 1853TIP3    H2 5566   0.998   5.786   2.190
 1854TIP3   OH2 5567   2.897   4.834   1.876
 1854TIP3    H1 5568   2.844   4.805   1.950
 1854TIP3    H2 5569   2.833   4.859   1.809
 1855TIP3   OH2 5570   2.009   5.482   1.788
 1855TIP3    H1 5571   2.081   5.478   1.851
 1855TIP3    H2 5572   2.023   5.408   1.729
 1856TIP3   OH2 5573   6.013   3.121   5.114
 1856TIP3    H1 5574   6.093   3.172   5.117
 1856TIP3    H2 5575   6.012   3.082   5.027
 1857TIP3   OH2 5576   4.281   0.930   4.638
 1857TIP3    H1 5577   4.211   0.989   4.609
 1857TIP3    H2 5578   4.237   0.868   4.697
 1858TIP3   OH2 5579   4.654   5.886   0.208
 1858TIP3    H1 5580   4.689   5.797   0.198
 1858TIP3    H2 5581   4.577   5.875   0.263
 1859TIP3   OH2 5582   6.247   2.966   4.208
 1859TIP3    H1 5583   6.340   2.943   4.214
 1859TIP3    H2 5584   6.202   2.895   4.254
 1860TIP3   OH2 5585   6.233   4.013   2.995
 1860TIP3    H1 5586   6.141   3.990   2.986
 1860TIP3    H2 5587   6.277   3.965   2.925
 1861TIP3   OH2 5588   2.489   1.340   5.102
 1861TIP3    H1 5589   2.495   1.422   5.054
 1861TIP3    H2 5590   2.423   1.355   5.169
 1862TIP3   OH2 5591   6.195   5.928   4.985
 1862TIP3    H1 5592   6.260   5.893   4.923
 1862TIP3    H2 5593   6.113   5.887   4.960
 1863TIP3   OH2 5594   1.684   5.476   0.759
 1863TIP3    H1 5595   1.725   5.561   0.774
 1863TIP3    H2 5596   1.599   5.496   0.721
 1864TIP3   OH2 5597   1.708   5.173   2.968
 1864TIP3    H1 5598   1.686   5.258   3.005
 1864TIP3    H2 5599   1.777   5.191   2.905
 1865TIP3   OH2 5600   0.904   2.866   0.427
 1865TIP3    H1 5601   0.917   2.813   0.506
 1865TIP3    H2 5602   0.992   2.877   0.391
 1866TIP3   OH2 5603   4.468   2.580   0.457
 1866TIP3    H1 5604   4.425   2.599   0.374
 1866TIP3    H2 5605   4.546   2.529   0.433
 1867TIP3   OH2 5606   6.005   5.064   4.871
 1867TIP3    H1 5607   5.910   5.073   4.880
 1867TIP3    H2 5608   6.040   5.117   4.943
 1868TIP3   OH2 5609   5.197   3.766   0.963
 1868TIP3    H1 5610   5.269   3.704   0.949
 1868TIP3    H2 5611   5.192   3.776   1.058
 1869TIP3   OH2 5612   3.760   4.740   3.739
 1869TIP3    H1 5613   3.759   4.781   3.825
 1869TIP3    H2 5614   3.781   4.811   3.679
 1870TIP3   OH2 5615   3.703   1.925   0.838
 1870TIP3    H1 5616   3.796   1.915   0.856
 1870TIP3    H2 5617   3.680   2.010   0.875
 1871TIP3   OH2 5618   1.157   5.701   2.577
 1871TIP3    H1 5619   1.251   5.691   2.560
 1871TIP3    H2 5620   1.148   5.790   2.610
 1872TIP3   OH2 5621   0.945   3.388   2.064
 1872TIP3    H1 5622   0.944   3.439   2.146
 1872TIP3    H2 5623   0.933   3.454   1.995
 1873TIP3   OH2 5624   1.776   3.319   3.496
 1873TIP3    H1 5625   1.760   3.412   3.488
 1873TIP3    H2 5626   1.870   3.312   3.516
 1874TIP3   OH2 5627   6.282   1.681   4.683
 1874TIP3    H1 5628   6.268   1.745   4.613
 1874TIP3    H2 5629   6.250   1.726   4.762
 1875TIP3   OH2 5630   5.507   0.600   5.055
 1875TIP3    H1 5631   5.575   0.590   5.122
 1875TIP3    H2 5632   5.453   0.672   5.088
 1876TIP3   OH2 5633   5.393   1.946   2.339
 1876TIP3    H1 5634   5.479   1.904   2.349
 1876TIP3    H2 5635   5.365   1.966   2.429
 1877TIP3   OH2 5636   4.755   2.273   5.130
 1877TIP3    H1 5637   4.811   2.346   5.157
 1877TIP3    H2 5638   4.710   2.305   5.052
 1878TIP3   OH2 5639   1.528   5.963   4.011
 1878TIP3    H1 5640   1.585   6.029   3.971
 1878TIP3    H2 5641   1.483   6.010   4.082
 1879TIP3   OH2 5642   3.983   2.942   4.798
 1879TIP3    H1 5643   3.963   2.934   4.705
 1879TIP3    H2 5644   3.897   2.939   4.841
 1880TIP3   OH2 5645   6.084   0.784   3.158
 1880TIP3    H1 5646   6.147   0.851   3.184
 1880TIP3    H2 5647   6.137   0.716   3.116
 1881TIP3   OH2 5648   1.063   4.209   3.844
 1881TIP3    H1 5649   1.146   4.241   3.810
 1881TIP3    H2 5650   1.065   4.230   3.937
 1882TIP3   OH2 5651   0.282   4.028   1.612
 1882TIP3    H1 5652   0.307   4.038   1.704
 1882TIP3    H2 5653   0.302   4.114   1.573
 1883TIP3   OH2 5654   5.141   5.213   4.014
 1883TIP3    H1 5655   5.095   5.134   3.985
 1883TIP3    H2 5656   5.124   5.218   4.108
 1884TIP3   OH2 5657   0.577   2.469   4.289
 1884TIP3    H1 5658   0.618   2.536   4.234
 1884TIP3    H2 5659   0.552   2.515   4.369
 1885TIP3   OH2 5660   0.647   5.912   2.142
 1885TIP3    H1 5661   0.591   5.976   2.098
 1885TIP3    H2 5662   0.586   5.850   2.182
 1886TIP3   OH2 5663   3.741   2.358   2.789
 1886TIP3    H1 5664   3.781   2.443   2.808
 1886TIP3    H2 5665   3.677   2.376   2.721
 1887TIP3   OH2 5666  -0.007   5.306   0.037
 1887TIP3    H1 5667   0.021   5.382  -0.013
 1887TIP3    H2 5668   0.057   5.299   0.107
 1888TIP3   OH2 5669   0.897   0.463   2.224
 1888TIP3    H1 5670   0.975   0.461   2.167
 1888TIP3    H2 5671   0.921   0.408   2.298
 1889TIP3   OH2 5672   2.095   0.112   2.974
 1889TIP3    H1 5673   2.094   0.151   2.887
 1889TIP3    H2 5674   2.149   0.171   3.027
 1890TIP3   OH2 5675   2.475   2.915   5.131
 1890TIP3    H1 5676   2.471   3.008   5.106
 1890TIP3    H2 5677   2.499   2.917   5.224
 1891TIP3   OH2 5678   3.120   5.100   1.341
 1891TIP3    H1 5679   3.108   5.183   1.387
 1891TIP3    H2 5680   3.211   5.075   1.358
 1892TIP3   OH2 5681   4.153   1.147   2.393
 1892TIP3    H1 5682   4.174   1.240   2.404
 1892TIP3    H2 5683   4.058   1.143   2.398
 1893TIP3   OH2 5684   5.540   5.221   0.686
 1893TIP3    H1 5685   5.528   5.304   0.641
 1893TIP3    H2 5686   5.545   5.156   0.616
 1894TIP3   OH2 5687   3.055   5.871   4.669
 1894TIP3    H1 5688   2.974   5.859   4.718
 1894TIP3    H2 5689   3.066   5.790   4.620
 1895TIP3   OH2 5690   5.144   5.366   1.994
 1895TIP3    H1 5691   5.091   5.363   2.074
 1895TIP3    H2 5692   5.203   5.440   2.008
 1896TIP3   OH2 5693   5.819   3.455   2.344
 1896TIP3    H1 5694   5.913   3.438   2.348
 1896TIP3    H2 5695   5.794   3.478   2.433
 1897TIP3   OH2 5696   0.267   4.162   1.990
 1897TIP3    H1 5697   0.224   4.076   1.988
 1897TIP3    H2 5698   0.343   4.151   1.933
 1898TIP3   OH2 5699   2.558   3.329   2.083
 1898TIP3    H1 5700   2.638   3.378   2.063
 1898TIP3    H2 5701   2.523   3.372   2.162
 1899TIP3   OH2 5702   0.346   1.282   3.279
 1899TIP3    H1 5703   0.396   1.331   3.344
 1899TIP3    H2 5704   0.258   1.275   3.317
 1900TIP3   OH2 5705   1.184   0.028   4.845
 1900TIP3    H1 5706   1.147  -0.038   4.788
 1900TIP3    H2 5707   1.114   0.092   4.858
 1901TIP3   OH2 5708   5.128   3.929   2.920
 1901TIP3    H1 5709   5.134   3.845   2.964
 1901TIP3    H2 5710   5.071   3.913   2.844
 1902TIP3   OH2 5711   3.346   3.832   2.449
 1902TIP3    H1 5712   3.372   3.770   2.382
 1902TIP3    H2 5713   3.423   3.841   2.506
 1903TIP3   OH2 5714   2.073   0.175   5.101
 1903TIP3    H1 5715   1.998   0.233   5.113
 1903TIP3    H2 5716   2.046   0.115   5.032
 1904TIP3   OH2 5717   6.246   4.869   0.121
 1904TIP3    H1 5718   6.200   4.786   0.111
 1904TIP3    H2 5719   6.260   4.900   0.031
 1905TIP3   OH2 5720   4.144   0.887   5.143
 1905TIP3    H1 5721   4.104   0.920   5.063
 1905TIP3    H2 5722   4.136   0.959   5.205
 1906TIP3   OH2 5723   0.379   4.013   0.099
 1906TIP3    H1 5724   0.314   4.081   0.081
 1906TIP3    H2 5725   0.442   4.055   0.157
 1907TIP3   OH2 5726   3.504   3.019   0.064
 1907TIP3    H1 5727   3.509   3.072   0.143
 1907TIP3    H2 5728   3.434   2.956   0.082
 1908TIP3   OH2 5729   2.821   2.781   4.738
 1908TIP3    H1 5730   2.847   2.775   4.646
 1908TIP3    H2 5731   2.806   2.874   4.753
 1909TIP3   OH2 5732   4.911   2.042   5.061
 1909TIP3    H1 5733   4.996   2.084   5.071
 1909TIP3    H2 5734   4.848   2.104   5.098
 1910TIP3   OH2 5735   1.667   2.346   1.117
 1910TIP3    H1 5736   1.731   2.293   1.165
 1910TIP3    H2 5737   1.715   2.426   1.093
 1911TIP3   OH2 5738   2.808   5.206   3.798
 1911TIP3    H1 5739   2.828   5.114   3.777
 1911TIP3    H2 5740   2.892   5.251   3.788
 1912TIP3   OH2 5741   1.777   1.843   0.884
 1912TIP3    H1 5742   1.804   1.759   0.922
 1912TIP3    H2 5743   1.682   1.833   0.873
 1913TIP3   OH2 5744   3.969   1.417   0.233
 1913TIP3    H1 5745   3.997   1.372   0.313
 1913TIP3    H2 5746   3.874   1.410   0.234
 1914TIP3   OH2 5747   3.602   2.270   5.050
 1914TIP3    H1 5748   3.687   2.314   5.043
 1914TIP3    H2 5749   3.588   2.232   4.964
 1915TIP3   OH2 5750   5.038   4.732   4.988
 1915TIP3    H1 5751   5.124   4.690   4.995
 1915TIP3    H2 5752   5.031   4.757   4.895
 1916TIP3   OH2 5753   4.031   3.633   3.953
 1916TIP3    H1 5754   4.107   3.609   4.006
 1916TIP3    H2 5755   4.063   3.627   3.862
 1917TIP3   OH2 5756   4.331   2.258   4.757
 1917TIP3    H1 5757   4.328   2.333   4.816
 1917TIP3    H2 5758   4.391   2.197   4.798
 1918TIP3   OH2 5759   6.133   3.728   4.485
 1918TIP3    H1 5760   6.062   3.669   4.509
 1918TIP3    H2 5761   6.210   3.671   4.479
 1919TIP3   OH2 5762   4.568   1.840   1.598
 1919TIP3    H1 5763   4.486   1.854   1.551
 1919TIP3    H2 5764   4.613   1.925   1.593
 1920TIP3   OH2 5765   5.241   3.781   2.241
 1920TIP3    H1 5766   5.166   3.752   2.189
 1920TIP3    H2 5767   5.303   3.708   2.237
 1921TIP3   OH2 5768   6.271   4.568   4.720
 1921TIP3    H1 5769   6.188   4.616   4.716
 1921TIP3    H2 5770   6.263   4.515   4.800
 1922TIP3   OH2 5771   5.617   3.937   5.125
 1922TIP3    H1 5772   5.605   3.954   5.032
 1922TIP3    H2 5773   5.638   4.022   5.163
 1923TIP3   OH2 5774   6.209   0.431   3.791
 1923TIP3    H1 5775   6.169   0.505   3.837
 1923TIP3    H2 5776   6.192   0.450   3.698
 1924TIP3   OH2 5777   5.678   2.418   2.475
 1924TIP3    H1 5778   5.625   2.496   2.457
 1924TIP3    H2 5779   5.615   2.346   2.472
 1925TIP3   OH2 5780   0.390   0.624   4.496
 1925TIP3    H1 5781   0.332   0.663   4.561
 1925TIP3    H2 5782   0.415   0.539   4.534
 1926TIP3   OH2 5783   2.190   0.123   3.564
 1926TIP3    H1 5784   2.157   0.179   3.634
 1926TIP3    H2 5785   2.278   0.156   3.546
 1927TIP3   OH2 5786   0.894   3.227   1.380
 1927TIP3    H1 5787   0.828   3.239   1.312
 1927TIP3    H2 5788   0.952   3.159   1.346
 1928TIP3   OH2 5789   0.933   2.369   2.243
 1928TIP3    H1 5790   0.852   2.411   2.213
 1928TIP3    H2 5791   1.001   2.434   2.226
 1929TIP3   OH2 5792   2.535   3.710   3.514
 1929TIP3    H1 5793   2.607   3.725   3.575
 1929TIP3    H2 5794   2.473   3.780   3.533
 1930TIP3   OH2 5795   1.342   0.920   0.037
 1930TIP3    H1 5796   1.343   1.016   0.031
 1930TIP3    H2 5797   1.316   0.902   0.127
 1931TIP3   OH2 5798   1.752   0.534   1.180
 1931TIP3    H1 5799   1.714   0.494   1.258
 1931TIP3    H2 5800   1.684   0.524   1.113
 1932TIP3   OH2 5801   4.271   1.137   4.951
 1932TIP3    H1 5802   4.287   1.145   5.045
 1932TIP3    H2 5803   4.175   1.132   4.943
 1933TIP3   OH2 5804   2.421   3.332   1.728
 1933TIP3    H1 5805   2.408   3.385   1.649
 1933TIP3    H2 5806   2.501   3.367   1.768
 1934TIP3   OH2 5807   1.836   4.482   5.095
 1934TIP3    H1 5808   1.795   4.416   5.039
 1934TIP3    H2 5809   1.762   4.525   5.138
 1935TIP3   OH2 5810   3.505   5.098   0.307
 1935TIP3    H1 5811   3.531   5.135   0.391
 1935TIP3    H2 5812   3.459   5.170   0.263
 1936TIP3   OH2 5813   0.228   0.906   3.275
 1936TIP3    H1 5814   0.280   0.972   3.230
 1936TIP3    H2 5815   0.256   0.823   3.236
 1937TIP3   OH2 5816   4.974   5.322   2.198
 1937TIP3    H1 5817   4.911   5.385   2.163
 1937TIP3    H2 5818   4.929   5.281   2.272
 1938TIP3   OH2 5819   0.297   4.297   0.766
 1938TIP3    H1 5820   0.386   4.264   0.754
 1938TIP3    H2 5821   0.303   4.391   0.748
 1939TIP3   OH2 5822   6.138   2.729   4.951
 1939TIP3    H1 5823   6.227   2.698   4.937
 1939TIP3    H2 5824   6.147   2.799   5.015
 1940TIP3   OH2 5825   1.560   2.144   4.291
 1940TIP3    H1 5826   1.647   2.129   4.327
 1940TIP3    H2 5827   1.520   2.057   4.286
 1941TIP3   OH2 5828   1.340   5.395   2.935
 1941TIP3    H1 5829   1.290   5.354   2.865
 1941TIP3    H2 5830   1.343   5.488   2.910
 1942TIP3   OH2 5831   5.559   2.400   2.067
 1942TIP3    H1 5832   5.511   2.319   2.085
 1942TIP3    H2 5833   5.564   2.443   2.153
 1943TIP3   OH2 5834   4.789   4.499   2.075
 1943TIP3    H1 5835   4.724   4.503   2.145
 1943TIP3    H2 5836   4.753   4.438   2.011
 1944TIP3   OH2 5837   5.248   5.320   2.963
 1944TIP3    H1 5838   5.333   5.333   3.005
 1944TIP3    H2 5839   5.199   5.264   3.023
 1945TIP3   OH2 5840   4.598   1.043   3.620
 1945TIP3    H1 5841   4.667   1.005   3.674
 1945TIP3    H2 5842   4.591   1.133   3.650
 1946TIP3   OH2 5843   5.365   4.495   3.336
 1946TIP3    H1 5844   5.319   4.573   3.303
 1946TIP3    H2 5845   5.308   4.422   3.312
 1947TIP3   OH2 5846   4.656   1.463   2.211
 1947TIP3    H1 5847   4.577   1.438   2.259
 1947TIP3    H2 5848   4.666   1.556   2.228
 1948TIP3   OH2 5849   2.250   1.624   1.202
 1948TIP3    H1 5850   2.287   1.700   1.156
 1948TIP3    H2 5851   2.262   1.644   1.295
 1949TIP3   OH2 5852   1.633   3.111   0.406
 1949TIP3    H1 5853   1.670   3.046   0.347
 1949TIP3    H2 5854   1.575   3.163   0.350
 1950TIP3   OH2 5855   5.958   3.441   3.112
 1950TIP3    H1 5856   5.865   3.433   3.130
 1950TIP3    H2 5857   5.995   3.480   3.191
 1951TIP3   OH2 5858   5.453   0.674   3.034
 1951TIP3    H1 5859   5.456   0.580   3.046
 1951TIP3    H2 5860   5.361   0.697   3.051
 1952TIP3   OH2 5861   1.449   2.237   3.709
 1952TIP3    H1 5862   1.436   2.205   3.620
 1952TIP3    H2 5863   1.362   2.239   3.747
 1953TIP3   OH2 5864   4.319   3.533   2.545
 1953TIP3    H1 5865   4.388   3.485   2.590
 1953TIP3    H2 5866   4.338   3.522   2.452
 1954TIP3   OH2 5867   4.481   2.306   0.942
 1954TIP3    H1 5868   4.451   2.363   0.871
 1954TIP3    H2 5869   4.403   2.254   0.965
 1955TIP3   OH2 5870   1.839   5.880   1.595
 1955TIP3    H1 5871   1.914   5.853   1.648
 1955TIP3    H2 5872   1.872   5.880   1.505
 1956TIP3   OH2 5873   4.500   3.039   4.955
 1956TIP3    H1 5874   4.473   3.010   4.868
 1956TIP3    H2 5875   4.593   3.058   4.947
 1957TIP3   OH2 5876   3.615   5.758   1.436
 1957TIP3    H1 5877   3.551   5.829   1.434
 1957TIP3    H2 5878   3.570   5.685   1.479
 1958TIP3   OH2 5879   4.560   3.302   0.189
 1958TIP3    H1 5880   4.606   3.248   0.124
 1958TIP3    H2 5881   4.471   3.267   0.190
 1959TIP3   OH2 5882   2.820   2.135   0.554
 1959TIP3    H1 5883   2.766   2.213   0.565
 1959TIP3    H2 5884   2.766   2.063   0.587
 1960TIP3   OH2 5885   1.853   3.968   4.862
 1960TIP3    H1 5886   1.839   3.990   4.770
 1960TIP3    H2 5887   1.932   4.017   4.886
 1961TIP3   OH2 5888   3.428   4.214   5.182
 1961TIP3    H1 5889   3.522   4.231   5.180
 1961TIP3    H2 5890   3.407   4.180   5.095
 1962TIP3   OH2 5891   6.334   0.749   2.538
 1962TIP3    H1 5892   6.322   0.704   2.622
 1962TIP3    H2 5893   6.246   0.778   2.515
 1963TIP3   OH2 5894   0.937   1.441   2.080
 1963TIP3    H1 5895   0.896   1.356   2.063
 1963TIP3    H2 5896   0.976   1.432   2.167
 1964TIP3   OH2 5897   4.201   0.707   2.827
 1964TIP3    H1 5898   4.109   0.693   2.847
 1964TIP3    H2 5899   4.215   0.664   2.743
 1965TIP3   OH2 5900   4.539   5.753   3.595
 1965TIP3    H1 5901   4.556   5.787   3.683
 1965TIP3    H2 5902   4.477   5.682   3.609
 1966TIP3   OH2 5903   5.112   5.787   4.735
 1966TIP3    H1 5904   5.205   5.786   4.756
 1966TIP3    H2 5905   5.092   5.879   4.719
 1967TIP3   OH2 5906   4.382   1.884   4.688
 1967TIP3    H1 5907   4.383   1.955   4.753
 1967TIP3    H2 5908   4.407   1.806   4.737
 1968TIP3   OH2 5909   4.464   4.293   0.858
 1968TIP3    H1 5910   4.445   4.207   0.821
 1968TIP3    H2 5911   4.524   4.334   0.794
 1969TIP3   OH2 5912   4.025   0.483   0.949
 1969TIP3    H1 5913   4.075   0.463   0.870
 1969TIP3    H2 5914   4.062   0.425   1.016
 1970TIP3   OH2 5915   2.894   0.283   1.616
 1970TIP3    H1 5916   2.967   0.280   1.677
 1970TIP3    H2 5917   2.926   0.237   1.538
 1971TIP3   OH2 5918   6.125   0.507   2.998
 1971TIP3    H1 5919   6.188   0.440   2.973
 1971TIP3    H2 5920   6.088   0.537   2.916
 1972TIP3   OH2 5921   4.175   2.801   4.913
 1972TIP3    H1 5922   4.184   2.875   4.972
 1972TIP3    H2 5923   4.120   2.834   4.841
 1973TIP3   OH2 5924   1.544   3.193   3.505
 1973TIP3    H1 5925   1.491   3.242   3.442
 1973TIP3    H2 5926   1.626   3.242   3.510
 1974TIP3   OH2 5927   2.793   2.923   3.953
 1974TIP3    H1 5928   2.709   2.966   3.946
 1974TIP3    H2 5929   2.852   2.976   3.899
 1975TIP3   OH2 5930   4.128   4.592   5.135
 1975TIP3    H1 5931   4.213   4.636   5.136
 1975TIP3    H2 5932   4.064   4.662   5.123
 1976TIP3   OH2 5933   1.265   3.170   2.467
 1976TIP3    H1 5934   1.259   3.229   2.392
 1976TIP3    H2 5935   1.178   3.131   2.475
 1977TIP3   OH2 5936   1.110   4.595   2.328
 1977TIP3    H1 5937   1.107   4.542   2.249
 1977TIP3    H2 5938   1.021   4.593   2.362
 1978TIP3   OH2 5939   6.034   2.081   2.922
 1978TIP3    H1 5940   6.027   2.023   2.846
 1978TIP3    H2 5941   5.990   2.162   2.895
 1979TIP3   OH2 5942   4.369   4.626   0.467
 1979TIP3    H1 5943   4.344   4.670   0.386
 1979TIP3    H2 5944   4.406   4.542   0.439
 1980TIP3   OH2 5945   1.372   4.026   0.228
 1980TIP3    H1 5946   1.403   4.003   0.140
 1980TIP3    H2 5947   1.387   4.120   0.235
 1981TIP3   OH2 5948   5.074   4.293   4.792
 1981TIP3    H1 5949   5.019   4.229   4.746
 1981TIP3    H2 5950   5.028   4.376   4.780
 1982TIP3   OH2 5951   1.168   4.997   1.959
 1982TIP3    H1 5952   1.178   5.072   2.017
 1982TIP3    H2 5953   1.089   4.953   1.991
 1983TIP3   OH2 5954   0.327   4.640   1.376
 1983TIP3    H1 5955   0.296   4.603   1.459
 1983TIP3    H2 5956   0.413   4.676   1.396
 1984TIP3   OH2 5957   1.986   0.370   4.110
 1984TIP3    H1 5958   2.054   0.332   4.165
 1984TIP3    H2 5959   1.922   0.300   4.099
 1985TIP3   OH2 5960   1.360   0.782   1.762
 1985TIP3    H1 5961   1.451   0.810   1.773
 1985TIP3    H2 5962   1.327   0.776   1.851
 1986TIP3   OH2 5963   2.647   0.822   2.049
 1986TIP3    H1 5964   2.699   0.823   1.969
 1986TIP3    H2 5965   2.688   0.887   2.106
 1987TIP3   OH2 5966   5.517   4.846   1.169
 1987TIP3    H1 5967   5.489   4.773   1.114
 1987TIP3    H2 5968   5.469   4.922   1.134
 1988TIP3   OH2 5969   1.621   1.326   3.183
 1988TIP3    H1 5970   1.613   1.249   3.238
 1988TIP3    H2 5971   1.706   1.317   3.140
 1989TIP3   OH2 5972   0.265   0.356   0.178
 1989TIP3    H1 5973   0.216   0.301   0.239
 1989TIP3    H2 5974   0.220   0.441   0.182
 1990TIP3   OH2 5975   1.360   1.233   2.652
 1990TIP3    H1 5976   1.396   1.290   2.720
 1990TIP3    H2 5977   1.285   1.282   2.618
 1991TIP3   OH2 5978   0.337   4.172   2.287
 1991TIP3    H1 5979   0.293   4.179   2.202
 1991TIP3    H2 5980   0.305   4.247   2.337
 1992TIP3   OH2 5981   3.482   1.816  -0.016
 1992TIP3    H1 5982   3.434   1.898  -0.012
 1992TIP3    H2 5983   3.489   1.787   0.075
 1993TIP3   OH2 5984   2.079   2.885   2.886
 1993TIP3    H1 5985   2.020   2.820   2.847
 1993TIP3    H2 5986   2.162   2.871   2.841
 1994TIP3   OH2 5987   3.812   0.365   1.682
 1994TIP3    H1 5988   3.843   0.304   1.615
 1994TIP3    H2 5989   3.838   0.324   1.765
 1995TIP3   OH2 5990   4.194   5.420   2.319
 1995TIP3    H1 5991   4.271   5.422   2.263
 1995TIP3    H2 5992   4.227   5.441   2.406
 1996TIP3   OH2 5993   4.556   0.594   1.326
 1996TIP3    H1 5994   4.557   0.676   1.374
 1996TIP3    H2 5995   4.532   0.528   1.392
 1997TIP3   OH2 5996   1.160   5.412   1.778
 1997TIP3    H1 5997   1.106   5.371   1.845
 1997TIP3    H2 5998   1.139   5.364   1.698
 1998TIP3   OH2 5999   4.062   5.073   0.601
 1998TIP3    H1 6000   4.099   5.105   0.683
 1998TIP3    H2 6001   4.122   5.004   0.572
 1999TIP3   OH2 6002   3.821   3.169   3.928
 1999TIP3    H1 6003   3.813   3.075   3.946
 1999TIP3    H2 6004   3.914   3.188   3.944
 2000TIP3   OH2 6005   1.702   1.822   2.031
 2000TIP3    H1 6006   1.744   1.906   2.048
 2000TIP3    H2 6007   1.764   1.757   2.063
 2001TIP3   OH2 6008   1.563   0.177   4.317
 2001TIP3    H1 6009   1.595   0.093   4.284
 2001TIP3    H2 6010   1.490   0.199   4.260
 2002TIP3   OH2 6011   3.962   0.115   0.730
 2002TIP3    H1 6012   4.046   0.081   0.701
 2002TIP3    H2 6013   3.969   0.119   0.826
 2003TIP3   OH2 6014   5.312   3.235   0.859
 2003TIP3    H1 6015   5.403   3.222   0.882
 2003TIP3    H2 6016   5.288   3.158   0.808
 2004TIP3   OH2 6017   4.299   0.116   2.719
 2004TIP3    H1 6018   4.246   0.195   2.703
 2004TIP3    H2 6019   4.235   0.048   2.739
 2005TIP3   OH2 6020   4.707   5.754   2.905
 2005TIP3    H1 6021   4.727   5.800   2.823
 2005TIP3    H2 6022   4.792   5.739   2.945
 2006TIP3   OH2 6023   5.226   1.000   4.516
 2006TIP3    H1 6024   5.258   0.993   4.606
 2006TIP3    H2 6025   5.135   0.973   4.520
 2007TIP3   OH2 6026   1.464   1.667   1.217
 2007TIP3    H1 6027   1.387   1.718   1.242
 2007TIP3    H2 6028   1.431   1.579   1.203
 2008TIP3   OH2 6029   2.576   4.956  -0.005
 2008TIP3    H1 6030   2.607   4.919  -0.087
 2008TIP3    H2 6031   2.640   5.024   0.017
 2009TIP3   OH2 6032   4.814   5.497   2.052
 2009TIP3    H1 6033   4.832   5.539   1.968
 2009TIP3    H2 6034   4.773   5.566   2.105
 2010TIP3   OH2 6035   4.470   0.143   3.723
 2010TIP3    H1 6036   4.502   0.066   3.772
 2010TIP3    H2 6037   4.453   0.110   3.635
 2011TIP3   OH2 6038   4.393   0.758   1.508
 2011TIP3    H1 6039   4.308   0.790   1.539
 2011TIP3    H2 6040   4.424   0.826   1.449
 2012TIP3   OH2 6041   1.864   4.631   2.390
 2012TIP3    H1 6042   1.927   4.703   2.386
 2012TIP3    H2 6043   1.903   4.561   2.339
 2013TIP3   OH2 6044   4.973   0.600   2.293
 2013TIP3    H1 6045   4.946   0.652   2.218
 2013TIP3    H2 6046   5.052   0.644   2.325
 2014TIP3   OH2 6047   0.190   5.014   2.215
 2014TIP3    H1 6048   0.105   4.995   2.175
 2014TIP3    H2 6049   0.170   5.031   2.307
 2015TIP3   OH2 6050   1.879   1.170   0.422
 2015TIP3    H1 6051   1.821   1.119   0.365
 2015TIP3    H2 6052   1.967   1.147   0.392
 2016TIP3   OH2 6053   2.281   5.095   0.705
 2016TIP3    H1 6054   2.305   5.024   0.765
 2016TIP3    H2 6055   2.221   5.150   0.756
 2017TIP3   OH2 6056   1.590   3.855   3.079
 2017TIP3    H1 6057   1.645   3.780   3.060
 2017TIP3    H2 6058   1.530   3.860   3.004
 2018TIP3   OH2 6059   0.456   4.219   4.977
 2018TIP3    H1 6060   0.485   4.236   4.888
 2018TIP3    H2 6061   0.362   4.238   4.975
 2019TIP3   OH2 6062   2.668   4.892   2.730
 2019TIP3    H1 6063   2.756   4.895   2.769
 2019TIP3    H2 6064   2.644   4.984   2.719
 2020TIP3   OH2 6065   1.167   2.882   0.367
 2020TIP3    H1 6066   1.226   2.949   0.333
 2020TIP3    H2 6067   1.219   2.833   0.430
 2021TIP3   OH2 6068   4.534   4.928   0.960
 2021TIP3    H1 6069   4.552   4.881   0.879
 2021TIP3    H2 6070   4.508   4.860   1.022
 2022TIP3   OH2 6071   4.995   1.471   3.227
 2022TIP3    H1 6072   4.944   1.392   3.210
 2022TIP3    H2 6073   4.931   1.535   3.258
 2023TIP3   OH2 6074   4.371   0.230   1.183
 2023TIP3    H1 6075   4.427   0.253   1.109
 2023TIP3    H2 6076   4.325   0.151   1.155
 2024TIP3   OH2 6077   4.043   5.798   2.391
 2024TIP3    H1 6078   3.991   5.720   2.378
 2024TIP3    H2 6079   3.983   5.871   2.376
 2025TIP3   OH2 6080   4.208   2.827   3.382
 2025TIP3    H1 6081   4.114   2.834   3.369
 2025TIP3    H2 6082   4.223   2.736   3.406
 2026TIP3   OH2 6083   1.562   0.670   1.033
 2026TIP3    H1 6084   1.565   0.720   1.115
 2026TIP3    H2 6085   1.629   0.710   0.978
 2027TIP3   OH2 6086   0.647   0.410   0.720
 2027TIP3    H1 6087   0.642   0.506   0.726
 2027TIP3    H2 6088   0.583   0.386   0.654
 2028TIP3   OH2 6089   6.306   3.340   0.503
 2028TIP3    H1 6090   6.347   3.427   0.500
 2028TIP3    H2 6091   6.377   3.279   0.482
 2029TIP3   OH2 6092   0.217   4.186   3.373
 2029TIP3    H1 6093   0.198   4.173   3.465
 2029TIP3    H2 6094   0.185   4.274   3.354
 2030TIP3   OH2 6095   3.556   3.359   4.402
 2030TIP3    H1 6096   3.537   3.451   4.421
 2030TIP3    H2 6097   3.635   3.362   4.348
 2031TIP3   OH2 6098   2.194   4.295   3.058
 2031TIP3    H1 6099   2.129   4.358   3.026
 2031TIP3    H2 6100   2.182   4.295   3.153
 2032TIP3   OH2 6101   4.330   3.917   2.821
 2032TIP3    H1 6102   4.346   4.005   2.789
 2032TIP3    H2 6103   4.333   3.925   2.916
 2033TIP3   OH2 6104   3.425   0.989   4.931
 2033TIP3    H1 6105   3.375   1.041   4.994
 2033TIP3    H2 6106   3.376   0.999   4.849
 2034TIP3   OH2 6107   1.782   1.643   4.740
 2034TIP3    H1 6108   1.759   1.700   4.666
 2034TIP3    H2 6109   1.783   1.701   4.816
 2035TIP3   OH2 6110   0.791   1.176   2.426
 2035TIP3    H1 6111   0.781   1.135   2.512
 2035TIP3    H2 6112   0.764   1.267   2.440
 2036TIP3   OH2 6113   2.235   2.678   3.058
 2036TIP3    H1 6114   2.318   2.642   3.088
 2036TIP3    H2 6115   2.258   2.759   3.013
 2037TIP3   OH2 6116   4.153   4.517   3.355
 2037TIP3    H1 6117   4.153   4.611   3.374
 2037TIP3    H2 6118   4.239   4.501   3.315
 2038TIP3   OH2 6119   5.630   3.172   3.220
 2038TIP3    H1 6120   5.570   3.118   3.168
 2038TIP3    H2 6121   5.717   3.150   3.189
 2039TIP3   OH2 6122   3.264   2.442   3.811
 2039TIP3    H1 6123   3.325   2.428   3.883
 2039TIP3    H2 6124   3.257   2.537   3.803
 2040TIP3   OH2 6125   5.435   1.182   4.300
 2040TIP3    H1 6126   5.520   1.139   4.288
 2040TIP3    H2 6127   5.425   1.238   4.224
 2041TIP3   OH2 6128   0.166   0.563   1.993
 2041TIP3    H1 6129   0.252   0.531   1.965
 2041TIP3    H2 6130   0.165   0.550   2.088
 2042TIP3   OH2 6131   2.369   0.193   4.122
 2042TIP3    H1 6132   2.307   0.224   4.188
 2042TIP3    H2 6133   2.361   0.256   4.050
 2043TIP3   OH2 6134   6.248   0.789   3.799
 2043TIP3    H1 6135   6.170   0.758   3.845
 2043TIP3    H2 6136   6.316   0.726   3.822
 2044TIP3   OH2 6137   4.702   0.814   3.423
 2044TIP3    H1 6138   4.753   0.828   3.503
 2044TIP3    H2 6139   4.767   0.822   3.352
 2045TIP3   OH2 6140   3.144   0.308   2.252
 2045TIP3    H1 6141   3.131   0.249   2.326
 2045TIP3    H2 6142   3.136   0.253   2.174
 2046TIP3   OH2 6143   3.319   3.346   3.312
 2046TIP3    H1 6144   3.333   3.427   3.263
 2046TIP3    H2 6145   3.255   3.369   3.379
 2047TIP3   OH2 6146   4.579   4.165   1.737
 2047TIP3    H1 6147   4.630   4.141   1.659
 2047TIP3    H2 6148   4.501   4.208   1.701
 2048TIP3   OH2 6149   5.852   3.356   1.312
 2048TIP3    H1 6150   5.783   3.296   1.340
 2048TIP3    H2 6151   5.919   3.348   1.379
 2049TIP3   OH2 6152   4.240   5.332   0.427
 2049TIP3    H1 6153   4.335   5.320   0.430
 2049TIP3    H2 6154   4.208   5.283   0.503
 2050TIP3   OH2 6155   2.918   2.192   3.099
 2050TIP3    H1 6156   2.976   2.267   3.111
 2050TIP3    H2 6157   2.975   2.125   3.061
 2051TIP3   OH2 6158   3.123   1.384   4.354
 2051TIP3    H1 6159   3.176   1.306   4.338
 2051TIP3    H2 6160   3.119   1.392   4.449
 2052TIP3   OH2 6161   1.347   3.955   4.723
 2052TIP3    H1 6162   1.348   3.884   4.659
 2052TIP3    H2 6163   1.298   4.025   4.680
 2053TIP3   OH2 6164   2.820   5.094   2.586
 2053TIP3    H1 6165   2.899   5.060   2.628
 2053TIP3    H2 6166   2.772   5.137   2.657
 2054TIP3   OH2 6167   1.070   2.464   1.112
 2054TIP3    H1 6168   1.063   2.385   1.166
 2054TIP3    H2 6169   1.005   2.452   1.043
 2055TIP3   OH2 6170   1.389   5.879   3.784
 2055TIP3    H1 6171   1.403   5.785   3.773
 2055TIP3    H2 6172   1.440   5.902   3.861
 2056TIP3   OH2 6173   0.437   0.382   2.719
 2056TIP3    H1 6174   0.433   0.453   2.783
 2056TIP3    H2 6175   0.478   0.421   2.642
 2057TIP3   OH2 6176   3.405   4.532   3.393
 2057TIP3    H1 6177   3.437   4.487   3.471
 2057TIP3    H2 6178   3.443   4.620   3.398
 2058TIP3   OH2 6179   5.300   2.443   1.128
 2058TIP3    H1 6180   5.314   2.427   1.035
 2058TIP3    H2 6181   5.238   2.515   1.131
 2059TIP3   OH2 6182   6.294   3.813   2.173
 2059TIP3    H1 6183   6.219   3.836   2.118
 2059TIP3    H2 6184   6.313   3.892   2.222
 2060TIP3   OH2 6185   0.651   5.974   0.800
 2060TIP3    H1 6186   0.693   5.947   0.718
 2060TIP3    H2 6187   0.724   5.991   0.859
 2061TIP3   OH2 6188   2.070   3.431   2.866
 2061TIP3    H1 6189   2.148   3.382   2.839
 2061TIP3    H2 6190   1.996   3.381   2.831
 2062TIP3   OH2 6191   3.169   1.403   2.930
 2062TIP3    H1 6192   3.078   1.413   2.902
 2062TIP3    H2 6193   3.218   1.459   2.870
 2063TIP3   OH2 6194   1.223   4.430   3.248
 2063TIP3    H1 6195   1.309   4.390   3.241
 2063TIP3    H2 6196   1.197   4.418   3.339
 2064TIP3   OH2 6197   0.102   5.216   4.843
 2064TIP3    H1 6198   0.120   5.148   4.778
 2064TIP3    H2 6199   0.184   5.265   4.850
 2065TIP3   OH2 6200   2.879   4.040   4.313
 2065TIP3    H1 6201   2.939   4.019   4.241
 2065TIP3    H2 6202   2.890   3.968   4.375
 2066TIP3   OH2 6203   6.122   0.837   4.859
 2066TIP3    H1 6204   6.176   0.913   4.881
 2066TIP3    H2 6205   6.059   0.871   4.794
 2067TIP3   OH2 6206   5.882   5.928   4.500
 2067TIP3    H1 6207   5.879   5.837   4.471
 2067TIP3    H2 6208   5.790   5.954   4.506
 2068TIP3   OH2 6209   3.622   0.910   4.663
 2068TIP3    H1 6210   3.576   0.848   4.720
 2068TIP3    H2 6211   3.632   0.989   4.715
 2069TIP3   OH2 6212   3.009   0.834   3.748
 2069TIP3    H1 6213   2.995   0.758   3.804
 2069TIP3    H2 6214   2.939   0.895   3.771
 2070TIP3   OH2 6215   2.646   0.701   4.062
 2070TIP3    H1 6216   2.619   0.792   4.052
 2070TIP3    H2 6217   2.628   0.681   4.153
 2071TIP3   OH2 6218   5.615   2.657   3.613
 2071TIP3    H1 6219   5.612   2.716   3.538
 2071TIP3    H2 6220   5.689   2.689   3.665
 2072TIP3   OH2 6221   0.419   5.201   0.191
 2072TIP3    H1 6222   0.433   5.174   0.100
 2072TIP3    H2 6223   0.354   5.271   0.186
 2073TIP3   OH2 6224   5.376   2.987   0.511
 2073TIP3    H1 6225   5.291   3.028   0.531
 2073TIP3    H2 6226   5.399   2.939   0.590
 2074TIP3   OH2 6227   3.098   2.544   0.379
 2074TIP3    H1 6228   3.116   2.635   0.402
 2074TIP3    H2 6229   3.144   2.531   0.296
 2075TIP3   OH2 6230   2.442   4.637   1.258
 2075TIP3    H1 6231   2.365   4.647   1.315
 2075TIP3    H2 6232   2.408   4.592   1.181
 2076TIP3   OH2 6233   4.443   0.883   0.795
 2076TIP3    H1 6234   4.400   0.966   0.775
 2076TIP3    H2 6235   4.411   0.860   0.882
 2077TIP3   OH2 6236   3.526   2.799   1.644
 2077TIP3    H1 6237   3.548   2.717   1.600
 2077TIP3    H2 6238   3.435   2.817   1.619
 2078TIP3   OH2 6239   4.185   4.655   2.074
 2078TIP3    H1 6240   4.166   4.564   2.098
 2078TIP3    H2 6241   4.272   4.651   2.035
 2079TIP3   OH2 6242   4.737   3.534   1.183
 2079TIP3    H1 6243   4.762   3.613   1.135
 2079TIP3    H2 6244   4.790   3.465   1.144
 2080TIP3   OH2 6245   3.884   3.213   1.872
 2080TIP3    H1 6246   3.840   3.168   1.944
 2080TIP3    H2 6247   3.976   3.190   1.881
 2081TIP3   OH2 6248   0.363   4.466   2.275
 2081TIP3    H1 6249   0.451   4.469   2.236
 2081TIP3    H2 6250   0.316   4.538   2.233
 2082TIP3   OH2 6251   5.700   3.702   4.639
 2082TIP3    H1 6252   5.720   3.760   4.713
 2082TIP3    H2 6253   5.605   3.705   4.631
 2083TIP3   OH2 6254   5.044   4.421   1.885
 2083TIP3    H1 6255   5.084   4.500   1.849
 2083TIP3    H2 6256   5.104   4.393   1.954
 2084TIP3   OH2 6257   0.619   0.827   0.145
 2084TIP3    H1 6258   0.606   0.860   0.234
 2084TIP3    H2 6259   0.712   0.837   0.129
 2085TIP3   OH2 6260   0.204   2.576   1.418
 2085TIP3    H1 6261   0.139   2.573   1.347
 2085TIP3    H2 6262   0.281   2.532   1.381
 2086TIP3   OH2 6263   4.111   2.568   3.455
 2086TIP3    H1 6264   4.107   2.489   3.401
 2086TIP3    H2 6265   4.035   2.620   3.427
 2087TIP3   OH2 6266   1.079   1.358   0.424
 2087TIP3    H1 6267   1.063   1.431   0.364
 2087TIP3    H2 6268   1.030   1.380   0.503
 2088TIP3   OH2 6269   1.483   5.398   2.207
 2088TIP3    H1 6270   1.577   5.408   2.193
 2088TIP3    H2 6271   1.447   5.379   2.121
 2089TIP3   OH2 6272   0.133   2.493   2.242
 2089TIP3    H1 6273   0.104   2.483   2.151
 2089TIP3    H2 6274   0.200   2.426   2.254
 2090TIP3   OH2 6275   3.320   4.328   2.320
 2090TIP3    H1 6276   3.275   4.402   2.279
 2090TIP3    H2 6277   3.281   4.251   2.278
 2091TIP3   OH2 6278   4.317   5.595   3.258
 2091TIP3    H1 6279   4.298   5.686   3.235
 2091TIP3    H2 6280   4.258   5.543   3.202
 2092TIP3   OH2 6281   0.493   3.589   4.404
 2092TIP3    H1 6282   0.434   3.632   4.465
 2092TIP3    H2 6283   0.436   3.548   4.338
 2093TIP3   OH2 6284   2.291   1.823   0.988
 2093TIP3    H1 6285   2.292   1.895   0.925
 2093TIP3    H2 6286   2.203   1.785   0.980
 2094TIP3   OH2 6287   0.152   5.320   2.744
 2094TIP3    H1 6288   0.073   5.294   2.793
 2094TIP3    H2 6289   0.220   5.325   2.811
 2095TIP3   OH2 6290   4.734   4.863   4.192
 2095TIP3    H1 6291   4.787   4.831   4.264
 2095TIP3    H2 6292   4.688   4.785   4.159
 2096TIP3   OH2 6293   2.361   0.565   4.110
 2096TIP3    H1 6294   2.280   0.595   4.150
 2096TIP3    H2 6295   2.429   0.588   4.173
 2097TIP3   OH2 6296   4.302   0.958   1.248
 2097TIP3    H1 6297   4.392   0.986   1.232
 2097TIP3    H2 6298   4.288   0.887   1.186
 2098TIP3   OH2 6299   3.974   2.643   1.774
 2098TIP3    H1 6300   3.952   2.605   1.689
 2098TIP3    H2 6301   4.048   2.591   1.805
 2099TIP3   OH2 6302   2.924   3.085   4.598
 2099TIP3    H1 6303   2.886   3.153   4.542
 2099TIP3    H2 6304   2.908   3.003   4.552
 2100TIP3   OH2 6305   3.869   3.920   0.044
 2100TIP3    H1 6306   3.930   3.868   0.095
 2100TIP3    H2 6307   3.815   3.855  -0.001
 2101TIP3   OH2 6308   2.005   1.783   2.530
 2101TIP3    H1 6309   1.943   1.821   2.468
 2101TIP3    H2 6310   1.965   1.797   2.615
 2102TIP3   OH2 6311   1.451   4.858   3.610
 2102TIP3    H1 6312   1.449   4.953   3.601
 2102TIP3    H2 6313   1.379   4.837   3.669
 2103TIP3   OH2 6314   2.871   2.705   4.123
 2103TIP3    H1 6315   2.836   2.734   4.207
 2103TIP3    H2 6316   2.829   2.762   4.059
 2104TIP3   OH2 6317   6.195   0.326   0.293
 2104TIP3    H1 6318   6.180   0.327   0.199
 2104TIP3    H2 6319   6.158   0.409   0.324
 2105TIP3   OH2 6320   2.589   0.798   4.408
 2105TIP3    H1 6321   2.506   0.838   4.433
 2105TIP3    H2 6322   2.615   0.846   4.329
 2106TIP3   OH2 6323   5.386   1.257   1.023
 2106TIP3    H1 6324   5.474   1.278   0.992
 2106TIP3    H2 6325   5.336   1.240   0.943
 2107TIP3   OH2 6326   0.149   3.933   0.209
 2107TIP3    H1 6327   0.235   3.908   0.177
 2107TIP3    H2 6328   0.166   3.991   0.283
 2108TIP3   OH2 6329   5.120   3.438   0.248
 2108TIP3    H1 6330   5.133   3.345   0.264
 2108TIP3    H2 6331   5.140   3.449   0.155
 2109TIP3   OH2 6332   6.271   2.032   1.032
 2109TIP3    H1 6333   6.204   2.072   0.976
 2109TIP3    H2 6334   6.229   1.952   1.066
 2110TIP3   OH2 6335   1.901   2.291   4.441
 2110TIP3    H1 6336   1.861   2.281   4.527
 2110TIP3    H2 6337   1.925   2.202   4.415
 2111TIP3   OH2 6338   1.673   5.309   4.853
 2111TIP3    H1 6339   1.708   5.269   4.772
 2111TIP3    H2 6340   1.722   5.390   4.862
 2112TIP3   OH2 6341   4.648   4.507   3.328
 2112TIP3    H1 6342   4.561   4.468   3.317
 2112TIP3    H2 6343   4.631   4.591   3.370
 2113TIP3   OH2 6344   2.424   2.722   4.723
 2113TIP3    H1 6345   2.373   2.788   4.769
 2113TIP3    H2 6346   2.435   2.651   4.787
 2114TIP3   OH2 6347   6.204   0.640   0.028
 2114TIP3    H1 6348   6.215   0.563  -0.027
 2114TIP3    H2 6349   6.257   0.708  -0.014
 2115TIP3   OH2 6350   0.473   4.988   2.542
 2115TIP3    H1 6351   0.447   5.076   2.569
 2115TIP3    H2 6352   0.499   4.997   2.450
 2116TIP3   OH2 6353   3.736   1.322   2.946
 2116TIP3    H1 6354   3.796   1.320   3.020
 2116TIP3    H2 6355   3.689   1.405   2.956
 2117TIP3   OH2 6356   3.233   4.662   4.641
 2117TIP3    H1 6357   3.141   4.660   4.665
 2117TIP3    H2 6358   3.252   4.575   4.607
 2118TIP3   OH2 6359   5.628   1.099   0.747
 2118TIP3    H1 6360   5.559   1.036   0.769
 2118TIP3    H2 6361   5.625   1.164   0.818
 2119TIP3   OH2 6362   1.525   0.788   2.961
 2119TIP3    H1 6363   1.580   0.856   2.923
 2119TIP3    H2 6364   1.480   0.748   2.886
 2120TIP3   OH2 6365   4.798   2.504   1.589
 2120TIP3    H1 6366   4.877   2.558   1.585
 2120TIP3    H2 6367   4.736   2.547   1.530
 2121TIP3   OH2 6368   2.401   5.657   2.136
 2121TIP3    H1 6369   2.417   5.574   2.181
 2121TIP3    H2 6370   2.410   5.724   2.204
 2122TIP3   OH2 6371   1.963   3.918   0.411
 2122TIP3    H1 6372   1.941   3.846   0.471
 2122TIP3    H2 6373   2.038   3.961   0.451
 2123TIP3   OH2 6374   0.743   3.905   0.340
 2123TIP3    H1 6375   0.815   3.842   0.345
 2123TIP3    H2 6376   0.682   3.868   0.276
 2124TIP3   OH2 6377   3.852   2.529   0.740
 2124TIP3    H1 6378   3.872   2.530   0.833
 2124TIP3    H2 6379   3.759   2.508   0.735
 2125TIP3   OH2 6380   3.180   3.522   1.295
 2125TIP3    H1 6381   3.085   3.529   1.302
 2125TIP3    H2 6382   3.208   3.494   1.382
 2126TIP3   OH2 6383   3.982   2.503   3.883
 2126TIP3    H1 6384   3.927   2.558   3.827
 2126TIP3    H2 6385   3.921   2.463   3.945
 2127TIP3   OH2 6386   2.920   2.908   1.478
 2127TIP3    H1 6387   2.969   2.843   1.429
 2127TIP3    H2 6388   2.891   2.971   1.412
 2128TIP3   OH2 6389   3.955   0.119   2.494
 2128TIP3    H1 6390   3.893   0.116   2.567
 2128TIP3    H2 6391   4.032   0.164   2.529
 2129TIP3   OH2 6392   3.120   0.728   0.254
 2129TIP3    H1 6393   3.199   0.738   0.201
 2129TIP3    H2 6394   3.141   0.772   0.337
 2130TIP3   OH2 6395   4.777   1.430   0.230
 2130TIP3    H1 6396   4.734   1.397   0.151
 2130TIP3    H2 6397   4.871   1.419   0.212
 2131TIP3   OH2 6398   1.596   4.430   1.575
 2131TIP3    H1 6399   1.625   4.519   1.556
 2131TIP3    H2 6400   1.675   4.377   1.570
 2132TIP3   OH2 6401   3.976   4.923   3.143
 2132TIP3    H1 6402   3.890   4.957   3.118
 2132TIP3    H2 6403   3.957   4.844   3.192
 2133TIP3   OH2 6404   3.847   5.875   2.947
 2133TIP3    H1 6405   3.767   5.837   2.912
 2133TIP3    H2 6406   3.827   5.896   3.038
 2134TIP3   OH2 6407   0.153   5.084   2.473
 2134TIP3    H1 6408   0.230   5.081   2.530
 2134TIP3    H2 6409   0.079   5.063   2.531
 2135TIP3   OH2 6410   1.084   1.417   4.244
 2135TIP3    H1 6411   1.170   1.412   4.203
 2135TIP3    H2 6412   1.051   1.327   4.242
 2136TIP3   OH2 6413   1.710   0.686   0.025
 2136TIP3    H1 6414   1.792   0.637   0.013
 2136TIP3    H2 6415   1.686   0.671   0.116
 2137TIP3   OH2 6416   1.611   5.716   4.337
 2137TIP3    H1 6417   1.635   5.741   4.426
 2137TIP3    H2 6418   1.533   5.767   4.318
 2138TIP3   OH2 6419   5.085   5.941   1.280
 2138TIP3    H1 6420   5.009   5.991   1.310
 2138TIP3    H2 6421   5.057   5.850   1.284
 2139TIP3   OH2 6422   3.076   3.076   3.273
 2139TIP3    H1 6423   3.011   3.144   3.289
 2139TIP3    H2 6424   3.080   3.068   3.178
 2140TIP3   OH2 6425   3.897   4.006   5.082
 2140TIP3    H1 6426   3.919   3.949   5.155
 2140TIP3    H2 6427   3.965   3.989   5.017
 2141TIP3   OH2 6428   0.653   0.759   2.259
 2141TIP3    H1 6429   0.560   0.746   2.244
 2141TIP3    H2 6430   0.696   0.721   2.182
 2142TIP3   OH2 6431   2.714   0.778   2.743
 2142TIP3    H1 6432   2.767   0.839   2.795
 2142TIP3    H2 6433   2.669   0.834   2.680
 2143TIP3   OH2 6434   1.204   0.993   2.582
 2143TIP3    H1 6435   1.210   1.084   2.553
 2143TIP3    H2 6436   1.221   0.997   2.676
 2144TIP3   OH2 6437   0.997   5.565   0.602
 2144TIP3    H1 6438   1.041   5.526   0.678
 2144TIP3    H2 6439   1.068   5.608   0.553
 2145TIP3   OH2 6440   3.149   5.219   2.402
 2145TIP3    H1 6441   3.175   5.223   2.310
 2145TIP3    H2 6442   3.182   5.300   2.440
 2146TIP3   OH2 6443   3.732   5.281   1.874
 2146TIP3    H1 6444   3.783   5.201   1.889
 2146TIP3    H2 6445   3.700   5.306   1.961
 2147TIP3   OH2 6446   2.525   2.510   4.896
 2147TIP3    H1 6447   2.614   2.500   4.930
 2147TIP3    H2 6448   2.475   2.547   4.970
 2148TIP3   OH2 6449   0.811   4.877   0.190
 2148TIP3    H1 6450   0.862   4.892   0.270
 2148TIP3    H2 6451   0.775   4.964   0.169
 2149TIP3   OH2 6452   5.790   1.887   1.916
 2149TIP3    H1 6453   5.874   1.925   1.942
 2149TIP3    H2 6454   5.810   1.795   1.899
 2150TIP3   OH2 6455   5.128   3.348   1.490
 2150TIP3    H1 6456   5.082   3.266   1.469
 2150TIP3    H2 6457   5.076   3.416   1.448
 2151TIP3   OH2 6458   2.306   0.194   4.948
 2151TIP3    H1 6459   2.234   0.201   5.010
 2151TIP3    H2 6460   2.292   0.110   4.904
 2152TIP3   OH2 6461   4.963   3.847   4.021
 2152TIP3    H1 6462   4.963   3.765   3.972
 2152TIP3    H2 6463   4.897   3.834   4.090
 2153TIP3   OH2 6464   3.353   5.502   3.930
 2153TIP3    H1 6465   3.413   5.575   3.947
 2153TIP3    H2 6466   3.305   5.491   4.012
 2154TIP3   OH2 6467   5.845   4.633   1.637
 2154TIP3    H1 6468   5.787   4.667   1.705
 2154TIP3    H2 6469   5.787   4.620   1.561
 2155TIP3   OH2 6470   3.150   0.657   1.994
 2155TIP3    H1 6471   3.069   0.615   1.964
 2155TIP3    H2 6472   3.198   0.587   2.038
 2156TIP3   OH2 6473   3.939   4.780   0.807
 2156TIP3    H1 6474   3.913   4.724   0.733
 2156TIP3    H2 6475   3.947   4.719   0.881
 2157TIP3   OH2 6476   5.765   2.935   4.887
 2157TIP3    H1 6477   5.851   2.977   4.898
 2157TIP3    H2 6478   5.715   2.996   4.834
 2158TIP3   OH2 6479   0.324   0.796   2.155
 2158TIP3    H1 6480   0.359   0.746   2.081
 2158TIP3    H2 6481   0.369   0.881   2.150
 2159TIP3   OH2 6482   5.620   2.323   4.928
 2159TIP3    H1 6483   5.578   2.290   5.007
 2159TIP3    H2 6484   5.560   2.301   4.857
 2160TIP3   OH2 6485   1.836   1.163   1.873
 2160TIP3    H1 6486   1.916   1.120   1.904
 2160TIP3    H2 6487   1.774   1.154   1.945
 2161TIP3   OH2 6488   4.193   3.347   1.538
 2161TIP3    H1 6489   4.205   3.371   1.630
 2161TIP3    H2 6490   4.138   3.268   1.541
 2162TIP3   OH2 6491   4.876   3.197   1.769
 2162TIP3    H1 6492   4.864   3.107   1.740
 2162TIP3    H2 6493   4.970   3.212   1.763
 2163TIP3   OH2 6494   4.821   1.883   4.437
 2163TIP3    H1 6495   4.819   1.977   4.454
 2163TIP3    H2 6496   4.911   1.866   4.409
 2164TIP3   OH2 6497   4.585   4.153   2.550
 2164TIP3    H1 6498   4.608   4.235   2.594
 2164TIP3    H2 6499   4.578   4.089   2.621
 2165TIP3   OH2 6500   1.465   5.069   2.541
 2165TIP3    H1 6501   1.371   5.073   2.557
 2165TIP3    H2 6502   1.505   5.076   2.628
 2166TIP3   OH2 6503   5.828   5.310   3.906
 2166TIP3    H1 6504   5.761   5.242   3.909
 2166TIP3    H2 6505   5.898   5.271   3.852
 2167TIP3   OH2 6506   4.126   3.135   3.359
 2167TIP3    H1 6507   4.032   3.126   3.342
 2167TIP3    H2 6508   4.136   3.114   3.451
 2168TIP3   OH2 6509   0.801   3.972   3.714
 2168TIP3    H1 6510   0.830   3.921   3.789
 2168TIP3    H2 6511   0.882   3.989   3.664
 2169TIP3   OH2 6512   4.233   2.892   2.259
 2169TIP3    H1 6513   4.147   2.930   2.276
 2169TIP3    H2 6514   4.216   2.812   2.210
 2170TIP3   OH2 6515   3.907   4.443   3.023
 2170TIP3    H1 6516   3.999   4.440   3.046
 2170TIP3    H2 6517   3.892   4.532   2.991
 2171TIP3   OH2 6518   6.237   5.093   1.129
 2171TIP3    H1 6519   6.165   5.133   1.079
 2171TIP3    H2 6520   6.275   5.029   1.070
 2172TIP3   OH2 6521   1.921   2.989   1.789
 2172TIP3    H1 6522   1.843   2.933   1.794
 2172TIP3    H2 6523   1.891   3.068   1.744
 2173TIP3   OH2 6524   3.557   0.684   3.177
 2173TIP3    H1 6525   3.639   0.703   3.222
 2173TIP3    H2 6526   3.555   0.746   3.104
 2174TIP3   OH2 6527   2.595   0.075   4.219
 2174TIP3    H1 6528   2.516   0.118   4.188
 2174TIP3    H2 6529   2.661   0.097   4.153
 2175TIP3   OH2 6530   6.236   3.601   0.407
 2175TIP3    H1 6531   6.143   3.581   0.394
 2175TIP3    H2 6532   6.263   3.643   0.326
 2176TIP3   OH2 6533   1.814   4.676   3.180
 2176TIP3    H1 6534   1.873   4.733   3.230
 2176TIP3    H2 6535   1.767   4.736   3.122
 2177TIP3   OH2 6536   2.954   0.114   0.451
 2177TIP3    H1 6537   3.044   0.144   0.460
 2177TIP3    H2 6538   2.919   0.166   0.379
 2178TIP3   OH2 6539   3.754   1.706   2.512
 2178TIP3    H1 6540   3.784   1.766   2.580
 2178TIP3    H2 6541   3.714   1.763   2.446
 2179TIP3   OH2 6542   2.458   1.335   0.613
 2179TIP3    H1 6543   2.449   1.285   0.532
 2179TIP3    H2 6544   2.416   1.419   0.594
 2180TIP3   OH2 6545   5.501   1.485   3.359
 2180TIP3    H1 6546   5.432   1.511   3.298
 2180TIP3    H2 6547   5.582   1.507   3.314
 2181TIP3   OH2 6548   1.789   4.437   2.983
 2181TIP3    H1 6549   1.884   4.429   2.994
 2181TIP3    H2 6550   1.778   4.506   2.916
 2182TIP3   OH2 6551   5.452   1.070   1.751
 2182TIP3    H1 6552   5.400   1.076   1.831
 2182TIP3    H2 6553   5.542   1.056   1.782
 2183TIP3   OH2 6554   4.956   5.503   4.150
 2183TIP3    H1 6555   5.024   5.446   4.116
 2183TIP3    H2 6556   4.992   5.539   4.231
 2184TIP3   OH2 6557   3.200   3.886   4.404
 2184TIP3    H1 6558   3.132   3.858   4.465
 2184TIP3    H2 6559   3.214   3.979   4.425
 2185TIP3   OH2 6560   5.276   2.080   3.489
 2185TIP3    H1 6561   5.316   2.018   3.550
 2185TIP3    H2 6562   5.335   2.079   3.413
 2186TIP3   OH2 6563   1.220   2.463   3.794
 2186TIP3    H1 6564   1.237   2.485   3.702
 2186TIP3    H2 6565   1.151   2.523   3.821
 2187TIP3   OH2 6566   2.052   5.106   3.809
 2187TIP3    H1 6567   1.987   5.036   3.810
 2187TIP3    H2 6568   2.024   5.164   3.738
 2188TIP3   OH2 6569   6.278   3.808   3.214
 2188TIP3    H1 6570   6.265   3.891   3.169
 2188TIP3    H2 6571   6.346   3.825   3.279
 2189TIP3   OH2 6572   4.211   4.579   0.150
 2189TIP3    H1 6573   4.135   4.541   0.195
 2189TIP3    H2 6574   4.177   4.603   0.064
 2190TIP3   OH2 6575   1.832   2.388   1.480
 2190TIP3    H1 6576   1.927   2.380   1.485
 2190TIP3    H2 6577   1.807   2.338   1.403
 2191TIP3   OH2 6578   0.416   2.882   1.024
 2191TIP3    H1 6579   0.361   2.827   1.080
 2191TIP3    H2 6580   0.384   2.864   0.935
 2192TIP3   OH2 6581   6.336   1.028   0.159
 2192TIP3    H1 6582   6.328   0.994   0.248
 2192TIP3    H2 6583   6.343   0.950   0.104
 2193TIP3   OH2 6584   4.604   1.059   2.959
 2193TIP3    H1 6585   4.550   0.991   2.920
 2193TIP3    H2 6586   4.670   1.011   3.009
 2194TIP3   OH2 6587   0.644   2.814   3.402
 2194TIP3    H1 6588   0.619   2.886   3.459
 2194TIP3    H2 6589   0.605   2.836   3.317
 2195TIP3   OH2 6590   1.352   3.729   0.966
 2195TIP3    H1 6591   1.375   3.709   1.057
 2195TIP3    H2 6592   1.348   3.643   0.924
 2196TIP3   OH2 6593   3.104   2.757   1.874
 2196TIP3    H1 6594   3.161   2.803   1.934
 2196TIP3    H2 6595   3.040   2.823   1.846
 2197TIP3   OH2 6596   1.435  -0.018   4.807
 2197TIP3    H1 6597   1.343  -0.010   4.831
 2197TIP3    H2 6598   1.435  -0.032   4.712
 2198TIP3   OH2 6599   0.930   3.456   3.745
 2198TIP3    H1 6600   0.972   3.502   3.817
 2198TIP3    H2 6601   0.878   3.522   3.701
 2199TIP3   OH2 6602   5.196   4.755   3.337
 2199TIP3    H1 6603   5.137   4.691   3.296
 2199TIP3    H2 6604   5.144   4.835   3.343
 2200TIP3   OH2 6605   0.382   5.579   4.416
 2200TIP3    H1 6606   0.392   5.671   4.391
 2200TIP3    H2 6607   0.289   5.569   4.434
 2201TIP3   OH2 6608   0.674   5.021   3.904
 2201TIP3    H1 6609   0.621   5.044   3.980
 2201TIP3    H2 6610   0.649   5.085   3.837
 2202TIP3   OH2 6611   1.897   5.558   4.454
 2202TIP3    H1 6612   1.892   5.647   4.489
 2202TIP3    H2 6613   1.906   5.571   4.359
 2203TIP3   OH2 6614   0.162   4.807   0.581
 2203TIP3    H1 6615   0.196   4.880   0.633
 2203TIP3    H2 6616   0.070   4.829   0.567
 2204TIP3   OH2 6617   5.956   3.436   4.124
 2204TIP3    H1 6618   6.002   3.359   4.090
 2204TIP3    H2 6619   5.921   3.479   4.046
 2205TIP3   OH2 6620   2.078   2.572   0.945
 2205TIP3    H1 6621   2.037   2.571   1.032
 2205TIP3    H2 6622   2.005   2.573   0.884
 2206TIP3   OH2 6623   5.631   1.031   3.096
 2206TIP3    H1 6624   5.704   1.058   3.042
 2206TIP3    H2 6625   5.622   0.937   3.080
 2207TIP3   OH2 6626   3.447   2.931   3.722
 2207TIP3    H1 6627   3.504   2.932   3.645
 2207TIP3    H2 6628   3.467   3.012   3.768
 2208TIP3   OH2 6629   2.029   2.765   0.195
 2208TIP3    H1 6630   2.099   2.766   0.261
 2208TIP3    H2 6631   2.031   2.676   0.159
 2209TIP3   OH2 6632   3.131   3.753   3.523
 2209TIP3    H1 6633   3.113   3.846   3.531
 2209TIP3    H2 6634   3.081   3.712   3.593
 2210TIP3   OH2 6635   3.241   2.157   5.082
 2210TIP3    H1 6636   3.227   2.156   4.987
 2210TIP3    H2 6637   3.205   2.240   5.111
 2211TIP3   OH2 6638   1.445   3.934   3.586
 2211TIP3    H1 6639   1.436   3.969   3.497
 2211TIP3    H2 6640   1.453   3.840   3.574
 2212TIP3   OH2 6641   2.210   4.778   1.751
 2212TIP3    H1 6642   2.177   4.730   1.675
 2212TIP3    H2 6643   2.139   4.838   1.774
 2213TIP3   OH2 6644   5.185   0.966   0.872
 2213TIP3    H1 6645   5.189   0.883   0.920
 2213TIP3    H2 6646   5.276   0.994   0.866
 2214TIP3   OH2 6647   5.764   2.723   1.698
 2214TIP3    H1 6648   5.838   2.667   1.724
 2214TIP3    H2 6649   5.699   2.662   1.665
 2215TIP3   OH2 6650   0.756   2.623   1.185
 2215TIP3    H1 6651   0.709   2.653   1.107
 2215TIP3    H2 6652   0.794   2.703   1.222
 2216TIP3   OH2 6653   2.450   4.461   1.015
 2216TIP3    H1 6654   2.356   4.479   1.028
 2216TIP3    H2 6655   2.462   4.372   1.046
 2217TIP3   OH2 6656   0.475   0.437   0.519
 2217TIP3    H1 6657   0.447   0.528   0.515
 2217TIP3    H2 6658   0.499   0.415   0.429
 2218TIP3   OH2 6659   0.009   3.682   1.162
 2218TIP3    H1 6660   0.023   3.771   1.195
 2218TIP3    H2 6661   0.057   3.680   1.079
 2219TIP3   OH2 6662   1.536   5.473   3.502
 2219TIP3    H1 6663   1.583   5.504   3.580
 2219TIP3    H2 6664   1.582   5.394   3.476
 2220TIP3   OH2 6665   0.068   0.089   2.075
 2220TIP3    H1 6666   0.119   0.008   2.069
 2220TIP3    H2 6667   0.131   0.158   2.055
 2221TIP3   OH2 6668   3.416   1.356   1.420
 2221TIP3    H1 6669   3.469   1.312   1.354
 2221TIP3    H2 6670   3.475   1.422   1.457
 2222TIP3   OH2 6671   6.238   3.390   3.897
 2222TIP3    H1 6672   6.157   3.362   3.939
 2222TIP3    H2 6673   6.211   3.417   3.809
 2223TIP3   OH2 6674   5.756   2.884   0.750
 2223TIP3    H1 6675   5.703   2.956   0.783
 2223TIP3    H2 6676   5.695   2.832   0.696
 2224TIP3   OH2 6677   4.811   5.896   1.111
 2224TIP3    H1 6678   4.747   5.960   1.081
 2224TIP3    H2 6679   4.848   5.860   1.030
 2225TIP3   OH2 6680   2.667   2.663   0.705
 2225TIP3    H1 6681   2.593   2.680   0.647
 2225TIP3    H2 6682   2.666   2.569   0.719
 2226TIP3   OH2 6683   0.728   1.444   2.474
 2226TIP3    H1 6684   0.778   1.525   2.469
 2226TIP3    H2 6685   0.672   1.455   2.550
 2227TIP3   OH2 6686   2.221   4.839   3.744
 2227TIP3    H1 6687   2.273   4.772   3.789
 2227TIP3    H2 6688   2.227   4.916   3.800
 2228TIP3   OH2 6689   0.748   5.383   0.440
 2228TIP3    H1 6690   0.663   5.351   0.470
 2228TIP3    H2 6691   0.735   5.478   0.431
 2229TIP3   OH2 6692   4.596   0.053   4.411
 2229TIP3    H1 6693   4.615   0.072   4.320
 2229TIP3    H2 6694   4.592   0.138   4.454
 2230TIP3   OH2 6695   4.059   4.029   0.410
 2230TIP3    H1 6696   3.967   4.042   0.435
 2230TIP3    H2 6697   4.073   4.092   0.339
 2231TIP3   OH2 6698   1.664   2.837   3.606
 2231TIP3    H1 6699   1.653   2.743   3.592
 2231TIP3    H2 6700   1.740   2.860   3.553
 2232TIP3   OH2 6701   3.464   2.762   1.167
 2232TIP3    H1 6702   3.478   2.854   1.188
 2232TIP3    H2 6703   3.543   2.717   1.196
 2233TIP3   OH2 6704   1.556   4.129   4.793
 2233TIP3    H1 6705   1.576   4.045   4.751
 2233TIP3    H2 6706   1.487   4.167   4.737
 2234TIP3   OH2 6707   0.888   5.097   0.745
 2234TIP3    H1 6708   0.803   5.100   0.790
 2234TIP3    H2 6709   0.881   5.164   0.677
 2235TIP3   OH2 6710   5.580   4.505   2.101
 2235TIP3    H1 6711   5.508   4.451   2.134
 2235TIP3    H2 6712   5.562   4.592   2.136
 2236TIP3   OH2 6713   4.450   0.463   3.346
 2236TIP3    H1 6714   4.413   0.502   3.267
 2236TIP3    H2 6715   4.517   0.402   3.313
 2237TIP3   OH2 6716   1.611   5.421   2.781
 2237TIP3    H1 6717   1.656   5.441   2.699
 2237TIP3    H2 6718   1.570   5.336   2.766
 2238TIP3   OH2 6719   3.686   1.044   0.873
 2238TIP3    H1 6720   3.702   0.968   0.930
 2238TIP3    H2 6721   3.773   1.067   0.839
 2239TIP3   OH2 6722   0.555   1.937   3.995
 2239TIP3    H1 6723   0.543   1.989   3.915
 2239TIP3    H2 6724   0.645   1.957   4.023
 2240TIP3   OH2 6725   1.794   0.354   4.766
 2240TIP3    H1 6726   1.789   0.310   4.681
 2240TIP3    H2 6727   1.880   0.396   4.766
 2241TIP3   OH2 6728   6.066   5.272   0.073
 2241TIP3    H1 6729   6.054   5.286  -0.021
 2241TIP3    H2 6730   6.160   5.279   0.087
 2242TIP3   OH2 6731   5.757   2.469   3.393
 2242TIP3    H1 6732   5.681   2.456   3.450
 2242TIP3    H2 6733   5.784   2.559   3.410
 2243TIP3   OH2 6734   4.455   1.156   1.401
 2243TIP3    H1 6735   4.531   1.188   1.451
 2243TIP3    H2 6736   4.489   1.143   1.313
 2244TIP3   OH2 6737   1.977   3.343   0.119
 2244TIP3    H1 6738   1.890   3.380   0.135
 2244TIP3    H2 6739   1.960   3.267   0.063
 2245TIP3   OH2 6740   0.873   1.146   2.703
 2245TIP3    H1 6741   0.795   1.194   2.731
 2245TIP3    H2 6742   0.946   1.199   2.734
 2246TIP3   OH2 6743   1.318   0.143   3.732
 2246TIP3    H1 6744   1.368   0.112   3.807
 2246TIP3    H2 6745   1.368   0.217   3.698
 2247TIP3   OH2 6746   6.300   0.791   4.616
 2247TIP3    H1 6747   6.240   0.784   4.690
 2247TIP3    H2 6748   6.374   0.736   4.640
 2248TIP3   OH2 6749   0.269   4.785   1.952
 2248TIP3    H1 6750   0.292   4.693   1.963
 2248TIP3    H2 6751   0.311   4.829   2.026
 2249TIP3   OH2 6752   4.476   3.963   4.937
 2249TIP3    H1 6753   4.398   3.928   4.979
 2249TIP3    H2 6754   4.534   3.986   5.010
 2250TIP3   OH2 6755   0.790   4.004   1.490
 2250TIP3    H1 6756   0.723   4.001   1.422
 2250TIP3    H2 6757   0.844   3.926   1.475
 2251TIP3   OH2 6758   2.760   0.981   0.532
 2251TIP3    H1 6759   2.764   1.014   0.621
 2251TIP3    H2 6760   2.821   1.036   0.483
 2252TIP3   OH2 6761   2.603   2.329   2.783
 2252TIP3    H1 6762   2.699   2.322   2.781
 2252TIP3    H2 6763   2.579   2.359   2.695
 2253TIP3   OH2 6764   1.316   1.210   0.395
 2253TIP3    H1 6765   1.357   1.296   0.401
 2253TIP3    H2 6766   1.222   1.227   0.403
 2254TIP3   OH2 6767   3.606   1.558   2.311
 2254TIP3    H1 6768   3.557   1.625   2.264
 2254TIP3    H2 6769   3.635   1.601   2.391
 2255TIP3   OH2 6770   0.707   5.633   0.341
 2255TIP3    H1 6771   0.723   5.703   0.404
 2255TIP3    H2 6772   0.666   5.677   0.266
 2256TIP3   OH2 6773   6.009   3.333   4.680
 2256TIP3    H1 6774   6.005   3.427   4.661
 2256TIP3    H2 6775   6.102   3.314   4.688
 2257TIP3   OH2 6776   4.098   5.375   4.995
 2257TIP3    H1 6777   4.083   5.370   4.901
 2257TIP3    H2 6778   4.191   5.355   5.005
 2258TIP3   OH2 6779   4.877   2.904   0.108
 2258TIP3    H1 6780   4.948   2.904   0.173
 2258TIP3    H2 6781   4.818   2.835   0.138
 2259TIP3   OH2 6782   5.263   2.380   1.401
 2259TIP3    H1 6783   5.345   2.336   1.421
 2259TIP3    H2 6784   5.265   2.393   1.306
 2260TIP3   OH2 6785   5.273   2.037   2.576
 2260TIP3    H1 6786   5.272   2.108   2.640
 2260TIP3    H2 6787   5.184   2.002   2.577
 2261TIP3   OH2 6788   4.191   0.465   0.703
 2261TIP3    H1 6789   4.185   0.559   0.688
 2261TIP3    H2 6790   4.139   0.426   0.633
 2262TIP3   OH2 6791   5.499   5.455   0.585
 2262TIP3    H1 6792   5.436   5.517   0.547
 2262TIP3    H2 6793   5.580   5.471   0.537
 2263TIP3   OH2 6794   3.959   2.239   3.005
 2263TIP3    H1 6795   3.986   2.198   2.924
 2263TIP3    H2 6796   3.983   2.331   2.995
 2264TIP3   OH2 6797   4.635   2.783   3.935
 2264TIP3    H1 6798   4.586   2.713   3.978
 2264TIP3    H2 6799   4.636   2.854   3.998
 2265TIP3   OH2 6800   1.468   1.111   2.927
 2265TIP3    H1 6801   1.496   1.200   2.906
 2265TIP3    H2 6802   1.548   1.059   2.925
 2266TIP3   OH2 6803   4.669   4.948   2.322
 2266TIP3    H1 6804   4.654   4.878   2.257
 2266TIP3    H2 6805   4.638   4.911   2.404
 2267TIP3   OH2 6806   1.297   1.664   4.674
 2267TIP3    H1 6807   1.288   1.750   4.634
 2267TIP3    H2 6808   1.225   1.613   4.637
 2268TIP3   OH2 6809   5.829   5.175   0.105
 2268TIP3    H1 6810   5.924   5.180   0.091
 2268TIP3    H2 6811   5.791   5.220   0.029
 2269TIP3   OH2 6812   0.739   1.122   0.134
 2269TIP3    H1 6813   0.750   1.116   0.039
 2269TIP3    H2 6814   0.662   1.177   0.145
 2270TIP3   OH2 6815   2.655   3.806   4.736
 2270TIP3    H1 6816   2.687   3.737   4.677
 2270TIP3    H2 6817   2.709   3.796   4.815
 2271TIP3   OH2 6818   0.536   5.125   0.918
 2271TIP3    H1 6819   0.572   5.203   0.876
 2271TIP3    H2 6820   0.528   5.148   1.010
 2272TIP3   OH2 6821   2.471   1.590   3.243
 2272TIP3    H1 6822   2.440   1.505   3.274
 2272TIP3    H2 6823   2.561   1.574   3.216
 2273TIP3   OH2 6824   0.422   1.998   2.417
 2273TIP3    H1 6825   0.508   2.025   2.448
 2273TIP3    H2 6826   0.437   1.963   2.330
 2274TIP3   OH2 6827   1.129   4.074   0.041
 2274TIP3    H1 6828   1.040   4.059   0.074
 2274TIP3    H2 6829   1.145   4.167   0.056
 2275TIP3   OH2 6830   2.441   4.090   3.669
 2275TIP3    H1 6831   2.392   4.009   3.654
 2275TIP3    H2 6832   2.503   4.095   3.596
 2276TIP3   OH2 6833   3.757   0.873   4.185
 2276TIP3    H1 6834   3.846   0.897   4.159
 2276TIP3    H2 6835   3.769   0.812   4.259
 2277TIP3   OH2 6836   3.922   3.539   2.583
 2277TIP3    H1 6837   3.833   3.513   2.607
 2277TIP3    H2 6838   3.972   3.457   2.585
 2278TIP3   OH2 6839   1.917   2.461   2.978
 2278TIP3    H1 6840   1.847   2.405   3.011
 2278TIP3    H2 6841   1.921   2.441   2.884
 2279TIP3   OH2 6842   4.409   0.680   0.624
 2279TIP3    H1 6843   4.412   0.754   0.684
 2279TIP3    H2 6844   4.385   0.718   0.539
 2280TIP3   OH2 6845   5.124   2.096   2.287
 2280TIP3    H1 6846   5.203   2.042   2.291
 2280TIP3    H2 6847   5.053   2.039   2.317
 2281TIP3   OH2 6848   4.590   1.379   0.045
 2281TIP3    H1 6849   4.501   1.387   0.011
 2281TIP3    H2 6850   4.645   1.412  -0.026
 2282TIP3   OH2 6851   1.418   1.547   0.901
 2282TIP3    H1 6852   1.406   1.516   0.990
 2282TIP3    H2 6853   1.447   1.638   0.911
 2283TIP3   OH2 6854   1.647   1.444   1.531
 2283TIP3    H1 6855   1.666   1.361   1.574
 2283TIP3    H2 6856   1.700   1.508   1.579
 2284TIP3   OH2 6857   4.133   2.789   2.603
 2284TIP3    H1 6858   4.198   2.720   2.618
 2284TIP3    H2 6859   4.179   2.854   2.550
 2285TIP3   OH2 6860   3.674   2.777   3.315
 2285TIP3    H1 6861   3.647   2.855   3.266
 2285TIP3    H2 6862   3.605   2.713   3.298
 2286TIP3   OH2 6863   4.202   0.314   3.187
 2286TIP3    H1 6864   4.201   0.400   3.145
 2286TIP3    H2 6865   4.294   0.289   3.187
 2287TIP3   OH2 6866   5.834   2.496   4.344
 2287TIP3    H1 6867   5.866   2.477   4.256
 2287TIP3    H2 6868   5.864   2.585   4.362
 2288TIP3   OH2 6869   4.805   4.272   4.968
 2288TIP3    H1 6870   4.814   4.236   4.880
 2288TIP3    H2 6871   4.861   4.217   5.023
 2289TIP3   OH2 6872   3.634   0.096   1.084
 2289TIP3    H1 6873   3.595   0.175   1.046
 2289TIP3    H2 6874   3.600   0.024   1.030
 2290TIP3   OH2 6875   6.330   3.130   3.961
 2290TIP3    H1 6876   6.281   3.050   3.944
 2290TIP3    H2 6877   6.334   3.137   4.057
 2291TIP3   OH2 6878   6.283   4.948   0.528
 2291TIP3    H1 6879   6.316   5.016   0.469
 2291TIP3    H2 6880   6.188   4.954   0.521
 2292TIP3   OH2 6881   4.397   0.591   2.206
 2292TIP3    H1 6882   4.386   0.563   2.297
 2292TIP3    H2 6883   4.344   0.529   2.156
 2293TIP3   OH2 6884   2.356   5.940   3.515
 2293TIP3    H1 6885   2.403   5.928   3.433
 2293TIP3    H2 6886   2.410   5.895   3.580
 2294TIP3   OH2 6887   0.355   1.635   0.597
 2294TIP3    H1 6888   0.320   1.723   0.585
 2294TIP3    H2 6889   0.360   1.624   0.692
 2295TIP3   OH2 6890   5.921   2.428   4.076
 2295TIP3    H1 6891   5.933   2.430   3.981
 2295TIP3    H2 6892   5.999   2.383   4.109
 2296TIP3   OH2 6893   5.081   5.629   3.522
 2296TIP3    H1 6894   5.141   5.575   3.470
 2296TIP3    H2 6895   5.135   5.661   3.594
 2297TIP3   OH2 6896   6.095   4.433   2.259
 2297TIP3    H1 6897   6.023   4.431   2.323
 2297TIP3    H2 6898   6.056   4.401   2.178
 2298TIP3   OH2 6899   4.580   5.033   1.795
 2298TIP3    H1 6900   4.583   5.093   1.721
 2298TIP3    H2 6901   4.665   5.043   1.838
 2299TIP3   OH2 6902   2.972   4.389   3.549
 2299TIP3    H1 6903   3.048   4.432   3.588
 2299TIP3    H2 6904   2.925   4.351   3.623
 2300TIP3   OH2 6905   0.136   0.547   5.178
 2300TIP3    H1 6906   0.050   0.547   5.135
 2300TIP3    H2 6907   0.183   0.621   5.138
 2301TIP3   OH2 6908   1.589   5.063   4.970
 2301TIP3    H1 6909   1.628   5.149   4.987
 2301TIP3    H2 6910   1.577   5.060   4.875
 2302TIP3   OH2 6911   2.725   1.739   4.287
 2302TIP3    H1 6912   2.720   1.810   4.350
 2302TIP3    H2 6913   2.686   1.775   4.207
 2303TIP3   OH2 6914   0.221   3.136   2.765
 2303TIP3    H1 6915   0.222   3.227   2.794
 2303TIP3    H2 6916   0.309   3.103   2.784
 2304TIP3   OH2 6917   1.126   0.421   0.907
 2304TIP3    H1 6918   1.040   0.450   0.940
 2304TIP3    H2 6919   1.136   0.469   0.824
 2305TIP3   OH2 6920   2.971   1.033   4.652
 2305TIP3    H1 6921   2.919   1.114   4.645
 2305TIP3    H2 6922   2.919   0.967   4.608
 2306TIP3   OH2 6923   5.296   0.914   4.182
 2306TIP3    H1 6924   5.391   0.915   4.196
 2306TIP3    H2 6925   5.259   0.954   4.260
 2307TIP3   OH2 6926   5.731   1.711   4.167
 2307TIP3    H1 6927   5.666   1.662   4.117
 2307TIP3    H2 6928   5.729   1.799   4.129
 2308TIP3   OH2 6929   3.898   5.449   3.865
 2308TIP3    H1 6930   3.934   5.523   3.816
 2308TIP3    H2 6931   3.847   5.400   3.801
 2309TIP3   OH2 6932   3.292   3.998   1.177
 2309TIP3    H1 6933   3.315   3.961   1.262
 2309TIP3    H2 6934   3.269   4.088   1.196
 2310TIP3   OH2 6935   2.239   1.375   2.092
 2310TIP3    H1 6936   2.162   1.375   2.149
 2310TIP3    H2 6937   2.209   1.335   2.011
 2311TIP3   OH2 6938   0.791   2.858   2.341
 2311TIP3    H1 6939   0.700   2.873   2.365
 2311TIP3    H2 6940   0.803   2.763   2.346
 2312TIP3   OH2 6941   1.942   2.962   3.696
 2312TIP3    H1 6942   1.920   2.930   3.608
 2312TIP3    H2 6943   1.866   2.940   3.749
 2313TIP3   OH2 6944   0.739   2.305   1.737
 2313TIP3    H1 6945   0.769   2.215   1.722
 2313TIP3    H2 6946   0.734   2.344   1.650
 2314TIP3   OH2 6947   6.309   1.789   0.514
 2314TIP3    H1 6948   6.340   1.862   0.461
 2314TIP3    H2 6949   6.336   1.809   0.603
 2315TIP3   OH2 6950   4.890   5.233   2.732
 2315TIP3    H1 6951   4.978   5.251   2.698
 2315TIP3    H2 6952   4.843   5.316   2.723
 2316TIP3   OH2 6953   0.567   1.808   3.338
 2316TIP3    H1 6954   0.594   1.862   3.412
 2316TIP3    H2 6955   0.643   1.809   3.279
 2317TIP3   OH2 6956   0.971   5.672   1.328
 2317TIP3    H1 6957   1.009   5.584   1.319
 2317TIP3    H2 6958   1.045   5.728   1.349
 2318TIP3   OH2 6959   3.957   2.160   1.203
 2318TIP3    H1 6960   3.884   2.121   1.252
 2318TIP3    H2 6961   4.032   2.153   1.263
 2319TIP3   OH2 6962   2.077   1.286   1.581
 2319TIP3    H1 6963   2.026   1.221   1.533
 2319TIP3    H2 6964   2.044   1.370   1.551
 2320TIP3   OH2 6965   0.830   1.286   4.745
 2320TIP3    H1 6966   0.827   1.242   4.660
 2320TIP3    H2 6967   0.856   1.218   4.807
 2321TIP3   OH2 6968   6.281   4.387   3.363
 2321TIP3    H1 6969   6.373   4.382   3.388
 2321TIP3    H2 6970   6.280   4.448   3.289
 2322TIP3   OH2 6971   4.415   1.248   3.209
 2322TIP3    H1 6972   4.477   1.265   3.139
 2322TIP3    H2 6973   4.436   1.159   3.239
 2323TIP3   OH2 6974   0.452   0.237   3.573
 2323TIP3    H1 6975   0.503   0.271   3.647
 2323TIP3    H2 6976   0.487   0.148   3.559
 2324TIP3   OH2 6977   6.254   3.738   1.843
 2324TIP3    H1 6978   6.163   3.712   1.859
 2324TIP3    H2 6979   6.251   3.789   1.762
 2325TIP3   OH2 6980   3.598   1.566   0.799
 2325TIP3    H1 6981   3.574   1.473   0.807
 2325TIP3    H2 6982   3.517   1.613   0.815
 2326TIP3   OH2 6983   0.763   3.278   3.870
 2326TIP3    H1 6984   0.824   3.323   3.812
 2326TIP3    H2 6985   0.818   3.232   3.933
 2327TIP3   OH2 6986   2.718   1.203   5.171
 2327TIP3    H1 6987   2.640   1.254   5.148
 2327TIP3    H2 6988   2.769   1.201   5.090
 2328TIP3   OH2 6989   1.664   0.472   3.125
 2328TIP3    H1 6990   1.749   0.462   3.082
 2328TIP3    H2 6991   1.602   0.481   3.053
 2329TIP3   OH2 6992   5.191   5.775   0.753
 2329TIP3    H1 6993   5.269   5.747   0.801
 2329TIP3    H2 6994   5.136   5.818   0.818
 2330TIP3   OH2 6995   3.757   1.951   2.736
 2330TIP3    H1 6996   3.753   1.908   2.821
 2330TIP3    H2 6997   3.828   2.015   2.744
 2331TIP3   OH2 6998   2.906   4.088   1.769
 2331TIP3    H1 6999   2.923   4.175   1.804
 2331TIP3    H2 7000   2.993   4.057   1.740
 2332TIP3   OH2 7001   2.637   4.062   4.838
 2332TIP3    H1 7002   2.561   4.094   4.886
 2332TIP3    H2 7003   2.612   3.974   4.809
 2333TIP3   OH2 7004   2.575   0.125   3.066
 2333TIP3    H1 7005   2.582   0.159   3.155
 2333TIP3    H2 7006   2.535   0.039   3.076
 2334TIP3   OH2 7007   0.460   0.508   5.109
 2334TIP3    H1 7008   0.468   0.452   5.186
 2334TIP3    H2 7009   0.449   0.447   5.036
 2335TIP3   OH2 7010   2.766   1.478   2.233
 2335TIP3    H1 7011   2.835   1.425   2.193
 2335TIP3    H2 7012   2.688   1.458   2.182
 2336TIP3   OH2 7013   5.206   4.212   1.986
 2336TIP3    H1 7014   5.159   4.142   2.032
 2336TIP3    H2 7015   5.255   4.167   1.917
 2337TIP3   OH2 7016   0.849   2.706   5.093
 2337TIP3    H1 7017   0.847   2.730   5.000
 2337TIP3    H2 7018   0.777   2.643   5.102
 2338TIP3   OH2 7019   0.998   3.019   2.306
 2338TIP3    H1 7020   0.928   2.957   2.326
 2338TIP3    H2 7021   1.079   2.967   2.311
 2339TIP3   OH2 7022   0.143   2.081   2.219
 2339TIP3    H1 7023   0.196   2.144   2.268
 2339TIP3    H2 7024   0.206   2.037   2.161
 2340TIP3   OH2 7025   2.019   0.056   4.112
 2340TIP3    H1 7026   2.061   0.040   4.027
 2340TIP3    H2 7027   2.038  -0.022   4.164
 2341TIP3   OH2 7028   4.422   3.098   4.468
 2341TIP3    H1 7029   4.380   3.083   4.383
 2341TIP3    H2 7030   4.515   3.088   4.450
 2342TIP3   OH2 7031   3.479   5.944   0.203
 2342TIP3    H1 7032   3.393   5.981   0.182
 2342TIP3    H2 7033   3.491   5.875   0.138
 2343TIP3   OH2 7034   3.964   3.594   4.349
 2343TIP3    H1 7035   3.946   3.569   4.440
 2343TIP3    H2 7036   3.887   3.646   4.323
 2344TIP3   OH2 7037   3.516   1.204   0.080
 2344TIP3    H1 7038   3.510   1.291   0.041
 2344TIP3    H2 7039   3.610   1.192   0.096
 2345TIP3   OH2 7040   0.757   2.536   2.044
 2345TIP3    H1 7041   0.839   2.579   2.022
 2345TIP3    H2 7042   0.700   2.606   2.076
 2346TIP3   OH2 7043   3.601   4.436   3.910
 2346TIP3    H1 7044   3.665   4.369   3.934
 2346TIP3    H2 7045   3.612   4.504   3.976
 2347TIP3   OH2 7046   4.862   4.721   0.796
 2347TIP3    H1 7047   4.846   4.815   0.797
 2347TIP3    H2 7048   4.943   4.710   0.745
 2348TIP3   OH2 7049   6.197   4.766   5.077
 2348TIP3    H1 7050   6.158   4.750   4.991
 2348TIP3    H2 7051   6.230   4.855   5.073
 2349TIP3   OH2 7052   3.885   1.362   4.327
 2349TIP3    H1 7053   3.840   1.278   4.319
 2349TIP3    H2 7054   3.815   1.426   4.339
 2350TIP3   OH2 7055   0.434   2.911   0.490
 2350TIP3    H1 7056   0.368   2.942   0.551
 2350TIP3    H2 7057   0.440   2.980   0.424
 2351TIP3   OH2 7058   4.664   0.804   2.622
 2351TIP3    H1 7059   4.629   0.785   2.535
 2351TIP3    H2 7060   4.635   0.893   2.641
 2352TIP3   OH2 7061   0.931   3.167   4.070
 2352TIP3    H1 7062   0.966   3.142   4.155
 2352TIP3    H2 7063   0.981   3.116   4.007
 2353TIP3   OH2 7064   3.510   5.385   4.596
 2353TIP3    H1 7065   3.417   5.361   4.602
 2353TIP3    H2 7066   3.516   5.468   4.643
 2354TIP3   OH2 7067   5.543   2.855   5.037
 2354TIP3    H1 7068   5.505   2.937   5.067
 2354TIP3    H2 7069   5.627   2.880   4.999
 2355TIP3   OH2 7070   5.647   3.562   3.796
 2355TIP3    H1 7071   5.701   3.516   3.860
 2355TIP3    H2 7072   5.678   3.652   3.797
 2356TIP3   OH2 7073   3.846   0.887   2.275
 2356TIP3    H1 7074   3.775   0.951   2.264
 2356TIP3    H2 7075   3.808   0.819   2.331
 2357TIP3   OH2 7076   0.916   4.668   2.545
 2357TIP3    H1 7077   0.967   4.616   2.608
 2357TIP3    H2 7078   0.825   4.648   2.566
 2358TIP3   OH2 7079   5.622   1.809   2.362
 2358TIP3    H1 7080   5.655   1.867   2.430
 2358TIP3    H2 7081   5.675   1.730   2.370
 2359TIP3   OH2 7082   0.759   4.153   1.179
 2359TIP3    H1 7083   0.836   4.133   1.127
 2359TIP3    H2 7084   0.685   4.136   1.120
 2360TIP3   OH2 7085   5.348   3.019   4.489
 2360TIP3    H1 7086   5.262   3.006   4.451
 2360TIP3    H2 7087   5.361   2.943   4.546
 2361TIP3   OH2 7088   5.777   0.984   2.446
 2361TIP3    H1 7089   5.746   0.966   2.358
 2361TIP3    H2 7090   5.781   0.898   2.488
 2362TIP3   OH2 7091   4.231   4.933   1.746
 2362TIP3    H1 7092   4.260   4.976   1.826
 2362TIP3    H2 7093   4.157   4.879   1.773
 2363TIP3   OH2 7094   5.269   4.074   4.530
 2363TIP3    H1 7095   5.175   4.058   4.537
 2363TIP3    H2 7096   5.276   4.157   4.482
 2364TIP3   OH2 7097   3.084   3.868   1.942
 2364TIP3    H1 7098   3.152   3.811   1.908
 2364TIP3    H2 7099   3.041   3.904   1.865
 2365TIP3   OH2 7100   2.470   2.425   2.120
 2365TIP3    H1 7101   2.526   2.496   2.087
 2365TIP3    H2 7102   2.529   2.350   2.129
 2366TIP3   OH2 7103   3.158   0.040   1.577
 2366TIP3    H1 7104   3.096   0.085   1.521
 2366TIP3    H2 7105   3.243   0.078   1.555
 2367TIP3   OH2 7106   2.098   5.015   5.036
 2367TIP3    H1 7107   2.166   4.983   5.096
 2367TIP3    H2 7108   2.135   5.095   4.998
 2368TIP3   OH2 7109   0.200   4.893   3.471
 2368TIP3    H1 7110   0.149   4.850   3.404
 2368TIP3    H2 7111   0.135   4.924   3.535
 2369TIP3   OH2 7112   4.686   4.665   3.072
 2369TIP3    H1 7113   4.605   4.660   3.021
 2369TIP3    H2 7114   4.678   4.594   3.136
 2370TIP3   OH2 7115   3.313   5.251   3.840
 2370TIP3    H1 7116   3.306   5.344   3.863
 2370TIP3    H2 7117   3.346   5.209   3.919
 2371TIP3   OH2 7118   4.883   3.878   0.934
 2371TIP3    H1 7119   4.949   3.926   0.884
 2371TIP3    H2 7120   4.919   3.790   0.945
 2372TIP3   OH2 7121   4.969   1.983   1.106
 2372TIP3    H1 7122   4.894   1.990   1.047
 2372TIP3    H2 7123   4.958   1.898   1.148
 2373TIP3   OH2 7124   1.686   1.456   4.377
 2373TIP3    H1 7125   1.780   1.449   4.356
 2373TIP3    H2 7126   1.653   1.367   4.367
 2374TIP3   OH2 7127   3.849   4.106   3.798
 2374TIP3    H1 7128   3.893   4.022   3.811
 2374TIP3    H2 7129   3.862   4.127   3.706
 2375TIP3   OH2 7130   0.896   5.843   2.052
 2375TIP3    H1 7131   0.895   5.851   1.957
 2375TIP3    H2 7132   0.806   5.857   2.079
 2376TIP3   OH2 7133   3.969   0.492   2.497
 2376TIP3    H1 7134   3.887   0.462   2.536
 2376TIP3    H2 7135   3.962   0.587   2.495
 2377TIP3   OH2 7136   1.202   5.825   1.336
 2377TIP3    H1 7137   1.292   5.800   1.358
 2377TIP3    H2 7138   1.210   5.873   1.253
 2378TIP3   OH2 7139   2.965   3.600   3.667
 2378TIP3    H1 7140   2.905   3.668   3.699
 2378TIP3    H2 7141   2.920   3.518   3.687
 2379TIP3   OH2 7142   5.660   5.240   2.507
 2379TIP3    H1 7143   5.684   5.319   2.459
 2379TIP3    H2 7144   5.581   5.264   2.555
 2380TIP3   OH2 7145   3.603   5.330   4.101
 2380TIP3    H1 7146   3.661   5.405   4.100
 2380TIP3    H2 7147   3.525   5.360   4.148
 2381TIP3   OH2 7148   2.793   1.886   3.267
 2381TIP3    H1 7149   2.719   1.941   3.239
 2381TIP3    H2 7150   2.779   1.875   3.362
 2382TIP3   OH2 7151   2.903   1.448   4.698
 2382TIP3    H1 7152   2.880   1.540   4.686
 2382TIP3    H2 7153   2.999   1.447   4.698
 2383TIP3   OH2 7154   0.527   2.171   1.365
 2383TIP3    H1 7155   0.562   2.251   1.324
 2383TIP3    H2 7156   0.602   2.112   1.368
 2384TIP3   OH2 7157   0.162   1.537   4.621
 2384TIP3    H1 7158   0.161   1.482   4.700
 2384TIP3    H2 7159   0.075   1.576   4.619
 2385TIP3   OH2 7160   3.811   2.478   1.445
 2385TIP3    H1 7161   3.761   2.398   1.458
 2385TIP3    H2 7162   3.807   2.523   1.529
 2386TIP3   OH2 7163   2.657   2.989   3.536
 2386TIP3    H1 7164   2.640   3.077   3.501
 2386TIP3    H2 7165   2.572   2.945   3.531
 2387TIP3   OH2 7166   4.202   5.878   3.655
 2387TIP3    H1 7167   4.107   5.882   3.663
 2387TIP3    H2 7168   4.235   5.931   3.727
 2388TIP3   OH2 7169   4.222   4.182   4.792
 2388TIP3    H1 7170   4.283   4.174   4.865
 2388TIP3    H2 7171   4.253   4.260   4.744
 2389TIP3   OH2 7172   3.051   4.987   4.884
 2389TIP3    H1 7173   3.022   4.969   4.794
 2389TIP3    H2 7174   3.011   4.918   4.937
 2390TIP3   OH2 7175   0.191   4.603   3.077
 2390TIP3    H1 7176   0.176   4.558   2.994
 2390TIP3    H2 7177   0.124   4.671   3.080
 2391TIP3   OH2 7178   4.344   1.765   3.543
 2391TIP3    H1 7179   4.399   1.807   3.477
 2391TIP3    H2 7180   4.257   1.803   3.530
 2392TIP3   OH2 7181   4.975   0.890   4.484
 2392TIP3    H1 7182   4.906   0.930   4.431
 2392TIP3    H2 7183   5.030   0.844   4.420
 2393TIP3   OH2 7184   2.044   1.915   2.238
 2393TIP3    H1 7185   2.057   1.992   2.184
 2393TIP3    H2 7186   2.005   1.850   2.180
 2394TIP3   OH2 7187   4.015   3.587   1.747
 2394TIP3    H1 7188   4.057   3.508   1.781
 2394TIP3    H2 7189   4.066   3.609   1.668
 2395TIP3   OH2 7190   1.039   0.150   0.451
 2395TIP3    H1 7191   1.059   0.057   0.465
 2395TIP3    H2 7192   0.953   0.162   0.492
 2396TIP3   OH2 7193   5.462   2.846   4.659
 2396TIP3    H1 7194   5.539   2.799   4.627
 2396TIP3    H2 7195   5.497   2.929   4.690
 2397TIP3   OH2 7196   5.824   4.170   1.016
 2397TIP3    H1 7197   5.857   4.126   1.094
 2397TIP3    H2 7198   5.846   4.111   0.944
 2398TIP3   OH2 7199   6.136   1.435   2.552
 2398TIP3    H1 7200   6.169   1.477   2.473
 2398TIP3    H2 7201   6.096   1.354   2.521
 2399TIP3   OH2 7202   4.900   4.524   4.798
 2399TIP3    H1 7203   4.984   4.572   4.796
 2399TIP3    H2 7204   4.835   4.592   4.813
 2400TIP3   OH2 7205   5.546   2.703   2.587
 2400TIP3    H1 7206   5.618   2.737   2.534
 2400TIP3    H2 7207   5.509   2.780   2.630
 2401TIP3   OH2 7208   6.263   2.830   3.897
 2401TIP3    H1 7209   6.254   2.735   3.905
 2401TIP3    H2 7210   6.345   2.849   3.942
 2402TIP3   OH2 7211   3.461   2.519   0.284
 2402TIP3    H1 7212   3.509   2.445   0.321
 2402TIP3    H2 7213   3.527   2.588   0.274
 2403TIP3   OH2 7214   1.762   3.081   4.601
 2403TIP3    H1 7215   1.679   3.103   4.643
 2403TIP3    H2 7216   1.798   3.009   4.653
 2404TIP3   OH2 7217   1.737   5.650   1.737
 2404TIP3    H1 7218   1.722   5.714   1.668
 2404TIP3    H2 7219   1.813   5.599   1.708
 2405TIP3   OH2 7220   3.343   0.645   0.882
 2405TIP3    H1 7221   3.385   0.648   0.968
 2405TIP3    H2 7222   3.285   0.721   0.881
 2406TIP3   OH2 7223   2.225   5.086   2.913
 2406TIP3    H1 7224   2.188   5.174   2.927
 2406TIP3    H2 7225   2.297   5.080   2.975
 2407TIP3   OH2 7226   5.642   3.646   0.615
 2407TIP3    H1 7227   5.610   3.728   0.578
 2407TIP3    H2 7228   5.689   3.604   0.543
 2408TIP3   OH2 7229   1.033   2.459   0.793
 2408TIP3    H1 7230   1.010   2.452   0.700
 2408TIP3    H2 7231   1.038   2.554   0.808
 2409TIP3   OH2 7232   2.738   5.129   1.226
 2409TIP3    H1 7233   2.713   5.112   1.317
 2409TIP3    H2 7234   2.775   5.047   1.195
 2410TIP3   OH2 7235   6.095   0.482   2.722
 2410TIP3    H1 7236   6.168   0.420   2.718
 2410TIP3    H2 7237   6.080   0.508   2.631
 2411TIP3   OH2 7238   1.674   5.566   3.718
 2411TIP3    H1 7239   1.688   5.517   3.799
 2411TIP3    H2 7240   1.736   5.638   3.723
 2412TIP3   OH2 7241   2.601   1.751   4.684
 2412TIP3    H1 7242   2.549   1.824   4.719
 2412TIP3    H2 7243   2.558   1.729   4.602
 2413TIP3   OH2 7244   0.252   2.866   3.543
 2413TIP3    H1 7245   0.197   2.942   3.522
 2413TIP3    H2 7246   0.320   2.901   3.600
 2414TIP3   OH2 7247   3.980   2.440   0.302
 2414TIP3    H1 7248   4.039   2.373   0.269
 2414TIP3    H2 7249   4.017   2.466   0.387
 2415TIP3   OH2 7250   0.618   4.761   2.825
 2415TIP3    H1 7251   0.654   4.704   2.893
 2415TIP3    H2 7252   0.524   4.763   2.844
 2416TIP3   OH2 7253   5.120   0.729   4.077
 2416TIP3    H1 7254   5.196   0.777   4.110
 2416TIP3    H2 7255   5.070   0.793   4.028
 2417TIP3   OH2 7256   1.458   4.562   3.748
 2417TIP3    H1 7257   1.411   4.643   3.768
 2417TIP3    H2 7258   1.550   4.586   3.757
 2418TIP3   OH2 7259   3.318   0.391   3.797
 2418TIP3    H1 7260   3.234   0.356   3.768
 2418TIP3    H2 7261   3.377   0.315   3.796
 2419TIP3   OH2 7262   0.136   5.927   4.851
 2419TIP3    H1 7263   0.169   5.888   4.771
 2419TIP3    H2 7264   0.145   5.858   4.917
 2420TIP3   OH2 7265   5.472   1.018   2.605
 2420TIP3    H1 7266   5.401   1.081   2.616
 2420TIP3    H2 7267   5.502   1.031   2.515
 2421TIP3   OH2 7268   1.749   1.192   4.519
 2421TIP3    H1 7269   1.655   1.176   4.522
 2421TIP3    H2 7270   1.789   1.106   4.529
 2422TIP3   OH2 7271   5.321   2.922   4.008
 2422TIP3    H1 7272   5.301   2.883   3.923
 2422TIP3    H2 7273   5.417   2.920   4.013
 2423TIP3   OH2 7274   0.604   1.412   0.603
 2423TIP3    H1 7275   0.587   1.504   0.582
 2423TIP3    H2 7276   0.606   1.369   0.517
 2424TIP3   OH2 7277   0.036   3.275   3.179
 2424TIP3    H1 7278   0.047   3.298   3.271
 2424TIP3    H2 7279   0.093   3.200   3.166
 2425TIP3   OH2 7280   0.795   4.007   4.363
 2425TIP3    H1 7281   0.773   3.991   4.455
 2425TIP3    H2 7282   0.883   4.043   4.365
 2426TIP3   OH2 7283   1.814   3.370   2.734
 2426TIP3    H1 7284   1.801   3.276   2.729
 2426TIP3    H2 7285   1.728   3.406   2.755
 2427TIP3   OH2 7286   0.128   4.580   2.494
 2427TIP3    H1 7287   0.083   4.633   2.560
 2427TIP3    H2 7288   0.221   4.585   2.518
 2428TIP3   OH2 7289   3.474   0.386   4.883
 2428TIP3    H1 7290   3.478   0.305   4.935
 2428TIP3    H2 7291   3.556   0.386   4.833
 2429TIP3   OH2 7292   0.530   1.663   4.015
 2429TIP3    H1 7293   0.537   1.753   3.982
 2429TIP3    H2 7294   0.602   1.616   3.973
 2430TIP3   OH2 7295   2.605   3.069   4.279
 2430TIP3    H1 7296   2.676   3.012   4.309
 2430TIP3    H2 7297   2.560   3.095   4.359
 2431TIP3   OH2 7298   2.221   3.032   2.339
 2431TIP3    H1 7299   2.307   3.024   2.298
 2431TIP3    H2 7300   2.240   3.067   2.426
 2432TIP3   OH2 7301   4.077   3.834   0.620
 2432TIP3    H1 7302   4.168   3.835   0.649
 2432TIP3    H2 7303   4.075   3.895   0.546
 2433TIP3   OH2 7304   2.910   4.301   4.251
 2433TIP3    H1 7305   2.899   4.209   4.277
 2433TIP3    H2 7306   2.831   4.344   4.283
 2434TIP3   OH2 7307   1.055   1.706   1.345
 2434TIP3    H1 7308   1.048   1.619   1.384
 2434TIP3    H2 7309   0.988   1.707   1.277
 2435TIP3   OH2 7310   5.401   0.543   1.893
 2435TIP3    H1 7311   5.379   0.635   1.875
 2435TIP3    H2 7312   5.483   0.547   1.942
 2436TIP3   OH2 7313   1.979   4.777   3.612
 2436TIP3    H1 7314   1.933   4.846   3.660
 2436TIP3    H2 7315   2.068   4.779   3.649
 2437TIP3   OH2 7316   4.101   2.567   3.065
 2437TIP3    H1 7317   4.154   2.633   3.110
 2437TIP3    H2 7318   4.012   2.603   3.067
 2438TIP3   OH2 7319   1.172   3.710   4.886
 2438TIP3    H1 7320   1.095   3.733   4.834
 2438TIP3    H2 7321   1.205   3.794   4.918
 2439TIP3   OH2 7322   0.961   1.449   3.800
 2439TIP3    H1 7323   1.005   1.435   3.716
 2439TIP3    H2 7324   1.011   1.396   3.862
 2440TIP3   OH2 7325   3.347   0.323   3.121
 2440TIP3    H1 7326   3.421   0.267   3.145
 2440TIP3    H2 7327   3.354   0.332   3.026
 2441TIP3   OH2 7328   2.847   3.667   0.296
 2441TIP3    H1 7329   2.922   3.674   0.355
 2441TIP3    H2 7330   2.872   3.598   0.234
 2442TIP3   OH2 7331   2.535   5.216   2.466
 2442TIP3    H1 7332   2.478   5.242   2.538
 2442TIP3    H2 7333   2.618   5.259   2.486
 2443TIP3   OH2 7334   6.291   4.213   4.374
 2443TIP3    H1 7335   6.268   4.122   4.356
 2443TIP3    H2 7336   6.254   4.231   4.461
 2444TIP3   OH2 7337   6.029   3.970   3.712
 2444TIP3    H1 7338   6.121   3.957   3.688
 2444TIP3    H2 7339   6.032   4.035   3.783
 2445TIP3   OH2 7340   3.409   2.363   1.947
 2445TIP3    H1 7341   3.445   2.311   1.875
 2445TIP3    H2 7342   3.468   2.347   2.020
 2446TIP3   OH2 7343   3.973   2.932   2.224
 2446TIP3    H1 7344   3.926   2.897   2.299
 2446TIP3    H2 7345   3.926   2.899   2.148
 2447TIP3   OH2 7346   0.609   5.781   4.096
 2447TIP3    H1 7347   0.603   5.839   4.172
 2447TIP3    H2 7348   0.658   5.832   4.031
 2448TIP3   OH2 7349   3.906   2.987   5.131
 2448TIP3    H1 7350   3.825   2.942   5.109
 2448TIP3    H2 7351   3.890   3.024   5.218
 2449TIP3   OH2 7352   5.497   3.999   1.040
 2449TIP3    H1 7353   5.410   3.959   1.036
 2449TIP3    H2 7354   5.517   4.023   0.950
 2450TIP3   OH2 7355   1.615   5.739   4.936
 2450TIP3    H1 7356   1.557   5.716   4.863
 2450TIP3    H2 7357   1.556   5.770   5.005
 2451TIP3   OH2 7358   4.422   3.694   3.148
 2451TIP3    H1 7359   4.420   3.777   3.099
 2451TIP3    H2 7360   4.491   3.707   3.214
 2452TIP3   OH2 7361   2.557   1.783   0.367
 2452TIP3    H1 7362   2.555   1.790   0.272
 2452TIP3    H2 7363   2.650   1.779   0.390
 2453TIP3   OH2 7364   2.925   1.438   2.829
 2453TIP3    H1 7365   2.887   1.356   2.797
 2453TIP3    H2 7366   2.878   1.506   2.782
 2454TIP3   OH2 7367   0.246   0.077   3.381
 2454TIP3    H1 7368   0.181   0.009   3.396
 2454TIP3    H2 7369   0.326   0.044   3.423
 2455TIP3   OH2 7370   1.428   0.946   0.302
 2455TIP3    H1 7371   1.448   1.038   0.316
 2455TIP3    H2 7372   1.364   0.924   0.369
 2456TIP3   OH2 7373   2.028   5.165   4.468
 2456TIP3    H1 7374   2.107   5.155   4.415
 2456TIP3    H2 7375   2.026   5.087   4.523
 2457TIP3   OH2 7376   3.091   2.728   1.330
 2457TIP3    H1 7377   3.103   2.645   1.377
 2457TIP3    H2 7378   3.032   2.706   1.258
 2458TIP3   OH2 7379   6.255   0.063   2.309
 2458TIP3    H1 7380   6.265  -0.017   2.361
 2458TIP3    H2 7381   6.322   0.056   2.241
 2459TIP3   OH2 7382   2.738   2.685   1.963
 2459TIP3    H1 7383   2.773   2.618   1.904
 2459TIP3    H2 7384   2.802   2.756   1.960
 2460TIP3   OH2 7385   6.002   1.825   0.169
 2460TIP3    H1 7386   6.025   1.882   0.095
 2460TIP3    H2 7387   6.081   1.776   0.187
 2461TIP3   OH2 7388   3.306   0.829   3.906
 2461TIP3    H1 7389   3.395   0.850   3.933
 2461TIP3    H2 7390   3.266   0.789   3.983
 2462TIP3   OH2 7391   4.739   2.145   4.117
 2462TIP3    H1 7392   4.659   2.190   4.145
 2462TIP3    H2 7393   4.713   2.096   4.039
 2463TIP3   OH2 7394   1.933   5.136   0.928
 2463TIP3    H1 7395   1.942   5.117   0.835
 2463TIP3    H2 7396   1.840   5.156   0.940
 2464TIP3   OH2 7397   4.460   1.018   0.020
 2464TIP3    H1 7398   4.435   1.060   0.102
 2464TIP3    H2 7399   4.435   1.081  -0.048
 2465TIP3   OH2 7400   3.872   4.483   3.403
 2465TIP3    H1 7401   3.861   4.460   3.496
 2465TIP3    H2 7402   3.967   4.480   3.389
 2466TIP3   OH2 7403   3.716   2.347   2.377
 2466TIP3    H1 7404   3.756   2.430   2.352
 2466TIP3    H2 7405   3.666   2.368   2.457
 2467TIP3   OH2 7406   5.884   5.928   0.720
 2467TIP3    H1 7407   5.909   5.975   0.800
 2467TIP3    H2 7408   5.966   5.894   0.685
 2468TIP3   OH2 7409   5.479   2.371   0.599
 2468TIP3    H1 7410   5.449   2.282   0.580
 2468TIP3    H2 7411   5.537   2.393   0.526
 2469TIP3   OH2 7412   1.490   1.083   1.502
 2469TIP3    H1 7413   1.490   1.140   1.579
 2469TIP3    H2 7414   1.442   1.005   1.530
 2470TIP3   OH2 7415   5.163   0.939   0.292
 2470TIP3    H1 7416   5.094   1.001   0.317
 2470TIP3    H2 7417   5.157   0.935   0.196
 2471TIP3   OH2 7418   3.696   5.840   0.012
 2471TIP3    H1 7419   3.757   5.785   0.061
 2471TIP3    H2 7420   3.717   5.929   0.041
 2472TIP3   OH2 7421   1.906   1.141   0.709
 2472TIP3    H1 7422   1.885   1.225   0.748
 2472TIP3    H2 7423   1.900   1.156   0.614
 2473TIP3   OH2 7424   5.802   5.296   3.243
 2473TIP3    H1 7425   5.791   5.262   3.154
 2473TIP3    H2 7426   5.750   5.237   3.297
 2474TIP3   OH2 7427   5.199   0.767   2.778
 2474TIP3    H1 7428   5.120   0.812   2.748
 2474TIP3    H2 7429   5.255   0.838   2.812
 2475TIP3   OH2 7430   3.083   1.642   4.907
 2475TIP3    H1 7431   3.014   1.697   4.946
 2475TIP3    H2 7432   3.065   1.554   4.941
 2476TIP3   OH2 7433   3.605   4.206   1.131
 2476TIP3    H1 7434   3.617   4.145   1.203
 2476TIP3    H2 7435   3.522   4.249   1.150
 2477TIP3   OH2 7436   4.089   1.661   3.816
 2477TIP3    H1 7437   4.009   1.702   3.784
 2477TIP3    H2 7438   4.068   1.568   3.823
 2478TIP3   OH2 7439   6.108   0.399   4.182
 2478TIP3    H1 7440   6.130   0.310   4.155
 2478TIP3    H2 7441   6.032   0.389   4.239
 2479TIP3   OH2 7442   3.030   3.346   2.584
 2479TIP3    H1 7443   3.102   3.389   2.630
 2479TIP3    H2 7444   3.011   3.269   2.637
 2480TIP3   OH2 7445   3.144   5.333   4.355
 2480TIP3    H1 7446   3.170   5.241   4.357
 2480TIP3    H2 7447   3.062   5.335   4.405
 2481TIP3   OH2 7448   0.309   5.698   2.169
 2481TIP3    H1 7449   0.351   5.751   2.236
 2481TIP3    H2 7450   0.249   5.758   2.125
 2482TIP3   OH2 7451   6.042   4.584   3.526
 2482TIP3    H1 7452   5.972   4.557   3.585
 2482TIP3    H2 7453   6.096   4.506   3.515
 2483TIP3   OH2 7454   0.021   1.651   4.088
 2483TIP3    H1 7455   0.065   1.574   4.052
 2483TIP3    H2 7456  -0.016   1.621   4.171
 2484TIP3   OH2 7457   0.633   3.741   0.068
 2484TIP3    H1 7458   0.540   3.738   0.047
 2484TIP3    H2 7459   0.656   3.651   0.092
 2485TIP3   OH2 7460   3.877   5.780   0.925
 2485TIP3    H1 7461   3.897   5.848   0.989
 2485TIP3    H2 7462   3.782   5.775   0.923
 2486TIP3   OH2 7463   0.284   0.548   3.182
 2486TIP3    H1 7464   0.192   0.571   3.194
 2486TIP3    H2 7465   0.305   0.491   3.256
 2487TIP3   OH2 7466   1.738   4.100   0.458
 2487TIP3    H1 7467   1.655   4.055   0.476
 2487TIP3    H2 7468   1.798   4.030   0.432
 2488TIP3   OH2 7469   0.530   2.678   0.339
 2488TIP3    H1 7470   0.535   2.757   0.393
 2488TIP3    H2 7471   0.612   2.678   0.289
 2489TIP3   OH2 7472   1.825   5.276   0.020
 2489TIP3    H1 7473   1.787   5.331  -0.049
 2489TIP3    H2 7474   1.770   5.293   0.097
 2490TIP3   OH2 7475   0.299   0.216   2.000
 2490TIP3    H1 7476   0.299   0.259   2.085
 2490TIP3    H2 7477   0.341   0.279   1.941
 2491TIP3   OH2 7478   5.472   0.911   0.607
 2491TIP3    H1 7479   5.428   0.836   0.649
 2491TIP3    H2 7480   5.565   0.887   0.609
 2492TIP3   OH2 7481   4.948   2.573   4.137
 2492TIP3    H1 7482   4.983   2.661   4.122
 2492TIP3    H2 7483   5.025   2.516   4.131
 2493TIP3   OH2 7484   0.669   1.496   1.775
 2493TIP3    H1 7485   0.756   1.476   1.739
 2493TIP3    H2 7486   0.687   1.528   1.863
 2494TIP3   OH2 7487   3.077   4.764   2.364
 2494TIP3    H1 7488   3.028   4.683   2.349
 2494TIP3    H2 7489   3.015   4.834   2.345
 2495TIP3   OH2 7490   5.546   5.486   3.265
 2495TIP3    H1 7491   5.547   5.431   3.187
 2495TIP3    H2 7492   5.638   5.493   3.291
 2496TIP3   OH2 7493   0.144   4.812   0.201
 2496TIP3    H1 7494   0.203   4.882   0.229
 2496TIP3    H2 7495   0.060   4.857   0.187
 2497TIP3   OH2 7496   3.003   0.778   2.544
 2497TIP3    H1 7497   2.960   0.750   2.463
 2497TIP3    H2 7498   2.997   0.874   2.542
 2498TIP3   OH2 7499   2.404   0.603   4.654
 2498TIP3    H1 7500   2.343   0.626   4.584
 2498TIP3    H2 7501   2.446   0.686   4.678
 2499TIP3   OH2 7502   1.820   1.281   3.000
 2499TIP3    H1 7503   1.873   1.341   2.946
 2499TIP3    H2 7504   1.809   1.203   2.944
 2500TIP3   OH2 7505   1.829   5.776   3.688
 2500TIP3    H1 7506   1.816   5.869   3.710
 2500TIP3    H2 7507   1.814   5.771   3.594
 2501TIP3   OH2 7508   4.299   3.764   4.765
 2501TIP3    H1 7509   4.207   3.737   4.758
 2501TIP3    H2 7510   4.340   3.697   4.819
 2502TIP3   OH2 7511   0.350   4.279   1.473
 2502TIP3    H1 7512   0.325   4.359   1.520
 2502TIP3    H2 7513   0.409   4.308   1.404
 2503TIP3   OH2 7514   5.361   1.422   4.102
 2503TIP3    H1 7515   5.280   1.474   4.103
 2503TIP3    H2 7516   5.423   1.475   4.053
 2504TIP3   OH2 7517   0.656   4.069   2.464
 2504TIP3    H1 7518   0.562   4.056   2.479
 2504TIP3    H2 7519   0.667   4.060   2.369
 2505TIP3   OH2 7520   5.013   4.954   3.352
 2505TIP3    H1 7521   4.949   4.956   3.280
 2505TIP3    H2 7522   5.003   5.040   3.395
 2506TIP3   OH2 7523   1.293   3.309   4.142
 2506TIP3    H1 7524   1.329   3.371   4.079
 2506TIP3    H2 7525   1.357   3.238   4.146
 2507TIP3   OH2 7526   3.708   4.915   1.921
 2507TIP3    H1 7527   3.738   4.826   1.937
 2507TIP3    H2 7528   3.619   4.917   1.956
 2508TIP3   OH2 7529   5.188   2.265   1.886
 2508TIP3    H1 7530   5.209   2.219   1.805
 2508TIP3    H2 7531   5.229   2.351   1.876
 2509TIP3   OH2 7532   2.485   2.548   3.516
 2509TIP3    H1 7533   2.506   2.511   3.602
 2509TIP3    H2 7534   2.491   2.643   3.528
 2510TIP3   OH2 7535   1.258   2.000   0.395
 2510TIP3    H1 7536   1.332   2.051   0.363
 2510TIP3    H2 7537   1.183   2.059   0.387
 2511TIP3   OH2 7538   3.091   1.810   2.567
 2511TIP3    H1 7539   3.151   1.828   2.640
 2511TIP3    H2 7540   3.015   1.865   2.585
 2512TIP3   OH2 7541   3.474   5.529   1.527
 2512TIP3    H1 7542   3.447   5.476   1.452
 2512TIP3    H2 7543   3.537   5.475   1.574
 2513TIP3   OH2 7544   3.434   3.074   2.022
 2513TIP3    H1 7545   3.402   2.988   2.049
 2513TIP3    H2 7546   3.362   3.111   1.971
 2514TIP3   OH2 7547   2.272   4.293   0.264
 2514TIP3    H1 7548   2.189   4.326   0.299
 2514TIP3    H2 7549   2.248   4.237   0.191
 2515TIP3   OH2 7550   0.066   3.122   4.497
 2515TIP3    H1 7551   0.132   3.179   4.538
 2515TIP3    H2 7552   0.042   3.168   4.416
 2516TIP3   OH2 7553   0.889   1.648   1.091
 2516TIP3    H1 7554   0.796   1.632   1.076
 2516TIP3    H2 7555   0.931   1.564   1.072
 2517TIP3   OH2 7556   5.901   5.527   3.093
 2517TIP3    H1 7557   5.968   5.531   3.161
 2517TIP3    H2 7558   5.854   5.445   3.111
 2518TIP3   OH2 7559   3.989   1.025   4.970
 2518TIP3    H1 7560   3.927   1.093   4.996
 2518TIP3    H2 7561   3.962   1.000   4.882
 2519TIP3   OH2 7562   2.097   1.954   0.435
 2519TIP3    H1 7563   2.188   1.985   0.431
 2519TIP3    H2 7564   2.089   1.895   0.359
 2520TIP3   OH2 7565   1.040   0.574   4.417
 2520TIP3    H1 7566   0.966   0.615   4.374
 2520TIP3    H2 7567   1.029   0.595   4.510
 2521TIP3   OH2 7568   0.712   4.836   3.265
 2521TIP3    H1 7569   0.807   4.837   3.277
 2521TIP3    H2 7570   0.695   4.756   3.215
 2522TIP3   OH2 7571   6.224   1.297   3.973
 2522TIP3    H1 7572   6.153   1.344   3.929
 2522TIP3    H2 7573   6.228   1.212   3.928
 2523TIP3   OH2 7574   4.698   4.608   0.620
 2523TIP3    H1 7575   4.764   4.641   0.681
 2523TIP3    H2 7576   4.720   4.648   0.536
 2524TIP3   OH2 7577   5.653   4.668   2.478
 2524TIP3    H1 7578   5.690   4.686   2.564
 2524TIP3    H2 7579   5.673   4.747   2.427
 2525TIP3   OH2 7580   0.933   2.734   2.050
 2525TIP3    H1 7581   0.988   2.793   1.999
 2525TIP3    H2 7582   0.988   2.709   2.125
 2526TIP3   OH2 7583   3.373   4.375   0.941
 2526TIP3    H1 7584   3.395   4.454   0.990
 2526TIP3    H2 7585   3.391   4.398   0.849
 2527TIP3   OH2 7586   3.001   2.483   1.966
 2527TIP3    H1 7587   2.930   2.430   1.930
 2527TIP3    H2 7588   3.036   2.531   1.890
 2528TIP3   OH2 7589   5.760   5.778   0.523
 2528TIP3    H1 7590   5.786   5.838   0.594
 2528TIP3    H2 7591   5.795   5.693   0.550
 2529TIP3   OH2 7592   2.252   3.784   0.170
 2529TIP3    H1 7593   2.308   3.762   0.096
 2529TIP3    H2 7594   2.199   3.706   0.184
 2530TIP3   OH2 7595   2.702   3.954   1.918
 2530TIP3    H1 7596   2.629   4.011   1.944
 2530TIP3    H2 7597   2.771   4.014   1.891
 2531TIP3   OH2 7598   0.657   0.530   2.541
 2531TIP3    H1 7599   0.594   0.543   2.471
 2531TIP3    H2 7600   0.740   0.563   2.505
 2532TIP3   OH2 7601   3.578   5.112   1.221
 2532TIP3    H1 7602   3.533   5.185   1.178
 2532TIP3    H2 7603   3.618   5.064   1.149
 2533TIP3   OH2 7604   3.827   0.095   5.127
 2533TIP3    H1 7605   3.763   0.051   5.072
 2533TIP3    H2 7606   3.875   0.023   5.169
 2534TIP3   OH2 7607   5.545   1.784   1.524
 2534TIP3    H1 7608   5.597   1.852   1.482
 2534TIP3    H2 7609   5.503   1.738   1.451
 2535TIP3   OH2 7610   3.026   0.753   4.843
 2535TIP3    H1 7611   2.985   0.709   4.768
 2535TIP3    H2 7612   2.952   0.780   4.898
 2536TIP3   OH2 7613   1.615   0.015   3.612
 2536TIP3    H1 7614   1.710   0.018   3.599
 2536TIP3    H2 7615   1.590   0.106   3.628
 2537TIP3   OH2 7616   5.142   1.382   1.724
 2537TIP3    H1 7617   5.070   1.445   1.732
 2537TIP3    H2 7618   5.183   1.382   1.810
 2538TIP3   OH2 7619   4.267   4.545   1.700
 2538TIP3    H1 7620   4.190   4.557   1.756
 2538TIP3    H2 7621   4.272   4.626   1.649
 2539TIP3   OH2 7622   4.029   1.346   2.720
 2539TIP3    H1 7623   4.020   1.398   2.640
 2539TIP3    H2 7624   4.043   1.410   2.789
 2540TIP3   OH2 7625   2.246   3.866   0.951
 2540TIP3    H1 7626   2.295   3.906   0.879
 2540TIP3    H2 7627   2.174   3.928   0.968
 2541TIP3   OH2 7628   0.993   4.572   0.668
 2541TIP3    H1 7629   0.950   4.561   0.583
 2541TIP3    H2 7630   0.933   4.627   0.718
 2542TIP3   OH2 7631   2.438   2.391   3.736
 2542TIP3    H1 7632   2.371   2.346   3.787
 2542TIP3    H2 7633   2.466   2.326   3.671
 2543TIP3   OH2 7634   4.711   3.070   2.227
 2543TIP3    H1 7635   4.757   2.986   2.226
 2543TIP3    H2 7636   4.628   3.051   2.271
 2544TIP3   OH2 7637   3.668   5.165   3.847
 2544TIP3    H1 7638   3.621   5.179   3.929
 2544TIP3    H2 7639   3.687   5.254   3.815
 2545TIP3   OH2 7640   0.306   4.317   0.082
 2545TIP3    H1 7641   0.274   4.332   0.171
 2545TIP3    H2 7642   0.226   4.305   0.030
 2546TIP3   OH2 7643   6.085   3.225   3.335
 2546TIP3    H1 7644   6.163   3.197   3.383
 2546TIP3    H2 7645   6.017   3.233   3.403
 2547TIP3   OH2 7646   2.351   2.586   0.713
 2547TIP3    H1 7647   2.342   2.491   0.709
 2547TIP3    H2 7648   2.368   2.605   0.805
 2548TIP3   OH2 7649   6.158   0.903   5.138
 2548TIP3    H1 7650   6.241   0.897   5.091
 2548TIP3    H2 7651   6.119   0.984   5.106
 2549TIP3   OH2 7652   1.299   5.168   1.008
 2549TIP3    H1 7653   1.230   5.118   1.050
 2549TIP3    H2 7654   1.358   5.103   0.971
 2550TIP3   OH2 7655   3.654   0.336   3.487
 2550TIP3    H1 7656   3.696   0.421   3.479
 2550TIP3    H2 7657   3.703   0.291   3.556
 2551TIP3   OH2 7658   4.627   0.056   3.312
 2551TIP3    H1 7659   4.626   0.151   3.299
 2551TIP3    H2 7660   4.574   0.022   3.240
 2552TIP3   OH2 7661   5.260   0.371   4.847
 2552TIP3    H1 7662   5.331   0.330   4.897
 2552TIP3    H2 7663   5.246   0.314   4.772
 2553TIP3   OH2 7664   5.707   1.140   4.730
 2553TIP3    H1 7665   5.660   1.195   4.667
 2553TIP3    H2 7666   5.641   1.118   4.796
 2554TIP3   OH2 7667   5.341   5.272   2.349
 2554TIP3    H1 7668   5.347   5.232   2.262
 2554TIP3    H2 7669   5.294   5.207   2.401
 2555TIP3   OH2 7670   1.390   3.009   0.207
 2555TIP3    H1 7671   1.462   3.017   0.145
 2555TIP3    H2 7672   1.326   3.075   0.179
 2556TIP3   OH2 7673   5.082   4.867   2.942
 2556TIP3    H1 7674   5.108   4.777   2.959
 2556TIP3    H2 7675   5.040   4.864   2.857
 2557TIP3   OH2 7676   1.295   3.415   2.318
 2557TIP3    H1 7677   1.366   3.390   2.259
 2557TIP3    H2 7678   1.336   3.422   2.404
 2558TIP3   OH2 7679   2.389   2.436   1.236
 2558TIP3    H1 7680   2.374   2.430   1.142
 2558TIP3    H2 7681   2.483   2.449   1.245
 2559TIP3   OH2 7682   5.571   1.215   1.374
 2559TIP3    H1 7683   5.602   1.300   1.407
 2559TIP3    H2 7684   5.615   1.205   1.290
 2560TIP3   OH2 7685   0.949   4.977   1.607
 2560TIP3    H1 7686   0.981   4.908   1.549
 2560TIP3    H2 7687   0.907   4.929   1.679
 2561TIP3   OH2 7688   1.603   0.485   1.416
 2561TIP3    H1 7689   1.657   0.491   1.495
 2561TIP3    H2 7690   1.569   0.395   1.417
 2562TIP3   OH2 7691   4.014   0.733   4.452
 2562TIP3    H1 7692   3.918   0.732   4.446
 2562TIP3    H2 7693   4.033   0.798   4.520
 2563TIP3   OH2 7694   4.927   1.562   2.688
 2563TIP3    H1 7695   4.994   1.627   2.710
 2563TIP3    H2 7696   4.874   1.604   2.620
 2564TIP3   OH2 7697   3.551   4.090   3.834
 2564TIP3    H1 7698   3.634   4.057   3.869
 2564TIP3    H2 7699   3.575   4.131   3.752
 2565TIP3   OH2 7700   0.888   1.968   0.171
 2565TIP3    H1 7701   0.926   1.879   0.169
 2565TIP3    H2 7702   0.957   2.022   0.208
 2566TIP3   OH2 7703   4.777   1.428   2.873
 2566TIP3    H1 7704   4.829   1.488   2.818
 2566TIP3    H2 7705   4.719   1.384   2.812
 2567TIP3   OH2 7706   4.700   1.267   1.808
 2567TIP3    H1 7707   4.730   1.242   1.896
 2567TIP3    H2 7708   4.644   1.343   1.823
 2568TIP3   OH2 7709   1.954   0.618   3.132
 2568TIP3    H1 7710   2.044   0.647   3.144
 2568TIP3    H2 7711   1.915   0.684   3.076
 2569TIP3   OH2 7712   5.444   4.518   4.321
 2569TIP3    H1 7713   5.448   4.536   4.227
 2569TIP3    H2 7714   5.444   4.604   4.362
 2570TIP3   OH2 7715   2.718   5.415   1.587
 2570TIP3    H1 7716   2.662   5.493   1.593
 2570TIP3    H2 7717   2.682   5.365   1.513
 2571TIP3   OH2 7718   2.522   4.304   3.876
 2571TIP3    H1 7719   2.435   4.344   3.875
 2571TIP3    H2 7720   2.509   4.215   3.845
 2572TIP3   OH2 7721   0.451   2.881   3.229
 2572TIP3    H1 7722   0.413   2.793   3.233
 2572TIP3    H2 7723   0.468   2.896   3.136
 2573TIP3   OH2 7724   0.488   1.928   2.110
 2573TIP3    H1 7725   0.484   1.832   2.117
 2573TIP3    H2 7726   0.579   1.949   2.131
 2574TIP3   OH2 7727  -0.016   3.708   0.188
 2574TIP3    H1 7728   0.006   3.671   0.103
 2574TIP3    H2 7729   0.040   3.785   0.195
 2575TIP3   OH2 7730   1.178   5.447   5.008
 2575TIP3    H1 7731   1.271   5.450   5.029
 2575TIP3    H2 7732   1.136   5.410   5.086
 2576TIP3   OH2 7733   4.371   2.874   3.750
 2576TIP3    H1 7734   4.338   2.786   3.767
 2576TIP3    H2 7735   4.406   2.903   3.834
 2577TIP3   OH2 7736   3.029   0.163   3.915
 2577TIP3    H1 7737   3.068   0.172   4.002
 2577TIP3    H2 7738   3.082   0.095   3.873
 2578TIP3   OH2 7739   1.506   4.753   2.600
 2578TIP3    H1 7740   1.501   4.801   2.683
 2578TIP3    H2 7741   1.419   4.764   2.561
 2579TIP3   OH2 7742   0.676   1.919   0.322
 2579TIP3    H1 7743   0.605   1.970   0.283
 2579TIP3    H2 7744   0.752   1.938   0.267
 2580TIP3   OH2 7745   4.004   1.988   3.118
 2580TIP3    H1 7746   3.994   2.078   3.090
 2580TIP3    H2 7747   3.943   1.938   3.064
 2581TIP3   OH2 7748   6.247   1.227   1.455
 2581TIP3    H1 7749   6.276   1.141   1.424
 2581TIP3    H2 7750   6.265   1.287   1.383
 2582TIP3   OH2 7751   1.635   3.803   0.913
 2582TIP3    H1 7752   1.543   3.827   0.908
 2582TIP3    H2 7753   1.658   3.779   0.823
 2583TIP3   OH2 7754   2.305   0.358   0.101
 2583TIP3    H1 7755   2.340   0.445   0.078
 2583TIP3    H2 7756   2.230   0.347   0.042
 2584TIP3   OH2 7757   2.678   0.539   2.309
 2584TIP3    H1 7758   2.701   0.556   2.400
 2584TIP3    H2 7759   2.758   0.503   2.271
 2585TIP3   OH2 7760   0.106   5.942   0.673
 2585TIP3    H1 7761   0.200   5.959   0.661
 2585TIP3    H2 7762   0.094   5.942   0.768
 2586TIP3   OH2 7763   4.858   2.425   0.916
 2586TIP3    H1 7764   4.899   2.390   0.995
 2586TIP3    H2 7765   4.848   2.519   0.933
 2587TIP3   OH2 7766   3.191   2.822   0.361
 2587TIP3    H1 7767   3.098   2.829   0.382
 2587TIP3    H2 7768   3.195   2.834   0.266
 2588TIP3   OH2 7769   4.914   2.170   3.149
 2588TIP3    H1 7770   4.965   2.102   3.105
 2588TIP3    H2 7771   4.972   2.246   3.152
 2589TIP3   OH2 7772   4.614   0.688   5.175
 2589TIP3    H1 7773   4.544   0.745   5.144
 2589TIP3    H2 7774   4.593   0.602   5.138
 2590TIP3   OH2 7775   3.122   1.124   4.030
 2590TIP3    H1 7776   3.102   1.129   3.936
 2590TIP3    H2 7777   3.106   1.213   4.063
 2591TIP3   OH2 7778   1.307   1.105   3.943
 2591TIP3    H1 7779   1.250   1.034   3.913
 2591TIP3    H2 7780   1.253   1.157   4.002
 2592TIP3   OH2 7781   2.176   5.432   2.733
 2592TIP3    H1 7782   2.112   5.498   2.706
 2592TIP3    H2 7783   2.168   5.363   2.667
 2593TIP3   OH2 7784   5.986   1.484   3.311
 2593TIP3    H1 7785   5.894   1.480   3.284
 2593TIP3    H2 7786   6.034   1.493   3.229
 2594TIP3   OH2 7787   2.180   3.025   3.158
 2594TIP3    H1 7788   2.085   3.032   3.160
 2594TIP3    H2 7789   2.200   2.952   3.215
 2595TIP3   OH2 7790   0.863   0.633   0.670
 2595TIP3    H1 7791   0.948   0.639   0.713
 2595TIP3    H2 7792   0.801   0.671   0.732
 2596TIP3   OH2 7793   4.055   3.758   3.181
 2596TIP3    H1 7794   4.031   3.847   3.153
 2596TIP3    H2 7795   4.017   3.701   3.114
 2597TIP3   OH2 7796   4.140   2.727   2.056
 2597TIP3    H1 7797   4.170   2.752   1.969
 2597TIP3    H2 7798   4.045   2.734   2.052
 2598TIP3   OH2 7799   3.182   5.815   1.720
 2598TIP3    H1 7800   3.222   5.771   1.795
 2598TIP3    H2 7801   3.145   5.896   1.756
 2599TIP3   OH2 7802   5.387   5.210   4.399
 2599TIP3    H1 7803   5.369   5.298   4.366
 2599TIP3    H2 7804   5.414   5.160   4.321
 2600TIP3   OH2 7805   3.221   4.488   3.630
 2600TIP3    H1 7806   3.315   4.485   3.613
 2600TIP3    H2 7807   3.213   4.473   3.724
 2601TIP3   OH2 7808   3.533   4.067   4.371
 2601TIP3    H1 7809   3.513   4.131   4.302
 2601TIP3    H2 7810   3.460   4.073   4.432
 2602TIP3   OH2 7811   5.318   5.794   4.395
 2602TIP3    H1 7812   5.337   5.888   4.391
 2602TIP3    H2 7813   5.242   5.783   4.339
 2603TIP3   OH2 7814   5.924   0.957   2.946
 2603TIP3    H1 7815   5.966   0.875   2.920
 2603TIP3    H2 7816   5.896   0.997   2.863
 2604TIP3   OH2 7817   0.185   2.872   4.746
 2604TIP3    H1 7818   0.139   2.947   4.783
 2604TIP3    H2 7819   0.259   2.910   4.698
 2605TIP3   OH2 7820   4.902   3.025   0.473
 2605TIP3    H1 7821   4.852   2.945   0.490
 2605TIP3    H2 7822   4.841   3.082   0.426
 2606TIP3   OH2 7823   5.278   2.250   2.742
 2606TIP3    H1 7824   5.254   2.253   2.835
 2606TIP3    H2 7825   5.297   2.341   2.720
 2607TIP3   OH2 7826   5.961   1.658   4.860
 2607TIP3    H1 7827   6.036   1.703   4.901
 2607TIP3    H2 7828   5.885   1.709   4.888
 2608TIP3   OH2 7829   2.145   3.733   3.351
 2608TIP3    H1 7830   2.113   3.662   3.406
 2608TIP3    H2 7831   2.203   3.783   3.408
 2609TIP3   OH2 7832   3.844   4.260   1.666
 2609TIP3    H1 7833   3.866   4.167   1.672
 2609TIP3    H2 7834   3.769   4.271   1.725
 2610TIP3   OH2 7835   5.133   4.851   1.569
 2610TIP3    H1 7836   5.179   4.920   1.522
 2610TIP3    H2 7837   5.086   4.803   1.501
 2611TIP3   OH2 7838   0.396   5.372   1.815
 2611TIP3    H1 7839   0.399   5.465   1.790
 2611TIP3    H2 7840   0.481   5.337   1.788
 2612TIP3   OH2 7841   5.524   4.086   0.780
 2612TIP3    H1 7842   5.610   4.128   0.772
 2612TIP3    H2 7843   5.465   4.142   0.731
 2613TIP3   OH2 7844   3.951   5.501   1.244
 2613TIP3    H1 7845   4.034   5.546   1.228
 2613TIP3    H2 7846   3.898   5.565   1.292
 2614TIP3   OH2 7847   5.830   5.672   1.519
 2614TIP3    H1 7848   5.791   5.747   1.562
 2614TIP3    H2 7849   5.799   5.677   1.428
 2615TIP3   OH2 7850   5.681   4.942   1.672
 2615TIP3    H1 7851   5.625   5.003   1.623
 2615TIP3    H2 7852   5.758   4.931   1.616
 2616TIP3   OH2 7853   0.987   4.363   2.103
 2616TIP3    H1 7854   0.897   4.343   2.127
 2616TIP3    H2 7855   0.980   4.438   2.044
 2617TIP3   OH2 7856   1.032   1.883   0.525
 2617TIP3    H1 7857   1.091   1.929   0.465
 2617TIP3    H2 7858   1.048   1.790   0.509
 2618TIP3   OH2 7859   4.604   4.833   2.571
 2618TIP3    H1 7860   4.587   4.892   2.644
 2618TIP3    H2 7861   4.594   4.745   2.608
 2619TIP3   OH2 7862   2.882   1.732   4.696
 2619TIP3    H1 7863   2.897   1.726   4.791
 2619TIP3    H2 7864   2.787   1.727   4.687
 2620TIP3   OH2 7865   1.484   3.559   0.043
 2620TIP3    H1 7866   1.485   3.633   0.104
 2620TIP3    H2 7867   1.564   3.568  -0.008
 2621TIP3   OH2 7868   4.913   1.006   2.885
 2621TIP3    H1 7869   4.883   0.953   2.959
 2621TIP3    H2 7870   4.950   0.943   2.823
 2622TIP3   OH2 7871   3.959   1.098   0.475
 2622TIP3    H1 7872   3.890   1.034   0.494
 2622TIP3    H2 7873   4.040   1.047   0.474
 2623TIP3   OH2 7874   1.051   2.453   0.501
 2623TIP3    H1 7875   0.990   2.526   0.491
 2623TIP3    H2 7876   1.100   2.451   0.419
 2624TIP3   OH2 7877   2.360   3.456   0.237
 2624TIP3    H1 7878   2.435   3.513   0.253
 2624TIP3    H2 7879   2.320   3.491   0.157
 2625TIP3   OH2 7880   4.752   1.278   2.051
 2625TIP3    H1 7881   4.721   1.337   2.120
 2625TIP3    H2 7882   4.737   1.190   2.086
 2626TIP3   OH2 7883   1.960   0.874   4.046
 2626TIP3    H1 7884   1.883   0.909   4.090
 2626TIP3    H2 7885   1.948   0.779   4.049
 2627TIP3   OH2 7886   0.538   4.454   0.265
 2627TIP3    H1 7887   0.496   4.537   0.245
 2627TIP3    H2 7888   0.573   4.424   0.181
 2628TIP3   OH2 7889   4.358   1.802   4.038
 2628TIP3    H1 7890   4.342   1.708   4.042
 2628TIP3    H2 7891   4.293   1.835   3.976
 2629TIP3   OH2 7892   0.687   3.813   1.319
 2629TIP3    H1 7893   0.622   3.884   1.326
 2629TIP3    H2 7894   0.700   3.801   1.225
 2630TIP3   OH2 7895   1.626   1.444   5.082
 2630TIP3    H1 7896   1.647   1.402   4.999
 2630TIP3    H2 7897   1.635   1.538   5.064
 2631TIP3   OH2 7898   4.376   2.981   2.036
 2631TIP3    H1 7899   4.407   3.071   2.028
 2631TIP3    H2 7900   4.358   2.970   2.129
 2632TIP3   OH2 7901   4.977   3.674   3.420
 2632TIP3    H1 7902   5.056   3.652   3.371
 2632TIP3    H2 7903   4.934   3.590   3.436
 2633TIP3   OH2 7904   2.088   5.930   3.423
 2633TIP3    H1 7905   2.181   5.919   3.443
 2633TIP3    H2 7906   2.062   6.007   3.474
 2634TIP3   OH2 7907   0.241   4.428   1.976
 2634TIP3    H1 7908   0.223   4.336   1.960
 2634TIP3    H2 7909   0.332   4.440   1.950
 2635TIP3   OH2 7910   0.151   3.103   1.924
 2635TIP3    H1 7911   0.075   3.132   1.874
 2635TIP3    H2 7912   0.126   3.016   1.956
 2636TIP3   OH2 7913   2.833   0.874   0.916
 2636TIP3    H1 7914   2.754   0.823   0.900
 2636TIP3    H2 7915   2.904   0.810   0.915
 2637TIP3   OH2 7916   2.697   2.728   5.111
 2637TIP3    H1 7917   2.644   2.807   5.103
 2637TIP3    H2 7918   2.656   2.678   5.181
 2638TIP3   OH2 7919   5.231   3.721   4.549
 2638TIP3    H1 7920   5.294   3.779   4.590
 2638TIP3    H2 7921   5.245   3.734   4.455
 2639TIP3   OH2 7922   1.428   2.561   2.221
 2639TIP3    H1 7923   1.476   2.556   2.304
 2639TIP3    H2 7924   1.440   2.651   2.192
 2640TIP3   OH2 7925   6.227   5.466   1.386
 2640TIP3    H1 7926   6.265   5.381   1.366
 2640TIP3    H2 7927   6.203   5.503   1.301
 2641TIP3   OH2 7928   0.839   1.409   0.026
 2641TIP3    H1 7929   0.906   1.356   0.071
 2641TIP3    H2 7930   0.765   1.409   0.086
 2642TIP3   OH2 7931   2.257   3.975   4.747
 2642TIP3    H1 7932   2.272   4.030   4.670
 2642TIP3    H2 7933   2.290   4.026   4.820
 2643TIP3   OH2 7934   2.310   2.198   2.255
 2643TIP3    H1 7935   2.232   2.240   2.219
 2643TIP3    H2 7936   2.346   2.146   2.183
 2644TIP3   OH2 7937   1.877   2.903   4.790
 2644TIP3    H1 7938   1.826   2.829   4.823
 2644TIP3    H2 7939   1.893   2.958   4.867
 2645TIP3   OH2 7940   6.071   2.656   3.561
 2645TIP3    H1 7941   6.145   2.608   3.524
 2645TIP3    H2 7942   6.084   2.746   3.531
 2646TIP3   OH2 7943   5.595   1.852   3.174
 2646TIP3    H1 7944   5.603   1.947   3.166
 2646TIP3    H2 7945   5.655   1.828   3.245
 2647TIP3   OH2 7946   2.582   0.901   3.107
 2647TIP3    H1 7947   2.636   0.824   3.087
 2647TIP3    H2 7948   2.645   0.972   3.119
 2648TIP3   OH2 7949   2.838   3.784   2.091
 2648TIP3    H1 7950   2.908   3.829   2.045
 2648TIP3    H2 7951   2.759   3.806   2.041
 2649TIP3   OH2 7952   3.976   0.834   0.718
 2649TIP3    H1 7953   3.961   0.928   0.719
 2649TIP3    H2 7954   3.987   0.809   0.810
 2650TIP3   OH2 7955   0.513   4.908   1.808
 2650TIP3    H1 7956   0.515   4.974   1.877
 2650TIP3    H2 7957   0.492   4.957   1.729
 2651TIP3   OH2 7958   5.085   0.317   0.077
 2651TIP3    H1 7959   5.162   0.310   0.021
 2651TIP3    H2 7960   5.109   0.380   0.145
 2652TIP3   OH2 7961   4.107   5.878   3.201
 2652TIP3    H1 7962   4.164   5.898   3.276
 2652TIP3    H2 7963   4.018   5.881   3.238
 2653TIP3   OH2 7964   0.930   1.780   1.969
 2653TIP3    H1 7965   0.931   1.876   1.966
 2653TIP3    H2 7966   1.010   1.756   2.016
 2654TIP3   OH2 7967   3.932   5.084   1.932
 2654TIP3    H1 7968   3.872   5.015   1.959
 2654TIP3    H2 7969   4.016   5.059   1.971
 2655TIP3   OH2 7970   4.837   3.523   2.982
 2655TIP3    H1 7971   4.792   3.544   3.064
 2655TIP3    H2 7972   4.825   3.600   2.927
 2656TIP3   OH2 7973   3.931   2.251   3.381
 2656TIP3    H1 7974   4.014   2.284   3.347
 2656TIP3    H2 7975   3.882   2.330   3.404
 2657TIP3   OH2 7976   5.685   3.553   4.979
 2657TIP3    H1 7977   5.645   3.553   4.892
 2657TIP3    H2 7978   5.697   3.460   4.999
 2658TIP3   OH2 7979   0.741   1.542   4.791
 2658TIP3    H1 7980   0.761   1.451   4.812
 2658TIP3    H2 7981   0.785   1.557   4.707
 2659TIP3   OH2 7982   5.254   3.786   2.591
 2659TIP3    H1 7983   5.244   3.716   2.655
 2659TIP3    H2 7984   5.173   3.836   2.598
 2660TIP3   OH2 7985   6.272   2.243   2.458
 2660TIP3    H1 7986   6.348   2.272   2.407
 2660TIP3    H2 7987   6.301   2.251   2.549
 2661TIP3   OH2 7988   4.743   5.260   1.116
 2661TIP3    H1 7989   4.766   5.259   1.023
 2661TIP3    H2 7990   4.656   5.221   1.121
 2662TIP3   OH2 7991   5.617   4.087   1.533
 2662TIP3    H1 7992   5.555   4.157   1.555
 2662TIP3    H2 7993   5.608   4.076   1.439
 2663TIP3   OH2 7994   4.614   2.324   0.189
 2663TIP3    H1 7995   4.587   2.232   0.183
 2663TIP3    H2 7996   4.622   2.341   0.283
 2664TIP3   OH2 7997   4.260   3.870   5.112
 2664TIP3    H1 7998   4.175   3.897   5.147
 2664TIP3    H2 7999   4.240   3.794   5.057
 2665TIP3   OH2 8000   6.037   0.613   4.407
 2665TIP3    H1 8001   5.989   0.690   4.437
 2665TIP3    H2 8002   6.114   0.649   4.363
 2666TIP3   OH2 8003   3.689   1.986   0.355
 2666TIP3    H1 8004   3.654   2.006   0.268
 2666TIP3    H2 8005   3.619   2.012   0.415
 2667TIP3   OH2 8006   6.097   0.559   4.726
 2667TIP3    H1 8007   6.080   0.544   4.633
 2667TIP3    H2 8008   6.051   0.640   4.747
 2668TIP3   OH2 8009   5.618   4.082   1.256
 2668TIP3    H1 8010   5.576   4.023   1.194
 2668TIP3    H2 8011   5.710   4.057   1.254
 2669TIP3   OH2 8012   3.962   4.023   3.088
 2669TIP3    H1 8013   3.959   4.068   3.172
 2669TIP3    H2 8014   3.876   3.982   3.079
 2670TIP3   OH2 8015   4.420   2.548   2.366
 2670TIP3    H1 8016   4.445   2.630   2.407
 2670TIP3    H2 8017   4.325   2.544   2.375
 2671TIP3   OH2 8018   0.183   1.847   4.490
 2671TIP3    H1 8019   0.214   1.816   4.575
 2671TIP3    H2 8020   0.239   1.921   4.469
 2672TIP3   OH2 8021   2.494   2.370   1.742
 2672TIP3    H1 8022   2.413   2.366   1.793
 2672TIP3    H2 8023   2.469   2.415   1.662
 2673TIP3   OH2 8024   3.848   1.100   1.476
 2673TIP3    H1 8025   3.780   1.076   1.414
 2673TIP3    H2 8026   3.822   1.185   1.511
 2674TIP3   OH2 8027   0.844   4.794   4.708
 2674TIP3    H1 8028   0.803   4.737   4.773
 2674TIP3    H2 8029   0.819   4.757   4.623
 2675TIP3   OH2 8030   3.693   1.400   4.914
 2675TIP3    H1 8031   3.645   1.446   4.983
 2675TIP3    H2 8032   3.727   1.470   4.859
 2676TIP3   OH2 8033   2.808   1.469   4.314
 2676TIP3    H1 8034   2.899   1.454   4.289
 2676TIP3    H2 8035   2.798   1.564   4.315
 2677TIP3   OH2 8036   4.747   4.856   1.388
 2677TIP3    H1 8037   4.781   4.901   1.465
 2677TIP3    H2 8038   4.671   4.908   1.362
 2678TIP3   OH2 8039   0.311   0.026   1.439
 2678TIP3    H1 8040   0.271   0.066   1.362
 2678TIP3    H2 8041   0.379  -0.032   1.405
 2679TIP3   OH2 8042   1.340   5.553   3.762
 2679TIP3    H1 8043   1.257   5.559   3.715
 2679TIP3    H2 8044   1.403   5.523   3.696
 2680TIP3   OH2 8045   4.526   0.254   0.958
 2680TIP3    H1 8046   4.499   0.282   0.870
 2680TIP3    H2 8047   4.621   0.248   0.953
 2681TIP3   OH2 8048   1.887   4.411   3.282
 2681TIP3    H1 8049   1.882   4.456   3.366
 2681TIP3    H2 8050   1.891   4.481   3.217
 2682TIP3   OH2 8051   5.698   0.878   2.203
 2682TIP3    H1 8052   5.644   0.836   2.136
 2682TIP3    H2 8053   5.665   0.968   2.208
 2683TIP3   OH2 8054   1.941   4.056   3.008
 2683TIP3    H1 8055   1.895   4.102   2.938
 2683TIP3    H2 8056   1.903   3.968   3.008
 2684TIP3   OH2 8057   6.215   4.351   2.929
 2684TIP3    H1 8058   6.187   4.275   2.979
 2684TIP3    H2 8059   6.144   4.366   2.866
 2685TIP3   OH2 8060   2.623   4.652   0.091
 2685TIP3    H1 8061   2.550   4.596   0.064
 2685TIP3    H2 8062   2.592   4.696   0.169
 2686TIP3   OH2 8063   5.348   0.297   2.050
 2686TIP3    H1 8064   5.278   0.312   2.113
 2686TIP3    H2 8065   5.360   0.381   2.006
 2687TIP3   OH2 8066   4.362   4.314   2.359
 2687TIP3    H1 8067   4.370   4.224   2.391
 2687TIP3    H2 8068   4.451   4.347   2.358
 2688TIP3   OH2 8069   3.435  -0.025   0.775
 2688TIP3    H1 8070   3.524   0.006   0.758
 2688TIP3    H2 8071   3.379   0.052   0.762
 2689TIP3   OH2 8072   5.257   2.399   4.962
 2689TIP3    H1 8073   5.313   2.328   4.931
 2689TIP3    H2 8074   5.318   2.472   4.977
 2690TIP3   OH2 8075   0.680   2.347   1.199
 2690TIP3    H1 8076   0.723   2.427   1.167
 2690TIP3    H2 8077   0.670   2.293   1.121
 2691TIP3   OH2 8078   3.710   1.381   0.275
 2691TIP3    H1 8079   3.663   1.375   0.358
 2691TIP3    H2 8080   3.720   1.291   0.246
 2692TIP3   OH2 8081   4.765   0.567   0.349
 2692TIP3    H1 8082   4.753   0.661   0.332
 2692TIP3    H2 8083   4.684   0.540   0.391
 2693TIP3   OH2 8084   4.627   5.967   2.085
 2693TIP3    H1 8085   4.600   6.047   2.040
 2693TIP3    H2 8086   4.633   5.992   2.177
 2694TIP3   OH2 8087   2.873   2.212   1.376
 2694TIP3    H1 8088   2.831   2.251   1.300
 2694TIP3    H2 8089   2.963   2.194   1.348
 2695TIP3   OH2 8090   4.896   3.032   2.591
 2695TIP3    H1 8091   4.869   3.114   2.550
 2695TIP3    H2 8092   4.964   3.057   2.654
 2696TIP3   OH2 8093   4.832   2.266   4.687
 2696TIP3    H1 8094   4.924   2.241   4.693
 2696TIP3    H2 8095   4.803   2.231   4.603
 2697TIP3   OH2 8096   2.995   1.351   1.109
 2697TIP3    H1 8097   2.934   1.383   1.175
 2697TIP3    H2 8098   2.951   1.275   1.070
 2698TIP3   OH2 8099   2.698   5.240   2.785
 2698TIP3    H1 8100   2.687   5.328   2.748
 2698TIP3    H2 8101   2.753   5.253   2.862
 2699TIP3   OH2 8102   0.813   5.505   4.432
 2699TIP3    H1 8103   0.733   5.501   4.380
 2699TIP3    H2 8104   0.783   5.511   4.523
 2700TIP3   OH2 8105   2.496   4.477   2.089
 2700TIP3    H1 8106   2.555   4.411   2.126
 2700TIP3    H2 8107   2.481   4.539   2.160
 2701TIP3   OH2 8108   1.552   4.575   3.065
 2701TIP3    H1 8109   1.507   4.516   3.005
 2701TIP3    H2 8110   1.633   4.529   3.087
 2702TIP3   OH2 8111   6.230   3.398   0.797
 2702TIP3    H1 8112   6.175   3.322   0.777
 2702TIP3    H2 8113   6.221   3.455   0.720
 2703TIP3   OH2 8114   2.449   5.440   2.322
 2703TIP3    H1 8115   2.457   5.352   2.359
 2703TIP3    H2 8116   2.473   5.498   2.394
 2704TIP3   OH2 8117   3.318   1.547   2.788
 2704TIP3    H1 8118   3.386   1.527   2.725
 2704TIP3    H2 8119   3.305   1.642   2.780
 2705TIP3   OH2 8120   0.905   2.733   4.823
 2705TIP3    H1 8121   0.999   2.717   4.818
 2705TIP3    H2 8122   0.866   2.647   4.836
 2706TIP3   OH2 8123   2.057   2.267   0.395
 2706TIP3    H1 8124   1.987   2.329   0.374
 2706TIP3    H2 8125   2.030   2.228   0.478
 2707TIP3   OH2 8126   1.509   5.378   3.141
 2707TIP3    H1 8127   1.530   5.465   3.175
 2707TIP3    H2 8128   1.458   5.394   3.062
 2708TIP3   OH2 8129   5.275   3.407   2.973
 2708TIP3    H1 8130   5.303   3.497   2.989
 2708TIP3    H2 8131   5.284   3.363   3.057
 2709TIP3   OH2 8132   2.892   0.507   4.714
 2709TIP3    H1 8133   2.982   0.482   4.736
 2709TIP3    H2 8134   2.840   0.430   4.738
 2710TIP3   OH2 8135   5.377   2.601   4.165
 2710TIP3    H1 8136   5.347   2.690   4.146
 2710TIP3    H2 8137   5.300   2.547   4.150
 2711TIP3   OH2 8138   5.021   0.519   1.615
 2711TIP3    H1 8139   5.011   0.614   1.625
 2711TIP3    H2 8140   5.079   0.494   1.687
 2712TIP3   OH2 8141   2.691   3.406   1.797
 2712TIP3    H1 8142   2.776   3.410   1.841
 2712TIP3    H2 8143   2.663   3.497   1.790
 2713TIP3   OH2 8144   1.394   4.144   0.539
 2713TIP3    H1 8145   1.346   4.211   0.586
 2713TIP3    H2 8146   1.404   4.178   0.450
 2714TIP3   OH2 8147   2.803   0.065   4.036
 2714TIP3    H1 8148   2.745   0.059   3.961
 2714TIP3    H2 8149   2.885   0.098   4.000
 2715TIP3   OH2 8150   0.411   1.065   1.423
 2715TIP3    H1 8151   0.461   1.049   1.343
 2715TIP3    H2 8152   0.349   0.992   1.427
 2716TIP3   OH2 8153   2.351   1.019   3.201
 2716TIP3    H1 8154   2.394   0.952   3.147
 2716TIP3    H2 8155   2.305   1.074   3.138
 2717TIP3   OH2 8156   0.997   4.322   2.523
 2717TIP3    H1 8157   1.051   4.361   2.592
 2717TIP3    H2 8158   1.060   4.285   2.461
 2718TIP3   OH2 8159   5.531   2.579   1.287
 2718TIP3    H1 8160   5.612   2.629   1.301
 2718TIP3    H2 8161   5.520   2.577   1.192
 2719TIP3   OH2 8162   1.264   0.906   0.860
 2719TIP3    H1 8163   1.330   0.941   0.919
 2719TIP3    H2 8164   1.314   0.867   0.787
 2720TIP3   OH2 8165   3.295   0.942   3.105
 2720TIP3    H1 8166   3.345   1.014   3.068
 2720TIP3    H2 8167   3.300   0.954   3.199
 2721TIP3   OH2 8168   3.015   1.904   0.051
 2721TIP3    H1 8169   3.075   1.979   0.062
 2721TIP3    H2 8170   2.977   1.915  -0.036
 2722TIP3   OH2 8171   5.553   0.817   1.974
 2722TIP3    H1 8172   5.578   0.909   1.977
 2722TIP3    H2 8173   5.504   0.808   1.892
 2723TIP3   OH2 8174   2.987   3.702   4.275
 2723TIP3    H1 8175   2.994   3.726   4.367
 2723TIP3    H2 8176   2.901   3.661   4.267
 2724TIP3   OH2 8177   2.127   2.395   2.154
 2724TIP3    H1 8178   2.067   2.389   2.229
 2724TIP3    H2 8179   2.134   2.488   2.136
 2725TIP3   OH2 8180   5.834   0.273   0.655
 2725TIP3    H1 8181   5.812   0.347   0.599
 2725TIP3    H2 8182   5.790   0.292   0.738
 2726TIP3   OH2 8183   4.955   5.263   0.091
 2726TIP3    H1 8184   4.957   5.356   0.113
 2726TIP3    H2 8185   4.875   5.252   0.041
 2727TIP3   OH2 8186   1.273   5.190  -0.041
 2727TIP3    H1 8187   1.202   5.150  -0.093
 2727TIP3    H2 8188   1.237   5.195   0.048
 2728TIP3   OH2 8189   1.351   0.073   0.764
 2728TIP3    H1 8190   1.258   0.089   0.777
 2728TIP3    H2 8191   1.394   0.152   0.797
 2729TIP3   OH2 8192   1.392   0.321   0.834
 2729TIP3    H1 8193   1.401   0.378   0.758
 2729TIP3    H2 8194   1.333   0.367   0.892
 2730TIP3   OH2 8195   5.880   2.280   4.871
 2730TIP3    H1 8196   5.785   2.278   4.884
 2730TIP3    H2 8197   5.908   2.362   4.912
 2731TIP3   OH2 8198   0.534   3.032   1.666
 2731TIP3    H1 8199   0.451   2.984   1.656
 2731TIP3    H2 8200   0.511   3.109   1.719
 2732TIP3   OH2 8201   1.003   1.692   3.033
 2732TIP3    H1 8202   1.057   1.760   3.075
 2732TIP3    H2 8203   1.052   1.611   3.049
 2733TIP3   OH2 8204   5.074   2.419   0.672
 2733TIP3    H1 8205   5.016   2.414   0.747
 2733TIP3    H2 8206   5.150   2.366   0.696
 2734TIP3   OH2 8207   5.598   0.634   4.794
 2734TIP3    H1 8208   5.547   0.618   4.873
 2734TIP3    H2 8209   5.578   0.725   4.771
 2735TIP3   OH2 8210   0.155   4.212   4.993
 2735TIP3    H1 8211   0.083   4.198   4.933
 2735TIP3    H2 8212   0.130   4.290   5.043
 2736TIP3   OH2 8213   0.574   5.044   0.531
 2736TIP3    H1 8214   0.538   5.132   0.542
 2736TIP3    H2 8215   0.629   5.051   0.452
 2737TIP3   OH2 8216   1.139   1.474   3.109
 2737TIP3    H1 8217   1.069   1.409   3.118
 2737TIP3    H2 8218   1.217   1.430   3.145
 2738TIP3   OH2 8219   5.716   4.364   2.557
 2738TIP3    H1 8220   5.665   4.292   2.519
 2738TIP3    H2 8221   5.661   4.441   2.546
 2739TIP3   OH2 8222   1.801   0.599   3.651
 2739TIP3    H1 8223   1.880   0.620   3.601
 2739TIP3    H2 8224   1.734   0.659   3.619
 2740TIP3   OH2 8225   4.462   5.696   1.515
 2740TIP3    H1 8226   4.548   5.738   1.515
 2740TIP3    H2 8227   4.400   5.769   1.518
 2741TIP3   OH2 8228   2.659   3.440   3.054
 2741TIP3    H1 8229   2.672   3.437   3.149
 2741TIP3    H2 8230   2.600   3.515   3.041
 2742TIP3   OH2 8231   3.939   0.863   3.783
 2742TIP3    H1 8232   3.895   0.948   3.777
 2742TIP3    H2 8233   3.965   0.856   3.875
 2743TIP3   OH2 8234   5.962   0.222   3.114
 2743TIP3    H1 8235   6.055   0.204   3.105
 2743TIP3    H2 8236   5.954   0.316   3.094
 2744TIP3   OH2 8237   1.725   3.275   0.866
 2744TIP3    H1 8238   1.769   3.262   0.950
 2744TIP3    H2 8239   1.758   3.204   0.810
 2745TIP3   OH2 8240   0.028   2.757   0.081
 2745TIP3    H1 8241   0.041   2.678   0.134
 2745TIP3    H2 8242  -0.017   2.726   0.002
 2746TIP3   OH2 8243   3.737   5.371   3.661
 2746TIP3    H1 8244   3.793   5.391   3.586
 2746TIP3    H2 8245   3.656   5.419   3.644
 2747TIP3   OH2 8246   3.009   3.021   0.844
 2747TIP3    H1 8247   3.063   3.061   0.776
 2747TIP3    H2 8248   2.920   3.047   0.822
 2748TIP3   OH2 8249   4.181   0.806   1.741
 2748TIP3    H1 8250   4.097   0.788   1.784
 2748TIP3    H2 8251   4.242   0.745   1.781
 2749TIP3   OH2 8252   3.192   5.266   2.103
 2749TIP3    H1 8253   3.217   5.274   2.011
 2749TIP3    H2 8254   3.191   5.356   2.136
 2750TIP3   OH2 8255   4.948   3.664   0.308
 2750TIP3    H1 8256   4.948   3.676   0.213
 2750TIP3    H2 8257   4.901   3.581   0.322
 2751TIP3   OH2 8258   3.276   1.272   0.782
 2751TIP3    H1 8259   3.268   1.276   0.877
 2751TIP3    H2 8260   3.370   1.267   0.766
 2752TIP3   OH2 8261   2.466   0.579   0.015
 2752TIP3    H1 8262   2.413   0.647   0.057
 2752TIP3    H2 8263   2.529   0.553   0.083
 2753TIP3   OH2 8264   1.308   5.624   1.698
 2753TIP3    H1 8265   1.264   5.544   1.725
 2753TIP3    H2 8266   1.238   5.684   1.672
 2754TIP3   OH2 8267   2.111   3.856   4.275
 2754TIP3    H1 8268   2.027   3.889   4.307
 2754TIP3    H2 8269   2.147   3.805   4.347
 2755TIP3   OH2 8270   2.650   2.096   4.672
 2755TIP3    H1 8271   2.644   2.137   4.759
 2755TIP3    H2 8272   2.661   2.170   4.612
 2756TIP3   OH2 8273   3.252   3.233   0.460
 2756TIP3    H1 8274   3.189   3.237   0.388
 2756TIP3    H2 8275   3.295   3.318   0.460
 2757TIP3   OH2 8276   2.431   1.075   1.550
 2757TIP3    H1 8277   2.508   1.023   1.527
 2757TIP3    H2 8278   2.425   1.141   1.482
 2758TIP3   OH2 8279   3.931   5.726   0.210
 2758TIP3    H1 8280   3.902   5.807   0.253
 2758TIP3    H2 8281   4.018   5.709   0.246
 2759TIP3   OH2 8282   5.409   3.252   1.504
 2759TIP3    H1 8283   5.314   3.241   1.500
 2759TIP3    H2 8284   5.427   3.275   1.595
 2760TIP3   OH2 8285   0.936   2.709   0.673
 2760TIP3    H1 8286   0.846   2.684   0.653
 2760TIP3    H2 8287   0.928   2.794   0.717
 2761TIP3   OH2 8288   0.048   3.597   4.414
 2761TIP3    H1 8289   0.134   3.566   4.441
 2761TIP3    H2 8290   0.015   3.531   4.354
 2762TIP3   OH2 8291   6.047   4.509   4.484
 2762TIP3    H1 8292   5.952   4.509   4.477
 2762TIP3    H2 8293   6.067   4.437   4.544
 2763TIP3   OH2 8294   5.952   5.611   3.850
 2763TIP3    H1 8295   5.986   5.700   3.857
 2763TIP3    H2 8296   6.030   5.556   3.854
 2764TIP3   OH2 8297   1.143   0.707   2.587
 2764TIP3    H1 8298   1.182   0.791   2.608
 2764TIP3    H2 8299   1.050   0.718   2.608
 2765TIP3   OH2 8300   0.339   2.581   0.974
 2765TIP3    H1 8301   0.306   2.587   0.884
 2765TIP3    H2 8302   0.263   2.595   1.029
 2766TIP3   OH2 8303   0.897   4.271   0.733
 2766TIP3    H1 8304   0.848   4.240   0.656
 2766TIP3    H2 8305   0.844   4.342   0.768
 2767TIP3   OH2 8306   1.376   5.614   0.964
 2767TIP3    H1 8307   1.436   5.554   1.010
 2767TIP3    H2 8308   1.420   5.699   0.967
 2768TIP3   OH2 8309   0.803   1.540   0.329
 2768TIP3    H1 8310   0.815   1.453   0.369
 2768TIP3    H2 8311   0.763   1.593   0.398
 2769TIP3   OH2 8312   4.109   0.468   4.541
 2769TIP3    H1 8313   4.148   0.515   4.467
 2769TIP3    H2 8314   4.022   0.506   4.551
 2770TIP3   OH2 8315   0.788   3.519   0.167
 2770TIP3    H1 8316   0.858   3.568   0.210
 2770TIP3    H2 8317   0.827   3.435   0.143
 2771TIP3   OH2 8318   5.343   1.790   2.118
 2771TIP3    H1 8319   5.368   1.827   2.202
 2771TIP3    H2 8320   5.290   1.859   2.077
 2772TIP3   OH2 8321   4.157   0.537   4.260
 2772TIP3    H1 8322   4.120   0.615   4.301
 2772TIP3    H2 8323   4.085   0.502   4.207
 2773TIP3   OH2 8324   4.716   0.133   4.168
 2773TIP3    H1 8325   4.748   0.201   4.109
 2773TIP3    H2 8326   4.677   0.068   4.110
 2774TIP3   OH2 8327   4.101   4.208   1.783
 2774TIP3    H1 8328   4.180   4.249   1.749
 2774TIP3    H2 8329   4.029   4.258   1.745
 2775TIP3   OH2 8330   0.298   2.974   2.191
 2775TIP3    H1 8331   0.356   2.925   2.132
 2775TIP3    H2 8332   0.213   2.975   2.147
 2776TIP3   OH2 8333   5.072   2.974   4.455
 2776TIP3    H1 8334   5.080   3.013   4.368
 2776TIP3    H2 8335   5.016   2.897   4.442
 2777TIP3   OH2 8336   4.517   2.680   0.892
 2777TIP3    H1 8337   4.446   2.729   0.934
 2777TIP3    H2 8338   4.547   2.618   0.959
 2778TIP3   OH2 8339   5.356   0.062   0.689
 2778TIP3    H1 8340   5.290   0.085   0.754
 2778TIP3    H2 8341   5.426   0.020   0.739
 2779TIP3   OH2 8342   1.836   4.340   1.613
 2779TIP3    H1 8343   1.866   4.413   1.667
 2779TIP3    H2 8344   1.902   4.272   1.626
 2780TIP3   OH2 8345   4.969   3.753   0.632
 2780TIP3    H1 8346   4.964   3.711   0.718
 2780TIP3    H2 8347   5.033   3.702   0.583
 2781TIP3   OH2 8348   5.250   2.441   0.422
 2781TIP3    H1 8349   5.162   2.435   0.459
 2781TIP3    H2 8350   5.285   2.352   0.430
 2782TIP3   OH2 8351   2.219   2.454   2.899
 2782TIP3    H1 8352   2.129   2.422   2.909
 2782TIP3    H2 8353   2.216   2.543   2.936
 2783TIP3   OH2 8354   0.491   5.058   1.519
 2783TIP3    H1 8355   0.552   5.111   1.571
 2783TIP3    H2 8356   0.450   5.120   1.459
 2784TIP3   OH2 8357   2.661   5.178   0.951
 2784TIP3    H1 8358   2.737   5.183   0.894
 2784TIP3    H2 8359   2.697   5.184   1.040
 2785TIP3   OH2 8360   0.424   3.420   0.109
 2785TIP3    H1 8361   0.465   3.380   0.033
 2785TIP3    H2 8362   0.394   3.506   0.078
 2786TIP3   OH2 8363   1.563   5.916   0.346
 2786TIP3    H1 8364   1.606   5.894   0.429
 2786TIP3    H2 8365   1.635   5.930   0.285
 2787TIP3   OH2 8366   5.735   2.814   1.097
 2787TIP3    H1 8367   5.814   2.816   1.044
 2787TIP3    H2 8368   5.764   2.787   1.184
 2788TIP3   OH2 8369   3.119   5.154   4.664
 2788TIP3    H1 8370   3.148   5.079   4.612
 2788TIP3    H2 8371   3.139   5.131   4.754
 2789TIP3   OH2 8372   5.520   3.859   1.656
 2789TIP3    H1 8373   5.561   3.935   1.616
 2789TIP3    H2 8374   5.571   3.785   1.623
 2790TIP3   OH2 8375   2.013   0.959   3.021
 2790TIP3    H1 8376   1.961   1.000   2.952
 2790TIP3    H2 8377   2.070   0.898   2.975
 2791TIP3   OH2 8378   5.007   3.358   2.645
 2791TIP3    H1 8379   4.924   3.334   2.685
 2791TIP3    H2 8380   4.986   3.371   2.553
 2792TIP3   OH2 8381   3.225   1.108   3.331
 2792TIP3    H1 8382   3.230   1.177   3.397
 2792TIP3    H2 8383   3.222   1.027   3.381
 2793TIP3   OH2 8384   0.742   3.057   4.463
 2793TIP3    H1 8385   0.685   3.003   4.409
 2793TIP3    H2 8386   0.682   3.118   4.507
 2794TIP3   OH2 8387   1.591   2.670   4.481
 2794TIP3    H1 8388   1.684   2.661   4.504
 2794TIP3    H2 8389   1.552   2.715   4.556
 2795TIP3   OH2 8390   4.954   2.489   3.469
 2795TIP3    H1 8391   4.891   2.507   3.538
 2795TIP3    H2 8392   5.032   2.458   3.515
 2796TIP3   OH2 8393   4.435   5.808   2.295
 2796TIP3    H1 8394   4.474   5.747   2.358
 2796TIP3    H2 8395   4.448   5.895   2.334
 2797TIP3   OH2 8396   3.843   1.242   3.224
 2797TIP3    H1 8397   3.929   1.217   3.257
 2797TIP3    H2 8398   3.851   1.336   3.205
 2798TIP3   OH2 8399   4.452   1.535   0.250
 2798TIP3    H1 8400   4.521   1.514   0.188
 2798TIP3    H2 8401   4.391   1.589   0.201
 2799TIP3   OH2 8402   2.048   2.903   0.574
 2799TIP3    H1 8403   2.050   2.825   0.520
 2799TIP3    H2 8404   2.064   2.871   0.663
 2800TIP3   OH2 8405   2.284   3.004   4.815
 2800TIP3    H1 8406   2.247   3.091   4.830
 2800TIP3    H2 8407   2.378   3.017   4.826
 2801TIP3   OH2 8408   4.052   0.929   4.022
 2801TIP3    H1 8409   4.055   1.024   4.011
 2801TIP3    H2 8410   4.140   0.900   3.999
 2802TIP3   OH2 8411   3.241   2.521   0.127
 2802TIP3    H1 8412   3.249   2.563   0.042
 2802TIP3    H2 8413   3.331   2.505   0.155
 2803TIP3   OH2 8414   4.926   0.176   1.103
 2803TIP3    H1 8415   4.900   0.227   1.026
 2803TIP3    H2 8416   4.855   0.189   1.166
 2804TIP3   OH2 8417   2.257   4.582   0.628
 2804TIP3    H1 8418   2.329   4.622   0.579
 2804TIP3    H2 8419   2.298   4.510   0.677
 2805TIP3   OH2 8420   3.318   0.541   5.038
 2805TIP3    H1 8421   3.373   0.479   4.991
 2805TIP3    H2 8422   3.379   0.598   5.084
 2806TIP3   OH2 8423   5.234   2.828   2.076
 2806TIP3    H1 8424   5.235   2.871   2.162
 2806TIP3    H2 8425   5.297   2.878   2.024
 2807TIP3   OH2 8426   5.184   5.359   1.300
 2807TIP3    H1 8427   5.160   5.303   1.227
 2807TIP3    H2 8428   5.128   5.330   1.372
 2808TIP3   OH2 8429   0.351   3.893   5.003
 2808TIP3    H1 8430   0.446   3.903   4.995
 2808TIP3    H2 8431   0.327   3.944   5.080
 2809TIP3   OH2 8432   0.267   2.737   2.971
 2809TIP3    H1 8433   0.334   2.806   2.968
 2809TIP3    H2 8434   0.250   2.725   3.065
 2810TIP3   OH2 8435   3.896   5.654   3.658
 2810TIP3    H1 8436   3.898   5.747   3.633
 2810TIP3    H2 8437   3.902   5.607   3.575
 2811TIP3   OH2 8438   3.196   4.450   3.899
 2811TIP3    H1 8439   3.193   4.531   3.949
 2811TIP3    H2 8440   3.239   4.388   3.959
 2812TIP3   OH2 8441   1.877   0.971   4.423
 2812TIP3    H1 8442   1.880   0.882   4.457
 2812TIP3    H2 8443   1.817   0.966   4.349
 2813TIP3   OH2 8444   4.613   1.553   4.151
 2813TIP3    H1 8445   4.543   1.503   4.110
 2813TIP3    H2 8446   4.669   1.579   4.078
 2814TIP3   OH2 8447   1.295   3.360   0.455
 2814TIP3    H1 8448   1.314   3.275   0.495
 2814TIP3    H2 8449   1.306   3.423   0.526
 2815TIP3   OH2 8450   4.646   1.984   0.745
 2815TIP3    H1 8451   4.628   1.946   0.659
 2815TIP3    H2 8452   4.643   2.079   0.731
 2816TIP3   OH2 8453   4.945   5.880   0.872
 2816TIP3    H1 8454   4.919   5.788   0.881
 2816TIP3    H2 8455   4.910   5.906   0.787
 2817TIP3   OH2 8456   0.833   4.487   4.771
 2817TIP3    H1 8457   0.773   4.428   4.725
 2817TIP3    H2 8458   0.837   4.452   4.861
 2818TIP3   OH2 8459   0.759   5.437   3.285
 2818TIP3    H1 8460   0.706   5.458   3.208
 2818TIP3    H2 8461   0.765   5.342   3.285
 2819TIP3   OH2 8462   3.791   1.742   1.323
 2819TIP3    H1 8463   3.771   1.700   1.240
 2819TIP3    H2 8464   3.745   1.689   1.389
 2820TIP3   OH2 8465   5.784   1.561   2.389
 2820TIP3    H1 8466   5.766   1.469   2.370
 2820TIP3    H2 8467   5.877   1.573   2.368
 2821TIP3   OH2 8468   4.442   1.601   3.068
 2821TIP3    H1 8469   4.474   1.511   3.073
 2821TIP3    H2 8470   4.347   1.593   3.071
 2822TIP3   OH2 8471   5.940   4.294   2.003
 2822TIP3    H1 8472   5.856   4.305   1.958
 2822TIP3    H2 8473   5.927   4.217   2.059
 2823TIP3   OH2 8474   5.859   4.559   4.867
 2823TIP3    H1 8475   5.883   4.484   4.813
 2823TIP3    H2 8476   5.896   4.634   4.820
 2824TIP3   OH2 8477   1.390   0.486   3.237
 2824TIP3    H1 8478   1.465   0.544   3.231
 2824TIP3    H2 8479   1.382   0.446   3.150
 2825TIP3   OH2 8480   2.076   4.321   4.484
 2825TIP3    H1 8481   2.053   4.229   4.493
 2825TIP3    H2 8482   2.072   4.338   4.390
 2826TIP3   OH2 8483   1.339   1.379   5.062
 2826TIP3    H1 8484   1.325   1.308   5.125
 2826TIP3    H2 8485   1.395   1.442   5.108
 2827TIP3   OH2 8486   5.115   5.205   2.536
 2827TIP3    H1 8487   5.060   5.187   2.459
 2827TIP3    H2 8488   5.154   5.120   2.557
 2828TIP3   OH2 8489   4.760   1.454   1.115
 2828TIP3    H1 8490   4.815   1.384   1.150
 2828TIP3    H2 8491   4.792   1.468   1.026
 2829TIP3   OH2 8492   2.093   3.311   4.543
 2829TIP3    H1 8493   2.137   3.396   4.538
 2829TIP3    H2 8494   2.028   3.313   4.473
 2830TIP3   OH2 8495   6.044   5.233   3.394
 2830TIP3    H1 8496   6.006   5.184   3.467
 2830TIP3    H2 8497   5.975   5.234   3.328
 2831TIP3   OH2 8498   5.006   1.216   1.954
 2831TIP3    H1 8499   4.932   1.265   1.991
 2831TIP3    H2 8500   4.988   1.212   1.860
 2832TIP3   OH2 8501   3.616   2.014   2.101
 2832TIP3    H1 8502   3.696   2.010   2.154
 2832TIP3    H2 8503   3.574   1.929   2.115
 2833TIP3   OH2 8504   0.631   1.841   4.479
 2833TIP3    H1 8505   0.597   1.753   4.467
 2833TIP3    H2 8506   0.585   1.893   4.413
 2834TIP3   OH2 8507   1.561   5.091   1.971
 2834TIP3    H1 8508   1.517   5.006   1.959
 2834TIP3    H2 8509   1.531   5.144   1.898
 2835TIP3   OH2 8510   6.081   2.699   2.847
 2835TIP3    H1 8511   6.030   2.626   2.812
 2835TIP3    H2 8512   6.098   2.674   2.938
 2836TIP3   OH2 8513   5.636   3.107   2.548
 2836TIP3    H1 8514   5.576   3.078   2.617
 2836TIP3    H2 8515   5.624   3.201   2.543
 2837TIP3   OH2 8516   0.571   3.108   4.864
 2837TIP3    H1 8517   0.659   3.135   4.890
 2837TIP3    H2 8518   0.584   3.034   4.806
 2838TIP3   OH2 8519   5.453   5.060   4.172
 2838TIP3    H1 8520   5.458   5.092   4.082
 2838TIP3    H2 8521   5.545   5.052   4.199
 2839TIP3   OH2 8522   1.059   0.309   1.213
 2839TIP3    H1 8523   0.989   0.306   1.148
 2839TIP3    H2 8524   1.083   0.402   1.218
 2840TIP3   OH2 8525   2.079   0.569   3.782
 2840TIP3    H1 8526   2.055   0.659   3.802
 2840TIP3    H2 8527   2.122   0.573   3.697
 2841TIP3   OH2 8528   2.871   4.534   0.543
 2841TIP3    H1 8529   2.938   4.574   0.488
 2841TIP3    H2 8530   2.791   4.537   0.489
 2842TIP3   OH2 8531   6.324   4.772   3.591
 2842TIP3    H1 8532   6.239   4.755   3.632
 2842TIP3    H2 8533   6.309   4.757   3.498
 2843TIP3   OH2 8534   0.863   5.615   4.025
 2843TIP3    H1 8535   0.822   5.558   4.090
 2843TIP3    H2 8536   0.817   5.595   3.943
 2844TIP3   OH2 8537   4.649   3.965   4.710
 2844TIP3    H1 8538   4.592   3.960   4.786
 2844TIP3    H2 8539   4.613   3.900   4.649
 2845TIP3   OH2 8540   4.668   1.656   0.396
 2845TIP3    H1 8541   4.587   1.622   0.360
 2845TIP3    H2 8542   4.737   1.616   0.342
 2846TIP3   OH2 8543   4.198   2.585   4.072
 2846TIP3    H1 8544   4.133   2.566   4.005
 2846TIP3    H2 8545   4.150   2.633   4.139
 2847TIP3   OH2 8546   1.173   2.175   3.671
 2847TIP3    H1 8547   1.106   2.161   3.738
 2847TIP3    H2 8548   1.136   2.240   3.612
 2848TIP3   OH2 8549   4.606   0.679   1.650
 2848TIP3    H1 8550   4.585   0.589   1.625
 2848TIP3    H2 8551   4.529   0.730   1.624
 2849TIP3   OH2 8552   5.885   1.292   2.441
 2849TIP3    H1 8553   5.883   1.207   2.486
 2849TIP3    H2 8554   5.829   1.280   2.365
 2850TIP3   OH2 8555   2.073   1.335   3.124
 2850TIP3    H1 8556   1.983   1.362   3.109
 2850TIP3    H2 8557   2.118   1.415   3.152
 2851TIP3   OH2 8558   3.220   3.467   0.821
 2851TIP3    H1 8559   3.144   3.519   0.796
 2851TIP3    H2 8560   3.295   3.521   0.796
 2852TIP3   OH2 8561   0.181   1.477   2.631
 2852TIP3    H1 8562   0.132   1.395   2.634
 2852TIP3    H2 8563   0.169   1.515   2.718
 2853TIP3   OH2 8564   5.643   4.319   4.869
 2853TIP3    H1 8565   5.736   4.296   4.869
 2853TIP3    H2 8566   5.618   4.313   4.961
 2854TIP3   OH2 8567   3.350   3.822   3.025
 2854TIP3    H1 8568   3.359   3.860   3.113
 2854TIP3    H2 8569   3.348   3.897   2.966
 2855TIP3   OH2 8570   0.760   3.585   3.409
 2855TIP3    H1 8571   0.754   3.588   3.504
 2855TIP3    H2 8572   0.729   3.497   3.386
 2856TIP3   OH2 8573   4.858   4.507   5.099
 2856TIP3    H1 8574   4.852   4.428   5.046
 2856TIP3    H2 8575   4.880   4.576   5.037
 2857TIP3   OH2 8576   1.000   3.134   3.480
 2857TIP3    H1 8577   0.949   3.074   3.536
 2857TIP3    H2 8578   1.052   3.076   3.425
 2858TIP3   OH2 8579   4.501   3.703   2.767
 2858TIP3    H1 8580   4.584   3.726   2.808
 2858TIP3    H2 8581   4.450   3.784   2.766
 2859TIP3   OH2 8582   2.902   5.834   3.972
 2859TIP3    H1 8583   2.836   5.795   3.915
 2859TIP3    H2 8584   2.873   5.925   3.981
 2860TIP3   OH2 8585   0.677   4.399   0.838
 2860TIP3    H1 8586   0.699   4.436   0.924
 2860TIP3    H2 8587   0.594   4.442   0.814
 2861TIP3   OH2 8588   0.801   1.851   3.754
 2861TIP3    H1 8589   0.799   1.756   3.746
 2861TIP3    H2 8590   0.709   1.877   3.745
 2862TIP3   OH2 8591   2.048   2.337   3.441
 2862TIP3    H1 8592   2.046   2.428   3.472
 2862TIP3    H2 8593   1.970   2.328   3.386
 2863TIP3   OH2 8594   4.964   5.963   2.894
 2863TIP3    H1 8595   5.039   6.014   2.861
 2863TIP3    H2 8596   4.945   5.901   2.824
 2864TIP3   OH2 8597   4.007   3.907   3.895
 2864TIP3    H1 8598   4.092   3.944   3.874
 2864TIP3    H2 8599   4.022   3.812   3.900
 2865TIP3   OH2 8600   5.637   4.961   2.410
 2865TIP3    H1 8601   5.587   4.993   2.335
 2865TIP3    H2 8602   5.669   5.040   2.453
 2866TIP3   OH2 8603   3.542   3.095   4.985
 2866TIP3    H1 8604   3.562   3.182   4.952
 2866TIP3    H2 8605   3.525   3.042   4.907
 2867TIP3   OH2 8606   4.807   0.341   0.911
 2867TIP3    H1 8607   4.878   0.346   0.847
 2867TIP3    H2 8608   4.807   0.426   0.954
 2868TIP3   OH2 8609   4.757   3.395   1.592
 2868TIP3    H1 8610   4.672   3.420   1.626
 2868TIP3    H2 8611   4.797   3.345   1.664
 2869TIP3   OH2 8612   5.309   5.171   2.089
 2869TIP3    H1 8613   5.250   5.223   2.034
 2869TIP3    H2 8614   5.282   5.080   2.074
 2870TIP3   OH2 8615   6.132   1.995   2.461
 2870TIP3    H1 8616   6.209   1.942   2.480
 2870TIP3    H2 8617   6.167   2.082   2.442
 2871TIP3   OH2 8618   3.827   3.339   0.473
 2871TIP3    H1 8619   3.757   3.292   0.519
 2871TIP3    H2 8620   3.856   3.406   0.535
 2872TIP3   OH2 8621   5.608   2.475   3.936
 2872TIP3    H1 8622   5.652   2.544   3.985
 2872TIP3    H2 8623   5.666   2.458   3.861
 2873TIP3   OH2 8624   6.319   3.626   4.044
 2873TIP3    H1 8625   6.275   3.705   4.012
 2873TIP3    H2 8626   6.293   3.558   3.981
 2874TIP3   OH2 8627   6.082   0.460   1.090
 2874TIP3    H1 8628   6.043   0.544   1.115
 2874TIP3    H2 8629   6.114   0.423   1.172
 2875TIP3   OH2 8630   3.309   1.152   4.391
 2875TIP3    H1 8631   3.275   1.073   4.351
 2875TIP3    H2 8632   3.400   1.158   4.360
 2876TIP3   OH2 8633   2.960   0.109   4.912
 2876TIP3    H1 8634   2.893   0.056   4.955
 2876TIP3    H2 8635   3.019   0.135   4.983
 2877TIP3   OH2 8636   2.471   0.399   0.399
 2877TIP3    H1 8637   2.498   0.417   0.309
 2877TIP3    H2 8638   2.550   0.367   0.442
 2878TIP3   OH2 8639   0.777   1.669   2.629
 2878TIP3    H1 8640   0.763   1.740   2.567
 2878TIP3    H2 8641   0.871   1.671   2.647
 2879TIP3   OH2 8642   1.570   2.520   0.540
 2879TIP3    H1 8643   1.483   2.489   0.516
 2879TIP3    H2 8644   1.592   2.472   0.620
 2880TIP3   OH2 8645   1.743   2.175   3.010
 2880TIP3    H1 8646   1.693   2.099   3.040
 2880TIP3    H2 8647   1.678   2.231   2.968
 2881TIP3   OH2 8648   2.365   4.113   4.980
 2881TIP3    H1 8649   2.410   4.065   5.050
 2881TIP3    H2 8650   2.345   4.199   5.019
 2882TIP3   OH2 8651   3.450   5.261   2.576
 2882TIP3    H1 8652   3.444   5.182   2.628
 2882TIP3    H2 8653   3.485   5.232   2.492
 2883TIP3   OH2 8654   5.335   4.297   3.054
 2883TIP3    H1 8655   5.266   4.233   3.037
 2883TIP3    H2 8656   5.295   4.381   3.031
 2884TIP3   OH2 8657   1.099   4.525   1.715
 2884TIP3    H1 8658   1.175   4.580   1.733
 2884TIP3    H2 8659   1.102   4.509   1.621
 2885TIP3   OH2 8660   0.852   2.666   2.600
 2885TIP3    H1 8661   0.895   2.623   2.674
 2885TIP3    H2 8662   0.899   2.749   2.589
 2886TIP3   OH2 8663   4.960   2.479   3.870
 2886TIP3    H1 8664   4.947   2.513   3.959
 2886TIP3    H2 8665   4.887   2.515   3.820
 2887TIP3   OH2 8666   3.603   4.735   4.737
 2887TIP3    H1 8667   3.527   4.774   4.779
 2887TIP3    H2 8668   3.654   4.698   4.809
 2888TIP3   OH2 8669   1.083   5.910   0.451
 2888TIP3    H1 8670   1.084   5.923   0.356
 2888TIP3    H2 8671   0.991   5.904   0.473
 2889TIP3   OH2 8672   0.309   3.410   0.369
 2889TIP3    H1 8673   0.341   3.467   0.439
 2889TIP3    H2 8674   0.377   3.415   0.302
 2890TIP3   OH2 8675   4.008   3.612   2.966
 2890TIP3    H1 8676   4.042   3.522   2.963
 2890TIP3    H2 8677   4.082   3.667   2.940
 2891TIP3   OH2 8678   3.254   1.575   3.873
 2891TIP3    H1 8679   3.224   1.666   3.873
 2891TIP3    H2 8680   3.230   1.542   3.960
 2892TIP3   OH2 8681   0.583   3.398   3.195
 2892TIP3    H1 8682   0.544   3.439   3.272
 2892TIP3    H2 8683   0.508   3.358   3.149
 2893TIP3   OH2 8684   2.737   3.103   0.864
 2893TIP3    H1 8685   2.647   3.104   0.896
 2893TIP3    H2 8686   2.770   3.190   0.882
 2894TIP3   OH2 8687   5.917   4.911   3.799
 2894TIP3    H1 8688   5.947   5.001   3.806
 2894TIP3    H2 8689   5.887   4.902   3.709
 2895TIP3   OH2 8690   3.957   0.486   0.509
 2895TIP3    H1 8691   3.971   0.410   0.453
 2895TIP3    H2 8692   3.874   0.468   0.554
 2896TIP3   OH2 8693   2.841   2.464   2.717
 2896TIP3    H1 8694   2.823   2.553   2.686
 2896TIP3    H2 8695   2.905   2.476   2.787
 2897TIP3   OH2 8696   1.885   2.014   0.303
 2897TIP3    H1 8697   1.954   2.025   0.368
 2897TIP3    H2 8698   1.924   2.042   0.221
 2898TIP3   OH2 8699   3.879   0.143   2.757
 2898TIP3    H1 8700   3.896   0.125   2.850
 2898TIP3    H2 8701   3.837   0.229   2.757
 2899TIP3   OH2 8702   6.245   2.520   0.589
 2899TIP3    H1 8703   6.248   2.543   0.682
 2899TIP3    H2 8704   6.325   2.559   0.553
 2900TIP3   OH2 8705   2.292   3.092   3.927
 2900TIP3    H1 8706   2.244   3.064   4.005
 2900TIP3    H2 8707   2.286   3.188   3.928
 2901TIP3   OH2 8708   3.780   2.998   1.261
 2901TIP3    H1 8709   3.822   2.980   1.344
 2901TIP3    H2 8710   3.687   2.978   1.275
 2902TIP3   OH2 8711   1.571   3.604   2.242
 2902TIP3    H1 8712   1.535   3.544   2.177
 2902TIP3    H2 8713   1.603   3.678   2.190
 2903TIP3   OH2 8714   4.993   5.665   3.042
 2903TIP3    H1 8715   5.045   5.610   2.984
 2903TIP3    H2 8716   4.978   5.611   3.119
 2904TIP3   OH2 8717   6.023   2.853   1.216
 2904TIP3    H1 8718   5.989   2.908   1.145
 2904TIP3    H2 8719   6.062   2.914   1.278
 2905TIP3   OH2 8720   3.579   2.945   3.090
 2905TIP3    H1 8721   3.527   2.871   3.058
 2905TIP3    H2 8722   3.514   3.006   3.125
 2906TIP3   OH2 8723   5.226   3.755   4.272
 2906TIP3    H1 8724   5.270   3.766   4.188
 2906TIP3    H2 8725   5.145   3.807   4.264
 2907TIP3   OH2 8726   3.575   2.147   1.028
 2907TIP3    H1 8727   3.563   2.236   1.060
 2907TIP3    H2 8728   3.489   2.106   1.037
 2908TIP3   OH2 8729   1.124   3.948   0.359
 2908TIP3    H1 8730   1.165   3.930   0.444
 2908TIP3    H2 8731   1.195   3.935   0.296
 2909TIP3   OH2 8732   2.665   2.818   0.942
 2909TIP3    H1 8733   2.666   2.783   0.853
 2909TIP3    H2 8734   2.593   2.881   0.941
 2910TIP3   OH2 8735   4.769   4.202   4.720
 2910TIP3    H1 8736   4.730   4.116   4.704
 2910TIP3    H2 8737   4.698   4.264   4.699
 2911TIP3   OH2 8738   2.351   2.635   0.989
 2911TIP3    H1 8739   2.261   2.667   0.982
 2911TIP3    H2 8740   2.385   2.677   1.068
 2912TIP3   OH2 8741   1.895   3.579   2.036
 2912TIP3    H1 8742   1.966   3.516   2.051
 2912TIP3    H2 8743   1.936   3.652   1.989
 2913TIP3   OH2 8744   5.994   1.259   2.091
 2913TIP3    H1 8745   6.087   1.241   2.106
 2913TIP3    H2 8746   5.987   1.274   1.997
 2914TIP3   OH2 8747   4.015   0.627   0.199
 2914TIP3    H1 8748   3.930   0.584   0.212
 2914TIP3    H2 8749   4.026   0.683   0.275
 2915TIP3   OH2 8750   3.594   0.889   3.973
 2915TIP3    H1 8751   3.615   0.978   3.943
 2915TIP3    H2 8752   3.657   0.872   4.043
 2916TIP3   OH2 8753   5.245   1.223   3.557
 2916TIP3    H1 8754   5.241   1.209   3.463
 2916TIP3    H2 8755   5.157   1.200   3.588
 2917TIP3   OH2 8756   3.802   3.898   1.856
 2917TIP3    H1 8757   3.819   3.947   1.776
 2917TIP3    H2 8758   3.889   3.878   1.890
 2918TIP3   OH2 8759   0.461   4.355   1.225
 2918TIP3    H1 8760   0.401   4.361   1.151
 2918TIP3    H2 8761   0.523   4.426   1.212
 2919TIP3   OH2 8762   3.491   2.985   1.334
 2919TIP3    H1 8763   3.474   3.076   1.358
 2919TIP3    H2 8764   3.439   2.934   1.396
 2920TIP3   OH2 8765   3.827   1.134   0.230
 2920TIP3    H1 8766   3.868   1.130   0.316
 2920TIP3    H2 8767   3.867   1.062   0.181
 2921TIP3   OH2 8768   3.780   5.331   4.607
 2921TIP3    H1 8769   3.702   5.386   4.601
 2921TIP3    H2 8770   3.815   5.329   4.517
 2922TIP3   OH2 8771   0.584   4.735   2.307
 2922TIP3    H1 8772   0.491   4.754   2.312
 2922TIP3    H2 8773   0.604   4.693   2.391
 2923TIP3   OH2 8774   5.636   3.387   2.173
 2923TIP3    H1 8775   5.712   3.397   2.230
 2923TIP3    H2 8776   5.672   3.354   2.090
 2924TIP3   OH2 8777   1.038   2.633   3.868
 2924TIP3    H1 8778   1.005   2.641   3.958
 2924TIP3    H2 8779   1.091   2.712   3.855
 2925TIP3   OH2 8780   3.236   5.953   3.495
 2925TIP3    H1 8781   3.194   5.872   3.523
 2925TIP3    H2 8782   3.166   6.002   3.451
 2926TIP3   OH2 8783   3.169   3.730   1.077
 2926TIP3    H1 8784   3.240   3.785   1.043
 2926TIP3    H2 8785   3.152   3.763   1.165
 2927TIP3   OH2 8786   1.591   0.438   2.062
 2927TIP3    H1 8787   1.604   0.467   1.972
 2927TIP3    H2 8788   1.498   0.449   2.078
 2928TIP3   OH2 8789   1.803   4.188   4.172
 2928TIP3    H1 8790   1.779   4.151   4.087
 2928TIP3    H2 8791   1.898   4.197   4.168
 2929TIP3   OH2 8792   4.300   0.801   1.010
 2929TIP3    H1 8793   4.341   0.727   1.054
 2929TIP3    H2 8794   4.207   0.781   1.011
 2930TIP3   OH2 8795   3.292   5.134   3.152
 2930TIP3    H1 8796   3.246   5.206   3.195
 2930TIP3    H2 8797   3.290   5.063   3.216
 2931TIP3   OH2 8798   2.707   4.046   0.709
 2931TIP3    H1 8799   2.665   3.986   0.647
 2931TIP3    H2 8800   2.735   4.120   0.655
 2932TIP3   OH2 8801   3.389   4.269   1.644
 2932TIP3    H1 8802   3.318   4.229   1.593
 2932TIP3    H2 8803   3.452   4.298   1.577
 2933TIP3   OH2 8804   1.887   1.107   5.071
 2933TIP3    H1 8805   1.861   1.049   5.142
 2933TIP3    H2 8806   1.964   1.065   5.032
 2934TIP3   OH2 8807   0.594   2.279   3.725
 2934TIP3    H1 8808   0.535   2.275   3.650
 2934TIP3    H2 8809   0.539   2.311   3.797
 2935TIP3   OH2 8810   4.945   2.955   1.328
 2935TIP3    H1 8811   4.925   3.032   1.381
 2935TIP3    H2 8812   5.036   2.968   1.301
 2936TIP3   OH2 8813   4.383   2.765   4.346
 2936TIP3    H1 8814   4.438   2.727   4.277
 2936TIP3    H2 8815   4.445   2.785   4.417
 2937TIP3   OH2 8816   1.003   0.177   2.047
 2937TIP3    H1 8817   1.029   0.141   1.962
 2937TIP3    H2 8818   0.934   0.240   2.026
 2938TIP3   OH2 8819   3.963   0.134   3.024
 2938TIP3    H1 8820   3.906   0.172   3.091
 2938TIP3    H2 8821   4.049   0.171   3.042
 2939TIP3   OH2 8822   2.422   1.080   4.132
 2939TIP3    H1 8823   2.486   1.058   4.066
 2939TIP3    H2 8824   2.339   1.047   4.098
 2940TIP3   OH2 8825   3.475   5.592   1.171
 2940TIP3    H1 8826   3.497   5.611   1.262
 2940TIP3    H2 8827   3.381   5.607   1.165
 2941TIP3   OH2 8828   1.246   0.967   2.845
 2941TIP3    H1 8829   1.265   0.878   2.877
 2941TIP3    H2 8830   1.326   1.016   2.862
 2942TIP3   OH2 8831   1.209   4.313   0.120
 2942TIP3    H1 8832   1.283   4.324   0.180
 2942TIP3    H2 8833   1.159   4.394   0.128
 2943TIP3   OH2 8834   4.653   5.060   0.671
 2943TIP3    H1 8835   4.607   4.976   0.675
 2943TIP3    H2 8836   4.610   5.106   0.598
 2944TIP3   OH2 8837   4.140   0.785  -0.008
 2944TIP3    H1 8838   4.102   0.726   0.057
 2944TIP3    H2 8839   4.126   0.741  -0.091
 2945TIP3   OH2 8840   4.605   0.752   4.032
 2945TIP3    H1 8841   4.521   0.707   4.028
 2945TIP3    H2 8842   4.649   0.729   3.950
 2946TIP3   OH2 8843   0.202   5.682   5.000
 2946TIP3    H1 8844   0.222   5.633   5.080
 2946TIP3    H2 8845   0.142   5.625   4.951
 2947TIP3   OH2 8846   4.826   3.811   4.838
 2947TIP3    H1 8847   4.756   3.868   4.808
 2947TIP3    H2 8848   4.807   3.726   4.797
 2948TIP3   OH2 8849   3.127   5.336   0.569
 2948TIP3    H1 8850   3.043   5.378   0.552
 2948TIP3    H2 8851   3.182   5.363   0.495
 2949TIP3   OH2 8852   4.508   2.458   3.837
 2949TIP3    H1 8853   4.449   2.385   3.818
 2949TIP3    H2 8854   4.478   2.493   3.921
 2950TIP3   OH2 8855   2.436   5.551   0.736
 2950TIP3    H1 8856   2.482   5.542   0.653
 2950TIP3    H2 8857   2.344   5.560   0.713
 2951TIP3   OH2 8858   0.626   2.376   0.748
 2951TIP3    H1 8859   0.678   2.336   0.679
 2951TIP3    H2 8860   0.645   2.324   0.826
 2952TIP3   OH2 8861   6.268   2.172   2.111
 2952TIP3    H1 8862   6.345   2.156   2.166
 2952TIP3    H2 8863   6.242   2.262   2.131
 2953TIP3   OH2 8864   1.478   2.419   0.935
 2953TIP3    H1 8865   1.424   2.495   0.957
 2953TIP3    H2 8866   1.522   2.396   1.016
 2954TIP3   OH2 8867   3.327   4.119   0.798
 2954TIP3    H1 8868   3.388   4.056   0.836
 2954TIP3    H2 8869   3.282   4.157   0.873
 2955TIP3   OH2 8870   4.985   3.713   3.768
 2955TIP3    H1 8871   5.034   3.631   3.756
 2955TIP3    H2 8872   5.021   3.772   3.701
 2956TIP3   OH2 8873   0.664   3.985   4.616
 2956TIP3    H1 8874   0.641   3.893   4.625
 2956TIP3    H2 8875   0.714   4.005   4.695
 2957TIP3   OH2 8876   4.852   1.072   1.680
 2957TIP3    H1 8877   4.834   0.988   1.723
 2957TIP3    H2 8878   4.787   1.132   1.717
 2958TIP3   OH2 8879   2.198   0.478   5.057
 2958TIP3    H1 8880   2.195   0.496   5.151
 2958TIP3    H2 8881   2.290   0.488   5.034
 2959TIP3   OH2 8882   5.696   5.121   3.701
 2959TIP3    H1 8883   5.664   5.031   3.694
 2959TIP3    H2 8884   5.617   5.175   3.694
 2960TIP3   OH2 8885   1.937   3.933   3.649
 2960TIP3    H1 8886   1.926   4.023   3.619
 2960TIP3    H2 8887   1.851   3.907   3.681
 2961TIP3   OH2 8888   2.326   1.625   0.164
 2961TIP3    H1 8889   2.417   1.649   0.183
 2961TIP3    H2 8890   2.327   1.530   0.157
 2962TIP3   OH2 8891   5.589   0.032   3.604
 2962TIP3    H1 8892   5.500   0.012   3.575
 2962TIP3    H2 8893   5.588   0.126   3.620
 2963TIP3   OH2 8894   5.499   3.905   2.585
 2963TIP3    H1 8895   5.419   3.852   2.586
 2963TIP3    H2 8896   5.500   3.944   2.498
 2964TIP3   OH2 8897   5.747   1.595   1.272
 2964TIP3    H1 8898   5.803   1.670   1.253
 2964TIP3    H2 8899   5.730   1.600   1.366
 2965TIP3   OH2 8900   5.887   0.318   1.288
 2965TIP3    H1 8901   5.814   0.256   1.285
 2965TIP3    H2 8902   5.854   0.396   1.245
 2966TIP3   OH2 8903   6.189   1.305   3.457
 2966TIP3    H1 8904   6.126   1.367   3.420
 2966TIP3    H2 8905   6.137   1.227   3.477
 2967TIP3   OH2 8906   2.399   0.278   3.321
 2967TIP3    H1 8907   2.469   0.319   3.270
 2967TIP3    H2 8908   2.444   0.240   3.397
 2968TIP3   OH2 8909   4.472   4.187   3.509
 2968TIP3    H1 8910   4.478   4.281   3.496
 2968TIP3    H2 8911   4.379   4.170   3.524
 2969TIP3   OH2 8912   6.201   1.668   0.261
 2969TIP3    H1 8913   6.146   1.601   0.302
 2969TIP3    H2 8914   6.247   1.709   0.334
 2970TIP3   OH2 8915   1.750   1.904   2.540
 2970TIP3    H1 8916   1.659   1.892   2.564
 2970TIP3    H2 8917   1.799   1.877   2.617
 2971TIP3   OH2 8918   4.660   4.709   3.953
 2971TIP3    H1 8919   4.588   4.772   3.954
 2971TIP3    H2 8920   4.682   4.699   3.860
 2972TIP3   OH2 8921   1.786   1.640   3.566
 2972TIP3    H1 8922   1.785   1.610   3.475
 2972TIP3    H2 8923   1.702   1.611   3.601
 2973TIP3   OH2 8924   3.242   5.380   4.689
 2973TIP3    H1 8925   3.203   5.300   4.654
 2973TIP3    H2 8926   3.278   5.354   4.774
 2974TIP3   OH2 8927   0.115   2.178   3.704
 2974TIP3    H1 8928   0.188   2.148   3.651
 2974TIP3    H2 8929   0.137   2.268   3.727
 2975TIP3   OH2 8930   0.414   4.414   4.710
 2975TIP3    H1 8931   0.338   4.393   4.654
 2975TIP3    H2 8932   0.388   4.494   4.756
 2976TIP3   OH2 8933   4.609   5.324   1.998
 2976TIP3    H1 8934   4.679   5.387   2.014
 2976TIP3    H2 8935   4.643   5.267   1.929
 2977TIP3   OH2 8936   6.078   3.130   1.158
 2977TIP3    H1 8937   6.060   3.221   1.134
 2977TIP3    H2 8938   6.157   3.135   1.211
 2978TIP3   OH2 8939   3.777   3.576   4.911
 2978TIP3    H1 8940   3.861   3.616   4.888
 2978TIP3    H2 8941   3.799   3.511   4.977
 2979TIP3   OH2 8942   1.655   5.318   1.314
 2979TIP3    H1 8943   1.643   5.225   1.296
 2979TIP3    H2 8944   1.615   5.363   1.239
 2980TIP3   OH2 8945   5.920   0.620   5.004
 2980TIP3    H1 8946   5.871   0.698   5.030
 2980TIP3    H2 8947   6.011   0.639   5.029
 2981TIP3   OH2 8948   6.041   1.497   0.409
 2981TIP3    H1 8949   5.966   1.481   0.466
 2981TIP3    H2 8950   6.116   1.462   0.457
 2982TIP3   OH2 8951   5.548   1.611   3.916
 2982TIP3    H1 8952   5.570   1.641   3.828
 2982TIP3    H2 8953   5.457   1.641   3.928
 2983TIP3   OH2 8954   6.044   1.590   3.997
 2983TIP3    H1 8955   5.973   1.526   4.007
 2983TIP3    H2 8956   6.096   1.581   4.077
 2984TIP3   OH2 8957   0.530   5.276   4.774
 2984TIP3    H1 8958   0.479   5.303   4.698
 2984TIP3    H2 8959   0.579   5.200   4.744
 2985TIP3   OH2 8960   5.199   0.355   1.441
 2985TIP3    H1 8961   5.135   0.425   1.446
 2985TIP3    H2 8962   5.216   0.332   1.533
 2986TIP3   OH2 8963   1.468   2.119   3.447
 2986TIP3    H1 8964   1.400   2.087   3.388
 2986TIP3    H2 8965   1.487   2.207   3.416
 2987TIP3   OH2 8966   2.406   3.476   3.445
 2987TIP3    H1 8967   2.462   3.553   3.434
 2987TIP3    H2 8968   2.386   3.448   3.355
 2988TIP3   OH2 8969   1.853   0.778   0.307
 2988TIP3    H1 8970   1.935   0.756   0.350
 2988TIP3    H2 8971   1.878   0.813   0.222
 2989TIP3   OH2 8972   1.824   3.541   2.297
 2989TIP3    H1 8973   1.851   3.567   2.209
 2989TIP3    H2 8974   1.742   3.588   2.311
 2990TIP3   OH2 8975   4.142   3.426   3.387
 2990TIP3    H1 8976   4.054   3.462   3.394
 2990TIP3    H2 8977   4.130   3.331   3.386
 2991TIP3   OH2 8978   3.580   0.033   2.754
 2991TIP3    H1 8979   3.604   0.103   2.693
 2991TIP3    H2 8980   3.601   0.067   2.841
 2992TIP3   OH2 8981   6.377   3.728   0.615
 2992TIP3    H1 8982   6.300   3.785   0.615
 2992TIP3    H2 8983   6.358   3.661   0.551
 2993TIP3   OH2 8984   2.660   3.351   0.311
 2993TIP3    H1 8985   2.653   3.442   0.281
 2993TIP3    H2 8986   2.691   3.303   0.234
 2994TIP3   OH2 8987   2.536   2.380   2.496
 2994TIP3    H1 8988   2.452   2.424   2.480
 2994TIP3    H2 8989   2.602   2.439   2.461
 2995TIP3   OH2 8990   4.342   5.515   0.805
 2995TIP3    H1 8991   4.429   5.482   0.785
 2995TIP3    H2 8992   4.353   5.610   0.811
 2996TIP3   OH2 8993   1.046   4.275   3.467
 2996TIP3    H1 8994   0.954   4.259   3.445
 2996TIP3    H2 8995   1.044   4.313   3.555
 2997TIP3   OH2 8996   6.163   4.768   4.053
 2997TIP3    H1 8997   6.079   4.722   4.048
 2997TIP3    H2 8998   6.148   4.840   4.115
 2998TIP3   OH2 8999   4.321   3.082   1.365
 2998TIP3    H1 9000   4.263   3.035   1.305
 2998TIP3    H2 9001   4.268   3.156   1.396
 2999TIP3   OH2 9002   1.052   1.457   4.786
 2999TIP3    H1 9003   0.995   1.379   4.786
 2999TIP3    H2 9004   1.060   1.480   4.693
 3000TIP3   OH2 9005   6.184   1.273   1.083
 3000TIP3    H1 9006   6.275   1.287   1.109
 3000TIP3    H2 9007   6.142   1.236   1.161
 3001TIP3   OH2 9008   5.361   0.711   2.178
 3001TIP3    H1 9009   5.382   0.803   2.197
 3001TIP3    H2 9010   5.407   0.692   2.097
 3002TIP3   OH2 9011   3.622   5.019   0.744
 3002TIP3    H1 9012   3.700   5.067   0.717
 3002TIP3    H2 9013   3.605   4.959   0.671
 3003TIP3   OH2 9014   0.774   5.823   2.652
 3003TIP3    H1 9015   0.762   5.902   2.599
 3003TIP3    H2 9016   0.846   5.776   2.609
 3004TIP3   OH2 9017   0.368   5.400   4.177
 3004TIP3    H1 9018   0.362   5.483   4.224
 3004TIP3    H2 9019   0.305   5.409   4.105
 3005TIP3   OH2 9020   1.477   0.359   4.779
 3005TIP3    H1 9021   1.571   0.364   4.795
 3005TIP3    H2 9022   1.453   0.270   4.804
 3006TIP3   OH2 9023   0.297   4.792   2.293
 3006TIP3    H1 9024   0.235   4.754   2.355
 3006TIP3    H2 9025   0.255   4.871   2.262
 3007TIP3   OH2 9026   4.657   2.370   0.474
 3007TIP3    H1 9027   4.743   2.343   0.442
 3007TIP3    H2 9028   4.660   2.352   0.568
 3008TIP3   OH2 9029   4.383   0.084   0.023
 3008TIP3    H1 9030   4.397   0.098   0.116
 3008TIP3    H2 9031   4.469   0.096  -0.017
 3009TIP3   OH2 9032   2.785   2.850   2.305
 3009TIP3    H1 9033   2.871   2.893   2.301
 3009TIP3    H2 9034   2.724   2.920   2.327
 3010TIP3   OH2 9035   3.488   0.068   0.190
 3010TIP3    H1 9036   3.550   0.005   0.225
 3010TIP3    H2 9037   3.414   0.015   0.161
 3011TIP3   OH2 9038   1.141   1.688   1.760
 3011TIP3    H1 9039   1.060   1.674   1.808
 3011TIP3    H2 9040   1.138   1.626   1.687
 3012TIP3   OH2 9041   3.468   5.472   3.278
 3012TIP3    H1 9042   3.487   5.561   3.307
 3012TIP3    H2 9043   3.376   5.458   3.298
 3013TIP3   OH2 9044   1.256   3.204   1.658
 3013TIP3    H1 9045   1.226   3.219   1.748
 3013TIP3    H2 9046   1.337   3.153   1.668
 3014TIP3   OH2 9047   0.170   4.483   4.838
 3014TIP3    H1 9048   0.098   4.506   4.780
 3014TIP3    H2 9049   0.207   4.402   4.801
 3015TIP3   OH2 9050   2.078   0.848   1.786
 3015TIP3    H1 9051   2.073   0.920   1.849
 3015TIP3    H2 9052   2.142   0.788   1.825
 3016TIP3   OH2 9053   3.008   0.187   1.357
 3016TIP3    H1 9054   2.939   0.179   1.291
 3016TIP3    H2 9055   3.089   0.194   1.306
 3017TIP3   OH2 9056   1.865   0.128   3.767
 3017TIP3    H1 9057   1.894   0.219   3.771
 3017TIP3    H2 9058   1.891   0.098   3.680
 3018TIP3   OH2 9059   2.902   2.881   0.368
 3018TIP3    H1 9060   2.883   2.963   0.321
 3018TIP3    H2 9061   2.857   2.890   0.451
 3019TIP3   OH2 9062   6.243   1.411   2.811
 3019TIP3    H1 9063   6.334   1.439   2.823
 3019TIP3    H2 9064   6.231   1.410   2.716
 3020TIP3   OH2 9065   4.616   1.333   1.541
 3020TIP3    H1 9066   4.632   1.308   1.632
 3020TIP3    H2 9067   4.703   1.353   1.506
 3021TIP3   OH2 9068   1.859   1.425   1.964
 3021TIP3    H1 9069   1.808   1.495   1.922
 3021TIP3    H2 9070   1.858   1.353   1.900
 3022TIP3   OH2 9071   5.285   0.959   3.258
 3022TIP3    H1 9072   5.266   0.973   3.165
 3022TIP3    H2 9073   5.261   1.042   3.299
 3023TIP3   OH2 9074   5.154   3.533   0.545
 3023TIP3    H1 9075   5.246   3.510   0.530
 3023TIP3    H2 9076   5.111   3.513   0.462
 3024TIP3   OH2 9077   0.027   1.084   4.589
 3024TIP3    H1 9078  -0.059   1.047   4.569
 3024TIP3    H2 9079   0.087   1.010   4.579
 3025TIP3   OH2 9080   0.876   3.624   2.930
 3025TIP3    H1 9081   0.879   3.682   3.006
 3025TIP3    H2 9082   0.825   3.673   2.865
 3026TIP3   OH2 9083   3.765   3.421   3.856
 3026TIP3    H1 9084   3.801   3.334   3.875
 3026TIP3    H2 9085   3.798   3.476   3.927
 3027TIP3   OH2 9086   3.818   3.979   1.561
 3027TIP3    H1 9087   3.765   4.029   1.498
 3027TIP3    H2 9088   3.873   3.923   1.507
 3028TIP3   OH2 9089   5.006   5.805   3.335
 3028TIP3    H1 9090   4.970   5.717   3.349
 3028TIP3    H2 9091   5.047   5.828   3.418
 3029TIP3   OH2 9092   4.655   1.701   4.552
 3029TIP3    H1 9093   4.707   1.760   4.498
 3029TIP3    H2 9094   4.709   1.622   4.562
 3030TIP3   OH2 9095   2.551   4.212   1.749
 3030TIP3    H1 9096   2.614   4.283   1.735
 3030TIP3    H2 9097   2.474   4.237   1.699
 3031TIP3   OH2 9098   4.844   3.738   4.237
 3031TIP3    H1 9099   4.876   3.734   4.327
 3031TIP3    H2 9100   4.879   3.660   4.195
 3032TIP3   OH2 9101   5.879   0.236   3.432
 3032TIP3    H1 9102   5.860   0.287   3.511
 3032TIP3    H2 9103   5.801   0.247   3.377
 3033TIP3   OH2 9104   0.909   0.201   5.103
 3033TIP3    H1 9105   0.880   0.276   5.154
 3033TIP3    H2 9106   1.005   0.207   5.102
 3034TIP3   OH2 9107   0.883   3.000   0.720
 3034TIP3    H1 9108   0.964   3.047   0.702
 3034TIP3    H2 9109   0.814   3.054   0.680
 3035TIP3   OH2 9110   4.366   2.972   1.626
 3035TIP3    H1 9111   4.435   2.987   1.690
 3035TIP3    H2 9112   4.406   2.992   1.541
 3036TIP3   OH2 9113   3.121   5.256   1.582
 3036TIP3    H1 9114   3.037   5.287   1.615
 3036TIP3    H2 9115   3.181   5.329   1.595
 3037TIP3   OH2 9116   5.781   4.224   4.231
 3037TIP3    H1 9117   5.692   4.212   4.263
 3037TIP3    H2 9118   5.817   4.135   4.225
 3038TIP3   OH2 9119   6.012   1.643   0.692
 3038TIP3    H1 9120   6.103   1.623   0.714
 3038TIP3    H2 9121   6.018   1.695   0.612
 3039TIP3   OH2 9122   0.600   0.912   0.451
 3039TIP3    H1 9123   0.667   0.845   0.460
 3039TIP3    H2 9124   0.616   0.973   0.523
 3040TIP3   OH2 9125   2.284   2.400   1.898
 3040TIP3    H1 9126   2.275   2.494   1.880
 3040TIP3    H2 9127   2.297   2.394   1.992
 3041TIP3   OH2 9128   2.179   4.642   2.148
 3041TIP3    H1 9129   2.141   4.554   2.142
 3041TIP3    H2 9130   2.156   4.672   2.236
 3042TIP3   OH2 9131   0.358   3.898   2.204
 3042TIP3    H1 9132   0.427   3.877   2.141
 3042TIP3    H2 9133   0.374   3.989   2.229
 3043TIP3   OH2 9134   1.360   0.577   0.212
 3043TIP3    H1 9135   1.350   0.484   0.233
 3043TIP3    H2 9136   1.447   0.600   0.244
 3044TIP3   OH2 9137   4.357   4.197   2.719
 3044TIP3    H1 9138   4.347   4.165   2.630
 3044TIP3    H2 9139   4.368   4.291   2.710
 3045TIP3   OH2 9140   6.091   4.476   1.053
 3045TIP3    H1 9141   6.081   4.521   0.969
 3045TIP3    H2 9142   6.002   4.460   1.083
 3046TIP3   OH2 9143   1.860   5.820   1.069
 3046TIP3    H1 9144   1.817   5.776   1.142
 3046TIP3    H2 9145   1.942   5.853   1.107
 3047TIP3   OH2 9146   3.455   4.578   2.962
 3047TIP3    H1 9147   3.462   4.508   3.026
 3047TIP3    H2 9148   3.492   4.654   3.006
 3048TIP3   OH2 9149   0.435   3.442   1.788
 3048TIP3    H1 9150   0.364   3.487   1.835
 3048TIP3    H2 9151   0.433   3.481   1.700
 3049TIP3   OH2 9152   3.203   2.550   1.748
 3049TIP3    H1 9153   3.298   2.559   1.738
 3049TIP3    H2 9154   3.174   2.635   1.779
 3050TIP3   OH2 9155   3.190   2.547   4.916
 3050TIP3    H1 9156   3.191   2.642   4.904
 3050TIP3    H2 9157   3.281   2.524   4.934
 3051TIP3   OH2 9158   3.413   1.603   4.787
 3051TIP3    H1 9159   3.472   1.673   4.759
 3051TIP3    H2 9160   3.451   1.570   4.868
 3052TIP3   OH2 9161   5.990   3.468   2.020
 3052TIP3    H1 9162   5.946   3.545   1.983
 3052TIP3    H2 9163   6.083   3.490   2.020
 3053TIP3   OH2 9164   4.934   3.961   1.604
 3053TIP3    H1 9165   4.874   3.947   1.677
 3053TIP3    H2 9166   5.020   3.968   1.644
 3054TIP3   OH2 9167   2.238   2.219   4.203
 3054TIP3    H1 9168   2.323   2.244   4.237
 3054TIP3    H2 9169   2.190   2.302   4.194
 3055TIP3   OH2 9170   4.295   5.599   3.635
 3055TIP3    H1 9171   4.232   5.668   3.651
 3055TIP3    H2 9172   4.242   5.524   3.608
 3056TIP3   OH2 9173   5.532   4.676   1.691
 3056TIP3    H1 9174   5.579   4.734   1.631
 3056TIP3    H2 9175   5.567   4.697   1.777
 3057TIP3   OH2 9176   2.443   2.248   0.487
 3057TIP3    H1 9177   2.518   2.275   0.434
 3057TIP3    H2 9178   2.434   2.154   0.471
 3058TIP3   OH2 9179   1.036   5.343   3.925
 3058TIP3    H1 9180   0.982   5.345   3.846
 3058TIP3    H2 9181   0.985   5.292   3.988
 3059TIP3   OH2 9182   4.087   5.801   4.489
 3059TIP3    H1 9183   4.008   5.763   4.450
 3059TIP3    H2 9184   4.098   5.755   4.572
 3060TIP3   OH2 9185   3.009   4.756   1.062
 3060TIP3    H1 9186   2.986   4.842   1.098
 3060TIP3    H2 9187   3.073   4.775   0.993
 3061TIP3   OH2 9188   1.189   5.159   0.230
 3061TIP3    H1 9189   1.218   5.147   0.320
 3061TIP3    H2 9190   1.123   5.229   0.235
 3062TIP3   OH2 9191   1.968   2.494   4.907
 3062TIP3    H1 9192   1.889   2.535   4.943
 3062TIP3    H2 9193   2.017   2.464   4.984
 3063TIP3   OH2 9194   0.801   2.170   4.111
 3063TIP3    H1 9195   0.776   2.108   4.179
 3063TIP3    H2 9196   0.893   2.150   4.093
 3064TIP3   OH2 9197   2.583   3.118   0.523
 3064TIP3    H1 9198   2.534   3.186   0.569
 3064TIP3    H2 9199   2.572   3.140   0.430
 3065TIP3   OH2 9200   3.268   2.048   0.097
 3065TIP3    H1 9201   3.255   2.027   0.190
 3065TIP3    H2 9202   3.328   2.123   0.097
 3066TIP3   OH2 9203   1.251   5.898   1.068
 3066TIP3    H1 9204   1.312   5.916   0.996
 3066TIP3    H2 9205   1.210   5.815   1.045
 3067TIP3   OH2 9206   3.023   4.995   1.629
 3067TIP3    H1 9207   2.947   5.021   1.680
 3067TIP3    H2 9208   3.069   5.078   1.611
 3068TIP3   OH2 9209   1.273   2.026   4.235
 3068TIP3    H1 9210   1.333   1.955   4.213
 3068TIP3    H2 9211   1.192   1.982   4.261
 3069TIP3   OH2 9212   1.482   3.363   4.590
 3069TIP3    H1 9213   1.507   3.398   4.504
 3069TIP3    H2 9214   1.414   3.299   4.571
 3070TIP3   OH2 9215   3.174   5.616   0.089
 3070TIP3    H1 9216   3.133   5.662   0.163
 3070TIP3    H2 9217   3.106   5.613   0.022
 3071TIP3   OH2 9218   1.764   0.134   0.168
 3071TIP3    H1 9219   1.754   0.214   0.116
 3071TIP3    H2 9220   1.696   0.139   0.234
 3072TIP3   OH2 9221   3.939   1.828   4.188
 3072TIP3    H1 9222   4.024   1.789   4.208
 3072TIP3    H2 9223   3.954   1.879   4.109
 3073TIP3   OH2 9224   1.929   4.332   1.980
 3073TIP3    H1 9225   1.988   4.259   1.995
 3073TIP3    H2 9226   1.902   4.360   2.067
 3074TIP3   OH2 9227   0.762   5.634   1.514
 3074TIP3    H1 9228   0.691   5.665   1.457
 3074TIP3    H2 9229   0.842   5.650   1.463
 3075TIP3   OH2 9230   4.228   4.132   3.639
 3075TIP3    H1 9231   4.250   4.140   3.732
 3075TIP3    H2 9232   4.141   4.171   3.631
 3076TIP3   OH2 9233   1.454   1.109   4.308
 3076TIP3    H1 9234   1.358   1.102   4.304
 3076TIP3    H2 9235   1.482   1.027   4.348
 3077TIP3   OH2 9236   3.702   3.480   1.092
 3077TIP3    H1 9237   3.694   3.386   1.111
 3077TIP3    H2 9238   3.760   3.514   1.161
 3078TIP3   OH2 9239   1.429   3.291   2.963
 3078TIP3    H1 9240   1.345   3.337   2.968
 3078TIP3    H2 9241   1.414   3.220   2.900
 3079TIP3   OH2 9242   1.346   2.581   2.860
 3079TIP3    H1 9243   1.425   2.629   2.888
 3079TIP3    H2 9244   1.302   2.641   2.800
 3080TIP3   OH2 9245   2.326   1.604   0.649
 3080TIP3    H1 9246   2.356   1.596   0.559
 3080TIP3    H2 9247   2.247   1.658   0.643
 3081TIP3   OH2 9248   0.251   2.199   1.319
 3081TIP3    H1 9249   0.240   2.293   1.302
 3081TIP3    H2 9250   0.345   2.188   1.337
 3082TIP3   OH2 9251   4.170   3.487   0.503
 3082TIP3    H1 9252   4.230   3.501   0.576
 3082TIP3    H2 9253   4.196   3.403   0.467
 3083TIP3   OH2 9254   4.065   2.865   2.852
 3083TIP3    H1 9255   4.062   2.803   2.779
 3083TIP3    H2 9256   4.061   2.951   2.811
 3084TIP3   OH2 9257   0.773   2.929   1.950
 3084TIP3    H1 9258   0.809   2.847   1.983
 3084TIP3    H2 9259   0.810   2.997   2.006
 3085TIP3   OH2 9260   0.784   3.667   2.182
 3085TIP3    H1 9261   0.758   3.759   2.182
 3085TIP3    H2 9262   0.879   3.669   2.166
 3086TIP3   OH2 9263   6.276   0.139   1.414
 3086TIP3    H1 9264   6.247   0.132   1.323
 3086TIP3    H2 9265   6.196   0.133   1.466
 3087TIP3   OH2 9266   5.928   4.498   5.122
 3087TIP3    H1 9267   5.897   4.538   5.041
 3087TIP3    H2 9268   5.849   4.458   5.159
 3088TIP3   OH2 9269   5.660   0.904   1.493
 3088TIP3    H1 9270   5.628   0.994   1.491
 3088TIP3    H2 9271   5.749   0.909   1.458
 3089TIP3   OH2 9272   5.190   3.375   2.138
 3089TIP3    H1 9273   5.276   3.414   2.150
 3089TIP3    H2 9274   5.197   3.324   2.058
 3090TIP3   OH2 9275   4.507   1.841   2.951
 3090TIP3    H1 9276   4.475   1.760   2.990
 3090TIP3    H2 9277   4.540   1.815   2.865
 3091TIP3   OH2 9278   4.721   2.745   1.280
 3091TIP3    H1 9279   4.744   2.656   1.252
 3091TIP3    H2 9280   4.765   2.802   1.217
 3092TIP3   OH2 9281   0.011   1.197   3.007
 3092TIP3    H1 9282  -0.063   1.224   2.953
 3092TIP3    H2 9283   0.085   1.189   2.946
 3093TIP3   OH2 9284   3.821   4.732   3.256
 3093TIP3    H1 9285   3.761   4.729   3.180
 3093TIP3    H2 9286   3.823   4.642   3.288
 3094TIP3   OH2 9287   4.175   1.577   2.135
 3094TIP3    H1 9288   4.255   1.527   2.150
 3094TIP3    H2 9289   4.115   1.514   2.094
 3095TIP3   OH2 9290   2.709   1.888   0.086
 3095TIP3    H1 9291   2.690   1.975   0.123
 3095TIP3    H2 9292   2.802   1.874   0.105
 3096TIP3   OH2 9293   4.722   4.618   0.986
 3096TIP3    H1 9294   4.780   4.656   0.920
 3096TIP3    H2 9295   4.729   4.523   0.973
 3097TIP3   OH2 9296   4.802   1.414   3.580
 3097TIP3    H1 9297   4.846   1.487   3.536
 3097TIP3    H2 9298   4.748   1.374   3.511
 3098TIP3   OH2 9299   2.216   1.160   2.987
 3098TIP3    H1 9300   2.164   1.080   2.976
 3098TIP3    H2 9301   2.151   1.227   3.006
 3099TIP3   OH2 9302   4.019   5.219   3.961
 3099TIP3    H1 9303   3.972   5.292   3.921
 3099TIP3    H2 9304   3.986   5.141   3.916
 3100TIP3   OH2 9305   5.327   1.088   0.479
 3100TIP3    H1 9306   5.276   1.033   0.420
 3100TIP3    H2 9307   5.376   1.027   0.534
 3101TIP3   OH2 9308   0.712   0.767   1.473
 3101TIP3    H1 9309   0.708   0.740   1.381
 3101TIP3    H2 9310   0.724   0.685   1.521
 3102TIP3   OH2 9311   2.949   5.546   2.131
 3102TIP3    H1 9312   2.885   5.583   2.071
 3102TIP3    H2 9313   2.949   5.605   2.207
 3103TIP3   OH2 9314   1.301   5.937   3.102
 3103TIP3    H1 9315   1.335   5.896   3.182
 3103TIP3    H2 9316   1.207   5.945   3.118
 3104TIP3   OH2 9317   3.887   4.625   4.470
 3104TIP3    H1 9318   3.908   4.542   4.514
 3104TIP3    H2 9319   3.963   4.642   4.415
 3105TIP3   OH2 9320   4.712   2.034   0.125
 3105TIP3    H1 9321   4.801   2.000   0.124
 3105TIP3    H2 9322   4.705   2.087   0.046
 3106TIP3   OH2 9323   3.409   2.490   4.264
 3106TIP3    H1 9324   3.388   2.455   4.351
 3106TIP3    H2 9325   3.463   2.566   4.282
 3107TIP3   OH2 9326   4.823   2.166   2.166
 3107TIP3    H1 9327   4.758   2.210   2.109
 3107TIP3    H2 9328   4.900   2.223   2.162
 3108TIP3   OH2 9329   6.271   0.182   3.186
 3108TIP3    H1 9330   6.268   0.089   3.160
 3108TIP3    H2 9331   6.364   0.204   3.183
 3109TIP3   OH2 9332   5.502   2.545   2.319
 3109TIP3    H1 9333   5.472   2.607   2.385
 3109TIP3    H2 9334   5.422   2.503   2.288
 3110TIP3   OH2 9335  -0.020   1.625   1.639
 3110TIP3    H1 9336  -0.047   1.597   1.726
 3110TIP3    H2 9337   0.057   1.572   1.620
 3111TIP3   OH2 9338   4.274   5.316   1.011
 3111TIP3    H1 9339   4.286   5.362   1.094
 3111TIP3    H2 9340   4.289   5.382   0.944
 3112TIP3   OH2 9341   3.763   3.712   1.628
 3112TIP3    H1 9342   3.774   3.804   1.653
 3112TIP3    H2 9343   3.811   3.663   1.695
 3113TIP3   OH2 9344   2.349   1.599   1.752
 3113TIP3    H1 9345   2.354   1.510   1.719
 3113TIP3    H2 9346   2.432   1.613   1.798
 3114TIP3   OH2 9347   5.457   2.292   0.173
 3114TIP3    H1 9348   5.362   2.292   0.171
 3114TIP3    H2 9349   5.483   2.257   0.088
 3115TIP3   OH2 9350   0.039   4.297   1.322
 3115TIP3    H1 9351  -0.007   4.297   1.406
 3115TIP3    H2 9352   0.027   4.386   1.288
 3116TIP3   OH2 9353   0.223   0.174   2.640
 3116TIP3    H1 9354   0.288   0.244   2.645
 3116TIP3    H2 9355   0.200   0.156   2.732
 3117TIP3   OH2 9356   3.548   2.535   3.255
 3117TIP3    H1 9357   3.532   2.441   3.251
 3117TIP3    H2 9358   3.467   2.572   3.288
 3118TIP3   OH2 9359   2.906   5.506   0.571
 3118TIP3    H1 9360   2.812   5.488   0.565
 3118TIP3    H2 9361   2.911   5.593   0.611
 3119TIP3   OH2 9362   2.555   0.671   3.386
 3119TIP3    H1 9363   2.624   0.643   3.447
 3119TIP3    H2 9364   2.499   0.728   3.439
 3120TIP3   OH2 9365   3.103   3.993   0.282
 3120TIP3    H1 9366   3.017   3.999   0.323
 3120TIP3    H2 9367   3.086   3.967   0.191
 3121TIP3   OH2 9368   4.312   5.244   3.407
 3121TIP3    H1 9369   4.346   5.160   3.375
 3121TIP3    H2 9370   4.383   5.279   3.461
 3122TIP3   OH2 9371   3.556   1.811   0.591
 3122TIP3    H1 9372   3.600   1.826   0.675
 3122TIP3    H2 9373   3.486   1.876   0.589
 3123TIP3   OH2 9374   4.537   3.533   4.417
 3123TIP3    H1 9375   4.515   3.456   4.365
 3123TIP3    H2 9376   4.513   3.607   4.361
 3124TIP3   OH2 9377   1.864   2.660   0.773
 3124TIP3    H1 9378   1.944   2.671   0.721
 3124TIP3    H2 9379   1.819   2.744   0.766
 3125TIP3   OH2 9380   6.224   0.867   1.861
 3125TIP3    H1 9381   6.262   0.779   1.857
 3125TIP3    H2 9382   6.298   0.924   1.881
 3126TIP3   OH2 9383   2.438   3.976   1.198
 3126TIP3    H1 9384   2.495   3.903   1.223
 3126TIP3    H2 9385   2.390   3.942   1.122
 3127TIP3   OH2 9386   2.221   5.109   1.151
 3127TIP3    H1 9387   2.254   5.050   1.219
 3127TIP3    H2 9388   2.297   5.163   1.128
 3128TIP3   OH2 9389   6.049   2.805   0.593
 3128TIP3    H1 9390   6.066   2.732   0.653
 3128TIP3    H2 9391   6.045   2.764   0.507
 3129TIP3   OH2 9392   4.111   2.889   1.038
 3129TIP3    H1 9393   4.199   2.908   1.007
 3129TIP3    H2 9394   4.056   2.954   0.996
 3130TIP3   OH2 9395   1.566   0.110   5.028
 3130TIP3    H1 9396   1.527   0.061   4.956
 3130TIP3    H2 9397   1.503   0.100   5.100
 3131TIP3   OH2 9398   2.449   4.806   1.590
 3131TIP3    H1 9399   2.410   4.769   1.511
 3131TIP3    H2 9400   2.380   4.803   1.655
 3132TIP3   OH2 9401   4.921   4.266   0.752
 3132TIP3    H1 9402   4.854   4.251   0.818
 3132TIP3    H2 9403   4.973   4.340   0.787
 3133TIP3   OH2 9404   2.564   5.530   4.096
 3133TIP3    H1 9405   2.514   5.452   4.072
 3133TIP3    H2 9406   2.499   5.592   4.129
 3134TIP3   OH2 9407   1.206   3.430   4.916
 3134TIP3    H1 9408   1.202   3.524   4.900
 3134TIP3    H2 9409   1.274   3.419   4.982
 3135TIP3   OH2 9410   1.192   3.053   0.963
 3135TIP3    H1 9411   1.214   3.144   0.946
 3135TIP3    H2 9412   1.265   3.019   1.014
 3136TIP3   OH2 9413   3.309   4.711   2.486
 3136TIP3    H1 9414   3.317   4.620   2.514
 3136TIP3    H2 9415   3.225   4.715   2.442
 3137TIP3   OH2 9416   3.854   2.691   0.500
 3137TIP3    H1 9417   3.938   2.737   0.494
 3137TIP3    H2 9418   3.854   2.653   0.587
 3138TIP3   OH2 9419   0.127   5.029   2.848
 3138TIP3    H1 9420   0.061   5.097   2.835
 3138TIP3    H2 9421   0.077   4.947   2.844
 3139TIP3   OH2 9422   5.168   5.086   4.750
 3139TIP3    H1 9423   5.182   5.149   4.821
 3139TIP3    H2 9424   5.253   5.080   4.707
 3140TIP3   OH2 9425   2.686   1.967   3.527
 3140TIP3    H1 9426   2.777   1.989   3.546
 3140TIP3    H2 9427   2.663   1.901   3.592
 3141TIP3   OH2 9428   5.585   5.714   4.414
 3141TIP3    H1 9429   5.581   5.619   4.421
 3141TIP3    H2 9430   5.496   5.743   4.429
 3142TIP3   OH2 9431   3.821   4.176   2.436
 3142TIP3    H1 9432   3.866   4.118   2.375
 3142TIP3    H2 9433   3.734   4.188   2.399
 3143TIP3   OH2 9434   0.770   3.214   1.762
 3143TIP3    H1 9435   0.824   3.161   1.821
 3143TIP3    H2 9436   0.744   3.290   1.814
 3144TIP3   OH2 9437   2.185   2.357   0.175
 3144TIP3    H1 9438   2.268   2.391   0.208
 3144TIP3    H2 9439   2.153   2.298   0.244
 3145TIP3   OH2 9440   2.826   3.984   0.363
 3145TIP3    H1 9441   2.756   4.021   0.417
 3145TIP3    H2 9442   2.780   3.945   0.288
 3146TIP3   OH2 9443   0.066   0.752   3.470
 3146TIP3    H1 9444   0.026   0.816   3.528
 3146TIP3    H2 9445   0.136   0.800   3.425
 3147TIP3   OH2 9446   1.659   4.391   4.916
 3147TIP3    H1 9447   1.642   4.304   4.880
 3147TIP3    H2 9448   1.613   4.451   4.857
 3148TIP3   OH2 9449   3.242   4.180   1.444
 3148TIP3    H1 9450   3.185   4.116   1.403
 3148TIP3    H2 9451   3.222   4.262   1.399
 3149TIP3   OH2 9452   4.952   3.423   4.960
 3149TIP3    H1 9453   4.994   3.364   5.023
 3149TIP3    H2 9454   4.985   3.394   4.875
 3150TIP3   OH2 9455   1.342   0.823   1.457
 3150TIP3    H1 9456   1.339   0.826   1.553
 3150TIP3    H2 9457   1.257   0.788   1.431
 3151TIP3   OH2 9458   5.469   5.895   1.581
 3151TIP3    H1 9459   5.382   5.867   1.611
 3151TIP3    H2 9460   5.453   5.937   1.497
 3152TIP3   OH2 9461   1.393   4.498   0.527
 3152TIP3    H1 9462   1.344   4.580   0.523
 3152TIP3    H2 9463   1.331   4.435   0.565
 3153TIP3   OH2 9464   4.916   0.640   0.134
 3153TIP3    H1 9465   4.850   0.576   0.158
 3153TIP3    H2 9466   4.994   0.613   0.183
 3154TIP3   OH2 9467   4.148   0.380   1.185
 3154TIP3    H1 9468   4.229   0.331   1.196
 3154TIP3    H2 9469   4.165   0.465   1.226
 3155TIP3   OH2 9470   3.286   2.080   1.002
 3155TIP3    H1 9471   3.271   2.139   0.928
 3155TIP3    H2 9472   3.234   2.002   0.981
 3156TIP3   OH2 9473   1.460   4.337   5.153
 3156TIP3    H1 9474   1.520   4.382   5.093
 3156TIP3    H2 9475   1.464   4.246   5.125
 3157TIP3   OH2 9476   1.277   3.774   4.513
 3157TIP3    H1 9477   1.202   3.777   4.574
 3157TIP3    H2 9478   1.242   3.732   4.435
 3158TIP3   OH2 9479   6.081   0.596   3.987
 3158TIP3    H1 9480   6.062   0.673   4.041
 3158TIP3    H2 9481   6.095   0.525   4.050
 3159TIP3   OH2 9482   6.359   0.130   4.877
 3159TIP3    H1 9483   6.360   0.055   4.817
 3159TIP3    H2 9484   6.312   0.098   4.954
 3160TIP3   OH2 9485   1.679   3.429   1.921
 3160TIP3    H1 9486   1.698   3.338   1.898
 3160TIP3    H2 9487   1.763   3.466   1.946
 3161TIP3   OH2 9488   3.177   2.001   0.352
 3161TIP3    H1 9489   3.154   1.939   0.421
 3161TIP3    H2 9490   3.140   2.084   0.381
 3162TIP3   OH2 9491   6.036   5.704   3.312
 3162TIP3    H1 9492   6.036   5.800   3.310
 3162TIP3    H2 9493   5.951   5.681   3.352
 3163TIP3   OH2 9494   1.804   2.148   1.275
 3163TIP3    H1 9495   1.864   2.099   1.331
 3163TIP3    H2 9496   1.745   2.082   1.239
 3164TIP3   OH2 9497   0.208   2.681   2.465
 3164TIP3    H1 9498   0.194   2.620   2.392
 3164TIP3    H2 9499   0.147   2.651   2.533
 3165TIP3   OH2 9500   3.634   5.252   0.491
 3165TIP3    H1 9501   3.707   5.224   0.545
 3165TIP3    H2 9502   3.607   5.336   0.529
 3166TIP3   OH2 9503   5.025   1.956   0.578
 3166TIP3    H1 9504   5.109   1.926   0.543
 3166TIP3    H2 9505   5.044   1.978   0.669
 3167TIP3   OH2 9506   2.825   5.195   1.742
 3167TIP3    H1 9507   2.882   5.229   1.811
 3167TIP3    H2 9508   2.774   5.271   1.715
 3168TIP3   OH2 9509   0.812   1.109   4.438
 3168TIP3    H1 9510   0.858   1.028   4.461
 3168TIP3    H2 9511   0.734   1.108   4.494
 3169TIP3   OH2 9512   3.372   5.207   4.855
 3169TIP3    H1 9513   3.347   5.169   4.939
 3169TIP3    H2 9514   3.440   5.149   4.821
 3170TIP3   OH2 9515   4.283   0.968   2.209
 3170TIP3    H1 9516   4.329   0.922   2.279
 3170TIP3    H2 9517   4.237   1.040   2.252
 3171TIP3   OH2 9518   1.839   4.116   2.252
 3171TIP3    H1 9519   1.771   4.155   2.197
 3171TIP3    H2 9520   1.892   4.064   2.191
 3172TIP3   OH2 9521   3.678   2.831   5.062
 3172TIP3    H1 9522   3.634   2.913   5.040
 3172TIP3    H2 9523   3.698   2.791   4.977
 3173TIP3   OH2 9524   4.246   4.193   5.200
 3173TIP3    H1 9525   4.277   4.109   5.168
 3173TIP3    H2 9526   4.193   4.228   5.127
 3174TIP3   OH2 9527   5.954   4.364   3.975
 3174TIP3    H1 9528   5.958   4.274   3.943
 3174TIP3    H2 9529   5.934   4.355   4.069
 3175TIP3   OH2 9530   3.271   3.072   4.111
 3175TIP3    H1 9531   3.198   3.042   4.164
 3175TIP3    H2 9532   3.276   3.166   4.128
 3176TIP3   OH2 9533   6.148   2.632   1.310
 3176TIP3    H1 9534   6.226   2.657   1.261
 3176TIP3    H2 9535   6.079   2.689   1.275
 3177TIP3   OH2 9536   2.824   5.363   2.288
 3177TIP3    H1 9537   2.809   5.444   2.240
 3177TIP3    H2 9538   2.885   5.314   2.233
 3178TIP3   OH2 9539   0.628   0.968   1.712
 3178TIP3    H1 9540   0.719   0.951   1.737
 3178TIP3    H2 9541   0.595   0.883   1.684
 3179TIP3   OH2 9542   2.394   2.880   0.659
 3179TIP3    H1 9543   2.417   2.906   0.748
 3179TIP3    H2 9544   2.340   2.801   0.670
 3180TIP3   OH2 9545   3.285   1.309   4.938
 3180TIP3    H1 9546   3.197   1.345   4.951
 3180TIP3    H2 9547   3.301   1.317   4.844
 3181TIP3   OH2 9548   2.158   4.536   3.730
 3181TIP3    H1 9549   2.197   4.524   3.816
 3181TIP3    H2 9550   2.063   4.537   3.746
 3182TIP3   OH2 9551   6.271   3.502   2.021
 3182TIP3    H1 9552   6.344   3.491   2.082
 3182TIP3    H2 9553   6.288   3.585   1.977
 3183TIP3   OH2 9554   1.102   0.820   3.622
 3183TIP3    H1 9555   1.111   0.811   3.527
 3183TIP3    H2 9556   1.031   0.760   3.646
 3184TIP3   OH2 9557   1.445   3.047   4.556
 3184TIP3    H1 9558   1.477   2.998   4.480
 3184TIP3    H2 9559   1.413   3.130   4.519
 3185TIP3   OH2 9560   0.806   1.511   2.881
 3185TIP3    H1 9561   0.810   1.558   2.798
 3185TIP3    H2 9562   0.782   1.578   2.945
 3186TIP3   OH2 9563   0.932   3.286   0.036
 3186TIP3    H1 9564   0.897   3.204   0.000
 3186TIP3    H2 9565   1.026   3.271   0.044
 3187TIP3   OH2 9566   0.290   0.953   4.356
 3187TIP3    H1 9567   0.257   0.938   4.268
 3187TIP3    H2 9568   0.252   1.037   4.382
 3188TIP3   OH2 9569   1.099   1.380   3.579
 3188TIP3    H1 9570   1.155   1.449   3.545
 3188TIP3    H2 9571   1.122   1.303   3.528
 3189TIP3   OH2 9572   4.069   0.483   2.228
 3189TIP3    H1 9573   4.054   0.471   2.322
 3189TIP3    H2 9574   4.055   0.576   2.213
 3190TIP3   OH2 9575   2.564   1.931   1.817
 3190TIP3    H1 9576   2.526   2.005   1.771
 3190TIP3    H2 9577   2.495   1.899   1.874
 3191TIP3   OH2 9578   4.796   2.561   4.648
 3191TIP3    H1 9579   4.815   2.477   4.606
 3191TIP3    H2 9580   4.779   2.539   4.740
 3192TIP3   OH2 9581   5.884   1.579   2.660
 3192TIP3    H1 9582   5.928   1.642   2.603
 3192TIP3    H2 9583   5.941   1.502   2.660
 3193TIP3   OH2 9584   2.199   2.586   4.801
 3193TIP3    H1 9585   2.118   2.541   4.826
 3193TIP3    H2 9586   2.215   2.647   4.873
 3194TIP3   OH2 9587   0.071   2.054   2.937
 3194TIP3    H1 9588   0.107   1.993   2.873
 3194TIP3    H2 9589   0.140   2.119   2.950
 3195TIP3   OH2 9590   0.782   5.944   2.397
 3195TIP3    H1 9591   0.837   6.018   2.419
 3195TIP3    H2 9592   0.786   5.937   2.302
 3196TIP3   OH2 9593   4.745   0.310   3.750
 3196TIP3    H1 9594   4.791   0.300   3.666
 3196TIP3    H2 9595   4.655   0.284   3.731
 3197TIP3   OH2 9596   0.952   3.209   2.471
 3197TIP3    H1 9597   0.912   3.186   2.555
 3197TIP3    H2 9598   0.958   3.126   2.424
 3198TIP3   OH2 9599   6.023   4.938   0.426
 3198TIP3    H1 9600   5.941   4.987   0.430
 3198TIP3    H2 9601   5.998   4.849   0.403
 3199TIP3   OH2 9602   2.975   5.021   1.120
 3199TIP3    H1 9603   3.006   5.063   1.201
 3199TIP3    H2 9604   2.970   5.093   1.057
 3200TIP3   OH2 9605   3.821   3.340   3.202
 3200TIP3    H1 9606   3.811   3.421   3.252
 3200TIP3    H2 9607   3.833   3.273   3.270
 3201TIP3   OH2 9608   1.979   0.515   2.099
 3201TIP3    H1 9609   1.929   0.453   2.153
 3201TIP3    H2 9610   2.067   0.514   2.137
 3202TIP3   OH2 9611   2.193   1.054   2.559
 3202TIP3    H1 9612   2.138   1.124   2.593
 3202TIP3    H2 9613   2.282   1.087   2.567
 3203TIP3   OH2 9614   1.005   1.612   3.374
 3203TIP3    H1 9615   1.055   1.584   3.298
 3203TIP3    H2 9616   1.061   1.676   3.418
 3204TIP3   OH2 9617   4.686   3.422   4.978
 3204TIP3    H1 9618   4.652   3.477   5.049
 3204TIP3    H2 9619   4.780   3.417   4.993
 3205TIP3   OH2 9620   1.367   4.599   1.691
 3205TIP3    H1 9621   1.421   4.598   1.770
 3205TIP3    H2 9622   1.375   4.510   1.656
 3206TIP3   OH2 9623   4.354   3.830   1.228
 3206TIP3    H1 9624   4.352   3.912   1.278
 3206TIP3    H2 9625   4.433   3.785   1.260
 3207TIP3   OH2 9626   5.373   2.956   1.719
 3207TIP3    H1 9627   5.287   2.985   1.748
 3207TIP3    H2 9628   5.412   2.914   1.796
 3208TIP3   OH2 9629   5.161   1.958   2.031
 3208TIP3    H1 9630   5.159   2.047   2.065
 3208TIP3    H2 9631   5.099   1.959   1.958
 3209TIP3   OH2 9632   5.200   4.479   0.406
 3209TIP3    H1 9633   5.135   4.474   0.475
 3209TIP3    H2 9634   5.201   4.392   0.366
 3210TIP3   OH2 9635   5.207   5.157   3.700
 3210TIP3    H1 9636   5.233   5.080   3.750
 3210TIP3    H2 9637   5.263   5.227   3.732
 3211TIP3   OH2 9638   3.656   0.531   1.219
 3211TIP3    H1 9639   3.673   0.555   1.128
 3211TIP3    H2 9640   3.742   0.509   1.254
 3212TIP3   OH2 9641   4.725   3.645   3.723
 3212TIP3    H1 9642   4.747   3.586   3.651
 3212TIP3    H2 9643   4.809   3.685   3.748
 3213TIP3   OH2 9644   2.698   4.453   1.561
 3213TIP3    H1 9645   2.791   4.462   1.582
 3213TIP3    H2 9646   2.653   4.460   1.645
 3214TIP3   OH2 9647   4.654   0.249   0.287
 3214TIP3    H1 9648   4.658   0.340   0.317
 3214TIP3    H2 9649   4.743   0.217   0.294
 3215TIP3   OH2 9650   5.717   4.461   0.598
 3215TIP3    H1 9651   5.739   4.454   0.691
 3215TIP3    H2 9652   5.696   4.554   0.586
 3216TIP3   OH2 9653   6.185   5.569   4.376
 3216TIP3    H1 9654   6.270   5.529   4.359
 3216TIP3    H2 9655   6.150   5.590   4.290
 3217TIP3   OH2 9656   5.539   0.111   4.782
 3217TIP3    H1 9657   5.629   0.106   4.813
 3217TIP3    H2 9658   5.542   0.173   4.709
 3218TIP3   OH2 9659   2.013   2.081   0.069
 3218TIP3    H1 9660   2.007   2.058  -0.024
 3218TIP3    H2 9661   2.005   2.176   0.070
 3219TIP3   OH2 9662   4.389   0.827   5.008
 3219TIP3    H1 9663   4.302   0.810   5.043
 3219TIP3    H2 9664   4.382   0.915   4.970
 3220TIP3   OH2 9665   2.088   2.425   1.418
 3220TIP3    H1 9666   2.101   2.366   1.344
 3220TIP3    H2 9667   2.163   2.408   1.476
 3221TIP3   OH2 9668   4.019   4.966   2.423
 3221TIP3    H1 9669   4.018   5.043   2.367
 3221TIP3    H2 9670   4.109   4.959   2.453
 3222TIP3   OH2 9671   4.062   1.706   1.377
 3222TIP3    H1 9672   4.067   1.610   1.381
 3222TIP3    H2 9673   3.980   1.724   1.332
 3223TIP3   OH2 9674   6.174   3.321   3.007
 3223TIP3    H1 9675   6.101   3.359   3.057
 3223TIP3    H2 9676   6.235   3.290   3.074
 3224TIP3   OH2 9677   6.319   5.409   3.212
 3224TIP3    H1 9678   6.379   5.418   3.138
 3224TIP3    H2 9679   6.232   5.402   3.172
 3225TIP3   OH2 9680   3.853   3.086   4.480
 3225TIP3    H1 9681   3.840   3.128   4.395
 3225TIP3    H2 9682   3.926   3.026   4.465
 3226TIP3   OH2 9683   3.066   1.977   3.322
 3226TIP3    H1 9684   2.978   1.959   3.290
 3226TIP3    H2 9685   3.105   1.891   3.337
 3227TIP3   OH2 9686   1.134   4.652   4.287
 3227TIP3    H1 9687   1.064   4.708   4.320
 3227TIP3    H2 9688   1.177   4.619   4.366
 3228TIP3   OH2 9689   5.908   1.035   0.681
 3228TIP3    H1 9690   5.836   1.036   0.743
 3228TIP3    H2 9691   5.980   1.078   0.726
 3229TIP3   OH2 9692   1.564   4.919   3.097
 3229TIP3    H1 9693   1.512   4.863   3.155
 3229TIP3    H2 9694   1.552   5.007   3.132
 3230TIP3   OH2 9695   1.876   1.935   0.651
 3230TIP3    H1 9696   1.838   1.897   0.731
 3230TIP3    H2 9697   1.801   1.962   0.599
 3231TIP3   OH2 9698   0.216   2.387   3.850
 3231TIP3    H1 9699   0.227   2.310   3.906
 3231TIP3    H2 9700   0.275   2.452   3.887
 3232TIP3   OH2 9701   3.083   1.583   4.128
 3232TIP3    H1 9702   3.091   1.523   4.202
 3232TIP3    H2 9703   3.147   1.652   4.145
 3233TIP3   OH2 9704   0.969   3.239   0.378
 3233TIP3    H1 9705   0.985   3.263   0.286
 3233TIP3    H2 9706   0.885   3.280   0.399
 3234TIP3   OH2 9707   0.162   1.917   1.202
 3234TIP3    H1 9708   0.102   1.843   1.197
 3234TIP3    H2 9709   0.183   1.924   1.295
 3235TIP3   OH2 9710   0.163   1.114   4.118
 3235TIP3    H1 9711   0.075   1.132   4.151
 3235TIP3    H2 9712   0.154   1.117   4.023
 3236TIP3   OH2 9713   1.972   2.775   1.998
 3236TIP3    H1 9714   2.019   2.702   2.038
 3236TIP3    H2 9715   2.040   2.841   1.982
 3237TIP3   OH2 9716   4.770   3.767   1.997
 3237TIP3    H1 9717   4.751   3.701   1.929
 3237TIP3    H2 9718   4.791   3.846   1.948
 3238TIP3   OH2 9719   5.079   1.329   2.744
 3238TIP3    H1 9720   5.112   1.335   2.833
 3238TIP3    H2 9721   5.026   1.408   2.732
 3239TIP3   OH2 9722   4.969   1.118   4.232
 3239TIP3    H1 9723   4.915   1.168   4.171
 3239TIP3    H2 9724   5.059   1.131   4.199
 3240TIP3   OH2 9725   1.759   3.607   3.471
 3240TIP3    H1 9726   1.807   3.680   3.434
 3240TIP3    H2 9727   1.667   3.631   3.464
 3241TIP3   OH2 9728   1.985   1.355   4.497
 3241TIP3    H1 9729   1.898   1.321   4.519
 3241TIP3    H2 9730   2.044   1.309   4.556
 3242TIP3   OH2 9731   3.728   5.805   2.428
 3242TIP3    H1 9732   3.776   5.823   2.347
 3242TIP3    H2 9733   3.642   5.845   2.415
 3243TIP3   OH2 9734   0.091   0.349   4.751
 3243TIP3    H1 9735   0.078   0.254   4.762
 3243TIP3    H2 9736   0.019   0.389   4.801
 3244TIP3   OH2 9737   0.194   3.187   0.479
 3244TIP3    H1 9738   0.260   3.182   0.549
 3244TIP3    H2 9739   0.220   3.263   0.428
 3245TIP3   OH2 9740   0.850   2.140   3.380
 3245TIP3    H1 9741   0.768   2.100   3.409
 3245TIP3    H2 9742   0.905   2.139   3.458
 3246TIP3   OH2 9743   3.917   2.764   2.447
 3246TIP3    H1 9744   3.994   2.790   2.497
 3246TIP3    H2 9745   3.844   2.776   2.508
 3247TIP3   OH2 9746   0.310   1.777   4.722
 3247TIP3    H1 9747   0.404   1.794   4.731
 3247TIP3    H2 9748   0.296   1.693   4.766
 3248TIP3   OH2 9749   4.211   1.586   5.109
 3248TIP3    H1 9750   4.122   1.620   5.115
 3248TIP3    H2 9751   4.201   1.497   5.078
 3249TIP3   OH2 9752   2.540   1.406   3.536
 3249TIP3    H1 9753   2.619   1.461   3.531
 3249TIP3    H2 9754   2.535   1.364   3.450
 3250TIP3   OH2 9755   4.706   5.680   5.022
 3250TIP3    H1 9756   4.664   5.656   5.104
 3250TIP3    H2 9757   4.636   5.721   4.970
 3251TIP3   OH2 9758   5.761   5.313   2.026
 3251TIP3    H1 9759   5.809   5.255   1.968
 3251TIP3    H2 9760   5.824   5.341   2.092
 3252TIP3   OH2 9761   6.245   0.511   0.875
 3252TIP3    H1 9762   6.175   0.489   0.936
 3252TIP3    H2 9763   6.284   0.427   0.852
 3253TIP3   OH2 9764   3.396   0.635   1.160
 3253TIP3    H1 9765   3.469   0.588   1.201
 3253TIP3    H2 9766   3.362   0.692   1.229
 3254TIP3   OH2 9767   5.212   2.700   0.437
 3254TIP3    H1 9768   5.184   2.719   0.527
 3254TIP3    H2 9769   5.233   2.607   0.438
 3255TIP3   OH2 9770   5.017   5.420   0.827
 3255TIP3    H1 9771   5.078   5.416   0.754
 3255TIP3    H2 9772   5.059   5.369   0.897
 3256TIP3   OH2 9773   0.208   3.782   1.534
 3256TIP3    H1 9774   0.236   3.869   1.562
 3256TIP3    H2 9775   0.284   3.745   1.489
 3257TIP3   OH2 9776   4.809   4.521   4.099
 3257TIP3    H1 9777   4.777   4.574   4.026
 3257TIP3    H2 9778   4.738   4.460   4.118
 3258TIP3   OH2 9779   2.288   0.531   2.997
 3258TIP3    H1 9780   2.226   0.558   2.929
 3258TIP3    H2 9781   2.352   0.602   3.000
 3259TIP3   OH2 9782   2.220   4.405   5.033
 3259TIP3    H1 9783   2.176   4.481   5.072
 3259TIP3    H2 9784   2.178   4.394   4.948
 3260TIP3   OH2 9785   4.496   5.774   4.854
 3260TIP3    H1 9786   4.422   5.785   4.913
 3260TIP3    H2 9787   4.458   5.778   4.767
 3261TIP3   OH2 9788   0.213   4.471   3.314
 3261TIP3    H1 9789   0.287   4.505   3.365
 3261TIP3    H2 9790   0.215   4.522   3.233
 3262TIP3   OH2 9791   5.389   0.703   4.555
 3262TIP3    H1 9792   5.304   0.672   4.586
 3262TIP3    H2 9793   5.426   0.629   4.507
 3263TIP3   OH2 9794   2.032   4.776   4.109
 3263TIP3    H1 9795   1.954   4.723   4.091
 3263TIP3    H2 9796   2.096   4.712   4.142
 3264TIP3   OH2 9797   2.307   5.718   4.543
 3264TIP3    H1 9798   2.298   5.624   4.559
 3264TIP3    H2 9799   2.399   5.730   4.521
 3265TIP3   OH2 9800   4.078   2.158   3.659
 3265TIP3    H1 9801   3.989   2.187   3.642
 3265TIP3    H2 9802   4.099   2.099   3.586
 3266TIP3   OH2 9803   0.701   5.355   0.761
 3266TIP3    H1 9804   0.684   5.388   0.849
 3266TIP3    H2 9805   0.722   5.434   0.710
 3267TIP3   OH2 9806   1.520   3.518   4.342
 3267TIP3    H1 9807   1.472   3.576   4.282
 3267TIP3    H2 9808   1.571   3.577   4.397
 3268TIP3   OH2 9809   4.900   4.063   4.244
 3268TIP3    H1 9810   4.890   4.106   4.160
 3268TIP3    H2 9811   4.898   3.969   4.224
 3269TIP3   OH2 9812   2.801   0.443   5.101
 3269TIP3    H1 9813   2.810   0.401   5.186
 3269TIP3    H2 9814   2.886   0.485   5.086
 3270TIP3   OH2 9815   4.084   4.884   4.998
 3270TIP3    H1 9816   4.084   4.904   4.905
 3270TIP3    H2 9817   4.170   4.844   5.014
 3271TIP3   OH2 9818   0.554   4.175   0.746
 3271TIP3    H1 9819   0.618   4.233   0.787
 3271TIP3    H2 9820   0.561   4.193   0.653
 3272TIP3   OH2 9821   2.856   4.117   2.990
 3272TIP3    H1 9822   2.799   4.102   2.915
 3272TIP3    H2 9823   2.891   4.205   2.977
 3273TIP3   OH2 9824   1.662   4.492   0.453
 3273TIP3    H1 9825   1.569   4.508   0.433
 3273TIP3    H2 9826   1.709   4.536   0.382
 3274TIP3   OH2 9827   5.292   5.106   0.896
 3274TIP3    H1 9828   5.373   5.117   0.946
 3274TIP3    H2 9829   5.290   5.013   0.873
 3275TIP3   OH2 9830   1.534   0.048   2.987
 3275TIP3    H1 9831   1.558  -0.027   3.041
 3275TIP3    H2 9832   1.464   0.091   3.035
 3276TIP3   OH2 9833   1.124   5.696   0.919
 3276TIP3    H1 9834   1.212   5.669   0.948
 3276TIP3    H2 9835   1.139   5.740   0.835
 3277TIP3   OH2 9836   2.232   0.278   0.343
 3277TIP3    H1 9837   2.260   0.299   0.254
 3277TIP3    H2 9838   2.286   0.334   0.399
 3278TIP3   OH2 9839   5.127   2.022   0.847
 3278TIP3    H1 9840   5.222   2.005   0.845
 3278TIP3    H2 9841   5.098   1.984   0.929
 3279TIP3   OH2 9842   4.521   2.782   2.469
 3279TIP3    H1 9843   4.607   2.794   2.510
 3279TIP3    H2 9844   4.481   2.869   2.472
 3280TIP3   OH2 9845   2.847   3.384   0.550
 3280TIP3    H1 9846   2.785   3.367   0.478
 3280TIP3    H2 9847   2.933   3.385   0.508
 3281TIP3   OH2 9848   2.555   2.201   4.236
 3281TIP3    H1 9849   2.575   2.258   4.161
 3281TIP3    H2 9850   2.628   2.215   4.297
 3282TIP3   OH2 9851   3.901   4.601   4.134
 3282TIP3    H1 9852   3.956   4.582   4.210
 3282TIP3    H2 9853   3.962   4.609   4.061
 3283TIP3   OH2 9854   0.104   4.143   0.031
 3283TIP3    H1 9855   0.121   4.051   0.050
 3283TIP3    H2 9856   0.025   4.164   0.080
 3284TIP3   OH2 9857   2.013   0.427   3.306
 3284TIP3    H1 9858   2.089   0.456   3.356
 3284TIP3    H2 9859   1.971   0.508   3.277
 3285TIP3   OH2 9860   4.641   2.333   2.077
 3285TIP3    H1 9861   4.577   2.405   2.083
 3285TIP3    H2 9862   4.690   2.352   1.997
 3286TIP3   OH2 9863   5.016   5.627   0.580
 3286TIP3    H1 9864   4.944   5.598   0.636
 3286TIP3    H2 9865   5.062   5.694   0.631
 3287TIP3   OH2 9866   3.039   1.037   1.760
 3287TIP3    H1 9867   3.074   0.964   1.709
 3287TIP3    H2 9868   3.035   1.004   1.850
 3288TIP3   OH2 9869   0.089   0.846   2.931
 3288TIP3    H1 9870   0.170   0.895   2.941
 3288TIP3    H2 9871   0.037   0.898   2.869
 3289TIP3   OH2 9872   3.502   2.680   3.030
 3289TIP3    H1 9873   3.542   2.607   3.077
 3289TIP3    H2 9874   3.468   2.641   2.950
 3290TIP3   OH2 9875   5.193   2.266   0.052
 3290TIP3    H1 9876   5.123   2.223   0.003
 3290TIP3    H2 9877   5.166   2.357   0.058
 3291TIP3   OH2 9878   1.880   4.559   3.499
 3291TIP3    H1 9879   1.927   4.633   3.536
 3291TIP3    H2 9880   1.788   4.587   3.496
 3292TIP3   OH2 9881   1.887   5.508   2.963
 3292TIP3    H1 9882   1.806   5.559   2.970
 3292TIP3    H2 9883   1.899   5.470   3.050
 3293TIP3   OH2 9884   6.194   0.419   3.252
 3293TIP3    H1 9885   6.153   0.467   3.181
 3293TIP3    H2 9886   6.232   0.341   3.211
 3294TIP3   OH2 9887   2.989   0.919   4.131
 3294TIP3    H1 9888   3.001   0.945   4.222
 3294TIP3    H2 9889   3.032   0.988   4.080
 3295TIP3   OH2 9890   3.037   0.515   3.843
 3295TIP3    H1 9891   3.126   0.507   3.876
 3295TIP3    H2 9892   2.988   0.558   3.913
 3296TIP3   OH2 9893   3.585   3.005   4.468
 3296TIP3    H1 9894   3.660   3.047   4.511
 3296TIP3    H2 9895   3.592   3.030   4.376
 3297TIP3   OH2 9896   0.108   3.672   0.901
 3297TIP3    H1 9897   0.155   3.755   0.887
 3297TIP3    H2 9898   0.054   3.662   0.823
 3298TIP3   OH2 9899   5.941   5.229   1.553
 3298TIP3    H1 9900   5.928   5.271   1.468
 3298TIP3    H2 9901   6.036   5.235   1.567
 3299TIP3   OH2 9902   4.623   3.960   5.181
 3299TIP3    H1 9903   4.703   3.908   5.188
 3299TIP3    H2 9904   4.652   4.050   5.194
 3300TIP3   OH2 9905   3.130   0.499   4.817
 3300TIP3    H1 9906   3.206   0.443   4.802
 3300TIP3    H2 9907   3.166   0.579   4.857
 3301TIP3   OH2 9908   1.873   1.817   2.757
 3301TIP3    H1 9909   1.917   1.889   2.802
 3301TIP3    H2 9910   1.795   1.800   2.810
 3302TIP3   OH2 9911   5.672   4.462   5.177
 3302TIP3    H1 9912   5.633   4.506   5.101
 3302TIP3    H2 9913   5.660   4.525   5.248
 3303TIP3   OH2 9914   4.616   1.178   4.287
 3303TIP3    H1 9915   4.622   1.125   4.367
 3303TIP3    H2 9916   4.560   1.127   4.229
 3304TIP3   OH2 9917   2.035   2.174   0.686
 3304TIP3    H1 9918   1.975   2.247   0.678
 3304TIP3    H2 9919   1.979   2.096   0.685
 3305TIP3   OH2 9920   2.138   5.807   0.809
 3305TIP3    H1 9921   2.216   5.830   0.760
 3305TIP3    H2 9922   2.160   5.828   0.900
 3306TIP3   OH2 9923   3.339   3.057   2.425
 3306TIP3    H1 9924   3.408   3.079   2.488
 3306TIP3    H2 9925   3.345   3.126   2.358
 3307TIP3   OH2 9926   5.684   4.952   4.579
 3307TIP3    H1 9927   5.724   5.018   4.524
 3307TIP3    H2 9928   5.640   4.893   4.518
 3308TIP3   OH2 9929   4.944   4.462   0.503
 3308TIP3    H1 9930   4.853   4.451   0.475
 3308TIP3    H2 9931   4.967   4.378   0.544
 3309TIP3   OH2 9932   5.660   2.215   1.255
 3309TIP3    H1 9933   5.752   2.220   1.281
 3309TIP3    H2 9934   5.654   2.273   1.179
 3310TIP3   OH2 9935   0.169   0.723   4.250
 3310TIP3    H1 9936   0.234   0.723   4.320
 3310TIP3    H2 9937   0.091   0.762   4.290
 3311TIP3   OH2 9938   3.219   4.052   4.780
 3311TIP3    H1 9939   3.164   4.130   4.775
 3311TIP3    H2 9940   3.258   4.057   4.868
 3312TIP3   OH2 9941   0.623   2.930   3.918
 3312TIP3    H1 9942   0.570   2.855   3.891
 3312TIP3    H2 9943   0.705   2.891   3.950
 3313TIP3   OH2 9944   2.849   2.137   2.374
 3313TIP3    H1 9945   2.754   2.152   2.380
 3313TIP3    H2 9946   2.879   2.199   2.308
 3314TIP3   OH2 9947   1.533   1.668   4.516
 3314TIP3    H1 9948   1.478   1.626   4.582
 3314TIP3    H2 9949   1.570   1.596   4.466
 3315TIP3   OH2 9950   4.724   2.466   3.674
 3315TIP3    H1 9951   4.647   2.460   3.730
 3315TIP3    H2 9952   4.741   2.560   3.667
 3316TIP3   OH2 9953   1.635   2.351   5.096
 3316TIP3    H1 9954   1.543   2.365   5.116
 3316TIP3    H2 9955   1.675   2.438   5.102
 3317TIP3   OH2 9956   2.297   5.037   1.919
 3317TIP3    H1 9957   2.259   5.083   1.994
 3317TIP3    H2 9958   2.342   4.962   1.958
 3318TIP3   OH2 9959   1.277   1.768   2.862
 3318TIP3    H1 9960   1.256   1.857   2.833
 3318TIP3    H2 9961   1.264   1.771   2.957
 3319TIP3   OH2 9962   1.271   4.337   3.683
 3319TIP3    H1 9963   1.300   4.346   3.592
 3319TIP3    H2 9964   1.315   4.408   3.729
 3320TIP3   OH2 9965   6.023   4.806   3.367
 3320TIP3    H1 9966   6.042   4.738   3.432
 3320TIP3    H2 9967   5.969   4.762   3.301
 3321TIP3   OH2 9968   4.908   4.533   2.958
 3321TIP3    H1 9969   4.875   4.467   2.896
 3321TIP3    H2 9970   4.832   4.587   2.978
 3322TIP3   OH2 9971   3.119   5.059   4.280
 3322TIP3    H1 9972   3.038   5.018   4.252
 3322TIP3    H2 9973   3.129   5.033   4.372
 3323TIP3   OH2 9974   1.941   5.043   2.317
 3323TIP3    H1 9975   2.032   5.025   2.295
 3323TIP3    H2 9976   1.942   5.061   2.411
 3324TIP3   OH2 9977   5.433   3.836   0.211
 3324TIP3    H1 9978   5.396   3.753   0.241
 3324TIP3    H2 9979   5.527   3.824   0.218
 3325TIP3   OH2 9980   3.062   2.964   3.585
 3325TIP3    H1 9981   3.077   3.059   3.584
 3325TIP3    H2 9982   3.147   2.926   3.605
 3326TIP3   OH2 9983   6.044   1.462   4.423
 3326TIP3    H1 9984   6.017   1.554   4.427
 3326TIP3    H2 9985   5.963   1.412   4.430
 3327TIP3   OH2 9986   1.789   3.870   0.192
 3327TIP3    H1 9987   1.854   3.917   0.141
 3327TIP3    H2 9988   1.823   3.871   0.282
 3328TIP3   OH2 9989   5.441   5.091   3.067
 3328TIP3    H1 9990   5.431   5.041   3.148
 3328TIP3    H2 9991   5.431   5.026   2.997
 3329TIP3   OH2 9992   3.969   3.140   3.660
 3329TIP3    H1 9993   3.897   3.119   3.720
 3329TIP3    H2 9994   3.989   3.232   3.678
 3330TIP3   OH2 9995   3.760   2.995   1.555
 3330TIP3    H1 9996   3.816   3.068   1.579
 3330TIP3    H2 9997   3.682   3.006   1.609
 3331TIP3   OH2 9998   1.443   4.021   1.274
 3331TIP3    H1 9999   1.497   4.043   1.199
 3331TIP3    H210000   1.485   4.066   1.348
 3332TIP3   OH210001   4.923   0.132   0.227
 3332TIP3    H110002   4.984   0.176   0.167
 3332TIP3    H210003   4.912   0.045   0.189
 3333TIP3   OH210004   2.558   4.654   2.292
 3333TIP3    H110005   2.540   4.677   2.383
 3333TIP3    H210006   2.600   4.732   2.255
 3334TIP3   OH210007   1.571   4.409   1.243
 3334TIP3    H110008   1.578   4.416   1.147
 3334TIP3    H210009   1.640   4.348   1.268
 3335TIP3   OH210010   5.476   3.077   2.774
 3335TIP3    H110011   5.467   3.172   2.777
 3335TIP3    H210012   5.478   3.050   2.865
 3336TIP3   OH210013   3.654   0.475   2.983
 3336TIP3    H110014   3.609   0.525   3.050
 3336TIP3    H210015   3.619   0.386   2.991
 3337TIP3   OH210016   3.534   2.358   4.654
 3337TIP3    H110017   3.466   2.324   4.712
 3337TIP3    H210018   3.516   2.452   4.649
 3338TIP3   OH210019   1.259   2.024   1.536
 3338TIP3    H110020   1.209   2.104   1.514
 3338TIP3    H210021   1.276   2.032   1.629
 3339TIP3   OH210022   3.958   5.556   2.223
 3339TIP3    H110023   4.034   5.537   2.277
 3339TIP3    H210024   3.981   5.523   2.136
 3340TIP3   OH210025   5.862   4.720   0.344
 3340TIP3    H110026   5.775   4.738   0.308
 3340TIP3    H210027   5.910   4.679   0.272
 3341TIP3   OH210028   2.087   4.612   0.038
 3341TIP3    H110029   2.146   4.687   0.031
 3341TIP3    H210030   2.121   4.549  -0.025
 3342TIP3   OH210031   4.380   3.360   2.333
 3342TIP3    H110032   4.462   3.383   2.289
 3342TIP3    H210033   4.408   3.315   2.413
 3343TIP3   OH210034   3.267   1.073   1.150
 3343TIP3    H110035   3.354   1.052   1.184
 3343TIP3    H210036   3.207   1.038   1.216
 3344TIP3   OH210037   5.089   2.677   1.849
 3344TIP3    H110038   5.116   2.627   1.926
 3344TIP3    H210039   5.138   2.638   1.777
 3345TIP3   OH210040  -0.018   3.514   3.428
 3345TIP3    H110041   0.052   3.535   3.490
 3345TIP3    H210042   0.026   3.509   3.344
 3346TIP3   OH210043   2.009   1.386   2.222
 3346TIP3    H110044   1.961   1.322   2.275
 3346TIP3    H210045   1.977   1.373   2.133
 3347TIP3   OH210046   4.751   5.897   3.180
 3347TIP3    H110047   4.713   5.833   3.240
 3347TIP3    H210048   4.675   5.935   3.134
 3348TIP3   OH210049   5.698   3.786   2.921
 3348TIP3    H110050   5.610   3.811   2.948
 3348TIP3    H210051   5.707   3.823   2.833
 3349TIP3   OH210052   5.603   0.218   0.817
 3349TIP3    H110053   5.559   0.292   0.860
 3349TIP3    H210054   5.601   0.148   0.883
 3350TIP3   OH210055   2.271   4.167   1.277
 3350TIP3    H110056   2.328   4.103   1.235
 3350TIP3    H210057   2.322   4.201   1.351
 3351TIP3   OH210058   1.830   3.108   0.601
 3351TIP3    H110059   1.752   3.110   0.546
 3351TIP3    H210060   1.886   3.041   0.562
 3352TIP3   OH210061   2.189   2.525   3.596
 3352TIP3    H110062   2.174   2.442   3.641
 3352TIP3    H210063   2.253   2.570   3.651
 3353TIP3   OH210064   6.257   2.996   1.392
 3353TIP3    H110065   6.332   2.987   1.333
 3353TIP3    H210066   6.278   3.072   1.446
 3354TIP3   OH210067   0.349   2.620   3.583
 3354TIP3    H110068   0.430   2.593   3.540
 3354TIP3    H210069   0.319   2.696   3.533
 3355TIP3   OH210070   3.902   0.336   1.999
 3355TIP3    H110071   3.973   0.286   1.959
 3355TIP3    H210072   3.927   0.341   2.092
 3356TIP3   OH210073   2.986   5.024   2.343
 3356TIP3    H110074   3.048   5.096   2.354
 3356TIP3    H210075   2.914   5.045   2.403
 3357TIP3   OH210076   5.701   4.556   4.483
 3357TIP3    H110077   5.625   4.560   4.541
 3357TIP3    H210078   5.669   4.510   4.405
 3358TIP3   OH210079   1.153   5.290   3.607
 3358TIP3    H110080   1.088   5.358   3.593
 3358TIP3    H210081   1.102   5.214   3.636
 3359TIP3   OH210082   6.346   0.587   2.273
 3359TIP3    H110083   6.352   0.504   2.320
 3359TIP3    H210084   6.337   0.653   2.342
 3360TIP3   OH210085   3.685   2.640   4.105
 3360TIP3    H110086   3.652   2.556   4.074
 3360TIP3    H210087   3.627   2.664   4.177
 3361TIP3   OH210088   4.578   4.718   2.133
 3361TIP3    H110089   4.535   4.667   2.065
 3361TIP3    H210090   4.517   4.715   2.207
 3362TIP3   OH210091   4.389   1.861   2.395
 3362TIP3    H110092   4.411   1.924   2.464
 3362TIP3    H210093   4.305   1.891   2.361
 3363TIP3   OH210094   1.645   2.687   2.949
 3363TIP3    H110095   1.666   2.780   2.940
 3363TIP3    H210096   1.620   2.677   3.041
 3364TIP3   OH210097   6.321   4.100   1.756
 3364TIP3    H110098   6.247   4.040   1.742
 3364TIP3    H210099   6.311   4.167   1.689
 3365TIP3   OH210100   5.462   3.019   3.076
 3365TIP3    H110101   5.371   3.019   3.047
 3365TIP3    H210102   5.473   2.934   3.120
 3366TIP3   OH210103   0.139   3.929   3.319
 3366TIP3    H110104   0.212   3.884   3.361
 3366TIP3    H210105   0.173   4.016   3.298
 3367TIP3   OH210106   3.277   2.873   1.508
 3367TIP3    H110107   3.229   2.821   1.443
 3367TIP3    H210108   3.214   2.940   1.536
 3368TIP3   OH210109   6.208   1.407   4.635
 3368TIP3    H110110   6.215   1.492   4.679
 3368TIP3    H210111   6.134   1.417   4.575
 3369TIP3   OH210112   5.021   0.807   3.387
 3369TIP3    H110113   5.068   0.887   3.411
 3369TIP3    H210114   4.966   0.834   3.313
 3370TIP3   OH210115   5.694   2.253   2.726
 3370TIP3    H110116   5.772   2.299   2.756
 3370TIP3    H210117   5.692   2.270   2.631
 3371TIP3   OH210118   3.102   4.232   0.551
 3371TIP3    H110119   3.180   4.246   0.498
 3371TIP3    H210120   3.097   4.309   0.608
 3372TIP3   OH210121   5.866   5.127   0.692
 3372TIP3    H110122   5.894   5.199   0.636
 3372TIP3    H210123   5.774   5.112   0.668
 3373TIP3   OH210124   2.180   4.039   0.513
 3373TIP3    H110125   2.254   3.985   0.539
 3373TIP3    H210126   2.207   4.129   0.534
 3374TIP3   OH210127   3.546   2.633   4.578
 3374TIP3    H110128   3.588   2.709   4.537
 3374TIP3    H210129   3.458   2.632   4.541
 3375TIP3   OH210130   4.540   3.632   1.353
 3375TIP3    H110131   4.619   3.601   1.310
 3375TIP3    H210132   4.487   3.553   1.366
 3376TIP3   OH210133   6.191   1.848   3.849
 3376TIP3    H110134   6.125   1.792   3.810
 3376TIP3    H210135   6.248   1.788   3.898
 3377TIP3   OH210136   5.074   3.329   0.728
 3377TIP3    H110137   5.164   3.321   0.758
 3377TIP3    H210138   5.075   3.400   0.664
 3378TIP3   OH210139   1.486   3.335   3.223
 3378TIP3    H110140   1.466   3.310   3.133
 3378TIP3    H210141   1.406   3.379   3.254
 3379TIP3   OH210142   4.910   0.102   3.375
 3379TIP3    H110143   4.822   0.064   3.378
 3379TIP3    H210144   4.899   0.187   3.333
 3380TIP3   OH210145   3.095   3.425   1.726
 3380TIP3    H110146   3.030   3.380   1.780
 3380TIP3    H210147   3.070   3.518   1.730
 3381TIP3   OH210148   5.526   3.387   2.480
 3381TIP3    H110149   5.601   3.440   2.452
 3381TIP3    H210150   5.521   3.401   2.574
 3382TIP3   OH210151   5.685   5.939   1.376
 3382TIP3    H110152   5.597   5.964   1.348
 3382TIP3    H210153   5.741   6.009   1.343
 3383TIP3   OH210154   5.519   5.822   4.040
 3383TIP3    H110155   5.578   5.898   4.037
 3383TIP3    H210156   5.482   5.817   3.952
 3384TIP3   OH210157   4.175   0.030   1.402
 3384TIP3    H110158   4.143  -0.059   1.387
 3384TIP3    H210159   4.188   0.067   1.314
 3385TIP3   OH210160   2.885   2.852   3.398
 3385TIP3    H110161   2.952   2.919   3.410
 3385TIP3    H210162   2.805   2.890   3.434
 3386TIP3   OH210163   4.715   1.736   0.094
 3386TIP3    H110164   4.786   1.799   0.107
 3386TIP3    H210165   4.751   1.674   0.031
 3387TIP3   OH210166   0.942   0.216   1.727
 3387TIP3    H110167   0.907   0.127   1.732
 3387TIP3    H210168   0.943   0.237   1.634
 3388TIP3   OH210169   5.607   2.605   0.859
 3388TIP3    H110170   5.633   2.697   0.868
 3388TIP3    H210171   5.512   2.606   0.868
 3389TIP3   OH210172   2.997   0.028   4.661
 3389TIP3    H110173   2.932   0.061   4.599
 3389TIP3    H210174   2.959   0.045   4.747
 3390TIP3   OH210175   4.982   4.111   0.512
 3390TIP3    H110176   4.907   4.116   0.452
 3390TIP3    H210177   4.950   4.148   0.594
 3391TIP3   OH210178   6.296   4.851   2.977
 3391TIP3    H110179   6.263   4.934   3.012
 3391TIP3    H210180   6.267   4.785   3.040
 3392TIP3   OH210181   3.358   1.904   3.257
 3392TIP3    H110182   3.309   1.833   3.299
 3392TIP3    H210183   3.324   1.983   3.298
 3393TIP3   OH210184   2.993   5.679   4.193
 3393TIP3    H110185   3.080   5.642   4.175
 3393TIP3    H210186   2.982   5.747   4.126
 3394TIP3   OH210187   3.091   1.530   0.433
 3394TIP3    H110188   3.024   1.465   0.413
 3394TIP3    H210189   3.135   1.546   0.349
 3395TIP3   OH210190   3.771   1.178   2.700
 3395TIP3    H110191   3.842   1.239   2.720
 3395TIP3    H210192   3.703   1.198   2.764
 3396TIP3   OH210193   5.068   1.808   3.294
 3396TIP3    H110194   5.070   1.873   3.365
 3396TIP3    H210195   4.978   1.776   3.293
 3397TIP3   OH210196   3.276   0.652   3.087
 3397TIP3    H110197   3.301   0.744   3.086
 3397TIP3    H210198   3.360   0.605   3.093
 3398TIP3   OH210199   2.042   1.738   4.089
 3398TIP3    H110200   2.049   1.749   3.995
 3398TIP3    H210201   2.091   1.812   4.126
 3399TIP3   OH210202   5.795   4.844   1.005
 3399TIP3    H110203   5.701   4.827   1.012
 3399TIP3    H210204   5.807   4.882   0.918
 3400TIP3   OH210205   1.458   2.342   1.673
 3400TIP3    H110206   1.400   2.266   1.681
 3400TIP3    H210207   1.472   2.351   1.578
 3401TIP3   OH210208   5.922   3.961   0.052
 3401TIP3    H110209   5.883   3.953  -0.035
 3401TIP3    H210210   5.853   3.934   0.113
 3402TIP3   OH210211   5.294   5.490   3.430
 3402TIP3    H110212   5.356   5.495   3.358
 3402TIP3    H210213   5.346   5.459   3.504
 3403TIP3   OH210214   5.051   4.676   0.608
 3403TIP3    H110215   5.042   4.598   0.552
 3403TIP3    H210216   5.143   4.699   0.602
 3404TIP3   OH210217   4.969   0.803   1.485
 3404TIP3    H110218   4.921   0.762   1.412
 3404TIP3    H210219   5.037   0.855   1.442
 3405TIP3   OH210220   4.063   1.380   4.063
 3405TIP3    H110221   4.118   1.304   4.082
 3405TIP3    H210222   4.007   1.390   4.140
 3406TIP3   OH210223   3.383   1.716   0.852
 3406TIP3    H110224   3.376   1.807   0.823
 3406TIP3    H210225   3.341   1.665   0.782
 3407TIP3   OH210226   0.716   4.746   0.583
 3407TIP3    H110227   0.715   4.811   0.653
 3407TIP3    H210228   0.660   4.675   0.615
 3408TIP3   OH210229   0.210   0.129   1.679
 3408TIP3    H110230   0.219   0.044   1.635
 3408TIP3    H210231   0.132   0.119   1.734
 3409TIP3   OH210232   3.138   1.755   3.059
 3409TIP3    H110233   3.051   1.715   3.051
 3409TIP3    H210234   3.171   1.724   3.143
 3410TIP3   OH210235   4.365   1.533   0.818
 3410TIP3    H110236   4.431   1.602   0.807
 3410TIP3    H210237   4.306   1.546   0.745
 3411TIP3   OH210238   5.114   4.049   3.172
 3411TIP3    H110239   5.197   4.010   3.198
 3411TIP3    H210240   5.104   4.026   3.080
 3412TIP3   OH210241   0.836   0.741   0.396
 3412TIP3    H110242   0.846   0.655   0.356
 3412TIP3    H210243   0.837   0.724   0.491
 3413TIP3   OH210244   6.271   1.453   2.094
 3413TIP3    H110245   6.222   1.441   2.013
 3413TIP3    H210246   6.340   1.387   2.091
 3414TIP3   OH210247   3.073   2.308   0.113
 3414TIP3    H110248   3.020   2.323   0.192
 3414TIP3    H210249   3.153   2.358   0.128
 3415TIP3   OH210250   2.112   1.785   0.203
 3415TIP3    H110251   2.120   1.827   0.117
 3415TIP3    H210252   2.186   1.725   0.206
 3416TIP3   OH210253   1.126   0.646   1.653
 3416TIP3    H110254   1.097   0.599   1.731
 3416TIP3    H210255   1.199   0.700   1.684
 3417TIP3   OH210256   0.452   5.490   1.551
 3417TIP3    H110257   0.358   5.484   1.567
 3417TIP3    H210258   0.462   5.476   1.457
 3418TIP3   OH210259   2.514   2.720   2.133
 3418TIP3    H110260   2.500   2.813   2.152
 3418TIP3    H210261   2.588   2.719   2.072
 3419TIP3   OH210262   2.981   3.293   1.401
 3419TIP3    H110263   2.965   3.382   1.370
 3419TIP3    H210264   3.021   3.248   1.326
 3420TIP3   OH210265   2.272   4.369   2.432
 3420TIP3    H110266   2.263   4.339   2.523
 3420TIP3    H210267   2.302   4.292   2.384
 3421TIP3   OH210268   5.344   4.041   3.711
 3421TIP3    H110269   5.399   4.024   3.635
 3421TIP3    H210270   5.265   4.082   3.675
 3422TIP3   OH210271   2.825   0.453   4.201
 3422TIP3    H110272   2.846   0.509   4.126
 3422TIP3    H210273   2.739   0.483   4.231
 3423TIP3   OH210274   4.857   0.459   4.566
 3423TIP3    H110275   4.863   0.520   4.640
 3423TIP3    H210276   4.866   0.514   4.489
 3424TIP3   OH210277   1.325   2.708   1.443
 3424TIP3    H110278   1.413   2.716   1.406
 3424TIP3    H210279   1.303   2.796   1.473
 3425TIP3   OH210280   0.556   4.447   3.199
 3425TIP3    H110281   0.484   4.427   3.139
 3425TIP3    H210282   0.533   4.530   3.240
 3426TIP3   OH210283   0.647   1.129   5.024
 3426TIP3    H110284   0.716   1.192   5.044
 3426TIP3    H210285   0.617   1.098   5.109
 3427TIP3   OH210286   6.295   0.026   3.951
 3427TIP3    H110287   6.290   0.101   4.010
 3427TIP3    H210288   6.239   0.049   3.877
 3428TIP3   OH210289   2.387   4.246   1.988
 3428TIP3    H110290   2.430   4.216   1.907
 3428TIP3    H210291   2.425   4.332   2.004
 3429TIP3   OH210292   0.253   2.930   3.925
 3429TIP3    H110293   0.318   2.865   3.899
 3429TIP3    H210294   0.269   3.004   3.866
 3430TIP3   OH210295   2.256   3.491   2.530
 3430TIP3    H110296   2.258   3.583   2.502
 3430TIP3    H210297   2.164   3.467   2.527
 3431TIP3   OH210298   0.037   4.716   2.713
 3431TIP3    H110299   0.011   4.793   2.662
 3431TIP3    H210300  -0.026   4.713   2.785
 3432TIP3   OH210301   0.944   0.394   4.698
 3432TIP3    H110302   0.907   0.339   4.767
 3432TIP3    H210303   0.939   0.483   4.733
 3433TIP3   OH210304   2.375   5.393   3.556
 3433TIP3    H110305   2.361   5.426   3.468
 3433TIP3    H210306   2.445   5.328   3.547
 3434TIP3   OH210307  -0.005   4.359   1.597
 3434TIP3    H110308  -0.049   4.424   1.651
 3434TIP3    H210309   0.081   4.349   1.637
 3435TIP3   OH210310   1.181   4.956   3.462
 3435TIP3    H110311   1.263   5.003   3.475
 3435TIP3    H210312   1.121   4.993   3.527
 3436TIP3   OH210313   5.883   1.631   1.938
 3436TIP3    H110314   5.805   1.587   1.904
 3436TIP3    H210315   5.955   1.570   1.918
 3437TIP3   OH210316   5.403   3.562   2.166
 3437TIP3    H110317   5.473   3.504   2.196
 3437TIP3    H210318   5.421   3.574   2.072
 3438TIP3   OH210319   2.934   2.714   0.671
 3438TIP3    H110320   2.848   2.675   0.687
 3438TIP3    H210321   2.919   2.808   0.674
 3439TIP3   OH210322   3.410   3.477   0.542
 3439TIP3    H110323   3.332   3.532   0.526
 3439TIP3    H210324   3.481   3.540   0.555
 3440TIP3   OH210325   4.155   1.072   1.010
 3440TIP3    H110326   4.214   0.997   1.001
 3440TIP3    H210327   4.210   1.141   1.049
 3441TIP3   OH210328   4.625   2.422   2.812
 3441TIP3    H110329   4.617   2.427   2.717
 3441TIP3    H210330   4.614   2.329   2.832
 3442TIP3   OH210331   3.120   5.724   0.930
 3442TIP3    H110332   3.164   5.796   0.975
 3442TIP3    H210333   3.190   5.678   0.884
 3443TIP3   OH210334   3.987   2.940   1.723
 3443TIP3    H110335   3.896   2.941   1.691
 3443TIP3    H210336   4.011   2.848   1.720
 3444TIP3   OH210337   2.441   5.484   2.786
 3444TIP3    H110338   2.349   5.457   2.794
 3444TIP3    H210339   2.485   5.438   2.857
 3445TIP3   OH210340   5.570   4.076   3.265
 3445TIP3    H110341   5.631   4.122   3.206
 3445TIP3    H210342   5.538   4.145   3.324
 3446TIP3   OH210343   2.656   2.577   1.268
 3446TIP3    H110344   2.743   2.596   1.231
 3446TIP3    H210345   2.675   2.527   1.347
 3447TIP3   OH210346   1.875   1.199   2.364
 3447TIP3    H110347   1.779   1.203   2.369
 3447TIP3    H210348   1.905   1.203   2.455
 3448TIP3   OH210349   5.582   5.150   3.340
 3448TIP3    H110350   5.597   5.075   3.398
 3448TIP3    H210351   5.495   5.181   3.363
 3449TIP3   OH210352   5.336   4.060   0.519
 3449TIP3    H110353   5.383   4.143   0.506
 3449TIP3    H210354   5.395   3.993   0.484
 3450TIP3   OH210355   4.052   0.759   0.440
 3450TIP3    H110356   3.965   0.721   0.429
 3450TIP3    H210357   4.054   0.792   0.530
 3451TIP3   OH210358   1.622   0.642   0.316
 3451TIP3    H110359   1.556   0.703   0.347
 3451TIP3    H210360   1.705   0.681   0.342
 3452TIP3   OH210361   6.173   2.352   3.892
 3452TIP3    H110362   6.247   2.299   3.919
 3452TIP3    H210363   6.112   2.291   3.851
 3453TIP3   OH210364   4.085   1.760   4.588
 3453TIP3    H110365   4.069   1.720   4.674
 3453TIP3    H210366   4.180   1.767   4.581
 3454TIP3   OH210367   1.200   5.811   3.547
 3454TIP3    H110368   1.199   5.805   3.643
 3454TIP3    H210369   1.236   5.728   3.518
 3455TIP3   OH210370   0.577   1.188   4.586
 3455TIP3    H110371   0.575   1.110   4.642
 3455TIP3    H210372   0.495   1.233   4.604
 3456TIP3   OH210373   2.703   3.288   0.026
 3456TIP3    H110374   2.711   3.216  -0.036
 3456TIP3    H210375   2.785   3.337   0.016
 3457TIP3   OH210376   6.294   0.170   1.760
 3457TIP3    H110377   6.246   0.154   1.679
 3457TIP3    H210378   6.235   0.224   1.813
 3458TIP3   OH210379   0.514   4.691   4.184
 3458TIP3    H110380   0.483   4.612   4.229
 3458TIP3    H210381   0.438   4.749   4.182
 3459TIP3   OH210382   2.915   3.976   3.777
 3459TIP3    H110383   2.950   3.988   3.865
 3459TIP3    H210384   2.865   4.056   3.760
 3460TIP3   OH210385   2.099   4.411   4.230
 3460TIP3    H110386   2.074   4.333   4.181
 3460TIP3    H210387   2.178   4.443   4.188
 3461TIP3   OH210388   5.335   2.444   3.860
 3461TIP3    H110389   5.357   2.384   3.789
 3461TIP3    H210390   5.419   2.462   3.902
 3462TIP3   OH210391   6.245   5.028   3.206
 3462TIP3    H110392   6.328   5.077   3.212
 3462TIP3    H210393   6.200   5.048   3.288
 3463TIP3   OH210394   0.013   4.961   5.071
 3463TIP3    H110395   0.001   5.056   5.070
 3463TIP3    H210396   0.083   4.946   5.134
 3464TIP3   OH210397   0.126   0.675   1.562
 3464TIP3    H110398   0.037   0.682   1.527
 3464TIP3    H210399   0.132   0.585   1.594
 3465TIP3   OH210400   4.474   5.509   4.506
 3465TIP3    H110401   4.397   5.499   4.450
 3465TIP3    H210402   4.523   5.428   4.495
 3466TIP3   OH210403   5.618   5.338   0.930
 3466TIP3    H110404   5.607   5.431   0.908
 3466TIP3    H210405   5.572   5.292   0.860
 3467TIP3   OH210406   3.585   4.931   0.061
 3467TIP3    H110407   3.583   4.996   0.131
 3467TIP3    H210408   3.497   4.933   0.023
 3468TIP3   OH210409   3.876   5.563   4.875
 3468TIP3    H110410   3.816   5.626   4.834
 3468TIP3    H210411   3.829   5.480   4.869
 3469TIP3   OH210412   0.191   5.412   3.959
 3469TIP3    H110413   0.100   5.383   3.962
 3469TIP3    H210414   0.236   5.344   3.909
 3470TIP3   OH210415   3.329   4.869   0.948
 3470TIP3    H110416   3.406   4.844   0.897
 3470TIP3    H210417   3.326   4.964   0.942
 3471TIP3   OH210418   4.050   1.868   2.577
 3471TIP3    H110419   4.055   1.940   2.513
 3471TIP3    H210420   4.029   1.791   2.524
 3472TIP3   OH210421   3.507   2.127   4.841
 3472TIP3    H110422   3.414   2.110   4.857
 3472TIP3    H210423   3.526   2.082   4.759
 3473TIP3   OH210424   0.441   4.688   4.847
 3473TIP3    H110425   0.371   4.752   4.833
 3473TIP3    H210426   0.512   4.739   4.886
 3474TIP3   OH210427   4.096   0.203   3.431
 3474TIP3    H110428   4.140   0.229   3.350
 3474TIP3    H210429   4.095   0.283   3.485
 3475TIP3   OH210430   2.012   3.467   3.730
 3475TIP3    H110431   2.017   3.499   3.640
 3475TIP3    H210432   2.029   3.373   3.723
 3476TIP3   OH210433   2.183   0.579   2.449
 3476TIP3    H110434   2.194   0.577   2.354
 3476TIP3    H210435   2.204   0.669   2.474
 3477TIP3   OH210436   5.393   5.628   5.061
 3477TIP3    H110437   5.350   5.714   5.062
 3477TIP3    H210438   5.485   5.647   5.042
 3478TIP3   OH210439   1.100   5.322   3.096
 3478TIP3    H110440   1.106   5.302   3.189
 3478TIP3    H210441   1.191   5.336   3.068
 3479TIP3   OH210442   4.446   5.444   0.178
 3479TIP3    H110443   4.352   5.436   0.191
 3479TIP3    H210444   4.485   5.392   0.248
 3480TIP3   OH210445   3.992   2.935   4.151
 3480TIP3    H110446   3.943   3.017   4.153
 3480TIP3    H210447   3.953   2.885   4.079
 3481TIP3   OH210448   3.300   5.616   2.282
 3481TIP3    H110449   3.384   5.577   2.257
 3481TIP3    H210450   3.272   5.563   2.357
 3482TIP3   OH210451   2.106   4.130   2.027
 3482TIP3    H110452   2.107   4.068   2.100
 3482TIP3    H210453   2.198   4.139   2.002
 3483TIP3   OH210454   4.345   5.105   3.098
 3483TIP3    H110455   4.382   5.169   3.037
 3483TIP3    H210456   4.333   5.026   3.046
 3484TIP3   OH210457   3.470   1.925   3.618
 3484TIP3    H110458   3.522   1.896   3.693
 3484TIP3    H210459   3.526   1.988   3.573
 3485TIP3   OH210460   0.832   2.932   1.647
 3485TIP3    H110461   0.835   2.919   1.741
 3485TIP3    H210462   0.788   2.854   1.613
 3486TIP3   OH210463   4.015   0.254   4.819
 3486TIP3    H110464   3.992   0.317   4.887
 3486TIP3    H210465   4.111   0.252   4.821
 3487TIP3   OH210466   0.451   5.095   2.299
 3487TIP3    H110467   0.487   5.107   2.211
 3487TIP3    H210468   0.358   5.078   2.285
 3488TIP3   OH210469   1.865   4.627   0.232
 3488TIP3    H110470   1.817   4.654   0.153
 3488TIP3    H210471   1.952   4.603   0.200
 3489TIP3   OH210472   2.212   3.932   1.792
 3489TIP3    H110473   2.268   3.888   1.855
 3489TIP3    H210474   2.267   3.943   1.714
 3490TIP3   OH210475   6.184   0.047   0.277
 3490TIP3    H110476   6.199   0.138   0.300
 3490TIP3    H210477   6.124   0.014   0.344
 3491TIP3   OH210478   5.365   4.579   0.696
 3491TIP3    H110479   5.386   4.512   0.761
 3491TIP3    H210480   5.333   4.530   0.620
 3492TIP3   OH210481   2.042   1.238   3.799
 3492TIP3    H110482   1.985   1.163   3.814
 3492TIP3    H210483   2.098   1.241   3.876
 3493TIP3   OH210484   4.280   4.082   3.914
 3493TIP3    H110485   4.288   3.992   3.882
 3493TIP3    H210486   4.370   4.113   3.921
 3494TIP3   OH210487   1.709   2.864   0.738
 3494TIP3    H110488   1.733   2.940   0.686
 3494TIP3    H210489   1.622   2.839   0.707
 3495TIP3   OH210490   4.677   4.247   2.256
 3495TIP3    H110491   4.672   4.202   2.340
 3495TIP3    H210492   4.656   4.338   2.277
 3496TIP3   OH210493   2.067   5.271   3.306
 3496TIP3    H110494   2.029   5.276   3.219
 3496TIP3    H210495   2.113   5.187   3.308
 3497TIP3   OH210496   1.188   4.524   5.030
 3497TIP3    H110497   1.262   4.487   4.982
 3497TIP3    H210498   1.134   4.565   4.962
 3498TIP3   OH210499   1.552   1.253   4.004
 3498TIP3    H110500   1.507   1.305   4.070
 3498TIP3    H210501   1.496   1.177   3.990
 3499TIP3   OH210502   3.543   3.538   1.917
 3499TIP3    H110503   3.527   3.584   1.834
 3499TIP3    H210504   3.633   3.504   1.907
 3500TIP3   OH210505   3.277   3.387   1.955
 3500TIP3    H110506   3.245   3.402   1.866
 3500TIP3    H210507   3.371   3.406   1.950
 3501TIP3   OH210508   6.061   2.980   2.883
 3501TIP3    H110509   6.139   3.021   2.845
 3501TIP3    H210510   6.067   2.888   2.857
 3502TIP3   OH210511   4.900   5.922   1.996
 3502TIP3    H110512   4.904   5.964   2.082
 3502TIP3    H210513   4.806   5.906   1.982
 3503TIP3   OH210514   0.809   3.748   5.075
 3503TIP3    H110515   0.825   3.671   5.021
 3503TIP3    H210516   0.779   3.713   5.159
 3504TIP3   OH210517   3.556   4.213   2.125
 3504TIP3    H110518   3.584   4.130   2.165
 3504TIP3    H210519   3.461   4.210   2.127
 3505TIP3   OH210520   5.274   3.817   0.723
 3505TIP3    H110521   5.219   3.809   0.801
 3505TIP3    H210522   5.342   3.750   0.734
 3506TIP3   OH210523   3.840   0.593   3.761
 3506TIP3    H110524   3.748   0.618   3.751
 3506TIP3    H210525   3.885   0.675   3.784
 3507TIP3   OH210526   4.869   1.205   4.472
 3507TIP3    H110527   4.880   1.159   4.388
 3507TIP3    H210528   4.787   1.170   4.507
 3508TIP3   OH210529   1.184   4.539   3.997
 3508TIP3    H110530   1.198   4.607   4.064
 3508TIP3    H210531   1.225   4.461   4.035
 3509TIP3   OH210532   4.847   3.168   3.230
 3509TIP3    H110533   4.826   3.164   3.137
 3509TIP3    H210534   4.766   3.198   3.271
 3510TIP3   OH210535   0.472   1.634   2.142
 3510TIP3    H110536   0.503   1.662   2.228
 3510TIP3    H210537   0.550   1.603   2.097
 3511TIP3   OH210538   0.761   3.180   0.578
 3511TIP3    H110539   0.705   3.223   0.643
 3511TIP3    H210540   0.715   3.193   0.495
 3512TIP3   OH210541   5.942   5.919   4.192
 3512TIP3    H110542   5.871   5.854   4.192
 3512TIP3    H210543   5.993   5.899   4.270
 3513TIP3   OH210544   1.835  -0.022   3.195
 3513TIP3    H110545   1.896   0.038   3.237
 3513TIP3    H210546   1.833   0.006   3.103
 3514TIP3   OH210547   2.181   1.947   4.187
 3514TIP3    H110548   2.224   2.032   4.177
 3514TIP3    H210549   2.242   1.895   4.240
 3515TIP3   OH210550   1.855   2.285   1.859
 3515TIP3    H110551   1.794   2.339   1.808
 3515TIP3    H210552   1.941   2.315   1.833
 3516TIP3   OH210553   2.819   4.525   4.964
 3516TIP3    H110554   2.886   4.477   5.013
 3516TIP3    H210555   2.840   4.509   4.872
 3517TIP3   OH210556   3.541   3.992   2.298
 3517TIP3    H110557   3.497   4.043   2.365
 3517TIP3    H210558   3.471   3.943   2.255
 3518TIP3   OH210559   5.981   1.703   4.276
 3518TIP3    H110560   5.887   1.688   4.264
 3518TIP3    H210561   6.004   1.768   4.209
 3519TIP3   OH210562   5.702   4.672   3.637
 3519TIP3    H110563   5.757   4.613   3.690
 3519TIP3    H210564   5.664   4.615   3.570
 3520TIP3   OH210565   0.781   1.266   0.387
 3520TIP3    H110566   0.840   1.191   0.390
 3520TIP3    H210567   0.741   1.261   0.300
 3521TIP3   OH210568   5.525   2.005   0.160
 3521TIP3    H110569   5.497   2.025   0.071
 3521TIP3    H210570   5.452   1.955   0.197
 3522TIP3   OH210571   1.646   5.663   3.229
 3522TIP3    H110572   1.647   5.652   3.134
 3522TIP3    H210573   1.578   5.728   3.245
 3523TIP3   OH210574   4.776   5.974   3.479
 3523TIP3    H110575   4.842   5.977   3.410
 3523TIP3    H210576   4.758   5.881   3.492
 3524TIP3   OH210577   0.999   4.314   4.121
 3524TIP3    H110578   0.908   4.342   4.126
 3524TIP3    H210579   1.049   4.395   4.131
 3525TIP3   OH210580   3.747   3.265   1.661
 3525TIP3    H110581   3.697   3.204   1.716
 3525TIP3    H210582   3.831   3.274   1.705
 3526TIP3   OH210583   1.327   0.181   4.166
 3526TIP3    H110584   1.294   0.264   4.200
 3526TIP3    H210585   1.249   0.137   4.131
 3527TIP3   OH210586   2.452   0.607   0.927
 3527TIP3    H110587   2.480   0.694   0.900
 3527TIP3    H210588   2.357   0.606   0.910
 3528TIP3   OH210589   3.610   0.243   2.554
 3528TIP3    H110590   3.517   0.237   2.533
 3528TIP3    H210591   3.651   0.275   2.473
 3529TIP3   OH210592   3.268   1.318   1.057
 3529TIP3    H110593   3.179   1.307   1.090
 3529TIP3    H210594   3.309   1.233   1.071
 3530TIP3   OH210595   2.753   3.625   4.917
 3530TIP3    H110596   2.848   3.616   4.925
 3530TIP3    H210597   2.725   3.656   5.003
 3531TIP3   OH210598   0.758   0.031   4.338
 3531TIP3    H110599   0.696   0.101   4.316
 3531TIP3    H210600   0.773   0.042   4.432
 3532TIP3   OH210601   1.667   1.520   0.064
 3532TIP3    H110602   1.687   1.611   0.041
 3532TIP3    H210603   1.707   1.507   0.150
 3533TIP3   OH210604   2.098   1.705   1.785
 3533TIP3    H110605   2.179   1.663   1.756
 3533TIP3    H210606   2.030   1.669   1.728
 3534TIP3   OH210607   0.325   0.270   4.474
 3534TIP3    H110608   0.284   0.262   4.387
 3534TIP3    H210609   0.271   0.335   4.519
 3535TIP3   OH210610   4.843   2.504   1.222
 3535TIP3    H110611   4.837   2.411   1.201
 3535TIP3    H210612   4.919   2.510   1.280
 3536TIP3   OH210613   0.470   3.466   1.255
 3536TIP3    H110614   0.452   3.385   1.208
 3536TIP3    H210615   0.473   3.533   1.188
 3537TIP3   OH210616   1.885   4.907   3.874
 3537TIP3    H110617   1.796   4.920   3.907
 3537TIP3    H210618   1.929   4.859   3.944
 3538TIP3   OH210619   1.287   1.545   3.464
 3538TIP3    H110620   1.369   1.525   3.509
 3538TIP3    H210621   1.301   1.513   3.375
 3539TIP3   OH210622   1.165   1.053   1.757
 3539TIP3    H110623   1.184   0.975   1.809
 3539TIP3    H210624   1.247   1.102   1.756
 3540TIP3   OH210625   6.134   3.869   0.608
 3540TIP3    H110626   6.095   3.865   0.521
 3540TIP3    H210627   6.119   3.958   0.638
 3541TIP3   OH210628   2.644   4.645   5.107
 3541TIP3    H110629   2.710   4.587   5.070
 3541TIP3    H210630   2.691   4.727   5.125
 3542TIP3   OH210631   1.831   2.625   3.430
 3542TIP3    H110632   1.884   2.700   3.405
 3542TIP3    H210633   1.856   2.555   3.369
 3543TIP3   OH210634   5.367   5.661   2.913
 3543TIP3    H110635   5.379   5.726   2.982
 3543TIP3    H210636   5.442   5.602   2.923
 3544TIP3   OH210637   5.519   3.581   1.059
 3544TIP3    H110638   5.517   3.638   1.136
 3544TIP3    H210639   5.466   3.505   1.084
 3545TIP3   OH210640   3.554   0.264   1.722
 3545TIP3    H110641   3.549   0.344   1.774
 3545TIP3    H210642   3.647   0.255   1.701
 3546TIP3   OH210643   3.149   0.035   3.229
 3546TIP3    H110644   3.064  -0.009   3.233
 3546TIP3    H210645   3.154   0.069   3.140
 3547TIP3   OH210646   3.422   3.716   3.478
 3547TIP3    H110647   3.327   3.725   3.480
 3547TIP3    H210648   3.450   3.734   3.568
 3548TIP3   OH210649   2.271   2.853   0.319
 3548TIP3    H110650   2.287   2.909   0.394
 3548TIP3    H210651   2.298   2.766   0.348
 3549TIP3   OH210652   0.723   0.569   4.994
 3549TIP3    H110653   0.807   0.603   5.026
 3549TIP3    H210654   0.667   0.568   5.071
 3550TIP3   OH210655   3.250   0.900   0.903
 3550TIP3    H110656   3.192   0.943   0.840
 3550TIP3    H210657   3.246   0.955   0.981
 3551TIP3   OH210658   4.747   3.130   4.864
 3551TIP3    H110659   4.734   3.111   4.771
 3551TIP3    H210660   4.826   3.184   4.866
 3552TIP3   OH210661   0.501   5.571   1.056
 3552TIP3    H110662   0.585   5.527   1.067
 3552TIP3    H210663   0.446   5.507   1.011
 3553TIP3   OH210664   2.643   0.555   3.804
 3553TIP3    H110665   2.666   0.597   3.887
 3553TIP3    H210666   2.711   0.489   3.791
 3554TIP3   OH210667   3.537   3.015   4.135
 3554TIP3    H110668   3.547   3.016   4.039
 3554TIP3    H210669   3.447   3.044   4.149
 3555TIP3   OH210670   1.754   3.604   1.590
 3555TIP3    H110671   1.850   3.599   1.597
 3555TIP3    H210672   1.730   3.674   1.651
 3556TIP3   OH210673   0.746   1.986   2.175
 3556TIP3    H110674   0.774   2.028   2.093
 3556TIP3    H210675   0.828   1.960   2.217
 3557TIP3   OH210676   2.891   2.282   4.879
 3557TIP3    H110677   2.847   2.211   4.925
 3557TIP3    H210678   2.854   2.362   4.915
 3558TIP3   OH210679   3.116   2.388   5.141
 3558TIP3    H110680   3.038   2.423   5.183
 3558TIP3    H210681   3.135   2.450   5.070
 3559TIP3   OH210682   5.582   3.104   4.779
 3559TIP3    H110683   5.521   3.157   4.830
 3559TIP3    H210684   5.640   3.168   4.738
 3560TIP3   OH210685   6.178   3.425   1.448
 3560TIP3    H110686   6.123   3.350   1.471
 3560TIP3    H210687   6.153   3.446   1.358
 3561TIP3   OH210688   4.710   5.249   4.537
 3561TIP3    H110689   4.785   5.232   4.594
 3561TIP3    H210690   4.744   5.307   4.469
 3562TIP3   OH210691   1.713   5.327   0.274
 3562TIP3    H110692   1.747   5.238   0.268
 3562TIP3    H210693   1.621   5.316   0.298
 3563TIP3   OH210694   0.900   1.469   0.613
 3563TIP3    H110695   0.810   1.436   0.616
 3563TIP3    H210696   0.892   1.561   0.590
 3564TIP3   OH210697   2.561   0.423   1.310
 3564TIP3    H110698   2.587   0.340   1.350
 3564TIP3    H210699   2.490   0.399   1.251
 3565TIP3   OH210700   0.586   4.711   4.538
 3565TIP3    H110701   0.550   4.680   4.621
 3565TIP3    H210702   0.519   4.769   4.503
 3566TIP3   OH210703   3.896   2.763   1.482
 3566TIP3    H110704   3.947   2.818   1.422
 3566TIP3    H210705   3.825   2.820   1.512
 3567TIP3   OH210706   5.312   4.147   5.182
 3567TIP3    H110707   5.310   4.207   5.107
 3567TIP3    H210708   5.294   4.061   5.145
 3568TIP3   OH210709   3.872   1.733   0.086
 3568TIP3    H110710   3.862   1.639   0.075
 3568TIP3    H210711   3.930   1.760   0.015
 3569TIP3   OH210712   6.103   2.893   0.056
 3569TIP3    H110713   6.034   2.851   0.108
 3569TIP3    H210714   6.184   2.854   0.087
 3570TIP3   OH210715   4.302   4.815   1.325
 3570TIP3    H110716   4.384   4.823   1.277
 3570TIP3    H210717   4.328   4.817   1.417
 3571TIP3   OH210718   3.623   2.141   4.436
 3571TIP3    H110719   3.622   2.049   4.463
 3571TIP3    H210720   3.568   2.186   4.500
 3572TIP3   OH210721   0.782   0.336   1.927
 3572TIP3    H110722   0.695   0.345   1.889
 3572TIP3    H210723   0.836   0.301   1.856
 3573TIP3   OH210724   4.310   3.873   3.615
 3573TIP3    H110725   4.307   3.967   3.600
 3573TIP3    H210726   4.276   3.834   3.535
 3574TIP3   OH210727   0.950   2.110   3.823
 3574TIP3    H110728   0.893   2.033   3.814
 3574TIP3    H210729   0.995   2.097   3.906
 3575TIP3   OH210730   0.300   4.293   4.385
 3575TIP3    H110731   0.227   4.325   4.333
 3575TIP3    H210732   0.357   4.248   4.323
 3576TIP3   OH210733   2.846   1.077   3.797
 3576TIP3    H110734   2.761   1.090   3.755
 3576TIP3    H210735   2.832   1.104   3.888
 3577TIP3   OH210736   3.409   0.121   2.247
 3577TIP3    H110737   3.455   0.037   2.248
 3577TIP3    H210738   3.366   0.123   2.162
 3578TIP3   OH210739   6.087   2.430   3.239
 3578TIP3    H110740   6.156   2.390   3.186
 3578TIP3    H210741   6.122   2.431   3.328
 3579TIP3   OH210742   5.575   3.165   0.803
 3579TIP3    H110743   5.620   3.210   0.875
 3579TIP3    H210744   5.626   3.185   0.725
 3580TIP3   OH210745   2.769   4.886   5.169
 3580TIP3    H110746   2.785   4.954   5.234
 3580TIP3    H210747   2.855   4.848   5.152
 3581TIP3   OH210748   6.312   5.477   2.573
 3581TIP3    H110749   6.361   5.559   2.563
 3581TIP3    H210750   6.365   5.425   2.633
 3582TIP3   OH210751   2.754   2.056   4.998
 3582TIP3    H110752   2.665   2.028   4.980
 3582TIP3    H210753   2.774   2.021   5.085
 3583TIP3   OH210754   1.604   4.008   3.304
 3583TIP3    H110755   1.592   3.950   3.229
 3583TIP3    H210756   1.629   4.092   3.265
 3584TIP3   OH210757   2.479   1.931   4.233
 3584TIP3    H110758   2.446   1.939   4.144
 3584TIP3    H210759   2.517   2.016   4.253
 3585TIP3   OH210760   0.679   2.136   2.413
 3585TIP3    H110761   0.718   2.050   2.396
 3585TIP3    H210762   0.672   2.177   2.327
 3586TIP3   OH210763   2.030   5.759   1.329
 3586TIP3    H110764   2.002   5.676   1.368
 3586TIP3    H210765   2.124   5.763   1.346
 3587TIP3   OH210766   1.642   4.377   1.836
 3587TIP3    H110767   1.625   4.413   1.749
 3587TIP3    H210768   1.679   4.291   1.820
 3588TIP3   OH210769   2.851   1.609   1.955
 3588TIP3    H110770   2.869   1.548   2.026
 3588TIP3    H210771   2.828   1.691   1.999
 3589TIP3   OH210772   1.250   1.701   4.944
 3589TIP3    H110773   1.263   1.695   4.849
 3589TIP3    H210774   1.158   1.726   4.954
 3590TIP3   OH210775   1.472   5.383   3.951
 3590TIP3    H110776   1.445   5.444   3.883
 3590TIP3    H210777   1.562   5.411   3.973
 3591TIP3   OH210778   0.017   2.029   5.034
 3591TIP3    H110779   0.081   1.984   5.090
 3591TIP3    H210780  -0.061   2.037   5.089
 3592TIP3   OH210781   1.353   3.430   5.156
 3592TIP3    H110782   1.289   3.394   5.217
 3592TIP3    H210783   1.432   3.377   5.170
 3593TIP3   OH210784   6.219   1.836   4.897
 3593TIP3    H110785   6.289   1.879   4.947
 3593TIP3    H210786   6.144   1.894   4.906
 3594TIP3   OH210787   4.224   5.834   0.496
 3594TIP3    H110788   4.174   5.753   0.482
 3594TIP3    H210789   4.294   5.808   0.557
 3595TIP3   OH210790   1.471   4.927   0.221
 3595TIP3    H110791   1.376   4.917   0.219
 3595TIP3    H210792   1.505   4.841   0.194
 3596TIP3   OH210793   2.769   2.806   0.101
 3596TIP3    H110794   2.686   2.847   0.126
 3596TIP3    H210795   2.823   2.811   0.181
 3597TIP3   OH210796   1.108   2.686   1.289
 3597TIP3    H110797   1.189   2.672   1.336
 3597TIP3    H210798   1.109   2.621   1.218
 3598TIP3   OH210799   1.755   5.363   1.854
 3598TIP3    H110800   1.769   5.436   1.794
 3598TIP3    H210801   1.793   5.288   1.808
 3599TIP3   OH210802   4.357   0.399   3.726
 3599TIP3    H110803   4.387   0.309   3.718
 3599TIP3    H210804   4.433   0.452   3.701
 3600TIP3   OH210805   6.354   2.631   2.676
 3600TIP3    H110806   6.303   2.605   2.753
 3600TIP3    H210807   6.310   2.590   2.602
 3601TIP3   OH210808   2.291   4.870   0.891
 3601TIP3    H110809   2.305   4.921   0.971
 3601TIP3    H210810   2.372   4.820   0.880
 3602TIP3   OH210811   4.033   3.717   4.654
 3602TIP3    H110812   4.005   3.804   4.626
 3602TIP3    H210813   3.953   3.665   4.655
 3603TIP3   OH210814   0.389   0.642   0.126
 3603TIP3    H110815   0.436   0.706   0.179
 3603TIP3    H210816   0.457   0.582   0.096
 3604TIP3   OH210817   0.251   1.570   1.571
 3604TIP3    H110818   0.336   1.612   1.585
 3604TIP3    H210819   0.271   1.489   1.525
 3605TIP3   OH210820   2.601   5.226   4.617
 3605TIP3    H110821   2.609   5.131   4.624
 3605TIP3    H210822   2.508   5.244   4.628
 3606TIP3   OH210823   5.867   5.807   2.800
 3606TIP3    H110824   5.950   5.785   2.757
 3606TIP3    H210825   5.805   5.820   2.728
 3607TIP3   OH210826   3.957   4.259   4.177
 3607TIP3    H110827   3.891   4.265   4.246
 3607TIP3    H210828   3.998   4.173   4.191
 3608TIP3   OH210829   2.291   4.442   3.963
 3608TIP3    H110830   2.332   4.368   4.007
 3608TIP3    H210831   2.304   4.516   4.023
 3609TIP3   OH210832   4.468   4.658   2.836
 3609TIP3    H110833   4.528   4.732   2.851
 3609TIP3    H210834   4.392   4.697   2.793
 3610TIP3   OH210835   1.765   2.371   2.120
 3610TIP3    H110836   1.773   2.332   2.033
 3610TIP3    H210837   1.681   2.340   2.152
 3611TIP3   OH210838   5.856   4.960   1.251
 3611TIP3    H110839   5.838   5.054   1.242
 3611TIP3    H210840   5.857   4.928   1.161
 3612TIP3   OH210841   5.692   1.035   3.387
 3612TIP3    H110842   5.650   1.110   3.429
 3612TIP3    H210843   5.661   1.037   3.296
 3613TIP3   OH210844   5.672   0.425   2.019
 3613TIP3    H110845   5.758   0.383   2.021
 3613TIP3    H210846   5.675   0.481   1.941
 3614TIP3   OH210847   2.131   3.722   1.597
 3614TIP3    H110848   2.143   3.784   1.669
 3614TIP3    H210849   2.197   3.747   1.532
 3615TIP3   OH210850   5.205   1.017   2.994
 3615TIP3    H110851   5.111   1.039   2.992
 3615TIP3    H210852   5.248   1.097   2.963
 3616TIP3   OH210853   3.696   4.386   4.345
 3616TIP3    H110854   3.705   4.417   4.255
 3616TIP3    H210855   3.761   4.436   4.394
 3617TIP3   OH210856   3.469   5.071   4.517
 3617TIP3    H110857   3.510   5.110   4.594
 3617TIP3    H210858   3.541   5.034   4.466
 3618TIP3   OH210859   0.791   3.491   4.446
 3618TIP3    H110860   0.717   3.551   4.457
 3618TIP3    H210861   0.838   3.496   4.529
 3619TIP3   OH210862   0.988   0.621   2.844
 3619TIP3    H110863   0.971   0.711   2.871
 3619TIP3    H210864   0.917   0.570   2.884
 3620TIP3   OH210865   4.973   1.282   3.747
 3620TIP3    H110866   4.958   1.337   3.824
 3620TIP3    H210867   4.904   1.308   3.685
 3621TIP3   OH210868   4.920   1.202   1.441
 3621TIP3    H110869   4.880   1.142   1.503
 3621TIP3    H210870   4.901   1.289   1.476
 3622TIP3   OH210871   1.539   1.936   1.844
 3622TIP3    H110872   1.454   1.891   1.842
 3622TIP3    H210873   1.584   1.898   1.919
 3623TIP3   OH210874   4.512   0.164   2.071
 3623TIP3    H110875   4.562   0.241   2.099
 3623TIP3    H210876   4.578   0.099   2.049
 3624TIP3   OH210877   3.533   2.266   2.165
 3624TIP3    H110878   3.565   2.178   2.142
 3624TIP3    H210879   3.589   2.293   2.238
 3625TIP3   OH210880   1.931   0.077   1.701
 3625TIP3    H110881   1.993   0.150   1.696
 3625TIP3    H210882   1.856   0.113   1.749
 3626TIP3   OH210883   1.747   4.814   1.533
 3626TIP3    H110884   1.690   4.774   1.467
 3626TIP3    H210885   1.690   4.829   1.608
 3627TIP3   OH210886   4.022   1.429   1.374
 3627TIP3    H110887   4.054   1.419   1.284
 3627TIP3    H210888   4.098   1.409   1.429
 3628TIP3   OH210889   0.461   0.584   1.380
 3628TIP3    H110890   0.484   0.491   1.374
 3628TIP3    H210891   0.521   0.628   1.320
 3629TIP3   OH210892   3.362   5.130   0.870
 3629TIP3    H110893   3.278   5.151   0.827
 3629TIP3    H210894   3.424   5.119   0.797
 3630TIP3   OH210895   3.821   5.470   0.269
 3630TIP3    H110896   3.745   5.519   0.238
 3630TIP3    H210897   3.892   5.535   0.274
 3631TIP3   OH210898   1.487   2.887   0.580
 3631TIP3    H110899   1.526   2.845   0.503
 3631TIP3    H210900   1.405   2.840   0.594
 3632TIP3   OH210901   3.869   2.169   1.554
 3632TIP3    H110902   3.881   2.075   1.545
 3632TIP3    H210903   3.947   2.207   1.514
 3633TIP3   OH210904   5.673   4.801   1.399
 3633TIP3    H110905   5.613   4.811   1.325
 3633TIP3    H210906   5.740   4.868   1.384
 3634TIP3   OH210907   4.710   0.976   0.999
 3634TIP3    H110908   4.775   1.024   1.048
 3634TIP3    H210909   4.727   0.998   0.907
 3635TIP3   OH210910   5.110   2.186   4.366
 3635TIP3    H110911   5.196   2.147   4.381
 3635TIP3    H210912   5.060   2.165   4.445
 3636TIP3   OH210913   4.604   3.898   2.276
 3636TIP3    H110914   4.596   3.967   2.210
 3636TIP3    H210915   4.698   3.876   2.277
 3637TIP3   OH210916   1.651   5.629   0.444
 3637TIP3    H110917   1.735   5.583   0.443
 3637TIP3    H210918   1.667   5.707   0.498
 3638TIP3   OH210919   3.746   0.803   1.756
 3638TIP3    H110920   3.776   0.731   1.812
 3638TIP3    H210921   3.778   0.882   1.799
 3639TIP3   OH210922   2.726   1.988   1.275
 3639TIP3    H110923   2.774   2.048   1.332
 3639TIP3    H210924   2.677   2.046   1.216
 3640TIP3   OH210925   0.442   5.582   4.677
 3640TIP3    H110926   0.364   5.637   4.666
 3640TIP3    H210927   0.465   5.554   4.589
 3641TIP3   OH210928   6.098   0.587   0.659
 3641TIP3    H110929   6.027   0.615   0.717
 3641TIP3    H210930   6.168   0.558   0.719
 3642TIP3   OH210931   6.152   3.459   2.715
 3642TIP3    H110932   6.126   3.396   2.783
 3642TIP3    H210933   6.120   3.543   2.747
 3643TIP3   OH210934   6.289   0.073   4.363
 3643TIP3    H110935   6.202   0.090   4.327
 3643TIP3    H210936   6.273   0.019   4.440
 3644TIP3   OH210937   5.919   3.195   3.532
 3644TIP3    H110938   5.844   3.193   3.592
 3644TIP3    H210939   5.945   3.103   3.524
 3645TIP3   OH210940   4.287   5.762   4.280
 3645TIP3    H110941   4.258   5.680   4.320
 3645TIP3    H210942   4.224   5.828   4.310
 3646TIP3   OH210943   5.781   4.443   2.852
 3646TIP3    H110944   5.708   4.389   2.820
 3646TIP3    H210945   5.740   4.525   2.880
 3647TIP3   OH210946   1.128   3.373   0.704
 3647TIP3    H110947   1.121   3.376   0.800
 3647TIP3    H210948   1.102   3.284   0.681
 3648TIP3   OH210949   0.327   5.203   1.363
 3648TIP3    H110950   0.232   5.196   1.353
 3648TIP3    H210951   0.345   5.296   1.357
 3649TIP3   OH210952   1.091   1.865   3.491
 3649TIP3    H110953   1.150   1.858   3.567
 3649TIP3    H210954   1.127   1.937   3.439
 3650TIP3   OH210955   5.357   1.942   5.162
 3650TIP3    H110956   5.278   1.993   5.180
 3650TIP3    H210957   5.345   1.912   5.071
 3651TIP3   OH210958   4.450   0.605   4.426
 3651TIP3    H110959   4.413   0.678   4.375
 3651TIP3    H210960   4.468   0.538   4.360
 3652TIP3   OH210961   3.167   5.957   3.857
 3652TIP3    H110962   3.094   5.900   3.881
 3652TIP3    H210963   3.245   5.904   3.871
 3653TIP3   OH210964   1.913   4.440   4.814
 3653TIP3    H110965   1.943   4.493   4.888
 3653TIP3    H210966   1.818   4.446   4.816
 3654TIP3   OH210967   1.514   2.565   4.776
 3654TIP3    H110968   1.419   2.570   4.782
 3654TIP3    H210969   1.530   2.527   4.690
 3655TIP3   OH210970   2.306   3.772   1.375
 3655TIP3    H110971   2.349   3.718   1.308
 3655TIP3    H210972   2.261   3.841   1.325
 3656TIP3   OH210973   5.105   2.526   0.037
 3656TIP3    H110974   5.141   2.610   0.007
 3656TIP3    H210975   5.010   2.540   0.038
 3657TIP3   OH210976   0.107   1.987   4.768
 3657TIP3    H110977   0.069   1.981   4.855
 3657TIP3    H210978   0.172   1.916   4.766
 3658TIP3   OH210979   5.616   2.526   2.789
 3658TIP3    H110980   5.615   2.584   2.713
 3658TIP3    H210981   5.557   2.454   2.765
 3659TIP3   OH210982   2.147   1.241   4.039
 3659TIP3    H110983   2.093   1.216   4.114
 3659TIP3    H210984   2.237   1.222   4.068
 3660TIP3   OH210985   0.318   2.205   4.037
 3660TIP3    H110986   0.411   2.224   4.049
 3660TIP3    H210987   0.314   2.110   4.029
 3661TIP3   OH210988   0.273   4.926   0.801
 3661TIP3    H110989   0.356   4.945   0.846
 3661TIP3    H210990   0.226   4.869   0.861
 3662TIP3   OH210991   1.149   3.353   3.569
 3662TIP3    H110992   1.115   3.272   3.529
 3662TIP3    H210993   1.084   3.375   3.636
 3663TIP3   OH210994   0.403   0.589   2.346
 3663TIP3    H110995   0.344   0.575   2.420
 3663TIP3    H210996   0.375   0.672   2.307
 3664TIP3   OH210997   4.391   2.089   1.534
 3664TIP3    H110998   4.377   2.183   1.531
 3664TIP3    H210999   4.451   2.071   1.461
 3665TIP3   OH211000   4.746   4.336   0.966
 3665TIP3    H111001   4.832   4.326   1.008
 3665TIP3    H211002   4.694   4.265   1.003
 3666TIP3   OH211003   3.518   1.836   2.329
 3666TIP3    H111004   3.427   1.815   2.310
 3666TIP3    H211005   3.514   1.901   2.399
 3667TIP3   OH211006   0.547   0.647   3.107
 3667TIP3    H111007   0.608   0.600   3.164
 3667TIP3    H211008   0.462   0.608   3.126
 3668TIP3   OH211009   3.253  -0.023   4.754
 3668TIP3    H111010   3.311   0.033   4.703
 3668TIP3    H211011   3.170  -0.022   4.706
 3669TIP3   OH211012   4.849   4.160   2.055
 3669TIP3    H111013   4.932   4.204   2.074
 3669TIP3    H211014   4.796   4.173   2.133
 3670TIP3   OH211015   0.377   5.243   2.614
 3670TIP3    H111016   0.442   5.313   2.624
 3670TIP3    H211017   0.296   5.282   2.647
 3671TIP3   OH211018   5.819   2.811   0.148
 3671TIP3    H111019   5.767   2.782   0.223
 3671TIP3    H211020   5.754   2.825   0.079
 3672TIP3   OH211021   3.298   4.397   4.921
 3672TIP3    H111022   3.243   4.345   4.863
 3672TIP3    H211023   3.385   4.391   4.883
 3673TIP3   OH211024   5.897   5.020   3.516
 3673TIP3    H111025   5.804   5.000   3.507
 3673TIP3    H211026   5.939   4.970   3.446
 3674TIP3   OH211027   5.271   1.239   0.784
 3674TIP3    H111028   5.293   1.317   0.733
 3674TIP3    H211029   5.209   1.191   0.729
 3675TIP3   OH211030   5.085   3.654   2.990
 3675TIP3    H111031   5.122   3.622   2.908
 3675TIP3    H211032   5.010   3.597   3.007
 3676TIP3   OH211033   2.485   4.756   0.296
 3676TIP3    H111034   2.521   4.785   0.380
 3676TIP3    H211035   2.405   4.807   0.285
 3677TIP3   OH211036   3.134   0.314   0.327
 3677TIP3    H111037   3.117   0.384   0.390
 3677TIP3    H211038   3.228   0.297   0.335
 3678TIP3   OH211039   6.262   4.303   1.958
 3678TIP3    H111040   6.289   4.220   1.918
 3678TIP3    H211041   6.171   4.314   1.930
 3679TIP3   OH211042   2.303   5.759   1.314
 3679TIP3    H111043   2.336   5.709   1.389
 3679TIP3    H211044   2.372   5.752   1.248
 3680TIP3   OH211045   3.869   4.276   4.886
 3680TIP3    H111046   3.915   4.196   4.911
 3680TIP3    H211047   3.792   4.278   4.943
 3681TIP3   OH211048   0.241   2.971   0.700
 3681TIP3    H111049   0.214   2.942   0.787
 3681TIP3    H211050   0.213   3.062   0.695
 3682TIP3   OH211051   2.908   2.861   1.061
 3682TIP3    H111052   2.832   2.836   1.009
 3682TIP3    H211053   2.969   2.898   0.997
 3683TIP3   OH211054   0.464   1.240   1.995
 3683TIP3    H111055   0.506   1.300   2.057
 3683TIP3    H211056   0.371   1.244   2.017
 3684TIP3   OH211057   4.630   3.957   0.885
 3684TIP3    H111058   4.712   3.908   0.879
 3684TIP3    H211059   4.565   3.891   0.913
 3685TIP3   OH211060   3.820   0.241   3.227
 3685TIP3    H111061   3.836   0.327   3.267
 3685TIP3    H211062   3.807   0.182   3.302
 3686TIP3   OH211063   0.587   0.970   1.174
 3686TIP3    H111064   0.671   1.015   1.185
 3686TIP3    H211065   0.554   1.001   1.090
 3687TIP3   OH211066   3.473   5.913   1.670
 3687TIP3    H111067   3.471   5.963   1.589
 3687TIP3    H211068   3.381   5.903   1.694
 3688TIP3   OH211069   1.411   4.964   1.481
 3688TIP3    H111070   1.348   4.902   1.518
 3688TIP3    H211071   1.358   5.020   1.424
 3689TIP3   OH211072   2.348   4.149   4.506
 3689TIP3    H111073   2.424   4.125   4.453
 3689TIP3    H211074   2.340   4.244   4.494
 3690TIP3   OH211075   4.380   5.453   2.104
 3690TIP3    H111076   4.425   5.418   2.181
 3690TIP3    H211077   4.442   5.443   2.033
 3691TIP3   OH211078   3.221   5.505   1.630
 3691TIP3    H111079   3.183   5.586   1.664
 3691TIP3    H211080   3.305   5.531   1.594
 3692TIP3   OH211081   5.725   5.353   4.875
 3692TIP3    H111082   5.685   5.405   4.806
 3692TIP3    H211083   5.704   5.263   4.853
 3693TIP3   OH211084   0.365   3.520   1.525
 3693TIP3    H111085   0.384   3.516   1.431
 3693TIP3    H211086   0.269   3.518   1.530
 3694TIP3   OH211087   5.871   2.781   2.649
 3694TIP3    H111088   5.827   2.822   2.575
 3694TIP3    H211089   5.930   2.849   2.682
 3695TIP3   OH211090   3.535   5.759   0.518
 3695TIP3    H111091   3.605   5.824   0.527
 3695TIP3    H211092   3.456   5.811   0.504
 3696TIP3   OH211093   4.640   2.018   3.182
 3696TIP3    H111094   4.710   2.070   3.140
 3696TIP3    H211095   4.595   1.976   3.109
 3697TIP3   OH211096   5.776   2.356   3.772
 3697TIP3    H111097   5.854   2.410   3.787
 3697TIP3    H211098   5.811   2.271   3.744
 3698TIP3   OH211099   4.244   1.312   1.511
 3698TIP3    H111100   4.281   1.234   1.470
 3698TIP3    H211101   4.319   1.358   1.547
 3699TIP3   OH211102   2.756   5.141   0.099
 3699TIP3    H111103   2.732   5.224   0.059
 3699TIP3    H211104   2.691   5.126   0.167
 3700TIP3   OH211105   1.835   3.525   4.859
 3700TIP3    H111106   1.928   3.525   4.878
 3700TIP3    H211107   1.802   3.445   4.900
 3701TIP3   OH211108   0.584   0.479   4.641
 3701TIP3    H111109   0.643   0.490   4.567
 3701TIP3    H211110   0.605   0.393   4.676
 3702TIP3   OH211111   3.967   2.377   4.566
 3702TIP3    H111112   3.887   2.324   4.569
 3702TIP3    H211113   4.004   2.359   4.479
 3703TIP3   OH211114   5.005   2.360   2.500
 3703TIP3    H111115   5.043   2.358   2.588
 3703TIP3    H211116   5.005   2.453   2.476
 3704TIP3   OH211117   2.065   0.634   2.796
 3704TIP3    H111118   2.001   0.682   2.849
 3704TIP3    H211119   2.058   0.674   2.709
 3705TIP3   OH211120   0.545   1.540   3.214
 3705TIP3    H111121   0.641   1.541   3.223
 3705TIP3    H211122   0.517   1.625   3.247
 3706TIP3   OH211123   6.099   5.271   3.086
 3706TIP3    H111124   6.087   5.189   3.133
 3706TIP3    H211125   6.149   5.247   3.008
 3707TIP3   OH211126   2.964   0.619   3.488
 3707TIP3    H111127   2.900   0.652   3.551
 3707TIP3    H211128   2.979   0.528   3.513
 3708TIP3   OH211129   3.575   4.814   3.055
 3708TIP3    H111130   3.513   4.883   3.080
 3708TIP3    H211131   3.597   4.833   2.964
 3709TIP3   OH211132   6.297   4.981   2.625
 3709TIP3    H111133   6.226   4.998   2.687
 3709TIP3    H211134   6.260   4.919   2.562
 3710TIP3   OH211135   3.750   0.656   0.698
 3710TIP3    H111136   3.821   0.706   0.658
 3710TIP3    H211137   3.675   0.717   0.699
 3711TIP3   OH211138   5.087   1.943   3.014
 3711TIP3    H111139   5.101   1.902   3.100
 3711TIP3    H211140   5.104   1.873   2.951
 3712TIP3   OH211141   0.261   2.642   4.607
 3712TIP3    H111142   0.223   2.716   4.655
 3712TIP3    H211143   0.271   2.676   4.518
 3713TIP3   OH211144   5.408   5.891   1.998
 3713TIP3    H111145   5.360   5.949   2.057
 3713TIP3    H211146   5.500   5.914   2.012
 3714TIP3   OH211147   3.919   4.513   1.592
 3714TIP3    H111148   3.873   4.433   1.616
 3714TIP3    H211149   3.980   4.528   1.665
 3715TIP3   OH211150   4.749   4.954   4.619
 3715TIP3    H111151   4.753   5.029   4.679
 3715TIP3    H211152   4.798   4.982   4.542
 3716TIP3   OH211153   3.535   0.980   1.191
 3716TIP3    H111154   3.587   0.931   1.127
 3716TIP3    H211155   3.557   0.941   1.275
 3717TIP3   OH211156   5.704   3.960   3.541
 3717TIP3    H111157   5.713   4.035   3.483
 3717TIP3    H211158   5.616   3.927   3.524
 3718TIP3   OH211159   3.887   1.934   2.232
 3718TIP3    H111160   3.974   1.967   2.255
 3718TIP3    H211161   3.897   1.898   2.144
 3719TIP3   OH211162   1.701   2.464   1.718
 3719TIP3    H111163   1.611   2.432   1.721
 3719TIP3    H211164   1.730   2.448   1.628
 3720TIP3   OH211165   5.193   0.695   2.392
 3720TIP3    H111166   5.256   0.694   2.320
 3720TIP3    H211167   5.234   0.750   2.459
 3721TIP3   OH211168   1.707   4.852   2.086
 3721TIP3    H111169   1.713   4.766   2.046
 3721TIP3    H211170   1.667   4.836   2.171
 3722TIP3   OH211171   5.041   3.945   2.648
 3722TIP3    H111172   4.953   3.927   2.615
 3722TIP3    H211173   5.045   4.040   2.657
 3723TIP3   OH211174   0.869   1.940   0.842
 3723TIP3    H111175   0.778   1.943   0.815
 3723TIP3    H211176   0.904   2.026   0.820
 3724TIP3   OH211177   3.144   5.714   1.429
 3724TIP3    H111178   3.143   5.805   1.400
 3724TIP3    H211179   3.121   5.718   1.522
 3725TIP3   OH211180   4.557   4.350   5.027
 3725TIP3    H111181   4.536   4.390   4.942
 3725TIP3    H211182   4.647   4.320   5.017
 3726TIP3   OH211183   1.669   4.125   3.538
 3726TIP3    H111184   1.662   4.062   3.467
 3726TIP3    H211185   1.755   4.166   3.527
 3727TIP3   OH211186   1.880   2.014   4.736
 3727TIP3    H111187   1.876   1.932   4.688
 3727TIP3    H211188   1.789   2.038   4.751
 3728TIP3   OH211189   0.883   4.607   3.249
 3728TIP3    H111190   0.947   4.621   3.318
 3728TIP3    H211191   0.866   4.513   3.249
 3729TIP3   OH211192   0.687   4.169   5.142
 3729TIP3    H111193   0.685   4.093   5.200
 3729TIP3    H211194   0.615   4.154   5.080
 3730TIP3   OH211195   6.235   1.007   3.425
 3730TIP3    H111196   6.320   1.026   3.465
 3730TIP3    H211197   6.256   0.981   3.335
 3731TIP3   OH211198   5.880   5.443   0.256
 3731TIP3    H111199   5.958   5.416   0.207
 3731TIP3    H211200   5.821   5.479   0.189
 3732TIP3   OH211201   6.154   4.337   3.600
 3732TIP3    H111202   6.208   4.311   3.524
 3732TIP3    H211203   6.215   4.336   3.674
 3733TIP3   OH211204   2.226   3.553   1.037
 3733TIP3    H111205   2.141   3.512   1.051
 3733TIP3    H211206   2.206   3.645   1.020
 3734TIP3   OH211207   3.754   0.579   2.245
 3734TIP3    H111208   3.734   0.487   2.263
 3734TIP3    H211209   3.718   0.626   2.320
 3735TIP3   OH211210   4.601   1.332   0.663
 3735TIP3    H111211   4.646   1.268   0.718
 3735TIP3    H211212   4.656   1.411   0.669
 3736TIP3   OH211213   0.551   1.734   4.843
 3736TIP3    H111214   0.616   1.801   4.864
 3736TIP3    H211215   0.602   1.656   4.823
 3737TIP3   OH211216   0.720   4.402   0.053
 3737TIP3    H111217   0.743   4.494   0.039
 3737TIP3    H211218   0.805   4.357   0.060
 3738TIP3   OH211219   4.826   4.629   3.704
 3738TIP3    H111220   4.811   4.686   3.629
 3738TIP3    H211221   4.900   4.574   3.679
 3739TIP3   OH211222   6.303   5.901   1.535
 3739TIP3    H111223   6.273   5.960   1.604
 3739TIP3    H211224   6.237   5.833   1.530
 3740TIP3   OH211225   0.205   5.745   4.610
 3740TIP3    H111226   0.241   5.788   4.532
 3740TIP3    H211227   0.144   5.680   4.575
 3741TIP3   OH211228   3.961   4.151   2.850
 3741TIP3    H111229   4.012   4.222   2.888
 3741TIP3    H211230   3.986   4.074   2.900
 3742TIP3   OH211231   0.093   2.020   3.391
 3742TIP3    H111232   0.042   1.943   3.365
 3742TIP3    H211233   0.156   2.032   3.320
 3743TIP3   OH211234   0.660   5.362   5.035
 3743TIP3    H111235   0.751   5.390   5.029
 3743TIP3    H211236   0.640   5.325   4.949
 3744TIP3   OH211237   1.019   3.413   4.267
 3744TIP3    H111238   1.099   3.360   4.258
 3744TIP3    H211239   0.955   3.353   4.307
 3745TIP3   OH211240   2.064   3.166   2.653
 3745TIP3    H111241   2.052   3.173   2.748
 3745TIP3    H211242   1.977   3.146   2.619
 3746TIP3   OH211243   2.487   5.578   1.483
 3746TIP3    H111244   2.550   5.577   1.411
 3746TIP3    H211245   2.438   5.496   1.473
 3747TIP3   OH211246   2.390   1.177   4.542
 3747TIP3    H111247   2.467   1.131   4.575
 3747TIP3    H211248   2.337   1.195   4.620
 3748TIP3   OH211249   1.643   3.727   2.606
 3748TIP3    H111250   1.659   3.770   2.522
 3748TIP3    H211251   1.620   3.637   2.583
 3749TIP3   OH211252   4.234   3.555   0.902
 3749TIP3    H111253   4.172   3.611   0.855
 3749TIP3    H211254   4.284   3.512   0.833
 3750TIP3   OH211255   6.052   5.968   2.914
 3750TIP3    H111256   6.139   5.932   2.896
 3750TIP3    H211257   5.992   5.906   2.872
 3751TIP3   OH211258   4.694   2.250   0.747
 3751TIP3    H111259   4.621   2.254   0.809
 3751TIP3    H211260   4.761   2.306   0.786
 3752TIP3   OH211261   0.000   1.053   0.605
 3752TIP3    H111262  -0.067   1.001   0.560
 3752TIP3    H211263   0.027   1.118   0.540
 3753TIP3   OH211264   3.469   4.499   1.989
 3753TIP3    H111265   3.513   4.583   1.973
 3753TIP3    H211266   3.517   4.460   2.062
 3754TIP3   OH211267   3.617   5.117   4.752
 3754TIP3    H111268   3.653   5.193   4.707
 3754TIP3    H211269   3.689   5.054   4.754
 3755TIP3   OH211270   5.651   5.589   2.725
 3755TIP3    H111271   5.738   5.583   2.765
 3755TIP3    H211272   5.668   5.590   2.631
 3756TIP3   OH211273   5.089   2.668   1.074
 3756TIP3    H111274   5.010   2.677   1.019
 3756TIP3    H211275   5.056   2.675   1.164
 3757TIP3   OH211276   1.971   1.657   5.085
 3757TIP3    H111277   1.953   1.572   5.045
 3757TIP3    H211278   1.889   1.681   5.129
 3758TIP3   OH211279   3.235   5.466   3.395
 3758TIP3    H111280   3.193   5.399   3.448
 3758TIP3    H211281   3.259   5.535   3.458
 3759TIP3   OH211282   4.370   2.473   3.523
 3759TIP3    H111283   4.282   2.503   3.543
 3759TIP3    H211284   4.388   2.405   3.587
 3760TIP3   OH211285   4.840   1.968   1.980
 3760TIP3    H111286   4.764   2.007   1.936
 3760TIP3    H211287   4.841   2.008   2.067
 3761TIP3   OH211288   3.376   1.696   1.430
 3761TIP3    H111289   3.307   1.673   1.368
 3761TIP3    H211290   3.371   1.791   1.438
 3762TIP3   OH211291   1.745   1.537   3.947
 3762TIP3    H111292   1.789   1.486   4.015
 3762TIP3    H211293   1.664   1.567   3.988
 3763TIP3   OH211294   6.109   1.534   1.312
 3763TIP3    H111295   6.073   1.610   1.267
 3763TIP3    H211296   6.033   1.495   1.357
 3764TIP3   OH211297   0.443   3.098   3.374
 3764TIP3    H111298   0.490   3.058   3.447
 3764TIP3    H211299   0.441   3.030   3.307
 3765TIP3   OH211300   5.176   3.469   3.581
 3765TIP3    H111301   5.176   3.376   3.557
 3765TIP3    H211302   5.244   3.508   3.525
 3766TIP3   OH211303   2.188   4.654   2.820
 3766TIP3    H111304   2.265   4.711   2.825
 3766TIP3    H211305   2.192   4.615   2.733
 3767TIP3   OH211306   3.800   4.142   4.359
 3767TIP3    H111307   3.734   4.211   4.352
 3767TIP3    H211308   3.752   4.061   4.339
 3768TIP3   OH211309   1.852   4.869   3.393
 3768TIP3    H111310   1.906   4.829   3.462
 3768TIP3    H211311   1.774   4.815   3.390
 3769TIP3   OH211312   5.071   3.824   1.926
 3769TIP3    H111313   5.057   3.804   1.833
 3769TIP3    H211314   5.013   3.764   1.972
 3770TIP3   OH211315   6.281   4.814   1.868
 3770TIP3    H111316   6.337   4.848   1.799
 3770TIP3    H211317   6.310   4.859   1.947
 3771TIP3   OH211318   2.098   0.078   0.471
 3771TIP3    H111319   2.135   0.027   0.543
 3771TIP3    H211320   2.169   0.139   0.446
 3772TIP3   OH211321   2.351   1.332   0.132
 3772TIP3    H111322   2.407   1.360   0.059
 3772TIP3    H211323   2.286   1.274   0.092
 3773TIP3   OH211324   4.776   2.776   2.578
 3773TIP3    H111325   4.779   2.741   2.667
 3773TIP3    H211326   4.815   2.864   2.586
 3774TIP3   OH211327   5.394   1.026   3.722
 3774TIP3    H111328   5.320   1.073   3.685
 3774TIP3    H211329   5.449   1.094   3.761
 3775TIP3   OH211330   3.339   3.060   3.277
 3775TIP3    H111331   3.249   3.027   3.282
 3775TIP3    H211332   3.333   3.152   3.303
 3776TIP3   OH211333   2.032   2.648   0.477
 3776TIP3    H111334   2.109   2.591   0.476
 3776TIP3    H211335   1.963   2.596   0.438
 3777TIP3   OH211336   4.728   2.108   1.654
 3777TIP3    H111337   4.777   2.157   1.719
 3777TIP3    H211338   4.755   2.146   1.570
 3778TIP3   OH211339   0.305   1.598   3.534
 3778TIP3    H111340   0.388   1.551   3.526
 3778TIP3    H211341   0.250   1.561   3.465
 3779TIP3   OH211342   0.839   0.698   3.703
 3779TIP3    H111343   0.901   0.674   3.772
 3779TIP3    H211344   0.757   0.655   3.729
 3780TIP3   OH211345   4.408   4.321   1.587
 3780TIP3    H111346   4.378   4.395   1.639
 3780TIP3    H211347   4.330   4.293   1.539
 3781TIP3   OH211348   0.680   4.755   4.986
 3781TIP3    H111349   0.714   4.700   5.056
 3781TIP3    H211350   0.704   4.844   5.011
 3782TIP3   OH211351   3.663   1.242   1.196
 3782TIP3    H111352   3.753   1.209   1.193
 3782TIP3    H211353   3.609   1.163   1.200
 3783TIP3   OH211354   5.055   1.337   0.218
 3783TIP3    H111355   5.045   1.269   0.285
 3783TIP3    H211356   5.054   1.288   0.136
 3784TIP3   OH211357   1.862   0.404   3.813
 3784TIP3    H111358   1.819   0.459   3.747
 3784TIP3    H211359   1.947   0.445   3.827
 3785TIP3   OH211360   1.531   4.644   0.200
 3785TIP3    H111361   1.446   4.651   0.156
 3785TIP3    H211362   1.577   4.575   0.152
 3786TIP3   OH211363   5.130   0.554   3.444
 3786TIP3    H111364   5.089   0.640   3.441
 3786TIP3    H211365   5.080   0.501   3.381
 3787TIP3   OH211366   5.334   0.789   1.816
 3787TIP3    H111367   5.311   0.779   1.724
 3787TIP3    H211368   5.280   0.861   1.847
 3788TIP3   OH211369   0.280   1.898   0.504
 3788TIP3    H111370   0.334   1.976   0.492
 3788TIP3    H211371   0.225   1.894   0.425
 3789TIP3   OH211372   0.513   1.228   1.715
 3789TIP3    H111373   0.552   1.141   1.722
 3789TIP3    H211374   0.502   1.256   1.806
 3790TIP3   OH211375   0.476   4.375   4.166
 3790TIP3    H111376   0.472   4.324   4.085
 3790TIP3    H211377   0.566   4.407   4.170
 3791TIP3   OH211378   6.228   5.704   3.081
 3791TIP3    H111379   6.157   5.666   3.133
 3791TIP3    H211380   6.269   5.769   3.138
 3792TIP3   OH211381   0.869   3.712   1.759
 3792TIP3    H111382   0.846   3.689   1.669
 3792TIP3    H211383   0.832   3.641   1.812
 3793TIP3   OH211384   5.942   3.792   3.526
 3793TIP3    H111385   5.849   3.808   3.509
 3793TIP3    H211386   5.961   3.842   3.606
 3794TIP3   OH211387   0.812   0.126   0.137
 3794TIP3    H111388   0.902   0.097   0.124
 3794TIP3    H211389   0.785   0.159   0.051
 3795TIP3   OH211390   0.148   1.026   3.504
 3795TIP3    H111391   0.202   0.974   3.563
 3795TIP3    H211392   0.173   0.998   3.416
 3796TIP3   OH211393   6.346   0.061   0.054
 3796TIP3    H111394   6.264   0.057   0.103
 3796TIP3    H211395   6.410   0.019   0.112
 3797TIP3   OH211396   0.220   4.966   1.464
 3797TIP3    H111397   0.212   4.968   1.560
 3797TIP3    H211398   0.306   5.003   1.446
 3798TIP3   OH211399   5.866   0.454   3.580
 3798TIP3    H111400   5.875   0.464   3.674
 3798TIP3    H211401   5.781   0.493   3.559
 3799TIP3   OH211402   4.528   2.014   4.489
 3799TIP3    H111403   4.528   1.961   4.409
 3799TIP3    H211404   4.489   1.956   4.555
 3800TIP3   OH211405   1.305   2.904   4.046
 3800TIP3    H111406   1.320   2.883   3.954
 3800TIP3    H211407   1.374   2.967   4.068
 3801TIP3   OH211408   1.978   2.235   2.492
 3801TIP3    H111409   2.048   2.169   2.492
 3801TIP3    H211410   2.024   2.318   2.507
 3802TIP3   OH211411   2.405   0.805   4.968
 3802TIP3    H111412   2.406   0.709   4.972
 3802TIP3    H211413   2.436   0.825   4.880
 3803TIP3   OH211414   4.220   0.423   1.549
 3803TIP3    H111415   4.137   0.462   1.578
 3803TIP3    H211416   4.212   0.331   1.572
 3804TIP3   OH211417   1.028   3.300   5.078
 3804TIP3    H111418   1.074   3.216   5.074
 3804TIP3    H211419   1.093   3.364   5.048
 3805TIP3   OH211420   4.648   1.401   3.880
 3805TIP3    H111421   4.603   1.485   3.877
 3805TIP3    H211422   4.700   1.399   3.799
 3806TIP3   OH211423   1.308   0.928   1.209
 3806TIP3    H111424   1.329   0.902   1.299
 3806TIP3    H211425   1.285   0.846   1.165
 3807TIP3   OH211426   0.264   4.485   3.892
 3807TIP3    H111427   0.168   4.488   3.884
 3807TIP3    H211428   0.286   4.559   3.948
 3808TIP3   OH211429   2.695   4.978   2.354
 3808TIP3    H111430   2.639   5.056   2.352
 3808TIP3    H211431   2.737   4.981   2.440
 3809TIP3   OH211432   2.023   4.859   1.546
 3809TIP3    H111433   2.027   4.954   1.557
 3809TIP3    H211434   1.936   4.835   1.577
 3810TIP3   OH211435   4.248   0.688   2.536
 3810TIP3    H111436   4.306   0.764   2.542
 3810TIP3    H211437   4.161   0.726   2.524
 3811TIP3   OH211438   4.898   3.486   1.912
 3811TIP3    H111439   4.809   3.451   1.915
 3811TIP3    H211440   4.955   3.409   1.918
 3812TIP3   OH211441   6.186   2.575   2.467
 3812TIP3    H111442   6.098   2.560   2.501
 3812TIP3    H211443   6.190   2.526   2.386
 3813TIP3   OH211444   0.685   1.265   1.465
 3813TIP3    H111445   0.725   1.332   1.522
 3813TIP3    H211446   0.622   1.221   1.522
 3814TIP3   OH211447   3.624   4.225   1.838
 3814TIP3    H111448   3.536   4.230   1.799
 3814TIP3    H211449   3.609   4.238   1.932
 3815TIP3   OH211450   1.276   2.603   1.010
 3815TIP3    H111451   1.204   2.547   1.037
 3815TIP3    H211452   1.235   2.672   0.957
 3816TIP3   OH211453   0.689   2.494   4.765
 3816TIP3    H111454   0.602   2.493   4.804
 3816TIP3    H211455   0.672   2.504   4.671
 3817TIP3   OH211456   2.195   2.930   1.760
 3817TIP3    H111457   2.101   2.947   1.768
 3817TIP3    H211458   2.213   2.938   1.666
 3818TIP3   OH211459   4.619   5.785   0.857
 3818TIP3    H111460   4.555   5.795   0.928
 3818TIP3    H211461   4.667   5.706   0.879
 3819TIP3   OH211462   3.558   5.116   2.133
 3819TIP3    H111463   3.536   5.117   2.040
 3819TIP3    H211464   3.575   5.208   2.154
 3820TIP3   OH211465   5.940   2.195   4.393
 3820TIP3    H111466   6.003   2.255   4.352
 3820TIP3    H211467   5.995   2.135   4.444
 3821TIP3   OH211468   4.001   4.924   4.209
 3821TIP3    H111469   4.064   4.992   4.231
 3821TIP3    H211470   4.034   4.845   4.252
 3822TIP3   OH211471   3.923   5.221   1.261
 3822TIP3    H111472   3.942   5.198   1.352
 3822TIP3    H211473   3.954   5.312   1.252
 3823TIP3   OH211474   1.034   2.550   0.196
 3823TIP3    H111475   1.055   2.642   0.207
 3823TIP3    H211476   1.015   2.541   0.103
 3824TIP3   OH211477   2.656   3.597   2.621
 3824TIP3    H111478   2.569   3.627   2.649
 3824TIP3    H211479   2.716   3.664   2.654
 3825TIP3   OH211480   5.601   4.509   1.417
 3825TIP3    H111481   5.625   4.602   1.410
 3825TIP3    H211482   5.659   4.465   1.355
 3826TIP3   OH211483   0.615   5.682   1.756
 3826TIP3    H111484   0.524   5.654   1.769
 3826TIP3    H211485   0.646   5.627   1.684
 3827TIP3   OH211486   3.134   2.908   0.098
 3827TIP3    H111487   3.113   3.000   0.082
 3827TIP3    H211488   3.127   2.867   0.012
 3828TIP3   OH211489   5.881   3.380   0.776
 3828TIP3    H111490   5.901   3.467   0.742
 3828TIP3    H211491   5.868   3.392   0.870
 3829TIP3   OH211492   3.146   5.157   2.895
 3829TIP3    H111493   3.056   5.131   2.917
 3829TIP3    H211494   3.191   5.159   2.979
 3830TIP3   OH211495   0.635   4.681   1.532
 3830TIP3    H111496   0.696   4.608   1.520
 3830TIP3    H211497   0.691   4.757   1.546
 3831TIP3   OH211498   5.226   2.660   2.366
 3831TIP3    H111499   5.243   2.751   2.391
 3831TIP3    H211500   5.130   2.655   2.361
 3832TIP3   OH211501   3.529   0.840   0.712
 3832TIP3    H111502   3.546   0.926   0.751
 3832TIP3    H211503   3.441   0.817   0.742
 3833TIP3   OH211504   1.106   5.989   3.865
 3833TIP3    H111505   1.116   5.937   3.945
 3833TIP3    H211506   1.180   6.050   3.867
 3834TIP3   OH211507   1.359   5.662   2.800
 3834TIP3    H111508   1.296   5.718   2.754
 3834TIP3    H211509   1.439   5.667   2.747
 3835TIP3   OH211510   5.840   4.696   3.182
 3835TIP3    H111511   5.805   4.615   3.145
 3835TIP3    H211512   5.776   4.763   3.160
 3836TIP3   OH211513   0.855   5.644   4.868
 3836TIP3    H111514   0.873   5.669   4.958
 3836TIP3    H211515   0.910   5.703   4.815
 3837TIP3   OH211516   3.708   2.296   0.826
 3837TIP3    H111517   3.800   2.274   0.809
 3837TIP3    H211518   3.680   2.233   0.892
 3838TIP3   OH211519   0.207   2.959   2.479
 3838TIP3    H111520   0.221   2.986   2.388
 3838TIP3    H211521   0.198   2.864   2.475
 3839TIP3   OH211522   3.620   1.154   4.806
 3839TIP3    H111523   3.655   1.231   4.851
 3839TIP3    H211524   3.559   1.116   4.869
 3840TIP3   OH211525   2.345   1.015   1.814
 3840TIP3    H111526   2.439   1.026   1.801
 3840TIP3    H211527   2.306   1.089   1.766
 3841TIP3   OH211528   1.684   4.708   3.764
 3841TIP3    H111529   1.747   4.774   3.795
 3841TIP3    H211530   1.618   4.759   3.716
 3842TIP3   OH211531   3.951   4.412   2.459
 3842TIP3    H111532   3.881   4.456   2.508
 3842TIP3    H211533   3.918   4.323   2.447
 3843TIP3   OH211534   1.795   4.048   1.923
 3843TIP3    H111535   1.790   4.133   1.966
 3843TIP3    H211536   1.717   4.045   1.866
 3844TIP3   OH211537   1.587   1.359   2.809
 3844TIP3    H111538   1.562   1.429   2.870
 3844TIP3    H211539   1.622   1.405   2.733
 3845TIP3   OH211540   6.356   3.564   2.571
 3845TIP3    H111541   6.299   3.512   2.628
 3845TIP3    H211542   6.432   3.508   2.556
 3846TIP3   OH211543   4.808   4.479   1.737
 3846TIP3    H111544   4.840   4.465   1.648
 3846TIP3    H211545   4.876   4.440   1.793
 3847TIP3   OH211546   4.058   4.344   5.061
 3847TIP3    H111547   4.092   4.422   5.107
 3847TIP3    H211548   4.019   4.379   4.981
 3848TIP3   OH211549   5.334   5.636   4.130
 3848TIP3    H111550   5.261   5.685   4.167
 3848TIP3    H211551   5.397   5.703   4.103
 3849TIP3   OH211552   2.390   3.643   2.692
 3849TIP3    H111553   2.343   3.565   2.664
 3849TIP3    H211554   2.329   3.715   2.678
 3850TIP3   OH211555   4.196   1.830   4.274
 3850TIP3    H111556   4.235   1.787   4.350
 3850TIP3    H211557   4.270   1.849   4.216
 3851TIP3   OH211558   0.817   5.881   1.195
 3851TIP3    H111559   0.886   5.838   1.244
 3851TIP3    H211560   0.761   5.920   1.263
 3852TIP3   OH211561   4.921   1.508   2.292
 3852TIP3    H111562   4.958   1.557   2.219
 3852TIP3    H211563   4.841   1.469   2.256
 3853TIP3   OH211564   6.082   2.025   1.243
 3853TIP3    H111565   6.163   2.060   1.281
 3853TIP3    H211566   6.020   2.097   1.247
 3854TIP3   OH211567   3.239   0.215   2.745
 3854TIP3    H111568   3.255   0.296   2.793
 3854TIP3    H211569   3.299   0.218   2.671
 3855TIP3   OH211570   4.155   3.609   1.440
 3855TIP3    H111571   4.170   3.515   1.457
 3855TIP3    H211572   4.201   3.625   1.358
 3856TIP3   OH211573   2.093   4.744   4.951
 3856TIP3    H111574   2.096   4.832   4.991
 3856TIP3    H211575   2.090   4.684   5.025
 3857TIP3   OH211576   0.787   4.414   1.553
 3857TIP3    H111577   0.821   4.381   1.470
 3857TIP3    H211578   0.862   4.409   1.613
 3858TIP3   OH211579   0.022   3.050   4.898
 3858TIP3    H111580  -0.024   3.105   4.835
 3858TIP3    H211581  -0.041   2.983   4.923
 3859TIP3   OH211582   3.529   0.965   3.326
 3859TIP3    H111583   3.552   1.014   3.247
 3859TIP3    H211584   3.603   0.905   3.340
 3860TIP3   OH211585   6.258   2.282   4.906
 3860TIP3    H111586   6.350   2.266   4.885
 3860TIP3    H211587   6.224   2.197   4.934
 3861TIP3   OH211588   0.134   2.862   0.948
 3861TIP3    H111589   0.129   2.781   0.998
 3861TIP3    H211590   0.090   2.927   1.002
 3862TIP3   OH211591   4.517   4.868   3.702
 3862TIP3    H111592   4.590   4.929   3.695
 3862TIP3    H211593   4.440   4.923   3.712
 3863TIP3   OH211594   3.316   0.678   1.463
 3863TIP3    H111595   3.409   0.658   1.476
 3863TIP3    H211596   3.277   0.594   1.439
 3864TIP3   OH211597   1.471   2.665   3.854
 3864TIP3    H111598   1.563   2.641   3.867
 3864TIP3    H211599   1.423   2.585   3.872
 3865TIP3   OH211600   2.050   2.621   1.675
 3865TIP3    H111601   2.051   2.526   1.678
 3865TIP3    H211602   2.122   2.648   1.732
 3866TIP3   OH211603   4.186   4.145   0.672
 3866TIP3    H111604   4.145   4.176   0.753
 3866TIP3    H211605   4.171   4.215   0.609
 3867TIP3   OH211606   0.760   2.030   0.560
 3867TIP3    H111607   0.850   1.998   0.559
 3867TIP3    H211608   0.721   1.996   0.480
 3868TIP3   OH211609   2.617   4.167   3.449
 3868TIP3    H111610   2.546   4.155   3.387
 3868TIP3    H211611   2.657   4.250   3.424
 3869TIP3   OH211612   1.379   0.129   3.206
 3869TIP3    H111613   1.301   0.085   3.240
 3869TIP3    H211614   1.452   0.086   3.252
 3870TIP3   OH211615   5.876   0.409   2.886
 3870TIP3    H111616   5.944   0.418   2.820
 3870TIP3    H211617   5.859   0.499   2.916
 3871TIP3   OH211618   4.817   0.423   5.051
 3871TIP3    H111619   4.906   0.445   5.081
 3871TIP3    H211620   4.806   0.474   4.971
 3872TIP3   OH211621   1.716   4.008   1.135
 3872TIP3    H111622   1.734   4.079   1.074
 3872TIP3    H211623   1.719   3.929   1.081
 3873TIP3   OH211624   1.650   0.501   4.081
 3873TIP3    H111625   1.701   0.420   4.087
 3873TIP3    H211626   1.598   0.503   4.161
 3874TIP3   OH211627   3.821   5.934   3.223
 3874TIP3    H111628   3.774   5.919   3.305
 3874TIP3    H211629   3.816   6.029   3.209
 3875TIP3   OH211630   5.317   2.528   2.680
 3875TIP3    H111631   5.342   2.559   2.593
 3875TIP3    H211632   5.307   2.607   2.733
 3876TIP3   OH211633   6.210   4.111   0.381
 3876TIP3    H111634   6.170   4.191   0.417
 3876TIP3    H211635   6.204   4.047   0.452
 3877TIP3   OH211636   5.596   0.025   1.942
 3877TIP3    H111637   5.502   0.035   1.931
 3877TIP3    H211638   5.632   0.030   1.854
 3878TIP3   OH211639   3.488   4.776   2.038
 3878TIP3    H111640   3.423   4.816   2.096
 3878TIP3    H211641   3.565   4.763   2.094
 3879TIP3   OH211642   4.432   1.986   5.107
 3879TIP3    H111643   4.498   1.996   5.175
 3879TIP3    H211644   4.439   1.894   5.080
 3880TIP3   OH211645   0.039   4.143   0.789
 3880TIP3    H111646   0.022   4.167   0.880
 3880TIP3    H211647   0.129   4.172   0.773
 3881TIP3   OH211648   1.557   4.297   2.452
 3881TIP3    H111649   1.623   4.349   2.499
 3881TIP3    H211650   1.490   4.360   2.426
 3882TIP3   OH211651   5.948   4.458   2.490
 3882TIP3    H111652   5.858   4.430   2.504
 3882TIP3    H211653   5.990   4.447   2.576
 3883TIP3   OH211654   0.413   0.715   0.548
 3883TIP3    H111655   0.477   0.747   0.612
 3883TIP3    H211656   0.351   0.787   0.539
 3884TIP3   OH211657   5.478   2.961   0.236
 3884TIP3    H111658   5.442   2.999   0.316
 3884TIP3    H211659   5.472   2.866   0.250
 3885TIP3   OH211660   4.199   5.325   0.134
 3885TIP3    H111661   4.159   5.248   0.094
 3885TIP3    H211662   4.193   5.308   0.228
 3886TIP3   OH211663   1.389   5.872   4.777
 3886TIP3    H111664   1.296   5.854   4.790
 3886TIP3    H211665   1.424   5.792   4.738
 3887TIP3   OH211666   3.733   1.393   2.111
 3887TIP3    H111667   3.694   1.381   2.198
 3887TIP3    H211668   3.715   1.484   2.089
 3888TIP3   OH211669   1.426   4.298   0.300
 3888TIP3    H111670   1.443   4.382   0.342
 3888TIP3    H211671   1.511   4.267   0.271
 3889TIP3   OH211672   2.850   0.975   3.395
 3889TIP3    H111673   2.930   0.944   3.438
 3889TIP3    H211674   2.793   0.899   3.392
 3890TIP3   OH211675   5.761   2.735   2.910
 3890TIP3    H111676   5.711   2.654   2.897
 3890TIP3    H211677   5.787   2.762   2.822
 3891TIP3   OH211678   1.608   3.016   3.277
 3891TIP3    H111679   1.591   3.104   3.311
 3891TIP3    H211680   1.545   3.005   3.206
 3892TIP3   OH211681   1.926   0.523   0.074
 3892TIP3    H111682   1.996   0.499   0.014
 3892TIP3    H211683   1.957   0.495   0.160
 3893TIP3   OH211684   1.459   5.334   0.221
 3893TIP3    H111685   1.396   5.295   0.281
 3893TIP3    H211686   1.440   5.293   0.137
 3894TIP3   OH211687   1.408   3.005   1.145
 3894TIP3    H111688   1.396   2.965   1.231
 3894TIP3    H211689   1.501   3.026   1.140
 3895TIP3   OH211690   1.860   5.675   0.103
 3895TIP3    H111691   1.800   5.604   0.126
 3895TIP3    H211692   1.805   5.753   0.100
 3896TIP3   OH211693   3.800   5.271   4.313
 3896TIP3    H111694   3.790   5.180   4.284
 3896TIP3    H211695   3.751   5.322   4.249
 3897TIP3   OH211696   0.093   2.389   1.943
 3897TIP3    H111697   0.040   2.469   1.948
 3897TIP3    H211698   0.130   2.390   1.855
 3898TIP3   OH211699   4.233   3.614   3.750
 3898TIP3    H111700   4.259   3.693   3.702
 3898TIP3    H211701   4.308   3.595   3.807
 3899TIP3   OH211702   0.220   3.627   2.760
 3899TIP3    H111703   0.275   3.704   2.771
 3899TIP3    H211704   0.141   3.659   2.716
 3900TIP3   OH211705   1.211   3.780   4.167
 3900TIP3    H111706   1.169   3.865   4.154
 3900TIP3    H211707   1.158   3.737   4.234
 3901TIP3   OH211708   1.372   3.238   1.336
 3901TIP3    H111709   1.444   3.226   1.274
 3901TIP3    H211710   1.412   3.229   1.422
 3902TIP3   OH211711   3.873   1.580   4.633
 3902TIP3    H111712   3.927   1.542   4.565
 3902TIP3    H211713   3.931   1.589   4.709
 3903TIP3   OH211714   5.910   4.940   1.551
 3903TIP3    H111715   5.937   5.006   1.487
 3903TIP3    H211716   5.982   4.876   1.550
 3904TIP3   OH211717   2.480   5.558   1.828
 3904TIP3    H111718   2.504   5.650   1.837
 3904TIP3    H211719   2.515   5.532   1.743
 3905TIP3   OH211720   1.079   2.827   2.991
 3905TIP3    H111721   1.033   2.749   2.962
 3905TIP3    H211722   1.014   2.877   3.040
 3906TIP3   OH211723   5.675   2.092   3.084
 3906TIP3    H111724   5.702   2.174   3.128
 3906TIP3    H211725   5.617   2.121   3.014
 3907TIP3   OH211726   3.064   1.509   2.498
 3907TIP3    H111727   3.089   1.538   2.411
 3907TIP3    H211728   3.066   1.588   2.552
 3908TIP3   OH211729   0.157   4.309   4.620
 3908TIP3    H111730   0.080   4.254   4.624
 3908TIP3    H211731   0.198   4.288   4.537
 3909TIP3   OH211732   5.681   3.357   4.714
 3909TIP3    H111733   5.772   3.387   4.715
 3909TIP3    H211734   5.663   3.337   4.622
 3910TIP3   OH211735   1.381   4.174   3.193
 3910TIP3    H111736   1.343   4.144   3.111
 3910TIP3    H211737   1.470   4.200   3.170
 3911TIP3   OH211738   2.228   3.849   2.707
 3911TIP3    H111739   2.132   3.855   2.706
 3911TIP3    H211740   2.253   3.878   2.794
 3912TIP3   OH211741   0.737   0.440   4.416
 3912TIP3    H111742   0.804   0.466   4.353
 3912TIP3    H211743   0.692   0.367   4.374
 3913TIP3   OH211744   0.075   4.411   5.163
 3913TIP3    H111745   0.086   4.504   5.143
 3913TIP3    H211746  -0.008   4.407   5.211
 3914TIP3   OH211747   5.037   3.285   2.944
 3914TIP3    H111748   4.975   3.353   2.971
 3914TIP3    H211749   5.117   3.333   2.921
 3915TIP3   OH211750   3.634   1.581   1.534
 3915TIP3    H111751   3.546   1.597   1.499
 3915TIP3    H211752   3.638   1.636   1.613
 3916TIP3   OH211753   2.965   1.194   1.368
 3916TIP3    H111754   2.906   1.253   1.321
 3916TIP3    H211755   3.041   1.248   1.389
 3917TIP3   OH211756   2.674   0.670   1.382
 3917TIP3    H111757   2.638   0.596   1.333
 3917TIP3    H211758   2.597   0.715   1.417
 3918TIP3   OH211759   2.774   4.060   1.479
 3918TIP3    H111760   2.781   4.097   1.391
 3918TIP3    H211761   2.767   4.135   1.537
 3919TIP3   OH211762   2.505   4.748   4.883
 3919TIP3    H111763   2.540   4.725   4.797
 3919TIP3    H211764   2.549   4.688   4.944
 3920TIP3   OH211765   5.385   3.654   3.000
 3920TIP3    H111766   5.388   3.718   2.929
 3920TIP3    H211767   5.405   3.704   3.079
 3921TIP3   OH211768   2.264   4.618   2.556
 3921TIP3    H111769   2.359   4.620   2.564
 3921TIP3    H211770   2.246   4.540   2.504
 3922TIP3   OH211771   3.146   5.134   0.725
 3922TIP3    H111772   3.117   5.208   0.672
 3922TIP3    H211773   3.112   5.057   0.680
 3923TIP3   OH211774   5.414   1.756   4.324
 3923TIP3    H111775   5.375   1.699   4.390
 3923TIP3    H211776   5.506   1.761   4.348
 3924TIP3   OH211777   5.608   1.545   4.449
 3924TIP3    H111778   5.640   1.634   4.433
 3924TIP3    H211779   5.547   1.528   4.377
 3925TIP3   OH211780   4.663   2.322   3.089
 3925TIP3    H111781   4.677   2.395   3.029
 3925TIP3    H211782   4.750   2.300   3.122
 3926TIP3   OH211783   0.655   2.962   1.378
 3926TIP3    H111784   0.657   2.891   1.442
 3926TIP3    H211785   0.718   2.934   1.311
 3927TIP3   OH211786   5.115   1.436   4.261
 3927TIP3    H111787   5.049   1.502   4.282
 3927TIP3    H211788   5.167   1.428   4.341
 3928TIP3   OH211789   5.786   3.423   4.376
 3928TIP3    H111790   5.820   3.401   4.289
 3928TIP3    H211791   5.749   3.341   4.408
 3929TIP3   OH211792   2.591   5.331   5.044
 3929TIP3    H111793   2.576   5.254   4.989
 3929TIP3    H211794   2.520   5.391   5.019
 3930TIP3   OH211795   4.744   1.885   0.509
 3930TIP3    H111796   4.817   1.863   0.566
 3930TIP3    H211797   4.721   1.803   0.466
 3931TIP3   OH211798   0.588   3.280   0.808
 3931TIP3    H111799   0.591   3.208   0.871
 3931TIP3    H211800   0.495   3.300   0.800
 3932TIP3   OH211801   1.575   1.577   3.035
 3932TIP3    H111802   1.550   1.495   3.077
 3932TIP3    H211803   1.621   1.626   3.103
 3933TIP3   OH211804   4.101   1.381   0.871
 3933TIP3    H111805   4.025   1.392   0.814
 3933TIP3    H211806   4.170   1.351   0.812
 3934TIP3   OH211807   6.082   1.952   4.107
 3934TIP3    H111808   6.129   1.929   4.027
 3934TIP3    H211809   6.001   1.993   4.075
 3935TIP3   OH211810   1.959   2.679   3.162
 3935TIP3    H111811   2.053   2.675   3.145
 3935TIP3    H211812   1.922   2.606   3.111
 3936TIP3   OH211813   2.909   3.552   1.343
 3936TIP3    H111814   2.836   3.569   1.403
 3936TIP3    H211815   2.923   3.637   1.300
 3937TIP3   OH211816   2.384   4.151   2.267
 3937TIP3    H111817   2.462   4.109   2.304
 3937TIP3    H211818   2.417   4.202   2.193
 3938TIP3   OH211819   5.206   3.170   3.928
 3938TIP3    H111820   5.270   3.241   3.921
 3938TIP3    H211821   5.251   3.102   3.978
 3939TIP3   OH211822   2.410   2.220   3.159
 3939TIP3    H111823   2.393   2.128   3.177
 3939TIP3    H211824   2.497   2.222   3.120
 3940TIP3   OH211825   4.403   4.875   4.026
 3940TIP3    H111826   4.355   4.835   3.954
 3940TIP3    H211827   4.339   4.935   4.066
 3941TIP3   OH211828   3.567   3.929   2.598
 3941TIP3    H111829   3.517   4.010   2.587
 3941TIP3    H211830   3.598   3.932   2.688
 3942TIP3   OH211831   3.291   4.945   3.357
 3942TIP3    H111832   3.250   4.869   3.316
 3942TIP3    H211833   3.255   4.947   3.446
 3943TIP3   OH211834   3.569   5.485   0.587
 3943TIP3    H111835   3.541   5.571   0.555
 3943TIP3    H211836   3.547   5.486   0.680
 3944TIP3   OH211837   4.319   3.792   3.968
 3944TIP3    H111838   4.273   3.784   4.052
 3944TIP3    H211839   4.369   3.711   3.961
 3945TIP3   OH211840   5.036   4.453   3.625
 3945TIP3    H111841   5.079   4.407   3.554
 3945TIP3    H211842   5.100   4.453   3.696
 3946TIP3   OH211843   4.946   1.259   3.011
 3946TIP3    H111844   4.898   1.335   2.976
 3946TIP3    H211845   4.936   1.192   2.943
 3947TIP3   OH211846   2.533   5.317   4.349
 3947TIP3    H111847   2.623   5.336   4.323
 3947TIP3    H211848   2.541   5.274   4.434
 3948TIP3   OH211849   3.332   1.021   2.464
 3948TIP3    H111850   3.416   1.054   2.494
 3948TIP3    H211851   3.346   0.927   2.452
 3949TIP3   OH211852   3.153   0.380   1.700
 3949TIP3    H111853   3.153   0.398   1.606
 3949TIP3    H211854   3.240   0.406   1.729
 3950TIP3   OH211855   1.011   0.706   3.345
 3950TIP3    H111856   1.009   0.792   3.303
 3950TIP3    H211857   1.064   0.652   3.287
 3951TIP3   OH211858   0.174   4.880   1.225
 3951TIP3    H111859   0.171   4.920   1.312
 3951TIP3    H211860   0.266   4.881   1.200
 3952TIP3   OH211861   1.125   1.447   0.794
 3952TIP3    H111862   1.036   1.443   0.759
 3952TIP3    H211863   1.176   1.488   0.724
 3953TIP3   OH211864   1.262   5.183   0.507
 3953TIP3    H111865   1.197   5.198   0.575
 3953TIP3    H211866   1.337   5.237   0.533
 3954TIP3   OH211867   3.082   4.629   1.931
 3954TIP3    H111868   3.020   4.698   1.906
 3954TIP3    H211869   3.162   4.649   1.882
 3955TIP3   OH211870   5.242   4.982   2.374
 3955TIP3    H111871   5.231   4.895   2.412
 3955TIP3    H211872   5.271   4.966   2.284
 3956TIP3   OH211873   5.674   2.331   4.585
 3956TIP3    H111874   5.604   2.274   4.616
 3956TIP3    H211875   5.645   2.361   4.499
 3957TIP3   OH211876   4.339   0.621   1.878
 3957TIP3    H111877   4.299   0.577   1.953
 3957TIP3    H211878   4.403   0.559   1.844
 3958TIP3   OH211879   0.461   4.947   3.504
 3958TIP3    H111880   0.365   4.947   3.504
 3958TIP3    H211881   0.485   4.983   3.418
 3959TIP3   OH211882   0.912   0.476   0.432
 3959TIP3    H111883   0.861   0.398   0.454
 3959TIP3    H211884   0.912   0.527   0.513
 3960TIP3   OH211885   6.082   0.187   0.953
 3960TIP3    H111886   6.091   0.238   0.872
 3960TIP3    H211887   6.171   0.178   0.985
 3961TIP3   OH211888   4.581   5.682   2.500
 3961TIP3    H111889   4.626   5.736   2.564
 3961TIP3    H211890   4.649   5.628   2.461
 3962TIP3   OH211891   2.095   0.640   1.548
 3962TIP3    H111892   2.014   0.602   1.579
 3962TIP3    H211893   2.104   0.609   1.458
 3963TIP3   OH211894   4.817   0.111   2.351
 3963TIP3    H111895   4.909   0.110   2.377
 3963TIP3    H211896   4.792   0.204   2.353
 3964TIP3   OH211897   6.271   3.300   4.752
 3964TIP3    H111898   6.244   3.378   4.800
 3964TIP3    H211899   6.356   3.323   4.715
 3965TIP3   OH211900   4.602   2.017   3.904
 3965TIP3    H111901   4.509   2.036   3.918
 3965TIP3    H211902   4.614   2.027   3.810
 3966TIP3   OH211903   5.889   2.869   1.455
 3966TIP3    H111904   5.885   2.811   1.379
 3966TIP3    H211905   5.853   2.816   1.527
 3967TIP3   OH211906   1.344   4.357   4.154
 3967TIP3    H111907   1.314   4.359   4.244
 3967TIP3    H211908   1.371   4.267   4.138
 3968TIP3   OH211909   3.441   4.101   4.929
 3968TIP3    H111910   3.512   4.037   4.934
 3968TIP3    H211911   3.468   4.161   4.860
 3969TIP3   OH211912   1.445   3.281   0.864
 3969TIP3    H111913   1.538   3.273   0.884
 3969TIP3    H211914   1.435   3.236   0.780
 3970TIP3   OH211915   0.302   5.615   2.494
 3970TIP3    H111916   0.276   5.544   2.434
 3970TIP3    H211917   0.336   5.569   2.571
 3971TIP3   OH211918   3.004   0.430   1.951
 3971TIP3    H111919   3.059   0.405   1.876
 3971TIP3    H211920   2.916   0.435   1.915
 3972TIP3   OH211921   4.542   5.007   1.318
 3972TIP3    H111922   4.516   5.059   1.394
 3972TIP3    H211923   4.514   5.059   1.243
 3973TIP3   OH211924   0.326   4.989   0.341
 3973TIP3    H111925   0.366   5.057   0.287
 3973TIP3    H211926   0.400   4.941   0.379
 3974TIP3   OH211927   0.000   2.141   3.960
 3974TIP3    H111928   0.062   2.079   3.997
 3974TIP3    H211929   0.011   2.132   3.865
 3975TIP3   OH211930   0.517   3.831   1.994
 3975TIP3    H111931   0.462   3.763   1.955
 3975TIP3    H211932   0.596   3.784   2.022
 3976TIP3   OH211933   6.008   0.992   0.447
 3976TIP3    H111934   5.949   1.008   0.521
 3976TIP3    H211935   5.951   0.994   0.370
 3977TIP3   OH211936   4.396   4.452   2.626
 3977TIP3    H111937   4.441   4.529   2.661
 3977TIP3    H211938   4.309   4.485   2.601
 3978TIP3   OH211939   1.369   1.391   3.227
 3978TIP3    H111940   1.340   1.313   3.181
 3978TIP3    H211941   1.464   1.382   3.232
 3979TIP3   OH211942   2.320   3.569   3.697
 3979TIP3    H111943   2.241   3.621   3.681
 3979TIP3    H211944   2.349   3.542   3.610
 3980TIP3   OH211945   4.065   2.223   3.933
 3980TIP3    H111946   4.054   2.233   3.839
 3980TIP3    H211947   3.992   2.271   3.971
 3981TIP3   OH211948   2.516   0.163   5.152
 3981TIP3    H111949   2.589   0.122   5.105
 3981TIP3    H211950   2.455   0.190   5.083
 3982TIP3   OH211951   3.181   0.448   1.409
 3982TIP3    H111952   3.201   0.378   1.346
 3982TIP3    H211953   3.086   0.452   1.410
 3983TIP3   OH211954   2.553   5.734   1.224
 3983TIP3    H111955   2.558   5.666   1.158
 3983TIP3    H211956   2.626   5.793   1.204
 3984TIP3   OH211957   4.686   2.748   0.215
 3984TIP3    H111958   4.713   2.723   0.303
 3984TIP3    H211959   4.602   2.793   0.227
 3985TIP3   OH211960   5.852   2.310   2.288
 3985TIP3    H111961   5.788   2.256   2.241
 3985TIP3    H211962   5.800   2.360   2.350
 3986TIP3   OH211963   6.012   1.897   4.470
 3986TIP3    H111964   6.004   1.825   4.408
 3986TIP3    H211965   6.105   1.902   4.490
 3987TIP3   OH211966   4.750   0.551   1.070
 3987TIP3    H111967   4.695   0.571   0.995
 3987TIP3    H211968   4.694   0.565   1.146
 3988TIP3   OH211969   2.796   3.171   4.842
 3988TIP3    H111970   2.837   3.121   4.771
 3988TIP3    H211971   2.845   3.254   4.844
 3989TIP3   OH211972   5.964   1.537   1.556
 3989TIP3    H111973   6.023   1.610   1.573
 3989TIP3    H211974   5.968   1.483   1.635
 3990TIP3   OH211975   0.237   0.926   2.469
 3990TIP3    H111976   0.146   0.902   2.487
 3990TIP3    H211977   0.284   0.842   2.468
 3991TIP3   OH211978   3.860   2.236   0.545
 3991TIP3    H111979   3.794   2.266   0.608
 3991TIP3    H211980   3.941   2.277   0.575
 3992TIP3   OH211981   4.844   0.182   5.171
 3992TIP3    H111982   4.840   0.262   5.118
 3992TIP3    H211983   4.931   0.146   5.152
 3993TIP3   OH211984   1.644   4.580   2.773
 3993TIP3    H111985   1.632   4.674   2.764
 3993TIP3    H211986   1.653   4.548   2.684
 3994TIP3   OH211987   5.466   3.136   2.254
 3994TIP3    H111988   5.372   3.148   2.270
 3994TIP3    H211989   5.508   3.183   2.326
 3995TIP3   OH211990   2.216   1.458   4.238
 3995TIP3    H111991   2.201   1.517   4.313
 3995TIP3    H211992   2.291   1.404   4.265
 3996TIP3   OH211993   3.547   3.792   3.706
 3996TIP3    H111994   3.543   3.887   3.703
 3996TIP3    H211995   3.495   3.767   3.783
 3997TIP3   OH211996   1.265   0.345   3.468
 3997TIP3    H111997   1.249   0.264   3.418
 3997TIP3    H211998   1.294   0.408   3.403
 3998TIP3   OH211999   4.684   3.194   0.416
 3998TIP3    H112000   4.652   3.242   0.340
 3998TIP3    H212001   4.709   3.262   0.479
 3999TIP3   OH212002   0.130   0.775   0.375
 3999TIP3    H112003   0.035   0.768   0.363
 3999TIP3    H212004   0.165   0.692   0.342
 4000TIP3   OH212005   1.298   3.247   4.443
 4000TIP3    H112006   1.206   3.240   4.467
 4000TIP3    H212007   1.297   3.266   4.349
 4001TIP3   OH212008   4.380   4.040   2.124
 4001TIP3    H112009   4.354   4.126   2.156
 4001TIP3    H212010   4.323   3.978   2.170
 4002TIP3   OH212011   2.883   3.787   3.099
 4002TIP3    H112012   2.828   3.782   3.021
 4002TIP3    H212013   2.908   3.879   3.105
 4003TIP3   OH212014   5.221   5.838   5.014
 4003TIP3    H112015   5.233   5.900   4.943
 4003TIP3    H212016   5.126   5.826   5.020
 4004TIP3   OH212017   1.582   5.573   0.165
 4004TIP3    H112018   1.584   5.609   0.254
 4004TIP3    H212019   1.546   5.485   0.176
 4005TIP3   OH212020   4.067   1.337   5.021
 4005TIP3    H112021   4.056   1.336   4.925
 4005TIP3    H212022   3.997   1.280   5.054
 4006TIP3   OH212023   1.250   5.297   4.308
 4006TIP3    H112024   1.254   5.392   4.325
 4006TIP3    H212025   1.262   5.289   4.214
 4007TIP3   OH212026   0.949   2.562   4.281
 4007TIP3    H112027   0.934   2.503   4.206
 4007TIP3    H212028   1.024   2.616   4.254
 4008TIP3   OH212029   4.818   3.842   2.569
 4008TIP3    H112030   4.732   3.884   2.574
 4008TIP3    H212031   4.833   3.827   2.476
 4009TIP3   OH212032   2.170   5.338   4.116
 4009TIP3    H112033   2.249   5.360   4.066
 4009TIP3    H212034   2.196   5.261   4.168
 4010TIP3   OH212035   5.097   2.172   4.653
 4010TIP3    H112036   5.128   2.085   4.626
 4010TIP3    H212037   5.175   2.216   4.687
 4011TIP3   OH212038   2.255   4.761   4.727
 4011TIP3    H112039   2.329   4.708   4.757
 4011TIP3    H212040   2.188   4.749   4.794
 4012TIP3   OH212041   3.565   4.924   4.100
 4012TIP3    H112042   3.482   4.967   4.121
 4012TIP3    H212043   3.591   4.963   4.016
 4013TIP3   OH212044   0.242   1.620   4.321
 4013TIP3    H112045   0.196   1.699   4.349
 4013TIP3    H212046   0.213   1.552   4.383
 4014TIP3   OH212047   2.787   3.640   4.559
 4014TIP3    H112048   2.710   3.598   4.520
 4014TIP3    H212049   2.847   3.567   4.576
 4015TIP3   OH212050   1.372   0.410   4.531
 4015TIP3    H112051   1.297   0.352   4.542
 4015TIP3    H212052   1.425   0.396   4.609
 4016TIP3   OH212053   5.887   4.990   2.983
 4016TIP3    H112054   5.821   4.965   3.048
 4016TIP3    H212055   5.924   4.907   2.954
 4017TIP3   OH212056   0.281   0.081   2.373
 4017TIP3    H112057   0.245   0.168   2.355
 4017TIP3    H212058   0.258   0.064   2.464
 4018TIP3   OH212059   0.774   0.150   4.596
 4018TIP3    H112060   0.700   0.153   4.656
 4018TIP3    H212061   0.805   0.241   4.593
 4019TIP3   OH212062   5.141   0.735   1.010
 4019TIP3    H112063   5.105   0.659   0.964
 4019TIP3    H212064   5.078   0.754   1.079
 4020TIP3   OH212065   0.194   5.487   3.592
 4020TIP3    H112066   0.110   5.497   3.635
 4020TIP3    H212067   0.232   5.575   3.590
 4021TIP3   OH212068   4.904   0.121   3.919
 4021TIP3    H112069   4.829   0.099   3.864
 4021TIP3    H212070   4.946   0.193   3.873
 4022TIP3   OH212071   1.874   0.912   3.404
 4022TIP3    H112072   1.801   0.942   3.459
 4022TIP3    H212073   1.833   0.879   3.325
 4023TIP3   OH212074   5.044   0.961   3.945
 4023TIP3    H112075   5.089   1.040   3.976
 4023TIP3    H212076   4.953   0.974   3.973
 4024TIP3   OH212077   1.716   1.622   1.792
 4024TIP3    H112078   1.630   1.620   1.835
 4024TIP3    H212079   1.740   1.714   1.791
 4025TIP3   OH212080   1.660   3.285   3.850
 4025TIP3    H112081   1.635   3.333   3.771
 4025TIP3    H212082   1.640   3.193   3.829
 4026TIP3   OH212083   2.399   0.373   3.908
 4026TIP3    H112084   2.405   0.448   3.968
 4026TIP3    H212085   2.490   0.343   3.898
 4027TIP3   OH212086   0.099   5.938   2.309
 4027TIP3    H112087   0.192   5.961   2.308
 4027TIP3    H212088   0.054   6.018   2.337
 4028TIP3   OH212089   4.738   3.312   2.792
 4028TIP3    H112090   4.760   3.235   2.844
 4028TIP3    H212091   4.753   3.386   2.851
 4029TIP3   OH212092   2.193   2.910   4.158
 4029TIP3    H112093   2.193   2.836   4.097
 4029TIP3    H212094   2.285   2.919   4.185
 4030TIP3   OH212095   3.283   0.147   1.801
 4030TIP3    H112096   3.215   0.187   1.747
 4030TIP3    H212097   3.362   0.150   1.747
 4031TIP3   OH212098   3.956   5.637   1.879
 4031TIP3    H112099   3.933   5.590   1.799
 4031TIP3    H212100   4.006   5.574   1.931
 4032TIP3   OH212101   5.838   4.732   4.649
 4032TIP3    H112102   5.814   4.654   4.597
 4032TIP3    H212103   5.782   4.801   4.614
 4033TIP3   OH212104   2.623   1.953   0.909
 4033TIP3    H112105   2.584   1.865   0.906
 4033TIP3    H212106   2.568   2.002   0.971
 4034TIP3   OH212107   0.837   0.214   0.634
 4034TIP3    H112108   0.801   0.287   0.685
 4034TIP3    H212109   0.920   0.194   0.676
 4035TIP3   OH212110   5.270   5.353   1.722
 4035TIP3    H112111   5.223   5.392   1.796
 4035TIP3    H212112   5.352   5.323   1.759
 4036TIP3   OH212113   5.088   1.648   1.002
 4036TIP3    H112114   5.021   1.649   1.071
 4036TIP3    H212115   5.138   1.729   1.016
 4037TIP3   OH212116   0.758   5.444   1.017
 4037TIP3    H112117   0.850   5.418   1.013
 4037TIP3    H212118   0.759   5.538   1.001
 4038TIP3   OH212119   5.803   3.815   3.800
 4038TIP3    H112120   5.751   3.876   3.748
 4038TIP3    H212121   5.891   3.851   3.800
 4039TIP3   OH212122   0.362   4.629   0.964
 4039TIP3    H112123   0.292   4.625   0.900
 4039TIP3    H212124   0.324   4.591   1.043
 4040TIP3   OH212125   5.180   2.170   5.164
 4040TIP3    H112126   5.146   2.192   5.251
 4040TIP3    H212127   5.201   2.255   5.124
 4041TIP3   OH212128   5.853   1.767   0.910
 4041TIP3    H112129   5.851   1.720   0.827
 4041TIP3    H212130   5.781   1.730   0.960
 4042TIP3   OH212131   5.135   1.757   2.778
 4042TIP3    H112132   5.084   1.814   2.722
 4042TIP3    H212133   5.226   1.784   2.763
 4043TIP3   OH212134   1.917   5.641   2.730
 4043TIP3    H112135   1.932   5.594   2.812
 4043TIP3    H212136   1.822   5.641   2.719
 4044TIP3   OH212137   0.520   3.032   2.435
 4044TIP3    H112138   0.514   2.963   2.501
 4044TIP3    H212139   0.472   2.997   2.360
 4045TIP3   OH212140   0.240   3.554   5.014
 4045TIP3    H112141   0.203   3.622   5.071
 4045TIP3    H212142   0.263   3.483   5.074
 4046TIP3   OH212143   1.892   3.787   4.517
 4046TIP3    H112144   1.849   3.716   4.565
 4046TIP3    H212145   1.830   3.859   4.520
 4047TIP3   OH212146   5.865   5.606   1.046
 4047TIP3    H112147   5.806   5.581   1.118
 4047TIP3    H212148   5.824   5.568   0.968
 4048TIP3   OH212149   4.003   1.374   2.018
 4048TIP3    H112150   3.916   1.379   2.056
 4048TIP3    H212151   3.988   1.360   1.924
 4049TIP3   OH212152   4.516   3.305   1.093
 4049TIP3    H112153   4.554   3.364   1.158
 4049TIP3    H212154   4.581   3.236   1.082
 4050TIP3   OH212155   5.334   3.618   1.558
 4050TIP3    H112156   5.427   3.622   1.534
 4050TIP3    H212157   5.292   3.579   1.482
 4051TIP3   OH212158   2.393   3.960   1.572
 4051TIP3    H112159   2.433   4.047   1.576
 4051TIP3    H212160   2.387   3.940   1.479
 4052TIP3   OH212161   0.109   0.488   1.189
 4052TIP3    H112162   0.083   0.575   1.158
 4052TIP3    H212163   0.078   0.485   1.279
 4053TIP3   OH212164   5.952   3.047   4.474
 4053TIP3    H112165   6.008   3.077   4.402
 4053TIP3    H212166   6.012   3.035   4.548
 4054TIP3   OH212167   3.495   0.060   1.953
 4054TIP3    H112168   3.413   0.096   1.921
 4054TIP3    H212169   3.547   0.137   1.978
 4055TIP3   OH212170   5.523   0.217   0.513
 4055TIP3    H112171   5.470   0.162   0.570
 4055TIP3    H212172   5.607   0.224   0.558
 4056TIP3   OH212173   3.065   3.021   2.040
 4056TIP3    H112174   3.049   2.961   2.112
 4056TIP3    H212175   2.977   3.050   2.012
 4057TIP3   OH212176   3.791   1.130   3.782
 4057TIP3    H112177   3.765   1.131   3.690
 4057TIP3    H212178   3.767   1.217   3.815
 4058TIP3   OH212179   5.984   5.901   3.917
 4058TIP3    H112180   6.014   5.972   3.860
 4058TIP3    H212181   5.994   5.934   4.006
 4059TIP3   OH212182   0.616   3.459   2.168
 4059TIP3    H112183   0.653   3.386   2.218
 4059TIP3    H212184   0.675   3.533   2.186
 4060TIP3   OH212185   6.109   5.535   1.988
 4060TIP3    H112186   6.017   5.556   1.975
 4060TIP3    H212187   6.147   5.616   2.022
 4061TIP3   OH212188   1.098   3.200   2.884
 4061TIP3    H112189   1.078   3.109   2.863
 4061TIP3    H212190   1.136   3.197   2.972
 4062TIP3   OH212191   3.301   0.196   0.665
 4062TIP3    H112192   3.283   0.172   0.575
 4062TIP3    H212193   3.332   0.286   0.660
 4063TIP3   OH212194   0.362   1.590   0.860
 4063TIP3    H112195   0.385   1.502   0.889
 4063TIP3    H212196   0.409   1.648   0.920
 4064TIP3   OH212197   2.793   5.729   1.948
 4064TIP3    H112198   2.795   5.766   1.859
 4064TIP3    H212199   2.771   5.804   2.004
 4065TIP3   OH212200   2.090   5.295   0.046
 4065TIP3    H112201   2.096   5.389   0.031
 4065TIP3    H212202   1.998   5.273   0.027
 4066TIP3   OH212203   2.198   2.782   3.771
 4066TIP3    H112204   2.188   2.721   3.843
 4066TIP3    H212205   2.121   2.839   3.777
 4067TIP3   OH212206   0.062   1.467   0.267
 4067TIP3    H112207   0.124   1.540   0.260
 4067TIP3    H212208   0.003   1.479   0.193
 4068TIP3   OH212209   4.196   5.126   4.130
 4068TIP3    H112210   4.253   5.195   4.163
 4068TIP3    H212211   4.124   5.173   4.087
 4069TIP3   OH212212   0.483   5.440   2.193
 4069TIP3    H112213   0.460   5.526   2.157
 4069TIP3    H212214   0.400   5.406   2.228
 4070TIP3   OH212215   2.014   4.503   1.807
 4070TIP3    H112216   2.092   4.531   1.854
 4070TIP3    H212217   1.974   4.437   1.864
 4071TIP3   OH212218   2.771   2.968   0.615
 4071TIP3    H112219   2.696   2.996   0.563
 4071TIP3    H212220   2.756   3.005   0.701
 4072TIP3   OH212221   2.131   1.565   3.529
 4072TIP3    H112222   2.210   1.599   3.573
 4072TIP3    H212223   2.144   1.471   3.526
 4073TIP3   OH212224   6.165   5.465   2.291
 4073TIP3    H112225   6.226   5.453   2.364
 4073TIP3    H212226   6.208   5.530   2.235
 4074TIP3   OH212227   6.281   4.925   2.142
 4074TIP3    H112228   6.189   4.953   2.137
 4074TIP3    H212229   6.275   4.832   2.166
 4075TIP3   OH212230   2.287   4.625   4.178
 4075TIP3    H112231   2.258   4.632   4.269
 4075TIP3    H212232   2.349   4.696   4.167
 4076TIP3   OH212233   0.515   5.435   1.295
 4076TIP3    H112234   0.462   5.476   1.226
 4076TIP3    H212235   0.553   5.358   1.252
 4077TIP3   OH212236   5.901   0.822   4.486
 4077TIP3    H112237   5.848   0.836   4.564
 4077TIP3    H212238   5.875   0.892   4.426
 4078TIP3   OH212239   2.161   3.030   1.076
 4078TIP3    H112240   2.108   3.107   1.097
 4078TIP3    H212241   2.213   3.015   1.155
 4079TIP3   OH212242   2.084   4.050   4.500
 4079TIP3    H112243   2.057   3.965   4.535
 4079TIP3    H212244   2.154   4.029   4.438
 4080TIP3   OH212245   5.462   4.330   4.663
 4080TIP3    H112246   5.462   4.423   4.637
 4080TIP3    H212247   5.530   4.324   4.730
 4081TIP3   OH212248   2.494   4.200   2.576
 4081TIP3    H112249   2.489   4.243   2.662
 4081TIP3    H212250   2.538   4.116   2.593
 4082TIP3   OH212251   2.695   4.827   2.092
 4082TIP3    H112252   2.600   4.835   2.084
 4082TIP3    H212253   2.723   4.908   2.135
 4083TIP3   OH212254   1.000   3.555   4.004
 4083TIP3    H112255   0.918   3.543   4.052
 4083TIP3    H212256   1.065   3.506   4.054
 4084TIP3   OH212257   6.131   2.206   4.609
 4084TIP3    H112258   6.184   2.250   4.675
 4084TIP3    H212259   6.192   2.186   4.538
 4085TIP3   OH212260   2.922   5.746   1.221
 4085TIP3    H112261   3.009   5.727   1.257
 4085TIP3    H212262   2.895   5.664   1.178
 4086TIP3   OH212263   3.993   2.576   4.875
 4086TIP3    H112264   3.996   2.646   4.940
 4086TIP3    H212265   4.020   2.618   4.793
 4087TIP3   OH212266   0.254   1.015   4.863
 4087TIP3    H112267   0.291   1.103   4.865
 4087TIP3    H212268   0.315   0.964   4.809
 4088TIP3   OH212269   1.929   2.054   1.003
 4088TIP3    H112270   1.870   2.005   0.946
 4088TIP3    H212271   1.931   2.004   1.085
 4089TIP3   OH212272   5.904   1.224   4.529
 4089TIP3    H112273   5.842   1.169   4.482
 4089TIP3    H212274   5.884   1.210   4.621
 4090TIP3   OH212275   0.614   4.913   0.761
 4090TIP3    H112276   0.604   4.993   0.812
 4090TIP3    H212277   0.598   4.940   0.670
 4091TIP3   OH212278   5.023   2.277   1.114
 4091TIP3    H112279   5.117   2.297   1.109
 4091TIP3    H212280   5.020   2.181   1.117
 4092TIP3   OH212281   0.874   5.668   3.375
 4092TIP3    H112282   0.818   5.592   3.361
 4092TIP3    H212283   0.954   5.648   3.327
 4093TIP3   OH212284   4.761   3.462   0.337
 4093TIP3    H112285   4.758   3.371   0.305
 4093TIP3    H212286   4.706   3.511   0.276
 4094TIP3   OH212287   2.078   0.134   4.777
 4094TIP3    H112288   1.994   0.102   4.744
 4094TIP3    H212289   2.119   0.058   4.818
 4095TIP3   OH212290   2.831   1.735   1.079
 4095TIP3    H112291   2.859   1.827   1.087
 4095TIP3    H212292   2.898   1.694   1.025
 4096TIP3   OH212293   3.467   5.509   4.309
 4096TIP3    H112294   3.514   5.589   4.334
 4096TIP3    H212295   3.475   5.452   4.386
 4097TIP3   OH212296   6.046   2.639   0.336
 4097TIP3    H112297   5.961   2.639   0.378
 4097TIP3    H212298   6.030   2.602   0.249
 4098TIP3   OH212299   4.519   1.465   2.755
 4098TIP3    H112300   4.464   1.397   2.793
 4098TIP3    H212301   4.458   1.533   2.726
 4099TIP3   OH212302   5.858   4.607   2.224
 4099TIP3    H112303   5.904   4.627   2.306
 4099TIP3    H212304   5.769   4.584   2.252
 4100TIP3   OH212305   3.725   3.856   4.342
 4100TIP3    H112306   3.667   3.922   4.304
 4100TIP3    H212307   3.666   3.794   4.385
 4101TIP3   OH212308   5.048   3.169   5.008
 4101TIP3    H112309   5.078   3.189   5.097
 4101TIP3    H212310   5.128   3.154   4.958
 4102TIP3   OH212311   6.069   3.829   4.938
 4102TIP3    H112312   6.065   3.851   4.845
 4102TIP3    H212313   6.138   3.763   4.945
 4103TIP3   OH212314   3.893   5.023   2.867
 4103TIP3    H112315   3.856   5.103   2.905
 4103TIP3    H212316   3.877   5.031   2.773
 4104TIP3   OH212317   5.158   5.497   5.026
 4104TIP3    H112318   5.099   5.513   5.100
 4104TIP3    H212319   5.235   5.549   5.046
 4105TIP3   OH212320   0.102   2.301   2.663
 4105TIP3    H112321   0.154   2.378   2.684
 4105TIP3    H212322   0.156   2.227   2.692
 4106TIP3   OH212323   5.108   0.993   2.501
 4106TIP3    H112324   5.171   1.059   2.531
 4106TIP3    H212325   5.090   1.018   2.410
 4107TIP3   OH212326   0.549   0.127   2.576
 4107TIP3    H112327   0.637   0.160   2.560
 4107TIP3    H212328   0.503   0.200   2.618
 4108TIP3   OH212329   4.060   3.866   1.464
 4108TIP3    H112330   4.080   3.775   1.442
 4108TIP3    H212331   4.128   3.891   1.527
 4109TIP3   OH212332   2.393   1.638   2.139
 4109TIP3    H112333   2.417   1.592   2.220
 4109TIP3    H212334   2.331   1.579   2.096
 4110TIP3   OH212335   3.632   5.761   2.819
 4110TIP3    H112336   3.546   5.745   2.779
 4110TIP3    H212337   3.694   5.716   2.762
 4111TIP3   OH212338   4.696   0.301   3.216
 4111TIP3    H112339   4.721   0.266   3.130
 4111TIP3    H212340   4.764   0.365   3.236
 4112TIP3   OH212341   5.189   2.758   5.191
 4112TIP3    H112342   5.146   2.709   5.121
 4112TIP3    H212343   5.127   2.828   5.211
 4113TIP3   OH212344   0.610   3.438   4.784
 4113TIP3    H112345   0.625   3.343   4.788
 4113TIP3    H212346   0.564   3.459   4.865
 4114TIP3   OH212347   2.741   3.740   0.996
 4114TIP3    H112348   2.694   3.818   0.969
 4114TIP3    H212349   2.682   3.667   0.975
 4115TIP3   OH212350   3.156   4.235   1.042
 4115TIP3    H112351   3.238   4.283   1.028
 4115TIP3    H212352   3.104   4.294   1.097
 4116TIP3   OH212353   1.245   5.310   3.335
 4116TIP3    H112354   1.234   5.275   3.423
 4116TIP3    H212355   1.326   5.270   3.303
 4117TIP3   OH212356   2.213   1.691   2.804
 4117TIP3    H112357   2.129   1.645   2.801
 4117TIP3    H212358   2.205   1.749   2.880
 4118TIP3   OH212359   3.428   0.557   0.172
 4118TIP3    H112360   3.455   0.637   0.128
 4118TIP3    H212361   3.382   0.586   0.251
 4119TIP3   OH212362   1.209   5.932   2.764
 4119TIP3    H112363   1.167   6.015   2.786
 4119TIP3    H212364   1.303   5.953   2.763
 4120TIP3   OH212365   1.396   0.297   1.183
 4120TIP3    H112366   1.435   0.287   1.270
 4120TIP3    H212367   1.323   0.235   1.182
 4121TIP3   OH212368   4.151   2.567   2.311
 4121TIP3    H112369   4.120   2.607   2.230
 4121TIP3    H212370   4.075   2.567   2.369
 4122TIP3   OH212371   0.338   4.559   4.409
 4122TIP3    H112372   0.363   4.469   4.391
 4122TIP3    H212373   0.246   4.553   4.435
 4123TIP3   OH212374   5.530   4.163   4.300
 4123TIP3    H112375   5.457   4.220   4.278
 4123TIP3    H212376   5.499   4.110   4.373
 4124TIP3   OH212377   5.977   0.012   2.248
 4124TIP3    H112378   6.063   0.050   2.266
 4124TIP3    H212379   5.917   0.087   2.253
 4125TIP3   OH212380   3.081   3.923   2.266
 4125TIP3    H112381   3.034   3.913   2.183
 4125TIP3    H212382   3.106   3.833   2.289
 4126TIP3   OH212383   2.824   4.186   1.233
 4126TIP3    H112384   2.859   4.111   1.185
 4126TIP3    H212385   2.814   4.255   1.167
 4127TIP3   OH212386   4.943   4.699   1.454
 4127TIP3    H112387   4.882   4.766   1.425
 4127TIP3    H212388   4.905   4.616   1.425
 4128TIP3   OH212389   1.225   4.812   3.748
 4128TIP3    H112390   1.147   4.757   3.757
 4128TIP3    H212391   1.196   4.900   3.773
 4129TIP3   OH212392   5.837   4.574   1.107
 4129TIP3    H112393   5.861   4.658   1.070
 4129TIP3    H212394   5.828   4.590   1.201
 4130TIP3   OH212395   1.375   5.621   0.429
 4130TIP3    H112396   1.364   5.673   0.509
 4130TIP3    H212397   1.461   5.646   0.396
 4131TIP3   OH212398   3.559   3.208   3.830
 4131TIP3    H112399   3.527   3.275   3.770
 4131TIP3    H212400   3.628   3.252   3.880
 4132TIP3   OH212401   4.485   1.059   4.785
 4132TIP3    H112402   4.426   1.014   4.724
 4132TIP3    H212403   4.427   1.100   4.849
 4133TIP3   OH212404   3.892   0.346   3.671
 4133TIP3    H112405   3.983   0.364   3.648
 4133TIP3    H212406   3.859   0.430   3.704
 4134TIP3   OH212407   5.694   1.529   2.074
 4134TIP3    H112408   5.763   1.595   2.073
 4134TIP3    H212409   5.634   1.558   2.143
 4135TIP3   OH212410   0.667   4.245   3.698
 4135TIP3    H112411   0.702   4.166   3.737
 4135TIP3    H212412   0.723   4.315   3.730
 4136TIP3   OH212413   0.781   5.873   3.210
 4136TIP3    H112414   0.815   5.810   3.274
 4136TIP3    H212415   0.724   5.821   3.153
 4137TIP3   OH212416   3.856   4.833   4.000
 4137TIP3    H112417   3.846   4.739   4.016
 4137TIP3    H212418   3.902   4.865   4.078
 4138TIP3   OH212419   1.792   3.621   1.272
 4138TIP3    H112420   1.779   3.668   1.354
 4138TIP3    H212421   1.705   3.620   1.231
 4139TIP3   OH212422   6.230   2.974   2.266
 4139TIP3    H112423   6.243   3.059   2.223
 4139TIP3    H212424   6.194   2.996   2.352
 4140TIP3   OH212425   4.733   0.189   1.293
 4140TIP3    H112426   4.692   0.118   1.343
 4140TIP3    H212427   4.754   0.256   1.357
 4141TIP3   OH212428   0.242   1.181   2.863
 4141TIP3    H112429   0.322   1.135   2.837
 4141TIP3    H212430   0.184   1.172   2.787
 4142TIP3   OH212431   2.035   1.150   4.255
 4142TIP3    H112432   2.018   1.217   4.321
 4142TIP3    H212433   1.988   1.073   4.288
 4143TIP3   OH212434   3.196   3.049   0.637
 4143TIP3    H112435   3.244   2.973   0.604
 4143TIP3    H212436   3.221   3.120   0.578
 4144TIP3   OH212437   6.250   2.417   2.866
 4144TIP3    H112438   6.290   2.453   2.945
 4144TIP3    H212439   6.317   2.359   2.828
 4145TIP3   OH212440   0.848   5.700   0.982
 4145TIP3    H112441   0.943   5.694   0.982
 4145TIP3    H212442   0.827   5.763   1.051
 4146TIP3   OH212443   1.181   4.352   0.948
 4146TIP3    H112444   1.271   4.321   0.963
 4146TIP3    H212445   1.190   4.446   0.933
 4147TIP3   OH212446   2.076   0.024   0.210
 4147TIP3    H112447   2.088   0.007   0.303
 4147TIP3    H212448   1.997   0.078   0.205
 4148TIP3   OH212449   3.586   4.639   2.446
 4148TIP3    H112450   3.612   4.582   2.518
 4148TIP3    H212451   3.501   4.675   2.473
 4149TIP3   OH212452   6.211   3.966   4.323
 4149TIP3    H112453   6.258   3.909   4.263
 4149TIP3    H212454   6.196   3.912   4.401
 4150TIP3   OH212455   1.144   3.426   0.238
 4150TIP3    H112456   1.181   3.419   0.326
 4150TIP3    H212457   1.132   3.520   0.224
 4151TIP3   OH212458   3.341   0.850   0.144
 4151TIP3    H112459   3.419   0.881   0.097
 4151TIP3    H212460   3.301   0.930   0.178
 4152TIP3   OH212461   0.184   5.687   0.462
 4152TIP3    H112462   0.256   5.700   0.400
 4152TIP3    H212463   0.142   5.773   0.467
 4153TIP3   OH212464   5.748   2.714   4.050
 4153TIP3    H112465   5.842   2.707   4.067
 4153TIP3    H212466   5.711   2.745   4.132
 4154TIP3   OH212467   2.623   3.977   2.388
 4154TIP3    H112468   2.700   4.027   2.359
 4154TIP3    H212469   2.658   3.917   2.454
 4155TIP3   OH212470   2.715   3.126   2.316
 4155TIP3    H112471   2.785   3.189   2.300
 4155TIP3    H212472   2.659   3.168   2.382
 4156TIP3   OH212473   4.067   1.203   2.977
 4156TIP3    H112474   4.132   1.137   2.953
 4156TIP3    H212475   4.023   1.224   2.895
 4157TIP3   OH212476   3.516   0.947   1.723
 4157TIP3    H112477   3.467   0.907   1.795
 4157TIP3    H212478   3.604   0.912   1.732
 4158TIP3   OH212479   1.731   4.861   1.150
 4158TIP3    H112480   1.743   4.785   1.093
 4158TIP3    H212481   1.820   4.887   1.174
 4159TIP3   OH212482   2.847   1.790   0.359
 4159TIP3    H112483   2.900   1.813   0.436
 4159TIP3    H212484   2.903   1.730   0.310
 4160TIP3   OH212485   1.842   1.661   1.310
 4160TIP3    H112486   1.771   1.696   1.363
 4160TIP3    H212487   1.798   1.601   1.249
 4161TIP3   OH212488   4.640   5.713   3.339
 4161TIP3    H112489   4.583   5.639   3.317
 4161TIP3    H212490   4.629   5.724   3.433
 4162TIP3   OH212491   2.294   3.207   2.546
 4162TIP3    H112492   2.302   3.301   2.529
 4162TIP3    H212493   2.207   3.198   2.584
 4163TIP3   OH212494   0.115   5.543   4.425
 4163TIP3    H112495   0.073   5.457   4.430
 4163TIP3    H212496   0.095   5.575   4.337
 4164TIP3   OH212497   3.608   3.836   3.230
 4164TIP3    H112498   3.530   3.890   3.244
 4164TIP3    H212499   3.578   3.746   3.242
 4165TIP3   OH212500   4.006   0.697   1.906
 4165TIP3    H112501   4.060   0.710   1.984
 4165TIP3    H212502   3.921   0.670   1.941
 4166TIP3   OH212503   1.963   1.668   0.408
 4166TIP3    H112504   2.002   1.697   0.325
 4166TIP3    H212505   1.928   1.748   0.447
 4167TIP3   OH212506   3.317   2.595   1.011
 4167TIP3    H112507   3.356   2.659   1.071
 4167TIP3    H212508   3.248   2.643   0.966
 4168TIP3   OH212509   4.241   1.989   0.775
 4168TIP3    H112510   4.231   1.935   0.697
 4168TIP3    H212511   4.231   1.929   0.849
 4169TIP3   OH212512  -0.013   2.720   1.543
 4169TIP3    H112513  -0.086   2.736   1.484
 4169TIP3    H212514   0.065   2.746   1.493
 4170TIP3   OH212515   2.185   5.466   2.225
 4170TIP3    H112516   2.149   5.549   2.255
 4170TIP3    H212517   2.254   5.445   2.288
 4171TIP3   OH212518   2.357   1.451   1.000
 4171TIP3    H112519   2.273   1.496   1.008
 4171TIP3    H212520   2.414   1.498   1.060
 4172TIP3   OH212521   5.671   0.631   4.343
 4172TIP3    H112522   5.718   0.604   4.421
 4172TIP3    H212523   5.589   0.582   4.345
 4173TIP3   OH212524   3.807   1.803   2.986
 4173TIP3    H112525   3.752   1.775   3.059
 4173TIP3    H212526   3.841   1.721   2.949
 4174TIP3   OH212527   0.778   1.822   2.999
 4174TIP3    H112528   0.806   1.911   2.977
 4174TIP3    H212529   0.859   1.771   2.998
 4175TIP3   OH212530   5.024   4.993   4.994
 4175TIP3    H112531   5.001   4.900   4.989
 4175TIP3    H212532   5.048   5.016   4.905
 4176TIP3   OH212533   5.836   3.933   4.487
 4176TIP3    H112534   5.788   3.850   4.495
 4176TIP3    H212535   5.874   3.930   4.400
 4177TIP3   OH212536   1.576   0.768   1.300
 4177TIP3    H112537   1.598   0.676   1.310
 4177TIP3    H212538   1.515   0.786   1.372
 4178TIP3   OH212539   0.909   4.560   1.916
 4178TIP3    H112540   0.830   4.516   1.884
 4178TIP3    H212541   0.976   4.538   1.852
 4179TIP3   OH212542   4.979   4.832   0.285
 4179TIP3    H112543   5.051   4.782   0.324
 4179TIP3    H212544   4.981   4.916   0.331
 4180TIP3   OH212545   1.771   2.922   4.349
 4180TIP3    H112546   1.862   2.922   4.378
 4180TIP3    H212547   1.722   2.961   4.422
 4181TIP3   OH212548   0.308   0.386   3.409
 4181TIP3    H112549   0.343   0.314   3.461
 4181TIP3    H212550   0.226   0.411   3.452
 4182TIP3   OH212551   3.108   0.266   3.495
 4182TIP3    H112552   3.197   0.236   3.512
 4182TIP3    H212553   3.119   0.341   3.437
 4183TIP3   OH212554   1.386   1.515   1.522
 4183TIP3    H112555   1.472   1.474   1.528
 4183TIP3    H212556   1.399   1.602   1.560
 4184TIP3   OH212557   3.414   4.124   0.024
 4184TIP3    H112558   3.328   4.090  -0.004
 4184TIP3    H212559   3.433   4.075   0.104
 4185TIP3   OH212560   5.333   5.719   0.172
 4185TIP3    H112561   5.362   5.776   0.101
 4185TIP3    H212562   5.276   5.655   0.129
 4186TIP3   OH212563   2.644   2.172   3.024
 4186TIP3    H112564   2.731   2.170   3.063
 4186TIP3    H212565   2.656   2.215   2.939
 4187TIP3   OH212566   0.764   4.194   3.986
 4187TIP3    H112567   0.714   4.252   4.043
 4187TIP3    H212568   0.822   4.252   3.936
 4188TIP3   OH212569   4.941   2.731   1.526
 4188TIP3    H112570   4.892   2.767   1.452
 4188TIP3    H212571   5.020   2.693   1.487
 4189TIP3   OH212572   4.159   2.874   0.064
 4189TIP3    H112573   4.140   2.909  -0.023
 4189TIP3    H212574   4.085   2.901   0.117
 4190TIP3   OH212575   5.926   5.170   1.861
 4190TIP3    H112576   5.902   5.214   1.779
 4190TIP3    H212577   6.011   5.208   1.885
 4191TIP3   OH212578   2.558   2.593   0.349
 4191TIP3    H112579   2.650   2.568   0.340
 4191TIP3    H212580   2.561   2.680   0.390
 4192TIP3   OH212581   1.072   3.693   2.501
 4192TIP3    H112582   1.078   3.644   2.419
 4192TIP3    H212583   0.984   3.731   2.499
 4193TIP3   OH212584   4.621   4.661   1.758
 4193TIP3    H112585   4.646   4.752   1.776
 4193TIP3    H212586   4.704   4.613   1.756
 4194TIP3   OH212587   3.132   1.020   5.039
 4194TIP3    H112588   3.094   1.084   4.979
 4194TIP3    H212589   3.133   0.938   4.989
 4195TIP3   OH212590   6.156   2.362   1.439
 4195TIP3    H112591   6.190   2.364   1.528
 4195TIP3    H212592   6.146   2.453   1.414
 4196TIP3   OH212593   5.864   0.450   0.052
 4196TIP3    H112594   5.843   0.447   0.145
 4196TIP3    H212595   5.913   0.531   0.040
 4197TIP3   OH212596   5.018   0.298   4.361
 4197TIP3    H112597   5.071   0.361   4.313
 4197TIP3    H212598   4.970   0.351   4.425
 4198TIP3   OH212599   5.186   3.703   3.237
 4198TIP3    H112600   5.143   3.692   3.153
 4198TIP3    H212601   5.224   3.791   3.234
 4199TIP3   OH212602   1.357   1.425   1.191
 4199TIP3    H112603   1.309   1.363   1.137
 4199TIP3    H212604   1.343   1.394   1.281
 4200TIP3   OH212605   5.011   1.926   1.785
 4200TIP3    H112606   4.947   1.943   1.854
 4200TIP3    H212607   4.974   1.966   1.707
 4201TIP3   OH212608   1.317   5.635   0.056
 4201TIP3    H112609   1.335   5.695  -0.017
 4201TIP3    H212610   1.395   5.641   0.111
 4202TIP3   OH212611   4.683   0.170   0.660
 4202TIP3    H112612   4.605   0.216   0.692
 4202TIP3    H212613   4.740   0.240   0.628
 4203TIP3   OH212614   4.097   4.261   4.480
 4203TIP3    H112615   4.113   4.167   4.470
 4203TIP3    H212616   4.173   4.302   4.441
 4204TIP3   OH212617   1.517   3.723   0.659
 4204TIP3    H112618   1.467   3.655   0.704
 4204TIP3    H212619   1.450   3.780   0.621
 4205TIP3   OH212620   2.465   3.622   2.974
 4205TIP3    H112621   2.447   3.590   2.885
 4205TIP3    H212622   2.400   3.690   2.989
 4206TIP3   OH212623   0.222   2.700   1.832
 4206TIP3    H112624   0.267   2.661   1.907
 4206TIP3    H212625   0.211   2.627   1.771
 4207TIP3   OH212626   2.907   4.896   4.122
 4207TIP3    H112627   2.931   4.871   4.033
 4207TIP3    H212628   2.879   4.987   4.115
 4208TIP3   OH212629   5.510   4.790   4.359
 4208TIP3    H112630   5.453   4.830   4.293
 4208TIP3    H212631   5.595   4.785   4.316
 4209TIP3   OH212632   0.411   2.910   4.628
 4209TIP3    H112633   0.493   2.873   4.662
 4209TIP3    H212634   0.434   2.946   4.543
 4210TIP3   OH212635   2.639   3.987   0.059
 4210TIP3    H112636   2.622   3.936   0.138
 4210TIP3    H212637   2.568   4.050   0.055
 4211TIP3   OH212638   3.869   1.786   3.667
 4211TIP3    H112639   3.850   1.752   3.580
 4211TIP3    H212640   3.784   1.801   3.707
 4212TIP3   OH212641   4.932   5.197   5.205
 4212TIP3    H112642   4.998   5.215   5.272
 4212TIP3    H212643   4.977   5.142   5.141
 4213TIP3   OH212644   6.304   4.004   2.393
 4213TIP3    H112645   6.333   4.091   2.419
 4213TIP3    H212646   6.352   3.945   2.451
 4214TIP3   OH212647   2.426   1.091   2.769
 4214TIP3    H112648   2.356   1.116   2.829
 4214TIP3    H212649   2.481   1.169   2.762
 4215TIP3   OH212650   1.247   2.536   3.513
 4215TIP3    H112651   1.283   2.525   3.425
 4215TIP3    H212652   1.304   2.602   3.554
 4216TIP3   OH212653   4.229   4.750   3.862
 4216TIP3    H112654   4.168   4.767   3.790
 4216TIP3    H212655   4.258   4.660   3.848
 4217TIP3   OH212656   3.662   5.383   4.941
 4217TIP3    H112657   3.604   5.326   4.889
 4217TIP3    H212658   3.616   5.466   4.945
 4218TIP3   OH212659   5.281   4.579   5.042
 4218TIP3    H112660   5.274   4.529   5.124
 4218TIP3    H212661   5.375   4.587   5.027
 4219TIP3   OH212662   0.493   5.133   2.011
 4219TIP3    H112663   0.553   5.179   1.952
 4219TIP3    H212664   0.408   5.175   1.997
 4220TIP3   OH212665   3.847   0.298   4.464
 4220TIP3    H112666   3.848   0.213   4.421
 4220TIP3    H212667   3.928   0.300   4.515
 4221TIP3   OH212668   1.201   3.148   3.148
 4221TIP3    H112669   1.197   3.232   3.193
 4221TIP3    H212670   1.172   3.084   3.213
 4222TIP3   OH212671   0.747   1.182   3.761
 4222TIP3    H112672   0.778   1.260   3.716
 4222TIP3    H212673   0.787   1.109   3.713
 4223TIP3   OH212674   3.270   4.241   0.268
 4223TIP3    H112675   3.191   4.188   0.262
 4223TIP3    H212676   3.328   4.207   0.200
 4224TIP3   OH212677   0.846   2.846   4.047
 4224TIP3    H112678   0.883   2.850   4.136
 4224TIP3    H212679   0.915   2.881   3.991
 4225TIP3   OH212680   2.800   4.228   0.511
 4225TIP3    H112681   2.834   4.306   0.556
 4225TIP3    H212682   2.878   4.182   0.481
 4226TIP3   OH212683   3.211   4.475   3.173
 4226TIP3    H112684   3.264   4.504   3.247
 4226TIP3    H212685   3.167   4.396   3.203
 4227TIP3   OH212686   2.657   0.292   3.947
 4227TIP3    H112687   2.686   0.279   3.857
 4227TIP3    H212688   2.728   0.340   3.988
 4228TIP3   OH212689   0.503   3.861   0.746
 4228TIP3    H112690   0.444   3.899   0.681
 4228TIP3    H212691   0.575   3.824   0.696
 4229TIP3   OH212692   1.589   1.696   3.755
 4229TIP3    H112693   1.567   1.786   3.729
 4229TIP3    H212694   1.667   1.705   3.810
 4230TIP3   OH212695   4.614   0.773   0.213
 4230TIP3    H112696   4.537   0.760   0.158
 4230TIP3    H212697   4.600   0.857   0.256
 4231TIP3   OH212698   1.621   1.806   2.848
 4231TIP3    H112699   1.572   1.882   2.815
 4231TIP3    H212700   1.558   1.759   2.903
 4232TIP3   OH212701   1.409   0.729   3.453
 4232TIP3    H112702   1.497   0.697   3.429
 4232TIP3    H212703   1.376   0.664   3.515
 4233TIP3   OH212704   6.079   5.637   4.132
 4233TIP3    H112705   6.139   5.647   4.058
 4233TIP3    H212706   6.003   5.689   4.108
 4234TIP3   OH212707   0.073   0.474   3.538
 4234TIP3    H112708  -0.020   0.455   3.528
 4234TIP3    H212709   0.085   0.557   3.492
 4235TIP3   OH212710   2.155   0.304   3.779
 4235TIP3    H112711   2.239   0.317   3.824
 4235TIP3    H212712   2.106   0.385   3.797
 4236TIP3   OH212713   1.633   5.775   1.284
 4236TIP3    H112714   1.659   5.862   1.316
 4236TIP3    H212715   1.571   5.744   1.350
 4237TIP3   OH212716   3.322   5.841   4.565
 4237TIP3    H112717   3.366   5.902   4.506
 4237TIP3    H212718   3.257   5.895   4.611
 4238TIP3   OH212719   4.819   2.152   2.454
 4238TIP3    H112720   4.869   2.231   2.473
 4238TIP3    H212721   4.817   2.148   2.358
 4239TIP3   OH212722   5.070   5.566   0.079
 4239TIP3    H112723   5.035   5.600   0.162
 4239TIP3    H212724   5.023   5.615   0.012
 4240TIP3   OH212725   4.127   4.223   0.220
 4240TIP3    H112726   4.180   4.164   0.166
 4240TIP3    H212727   4.050   4.243   0.166
 4241TIP3   OH212728   0.704   0.311   4.846
 4241TIP3    H112729   0.667   0.250   4.911
 4241TIP3    H212730   0.674   0.397   4.874
 4242TIP3   OH212731  -0.022   5.815   3.712
 4242TIP3    H112732  -0.045   5.760   3.636
 4242TIP3    H212733   0.072   5.827   3.706
 4243TIP3   OH212734   4.234   3.058   2.543
 4243TIP3    H112735   4.194   3.128   2.595
 4243TIP3    H212736   4.280   3.105   2.473
 4244TIP3   OH212737   1.449   5.036   4.711
 4244TIP3    H112738   1.445   5.101   4.640
 4244TIP3    H212739   1.486   4.958   4.671
 4245TIP3   OH212740   0.984   4.178   4.650
 4245TIP3    H112741   1.000   4.086   4.626
 4245TIP3    H212742   0.904   4.175   4.702
 4246TIP3   OH212743   2.242   1.330   0.788
 4246TIP3    H112744   2.307   1.280   0.739
 4246TIP3    H212745   2.293   1.396   0.835
 4247TIP3   OH212746   3.731   5.714   2.164
 4247TIP3    H112747   3.797   5.646   2.153
 4247TIP3    H212748   3.740   5.769   2.085
 4248TIP3   OH212749   6.136   5.415   5.000
 4248TIP3    H112750   6.062   5.357   5.018
 4248TIP3    H212751   6.146   5.467   5.080
 4249TIP3   OH212752   0.317   1.876   0.110
 4249TIP3    H112753   0.311   1.971   0.098
 4249TIP3    H212754   0.403   1.853   0.074
 4250TIP3   OH212755   1.305   4.257   1.641
 4250TIP3    H112756   1.377   4.271   1.579
 4250TIP3    H212757   1.226   4.261   1.587
 4251TIP3   OH212758   0.110   1.523   2.902
 4251TIP3    H112759   0.112   1.607   2.948
 4251TIP3    H212760   0.161   1.464   2.957
 4252TIP3   OH212761   2.099   4.488   1.551
 4252TIP3    H112762   2.061   4.514   1.634
 4252TIP3    H212763   2.027   4.497   1.488
 4253TIP3   OH212764   3.916   5.916   0.482
 4253TIP3    H112765   3.828   5.917   0.520
 4253TIP3    H212766   3.973   5.889   0.553
 4254TIP3   OH212767   1.624   4.725   3.445
 4254TIP3    H112768   1.558   4.702   3.379
 4254TIP3    H212769   1.582   4.791   3.499
 4255TIP3   OH212770   0.994   0.882   2.887
 4255TIP3    H112771   1.010   0.959   2.832
 4255TIP3    H212772   1.066   0.883   2.951
 4256TIP3   OH212773   5.961   1.283   0.241
 4256TIP3    H112774   5.943   1.358   0.184
 4256TIP3    H212775   5.887   1.280   0.301
 4257TIP3   OH212776   5.749   3.077   3.701
 4257TIP3    H112777   5.732   3.005   3.761
 4257TIP3    H212778   5.675   3.077   3.640
 4258TIP3   OH212779   2.985   0.065   4.286
 4258TIP3    H112780   3.055   0.000   4.293
 4258TIP3    H212781   2.916   0.021   4.236
 4259TIP3   OH212782   4.131   5.619   4.694
 4259TIP3    H112783   4.043   5.587   4.712
 4259TIP3    H212784   4.172   5.550   4.642
 4260TIP3   OH212785   3.141   4.573   5.106
 4260TIP3    H112786   3.090   4.508   5.155
 4260TIP3    H212787   3.207   4.521   5.060
 4261TIP3   OH212788   3.279   4.903   2.217
 4261TIP3    H112789   3.249   4.949   2.139
 4261TIP3    H212790   3.199   4.865   2.254
 4262TIP3   OH212791   3.658   4.807   2.759
 4262TIP3    H112792   3.639   4.894   2.795
 4262TIP3    H212793   3.714   4.825   2.683
 4263TIP3   OH212794   1.900   5.478   2.221
 4263TIP3    H112795   1.961   5.535   2.268
 4263TIP3    H212796   1.825   5.534   2.201
 4264TIP3   OH212797   5.999   1.683   3.751
 4264TIP3    H112798   5.985   1.650   3.839
 4264TIP3    H212799   6.052   1.616   3.708
 4265TIP3   OH212800   3.745   0.422   2.692
 4265TIP3    H112801   3.711   0.431   2.781
 4265TIP3    H212802   3.676   0.375   2.645
 4266TIP3   OH212803   1.187   2.800   4.622
 4266TIP3    H112804   1.171   2.884   4.664
 4266TIP3    H212805   1.223   2.822   4.536
 4267TIP3   OH212806   0.280   2.697   4.335
 4267TIP3    H112807   0.365   2.730   4.362
 4267TIP3    H212808   0.290   2.602   4.337
 4268TIP3   OH212809   0.756   2.232   3.107
 4268TIP3    H112810   0.765   2.221   3.013
 4268TIP3    H212811   0.809   2.163   3.145
 4269TIP3   OH212812   1.003   4.081   2.082
 4269TIP3    H112813   0.974   4.074   1.991
 4269TIP3    H212814   1.029   4.173   2.092
 4270TIP3   OH212815   4.114   3.309   4.256
 4270TIP3    H112816   4.089   3.401   4.266
 4270TIP3    H212817   4.145   3.283   4.343
 4271TIP3   OH212818   4.276   3.233   0.981
 4271TIP3    H112819   4.236   3.209   1.065
 4271TIP3    H212820   4.345   3.295   1.004
 4272TIP3   OH212821   5.065   1.063   2.211
 4272TIP3    H112822   4.989   1.091   2.158
 4272TIP3    H212823   5.102   1.145   2.244
 4273TIP3   OH212824   0.980   2.407   1.864
 4273TIP3    H112825   0.903   2.404   1.807
 4273TIP3    H212826   0.944   2.400   1.952
 4274TIP3   OH212827   3.227   4.865   3.925
 4274TIP3    H112828   3.212   4.776   3.958
 4274TIP3    H212829   3.246   4.853   3.832
 4275TIP3   OH212830   5.470   4.088   4.866
 4275TIP3    H112831   5.531   4.156   4.835
 4275TIP3    H212832   5.400   4.137   4.910
 4276TIP3   OH212833   4.864   4.581   0.045
 4276TIP3    H112834   4.795   4.529   0.087
 4276TIP3    H212835   4.942   4.525   0.051
 4277TIP3   OH212836   1.282   3.907   0.594
 4277TIP3    H112837   1.241   3.894   0.679
 4277TIP3    H212838   1.330   3.989   0.602
 4278TIP3   OH212839   3.252   4.062   2.957
 4278TIP3    H112840   3.191   4.044   3.028
 4278TIP3    H212841   3.323   4.111   2.998
 4279TIP3   OH212842   2.488   0.057   2.335
 4279TIP3    H112843   2.563   0.112   2.360
 4279TIP3    H212844   2.527  -0.029   2.319
 4280TIP3   OH212845   2.314   3.352   3.857
 4280TIP3    H112846   2.321   3.433   3.808
 4280TIP3    H212847   2.251   3.372   3.927
 4281TIP3   OH212848   6.188   4.249   4.627
 4281TIP3    H112849   6.190   4.294   4.712
 4281TIP3    H212850   6.227   4.164   4.644
 4282TIP3   OH212851   1.666   4.233   2.088
 4282TIP3    H112852   1.610   4.198   2.156
 4282TIP3    H212853   1.609   4.287   2.035
 4283TIP3   OH212854   3.695   4.985   1.004
 4283TIP3    H112855   3.656   4.899   0.987
 4283TIP3    H212856   3.694   5.029   0.919
 4284TIP3   OH212857   0.140   5.734   1.651
 4284TIP3    H112858   0.071   5.786   1.610
 4284TIP3    H212859   0.213   5.796   1.662
 4285TIP3   OH212860   5.441   1.999   1.238
 4285TIP3    H112861   5.450   2.088   1.204
 4285TIP3    H212862   5.509   1.992   1.305
 4286TIP3   OH212863   4.379   4.937   3.408
 4286TIP3    H112864   4.358   4.965   3.497
 4286TIP3    H212865   4.467   4.899   3.415
 4287TIP3   OH212866   3.094   2.383   3.544
 4287TIP3    H112867   3.142   2.387   3.626
 4287TIP3    H212868   3.062   2.472   3.529
 4288TIP3   OH212869   0.306   2.899   1.632
 4288TIP3    H112870   0.212   2.903   1.615
 4288TIP3    H212871   0.315   2.830   1.698
 4289TIP3   OH212872   0.581   0.455   1.087
 4289TIP3    H112873   0.519   0.516   1.045
 4289TIP3    H212874   0.592   0.385   1.023
 4290TIP3   OH212875   0.517   2.201   3.248
 4290TIP3    H112876   0.594   2.254   3.226
 4290TIP3    H212877   0.495   2.156   3.167
 4291TIP3   OH212878   1.700   1.894   5.002
 4291TIP3    H112879   1.643   1.872   5.075
 4291TIP3    H212880   1.740   1.977   5.026
 4292TIP3   OH212881   2.189   2.927   2.060
 4292TIP3    H112882   2.254   2.950   2.126
 4292TIP3    H212883   2.219   2.972   1.981
 4293TIP3   OH212884   0.892   1.827   1.541
 4293TIP3    H112885   0.849   1.747   1.512
 4293TIP3    H212886   0.981   1.820   1.507
 4294TIP3   OH212887   3.584   3.516   3.381
 4294TIP3    H112888   3.534   3.511   3.299
 4294TIP3    H212889   3.552   3.595   3.424
 4295TIP3   OH212890   0.048   1.866   0.122
 4295TIP3    H112891   0.143   1.852   0.129
 4295TIP3    H212892   0.027   1.924   0.195
 4296TIP3   OH212893   2.544   0.860   0.899
 4296TIP3    H112894   2.591   0.875   0.816
 4296TIP3    H212895   2.496   0.941   0.915
 4297TIP3   OH212896   2.669   0.798   0.329
 4297TIP3    H112897   2.671   0.855   0.252
 4297TIP3    H212898   2.676   0.858   0.404
 4298TIP3   OH212899   4.397   4.207   3.027
 4298TIP3    H112900   4.423   4.244   2.942
 4298TIP3    H212901   4.480   4.192   3.073
 4299TIP3   OH212902   0.032   4.263   2.467
 4299TIP3    H112903   0.043   4.285   2.374
 4299TIP3    H212904   0.049   4.345   2.513
 4300TIP3   OH212905   1.888   2.984   1.227
 4300TIP3    H112906   1.830   2.947   1.294
 4300TIP3    H212907   1.975   2.951   1.249
 4301TIP3   OH212908   1.320   0.323   2.302
 4301TIP3    H112909   1.343   0.387   2.369
 4301TIP3    H212910   1.400   0.273   2.288
 4302TIP3   OH212911   1.037   1.269   3.990
 4302TIP3    H112912   1.027   1.205   3.919
 4302TIP3    H212913   0.984   1.233   4.062
 4303TIP3   OH212914   3.863   5.566   5.189
 4303TIP3    H112915   3.890   5.543   5.099
 4303TIP3    H212916   3.946   5.583   5.234
 4304TIP3   OH212917   3.862   0.745   4.956
 4304TIP3    H112918   3.920   0.756   5.032
 4304TIP3    H212919   3.788   0.804   4.974
 4305TIP3   OH212920   5.610  -0.043   2.413
 4305TIP3    H112921   5.547  -0.012   2.348
 4305TIP3    H212922   5.631   0.034   2.466
 4306TIP3   OH212923   1.263   3.437   1.883
 4306TIP3    H112924   1.198   3.367   1.879
 4306TIP3    H212925   1.295   3.434   1.974
 4307TIP3   OH212926   5.891   1.486   5.208
 4307TIP3    H112927   5.927   1.561   5.161
 4307TIP3    H212928   5.839   1.440   5.143
 4308TIP3   OH212929   0.409   2.523   3.970
 4308TIP3    H112930   0.448   2.436   3.955
 4308TIP3    H212931   0.454   2.555   4.048
 4309TIP3   OH212932   0.426   1.606   2.943
 4309TIP3    H112933   0.369   1.535   2.973
 4309TIP3    H212934   0.476   1.631   3.021
 4310TIP3   OH212935   5.680   5.949   2.021
 4310TIP3    H112936   5.697   6.041   2.044
 4310TIP3    H212937   5.766   5.907   2.024
 4311TIP3   OH212938   2.225   2.417   5.092
 4311TIP3    H112939   2.199   2.374   5.174
 4311TIP3    H212940   2.243   2.344   5.032
 4312TIP3   OH212941   6.021   5.401   2.576
 4312TIP3    H112942   6.004   5.494   2.562
 4312TIP3    H212943   6.113   5.397   2.601
 4313TIP3   OH212944   1.611   2.073   0.468
 4313TIP3    H112945   1.683   2.034   0.420
 4313TIP3    H212946   1.551   2.105   0.400
 4314TIP3   OH212947   4.305   0.096   0.902
 4314TIP3    H112948   4.301   0.076   0.809
 4314TIP3    H212949   4.378   0.157   0.910
 4315TIP3   OH212950   4.955   3.262   3.955
 4315TIP3    H112951   4.885   3.209   3.917
 4315TIP3    H212952   5.034   3.233   3.909
 4316TIP3   OH212953   5.939   2.755   4.755
 4316TIP3    H112954   6.002   2.744   4.826
 4316TIP3    H212955   5.855   2.764   4.799
 4317TIP3   OH212956   0.666   2.589   3.792
 4317TIP3    H112957   0.643   2.589   3.699
 4317TIP3    H212958   0.739   2.528   3.798
 4318TIP3   OH212959   2.054   0.697   4.660
 4318TIP3    H112960   2.035   0.621   4.715
 4318TIP3    H212961   2.060   0.662   4.571
 4319TIP3   OH212962   4.665   1.777   3.582
 4319TIP3    H112963   4.606   1.728   3.640
 4319TIP3    H212964   4.623   1.772   3.496
 4320TIP3   OH212965   4.439   1.008   4.153
 4320TIP3    H112966   4.422   0.927   4.202
 4320TIP3    H212967   4.431   0.982   4.061
 4321TIP3   OH212968   1.804   5.352   3.197
 4321TIP3    H112969   1.709   5.366   3.194
 4321TIP3    H212970   1.814   5.269   3.243
 4322TIP3   OH212971   2.908   0.686   0.485
 4322TIP3    H112972   2.899   0.738   0.405
 4322TIP3    H212973   2.821   0.689   0.526
 4323TIP3   OH212974   4.116   2.231   1.463
 4323TIP3    H112975   4.130   2.326   1.461
 4323TIP3    H212976   4.198   2.194   1.429
 4324TIP3   OH212977   4.851   5.091   1.511
 4324TIP3    H112978   4.878   5.037   1.585
 4324TIP3    H212979   4.773   5.138   1.542
 4325TIP3   OH212980   5.869   2.564   0.690
 4325TIP3    H112981   5.777   2.542   0.703
 4325TIP3    H212982   5.879   2.575   0.596
 4326TIP3   OH212983   1.013   5.261   1.993
 4326TIP3    H112984   0.936   5.204   1.994
 4326TIP3    H212985   0.985   5.340   2.039
 4327TIP3   OH212986   3.779   0.836   3.354
 4327TIP3    H112987   3.835   0.871   3.423
 4327TIP3    H212988   3.827   0.851   3.273
 4328TIP3   OH212989   0.744   4.447   4.134
 4328TIP3    H112990   0.762   4.530   4.090
 4328TIP3    H212991   0.738   4.469   4.226
 4329TIP3   OH212992   3.217   3.887   5.097
 4329TIP3    H112993   3.309   3.897   5.123
 4329TIP3    H212994   3.180   3.975   5.105
 4330TIP3   OH212995   3.642   1.709   1.957
 4330TIP3    H112996   3.661   1.645   1.888
 4330TIP3    H212997   3.728   1.729   1.995
 4331TIP3   OH212998   1.506   3.680   3.442
 4331TIP3    H112999   1.426   3.631   3.464
 4331TIP3    H213000   1.478   3.743   3.376
 4332TIP3   OH213001   1.715   0.506   0.534
 4332TIP3    H113002   1.621   0.509   0.550
 4332TIP3    H213003   1.724   0.487   0.441
 4333TIP3   OH213004   0.064   1.444   4.996
 4333TIP3    H113005   0.146   1.494   4.992
 4333TIP3    H213006   0.058   1.401   4.910
 4334TIP3   OH213007   4.967   3.637   1.708
 4334TIP3    H113008   4.925   3.587   1.778
 4334TIP3    H213009   4.956   3.582   1.630
 4335TIP3   OH213010   1.535   3.718   4.560
 4335TIP3    H113011   1.440   3.723   4.560
 4335TIP3    H213012   1.560   3.745   4.649
 4336TIP3   OH213013   5.365   1.520   0.106
 4336TIP3    H113014   5.400   1.437   0.139
 4336TIP3    H213015   5.402   1.529   0.018
 4337TIP3   OH213016   3.646   1.199   1.792
 4337TIP3    H113017   3.604   1.129   1.742
 4337TIP3    H213018   3.730   1.163   1.818
 4338TIP3   OH213019   3.946   1.496   2.492
 4338TIP3    H113020   4.008   1.541   2.434
 4338TIP3    H213021   3.883   1.565   2.517
 4339TIP3   OH213022   3.930   4.019   2.236
 4339TIP3    H113023   3.937   4.073   2.157
 4339TIP3    H213024   3.849   3.970   2.224
 4340TIP3   OH213025   3.559   3.685   5.123
 4340TIP3    H113026   3.648   3.669   5.154
 4340TIP3    H213027   3.529   3.760   5.175
 4341TIP3   OH213028   3.813   4.944   4.745
 4341TIP3    H113029   3.904   4.940   4.774
 4341TIP3    H213030   3.791   4.853   4.724
 4342TIP3   OH213031   2.608   0.031   1.219
 4342TIP3    H113032   2.612  -0.040   1.155
 4342TIP3    H213033   2.680   0.090   1.195
 4343TIP3   OH213034   4.982   1.923   2.633
 4343TIP3    H113035   4.893   1.913   2.600
 4343TIP3    H213036   4.980   2.007   2.680
 4344TIP3   OH213037   1.126   0.903   0.437
 4344TIP3    H113038   1.040   0.928   0.405
 4344TIP3    H213039   1.139   0.957   0.515
 4345TIP3   OH213040   5.282   3.220   2.489
 4345TIP3    H113041   5.209   3.278   2.510
 4345TIP3    H213042   5.359   3.276   2.490
 4346TIP3   OH213043   2.376   2.820   2.853
 4346TIP3    H113044   2.363   2.763   2.778
 4346TIP3    H213045   2.467   2.805   2.880
 4347TIP3   OH213046   0.071   5.908   3.274
 4347TIP3    H113047   0.001   5.974   3.277
 4347TIP3    H213048   0.129   5.932   3.346
 4348TIP3   OH213049   0.801   5.100   4.764
 4348TIP3    H113050   0.861   5.171   4.782
 4348TIP3    H213051   0.857   5.026   4.739
 4349TIP3   OH213052   0.842   1.576   4.519
 4349TIP3    H113053   0.851   1.664   4.482
 4349TIP3    H213054   0.766   1.539   4.474
 4350TIP3   OH213055   0.058   3.871   4.867
 4350TIP3    H113056   0.140   3.831   4.899
 4350TIP3    H213057   0.000   3.797   4.853
 4351TIP3   OH213058   3.447   5.925   0.783
 4351TIP3    H113059   3.533   5.953   0.753
 4351TIP3    H213060   3.434   5.839   0.742
 4352TIP3   OH213061   3.816   1.506   1.014
 4352TIP3    H113062   3.764   1.506   1.094
 4352TIP3    H213063   3.754   1.485   0.944
 4353TIP3   OH213064   5.099  -0.015   2.058
 4353TIP3    H113065   5.050   0.065   2.076
 4353TIP3    H213066   5.114  -0.054   2.144
 4354TIP3   OH213067   5.027   1.533   4.808
 4354TIP3    H113068   5.036   1.445   4.771
 4354TIP3    H213069   5.079   1.530   4.889
 4355TIP3   OH213070   4.048   3.766   1.935
 4355TIP3    H113071   4.044   3.709   1.858
 4355TIP3    H213072   4.138   3.800   1.936
 4356TIP3   OH213073   2.437   1.042   5.151
 4356TIP3    H113074   2.456   0.979   5.081
 4356TIP3    H213075   2.459   1.127   5.112
 4357TIP3   OH213076   3.166   4.531   2.902
 4357TIP3    H113077   3.180   4.536   2.997
 4357TIP3    H213078   3.253   4.547   2.865
 4358TIP3   OH213079   0.036   0.631   3.230
 4358TIP3    H113080   0.022   0.673   3.315
 4358TIP3    H213081  -0.028   0.560   3.228
 4359TIP3   OH213082   2.238   5.253   2.539
 4359TIP3    H113083   2.154   5.207   2.531
 4359TIP3    H213084   2.290   5.198   2.598
 4360TIP3   OH213085   4.504   5.369   0.418
 4360TIP3    H113086   4.552   5.431   0.473
 4360TIP3    H213087   4.566   5.297   0.403
 4361TIP3   OH213088   5.365   5.646   1.176
 4361TIP3    H113089   5.393   5.622   1.265
 4361TIP3    H213090   5.290   5.705   1.190
 4362TIP3   OH213091   3.498   1.716   2.648
 4362TIP3    H113092   3.585   1.687   2.619
 4362TIP3    H213093   3.502   1.811   2.642
 4363TIP3   OH213094   1.633   4.616   4.460
 4363TIP3    H113095   1.640   4.533   4.507
 4363TIP3    H213096   1.669   4.598   4.373
 4364TIP3   OH213097   4.007   5.220   2.290
 4364TIP3    H113098   3.923   5.266   2.293
 4364TIP3    H213099   4.072   5.287   2.310
 4365TIP3   OH213100   5.892   5.400   2.260
 4365TIP3    H113101   5.861   5.481   2.299
 4365TIP3    H213102   5.988   5.406   2.267
 4366TIP3   OH213103   3.602   1.607   3.764
 4366TIP3    H113104   3.606   1.688   3.815
 4366TIP3    H213105   3.565   1.634   3.680
 4367TIP3   OH213106   2.474   3.013   2.215
 4367TIP3    H113107   2.535   3.067   2.265
 4367TIP3    H213108   2.460   3.063   2.134
 4368TIP3   OH213109   1.666   1.943   4.037
 4368TIP3    H113110   1.578   1.908   4.035
 4368TIP3    H213111   1.661   2.024   3.986
 4369TIP3   OH213112   3.453   5.767   2.054
 4369TIP3    H113113   3.505   5.736   2.128
 4369TIP3    H213114   3.471   5.860   2.048
 4370TIP3   OH213115   5.530   5.313   1.855
 4370TIP3    H113116   5.526   5.407   1.842
 4370TIP3    H213117   5.611   5.298   1.903
 4371TIP3   OH213118   0.495   4.208   3.411
 4371TIP3    H113119   0.399   4.212   3.401
 4371TIP3    H213120   0.520   4.295   3.440
 4372TIP3   OH213121   2.493   5.909   3.798
 4372TIP3    H113122   2.517   5.834   3.742
 4372TIP3    H213123   2.440   5.871   3.868
 4373TIP3   OH213124   1.146   2.945   3.324
 4373TIP3    H113125   1.068   2.889   3.332
 4373TIP3    H213126   1.204   2.896   3.265
 4374TIP3   OH213127   5.931   1.796   1.260
 4374TIP3    H113128   5.967   1.807   1.348
 4374TIP3    H213129   5.973   1.866   1.209
 4375TIP3   OH213130   0.669   5.201   1.752
 4375TIP3    H113131   0.736   5.138   1.775
 4375TIP3    H213132   0.702   5.245   1.674
 4376TIP3   OH213133   4.362   2.993   4.722
 4376TIP3    H113134   4.290   3.049   4.750
 4376TIP3    H213135   4.397   3.034   4.643
 4377TIP3   OH213136   5.677   0.296   1.530
 4377TIP3    H113137   5.589   0.308   1.566
 4377TIP3    H213138   5.674   0.212   1.485
 4378TIP3   OH213139   3.442   2.596   2.769
 4378TIP3    H113140   3.418   2.685   2.743
 4378TIP3    H213141   3.460   2.551   2.687
 4379TIP3   OH213142   0.906   2.421   4.054
 4379TIP3    H113143   0.863   2.339   4.080
 4379TIP3    H213144   0.879   2.434   3.963
 4380TIP3   OH213145   2.935   4.764   4.995
 4380TIP3    H113146   3.020   4.724   5.011
 4380TIP3    H213147   2.875   4.690   4.984
 4381TIP3   OH213148   0.995   4.246   1.561
 4381TIP3    H113149   0.938   4.192   1.506
 4381TIP3    H213150   1.000   4.199   1.644
 4382TIP3   OH213151   0.046   3.960   1.119
 4382TIP3    H113152   0.082   4.027   1.060
 4382TIP3    H213153   0.076   3.986   1.206
 4383TIP3   OH213154   2.819   0.691   3.087
 4383TIP3    H113155   2.822   0.624   3.155
 4383TIP3    H213156   2.891   0.750   3.108
 4384TIP3   OH213157   2.588   3.363   0.769
 4384TIP3    H113158   2.671   3.411   0.758
 4384TIP3    H213159   2.540   3.382   0.688
 4385TIP3   OH213160   3.495   2.390   1.133
 4385TIP3    H113161   3.418   2.428   1.092
 4385TIP3    H213162   3.553   2.465   1.150
 4386TIP3   OH213163   1.966   5.381   0.673
 4386TIP3    H113164   1.879   5.389   0.713
 4386TIP3    H213165   2.010   5.312   0.724
 4387TIP3   OH213166   4.076   4.017   4.221
 4387TIP3    H113167   4.084   3.941   4.164
 4387TIP3    H213168   4.153   4.013   4.277
 4388TIP3   OH213169   4.217   4.171   1.448
 4388TIP3    H113170   4.229   4.095   1.506
 4388TIP3    H213171   4.141   4.147   1.394
 4389TIP3   OH213172   1.477   1.202   4.638
 4389TIP3    H113173   1.476   1.110   4.665
 4389TIP3    H213174   1.414   1.245   4.695
 4390TIP3   OH213175   3.663   0.501   4.419
 4390TIP3    H113176   3.725   0.437   4.454
 4390TIP3    H213177   3.579   0.475   4.456
 4391TIP3   OH213178   3.944   2.006   0.439
 4391TIP3    H113179   3.861   1.967   0.413
 4391TIP3    H213180   3.920   2.079   0.496
 4392TIP3   OH213181   1.784   2.278   3.678
 4392TIP3    H113182   1.827   2.327   3.749
 4392TIP3    H213183   1.697   2.259   3.711
 4393TIP3   OH213184   5.431   2.946   0.797
 4393TIP3    H113185   5.466   3.033   0.778
 4393TIP3    H213186   5.416   2.946   0.892
 4394TIP3   OH213187   4.001   0.555   1.657
 4394TIP3    H113188   3.915   0.512   1.656
 4394TIP3    H213189   4.014   0.580   1.748
 4395TIP3   OH213190   5.288   1.673   3.915
 4395TIP3    H113191   5.266   1.609   3.848
 4395TIP3    H213192   5.219   1.739   3.909
 4396TIP3   OH213193   0.255   4.427   0.464
 4396TIP3    H113194   0.305   4.509   0.470
 4396TIP3    H213195   0.168   4.450   0.495
 4397TIP3   OH213196   0.973   5.264   0.538
 4397TIP3    H113197   1.015   5.249   0.453
 4397TIP3    H213198   0.927   5.348   0.528
 4398TIP3   OH213199   0.136   2.990   0.293
 4398TIP3    H113200   0.137   3.059   0.359
 4398TIP3    H213201   0.045   2.960   0.292
 4399TIP3   OH213202   2.314   5.708   0.480
 4399TIP3    H113203   2.242   5.647   0.500
 4399TIP3    H213204   2.301   5.731   0.388
 4400TIP3   OH213205   0.847   1.311   3.504
 4400TIP3    H113206   0.858   1.251   3.430
 4400TIP3    H213207   0.935   1.344   3.521
 4401TIP3   OH213208   4.870   1.021   3.719
 4401TIP3    H113209   4.869   0.965   3.796
 4401TIP3    H213210   4.918   1.099   3.747
 4402TIP3   OH213211   2.071   1.069   1.957
 4402TIP3    H113212   2.112   1.048   2.041
 4402TIP3    H213213   2.138   1.119   1.910
 4403TIP3   OH213214  -0.001   1.018   4.934
 4403TIP3    H113215   0.085   1.031   4.896
 4403TIP3    H213216  -0.032   1.105   4.958
 4404TIP3   OH213217   4.939   3.546   1.436
 4404TIP3    H113218   4.875   3.485   1.472
 4404TIP3    H213219   4.914   3.556   1.344
 4405TIP3   OH213220   1.614   0.413   0.174
 4405TIP3    H113221   1.626   0.477   0.245
 4405TIP3    H213222   1.573   0.338   0.217
 4406TIP3   OH213223   4.634   2.551   5.090
 4406TIP3    H113224   4.614   2.643   5.104
 4406TIP3    H213225   4.666   2.547   4.999
 4407TIP3   OH213226   4.276   2.059   1.176
 4407TIP3    H113227   4.223   1.988   1.140
 4407TIP3    H213228   4.282   2.123   1.104
 4408TIP3   OH213229   4.752   1.255   0.446
 4408TIP3    H113230   4.742   1.304   0.364
 4408TIP3    H213231   4.704   1.307   0.511
 4409TIP3   OH213232   5.719   4.165   3.067
 4409TIP3    H113233   5.677   4.207   2.992
 4409TIP3    H213234   5.813   4.174   3.049
 4410TIP3   OH213235   2.530   1.979   2.162
 4410TIP3    H113236   2.531   1.925   2.241
 4410TIP3    H213237   2.493   1.921   2.095
 4411TIP3   OH213238   0.843   0.901   3.926
 4411TIP3    H113239   0.781   0.857   3.868
 4411TIP3    H213240   0.792   0.969   3.969
 4412TIP3   OH213241   4.124   3.715   2.447
 4412TIP3    H113242   4.086   3.639   2.402
 4412TIP3    H213243   4.195   3.679   2.500
 4413TIP3   OH213244   0.821   2.326   5.002
 4413TIP3    H113245   0.821   2.340   4.908
 4413TIP3    H213246   0.777   2.403   5.038
 4414TIP3   OH213247   4.373   3.811   4.393
 4414TIP3    H113248   4.449   3.843   4.345
 4414TIP3    H213249   4.339   3.889   4.439
 4415TIP3   OH213250   1.827   0.732   2.901
 4415TIP3    H113251   1.756   0.796   2.902
 4415TIP3    H213252   1.788   0.653   2.862
 4416TIP3   OH213253   0.770   0.130   3.211
 4416TIP3    H113254   0.815   0.184   3.276
 4416TIP3    H213255   0.712   0.191   3.165
 4417TIP3   OH213256   3.658   2.584   0.037
 4417TIP3    H113257   3.698   2.666   0.007
 4417TIP3    H213258   3.638   2.599   0.129
 4418TIP3   OH213259   3.686   3.494   2.683
 4418TIP3    H113260   3.611   3.554   2.683
 4418TIP3    H213261   3.667   3.430   2.750
 4419TIP3   OH213262   2.048   4.076   0.915
 4419TIP3    H113263   2.073   4.150   0.860
 4419TIP3    H213264   1.964   4.046   0.879
 4420TIP3   OH213265   1.070   0.483   1.854
 4420TIP3    H113266   1.042   0.395   1.829
 4420TIP3    H213267   1.105   0.473   1.942
 4421TIP3   OH213268   1.346   4.406   2.924
 4421TIP3    H113269   1.290   4.345   2.875
 4421TIP3    H213270   1.292   4.431   3.000
 4422TIP3   OH213271   1.311   1.921   3.644
 4422TIP3    H113272   1.262   1.999   3.618
 4422TIP3    H213273   1.403   1.947   3.638
 4423TIP3   OH213274   2.500   2.909   0.107
 4423TIP3    H113275   2.480   2.946   0.021
 4423TIP3    H213276   2.454   2.966   0.169
 4424TIP3   OH213277   3.135   3.539   3.950
 4424TIP3    H113278   3.060   3.598   3.952
 4424TIP3    H213279   3.097   3.452   3.941
 4425TIP3   OH213280   5.151   4.961   0.550
 4425TIP3    H113281   5.197   4.913   0.619
 4425TIP3    H213282   5.222   5.003   0.500
 4426TIP3   OH213283   1.129   0.803   1.927
 4426TIP3    H113284   1.052   0.848   1.962
 4426TIP3    H213285   1.100   0.713   1.914
 4427TIP3   OH213286   3.258   1.844   2.811
 4427TIP3    H113287   3.234   1.797   2.891
 4427TIP3    H213288   3.317   1.914   2.840
 4428TIP3   OH213289   0.947   1.693   4.926
 4428TIP3    H113290   0.913   1.667   5.012
 4428TIP3    H213291   0.955   1.611   4.878
 4429TIP3   OH213292   2.791   0.895   4.975
 4429TIP3    H113293   2.744   0.815   4.950
 4429TIP3    H213294   2.777   0.903   5.069
 4430TIP3   OH213295   5.793   2.345   3.153
 4430TIP3    H113296   5.795   2.396   3.234
 4430TIP3    H213297   5.879   2.361   3.113
 4431TIP3   OH213298   2.440   3.161   0.247
 4431TIP3    H113299   2.365   3.171   0.306
 4431TIP3    H213300   2.478   3.248   0.241
 4432TIP3   OH213301   2.115   2.234   2.754
 4432TIP3    H113302   2.163   2.203   2.677
 4432TIP3    H213303   2.179   2.284   2.804
 4433TIP3   OH213304   4.287   0.316   4.858
 4433TIP3    H113305   4.357   0.287   4.916
 4433TIP3    H213306   4.331   0.364   4.789
 4434TIP3   OH213307   1.418   0.537   4.985
 4434TIP3    H113308   1.420   0.467   4.919
 4434TIP3    H213309   1.375   0.610   4.940
 4435TIP3   OH213310   2.698   3.489   5.161
 4435TIP3    H113311   2.791   3.506   5.174
 4435TIP3    H213312   2.692   3.393   5.160
 4436TIP3   OH213313   1.955   0.382   0.317
 4436TIP3    H113314   1.899   0.330   0.374
 4436TIP3    H213315   2.043   0.370   0.352
 4437TIP3   OH213316   3.550   1.676   0.202
 4437TIP3    H113317   3.533   1.610   0.270
 4437TIP3    H213318   3.635   1.713   0.224
 4438TIP3   OH213319   4.834   3.938   0.058
 4438TIP3    H113320   4.738   3.940   0.054
 4438TIP3    H213321   4.860   4.031   0.056
 4439TIP3   OH213322   0.247   1.863   1.471
 4439TIP3    H113323   0.276   1.776   1.497
 4439TIP3    H213324   0.176   1.884   1.531
 4440TIP3   OH213325   5.585   3.438   0.214
 4440TIP3    H113326   5.588   3.359   0.161
 4440TIP3    H213327   5.645   3.499   0.171
 4441TIP3   OH213328   0.035   5.404   1.987
 4441TIP3    H113329  -0.050   5.441   2.010
 4441TIP3    H213330   0.043   5.419   1.893
 4442TIP3   OH213331   1.611   0.647   5.189
 4442TIP3    H113332   1.552   0.597   5.132
 4442TIP3    H213333   1.684   0.588   5.207
 4443TIP3   OH213334   5.195   4.884   2.098
 4443TIP3    H113335   5.105   4.895   2.131
 4443TIP3    H213336   5.184   4.841   2.014
 4444TIP3   OH213337   6.320   0.788   0.867
 4444TIP3    H113338   6.310   0.693   0.879
 4444TIP3    H213339   6.398   0.797   0.813
 4445TIP3   OH213340   4.270   2.632   3.786
 4445TIP3    H113341   4.343   2.571   3.797
 4445TIP3    H213342   4.193   2.581   3.811
 4446TIP3   OH213343   4.875   2.972   0.945
 4446TIP3    H113344   4.970   2.979   0.947
 4446TIP3    H213345   4.848   2.989   1.035
 4447TIP3   OH213346   2.617   5.881   4.959
 4447TIP3    H113347   2.613   5.974   4.982
 4447TIP3    H213348   2.629   5.880   4.864
 4448TIP3   OH213349   0.184   3.732   5.199
 4448TIP3    H113350   0.236   3.788   5.142
 4448TIP3    H213351   0.099   3.775   5.204
 4449TIP3   OH213352   0.756   3.762   0.668
 4449TIP3    H113353   0.828   3.700   0.657
 4449TIP3    H213354   0.783   3.819   0.740
 4450TIP3   OH213355   0.690   3.457   4.056
 4450TIP3    H113356   0.706   3.393   3.986
 4450TIP3    H213357   0.730   3.418   4.133
 4451TIP3   OH213358   2.605   1.235   0.824
 4451TIP3    H113359   2.570   1.294   0.756
 4451TIP3    H213360   2.527   1.193   0.861
 4452TIP3   OH213361   3.395   0.969   3.580
 4452TIP3    H113362   3.417   0.995   3.491
 4452TIP3    H213363   3.462   1.010   3.635
 4453TIP3   OH213364   1.152   0.860   3.135
 4453TIP3    H113365   1.172   0.771   3.105
 4453TIP3    H213366   1.229   0.888   3.183
 4454TIP3   OH213367   1.232   1.181   3.464
 4454TIP3    H113368   1.174   1.105   3.458
 4454TIP3    H213369   1.306   1.159   3.408
 4455TIP3   OH213370   0.142   3.234   1.300
 4455TIP3    H113371   0.139   3.328   1.313
 4455TIP3    H213372   0.205   3.203   1.365
 4456TIP3   OH213373   2.055   4.302   0.767
 4456TIP3    H113374   2.137   4.321   0.721
 4456TIP3    H213375   1.987   4.305   0.700
 4457TIP3   OH213376   5.691   3.226   1.542
 4457TIP3    H113377   5.657   3.298   1.594
 4457TIP3    H213378   5.678   3.149   1.597
 4458TIP3   OH213379   4.391   3.484   0.648
 4458TIP3    H113380   4.419   3.400   0.685
 4458TIP3    H213381   4.472   3.530   0.630
 4459TIP3   OH213382   0.158   5.198   3.552
 4459TIP3    H113383   0.130   5.287   3.572
 4459TIP3    H213384   0.138   5.186   3.459
 4460TIP3   OH213385   1.121   1.513   1.543
 4460TIP3    H113386   1.100   1.443   1.482
 4460TIP3    H213387   1.217   1.521   1.538
 4461TIP3   OH213388   5.030   5.110   1.717
 4461TIP3    H113389   5.066   5.022   1.706
 4461TIP3    H213390   5.106   5.164   1.740
 4462TIP3   OH213391   4.153   2.435   2.817
 4462TIP3    H113392   4.131   2.488   2.894
 4462TIP3    H213393   4.224   2.483   2.775
 4463TIP3   OH213394   3.747   5.752   4.741
 4463TIP3    H113395   3.779   5.828   4.692
 4463TIP3    H213396   3.709   5.789   4.821
 4464TIP3   OH213397   1.834   5.850   1.940
 4464TIP3    H113398   1.923   5.880   1.955
 4464TIP3    H213399   1.831   5.826   1.847
 4465TIP3   OH213400   1.232   3.871   1.413
 4465TIP3    H113401   1.146   3.878   1.373
 4465TIP3    H213402   1.292   3.905   1.346
 4466TIP3   OH213403   0.183   3.669   2.232
 4466TIP3    H113404   0.236   3.748   2.220
 4466TIP3    H213405   0.092   3.699   2.221
 4467TIP3   OH213406   3.209   3.452   4.729
 4467TIP3    H113407   3.292   3.420   4.694
 4467TIP3    H213408   3.232   3.533   4.775
 4468TIP3   OH213409   1.466   5.521   4.680
 4468TIP3    H113410   1.560   5.527   4.692
 4468TIP3    H213411   1.455   5.510   4.585
 4469TIP3   OH213412   1.045   0.019   0.048
 4469TIP3    H113413   1.069   0.103   0.010
 4469TIP3    H213414   1.099  -0.045   0.002
 4470TIP3   OH213415   0.849   0.683   4.193
 4470TIP3    H113416   0.783   0.750   4.208
 4470TIP3    H213417   0.923   0.729   4.152
 4471TIP3   OH213418   4.530   0.111   2.548
 4471TIP3    H113419   4.558   0.201   2.565
 4471TIP3    H213420   4.439   0.108   2.576
 4472TIP3   OH213421   4.550   4.916   0.365
 4472TIP3    H113422   4.518   4.865   0.291
 4472TIP3    H213423   4.613   4.859   0.408
 4473TIP3   OH213424   2.898   0.700   3.986
 4473TIP3    H113425   2.804   0.708   4.001
 4473TIP3    H213426   2.937   0.771   4.036
 4474TIP3   OH213427   1.734   5.766   4.083
 4474TIP3    H113428   1.712   5.733   4.170
 4474TIP3    H213429   1.651   5.795   4.046
 4475TIP3   OH213430   3.054   5.474   3.907
 4475TIP3    H113431   3.053   5.442   3.997
 4475TIP3    H213432   2.981   5.537   3.903
 4476TIP3   OH213433   1.309   3.863   3.297
 4476TIP3    H113434   1.361   3.916   3.236
 4476TIP3    H213435   1.227   3.910   3.307
 4477TIP3   OH213436   4.746   3.567   4.744
 4477TIP3    H113437   4.659   3.602   4.727
 4477TIP3    H213438   4.734   3.511   4.821
 4478TIP3   OH213439   4.003   1.661   4.850
 4478TIP3    H113440   4.028   1.615   4.930
 4478TIP3    H213441   3.978   1.749   4.879
 4479TIP3   OH213442   3.759   2.238   4.694
 4479TIP3    H113443   3.690   2.299   4.670
 4479TIP3    H213444   3.717   2.175   4.753
 4480TIP3   OH213445   6.159   4.755   1.593
 4480TIP3    H113446   6.251   4.736   1.575
 4480TIP3    H213447   6.112   4.732   1.513
 4481TIP3   OH213448   0.257   4.842   4.464
 4481TIP3    H113449   0.303   4.801   4.392
 4481TIP3    H213450   0.180   4.787   4.479
 4482TIP3   OH213451   1.954   0.444   0.696
 4482TIP3    H113452   1.936   0.395   0.776
 4482TIP3    H213453   1.873   0.439   0.645
 4483TIP3   OH213454   5.921   1.397   4.899
 4483TIP3    H113455   5.950   1.363   4.814
 4483TIP3    H213456   5.954   1.487   4.901
 4484TIP3   OH213457   0.086   1.874   2.739
 4484TIP3    H113458   0.108   1.916   2.655
 4484TIP3    H213459   0.020   1.809   2.717
 4485TIP3   OH213460   4.137   5.016   2.116
 4485TIP3    H113461   4.122   5.065   2.197
 4485TIP3    H213462   4.226   5.038   2.091
 4486TIP3   OH213463   3.909   3.551   0.615
 4486TIP3    H113464   3.889   3.626   0.671
 4486TIP3    H213465   4.002   3.561   0.593
 4487TIP3   OH213466   0.827   1.832   3.460
 4487TIP3    H113467   0.910   1.787   3.440
 4487TIP3    H213468   0.849   1.889   3.534
 4488TIP3   OH213469   1.208   4.230   2.787
 4488TIP3    H113470   1.231   4.180   2.709
 4488TIP3    H213471   1.117   4.208   2.805
 4489TIP3   OH213472   5.194   2.362   3.569
 4489TIP3    H113473   5.221   2.285   3.518
 4489TIP3    H213474   5.159   2.325   3.651
 4490TIP3   OH213475   5.788   4.137   0.696
 4490TIP3    H113476   5.786   4.147   0.601
 4490TIP3    H213477   5.806   4.044   0.710
 4491TIP3   OH213478   5.575   2.446   3.043
 4491TIP3    H113479   5.608   2.475   2.958
 4491TIP3    H213480   5.651   2.407   3.087
 4492TIP3   OH213481   6.225   2.675   0.877
 4492TIP3    H113482   6.219   2.770   0.871
 4492TIP3    H213483   6.270   2.659   0.960
 4493TIP3   OH213484   3.363   2.311   1.433
 4493TIP3    H113485   3.383   2.236   1.378
 4493TIP3    H213486   3.353   2.275   1.521
 4494TIP3   OH213487   2.438   0.537   4.898
 4494TIP3    H113488   2.388   0.545   4.817
 4494TIP3    H213489   2.529   0.548   4.870
 4495TIP3   OH213490   1.048   2.371   3.451
 4495TIP3    H113491   1.107   2.317   3.398
 4495TIP3    H213492   1.105   2.436   3.492
 4496TIP3   OH213493   5.482   5.824   3.765
 4496TIP3    H113494   5.477   5.917   3.744
 4496TIP3    H213495   5.566   5.795   3.728
 4497TIP3   OH213496   0.464   4.070   1.831
 4497TIP3    H113497   0.466   3.981   1.864
 4497TIP3    H213498   0.554   4.087   1.803
 4498TIP3   OH213499   2.555   3.050   3.922
 4498TIP3    H113500   2.460   3.043   3.914
 4498TIP3    H213501   2.571   3.142   3.943
 4499TIP3   OH213502   5.149   0.554   0.223
 4499TIP3    H113503   5.186   0.473   0.258
 4499TIP3    H213504   5.202   0.623   0.261
 4500TIP3   OH213505   3.142   0.124   2.052
 4500TIP3    H113506   3.166   0.109   1.961
 4500TIP3    H213507   3.084   0.051   2.075
 4501TIP3   OH213508   0.182   5.195   1.853
 4501TIP3    H113509   0.125   5.231   1.920
 4501TIP3    H213510   0.249   5.262   1.839
 4502TIP3   OH213511   0.454   2.112   0.568
 4502TIP3    H113512   0.465   2.195   0.522
 4502TIP3    H213513   0.544   2.079   0.580
 4503TIP3   OH213514   5.283   1.386   1.492
 4503TIP3    H113515   5.208   1.370   1.549
 4503TIP3    H213516   5.306   1.299   1.459
 4504TIP3   OH213517   1.390   4.538   3.456
 4504TIP3    H113518   1.439   4.583   3.525
 4504TIP3    H213519   1.413   4.446   3.466
 4505TIP3   OH213520   2.728   1.339   3.167
 4505TIP3    H113521   2.743   1.343   3.073
 4505TIP3    H213522   2.789   1.403   3.203
 4506TIP3   OH213523   3.077   0.975   4.405
 4506TIP3    H113524   3.149   0.911   4.403
 4506TIP3    H213525   3.066   0.994   4.498
 4507TIP3   OH213526   1.360   3.135   0.647
 4507TIP3    H113527   1.266   3.120   0.633
 4507TIP3    H213528   1.399   3.048   0.639
 4508TIP3   OH213529   1.615   0.819   0.653
 4508TIP3    H113530   1.692   0.816   0.710
 4508TIP3    H213531   1.600   0.913   0.638
 4509TIP3   OH213532   5.427   0.208   1.622
 4509TIP3    H113533   5.368   0.233   1.693
 4509TIP3    H213534   5.374   0.155   1.563
 4510TIP3   OH213535   2.605   3.420   1.328
 4510TIP3    H113536   2.573   3.467   1.405
 4510TIP3    H213537   2.526   3.391   1.283
 4511TIP3   OH213538   2.108   4.764   2.378
 4511TIP3    H113539   2.136   4.726   2.462
 4511TIP3    H213540   2.149   4.850   2.376
 4512TIP3   OH213541   2.003   1.514   3.823
 4512TIP3    H113542   1.925   1.525   3.878
 4512TIP3    H213543   2.007   1.420   3.806
 4513TIP3   OH213544   6.161   3.406   1.103
 4513TIP3    H113545   6.128   3.463   1.033
 4513TIP3    H213546   6.256   3.407   1.092
 4514TIP3   OH213547   1.608   2.372   2.877
 4514TIP3    H113548   1.579   2.463   2.884
 4514TIP3    H213549   1.610   2.354   2.783
 4515TIP3   OH213550   3.272   4.346   1.905
 4515TIP3    H113551   3.344   4.394   1.945
 4515TIP3    H213552   3.301   4.330   1.816
 4516TIP3   OH213553   2.043   1.582   4.665
 4516TIP3    H113554   2.014   1.502   4.621
 4516TIP3    H213555   1.966   1.613   4.713
 4517TIP3   OH213556   3.056   1.594   1.004
 4517TIP3    H113557   3.031   1.519   1.058
 4517TIP3    H213558   3.108   1.557   0.933
 4518TIP3   OH213559   2.673   5.631   0.830
 4518TIP3    H113560   2.639   5.719   0.842
 4518TIP3    H213561   2.599   5.581   0.796
 4519TIP3   OH213562   4.728   0.373   4.003
 4519TIP3    H113563   4.770   0.459   4.006
 4519TIP3    H213564   4.742   0.342   3.913
 4520TIP3   OH213565   4.102   1.503   4.476
 4520TIP3    H113566   4.046   1.480   4.402
 4520TIP3    H213567   4.114   1.598   4.469
 4521TIP3   OH213568   0.878   0.478   0.996
 4521TIP3    H113569   0.913   0.542   1.058
 4521TIP3    H213570   0.784   0.498   0.991
 4522TIP3   OH213571   2.723   3.756   3.703
 4522TIP3    H113572   2.788   3.818   3.737
 4522TIP3    H213573   2.677   3.724   3.781
 4523TIP3   OH213574   3.036   4.023   3.539
 4523TIP3    H113575   2.976   4.028   3.465
 4523TIP3    H213576   2.984   3.984   3.610
 4524TIP3   OH213577   1.915   1.460   2.810
 4524TIP3    H113578   1.851   1.498   2.749
 4524TIP3    H213579   1.913   1.518   2.886
 4525TIP3   OH213580   5.343   5.613   2.036
 4525TIP3    H113581   5.422   5.560   2.050
 4525TIP3    H213582   5.376   5.703   2.027
 4526TIP3   OH213583   5.211   3.756   3.588
 4526TIP3    H113584   5.186   3.663   3.591
 4526TIP3    H213585   5.151   3.795   3.525
 4527TIP3   OH213586   3.076   3.113   1.201
 4527TIP3    H113587   2.992   3.110   1.156
 4527TIP3    H213588   3.128   3.043   1.161
 4528TIP3   OH213589   1.512   0.245   1.437
 4528TIP3    H113590   1.486   0.202   1.519
 4528TIP3    H213591   1.598   0.208   1.416
 4529TIP3   OH213592   1.643   2.750   0.378
 4529TIP3    H113593   1.658   2.673   0.432
 4529TIP3    H213594   1.590   2.718   0.305
 4530TIP3   OH213595   4.273   0.407   2.056
 4530TIP3    H113596   4.198   0.433   2.110
 4530TIP3    H213597   4.234   0.358   1.983
 4531TIP3   OH213598   3.730   4.912   1.651
 4531TIP3    H113599   3.733   4.924   1.746
 4531TIP3    H213600   3.809   4.863   1.630
 4532TIP3   OH213601   1.444   1.830   0.148
 4532TIP3    H113602   1.401   1.914   0.129
 4532TIP3    H213603   1.537   1.851   0.155
 4533TIP3   OH213604   6.141   5.870   0.649
 4533TIP3    H113605   6.234   5.846   0.641
 4533TIP3    H213606   6.115   5.895   0.560
 4534TIP3   OH213607   3.352   4.982   2.475
 4534TIP3    H113608   3.340   4.890   2.497
 4534TIP3    H213609   3.326   4.989   2.383
 4535TIP3   OH213610   2.922   3.464   2.926
 4535TIP3    H113611   2.844   3.463   2.982
 4535TIP3    H213612   2.948   3.556   2.923
 4536TIP3   OH213613   1.335   2.770   3.228
 4536TIP3    H113614   1.307   2.679   3.234
 4536TIP3    H213615   1.429   2.767   3.247
 4537TIP3   OH213616   3.601   0.150   4.234
 4537TIP3    H113617   3.518   0.171   4.278
 4537TIP3    H213618   3.635   0.234   4.205
 4538TIP3   OH213619   1.877   0.447   4.464
 4538TIP3    H113620   1.848   0.359   4.487
 4538TIP3    H213621   1.926   0.437   4.383
 4539TIP3   OH213622   5.142   0.804   3.738
 4539TIP3    H113623   5.107   0.839   3.820
 4539TIP3    H213624   5.088   0.845   3.670
 4540TIP3   OH213625   5.128   2.974   1.857
 4540TIP3    H113626   5.081   2.892   1.868
 4540TIP3    H213627   5.135   3.010   1.945
 4541TIP3   OH213628   3.930   1.843   1.606
 4541TIP3    H113629   3.984   1.821   1.530
 4541TIP3    H213630   3.959   1.781   1.674
 4542TIP3   OH213631   1.056   5.600   3.185
 4542TIP3    H113632   1.048   5.515   3.143
 4542TIP3    H213633   1.072   5.661   3.113
 4543TIP3   OH213634   5.562   3.884   0.501
 4543TIP3    H113635   5.595   3.970   0.526
 4543TIP3    H213636   5.623   3.852   0.435
 4544TIP3   OH213637   3.155   0.270   0.890
 4544TIP3    H113638   3.078   0.323   0.874
 4544TIP3    H213639   3.198   0.262   0.805
 4545TIP3   OH213640   3.574   0.899   1.437
 4545TIP3    H113641   3.575   0.808   1.466
 4545TIP3    H213642   3.494   0.935   1.475
 4546TIP3   OH213643   2.153   0.137   1.430
 4546TIP3    H113644   2.120   0.053   1.462
 4546TIP3    H213645   2.248   0.125   1.424
 4547TIP3   OH213646   5.191   5.900   3.937
 4547TIP3    H113647   5.125   5.834   3.919
 4547TIP3    H213648   5.217   5.932   3.850
 4548TIP3   OH213649   2.662   1.363   4.876
 4548TIP3    H113650   2.617   1.448   4.884
 4548TIP3    H213651   2.708   1.368   4.792
 4549TIP3   OH213652   2.110   4.708   3.195
 4549TIP3    H113653   2.205   4.696   3.199
 4549TIP3    H213654   2.099   4.792   3.152
 4550TIP3   OH213655   0.678   5.445   0.102
 4550TIP3    H113656   0.751   5.459   0.043
 4550TIP3    H213657   0.700   5.495   0.181
 4551TIP3   OH213658   4.183   1.847   0.997
 4551TIP3    H113659   4.105   1.797   0.974
 4551TIP3    H213660   4.234   1.788   1.052
 4552TIP3   OH213661   6.158   0.050   5.152
 4552TIP3    H113662   6.139  -0.036   5.113
 4552TIP3    H213663   6.239   0.037   5.201
 4553TIP3   OH213664   0.920   1.296   3.102
 4553TIP3    H113665   0.850   1.350   3.139
 4553TIP3    H213666   0.897   1.206   3.127
 4554TIP3   OH213667   4.355   1.241   1.817
 4554TIP3    H113668   4.276   1.207   1.774
 4554TIP3    H213669   4.383   1.169   1.874
 4555TIP3   OH213670   5.170   0.959   0.024
 4555TIP3    H113671   5.107   0.942  -0.046
 4555TIP3    H213672   5.227   0.882   0.024
 4556TIP3   OH213673   2.348   0.947   4.381
 4556TIP3    H113674   2.355   1.007   4.455
 4556TIP3    H213675   2.359   1.002   4.304
 4557TIP3   OH213676   4.804   3.870   3.511
 4557TIP3    H113677   4.831   3.896   3.599
 4557TIP3    H213678   4.845   3.784   3.498
 4558TIP3   OH213679   5.599   5.411   4.446
 4558TIP3    H113680   5.647   5.369   4.375
 4558TIP3    H213681   5.507   5.393   4.427
 4559TIP3   OH213682   3.041   4.757   4.306
 4559TIP3    H113683   2.973   4.795   4.251
 4559TIP3    H213684   3.004   4.674   4.335
 4560TIP3   OH213685   3.946   1.112   0.821
 4560TIP3    H113686   3.946   1.193   0.770
 4560TIP3    H213687   4.013   1.126   0.888
 4561TIP3   OH213688   2.700   0.046   2.619
 4561TIP3    H113689   2.662   0.109   2.681
 4561TIP3    H213690   2.727   0.100   2.544
 4562TIP3   OH213691   2.786   3.500   2.111
 4562TIP3    H113692   2.817   3.590   2.106
 4562TIP3    H213693   2.751   3.491   2.200
 4563TIP3   OH213694   1.615   2.012   4.762
 4563TIP3    H113695   1.557   2.081   4.796
 4563TIP3    H213696   1.640   1.962   4.839
 4564TIP3   OH213697   2.166   0.932   4.748
 4564TIP3    H113698   2.147   0.918   4.840
 4564TIP3    H213699   2.111   0.868   4.702
 4565TIP3   OH213700   0.734   3.294   3.464
 4565TIP3    H113701   0.827   3.275   3.450
 4565TIP3    H213702   0.701   3.217   3.510
 4566TIP3   OH213703   0.059   3.392   0.984
 4566TIP3    H113704   0.089   3.482   0.976
 4566TIP3    H213705   0.009   3.376   0.904
 4567TIP3   OH213706   6.277   4.634   2.282
 4567TIP3    H113707   6.247   4.548   2.252
 4567TIP3    H213708   6.351   4.614   2.340
 4568TIP3   OH213709   5.434   0.734   1.104
 4568TIP3    H113710   5.436   0.684   1.186
 4568TIP3    H213711   5.352   0.709   1.063
 4569TIP3   OH213712   1.691   4.887   1.793
 4569TIP3    H113713   1.602   4.873   1.825
 4569TIP3    H213714   1.741   4.911   1.871
 4570TIP3   OH213715   6.301   1.979   0.721
 4570TIP3    H113716   6.351   1.919   0.775
 4570TIP3    H213717   6.235   2.015   0.781
 4571TIP3   OH213718   4.356   4.020   1.004
 4571TIP3    H113719   4.330   4.101   1.049
 4571TIP3    H213720   4.350   3.952   1.070
 4572TIP3   OH213721   4.950   3.697   0.046
 4572TIP3    H113722   4.873   3.644   0.027
 4572TIP3    H213723   4.919   3.787   0.039
 4573TIP3   OH213724   5.305   5.729   2.624
 4573TIP3    H113725   5.287   5.641   2.593
 4573TIP3    H213726   5.331   5.717   2.716
 4574TIP3   OH213727   2.472   3.014   0.925
 4574TIP3    H113728   2.425   3.090   0.892
 4574TIP3    H213729   2.452   3.012   1.019
 4575TIP3   OH213730   0.041   4.500   3.621
 4575TIP3    H113731   0.032   4.595   3.619
 4575TIP3    H213732  -0.014   4.473   3.694
 4576TIP3   OH213733   2.350   5.904   0.661
 4576TIP3    H113734   2.427   5.892   0.717
 4576TIP3    H213735   2.345   5.824   0.609
 4577TIP3   OH213736   5.708   2.417   1.036
 4577TIP3    H113737   5.662   2.491   0.996
 4577TIP3    H213738   5.797   2.449   1.050
 4578TIP3   OH213739   6.105   1.184   4.767
 4578TIP3    H113740   6.102   1.097   4.727
 4578TIP3    H213741   6.155   1.237   4.706
 4579TIP3   OH213742   5.942   2.723   4.478
 4579TIP3    H113743   5.920   2.716   4.571
 4579TIP3    H213744   5.903   2.805   4.450
 4580TIP3   OH213745   4.386   0.467   2.436
 4580TIP3    H113746   4.452   0.440   2.500
 4580TIP3    H213747   4.331   0.529   2.483
 4581TIP3   OH213748   0.313   1.506   4.056
 4581TIP3    H113749   0.378   1.576   4.047
 4581TIP3    H213750   0.267   1.526   4.137
 4582TIP3   OH213751   4.452   1.330   2.382
 4582TIP3    H113752   4.395   1.402   2.408
 4582TIP3    H213753   4.405   1.286   2.311
 4583TIP3   OH213754   0.403   4.688   0.500
 4583TIP3    H113755   0.468   4.725   0.440
 4583TIP3    H213756   0.336   4.756   0.508
 4584TIP3   OH213757   5.125   4.192   2.910
 4584TIP3    H113758   5.035   4.182   2.880
 4584TIP3    H213759   5.162   4.104   2.905
 4585TIP3   OH213760   0.950   4.825   2.063
 4585TIP3    H113761   0.918   4.822   2.153
 4585TIP3    H213762   0.967   4.734   2.040
 4586TIP3   OH213763   3.748   3.867   2.114
 4586TIP3    H113764   3.740   3.875   2.019
 4586TIP3    H213765   3.663   3.831   2.142
 4587TIP3   OH213766   6.280   5.235   2.865
 4587TIP3    H113767   6.250   5.326   2.858
 4587TIP3    H213768   6.211   5.184   2.824
 4588TIP3   OH213769   0.529   4.058   1.012
 4588TIP3    H113770   0.453   4.115   1.013
 4588TIP3    H213771   0.552   4.050   0.919
 4589TIP3   OH213772   3.267   2.993   1.817
 4589TIP3    H113773   3.227   2.990   1.730
 4589TIP3    H213774   3.193   2.997   1.877
 4590TIP3   OH213775   0.839   0.038   3.557
 4590TIP3    H113776   0.852   0.057   3.649
 4590TIP3    H213777   0.845   0.124   3.514
 4591TIP3   OH213778   2.419   0.135   0.143
 4591TIP3    H113779   2.398   0.225   0.119
 4591TIP3    H213780   2.373   0.081   0.079
 4592TIP3   OH213781   2.115   4.793   0.674
 4592TIP3    H113782   2.149   4.715   0.631
 4592TIP3    H213783   2.154   4.793   0.761
 4593TIP3   OH213784   0.699   5.145   0.215
 4593TIP3    H113785   0.716   5.235   0.243
 4593TIP3    H213786   0.605   5.142   0.197
 4594TIP3   OH213787   4.038   5.781   5.032
 4594TIP3    H113788   4.021   5.739   4.948
 4594TIP3    H213789   3.957   5.770   5.082
 4595TIP3   OH213790   5.360   4.986   5.014
 4595TIP3    H113791   5.349   4.960   5.105
 4595TIP3    H213792   5.308   5.066   5.005
 4596TIP3   OH213793   3.166   5.839   5.184
 4596TIP3    H113794   3.136   5.863   5.096
 4596TIP3    H213795   3.176   5.922   5.230
 4597TIP3   OH213796   1.349   5.649   3.075
 4597TIP3    H113797   1.325   5.657   2.982
 4597TIP3    H213798   1.322   5.733   3.114
 4598TIP3   OH213799   2.888   1.876   2.282
 4598TIP3    H113800   2.856   1.868   2.192
 4598TIP3    H213801   2.874   1.968   2.304
 4599TIP3   OH213802   5.690   5.450   3.701
 4599TIP3    H113803   5.748   5.395   3.754
 4599TIP3    H213804   5.697   5.537   3.740
 4600TIP3   OH213805   1.957   1.709   2.054
 4600TIP3    H113806   1.996   1.716   1.967
 4600TIP3    H213807   1.956   1.615   2.072
 4601TIP3   OH213808   1.047   5.253   4.837
 4601TIP3    H113809   1.086   5.332   4.875
 4601TIP3    H213810   1.110   5.183   4.856
 4602TIP3   OH213811   4.613   3.226   3.354
 4602TIP3    H113812   4.579   3.151   3.307
 4602TIP3    H213813   4.536   3.274   3.383
 4603TIP3   OH213814   0.495   1.017   2.165
 4603TIP3    H113815   0.590   1.014   2.174
 4603TIP3    H213816   0.479   1.082   2.097
 4604TIP3   OH213817   3.536   1.541   3.017
 4604TIP3    H113818   3.450   1.533   2.976
 4604TIP3    H213819   3.534   1.628   3.058
 4605TIP3   OH213820   5.116   3.051   0.649
 4605TIP3    H113821   5.119   3.147   0.647
 4605TIP3    H213822   5.035   3.029   0.604
 4606TIP3   OH213823   4.616   4.495   2.323
 4606TIP3    H113824   4.637   4.520   2.413
 4606TIP3    H213825   4.543   4.552   2.298
 4607TIP3   OH213826   3.815   1.220   5.085
 4607TIP3    H113827   3.764   1.263   5.016
 4607TIP3    H213828   3.785   1.261   5.166
 4608TIP3   OH213829   2.983   3.380   4.874
 4608TIP3    H113830   3.046   3.416   4.812
 4608TIP3    H213831   2.951   3.457   4.923
 4609TIP3   OH213832   5.796   0.800   0.295
 4609TIP3    H113833   5.845   0.773   0.217
 4609TIP3    H213834   5.705   0.807   0.266
 4610TIP3   OH213835   0.357   5.687   4.095
 4610TIP3    H113836   0.301   5.748   4.048
 4610TIP3    H213837   0.442   5.731   4.101
 4611TIP3   OH213838   3.775   3.597   0.325
 4611TIP3    H113839   3.805   3.519   0.371
 4611TIP3    H213840   3.831   3.602   0.247
 4612TIP3   OH213841   5.822   3.998   1.692
 4612TIP3    H113842   5.760   4.050   1.641
 4612TIP3    H213843   5.770   3.929   1.732
 4613TIP3   OH213844   6.097   1.015   4.562
 4613TIP3    H113845   6.078   0.930   4.523
 4613TIP3    H213846   6.048   1.077   4.509
 4614TIP3   OH213847   5.979   5.923   0.424
 4614TIP3    H113848   5.898   5.874   0.440
 4614TIP3    H213849   5.999   5.907   0.332
 4615TIP3   OH213850   4.232   4.584   0.959
 4615TIP3    H113851   4.249   4.604   0.867
 4615TIP3    H213852   4.217   4.669   1.000
 4616TIP3   OH213853   1.777   5.975   0.181
 4616TIP3    H113854   1.856   5.997   0.229
 4616TIP3    H213855   1.796   5.999   0.090
 4617TIP3   OH213856   4.858   5.403   3.035
 4617TIP3    H113857   4.847   5.461   3.111
 4617TIP3    H213858   4.938   5.354   3.054
 4618TIP3   OH213859   0.832   5.154   3.506
 4618TIP3    H113860   0.893   5.092   3.545
 4618TIP3    H213861   0.831   5.132   3.413
 4619TIP3   OH213862   2.105   3.567   0.277
 4619TIP3    H113863   2.051   3.509   0.223
 4619TIP3    H213864   2.158   3.508   0.331
 4620TIP3   OH213865   5.121   0.607   4.595
 4620TIP3    H113866   5.086   0.619   4.507
 4620TIP3    H213867   5.099   0.688   4.641
 4621TIP3   OH213868   2.246   0.569   2.177
 4621TIP3    H113869   2.265   0.635   2.111
 4621TIP3    H213870   2.304   0.496   2.155
 4622TIP3   OH213871   4.793   5.403   4.865
 4622TIP3    H113872   4.883   5.435   4.861
 4622TIP3    H213873   4.743   5.464   4.810
 4623TIP3   OH213874   2.227   2.663   4.055
 4623TIP3    H113875   2.295   2.606   4.090
 4623TIP3    H213876   2.149   2.640   4.104
 4624TIP3   OH213877   2.695   5.788   2.630
 4624TIP3    H113878   2.670   5.769   2.540
 4624TIP3    H213879   2.685   5.882   2.639
 4625TIP3   OH213880   3.340   4.749   1.483
 4625TIP3    H113881   3.246   4.756   1.498
 4625TIP3    H213882   3.350   4.769   1.389
 4626TIP3   OH213883   3.442   4.661   0.291
 4626TIP3    H113884   3.495   4.721   0.343
 4626TIP3    H213885   3.371   4.715   0.256
 4627TIP3   OH213886   6.119   3.581   3.282
 4627TIP3    H113887   6.165   3.530   3.349
 4627TIP3    H213888   6.175   3.656   3.266
 4628TIP3   OH213889   2.849   2.076   4.330
 4628TIP3    H113890   2.882   2.155   4.373
 4628TIP3    H213891   2.794   2.033   4.396
 4629TIP3   OH213892   1.144   2.089   3.346
 4629TIP3    H113893   1.057   2.093   3.305
 4629TIP3    H213894   1.198   2.147   3.292
 4630TIP3   OH213895   2.181   3.676   2.127
 4630TIP3    H113896   2.104   3.732   2.121
 4630TIP3    H213897   2.225   3.704   2.208
 4631TIP3   OH213898   3.613   3.684   0.598
 4631TIP3    H113899   3.658   3.659   0.518
 4631TIP3    H213900   3.659   3.762   0.629
 4632TIP3   OH213901   2.730   3.445   4.027
 4632TIP3    H113902   2.693   3.363   4.060
 4632TIP3    H213903   2.700   3.512   4.088
 4633TIP3   OH213904   4.026   3.139   2.805
 4633TIP3    H113905   4.074   3.217   2.779
 4633TIP3    H213906   3.979   3.164   2.884
 4634TIP3   OH213907   1.095   1.322   0.151
 4634TIP3    H113908   1.180   1.303   0.112
 4634TIP3    H213909   1.100   1.287   0.240
 4635TIP3   OH213910   4.618   0.376   2.636
 4635TIP3    H113911   4.679   0.368   2.563
 4635TIP3    H213912   4.655   0.444   2.691
 4636TIP3   OH213913   0.778   2.300   0.519
 4636TIP3    H113914   0.861   2.337   0.489
 4636TIP3    H213915   0.799   2.209   0.540
 4637TIP3   OH213916   4.525   1.097   2.505
 4637TIP3    H113917   4.501   1.181   2.464
 4637TIP3    H213918   4.621   1.099   2.508
 4638TIP3   OH213919   4.163   2.344   3.290
 4638TIP3    H113920   4.155   2.370   3.198
 4638TIP3    H213921   4.257   2.337   3.305
 4639TIP3   OH213922   5.063   5.318   1.542
 4639TIP3    H113923   5.039   5.232   1.578
 4639TIP3    H213924   5.148   5.337   1.582
 4640TIP3   OH213925   0.014   1.740   3.457
 4640TIP3    H113926   0.017   1.695   3.541
 4640TIP3    H213927   0.064   1.683   3.397
 4641TIP3   OH213928   3.394   2.286   4.060
 4641TIP3    H113929   3.365   2.325   4.142
 4641TIP3    H213930   3.331   2.216   4.042
 4642TIP3   OH213931   1.484   5.141   3.826
 4642TIP3    H113932   1.467   5.081   3.898
 4642TIP3    H213933   1.492   5.227   3.868
 4643TIP3   OH213934   5.728   2.848   2.425
 4643TIP3    H113935   5.756   2.844   2.333
 4643TIP3    H213936   5.661   2.917   2.426
 4644TIP3   OH213937   0.169   3.622   1.827
 4644TIP3    H113938   0.076   3.632   1.851
 4644TIP3    H213939   0.215   3.678   1.890
 4645TIP3   OH213940   3.337   3.290   4.264
 4645TIP3    H113941   3.415   3.294   4.319
 4645TIP3    H213942   3.305   3.380   4.260
 4646TIP3   OH213943   2.327   1.236   1.334
 4646TIP3    H113944   2.273   1.162   1.364
 4646TIP3    H213945   2.268   1.286   1.277
 4647TIP3   OH213946   1.487   2.926   4.313
 4647TIP3    H113947   1.485   2.962   4.224
 4647TIP3    H213948   1.549   2.853   4.308
 4648TIP3   OH213949   0.952   3.677   0.324
 4648TIP3    H113950   0.941   3.663   0.418
 4648TIP3    H213951   1.043   3.705   0.314
 4649TIP3   OH213952   5.338   1.924   4.096
 4649TIP3    H113953   5.407   1.896   4.036
 4649TIP3    H213954   5.368   1.894   4.182
 4650TIP3   OH213955   4.476   5.386   2.365
 4650TIP3    H113956   4.465   5.396   2.459
 4650TIP3    H213957   4.464   5.292   2.349
 4651TIP3   OH213958   0.372   3.858   2.757
 4651TIP3    H113959   0.345   3.895   2.841
 4651TIP3    H213960   0.339   3.920   2.692
 4652TIP3   OH213961   0.590   3.707   2.708
 4652TIP3    H113962   0.508   3.743   2.743
 4652TIP3    H213963   0.574   3.614   2.699
 4653TIP3   OH213964   1.095   0.113   3.445
 4653TIP3    H113965   1.024   0.050   3.458
 4653TIP3    H213966   1.125   0.134   3.534
 4654TIP3   OH213967   2.250   2.658   2.065
 4654TIP3    H113968   2.343   2.656   2.085
 4654TIP3    H213969   2.231   2.750   2.043
 4655TIP3   OH213970   4.289   0.967   2.539
 4655TIP3    H113971   4.225   1.017   2.489
 4655TIP3    H213972   4.371   1.015   2.529
 4656TIP3   OH213973   4.010   5.450   4.267
 4656TIP3    H113974   3.975   5.456   4.178
 4656TIP3    H213975   3.981   5.365   4.298
 4657TIP3   OH213976   2.604   2.813   1.426
 4657TIP3    H113977   2.631   2.731   1.384
 4657TIP3    H213978   2.683   2.844   1.470
 4658TIP3   OH213979   3.238   5.536   4.177
 4658TIP3    H113980   3.199   5.469   4.233
 4658TIP3    H213981   3.324   5.552   4.216
 4659TIP3   OH213982   4.095   5.607   0.409
 4659TIP3    H113983   4.153   5.531   0.419
 4659TIP3    H213984   4.010   5.577   0.440
 4660TIP3   OH213985   2.862   4.091   2.340
 4660TIP3    H113986   2.909   4.151   2.282
 4660TIP3    H213987   2.920   4.016   2.349
 4661TIP3   OH213988   1.317   2.399   1.435
 4661TIP3    H113989   1.321   2.489   1.402
 4661TIP3    H213990   1.245   2.399   1.497
 4662TIP3   OH213991   4.857   5.468   1.667
 4662TIP3    H113992   4.919   5.422   1.611
 4662TIP3    H213993   4.910   5.535   1.711
 4663TIP3   OH213994   6.024   1.056   1.850
 4663TIP3    H113995   6.109   1.092   1.876
 4663TIP3    H213996   6.046   0.980   1.796
 4664TIP3   OH213997   2.156   1.121   0.418
 4664TIP3    H113998   2.209   1.183   0.368
 4664TIP3    H213999   2.219   1.062   0.459
 4665TIP3   OH214000   2.363   3.765   3.990
 4665TIP3    H114001   2.284   3.746   3.939
 4665TIP3    H214002   2.430   3.707   3.954
 4666TIP3   OH214003   0.548   1.321   0.157
 4666TIP3    H114004   0.483   1.347   0.091
 4666TIP3    H214005   0.501   1.328   0.240
 4667TIP3   OH214006   4.997   1.154   0.400
 4667TIP3    H114007   5.020   1.125   0.489
 4667TIP3    H214008   4.904   1.176   0.406
 4668TIP3   OH214009   3.368   0.207   1.522
 4668TIP3    H114010   3.406   0.236   1.439
 4668TIP3    H214011   3.432   0.235   1.589
 4669TIP3   OH214012   1.728   5.061   0.210
 4669TIP3    H114013   1.794   5.010   0.258
 4669TIP3    H214014   1.649   5.007   0.213
 4670TIP3   OH214015   6.068   0.808   2.671
 4670TIP3    H114016   5.999   0.854   2.622
 4670TIP3    H214017   6.066   0.719   2.637
 4671TIP3   OH214018   0.643   5.910   0.399
 4671TIP3    H114019   0.625   5.933   0.308
 4671TIP3    H214020   0.721   5.960   0.422
 4672TIP3   OH214021   4.502   4.426   4.774
 4672TIP3    H114022   4.489   4.508   4.821
 4672TIP3    H214023   4.527   4.452   4.685
 4673TIP3   OH214024   1.006   4.697   3.873
 4673TIP3    H114025   0.980   4.753   3.946
 4673TIP3    H214026   1.081   4.648   3.906
 4674TIP3   OH214027   5.463   5.789   2.409
 4674TIP3    H114028   5.385   5.774   2.462
 4674TIP3    H214029   5.497   5.873   2.440
 4675TIP3   OH214030   1.361   5.390   1.425
 4675TIP3    H114031   1.414   5.343   1.489
 4675TIP3    H214032   1.390   5.481   1.433
 4676TIP3   OH214033   4.565   2.053   1.887
 4676TIP3    H114034   4.490   2.112   1.886
 4676TIP3    H214035   4.592   2.048   1.795
 4677TIP3   OH214036   0.554   2.527   0.031
 4677TIP3    H114037   0.493   2.599   0.043
 4677TIP3    H214038   0.516   2.474  -0.039
 4678TIP3   OH214039   0.333   3.297   1.079
 4678TIP3    H114040   0.241   3.322   1.088
 4678TIP3    H214041   0.341   3.213   1.124
 4679TIP3   OH214042   2.373   1.095   0.929
 4679TIP3    H114043   2.301   1.040   0.899
 4679TIP3    H214044   2.336   1.147   1.001
 4680TIP3   OH214045   5.876   5.186   2.664
 4680TIP3    H114046   5.796   5.196   2.611
 4680TIP3    H214047   5.924   5.267   2.648
 4681TIP3   OH214048   3.337   0.303   4.329
 4681TIP3    H114049   3.255   0.304   4.279
 4681TIP3    H214050   3.329   0.378   4.389
 4682TIP3   OH214051   2.791   5.900   1.019
 4682TIP3    H114052   2.842   5.857   1.088
 4682TIP3    H214053   2.784   5.991   1.047
 4683TIP3   OH214054   5.548   1.249   3.486
 4683TIP3    H114055   5.480   1.261   3.552
 4683TIP3    H214056   5.513   1.292   3.407
 4684TIP3   OH214057   1.007   4.170   5.005
 4684TIP3    H114058   0.976   4.260   5.017
 4684TIP3    H214059   0.929   4.122   4.974
 4685TIP3   OH214060   5.988   0.889   1.621
 4685TIP3    H114061   6.023   0.831   1.553
 4685TIP3    H214062   5.894   0.868   1.623
 4686TIP3   OH214063   3.238   5.864   4.189
 4686TIP3    H114064   3.272   5.893   4.274
 4686TIP3    H214065   3.157   5.913   4.178
 4687TIP3   OH214066   3.951   1.700   5.152
 4687TIP3    H114067   3.884   1.654   5.202
 4687TIP3    H214068   3.910   1.782   5.125
 4688TIP3   OH214069   0.165   2.923   1.290
 4688TIP3    H114070   0.248   2.967   1.272
 4688TIP3    H214071   0.186   2.829   1.288
 4689TIP3   OH214072   2.021   1.123   1.065
 4689TIP3    H114073   2.082   1.116   0.991
 4689TIP3    H214074   2.017   1.035   1.102
 4690TIP3   OH214075   4.662   2.364   4.862
 4690TIP3    H114076   4.715   2.334   4.788
 4690TIP3    H214077   4.580   2.316   4.853
 4691TIP3   OH214078   0.424   4.898   1.075
 4691TIP3    H114079   0.510   4.932   1.049
 4691TIP3    H214080   0.423   4.808   1.042
 4692TIP3   OH214081   6.072   1.931   2.002
 4692TIP3    H114082   6.136   1.995   2.031
 4692TIP3    H214083   6.111   1.846   2.021
 4693TIP3   OH214084   2.941   5.575   3.356
 4693TIP3    H114085   2.991   5.547   3.432
 4693TIP3    H214086   2.949   5.503   3.294
 4694TIP3   OH214087   0.357   1.873   2.831
 4694TIP3    H114088   0.265   1.851   2.848
 4694TIP3    H214089   0.402   1.789   2.837
 4695TIP3   OH214090   5.397   4.614   2.417
 4695TIP3    H114091   5.383   4.659   2.334
 4695TIP3    H214092   5.486   4.639   2.443
 4696TIP3   OH214093   3.949   4.113   3.538
 4696TIP3    H114094   3.976   4.022   3.549
 4696TIP3    H214095   3.898   4.113   3.457
 4697TIP3   OH214096   1.657   1.998   0.133
 4697TIP3    H114097   1.660   2.058   0.058
 4697TIP3    H214098   1.706   2.043   0.201
 4698TIP3   OH214099   4.457   2.159   2.229
 4698TIP3    H114100   4.493   2.231   2.177
 4698TIP3    H214101   4.384   2.198   2.277
 4699TIP3   OH214102   4.519   0.466   0.473
 4699TIP3    H114103   4.480   0.534   0.529
 4699TIP3    H214104   4.486   0.486   0.386
 4700TIP3   OH214105   0.475   2.258   4.633
 4700TIP3    H114106   0.388   2.219   4.642
 4700TIP3    H214107   0.481   2.319   4.708
 4701TIP3   OH214108   5.169   2.052   1.282
 4701TIP3    H114109   5.115   2.034   1.205
 4701TIP3    H214110   5.255   2.016   1.259
 4702TIP3   OH214111   0.799   3.392   2.764
 4702TIP3    H114112   0.710   3.359   2.751
 4702TIP3    H214113   0.818   3.442   2.685
 4703TIP3   OH214114   3.410   4.143   2.504
 4703TIP3    H114115   3.393   4.213   2.442
 4703TIP3    H214116   3.348   4.159   2.576
 4704TIP3   OH214117   0.964   4.162   1.005
 4704TIP3    H114118   0.990   4.226   0.939
 4704TIP3    H214119   1.031   4.168   1.072
 4705TIP3   OH214120   1.053   1.641   2.752
 4705TIP3    H114121   1.064   1.672   2.842
 4705TIP3    H214122   1.123   1.577   2.740
 4706TIP3   OH214123   1.551   2.096   1.008
 4706TIP3    H114124   1.492   2.135   0.944
 4706TIP3    H214125   1.589   2.171   1.054
 4707TIP3   OH214126   3.740   0.944   0.506
 4707TIP3    H114127   3.754   0.882   0.434
 4707TIP3    H214128   3.662   0.911   0.552
 4708TIP3   OH214129   5.685   0.648   1.571
 4708TIP3    H114130   5.661   0.730   1.528
 4708TIP3    H214131   5.614   0.588   1.548
 4709TIP3   OH214132   4.435   3.060   2.325
 4709TIP3    H114133   4.391   2.977   2.303
 4709TIP3    H214134   4.386   3.126   2.277
 4710TIP3   OH214135   3.526   4.775   3.486
 4710TIP3    H114136   3.517   4.869   3.471
 4710TIP3    H214137   3.608   4.766   3.533
 4711TIP3   OH214138   5.246   3.487   4.067
 4711TIP3    H114139   5.286   3.574   4.059
 4711TIP3    H214140   5.290   3.435   4.000
 4712TIP3   OH214141   3.086   4.720   1.643
 4712TIP3    H114142   3.164   4.723   1.698
 4712TIP3    H214143   3.050   4.809   1.647
 4713TIP3   OH214144   3.876   4.315   0.098
 4713TIP3    H114145   3.807   4.261   0.136
 4713TIP3    H214146   3.840   4.345   0.014
 4714TIP3   OH214147   5.457   1.520   5.046
 4714TIP3    H114148   5.494   1.432   5.053
 4714TIP3    H214149   5.499   1.558   4.969
 4715TIP3   OH214150   4.523   4.811   0.698
 4715TIP3    H114151   4.578   4.748   0.652
 4715TIP3    H214152   4.434   4.776   0.691
 4716TIP3   OH214153   2.634   3.805   5.088
 4716TIP3    H114154   2.575   3.879   5.094
 4716TIP3    H214155   2.677   3.802   5.174
 4717TIP3   OH214156   5.378   3.274   0.331
 4717TIP3    H114157   5.445   3.316   0.278
 4717TIP3    H214158   5.396   3.304   0.420
 4718TIP3   OH214159   4.244   3.861   0.303
 4718TIP3    H114160   4.169   3.906   0.342
 4718TIP3    H214161   4.312   3.865   0.370
 4719TIP3   OH214162   2.247   0.956   3.978
 4719TIP3    H114163   2.154   0.935   3.986
 4719TIP3    H214164   2.286   0.879   3.937
 4720TIP3   OH214165   1.922   0.437   1.746
 4720TIP3    H114166   1.882   0.403   1.827
 4720TIP3    H214167   1.998   0.380   1.732
 4721TIP3   OH214168   3.222   5.538   3.027
 4721TIP3    H114169   3.191   5.628   3.018
 4721TIP3    H214170   3.316   5.547   3.045
 4722TIP3   OH214171   1.031   1.898   4.323
 4722TIP3    H114172   0.986   1.822   4.287
 4722TIP3    H214173   0.964   1.966   4.328
 4723TIP3   OH214174   4.648   3.529   0.792
 4723TIP3    H114175   4.613   3.586   0.860
 4723TIP3    H214176   4.621   3.441   0.819
 4724TIP3   OH214177   2.027   3.696   2.920
 4724TIP3    H114178   2.039   3.604   2.895
 4724TIP3    H214179   2.100   3.714   2.979
 4725TIP3   OH214180   5.016   4.517   2.279
 4725TIP3    H114181   5.027   4.422   2.278
 4725TIP3    H214182   4.940   4.533   2.223
 4726TIP3   OH214183   1.206   3.812   1.879
 4726TIP3    H114184   1.203   3.765   1.795
 4726TIP3    H214185   1.275   3.878   1.866
 4727TIP3   OH214186   1.996   4.766   1.952
 4727TIP3    H114187   1.960   4.848   1.988
 4727TIP3    H214188   2.084   4.760   1.988
 4728TIP3   OH214189   1.605   3.835   2.061
 4728TIP3    H114190   1.549   3.779   2.007
 4728TIP3    H214191   1.597   3.921   2.022
 4729TIP3   OH214192   5.890   4.487   3.738
 4729TIP3    H114193   5.911   4.491   3.831
 4729TIP3    H214194   5.892   4.393   3.717
 4730TIP3   OH214195   3.342   0.626   0.436
 4730TIP3    H114196   3.264   0.591   0.478
 4730TIP3    H214197   3.346   0.717   0.465
 4731TIP3   OH214198   2.720   3.643   4.245
 4731TIP3    H114199   2.671   3.576   4.292
 4731TIP3    H214200   2.662   3.719   4.245
 4732TIP3   OH214201   1.093   5.798   1.707
 4732TIP3    H114202   1.085   5.828   1.798
 4732TIP3    H214203   1.077   5.877   1.655
 4733TIP3   OH214204   6.102   3.655   1.568
 4733TIP3    H114205   6.149   3.573   1.555
 4733TIP3    H214206   6.167   3.723   1.549
 4734TIP3   OH214207   1.103   4.056   4.129
 4734TIP3    H114208   1.100   4.022   4.219
 4734TIP3    H214209   1.065   4.144   4.135
 4735TIP3   OH214210   1.426   1.127   1.787
 4735TIP3    H114211   1.472   1.203   1.822
 4735TIP3    H214212   1.493   1.058   1.781
 4736TIP3   OH214213   3.088   5.059   2.608
 4736TIP3    H114214   3.100   4.990   2.542
 4736TIP3    H214215   3.125   5.137   2.567
 4737TIP3   OH214216   5.988   4.269   1.550
 4737TIP3    H114217   5.910   4.215   1.562
 4737TIP3    H214218   6.054   4.208   1.515
 4738TIP3   OH214219   1.208   4.596   0.843
 4738TIP3    H114220   1.147   4.581   0.771
 4738TIP3    H214221   1.224   4.690   0.843
 4739TIP3   OH214222   4.483   5.144   1.093
 4739TIP3    H114223   4.412   5.192   1.050
 4739TIP3    H214224   4.497   5.067   1.038
 4740TIP3   OH214225   2.168   3.224   3.379
 4740TIP3    H114226   2.166   3.236   3.284
 4740TIP3    H214227   2.166   3.130   3.392
 4741TIP3   OH214228   4.656   5.579   0.516
 4741TIP3    H114229   4.669   5.562   0.609
 4741TIP3    H214230   4.737   5.548   0.474
 4742TIP3   OH214231   0.531   1.589   4.403
 4742TIP3    H114232   0.575   1.517   4.357
 4742TIP3    H214233   0.438   1.570   4.392
 4743TIP3   OH214234   2.465   4.367   4.743
 4743TIP3    H114235   2.423   4.396   4.662
 4743TIP3    H214236   2.398   4.378   4.810
 4744TIP3   OH214237   0.059   3.396   0.168
 4744TIP3    H114238   0.082   3.470   0.113
 4744TIP3    H214239   0.097   3.416   0.254
 4745TIP3   OH214240   0.548   2.055   3.477
 4745TIP3    H114241   0.459   2.019   3.475
 4745TIP3    H214242   0.550   2.119   3.407
 4746TIP3   OH214243   6.264   1.831   4.447
 4746TIP3    H114244   6.275   1.767   4.377
 4746TIP3    H214245   6.351   1.842   4.484
 4747TIP3   OH214246   0.697   3.812   1.046
 4747TIP3    H114247   0.664   3.892   1.005
 4747TIP3    H214248   0.620   3.756   1.057
 4748TIP3   OH214249   1.699   1.578   0.982
 4748TIP3    H114250   1.629   1.531   0.936
 4748TIP3    H214251   1.737   1.512   1.041
 4749TIP3   OH214252   5.211   3.879   1.625
 4749TIP3    H114253   5.302   3.889   1.597
 4749TIP3    H214254   5.183   3.796   1.585
 4750TIP3   OH214255   4.266   4.021   3.345
 4750TIP3    H114256   4.188   4.067   3.377
 4750TIP3    H214257   4.337   4.085   3.356
 4751TIP3   OH214258   1.184   2.692   1.762
 4751TIP3    H114259   1.220   2.605   1.779
 4751TIP3    H214260   1.201   2.708   1.670
 4752TIP3   OH214261   4.645   1.056   4.528
 4752TIP3    H114262   4.640   0.960   4.528
 4752TIP3    H214263   4.635   1.081   4.620
 4753TIP3   OH214264   2.561   3.613   3.873
 4753TIP3    H114265   2.479   3.590   3.830
 4753TIP3    H214266   2.601   3.529   3.894
 4754TIP3   OH214267   1.417   3.587   4.102
 4754TIP3    H114268   1.441   3.591   4.009
 4754TIP3    H214269   1.348   3.651   4.112
 4755TIP3   OH214270   2.725   5.546   4.344
 4755TIP3    H114271   2.701   5.634   4.375
 4755TIP3    H214272   2.679   5.536   4.261
 4756TIP3   OH214273   3.097   5.516   4.887
 4756TIP3    H114274   3.011   5.555   4.874
 4756TIP3    H214275   3.132   5.504   4.798
 4757TIP3   OH214276   4.094   5.027   3.613
 4757TIP3    H114277   4.038   5.044   3.688
 4757TIP3    H214278   4.048   5.068   3.539
 4758TIP3   OH214279   1.203   1.986   5.113
 4758TIP3    H114280   1.262   2.023   5.046
 4758TIP3    H214281   1.115   1.998   5.076
 4759TIP3   OH214282   0.580   3.696   4.675
 4759TIP3    H114283   0.486   3.695   4.656
 4759TIP3    H214284   0.605   3.604   4.679
 4760TIP3   OH214285   1.364   2.271   1.177
 4760TIP3    H114286   1.372   2.315   1.261
 4760TIP3    H214287   1.286   2.218   1.185
 4761TIP3   OH214288   4.387   1.125   0.670
 4761TIP3    H114289   4.453   1.183   0.632
 4761TIP3    H214290   4.346   1.083   0.595
 4762TIP3   OH214291   0.910   5.615   1.847
 4762TIP3    H114292   0.962   5.672   1.790
 4762TIP3    H214293   0.819   5.637   1.828
 4763TIP3   OH214294   2.565   5.197   3.580
 4763TIP3    H114295   2.520   5.119   3.546
 4763TIP3    H214296   2.603   5.168   3.663
 4764TIP3   OH214297   2.881   2.045   0.910
 4764TIP3    H114298   2.793   2.008   0.901
 4764TIP3    H214299   2.867   2.133   0.944
 4765TIP3   OH214300   0.020   4.208   3.173
 4765TIP3    H114301  -0.045   4.175   3.112
 4765TIP3    H214302  -0.027   4.274   3.224
 4766TIP3   OH214303   1.864   2.665   1.451
 4766TIP3    H114304   1.843   2.576   1.477
 4766TIP3    H214305   1.935   2.691   1.509
 4767TIP3   OH214306   5.493   2.884   1.961
 4767TIP3    H114307   5.553   2.930   2.020
 4767TIP3    H214308   5.523   2.793   1.963
 4768TIP3   OH214309   5.699   3.633   4.168
 4768TIP3    H114310   5.790   3.626   4.196
 4768TIP3    H214311   5.652   3.571   4.225
 4769TIP3   OH214312   5.113   5.799   4.212
 4769TIP3    H114313   5.106   5.812   4.117
 4769TIP3    H214314   5.060   5.869   4.250
 4770TIP3   OH214315   0.404   2.330   1.571
 4770TIP3    H114316   0.480   2.387   1.577
 4770TIP3    H214317   0.433   2.259   1.514
 4771TIP3   OH214318   3.547   4.338   4.742
 4771TIP3    H114319   3.633   4.323   4.703
 4771TIP3    H214320   3.491   4.361   4.668
 4772TIP3   OH214321   6.225   5.830   1.841
 4772TIP3    H114322   6.195   5.788   1.761
 4772TIP3    H214323   6.212   5.924   1.826
 4773TIP3   OH214324   4.572   3.319   3.674
 4773TIP3    H114325   4.505   3.347   3.611
 4773TIP3    H214326   4.654   3.354   3.640
 4774TIP3   OH214327   3.288   3.071   2.769
 4774TIP3    H114328   3.276   3.119   2.852
 4774TIP3    H214329   3.202   3.033   2.751
 4775TIP3   OH214330   4.730   3.130   0.743
 4775TIP3    H114331   4.756   3.086   0.662
 4775TIP3    H214332   4.759   3.071   0.812
 4776TIP3   OH214333   2.411   1.372   1.610
 4776TIP3    H114334   2.502   1.386   1.583
 4776TIP3    H214335   2.367   1.340   1.531
 4777TIP3   OH214336   4.031   1.608   3.353
 4777TIP3    H114337   4.096   1.557   3.401
 4777TIP3    H214338   4.060   1.699   3.363
 4778TIP3   OH214339   2.678   0.563   0.770
 4778TIP3    H114340   2.685   0.495   0.837
 4778TIP3    H214341   2.584   0.580   0.763
 4779TIP3   OH214342   3.441   3.613   2.272
 4779TIP3    H114343   3.425   3.527   2.311
 4779TIP3    H214344   3.525   3.603   2.227
 4780TIP3   OH214345   1.766   2.127   2.368
 4780TIP3    H114346   1.765   2.036   2.398
 4780TIP3    H214347   1.843   2.165   2.410
 4781TIP3   OH214348   0.490   4.625   1.768
 4781TIP3    H114349   0.475   4.717   1.789
 4781TIP3    H214350   0.533   4.626   1.683
 4782TIP3   OH214351   1.406   5.401   1.939
 4782TIP3    H114352   1.469   5.352   1.886
 4782TIP3    H214353   1.349   5.444   1.875
 4783TIP3   OH214354   1.506   0.167   0.044
 4783TIP3    H114355   1.428   0.191   0.093
 4783TIP3    H214356   1.473   0.127  -0.037
 4784TIP3   OH214357   5.725   4.484   4.167
 4784TIP3    H114358   5.647   4.452   4.123
 4784TIP3    H214359   5.757   4.409   4.217
 4785TIP3   OH214360   1.765   0.768   4.818
 4785TIP3    H114361   1.839   0.735   4.870
 4785TIP3    H214362   1.783   0.862   4.808
 4786TIP3   OH214363   5.533  -0.007   1.398
 4786TIP3    H114364   5.564   0.040   1.320
 4786TIP3    H214365   5.440  -0.023   1.380
 4787TIP3   OH214366   2.462   0.141   3.562
 4787TIP3    H114367   2.455   0.049   3.540
 4787TIP3    H214368   2.533   0.146   3.625
 4788TIP3   OH214369   3.554   2.172   0.157
 4788TIP3    H114370   3.556   2.220   0.074
 4788TIP3    H214371   3.615   2.220   0.214
 4789TIP3   OH214372   1.631   3.499   1.045
 4789TIP3    H114373   1.591   3.572   0.998
 4789TIP3    H214374   1.716   3.487   1.003
 4790TIP3   OH214375   0.236   0.071   2.963
 4790TIP3    H114376   0.306   0.086   2.900
 4790TIP3    H214377   0.248   0.140   3.029
 4791TIP3   OH214378   6.278   3.188   2.792
 4791TIP3    H114379   6.243   3.277   2.795
 4791TIP3    H214380   6.332   3.181   2.871
 4792TIP3   OH214381   6.013   3.052   2.557
 4792TIP3    H114382   5.927   3.080   2.590
 4792TIP3    H214383   6.028   3.108   2.480
 4793TIP3   OH214384   3.811   3.127   3.385
 4793TIP3    H114385   3.813   3.171   3.470
 4793TIP3    H214386   3.722   3.144   3.352
 4794TIP3   OH214387   4.419   2.291   3.245
 4794TIP3    H114388   4.460   2.367   3.206
 4794TIP3    H214389   4.447   2.217   3.191
 4795TIP3   OH214390   0.547   3.283   1.472
 4795TIP3    H114391   0.580   3.328   1.394
 4795TIP3    H214392   0.478   3.340   1.506
 4796TIP3   OH214393   1.237   0.678   4.625
 4796TIP3    H114394   1.278   0.599   4.590
 4796TIP3    H214395   1.286   0.697   4.705
 4797TIP3   OH214396   0.332   2.309   3.601
 4797TIP3    H114397   0.332   2.368   3.526
 4797TIP3    H214398   0.294   2.360   3.672
 4798TIP3   OH214399   5.541   5.022   2.162
 4798TIP3    H114400   5.479   5.093   2.148
 4798TIP3    H214401   5.594   5.020   2.082
 4799TIP3   OH214402   4.852   2.546   0.122
 4799TIP3    H114403   4.785   2.614   0.115
 4799TIP3    H214404   4.814   2.470   0.079
 4800TIP3   OH214405   2.454   4.368   5.173
 4800TIP3    H114406   2.397   4.310   5.223
 4800TIP3    H214407   2.397   4.409   5.108
 4801TIP3   OH214408   4.359   2.565   2.703
 4801TIP3    H114409   4.436   2.515   2.677
 4801TIP3    H214410   4.394   2.633   2.762
 4802TIP3   OH214411   0.865   5.354   3.683
 4802TIP3    H114412   0.861   5.277   3.626
 4802TIP3    H214413   0.779   5.396   3.673
 4803TIP3   OH214414   5.915   3.917   0.875
 4803TIP3    H114415   6.011   3.918   0.868
 4803TIP3    H214416   5.894   3.828   0.905
 4804TIP3   OH214417   1.813   0.895   0.834
 4804TIP3    H114418   1.841   0.984   0.812
 4804TIP3    H214419   1.743   0.906   0.897
 4805TIP3   OH214420   5.701   4.338   1.220
 4805TIP3    H114421   5.795   4.350   1.211
 4805TIP3    H214422   5.689   4.245   1.238
 4806TIP3   OH214423   0.878   5.624   2.475
 4806TIP3    H114424   0.808   5.586   2.422
 4806TIP3    H214425   0.920   5.688   2.417
 4807TIP3   OH214426   5.078   4.733   4.718
 4807TIP3    H114427   5.164   4.759   4.685
 4807TIP3    H214428   5.016   4.767   4.654
 4808TIP3   OH214429   1.455   3.727   1.223
 4808TIP3    H114430   1.476   3.663   1.291
 4808TIP3    H214431   1.471   3.812   1.264
 4809TIP3   OH214432   0.777   4.663   0.022
 4809TIP3    H114433   0.795   4.735   0.083
 4809TIP3    H214434   0.693   4.686  -0.018
 4810TIP3   OH214435   2.632   2.223   2.121
 4810TIP3    H114436   2.602   2.135   2.145
 4810TIP3    H214437   2.725   2.223   2.141
 4811TIP3   OH214438   6.061   4.142   2.300
 4811TIP3    H114439   6.062   4.237   2.313
 4811TIP3    H214440   6.148   4.113   2.330
 4812TIP3   OH214441   2.615   1.634   1.193
 4812TIP3    H114442   2.686   1.668   1.138
 4812TIP3    H214443   2.575   1.711   1.231
 4813TIP3   OH214444   5.785   0.846   4.729
 4813TIP3    H114445   5.761   0.938   4.717
 4813TIP3    H214446   5.766   0.828   4.821
 4814TIP3   OH214447   0.271   3.188   1.530
 4814TIP3    H114448   0.254   3.265   1.584
 4814TIP3    H214449   0.300   3.121   1.592
 4815TIP3   OH214450   6.196   5.493   2.873
 4815TIP3    H114451   6.215   5.546   2.950
 4815TIP3    H214452   6.183   5.557   2.803
 4816TIP3   OH214453   3.880   0.492   3.339
 4816TIP3    H114454   3.933   0.485   3.419
 4816TIP3    H214455   3.895   0.581   3.307
 4817TIP3   OH214456   3.376   5.793   3.041
 4817TIP3    H114457   3.338   5.869   3.085
 4817TIP3    H214458   3.448   5.829   2.990
 4818TIP3   OH214459   5.973   0.365   1.985
 4818TIP3    H114460   6.044   0.302   2.000
 4818TIP3    H214461   5.981   0.389   1.893
 4819TIP3   OH214462   5.154   0.481   0.851
 4819TIP3    H114463   5.169   0.405   0.907
 4819TIP3    H214464   5.218   0.471   0.781
 4820TIP3   OH214465   4.903   1.544   1.700
 4820TIP3    H114466   4.863   1.531   1.614
 4820TIP3    H214467   4.833   1.583   1.753
 4821TIP3   OH214468   2.048   5.692   2.285
 4821TIP3    H114469   2.052   5.712   2.192
 4821TIP3    H214470   2.041   5.777   2.328
 4822TIP3   OH214471   2.544   3.541   0.964
 4822TIP3    H114472   2.602   3.484   0.913
 4822TIP3    H214473   2.459   3.533   0.921
 4823TIP3   OH214474   5.906   5.303   1.307
 4823TIP3    H114475   5.833   5.360   1.328
 4823TIP3    H214476   5.885   5.267   1.221
 4824TIP3   OH214477   0.229   3.401   2.550
 4824TIP3    H114478   0.256   3.365   2.635
 4824TIP3    H214479   0.308   3.400   2.497
 4825TIP3   OH214480   3.003   3.983   1.118
 4825TIP3    H114481   2.949   3.981   1.039
 4825TIP3    H214482   3.069   4.050   1.102
 4826TIP3   OH214483   1.386   0.028   4.498
 4826TIP3    H114484   1.325  -0.021   4.442
 4826TIP3    H214485   1.390   0.115   4.459
 4827TIP3   OH214486   0.568   4.993   4.429
 4827TIP3    H114487   0.621   5.057   4.476
 4827TIP3    H214488   0.494   4.976   4.487
 4828TIP3   OH214489   2.049   0.701   3.528
 4828TIP3    H114490   2.137   0.676   3.501
 4828TIP3    H214491   2.036   0.787   3.489
 4829TIP3   OH214492   6.265   2.588   4.014
 4829TIP3    H114493   6.328   2.541   4.070
 4829TIP3    H214494   6.212   2.519   3.975
 4830TIP3   OH214495   5.738   1.254   2.959
 4830TIP3    H114496   5.667   1.243   2.896
 4830TIP3    H214497   5.700   1.308   3.029
 4831TIP3   OH214498   4.541   3.856   1.511
 4831TIP3    H114499   4.519   3.775   1.465
 4831TIP3    H214500   4.636   3.864   1.501
 4832TIP3   OH214501   1.259   2.126   2.055
 4832TIP3    H114502   1.172   2.110   2.091
 4832TIP3    H214503   1.318   2.073   2.109
 4833TIP3   OH214504   3.083   5.733   0.313
 4833TIP3    H114505   3.146   5.773   0.373
 4833TIP3    H214506   3.015   5.697   0.371
 4834TIP3   OH214507   1.931   1.603   3.027
 4834TIP3    H114508   2.003   1.616   3.089
 4834TIP3    H214509   1.866   1.667   3.053
 4835TIP3   OH214510   6.041   4.100   2.672
 4835TIP3    H114511   5.981   4.074   2.602
 4835TIP3    H214512   6.078   4.018   2.703
 4836TIP3   OH214513   5.638   4.291   1.905
 4836TIP3    H114514   5.648   4.372   1.954
 4836TIP3    H214515   5.630   4.318   1.814
 4837TIP3   OH214516   2.804   5.811   1.676
 4837TIP3    H114517   2.788   5.829   1.583
 4837TIP3    H214518   2.848   5.726   1.676
 4838TIP3   OH214519   5.294   0.104   4.399
 4838TIP3    H114520   5.274   0.179   4.455
 4838TIP3    H214521   5.213   0.088   4.351
 4839TIP3   OH214522   2.947   5.818   2.899
 4839TIP3    H114523   2.883   5.783   2.961
 4839TIP3    H214524   2.894   5.840   2.822
 4840TIP3   OH214525   2.257   2.142   2.524
 4840TIP3    H114526   2.288   2.178   2.441
 4840TIP3    H214527   2.259   2.047   2.511
 4841TIP3   OH214528   6.210   1.066   3.802
 4841TIP3    H114529   6.248   0.980   3.821
 4841TIP3    H214530   6.129   1.046   3.753
 4842TIP3   OH214531   1.785   3.544   4.601
 4842TIP3    H114532   1.798   3.457   4.564
 4842TIP3    H214533   1.815   3.537   4.692
 4843TIP3   OH214534   0.501   2.327   0.418
 4843TIP3    H114535   0.596   2.338   0.414
 4843TIP3    H214536   0.474   2.318   0.327
 4844TIP3   OH214537   6.213   2.541   1.733
 4844TIP3    H114538   6.260   2.596   1.669
 4844TIP3    H214539   6.243   2.452   1.714
 4845TIP3   OH214540   1.556   1.243   1.077
 4845TIP3    H114541   1.501   1.314   1.110
 4845TIP3    H214542   1.570   1.187   1.153
 4846TIP3   OH214543   5.511   5.703   0.397
 4846TIP3    H114544   5.481   5.744   0.315
 4846TIP3    H214545   5.598   5.740   0.412
 4847TIP3   OH214546   3.549   5.517   0.922
 4847TIP3    H114547   3.551   5.598   0.974
 4847TIP3    H214548   3.618   5.462   0.960
 4848TIP3   OH214549   0.374   2.452   5.118
 4848TIP3    H114550   0.335   2.535   5.144
 4848TIP3    H214551   0.316   2.385   5.155
 4849TIP3   OH214552   2.515   3.123   1.198
 4849TIP3    H114553   2.455   3.197   1.209
 4849TIP3    H214554   2.460   3.046   1.213
 4850TIP3   OH214555   4.207   2.120   4.245
 4850TIP3    H114556   4.218   2.137   4.338
 4850TIP3    H214557   4.173   2.031   4.240
 4851TIP3   OH214558   3.474   3.706   1.710
 4851TIP3    H114559   3.565   3.725   1.731
 4851TIP3    H214560   3.474   3.685   1.617
 4852TIP3   OH214561   2.036   2.090   5.182
 4852TIP3    H114562   2.050   2.024   5.250
 4852TIP3    H214563   2.094   2.064   5.111
 4853TIP3   OH214564   5.932   2.271   3.525
 4853TIP3    H114565   5.891   2.344   3.479
 4853TIP3    H214566   6.025   2.283   3.511
 4854TIP3   OH214567   4.300   5.858   3.410
 4854TIP3    H114568   4.258   5.880   3.493
 4854TIP3    H214569   4.330   5.768   3.422
 4855TIP3   OH214570   3.064   2.333   1.675
 4855TIP3    H114571   3.117   2.255   1.662
 4855TIP3    H214572   3.124   2.398   1.712
 4856TIP3   OH214573   3.134   2.139   0.755
 4856TIP3    H114574   3.060   2.131   0.695
 4856TIP3    H214575   3.128   2.228   0.789
 4857TIP3   OH214576   3.206   5.805   2.468
 4857TIP3    H114577   3.237   5.747   2.398
 4857TIP3    H214578   3.165   5.747   2.531
 4858TIP3   OH214579   5.596   5.527   2.121
 4858TIP3    H114580   5.608   5.549   2.214
 4858TIP3    H214581   5.646   5.446   2.109
 4859TIP3   OH214582   4.687   5.449   2.833
 4859TIP3    H114583   4.748   5.431   2.904
 4859TIP3    H214584   4.681   5.545   2.830
 4860TIP3   OH214585   4.779   3.729   2.808
 4860TIP3    H114586   4.780   3.733   2.713
 4860TIP3    H214587   4.790   3.820   2.836
 4861TIP3   OH214588   0.692   4.711   3.991
 4861TIP3    H114589   0.621   4.717   4.055
 4861TIP3    H214590   0.678   4.785   3.933
 4862TIP3   OH214591   5.675   1.374   3.972
 4862TIP3    H114592   5.737   1.379   3.899
 4862TIP3    H214593   5.646   1.464   3.986
 4863TIP3   OH214594   4.304   4.517   1.323
 4863TIP3    H114595   4.282   4.602   1.362
 4863TIP3    H214596   4.361   4.539   1.249
 4864TIP3   OH214597   4.723   5.613   0.184
 4864TIP3    H114598   4.779   5.553   0.234
 4864TIP3    H214599   4.637   5.571   0.184
 4865TIP3   OH214600   4.331   2.271   3.734
 4865TIP3    H114601   4.382   2.193   3.710
 4865TIP3    H214602   4.242   2.238   3.746
 4866TIP3   OH214603   0.736   4.267   2.626
 4866TIP3    H114604   0.825   4.295   2.606
 4866TIP3    H214605   0.721   4.192   2.568
 4867TIP3   OH214606   5.566   1.672   0.807
 4867TIP3    H114607   5.627   1.600   0.792
 4867TIP3    H214608   5.533   1.658   0.896
 4868TIP3   OH214609   6.210   5.092   0.278
 4868TIP3    H114610   6.244   5.031   0.213
 4868TIP3    H214611   6.131   5.050   0.312
 4869TIP3   OH214612   3.455   4.381   4.479
 4869TIP3    H114613   3.402   4.452   4.442
 4869TIP3    H214614   3.538   4.387   4.432
 4870TIP3   OH214615   5.968   3.210   3.895
 4870TIP3    H114616   5.877   3.205   3.924
 4870TIP3    H214617   5.995   3.118   3.884
 4871TIP3   OH214618   2.758   4.699   3.898
 4871TIP3    H114619   2.740   4.636   3.829
 4871TIP3    H214620   2.710   4.667   3.974
 4872TIP3   OH214621   4.726   4.077   0.629
 4872TIP3    H114622   4.719   4.006   0.565
 4872TIP3    H214623   4.720   4.033   0.714
 4873TIP3   OH214624   5.021   0.600   4.333
 4873TIP3    H114625   4.948   0.617   4.273
 4873TIP3    H214626   5.092   0.571   4.276
 4874TIP3   OH214627   0.134   3.129   3.417
 4874TIP3    H114628   0.188   3.143   3.495
 4874TIP3    H214629   0.196   3.097   3.351
 4875TIP3   OH214630   4.448   0.165   1.489
 4875TIP3    H114631   4.426   0.177   1.396
 4875TIP3    H214632   4.505   0.088   1.490
 4876TIP3   OH214633   3.222   4.429   2.562
 4876TIP3    H114634   3.267   4.384   2.490
 4876TIP3    H214635   3.230   4.369   2.636
 4877TIP3   OH214636   0.061   5.626   4.184
 4877TIP3    H114637   0.012   5.661   4.109
 4877TIP3    H214638   0.147   5.666   4.176
 4878TIP3   OH214639   3.343   0.258   2.482
 4878TIP3    H114640   3.353   0.226   2.393
 4878TIP3    H214641   3.287   0.336   2.474
 4879TIP3   OH214642   2.808   1.375   0.605
 4879TIP3    H114643   2.769   1.439   0.663
 4879TIP3    H214644   2.819   1.297   0.659
 4880TIP3   OH214645   2.962   4.321   3.981
 4880TIP3    H114646   3.031   4.383   3.956
 4880TIP3    H214647   2.945   4.340   4.074
 4881TIP3   OH214648   2.815   0.829   4.555
 4881TIP3    H114649   2.843   0.739   4.536
 4881TIP3    H214650   2.734   0.840   4.506
 4882TIP3   OH214651   2.676   1.899   2.592
 4882TIP3    H114652   2.655   1.986   2.556
 4882TIP3    H214653   2.647   1.838   2.524
 4883TIP3   OH214654   0.249   0.649   2.585
 4883TIP3    H114655   0.159   0.673   2.564
 4883TIP3    H214656   0.242   0.598   2.666
 4884TIP3   OH214657   5.646   1.313   1.865
 4884TIP3    H114658   5.573   1.333   1.806
 4884TIP3    H214659   5.619   1.350   1.949
 4885TIP3   OH214660   1.240   5.753   0.637
 4885TIP3    H114661   1.267   5.824   0.695
 4885TIP3    H214662   1.213   5.796   0.556
 4886TIP3   OH214663   2.807   2.582   2.240
 4886TIP3    H114664   2.790   2.603   2.148
 4886TIP3    H214665   2.797   2.666   2.285
 4887TIP3   OH214666   3.008   5.346   3.142
 4887TIP3    H114667   3.041   5.311   3.225
 4887TIP3    H214668   3.071   5.414   3.118
 4888TIP3   OH214669   1.323   3.998   0.856
 4888TIP3    H114670   1.227   3.999   0.854
 4888TIP3    H214671   1.346   3.907   0.877
 4889TIP3   OH214672   6.040   5.393   4.561
 4889TIP3    H114673   6.121   5.429   4.524
 4889TIP3    H214674   5.997   5.468   4.601
 4890TIP3   OH214675   3.877   4.697   2.922
 4890TIP3    H114676   3.951   4.756   2.906
 4890TIP3    H214677   3.805   4.736   2.874
 4891TIP3   OH214678   5.805   2.787   2.169
 4891TIP3    H114679   5.786   2.871   2.127
 4891TIP3    H214680   5.732   2.730   2.142
 4892TIP3   OH214681   2.346   2.450   3.294
 4892TIP3    H114682   2.381   2.369   3.257
 4892TIP3    H214683   2.388   2.458   3.379
 4893TIP3   OH214684   4.175   5.300   1.469
 4893TIP3    H114685   4.155   5.208   1.449
 4893TIP3    H214686   4.164   5.307   1.563
 4894TIP3   OH214687   3.283   1.702   3.557
 4894TIP3    H114688   3.362   1.651   3.540
 4894TIP3    H214689   3.314   1.792   3.563
 4895TIP3   OH214690   4.142   0.630   3.345
 4895TIP3    H114691   4.158   0.591   3.259
 4895TIP3    H214692   4.208   0.699   3.352
 4896TIP3   OH214693   2.141   1.204   4.670
 4896TIP3    H114694   2.135   1.113   4.700
 4896TIP3    H214695   2.189   1.249   4.739
 4897TIP3   OH214696   5.720   4.739   0.565
 4897TIP3    H114697   5.664   4.817   0.562
 4897TIP3    H214698   5.768   4.742   0.483
 4898TIP3   OH214699   0.363   0.593   2.870
 4898TIP3    H114700   0.400   0.681   2.879
 4898TIP3    H214701   0.357   0.560   2.960
 4899TIP3   OH214702   0.756   2.477   0.227
 4899TIP3    H114703   0.724   2.518   0.147
 4899TIP3    H214704   0.851   2.481   0.221
 4900TIP3   OH214705   0.138   1.564   3.300
 4900TIP3    H114706   0.130   1.597   3.211
 4900TIP3    H214707   0.111   1.472   3.294
 4901TIP3   OH214708   2.029   3.212   3.639
 4901TIP3    H114709   2.125   3.208   3.639
 4901TIP3    H214710   2.001   3.121   3.634
 4902TIP3   OH214711   2.294   5.122   4.290
 4902TIP3    H114712   2.337   5.169   4.362
 4902TIP3    H214713   2.341   5.039   4.285
 4903TIP3   OH214714   1.486   1.816   0.868
 4903TIP3    H114715   1.484   1.896   0.922
 4903TIP3    H214716   1.421   1.831   0.800
 4904TIP3   OH214717   5.128   3.867   0.393
 4904TIP3    H114718   5.105   3.778   0.368
 4904TIP3    H214719   5.170   3.904   0.315
 4905TIP3   OH214720   5.439   5.388   3.633
 4905TIP3    H114721   5.531   5.401   3.656
 4905TIP3    H214722   5.391   5.450   3.688
 4906TIP3   OH214723   6.170   3.233   2.101
 4906TIP3    H114724   6.135   3.320   2.083
 4906TIP3    H214725   6.152   3.183   2.021
 4907TIP3   OH214726   1.886  -0.015   2.529
 4907TIP3    H114727   1.954   0.020   2.587
 4907TIP3    H214728   1.861   0.059   2.474
 4908TIP3   OH214729   2.733   0.635   4.905
 4908TIP3    H114730   2.727   0.552   4.953
 4908TIP3    H214731   2.781   0.614   4.825
 4909TIP3   OH214732   2.502   0.345   1.005
 4909TIP3    H114733   2.460   0.428   0.981
 4909TIP3    H214734   2.436   0.298   1.057
 4910TIP3   OH214735   1.424   2.950   2.498
 4910TIP3    H114736   1.470   2.970   2.416
 4910TIP3    H214737   1.344   3.002   2.494
 4911TIP3   OH214738   2.077   3.271   2.260
 4911TIP3    H114739   2.065   3.329   2.335
 4911TIP3    H214740   2.142   3.207   2.290
 4912TIP3   OH214741   1.757   3.395   3.203
 4912TIP3    H114742   1.666   3.377   3.180
 4912TIP3    H214743   1.764   3.372   3.296
 4913TIP3   OH214744   0.346   3.267   4.379
 4913TIP3    H114745   0.311   3.340   4.431
 4913TIP3    H214746   0.388   3.310   4.304
 4914TIP3   OH214747   4.780   0.962   3.973
 4914TIP3    H114748   4.742   1.040   4.015
 4914TIP3    H214749   4.714   0.894   3.986
 4915TIP3   OH214750   1.022   0.337   2.415
 4915TIP3    H114751   1.115   0.327   2.395
 4915TIP3    H214752   1.019   0.367   2.506
 4916TIP3   OH214753   2.610   1.770   3.684
 4916TIP3    H114754   2.654   1.718   3.752
 4916TIP3    H214755   2.526   1.727   3.672
 4917TIP3   OH214756   5.079   2.575   1.355
 4917TIP3    H114757   5.113   2.494   1.394
 4917TIP3    H214758   5.153   2.636   1.360
 4918TIP3   OH214759   2.664   4.331   4.569
 4918TIP3    H114760   2.605   4.341   4.644
 4918TIP3    H214761   2.744   4.293   4.606
 4919TIP3   OH214762   2.594   4.357   2.365
 4919TIP3    H114763   2.536   4.433   2.369
 4919TIP3    H214764   2.555   4.294   2.425
 4920TIP3   OH214765   5.250   4.830   0.782
 4920TIP3    H114766   5.307   4.755   0.761
 4920TIP3    H214767   5.210   4.807   0.865
 4921TIP3   OH214768   4.756   5.331   2.377
 4921TIP3    H114769   4.664   5.343   2.353
 4921TIP3    H214770   4.790   5.420   2.387
 4922TIP3   OH214771   3.538   1.573   0.486
 4922TIP3    H114772   3.530   1.663   0.518
 4922TIP3    H214773   3.632   1.560   0.474
 4923TIP3   OH214774   1.412   3.289   0.010
 4923TIP3    H114775   1.497   3.247   0.019
 4923TIP3    H214776   1.430   3.383   0.018
 4924TIP3   OH214777   0.181   0.248   3.166
 4924TIP3    H114778   0.193   0.195   3.245
 4924TIP3    H214779   0.241   0.321   3.177
 4925TIP3   OH214780   1.659   5.806   2.770
 4925TIP3    H114781   1.575   5.851   2.779
 4925TIP3    H214782   1.709   5.860   2.708
 4926TIP3   OH214783   1.716   2.562   3.888
 4926TIP3    H114784   1.733   2.518   3.971
 4926TIP3    H214785   1.802   2.569   3.846
 4927TIP3   OH214786   1.653   2.216   3.915
 4927TIP3    H114787   1.581   2.209   3.853
 4927TIP3    H214788   1.619   2.270   3.987
 4928TIP3   OH214789   1.184   2.689   4.188
 4928TIP3    H114790   1.261   2.658   4.237
 4928TIP3    H214791   1.215   2.768   4.144
 4929TIP3   OH214792   5.337   2.716   0.963
 4929TIP3    H114793   5.247   2.717   0.996
 4929TIP3    H214794   5.384   2.778   1.019
 4930TIP3   OH214795   5.506   2.762   3.140
 4930TIP3    H114796   5.563   2.707   3.086
 4930TIP3    H214797   5.426   2.711   3.150
 4931TIP3   OH214798   2.390   0.410   1.937
 4931TIP3    H114799   2.434   0.421   1.853
 4931TIP3    H214800   2.316   0.471   1.933
 4932TIP3   OH214801   4.288   5.304   1.799
 4932TIP3    H114802   4.346   5.350   1.738
 4932TIP3    H214803   4.347   5.257   1.858
 4933TIP3   OH214804   2.281   1.700   1.480
 4933TIP3    H114805   2.311   1.658   1.560
 4933TIP3    H214806   2.354   1.756   1.453
 4934TIP3   OH214807   4.134   4.461   2.261
 4934TIP3    H114808   4.210   4.405   2.274
 4934TIP3    H214809   4.066   4.422   2.316
 4935TIP3   OH214810   2.813   4.655   0.308
 4935TIP3    H114811   2.852   4.739   0.330
 4935TIP3    H214812   2.778   4.667   0.219
 4936TIP3   OH214813   0.458   2.338   2.485
 4936TIP3    H114814   0.544   2.307   2.456
 4936TIP3    H214815   0.421   2.263   2.532
 4937TIP3   OH214816   5.929   0.133   2.780
 4937TIP3    H114817   5.909   0.196   2.850
 4937TIP3    H214818   5.968   0.059   2.826
 4938TIP3   OH214819   4.778   0.381   2.385
 4938TIP3    H114820   4.754   0.376   2.292
 4938TIP3    H214821   4.839   0.455   2.389
 4939TIP3   OH214822   4.132   3.321   1.276
 4939TIP3    H114823   4.075   3.362   1.211
 4939TIP3    H214824   4.087   3.334   1.360
 4940TIP3   OH214825   6.273   5.850   2.821
 4940TIP3    H114826   6.310   5.938   2.821
 4940TIP3    H214827   6.284   5.819   2.911
 4941TIP3   OH214828   1.587   1.075   3.304
 4941TIP3    H114829   1.647   1.016   3.260
 4941TIP3    H214830   1.614   1.073   3.396
 4942TIP3   OH214831   1.092   2.801   0.968
 4942TIP3    H114832   1.107   2.895   0.980
 4942TIP3    H214833   1.001   2.788   0.992
 4943TIP3   OH214834   5.742   5.316   5.137
 4943TIP3    H114835   5.753   5.405   5.170
 4943TIP3    H214836   5.702   5.327   5.051
 4944TIP3   OH214837   2.054   0.409   4.821
 4944TIP3    H114838   2.121   0.422   4.889
 4944TIP3    H214839   2.066   0.318   4.792
 4945TIP3   OH214840   3.097   2.222   4.065
 4945TIP3    H114841   3.085   2.317   4.061
 4945TIP3    H214842   3.115   2.204   4.157
 4946TIP3   OH214843   5.330   2.864   2.710
 4946TIP3    H114844   5.391   2.938   2.715
 4946TIP3    H214845   5.243   2.904   2.716
 4947TIP3   OH214846   0.891   3.843   3.110
 4947TIP3    H114847   0.866   3.899   3.183
 4947TIP3    H214848   0.917   3.904   3.041
 4948TIP3   OH214849   3.152   2.241   3.299
 4948TIP3    H114850   3.151   2.300   3.376
 4948TIP3    H214851   3.097   2.167   3.325
 4949TIP3   OH214852   0.033   1.027   1.304
 4949TIP3    H114853   0.089   0.977   1.363
 4949TIP3    H214854   0.093   1.068   1.242
 4950TIP3   OH214855   5.431   5.033   4.610
 4950TIP3    H114856   5.418   5.085   4.531
 4950TIP3    H214857   5.523   5.047   4.633
 4951TIP3   OH214858   1.387   4.264   3.448
 4951TIP3    H114859   1.468   4.220   3.471
 4951TIP3    H214860   1.341   4.203   3.391
 4952TIP3   OH214861   5.342   3.937   3.278
 4952TIP3    H114862   5.417   3.973   3.231
 4952TIP3    H214863   5.368   3.939   3.370
 4953TIP3   OH214864   0.937   4.510   1.049
 4953TIP3    H114865   0.910   4.473   1.133
 4953TIP3    H214866   1.001   4.448   1.015
 4954TIP3   OH214867   1.833   1.337   1.090
 4954TIP3    H114868   1.764   1.314   1.152
 4954TIP3    H214869   1.892   1.261   1.090
 4955TIP3   OH214870   5.785   1.097   5.161
 4955TIP3    H114871   5.740   1.173   5.125
 4955TIP3    H214872   5.868   1.093   5.113
 4956TIP3   OH214873   0.383   5.887   0.619
 4956TIP3    H114874   0.462   5.940   0.630
 4956TIP3    H214875   0.361   5.896   0.526
 4957TIP3   OH214876   5.849   3.560   3.429
 4957TIP3    H114877   5.890   3.587   3.512
 4957TIP3    H214878   5.902   3.603   3.362
 4958TIP3   OH214879   4.098   1.719   2.355
 4958TIP3    H114880   4.089   1.672   2.272
 4958TIP3    H214881   4.104   1.812   2.330
 4959TIP3   OH214882   5.885   3.340   0.297
 4959TIP3    H114883   5.852   3.317   0.210
 4959TIP3    H214884   5.949   3.272   0.317
 4960TIP3   OH214885   5.007   4.974   2.691
 4960TIP3    H114886   4.973   4.969   2.601
 4960TIP3    H214887   4.967   5.052   2.727
 4961TIP3   OH214888   0.415   0.661   3.668
 4961TIP3    H114889   0.475   0.705   3.606
 4961TIP3    H214890   0.469   0.595   3.711
 4962TIP3   OH214891   5.721   3.696   5.211
 4962TIP3    H114892   5.701   3.648   5.130
 4962TIP3    H214893   5.704   3.787   5.190
 4963TIP3   OH214894   3.787   2.366   1.757
 4963TIP3    H114895   3.693   2.379   1.743
 4963TIP3    H214896   3.808   2.286   1.709
 4964TIP3   OH214897   2.730   5.467   2.532
 4964TIP3    H114898   2.734   5.555   2.494
 4964TIP3    H214899   2.769   5.410   2.466
 4965TIP3   OH214900   1.664   5.637   2.969
 4965TIP3    H114901   1.630   5.571   2.908
 4965TIP3    H214902   1.655   5.720   2.922
 4966TIP3   OH214903   0.706   0.709   1.848
 4966TIP3    H114904   0.751   0.695   1.932
 4966TIP3    H214905   0.744   0.642   1.790
 4967TIP3   OH214906   0.499   3.120   4.064
 4967TIP3    H114907   0.547   3.050   4.019
 4967TIP3    H214908   0.565   3.162   4.119
 4968TIP3   OH214909   5.157   5.968   1.001
 4968TIP3    H114910   5.077   5.943   0.953
 4968TIP3    H214911   5.134   5.956   1.093
 4969TIP3   OH214912   1.482   4.068   2.252
 4969TIP3    H114913   1.392   4.036   2.245
 4969TIP3    H214914   1.483   4.121   2.332
 4970TIP3   OH214915   5.741   0.827   0.578
 4970TIP3    H114916   5.773   0.814   0.489
 4970TIP3    H214917   5.813   0.872   0.623
 4971TIP3   OH214918   4.095   4.592   3.643
 4971TIP3    H114919   4.085   4.667   3.584
 4971TIP3    H214920   4.025   4.532   3.617
 4972TIP3   OH214921   4.168   1.945   3.853
 4972TIP3    H114922   4.117   2.012   3.807
 4972TIP3    H214923   4.129   1.862   3.826
 4973TIP3   OH214924   5.714   0.985   2.727
 4973TIP3    H114925   5.631   1.009   2.685
 4973TIP3    H214926   5.701   0.895   2.758
 4974TIP3   OH214927   1.993   2.019   2.908
 4974TIP3    H114928   2.035   2.088   2.857
 4974TIP3    H214929   1.931   2.066   2.964
 4975TIP3   OH214930   3.354   4.748   4.882
 4975TIP3    H114931   3.356   4.661   4.923
 4975TIP3    H214932   3.304   4.734   4.801
 4976TIP3   OH214933   4.844   2.220   3.679
 4976TIP3    H114934   4.847   2.208   3.584
 4976TIP3    H214935   4.785   2.294   3.692
 4977TIP3   OH214936   3.456   5.728   3.349
 4977TIP3    H114937   3.421   5.799   3.296
 4977TIP3    H214938   3.393   5.718   3.421
 4978TIP3   OH214939   1.410   4.877   1.915
 4978TIP3    H114940   1.399   4.782   1.928
 4978TIP3    H214941   1.322   4.913   1.930
 4979TIP3   OH214942   5.004   5.559   2.602
 4979TIP3    H114943   5.046   5.571   2.687
 4979TIP3    H214944   5.076   5.537   2.543
 4980TIP3   OH214945   0.949   5.277   4.355
 4980TIP3    H114946   0.929   5.368   4.376
 4980TIP3    H214947   1.042   5.267   4.377
 4981TIP3   OH214948   5.904   4.232   3.582
 4981TIP3    H114949   5.911   4.141   3.551
 4981TIP3    H214950   5.994   4.263   3.585
 4982TIP3   OH214951   3.530   0.192   3.302
 4982TIP3    H114952   3.576   0.244   3.369
 4982TIP3    H214953   3.456   0.152   3.349
 4983TIP3   OH214954   0.694   1.548   3.530
 4983TIP3    H114955   0.767   1.489   3.512
 4983TIP3    H214956   0.725   1.634   3.503
 4984TIP3   OH214957   2.789   1.885   2.005
 4984TIP3    H114958   2.865   1.894   1.949
 4984TIP3    H214959   2.714   1.886   1.945
 4985TIP3   OH214960   5.012   3.062   2.142
 4985TIP3    H114961   4.966   3.007   2.206
 4985TIP3    H214962   4.960   3.055   2.062
 4986TIP3   OH214963   2.496   1.974   4.983
 4986TIP3    H114964   2.455   2.055   4.953
 4986TIP3    H214965   2.475   1.910   4.915
 4987TIP3   OH214966   5.620   0.293   2.807
 4987TIP3    H114967   5.688   0.325   2.866
 4987TIP3    H214968   5.622   0.198   2.817
 4988TIP3   OH214969   0.435   0.739   1.910
 4988TIP3    H114970   0.416   0.731   1.816
 4988TIP3    H214971   0.530   0.742   1.914
 4989TIP3   OH214972   3.554   4.562   1.088
 4989TIP3    H114973   3.543   4.634   1.026
 4989TIP3    H214974   3.623   4.592   1.148
 4990TIP3   OH214975   5.258   1.563   2.929
 4990TIP3    H114976   5.222   1.634   2.876
 4990TIP3    H214977   5.336   1.536   2.881
 4991TIP3   OH214978   2.713   4.432   3.432
 4991TIP3    H114979   2.749   4.414   3.345
 4991TIP3    H214980   2.788   4.424   3.491
 4992TIP3   OH214981   0.403   3.241   3.046
 4992TIP3    H114982   0.386   3.193   3.127
 4992TIP3    H214983   0.420   3.173   2.981
 4993TIP3   OH214984   1.137   3.050   5.086
 4993TIP3    H114985   1.155   2.962   5.119
 4993TIP3    H214986   1.224   3.090   5.078
 4994TIP3   OH214987   3.571   2.122   3.438
 4994TIP3    H114988   3.659   2.101   3.407
 4994TIP3    H214989   3.533   2.175   3.368
 4995TIP3   OH214990   3.720   4.658   4.983
 4995TIP3    H114991   3.638   4.658   5.031
 4995TIP3    H214992   3.786   4.687   5.047
 4996TIP3   OH214993   0.313   2.112   2.632
 4996TIP3    H114994   0.343   2.053   2.563
 4996TIP3    H214995   0.308   2.057   2.710
 4997TIP3   OH214996   3.644   2.272   1.429
 4997TIP3    H114997   3.573   2.286   1.366
 4997TIP3    H214998   3.703   2.211   1.385
 4998TIP3   OH214999   4.948   2.221   1.757
 4998TIP3    H115000   4.967   2.215   1.663
 4998TIP3    H215001   5.033   2.239   1.797
 4999TIP3   OH215002   0.718   5.023   5.039
 4999TIP3    H115003   0.760   5.034   4.954
 4999TIP3    H215004   0.630   5.061   5.028
 5000TIP3   OH215005   0.550   2.589   1.731
 5000TIP3    H115006   0.573   2.497   1.745
 5000TIP3    H215007   0.547   2.627   1.819
 5001TIP3   OH215008   6.296   2.897   3.076
 5001TIP3    H115009   6.304   2.899   2.981
 5001TIP3    H215010   6.224   2.836   3.093
 5002TIP3   OH215011   1.804   3.269   4.951
 5002TIP3    H115012   1.857   3.191   4.938
 5002TIP3    H215013   1.714   3.238   4.948
 5003TIP3   OH215014   4.629   1.743   2.683
 5003TIP3    H115015   4.682   1.804   2.631
 5003TIP3    H215016   4.672   1.658   2.671
 5004TIP3   OH215017   4.929   5.757   4.484
 5004TIP3    H115018   4.875   5.789   4.557
 5004TIP3    H215019   4.932   5.831   4.423
 5005TIP3   OH215020   6.245   2.928   2.578
 5005TIP3    H115021   6.155   2.962   2.577
 5005TIP3    H215022   6.235   2.833   2.568
 5006TIP3   OH215023   1.193   5.552   4.695
 5006TIP3    H115024   1.150   5.547   4.781
 5006TIP3    H215025   1.285   5.530   4.713
 5007TIP3   OH215026   2.798   2.847   2.791
 5007TIP3    H115027   2.787   2.777   2.855
 5007TIP3    H215028   2.733   2.912   2.816
 5008TIP3   OH215029   5.310   0.608   1.340
 5008TIP3    H115030   5.275   0.672   1.401
 5008TIP3    H215031   5.285   0.523   1.377
 5009TIP3   OH215032   1.344   0.968   3.334
 5009TIP3    H115033   1.364   0.891   3.387
 5009TIP3    H215034   1.429   1.005   3.310
 5010TIP3   OH215035   6.036   3.680   1.191
 5010TIP3    H115036   6.039   3.644   1.103
 5010TIP3    H215037   6.110   3.640   1.237
 5011TIP3   OH215038   1.809   3.589   0.164
 5011TIP3    H115039   1.859   3.645   0.223
 5011TIP3    H215040   1.764   3.527   0.223
 5012TIP3   OH215041   4.300   0.595   5.155
 5012TIP3    H115042   4.228   0.552   5.109
 5012TIP3    H215043   4.377   0.576   5.101
 5013TIP3   OH215044   0.965   0.716   4.707
 5013TIP3    H115045   0.992   0.743   4.794
 5013TIP3    H215046   1.044   0.722   4.653
 5014TIP3   OH215047   1.237   4.746   1.472
 5014TIP3    H115048   1.171   4.692   1.430
 5014TIP3    H215049   1.281   4.688   1.534
 5015TIP3   OH215050   2.391   3.171   4.563
 5015TIP3    H115051   2.393   3.077   4.542
 5015TIP3    H215052   2.302   3.198   4.539
 5016TIP3   OH215053   2.404   5.441   0.279
 5016TIP3    H115054   2.386   5.401   0.364
 5016TIP3    H215055   2.381   5.373   0.215
 5017TIP3   OH215056   3.648   5.229   3.392
 5017TIP3    H115057   3.618   5.286   3.320
 5017TIP3    H215058   3.591   5.252   3.466
 5018TIP3   OH215059   1.262   3.496   2.922
 5018TIP3    H115060   1.265   3.576   2.974
 5018TIP3    H215061   1.272   3.525   2.832
 5019TIP3   OH215062   4.858   5.933   3.788
 5019TIP3    H115063   4.767   5.906   3.798
 5019TIP3    H215064   4.874   5.928   3.694
 5020TIP3   OH215065   1.051   0.856   2.299
 5020TIP3    H115066   1.123   0.821   2.246
 5020TIP3    H215067   1.093   0.891   2.377
 5021TIP3   OH215068   3.321   3.201   0.818
 5021TIP3    H115069   3.277   3.144   0.755
 5021TIP3    H215070   3.277   3.285   0.809
 5022TIP3   OH215071   5.114   5.553   4.517
 5022TIP3    H115072   5.105   5.522   4.607
 5022TIP3    H215073   5.054   5.627   4.510
 5023TIP3   OH215074   2.359   4.944   0.484
 5023TIP3    H115075   2.330   5.012   0.545
 5023TIP3    H215076   2.283   4.926   0.430
 5024TIP3   OH215077   4.391   2.389   4.422
 5024TIP3    H115078   4.369   2.316   4.480
 5024TIP3    H215079   4.308   2.415   4.383
 5025TIP3   OH215080   1.043   0.130   4.110
 5025TIP3    H115081   1.007   0.057   4.060
 5025TIP3    H215082   1.009   0.208   4.067
 5026TIP3   OH215083   5.938   2.532   1.788
 5026TIP3    H115084   5.935   2.508   1.881
 5026TIP3    H215085   6.032   2.535   1.768
 5027TIP3   OH215086   2.173   5.631   1.092
 5027TIP3    H115087   2.132   5.549   1.118
 5027TIP3    H215088   2.170   5.686   1.170
 5028TIP3   OH215089   2.069   2.001   1.783
 5028TIP3    H115090   1.985   1.984   1.740
 5028TIP3    H215091   2.088   1.920   1.832
 5029TIP3   OH215092   2.236   1.869   2.423
 5029TIP3    H115093   2.185   1.902   2.349
 5029TIP3    H215094   2.170   1.831   2.482
 5030TIP3   OH215095   2.878   0.581   4.448
 5030TIP3    H115096   2.880   0.533   4.531
 5030TIP3    H215097   2.861   0.515   4.382
 5031TIP3   OH215098   5.344   0.058   2.638
 5031TIP3    H115099   5.325   0.140   2.593
 5031TIP3    H215100   5.320  -0.010   2.576
 5032TIP3   OH215101   1.085   5.770   4.039
 5032TIP3    H115102   0.997   5.739   4.017
 5032TIP3    H215103   1.142   5.730   3.973
 5033TIP3   OH215104   0.509   5.010   3.224
 5033TIP3    H115105   0.574   4.941   3.232
 5033TIP3    H215106   0.496   5.020   3.130
 5034TIP3   OH215107   1.425   2.718   0.188
 5034TIP3    H115108   1.369   2.713   0.111
 5034TIP3    H215109   1.420   2.810   0.215
 5035TIP3   OH215110   5.262   5.558   0.435
 5035TIP3    H115111   5.279   5.617   0.362
 5035TIP3    H215112   5.184   5.595   0.478
 5036TIP3   OH215113   2.089   2.266   3.124
 5036TIP3    H115114   2.017   2.328   3.133
 5036TIP3    H215115   2.160   2.319   3.086
 5037TIP3   OH215116   3.290   0.872   1.905
 5037TIP3    H115117   3.357   0.865   1.973
 5037TIP3    H215118   3.253   0.784   1.899
 5038TIP3   OH215119   1.688   2.614   1.035
 5038TIP3    H115120   1.701   2.709   1.031
 5038TIP3    H215121   1.696   2.585   0.945
 5039TIP3   OH215122   5.654   3.000   1.698
 5039TIP3    H115123   5.692   2.914   1.716
 5039TIP3    H215124   5.562   2.992   1.726
 5040TIP3   OH215125   2.244   4.697   4.446
 5040TIP3    H115126   2.197   4.725   4.524
 5040TIP3    H215127   2.309   4.766   4.431
 5041TIP3   OH215128   3.457   0.150   3.734
 5041TIP3    H115129   3.446   0.056   3.752
 5041TIP3    H215130   3.430   0.160   3.643
 5042TIP3   OH215131   2.689   0.297   0.525
 5042TIP3    H115132   2.732   0.211   0.527
 5042TIP3    H215133   2.668   0.315   0.617
 5043TIP3   OH215134   5.905   3.988   2.455
 5043TIP3    H115135   5.955   4.036   2.389
 5043TIP3    H215136   5.887   3.903   2.415
 5044TIP3   OH215137   0.200   5.900   4.038
 5044TIP3    H115138   0.133   5.908   3.969
 5044TIP3    H215139   0.238   5.987   4.045
 5045TIP3   OH215140   1.250   5.133   1.361
 5045TIP3    H115141   1.303   5.208   1.387
 5045TIP3    H215142   1.164   5.151   1.399
 5046TIP3   OH215143   0.044   0.771   1.131
 5046TIP3    H115144   0.014   0.816   1.051
 5046TIP3    H215145   0.072   0.842   1.189
 5047TIP3   OH215146   4.495   4.892   0.063
 5047TIP3    H115147   4.579   4.928   0.035
 5047TIP3    H215148   4.450   4.870  -0.019
 5048TIP3   OH215149   2.217   0.201   1.918
 5048TIP3    H115150   2.130   0.221   1.951
 5048TIP3    H215151   2.268   0.280   1.933
 5049TIP3   OH215152   4.999   1.665   0.511
 5049TIP3    H115153   5.076   1.651   0.456
 5049TIP3    H215154   5.016   1.749   0.555
 5050TIP3   OH215155   4.883   5.970   0.345
 5050TIP3    H115156   4.807   5.951   0.290
 5050TIP3    H215157   4.930   6.039   0.299
 5051TIP3   OH215158   2.994   3.876   4.828
 5051TIP3    H115159   3.043   3.794   4.839
 5051TIP3    H215160   3.061   3.942   4.809
 5052TIP3   OH215161   3.080   3.398   3.444
 5052TIP3    H115162   3.054   3.447   3.366
 5052TIP3    H215163   3.067   3.459   3.516
 5053TIP3   OH215164   0.058   1.578   3.679
 5053TIP3    H115165   0.062   1.523   3.758
 5053TIP3    H215166   0.149   1.594   3.657
 5054TIP3   OH215167   1.869   2.415   0.663
 5054TIP3    H115168   1.868   2.507   0.691
 5054TIP3    H215169   1.781   2.384   0.681
 5055TIP3   OH215170   4.170   0.325   2.618
 5055TIP3    H115171   4.105   0.386   2.584
 5055TIP3    H215172   4.238   0.380   2.657
 5056TIP3   OH215173   4.515   4.664   4.892
 5056TIP3    H115174   4.601   4.641   4.928
 5056TIP3    H215175   4.532   4.735   4.830
 5057TIP3   OH215176   2.611   1.113   2.333
 5057TIP3    H115177   2.544   1.134   2.269
 5057TIP3    H215178   2.691   1.102   2.282
 5058TIP3   OH215179   2.258   5.867   3.963
 5058TIP3    H115180   2.222   5.932   4.023
 5058TIP3    H215181   2.189   5.801   3.955
 5059TIP3   OH215182   0.651   3.751   3.252
 5059TIP3    H115183   0.680   3.687   3.318
 5059TIP3    H215184   0.723   3.753   3.188
 5060TIP3   OH215185   2.986   3.347   4.241
 5060TIP3    H115186   3.069   3.393   4.248
 5060TIP3    H215187   2.982   3.318   4.150
 5061TIP3   OH215188   2.093   1.413   1.258
 5061TIP3    H115189   1.998   1.413   1.245
 5061TIP3    H215190   2.120   1.502   1.236
 5062TIP3   OH215191   3.932   5.029   4.496
 5062TIP3    H115192   3.872   5.101   4.514
 5062TIP3    H215193   3.878   4.964   4.450
 5063TIP3   OH215194   5.224   2.685   4.712
 5063TIP3    H115195   5.249   2.600   4.675
 5063TIP3    H215196   5.306   2.736   4.712
 5064TIP3   OH215197   0.301   3.183   4.800
 5064TIP3    H115198   0.276   3.127   4.873
 5064TIP3    H215199   0.393   3.163   4.784
 5065TIP3   OH215200   3.177   1.846   3.832
 5065TIP3    H115201   3.264   1.885   3.838
 5065TIP3    H215202   3.131   1.898   3.766
 5066TIP3   OH215203   5.226   5.919   3.081
 5066TIP3    H115204   5.269   5.990   3.032
 5066TIP3    H215205   5.298   5.873   3.123
 5067TIP3   OH215206   0.354   1.303   3.774
 5067TIP3    H115207   0.350   1.372   3.840
 5067TIP3    H215208   0.264   1.295   3.742
 5068TIP3   OH215209   4.264   0.220   2.315
 5068TIP3    H115210   4.308   0.232   2.231
 5068TIP3    H215211   4.297   0.290   2.371
 5069TIP3   OH215212   2.330   1.904   1.978
 5069TIP3    H115213   2.296   1.833   2.033
 5069TIP3    H215214   2.287   1.983   2.011
 5070TIP3   OH215215   5.842   5.610   1.974
 5070TIP3    H115216   5.835   5.571   1.887
 5070TIP3    H215217   5.759   5.588   2.016
 5071TIP3   OH215218   3.324   4.991   5.014
 5071TIP3    H115219   3.361   4.912   4.973
 5071TIP3    H215220   3.232   4.991   4.986
 5072TIP3   OH215221   4.765   4.490   4.575
 5072TIP3    H115222   4.833   4.512   4.511
 5072TIP3    H215223   4.810   4.491   4.660
 5073TIP3   OH215224   5.992   5.204   5.100
 5073TIP3    H115225   5.900   5.222   5.120
 5073TIP3    H215226   6.024   5.152   5.174
 5074TIP3   OH215227   1.128   0.757   0.220
 5074TIP3    H115228   1.190   0.685   0.220
 5074TIP3    H215229   1.136   0.796   0.307
 5075TIP3   OH215230   2.332   2.677   2.626
 5075TIP3    H115231   2.338   2.665   2.532
 5075TIP3    H215232   2.255   2.626   2.652
 5076TIP3   OH215233   5.396   3.891   4.679
 5076TIP3    H115234   5.355   3.955   4.621
 5076TIP3    H215235   5.414   3.940   4.759
 5077TIP3   OH215236   5.281   0.341   0.321
 5077TIP3    H115237   5.218   0.302   0.383
 5077TIP3    H215238   5.334   0.267   0.292
 5078TIP3   OH215239   2.200   0.301   3.122
 5078TIP3    H115240   2.254   0.315   3.200
 5078TIP3    H215241   2.217   0.378   3.067
 5079TIP3   OH215242   4.664   1.422   4.395
 5079TIP3    H115243   4.688   1.495   4.338
 5079TIP3    H215244   4.629   1.356   4.335
 5080TIP3   OH215245   4.429   2.482   0.019
 5080TIP3    H115246   4.393   2.553   0.073
 5080TIP3    H215247   4.494   2.440   0.075
 5081TIP3   OH215248   0.526   2.701   2.096
 5081TIP3    H115249   0.476   2.639   2.043
 5081TIP3    H215250   0.496   2.787   2.065
 5082TIP3   OH215251   3.124   0.837   3.446
 5082TIP3    H115252   3.079   0.757   3.475
 5082TIP3    H215253   3.108   0.839   3.351
 5083TIP3   OH215254   1.651   5.039   0.710
 5083TIP3    H115255   1.573   5.029   0.655
 5083TIP3    H215256   1.703   4.960   0.691
 5084TIP3   OH215257   2.468   1.809   2.808
 5084TIP3    H115258   2.499   1.848   2.726
 5084TIP3    H215259   2.382   1.773   2.786
 5085TIP3   OH215260   6.360   5.484   4.832
 5085TIP3    H115261   6.401   5.401   4.805
 5085TIP3    H215262   6.285   5.457   4.886
 5086TIP3   OH215263   4.482   1.392   3.552
 5086TIP3    H115264   4.396   1.371   3.516
 5086TIP3    H215265   4.464   1.421   3.642
 5087TIP3   OH215266   1.887   0.306   3.047
 5087TIP3    H115267   1.929   0.223   3.028
 5087TIP3    H215268   1.953   0.356   3.096
 5088TIP3   OH215269   4.438   4.346   0.381
 5088TIP3    H115270   4.487   4.291   0.320
 5088TIP3    H215271   4.478   4.330   0.466
 5089TIP3   OH215272   1.585   3.079   2.003
 5089TIP3    H115273   1.677   3.100   2.017
 5089TIP3    H215274   1.569   3.099   1.910
 5090TIP3   OH215275   4.264   5.491   4.328
 5090TIP3    H115276   4.294   5.409   4.290
 5090TIP3    H215277   4.173   5.500   4.299
 5091TIP3   OH215278   6.148   2.975   0.909
 5091TIP3    H115279   6.111   3.043   0.853
 5091TIP3    H215280   6.189   3.024   0.981
 5092TIP3   OH215281   0.046   2.747   3.662
 5092TIP3    H115282   0.126   2.793   3.635
 5092TIP3    H215283   0.014   2.797   3.737
 5093TIP3   OH215284   2.175   0.603   0.871
 5093TIP3    H115285   2.116   0.649   0.812
 5093TIP3    H215286   2.118   0.570   0.941
 5094TIP3   OH215287   0.449   2.047   3.023
 5094TIP3    H115288   0.377   2.103   2.995
 5094TIP3    H215289   0.445   1.971   2.966
 5095TIP3   OH215290   5.797   4.788   2.703
 5095TIP3    H115291   5.739   4.852   2.744
 5095TIP3    H215292   5.856   4.760   2.774
 5096TIP3   OH215293   2.561   4.693   2.561
 5096TIP3    H115294   2.563   4.757   2.632
 5096TIP3    H215295   2.631   4.631   2.581
 5097TIP3   OH215296   0.253   4.518   1.642
 5097TIP3    H115297   0.309   4.538   1.717
 5097TIP3    H215298   0.166   4.549   1.668
 5098TIP3   OH215299   3.220   2.104   4.794
 5098TIP3    H115300   3.221   2.011   4.772
 5098TIP3    H215301   3.130   2.132   4.775
 5099TIP3   OH215302   1.390   0.776   4.192
 5099TIP3    H115303   1.432   0.702   4.149
 5099TIP3    H215304   1.438   0.786   4.275
 5100TIP3   OH215305   3.956   5.007   1.086
 5100TIP3    H115306   3.868   4.982   1.057
 5100TIP3    H215307   3.941   5.074   1.154
 5101TIP3   OH215308   2.035   3.476   1.554
 5101TIP3    H115309   2.075   3.563   1.555
 5101TIP3    H215310   2.090   3.424   1.613
 5102TIP3   OH215311   2.601   0.558   4.303
 5102TIP3    H115312   2.607   0.641   4.350
 5102TIP3    H215313   2.538   0.506   4.352
 5103TIP3   OH215314   1.985   4.000   1.468
 5103TIP3    H115315   1.994   4.039   1.555
 5103TIP3    H215316   2.070   3.961   1.450
 5104TIP3   OH215317   5.009   2.344   2.064
 5104TIP3    H115318   5.059   2.298   1.997
 5104TIP3    H215319   5.062   2.420   2.086
 5105TIP3   OH215320   2.511   1.790   2.371
 5105TIP3    H115321   2.426   1.820   2.402
 5105TIP3    H215322   2.510   1.695   2.383
 5106TIP3   OH215323   4.064   1.797   0.575
 5106TIP3    H115324   4.067   1.731   0.505
 5106TIP3    H215325   4.030   1.875   0.532
 5107TIP3   OH215326   1.723   5.114   3.684
 5107TIP3    H115327   1.643   5.097   3.736
 5107TIP3    H215328   1.758   5.195   3.722
 5108TIP3   OH215329   3.204   2.882   4.624
 5108TIP3    H115330   3.157   2.841   4.550
 5108TIP3    H215331   3.146   2.953   4.652
 5109TIP3   OH215332   4.690   3.965   4.038
 5109TIP3    H115333   4.658   4.053   4.019
 5109TIP3    H215334   4.655   3.911   3.967
 5110TIP3   OH215335   1.879   5.455   3.468
 5110TIP3    H115336   1.871   5.541   3.427
 5110TIP3    H215337   1.845   5.394   3.403
 5111TIP3   OH215338   1.280   2.428   4.058
 5111TIP3    H115339   1.231   2.497   4.102
 5111TIP3    H215340   1.268   2.446   3.965
 5112TIP3   OH215341   4.059   1.570   2.942
 5112TIP3    H115342   4.092   1.658   2.961
 5112TIP3    H215343   4.118   1.512   2.991
 5113TIP3   OH215344   2.440   2.806   1.214
 5113TIP3    H115345   2.502   2.816   1.286
 5113TIP3    H215346   2.366   2.760   1.252
 5114TIP3   OH215347   4.292   4.927   2.478
 5114TIP3    H115348   4.367   4.968   2.521
 5114TIP3    H215349   4.266   4.856   2.537
 5115TIP3   OH215350   1.236   5.354   2.688
 5115TIP3    H115351   1.311   5.380   2.635
 5115TIP3    H215352   1.223   5.261   2.668
 5116TIP3   OH215353   4.505   5.463   4.923
 5116TIP3    H115354   4.601   5.473   4.920
 5116TIP3    H215355   4.472   5.551   4.904
 5117TIP3   OH215356   3.824   2.116   4.248
 5117TIP3    H115357   3.743   2.132   4.297
 5117TIP3    H215358   3.890   2.101   4.316
 5118TIP3   OH215359   5.292   5.349   4.641
 5118TIP3    H115360   5.381   5.353   4.605
 5118TIP3    H215361   5.236   5.361   4.565
 5119TIP3   OH215362   0.184   1.218   0.164
 5119TIP3    H115363   0.112   1.155   0.156
 5119TIP3    H215364   0.159   1.274   0.237
 5120TIP3   OH215365   3.223   2.907   1.116
 5120TIP3    H115366   3.211   2.826   1.165
 5120TIP3    H215367   3.316   2.908   1.093
 5121TIP3   OH215368   4.908   4.979   4.403
 5121TIP3    H115369   4.999   4.996   4.426
 5121TIP3    H215370   4.895   5.026   4.320
 5122TIP3   OH215371   1.815   1.257   3.416
 5122TIP3    H115372   1.903   1.234   3.388
 5122TIP3    H215373   1.783   1.180   3.462
 5123TIP3   OH215374   5.680   5.521   3.991
 5123TIP3    H115375   5.731   5.442   3.975
 5123TIP3    H215376   5.745   5.591   3.999
 5124TIP3   OH215377   2.457   4.874   4.253
 5124TIP3    H115378   2.500   4.938   4.197
 5124TIP3    H215379   2.525   4.848   4.316
 5125TIP3   OH215380   0.294   2.051   1.945
 5125TIP3    H115381   0.352   2.004   2.005
 5125TIP3    H215382   0.341   2.133   1.926
 5126TIP3   OH215383   1.661   4.306   0.994
 5126TIP3    H115384   1.654   4.277   0.903
 5126TIP3    H215385   1.740   4.360   0.996
 5127TIP3   OH215386   5.755   1.789   4.999
 5127TIP3    H115387   5.680   1.800   4.940
 5127TIP3    H215388   5.715   1.768   5.084
 5128TIP3   OH215389   2.951   3.592   5.113
 5128TIP3    H115390   3.014   3.530   5.150
 5128TIP3    H215391   2.947   3.663   5.178
 5129TIP3   OH215392   4.384   0.149   0.318
 5129TIP3    H115393   4.478   0.166   0.328
 5129TIP3    H215394   4.347   0.234   0.296
 5130TIP3   OH215395   1.404   5.799   5.123
 5130TIP3    H115396   1.336   5.858   5.092
 5130TIP3    H215397   1.357   5.722   5.154
 5131TIP3   OH215398   3.136   1.106   3.753
 5131TIP3    H115399   3.044   1.111   3.726
 5131TIP3    H215400   3.180   1.170   3.696
 5132TIP3   OH215401   2.379   4.253   4.174
 5132TIP3    H115402   2.331   4.171   4.186
 5132TIP3    H215403   2.467   4.233   4.205
 5133TIP3   OH215404   5.957   5.092   2.350
 5133TIP3    H115405   5.928   5.183   2.342
 5133TIP3    H215406   5.979   5.081   2.443
 5134TIP3   OH215407   0.426   0.666   0.980
 5134TIP3    H115408   0.356   0.631   0.924
 5134TIP3    H215409   0.413   0.761   0.977
 5135TIP3   OH215410   1.432   1.844   4.079
 5135TIP3    H115411   1.378   1.785   4.027
 5135TIP3    H215412   1.479   1.787   4.139
 5136TIP3   OH215413   1.749   5.340   4.235
 5136TIP3    H115414   1.783   5.284   4.164
 5136TIP3    H215415   1.795   5.309   4.313
 5137TIP3   OH215416   3.404   2.826   2.606
 5137TIP3    H115417   3.388   2.919   2.590
 5137TIP3    H215418   3.322   2.783   2.582
 5138TIP3   OH215419   2.533   3.841   4.259
 5138TIP3    H115420   2.515   3.862   4.351
 5138TIP3    H215421   2.451   3.860   4.213
 5139TIP3   OH215422   2.272   1.529   3.943
 5139TIP3    H115423   2.205   1.509   3.878
 5139TIP3    H215424   2.233   1.500   4.026
 5140TIP3   OH215425   2.651   5.231   2.040
 5140TIP3    H115426   2.743   5.204   2.045
 5140TIP3    H215427   2.652   5.323   2.064
 5141TIP3   OH215428   4.140   5.685   2.692
 5141TIP3    H115429   4.048   5.657   2.697
 5141TIP3    H215430   4.152   5.742   2.767
 5142TIP3   OH215431   0.868   3.500   4.955
 5142TIP3    H115432   0.934   3.450   5.003
 5142TIP3    H215433   0.785   3.460   4.979
 5143TIP3   OH215434   1.771   4.368   4.549
 5143TIP3    H115435   1.775   4.335   4.460
 5143TIP3    H215436   1.861   4.395   4.569
 5144TIP3   OH215437   1.096   0.164   0.808
 5144TIP3    H115438   1.143   0.234   0.854
 5144TIP3    H215439   1.025   0.140   0.867
 5145TIP3   OH215440   5.945   0.709   0.052
 5145TIP3    H115441   6.035   0.679   0.067
 5145TIP3    H215442   5.955   0.782  -0.008
 5146TIP3   OH215443   2.799   2.293   0.939
 5146TIP3    H115444   2.746   2.372   0.949
 5146TIP3    H215445   2.880   2.324   0.898
 5147TIP3   OH215446   3.631   4.724   4.466
 5147TIP3    H115447   3.603   4.710   4.557
 5147TIP3    H215448   3.725   4.705   4.466
 5148TIP3   OH215449   3.323   1.295   1.738
 5148TIP3    H115450   3.418   1.285   1.743
 5148TIP3    H215451   3.310   1.381   1.699
 5149TIP3   OH215452   5.575   2.864   4.363
 5149TIP3    H115453   5.616   2.792   4.411
 5149TIP3    H215454   5.505   2.895   4.421
 5150TIP3   OH215455   5.176   0.221   1.191
 5150TIP3    H115456   5.187   0.268   1.274
 5150TIP3    H215457   5.082   0.223   1.175
 5151TIP3   OH215458   1.135   5.023   3.922
 5151TIP3    H115459   1.053   5.000   3.967
 5151TIP3    H215460   1.175   5.090   3.977
 5152TIP3   OH215461   0.497   5.053   4.115
 5152TIP3    H115462   0.517   5.000   4.193
 5152TIP3    H215463   0.422   5.009   4.075
 5153TIP3   OH215464   2.638   1.010   2.590
 5153TIP3    H115465   2.628   1.023   2.496
 5153TIP3    H215466   2.552   1.034   2.627
 5154TIP3   OH215467   4.946   5.833   4.979
 5154TIP3    H115468   4.860   5.807   5.013
 5154TIP3    H215469   4.946   5.805   4.888
 5155TIP3   OH215470   4.994   1.029   0.685
 5155TIP3    H115471   4.985   0.962   0.618
 5155TIP3    H215472   5.056   0.992   0.748
 5156TIP3   OH215473   4.546   1.803   3.315
 5156TIP3    H115474   4.568   1.880   3.263
 5156TIP3    H215475   4.486   1.752   3.259
 5157TIP3   OH215476   4.784   5.300   4.255
 5157TIP3    H115477   4.836   5.374   4.226
 5157TIP3    H215478   4.727   5.280   4.181
 5158TIP3   OH215479   3.798   3.613   4.062
 5158TIP3    H115480   3.886   3.638   4.034
 5158TIP3    H215481   3.757   3.694   4.092
 5159TIP3   OH215482   0.212   0.884   0.705
 5159TIP3    H115483   0.280   0.931   0.753
 5159TIP3    H215484   0.169   0.951   0.653
 5160TIP3   OH215485   4.027   2.106   1.841
 5160TIP3    H115486   4.102   2.059   1.806
 5160TIP3    H215487   3.970   2.120   1.765
 5161TIP3   OH215488   5.222   3.878   5.112
 5161TIP3    H115489   5.137   3.836   5.094
 5161TIP3    H215490   5.286   3.808   5.102
 5162TIP3   OH215491   1.100   5.558   0.245
 5162TIP3    H115492   1.176   5.571   0.302
 5162TIP3    H215493   1.114   5.617   0.171
 5163TIP3   OH215494   1.028   3.904   3.910
 5163TIP3    H115495   1.043   3.974   3.974
 5163TIP3    H215496   1.061   3.825   3.952
 5164TIP3   OH215497   3.677   5.726   1.755
 5164TIP3    H115498   3.636   5.648   1.792
 5164TIP3    H215499   3.604   5.777   1.720
 5165TIP3   OH215500   2.924   3.289   2.312
 5165TIP3    H115501   2.938   3.316   2.402
 5165TIP3    H215502   3.005   3.313   2.267
 5166TIP3   OH215503   3.976   1.920   4.913
 5166TIP3    H115504   3.993   1.978   4.839
 5166TIP3    H215505   4.004   1.971   4.989
 5167TIP3   OH215506   3.866   3.267   2.291
 5167TIP3    H115507   3.800   3.321   2.336
 5167TIP3    H215508   3.817   3.220   2.224
 5168TIP3   OH215509   6.113   0.999   1.237
 5168TIP3    H115510   6.091   0.948   1.159
 5168TIP3    H215511   6.205   0.980   1.254
 5169TIP3   OH215512   1.498   2.958   1.591
 5169TIP3    H115513   1.467   2.895   1.656
 5169TIP3    H215514   1.527   2.904   1.517
 5170TIP3   OH215515   5.701   1.435   1.509
 5170TIP3    H115516   5.651   1.447   1.590
 5170TIP3    H215517   5.784   1.478   1.526
 5171TIP3   OH215518   4.275   3.434   3.134
 5171TIP3    H115519   4.250   3.420   3.226
 5171TIP3    H215520   4.299   3.527   3.130
 5172TIP3   OH215521   1.177   0.585   3.097
 5172TIP3    H115522   1.253   0.544   3.137
 5172TIP3    H215523   1.163   0.536   3.016
 5173TIP3   OH215524   3.706   1.839   5.078
 5173TIP3    H115525   3.746   1.889   5.007
 5173TIP3    H215526   3.637   1.896   5.111
 5174TIP3   OH215527   0.355   2.314   0.161
 5174TIP3    H115528   0.308   2.252   0.106
 5174TIP3    H215529   0.427   2.345   0.106
 5175TIP3   OH215530   2.942   0.496   2.240
 5175TIP3    H115531   2.968   0.536   2.157
 5175TIP3    H215532   3.006   0.426   2.254
 5176TIP3   OH215533   4.452   5.403   1.539
 5176TIP3    H115534   4.404   5.394   1.457
 5176TIP3    H215535   4.472   5.496   1.545
 5177TIP3   OH215536   2.987   1.835   4.313
 5177TIP3    H115537   2.935   1.913   4.334
 5177TIP3    H215538   2.922   1.770   4.287
 5178TIP3   OH215539   0.536   4.517   5.067
 5178TIP3    H115540   0.593   4.447   5.034
 5178TIP3    H215541   0.518   4.571   4.990
 5179TIP3   OH215542   5.354   3.765   4.042
 5179TIP3    H115543   5.329   3.841   3.990
 5179TIP3    H215544   5.449   3.767   4.044
 5180TIP3   OH215545   0.288   5.740   3.656
 5180TIP3    H115546   0.350   5.690   3.710
 5180TIP3    H215547   0.343   5.798   3.604
 5181TIP3   OH215548   5.767   1.471   0.503
 5181TIP3    H115549   5.731   1.479   0.414
 5181TIP3    H215550   5.707   1.411   0.547
 5182TIP3   OH215551   5.215   0.391   1.741
 5182TIP3    H115552   5.157   0.350   1.805
 5182TIP3    H215553   5.281   0.436   1.793
 5183TIP3   OH215554   4.436   5.306   2.937
 5183TIP3    H115555   4.514   5.347   2.899
 5183TIP3    H215556   4.371   5.307   2.867
 5184TIP3   OH215557   4.016   2.593   0.078
 5184TIP3    H115558   3.982   2.558   0.160
 5184TIP3    H215559   3.974   2.679   0.070
 5185TIP3   OH215560   1.957   0.666   4.992
 5185TIP3    H115561   2.011   0.589   4.975
 5185TIP3    H215562   1.901   0.641   5.065
 5186TIP3   OH215563   0.583   0.882   2.988
 5186TIP3    H115564   0.569   0.794   3.023
 5186TIP3    H215565   0.642   0.868   2.913
 5187TIP3   OH215566   0.291   0.760   3.967
 5187TIP3    H115567   0.240   0.739   4.046
 5187TIP3    H215568   0.264   0.694   3.903
 5188TIP3   OH215569   1.615   2.365   2.612
 5188TIP3    H115570   1.622   2.273   2.586
 5188TIP3    H215571   1.579   2.409   2.535
 5189TIP3   OH215572   3.482   3.808   3.979
 5189TIP3    H115573   3.552   3.866   4.009
 5189TIP3    H215574   3.402   3.846   4.014
 5190TIP3   OH215575   0.797   4.875   3.710
 5190TIP3    H115576   0.864   4.823   3.754
 5190TIP3    H215577   0.751   4.920   3.780
 5191TIP3   OH215578   5.267  -0.003   1.359
 5191TIP3    H115579   5.197   0.010   1.423
 5191TIP3    H215580   5.245   0.056   1.287
 5192TIP3   OH215581   1.335   4.040   2.970
 5192TIP3    H115582   1.316   4.101   2.898
 5192TIP3    H215583   1.406   3.985   2.935
 5193TIP3   OH215584   0.319   5.643   1.856
 5193TIP3    H115585   0.257   5.642   1.783
 5193TIP3    H215586   0.263   5.641   1.934
 5194TIP3   OH215587   5.948   4.426   3.150
 5194TIP3    H115588   5.976   4.347   3.197
 5194TIP3    H215589   5.854   4.415   3.138
 5195TIP3   OH215590   1.219   5.088   2.639
 5195TIP3    H115591   1.194   5.082   2.547
 5195TIP3    H215592   1.157   5.031   2.685
 5196TIP3   OH215593   5.495   4.294   0.530
 5196TIP3    H115594   5.569   4.351   0.549
 5196TIP3    H215595   5.483   4.299   0.436
 5197TIP3   OH215596   5.711   5.726   3.035
 5197TIP3    H115597   5.767   5.669   3.089
 5197TIP3    H215598   5.762   5.739   2.955
 5198TIP3   OH215599   1.806   1.273   0.094
 5198TIP3    H115600   1.861   1.313   0.026
 5198TIP3    H215601   1.823   1.327   0.171
 5199TIP3   OH215602   1.068   1.114   1.339
 5199TIP3    H115603   1.011   1.063   1.397
 5199TIP3    H215604   1.144   1.058   1.324
 5200TIP3   OH215605   5.927   2.551   1.111
 5200TIP3    H115606   5.919   2.630   1.059
 5200TIP3    H215607   6.021   2.532   1.112
 5201TIP3   OH215608   3.527   2.392   2.587
 5201TIP3    H115609   3.465   2.324   2.615
 5201TIP3    H215610   3.494   2.420   2.502
 5202TIP3   OH215611   5.147   5.525   2.836
 5202TIP3    H115612   5.183   5.437   2.850
 5202TIP3    H215613   5.215   5.584   2.868
 5203TIP3   OH215614   4.353   4.348   0.043
 5203TIP3    H115615   4.323   4.418   0.101
 5203TIP3    H215616   4.329   4.267   0.088
 5204TIP3   OH215617   1.088   2.176   1.182
 5204TIP3    H115618   1.050   2.095   1.216
 5204TIP3    H215619   1.086   2.166   1.087
 5205TIP3   OH215620   5.111   0.751   5.151
 5205TIP3    H115621   5.024   0.771   5.186
 5205TIP3    H215622   5.104   0.662   5.118
 5206TIP3   OH215623   5.275   3.740   1.235
 5206TIP3    H115624   5.212   3.799   1.277
 5206TIP3    H215625   5.353   3.746   1.290
 5207TIP3   OH215626   5.539   5.513   2.413
 5207TIP3    H115627   5.496   5.598   2.417
 5207TIP3    H215628   5.468   5.451   2.399
 5208TIP3   OH215629   3.508   2.753   4.311
 5208TIP3    H115630   3.530   2.844   4.328
 5208TIP3    H215631   3.412   2.750   4.314
 5209TIP3   OH215632   3.120   0.606   1.138
 5209TIP3    H115633   3.215   0.618   1.132
 5209TIP3    H215634   3.095   0.649   1.220
 5210TIP3   OH215635   2.827   5.159   4.077
 5210TIP3    H115636   2.815   5.176   3.984
 5210TIP3    H215637   2.863   5.241   4.112
 5211TIP3   OH215638   2.116   5.336   3.006
 5211TIP3    H115639   2.147   5.410   3.059
 5211TIP3    H215640   2.071   5.376   2.932
 5212TIP3   OH215641   4.433   5.783   4.597
 5212TIP3    H115642   4.450   5.693   4.571
 5212TIP3    H215643   4.493   5.835   4.543
 5213TIP3   OH215644   2.098   5.919   1.946
 5213TIP3    H115645   2.157   5.934   2.020
 5213TIP3    H215646   2.150   5.867   1.885
 5214TIP3   OH215647   5.937   0.733   2.243
 5214TIP3    H115648   5.961   0.723   2.151
 5214TIP3    H215649   5.853   0.780   2.241
 5215TIP3   OH215650   3.934   2.169   2.702
 5215TIP3    H115651   3.909   2.261   2.702
 5215TIP3    H215652   3.900   2.134   2.620
 5216TIP3   OH215653   1.778   3.759   4.183
 5216TIP3    H115654   1.746   3.847   4.164
 5216TIP3    H215655   1.770   3.712   4.100
 5217TIP3   OH215656   1.949   0.265   1.965
 5217TIP3    H115657   1.964   0.276   2.059
 5217TIP3    H215658   1.860   0.228   1.960
 5218TIP3   OH215659   3.359   0.614   1.742
 5218TIP3    H115660   3.264   0.617   1.731
 5218TIP3    H215661   3.393   0.666   1.669
 5219TIP3   OH215662   4.338   1.500   1.893
 5219TIP3    H115663   4.412   1.543   1.850
 5219TIP3    H215664   4.337   1.412   1.858
 5220TIP3   OH215665   6.024   3.585   0.646
 5220TIP3    H115666   5.990   3.554   0.561
 5220TIP3    H215667   6.044   3.677   0.631
 5221TIP3   OH215668   1.916   2.948   3.123
 5221TIP3    H115669   1.970   2.915   3.052
 5221TIP3    H215670   1.893   2.870   3.174
 5222TIP3   OH215671   6.079   1.708   5.147
 5222TIP3    H115672   6.158   1.654   5.153
 5222TIP3    H215673   6.107   1.795   5.177
 5223TIP3   OH215674   1.657   1.462   1.265
 5223TIP3    H115675   1.642   1.459   1.360
 5223TIP3    H215676   1.602   1.532   1.234
 5224TIP3   OH215677   4.762   4.140   3.428
 5224TIP3    H115678   4.697   4.133   3.498
 5224TIP3    H215679   4.802   4.053   3.424
 5225TIP3   OH215680   4.042   3.992   4.838
 5225TIP3    H115681   4.097   4.067   4.814
 5225TIP3    H215682   3.987   3.977   4.762
 5226TIP3   OH215683   6.266   4.021   5.032
 5226TIP3    H115684   6.263   3.978   5.118
 5226TIP3    H215685   6.318   3.961   4.977
 5227TIP3   OH215686   5.120   3.317   1.762
 5227TIP3    H115687   5.125   3.333   1.668
 5227TIP3    H215688   5.184   3.377   1.800
 5228TIP3   OH215689   5.063   5.965   1.757
 5228TIP3    H115690   5.046   5.941   1.848
 5228TIP3    H215691   4.985   6.013   1.729
 5229TIP3   OH215692   0.210   3.170   0.041
 5229TIP3    H115693   0.278   3.220   0.087
 5229TIP3    H215694   0.128   3.213   0.065
 5230TIP3   OH215695   1.351   2.138   4.894
 5230TIP3    H115696   1.346   2.232   4.910
 5230TIP3    H215697   1.309   2.127   4.809
 5231TIP3   OH215698   4.183   3.226   0.474
 5231TIP3    H115699   4.260   3.171   0.487
 5231TIP3    H215700   4.114   3.166   0.447
 5232TIP3   OH215701   4.789   1.111   2.629
 5232TIP3    H115702   4.875   1.128   2.592
 5232TIP3    H215703   4.807   1.086   2.720
 5233TIP3   OH215704   2.890   4.560   2.301
 5233TIP3    H115705   2.882   4.501   2.376
 5233TIP3    H215706   2.801   4.565   2.266
 5234TIP3   OH215707   4.582   1.608   1.764
 5234TIP3    H115708   4.547   1.670   1.700
 5234TIP3    H215709   4.634   1.663   1.823
 5235TIP3   OH215710   4.295   3.941   1.617
 5235TIP3    H115711   4.310   3.937   1.711
 5235TIP3    H215712   4.376   3.907   1.579
 5236TIP3   OH215713   2.599   3.204   2.567
 5236TIP3    H115714   2.509   3.221   2.540
 5236TIP3    H215715   2.602   3.231   2.659
 5237TIP3   OH215716   1.796   3.370   0.337
 5237TIP3    H115717   1.733   3.299   0.350
 5237TIP3    H215718   1.804   3.411   0.423
 5238TIP3   OH215719   4.736   1.973   4.850
 5238TIP3    H115720   4.748   1.881   4.825
 5238TIP3    H215721   4.792   1.984   4.926
 5239TIP3   OH215722   2.910   2.327   2.166
 5239TIP3    H115723   2.889   2.420   2.175
 5239TIP3    H215724   2.982   2.324   2.104
 5240TIP3   OH215725   0.370   3.593   3.999
 5240TIP3    H115726   0.349   3.682   3.970
 5240TIP3    H215727   0.463   3.584   3.982
 5241TIP3   OH215728   0.309   1.618   0.167
 5241TIP3    H115729   0.371   1.587   0.101
 5241TIP3    H215730   0.319   1.713   0.168
 5242TIP3   OH215731   3.421   0.460   0.684
 5242TIP3    H115732   3.392   0.542   0.725
 5242TIP3    H215733   3.464   0.488   0.603
 5243TIP3   OH215734   2.519   1.836   1.415
 5243TIP3    H115735   2.597   1.877   1.377
 5243TIP3    H215736   2.459   1.909   1.429
 5244TIP3   OH215737   3.291   5.880   0.485
 5244TIP3    H115738   3.302   5.933   0.406
 5244TIP3    H215739   3.257   5.941   0.550
 5245TIP3   OH215740   2.287   2.681   1.409
 5245TIP3    H115741   2.218   2.614   1.407
 5245TIP3    H215742   2.347   2.651   1.477
 5246TIP3   OH215743   3.415   0.556   3.416
 5246TIP3    H115744   3.502   0.525   3.439
 5246TIP3    H215745   3.424   0.590   3.327
 5247TIP3   OH215746   2.492   3.457   0.533
 5247TIP3    H115747   2.520   3.476   0.444
 5247TIP3    H215748   2.397   3.447   0.528
 5248TIP3   OH215749   1.501   2.015   2.693
 5248TIP3    H115750   1.427   2.069   2.720
 5248TIP3    H215751   1.484   1.993   2.602
 5249TIP3   OH215752   5.451   3.390   2.754
 5249TIP3    H115753   5.409   3.406   2.839
 5249TIP3    H215754   5.544   3.402   2.770
 5250TIP3   OH215755   1.784   5.091   3.262
 5250TIP3    H115756   1.747   5.068   3.177
 5250TIP3    H215757   1.834   5.015   3.289
 5251TIP3   OH215758   5.537   1.328   4.582
 5251TIP3    H115759   5.582   1.406   4.549
 5251TIP3    H215760   5.508   1.282   4.504
 5252TIP3   OH215761   5.220   3.981   3.940
 5252TIP3    H115762   5.246   3.993   3.849
 5252TIP3    H215763   5.130   3.950   3.936
 5253TIP3   OH215764   0.462   2.927   1.970
 5253TIP3    H115765   0.427   3.016   1.960
 5253TIP3    H215766   0.551   2.932   1.936
 5254TIP3   OH215767   4.949   3.611   0.917
 5254TIP3    H115768   4.887   3.554   0.871
 5254TIP3    H215769   5.011   3.550   0.958
 5255TIP3   OH215770   2.791   5.162   3.030
 5255TIP3    H115771   2.850   5.229   3.065
 5255TIP3    H215772   2.782   5.098   3.101
 5256TIP3   OH215773   1.862   3.813   3.315
 5256TIP3    H115774   1.822   3.897   3.339
 5256TIP3    H215775   1.948   3.837   3.279
 5257TIP3   OH215776   3.258   2.737   3.776
 5257TIP3    H115777   3.270   2.698   3.863
 5257TIP3    H215778   3.317   2.813   3.775
 5258TIP3   OH215779   4.412   0.445   4.662
 5258TIP3    H115780   4.386   0.505   4.592
 5258TIP3    H215781   4.482   0.392   4.623
 5259TIP3   OH215782   3.310   5.904   1.035
 5259TIP3    H115783   3.348   5.912   0.948
 5259TIP3    H215784   3.359   5.965   1.089
 5260TIP3   OH215785   4.359   3.960   3.096
 5260TIP3    H115786   4.385   4.038   3.048
 5260TIP3    H215787   4.315   3.993   3.174
 5261TIP3   OH215788   1.829   2.061   2.063
 5261TIP3    H115789   1.842   2.128   1.995
 5261TIP3    H215790   1.827   2.110   2.145
 5262TIP3   OH215791   2.058   1.725   0.930
 5262TIP3    H115792   2.012   1.642   0.934
 5262TIP3    H215793   2.069   1.743   0.836
 5263TIP3   OH215794   3.279   4.112   2.136
 5263TIP3    H115795   3.197   4.066   2.151
 5263TIP3    H215796   3.297   4.100   2.043
 5264TIP3   OH215797   3.727   3.202   1.099
 5264TIP3    H115798   3.654   3.157   1.057
 5264TIP3    H215799   3.753   3.145   1.171
 5265TIP3   OH215800   4.467   2.859   3.492
 5265TIP3    H115801   4.432   2.859   3.581
 5265TIP3    H215802   4.390   2.859   3.435
 5266TIP3   OH215803   5.610   2.302   4.271
 5266TIP3    H115804   5.693   2.350   4.264
 5266TIP3    H215805   5.548   2.367   4.305
 5267TIP3   OH215806   4.074   4.791   3.453
 5267TIP3    H115807   4.000   4.809   3.395
 5267TIP3    H215808   4.085   4.871   3.504
 5268TIP3   OH215809   2.226   2.797   4.994
 5268TIP3    H115810   2.240   2.874   4.938
 5268TIP3    H215811   2.305   2.792   5.047
 5269TIP3   OH215812   6.363   0.402   4.441
 5269TIP3    H115813   6.380   0.411   4.535
 5269TIP3    H215814   6.289   0.341   4.436
 5270TIP3   OH215815   1.075   3.856   0.773
 5270TIP3    H115816   0.999   3.911   0.790
 5270TIP3    H215817   1.076   3.793   0.845
 5271TIP3   OH215818   3.618   1.502   1.217
 5271TIP3    H115819   3.625   1.406   1.211
 5271TIP3    H215820   3.526   1.520   1.202
 5272TIP3   OH215821   3.806   3.370   5.102
 5272TIP3    H115822   3.834   3.416   5.182
 5272TIP3    H215823   3.731   3.318   5.130
 5273TIP3   OH215824   2.529   1.435   1.334
 5273TIP3    H115825   2.558   1.508   1.280
 5273TIP3    H215826   2.454   1.399   1.287
 5274TIP3   OH215827   0.186   3.377   2.848
 5274TIP3    H115828   0.211   3.388   2.939
 5274TIP3    H215829   0.211   3.460   2.807
 5275TIP3   OH215830   0.694   2.274   4.464
 5275TIP3    H115831   0.602   2.280   4.492
 5275TIP3    H215832   0.713   2.361   4.428
 5276TIP3   OH215833   1.420   1.831   3.337
 5276TIP3    H115834   1.504   1.849   3.379
 5276TIP3    H215835   1.386   1.754   3.384
 5277TIP3   OH215836   5.671   5.002   2.802
 5277TIP3    H115837   5.739   5.010   2.869
 5277TIP3    H215838   5.692   5.070   2.738
 5278TIP3   OH215839   2.370   2.635   4.353
 5278TIP3    H115840   2.407   2.706   4.301
 5278TIP3    H215841   2.415   2.556   4.322
 5279TIP3   OH215842   6.235   2.218   3.103
 5279TIP3    H115843   6.294   2.155   3.062
 5279TIP3    H215844   6.154   2.212   3.052
 5280TIP3   OH215845   5.634   3.286   1.035
 5280TIP3    H115846   5.629   3.252   1.124
 5280TIP3    H215847   5.716   3.336   1.032
 5281TIP3   OH215848   5.765   1.403   3.614
 5281TIP3    H115849   5.825   1.370   3.548
 5281TIP3    H215850   5.683   1.356   3.597
 5282TIP3   OH215851   4.682   0.953   0.596
 5282TIP3    H115852   4.618   0.930   0.664
 5282TIP3    H215853   4.756   0.989   0.645
 5283TIP3   OH215854   1.730   0.142   1.881
 5283TIP3    H115855   1.708   0.051   1.899
 5283TIP3    H215856   1.651   0.177   1.837
 5284TIP3   OH215857   6.099   3.687   2.498
 5284TIP3    H115858   6.178   3.639   2.521
 5284TIP3    H215859   6.126   3.744   2.426
 5285TIP3   OH215860   4.546   1.857   4.241
 5285TIP3    H115861   4.486   1.851   4.166
 5285TIP3    H215862   4.601   1.779   4.235
 5286TIP3   OH215863   0.355   5.869   4.384
 5286TIP3    H115864   0.383   5.929   4.453
 5286TIP3    H215865   0.389   5.909   4.303
 5287TIP3   OH215866   3.289   2.416   3.142
 5287TIP3    H115867   3.236   2.488   3.107
 5287TIP3    H215868   3.229   2.368   3.199
 5288TIP3   OH215869   0.835   4.019   4.837
 5288TIP3    H115870   0.775   3.957   4.879
 5288TIP3    H215871   0.907   3.966   4.804
 5289TIP3   OH215872   4.739   0.345   2.103
 5289TIP3    H115873   4.813   0.333   2.043
 5289TIP3    H215874   4.701   0.429   2.078
 5290TIP3   OH215875   1.463   2.986   4.819
 5290TIP3    H115876   1.462   3.021   4.730
 5290TIP3    H215877   1.371   2.963   4.836
 5291TIP3   OH215878   5.919   2.462   2.070
 5291TIP3    H115879   5.913   2.389   2.132
 5291TIP3    H215880   5.972   2.527   2.115
 5292TIP3   OH215881   1.121   4.642   3.452
 5292TIP3    H115882   1.209   4.617   3.423
 5292TIP3    H215883   1.120   4.737   3.447
 5293TIP3   OH215884   5.837   3.399   1.744
 5293TIP3    H115885   5.922   3.433   1.774
 5293TIP3    H215886   5.837   3.308   1.773
 5294TIP3   OH215887   5.075   1.879   3.894
 5294TIP3    H115888   5.030   1.888   3.810
 5294TIP3    H215889   5.017   1.825   3.947
 5295TIP3   OH215890   5.376   0.812   5.171
 5295TIP3    H115891   5.283   0.800   5.153
 5295TIP3    H215892   5.391   0.906   5.161
 5296TIP3   OH215893   2.888   1.144   4.925
 5296TIP3    H115894   2.852   1.061   4.956
 5296TIP3    H215895   2.886   1.137   4.830
 5297TIP3   OH215896   2.852   1.171   2.743
 5297TIP3    H115897   2.786   1.178   2.674
 5297TIP3    H215898   2.920   1.115   2.706
 5298TIP3   OH215899   2.083   2.330   1.707
 5298TIP3    H115900   2.152   2.333   1.773
 5298TIP3    H215901   2.103   2.253   1.654
 5299TIP3   OH215902   2.970   1.477   3.310
 5299TIP3    H115903   3.008   1.408   3.255
 5299TIP3    H215904   2.927   1.536   3.248
 5300TIP3   OH215905   1.940   4.733   2.750
 5300TIP3    H115906   2.019   4.708   2.798
 5300TIP3    H215907   1.872   4.675   2.784
 5301TIP3   OH215908   0.040   2.365   4.146
 5301TIP3    H115909   0.044   2.274   4.117
 5301TIP3    H215910   0.120   2.377   4.198
 5302TIP3   OH215911   5.419   1.590   1.354
 5302TIP3    H115912   5.389   1.579   1.264
 5302TIP3    H215913   5.367   1.527   1.405
 5303TIP3   OH215914   0.412   3.398   3.428
 5303TIP3    H115915   0.452   3.410   3.514
 5303TIP3    H215916   0.414   3.303   3.415
 5304TIP3   OH215917   1.087   3.736   3.633
 5304TIP3    H115918   1.095   3.829   3.614
 5304TIP3    H215919   1.023   3.731   3.704
 5305TIP3   OH215920   1.540   2.231   2.240
 5305TIP3    H115921   1.614   2.201   2.292
 5305TIP3    H215922   1.496   2.151   2.212
 5306TIP3   OH215923  -0.055   2.084   1.386
 5306TIP3    H115924  -0.039   2.008   1.442
 5306TIP3    H215925  -0.058   2.158   1.445
 5307TIP3   OH215926   1.072   5.557   3.716
 5307TIP3    H115927   0.987   5.523   3.691
 5307TIP3    H215928   1.101   5.499   3.787
 5308TIP3   OH215929   4.725   2.787   3.485
 5308TIP3    H115930   4.637   2.825   3.494
 5308TIP3    H215931   4.744   2.751   3.572
 5309TIP3   OH215932   5.898   4.852   0.766
 5309TIP3    H115933   5.845   4.820   0.692
 5309TIP3    H215934   5.903   4.947   0.752
 5310TIP3   OH215935   0.193   5.867   0.920
 5310TIP3    H115936   0.220   5.789   0.871
 5310TIP3    H215937   0.266   5.883   0.980
 5311TIP3   OH215938   6.085   3.685   2.960
 5311TIP3    H115939   6.025   3.651   3.027
 5311TIP3    H215940   6.169   3.692   3.004
 5312TIP3   OH215941   5.223   0.323   4.576
 5312TIP3    H115942   5.290   0.346   4.512
 5312TIP3    H215943   5.182   0.406   4.600
 5313TIP3   OH215944   0.363   1.318   1.504
 5313TIP3    H115945   0.349   1.237   1.454
 5313TIP3    H215946   0.426   1.293   1.572
 5314TIP3   OH215947   2.688   0.107   3.730
 5314TIP3    H115948   2.762   0.115   3.671
 5314TIP3    H215949   2.682   0.013   3.749
 5315TIP3   OH215950   2.450   1.529   0.435
 5315TIP3    H115951   2.491   1.613   0.414
 5315TIP3    H215952   2.516   1.464   0.410
 5316TIP3   OH215953   1.707   2.694   4.181
 5316TIP3    H115954   1.741   2.605   4.196
 5316TIP3    H215955   1.761   2.749   4.238
 5317TIP3   OH215956   5.753   5.495   0.506
 5317TIP3    H115957   5.762   5.510   0.412
 5317TIP3    H215958   5.837   5.455   0.531
 5318TIP3   OH215959   2.653   5.544   3.399
 5318TIP3    H115960   2.646   5.517   3.307
 5318TIP3    H215961   2.739   5.585   3.406
 5319TIP3   OH215962   3.203   1.865   4.118
 5319TIP3    H115963   3.141   1.872   4.190
 5319TIP3    H215964   3.153   1.887   4.040
 5320TIP3   OH215965   0.033   2.063   1.848
 5320TIP3    H115966   0.013   2.109   1.930
 5320TIP3    H215967   0.127   2.044   1.854
 5321TIP3   OH215968   3.375   1.378   3.743
 5321TIP3    H115969   3.452   1.415   3.699
 5321TIP3    H215970   3.331   1.453   3.782
 5322TIP3   OH215971   3.461   1.959   5.142
 5322TIP3    H115972   3.368   1.963   5.165
 5322TIP3    H215973   3.476   2.037   5.089
 5323TIP3   OH215974   1.823   4.184   2.785
 5323TIP3    H115975   1.868   4.235   2.717
 5323TIP3    H215976   1.732   4.215   2.782
 5324TIP3   OH215977   6.008   3.699   4.195
 5324TIP3    H115978   6.046   3.671   4.278
 5324TIP3    H215979   5.999   3.618   4.144
 5325TIP3   OH215980   0.565   0.712   4.797
 5325TIP3    H115981   0.618   0.698   4.875
 5325TIP3    H215982   0.577   0.633   4.745
 5326TIP3   OH215983   5.305   2.822   3.471
 5326TIP3    H115984   5.230   2.822   3.411
 5326TIP3    H215985   5.330   2.730   3.479
 5327TIP3   OH215986   0.707   1.587   3.794
 5327TIP3    H115987   0.700   1.576   3.699
 5327TIP3    H215988   0.790   1.544   3.816
 5328TIP3   OH215989   0.423   2.512   4.827
 5328TIP3    H115990   0.377   2.503   4.911
 5328TIP3    H215991   0.359   2.553   4.769
 5329TIP3   OH215992   3.799   5.930   1.988
 5329TIP3    H115993   3.837   5.960   2.070
 5329TIP3    H215994   3.727   5.990   1.971
 5330TIP3   OH215995   2.290   2.322   0.983
 5330TIP3    H115996   2.267   2.411   0.957
 5330TIP3    H215997   2.287   2.272   0.901
 5331TIP3   OH215998   2.745   5.452   3.060
 5331TIP3    H115999   2.778   5.473   2.972
 5331TIP3    H216000   2.821   5.415   3.105
 5332TIP3   OH216001   2.136   0.971   0.752
 5332TIP3    H116002   2.066   1.026   0.715
 5332TIP3    H216003   2.107   0.881   0.736
 5333TIP3   OH216004   5.401   1.125   0.081
 5333TIP3    H116005   5.389   1.155   0.171
 5333TIP3    H216006   5.316   1.140   0.039
 5334TIP3   OH216007   3.383   2.068   1.293
 5334TIP3    H116008   3.447   2.038   1.358
 5334TIP3    H216009   3.383   1.999   1.226
 5335TIP3   OH216010   3.844   5.511   0.619
 5335TIP3    H116011   3.752   5.495   0.600
 5335TIP3    H216012   3.849   5.514   0.715
 5336TIP3   OH216013   4.045   3.376   3.755
 5336TIP3    H116014   4.101   3.452   3.740
 5336TIP3    H216015   4.077   3.338   3.836
 5337TIP3   OH216016   4.541   2.057   3.643
 5337TIP3    H116017   4.587   1.979   3.612
 5337TIP3    H216018   4.572   2.127   3.586
 5338TIP3   OH216019   5.374   1.800   3.345
 5338TIP3    H116020   5.443   1.809   3.279
 5338TIP3    H216021   5.318   1.730   3.311
 5339TIP3   OH216022   5.394   2.359   0.870
 5339TIP3    H116023   5.418   2.369   0.778
 5339TIP3    H216024   5.433   2.275   0.896
 5340TIP3   OH216025   2.815   4.016   3.385
 5340TIP3    H116026   2.739   4.052   3.431
 5340TIP3    H216027   2.779   3.945   3.332
 5341TIP3   OH216028   6.267   4.088   3.402
 5341TIP3    H116029   6.283   4.032   3.479
 5341TIP3    H216030   6.352   4.090   3.357
 5342TIP3   OH216031   0.018   1.378   1.256
 5342TIP3    H116032  -0.044   1.449   1.238
 5342TIP3    H216033   0.104   1.416   1.238
 5343TIP3   OH216034   4.811   5.849   2.652
 5343TIP3    H116035   4.888   5.842   2.595
 5343TIP3    H216036   4.775   5.935   2.633
 5344TIP3   OH216037   5.421   5.702   0.903
 5344TIP3    H116038   5.410   5.672   0.993
 5344TIP3    H216039   5.496   5.653   0.870
 5345TIP3   OH216040   0.488   4.450   3.590
 5345TIP3    H116041   0.506   4.542   3.610
 5345TIP3    H216042   0.560   4.402   3.631
 5346TIP3   OH216043   1.282   1.833   1.319
 5346TIP3    H116044   1.202   1.788   1.344
 5346TIP3    H216045   1.280   1.914   1.370
 5347TIP3   OH216046   0.408   1.004   2.759
 5347TIP3    H116047   0.391   1.006   2.665
 5347TIP3    H216048   0.490   0.956   2.767
 5348TIP3   OH216049   0.371   1.291   4.349
 5348TIP3    H116050   0.459   1.256   4.361
 5348TIP3    H216051   0.359   1.294   4.254
 5349TIP3   OH216052   2.126   0.264   1.677
 5349TIP3    H116053   2.159   0.206   1.745
 5349TIP3    H216054   2.171   0.236   1.597
 5350TIP3   OH216055   1.723   5.170   2.576
 5350TIP3    H116056   1.654   5.158   2.511
 5350TIP3    H216057   1.750   5.082   2.600
 5351TIP3   OH216058   0.422   3.870   3.354
 5351TIP3    H116059   0.471   3.945   3.387
 5351TIP3    H216060   0.487   3.814   3.313
 5352TIP3   OH216061   2.180   3.007   0.069
 5352TIP3    H116062   2.239   3.073   0.106
 5352TIP3    H216063   2.183   2.934   0.131
 5353TIP3   OH216064   6.301   3.873   3.566
 5353TIP3    H116065   6.316   3.853   3.658
 5353TIP3    H216066   6.342   3.800   3.519
 5354TIP3   OH216067   6.182   0.618   5.130
 5354TIP3    H116068   6.181   0.713   5.118
 5354TIP3    H216069   6.130   0.603   5.208
 5355TIP3   OH216070   2.955   2.338   4.347
 5355TIP3    H116071   2.963   2.431   4.328
 5355TIP3    H216072   3.039   2.301   4.323
 5356TIP3   OH216073   5.619   4.084   0.223
 5356TIP3    H116074   5.608   3.989   0.224
 5356TIP3    H216075   5.543   4.116   0.174
 5357TIP3   OH216076   5.378   3.595   0.318
 5357TIP3    H116077   5.298   3.542   0.311
 5357TIP3    H216078   5.446   3.540   0.277
 5358TIP3   OH216079   2.986   3.393   1.061
 5358TIP3    H116080   2.927   3.387   0.985
 5358TIP3    H216081   2.946   3.335   1.126
 5359TIP3   OH216082   4.903   2.139   2.772
 5359TIP3    H116083   4.812   2.129   2.800
 5359TIP3    H216084   4.920   2.233   2.781
 5360TIP3   OH216085   5.273   5.656   3.726
 5360TIP3    H116086   5.334   5.729   3.731
 5360TIP3    H216087   5.304   5.594   3.792
 5361TIP3   OH216088   3.417   3.673   0.796
 5361TIP3    H116089   3.470   3.689   0.718
 5361TIP3    H216090   3.461   3.723   0.865
 5362TIP3   OH216091   3.017   1.378   4.998
 5362TIP3    H116092   2.945   1.328   4.960
 5362TIP3    H216093   2.993   1.389   5.090
 5363TIP3   OH216094   5.634   0.496   3.991
 5363TIP3    H116095   5.655   0.409   4.022
 5363TIP3    H216096   5.538   0.497   3.986
 5364TIP3   OH216097   4.951   1.898   0.096
 5364TIP3    H116098   4.997   1.931   0.019
 5364TIP3    H216099   5.011   1.833   0.134
 5365TIP3   OH216100   4.141   0.077   5.097
 5365TIP3    H116101   4.107   0.160   5.129
 5365TIP3    H216102   4.075   0.012   5.123
 5366TIP3   OH216103   2.636   3.842   3.286
 5366TIP3    H116104   2.589   3.799   3.358
 5366TIP3    H216105   2.659   3.770   3.227
 5367TIP3   OH216106   4.862   3.961   3.777
 5367TIP3    H116107   4.875   4.055   3.765
 5367TIP3    H216108   4.891   3.944   3.867
 5368TIP3   OH216109   5.176   4.546   3.856
 5368TIP3    H116110   5.267   4.547   3.887
 5368TIP3    H216111   5.147   4.637   3.863
 5369TIP3   OH216112   0.096   0.595   3.807
 5369TIP3    H116113   0.044   0.514   3.811
 5369TIP3    H216114   0.131   0.595   3.717
 5370TIP3   OH216115   4.193   0.161   1.641
 5370TIP3    H116116   4.169   0.091   1.580
 5370TIP3    H216117   4.287   0.171   1.629
 5371TIP3   OH216118   1.696   1.007   4.172
 5371TIP3    H116119   1.734   1.077   4.120
 5371TIP3    H216120   1.636   1.051   4.232
 5372TIP3   OH216121   0.987   5.010   2.499
 5372TIP3    H116122   0.928   4.951   2.453
 5372TIP3    H216123   0.957   5.009   2.590
 5373TIP3   OH216124   4.449   2.125   0.605
 5373TIP3    H116125   4.448   2.117   0.509
 5373TIP3    H216126   4.404   2.047   0.636
 5374TIP3   OH216127   3.040   0.828   3.139
 5374TIP3    H116128   3.088   0.911   3.134
 5374TIP3    H216129   3.099   0.763   3.101
 5375TIP3   OH216130   6.272   5.126   3.733
 5375TIP3    H116131   6.301   5.052   3.786
 5375TIP3    H216132   6.349   5.149   3.680
 5376TIP3   OH216133   1.824   4.811   0.640
 5376TIP3    H116134   1.785   4.759   0.711
 5376TIP3    H216135   1.918   4.797   0.649
 5377TIP3   OH216136   5.716   4.425   0.876
 5377TIP3    H116137   5.697   4.489   0.945
 5377TIP3    H216138   5.724   4.341   0.922
 5378TIP3   OH216139   3.424   2.836   0.845
 5378TIP3    H116140   3.396   2.830   0.754
 5378TIP3    H216141   3.389   2.758   0.887
 5379TIP3   OH216142   2.180   1.321   4.926
 5379TIP3    H116143   2.195   1.264   5.001
 5379TIP3    H216144   2.091   1.354   4.939
 5380TIP3   OH216145   3.218   2.228   4.340
 5380TIP3    H116146   3.216   2.286   4.416
 5380TIP3    H216147   3.236   2.141   4.376
 5381TIP3   OH216148   5.139   4.150   3.580
 5381TIP3    H116149   5.121   4.175   3.489
 5381TIP3    H216150   5.061   4.178   3.629
 5382TIP3   OH216151   2.970   0.662   1.788
 5382TIP3    H116152   3.003   0.718   1.718
 5382TIP3    H216153   2.893   0.619   1.750
 5383TIP3   OH216154   0.630   2.555   3.519
 5383TIP3    H116155   0.685   2.502   3.462
 5383TIP3    H216156   0.636   2.644   3.483
 5384TIP3   OH216157   3.478   5.548   1.854
 5384TIP3    H116158   3.424   5.618   1.892
 5384TIP3    H216159   3.417   5.475   1.841
 5385TIP3   OH216160   5.510   3.649   1.923
 5385TIP3    H116161   5.487   3.725   1.870
 5385TIP3    H216162   5.598   3.667   1.954
 5386TIP3   OH216163   5.085   1.030   5.027
 5386TIP3    H116164   5.011   1.077   5.065
 5386TIP3    H216165   5.082   0.943   5.068
 5387TIP3   OH216166   4.862   2.617   2.032
 5387TIP3    H116167   4.844   2.536   1.985
 5387TIP3    H216168   4.943   2.651   1.992
 5388TIP3   OH216169   5.234   2.751   0.702
 5388TIP3    H116170   5.279   2.735   0.784
 5388TIP3    H216171   5.241   2.846   0.689
 5389TIP3   OH216172   0.226   4.502   1.152
 5389TIP3    H116173   0.133   4.498   1.176
 5389TIP3    H216174   0.270   4.532   1.231
 5390TIP3   OH216175   4.912   5.489   0.354
 5390TIP3    H116176   4.934   5.578   0.383
 5390TIP3    H216177   4.990   5.438   0.376
 5391TIP3   OH216178   2.962   0.621   2.773
 5391TIP3    H116179   2.945   0.664   2.689
 5391TIP3    H216180   2.881   0.632   2.822
 5392TIP3   OH216181   0.635   1.702   0.490
 5392TIP3    H116182   0.542   1.711   0.507
 5392TIP3    H216183   0.655   1.770   0.425
 5393TIP3   OH216184   6.175   1.118   2.492
 5393TIP3    H116185   6.094   1.109   2.543
 5393TIP3    H216186   6.166   1.055   2.421
 5394TIP3   OH216187   3.822   3.529   4.565
 5394TIP3    H116188   3.839   3.439   4.595
 5394TIP3    H216189   3.727   3.536   4.564
 5395TIP3   OH216190   5.993   2.486   4.687
 5395TIP3    H116191   6.081   2.521   4.700
 5395TIP3    H216192   5.938   2.540   4.744
 5396TIP3   OH216193   0.082   1.292   4.751
 5396TIP3    H116194  -0.004   1.321   4.722
 5396TIP3    H216195   0.096   1.209   4.707
 5397TIP3   OH216196   2.035   4.193   1.159
 5397TIP3    H116197   2.106   4.164   1.217
 5397TIP3    H216198   2.049   4.142   1.078
 5398TIP3   OH216199   6.346   2.512   3.079
 5398TIP3    H116200   6.326   2.573   3.150
 5398TIP3    H216201   6.373   2.432   3.123
 5399TIP3   OH216202   1.531   5.450   4.361
 5399TIP3    H116203   1.549   5.535   4.321
 5399TIP3    H216204   1.603   5.394   4.332
 5400TIP3   OH216205   4.575   4.222   3.972
 5400TIP3    H116206   4.599   4.275   3.896
 5400TIP3    H216207   4.564   4.286   4.043
 5401TIP3   OH216208   5.572   2.202   4.018
 5401TIP3    H116209   5.575   2.292   3.986
 5401TIP3    H216210   5.626   2.202   4.097
 5402TIP3   OH216211   1.196   0.386   3.936
 5402TIP3    H116212   1.285   0.356   3.922
 5402TIP3    H216213   1.175   0.358   4.026
 5403TIP3   OH216214   5.318   0.228   3.768
 5403TIP3    H116215   5.242   0.217   3.711
 5403TIP3    H216216   5.333   0.141   3.805
 5404TIP3   OH216217   5.597   1.923   3.993
 5404TIP3    H116218   5.591   2.018   4.003
 5404TIP3    H216219   5.650   1.911   3.914
 5405TIP3   OH216220   4.227   0.870   3.104
 5405TIP3    H116221   4.296   0.872   3.037
 5405TIP3    H216222   4.265   0.820   3.176
 5406TIP3   OH216223   3.702   4.966   3.493
 5406TIP3    H116224   3.757   4.945   3.418
 5406TIP3    H216225   3.669   5.054   3.476
 5407TIP3   OH216226   0.550   3.241   4.557
 5407TIP3    H116227   0.523   3.322   4.601
 5407TIP3    H216228   0.483   3.226   4.491
 5408TIP3   OH216229   5.733   0.844   5.062
 5408TIP3    H116230   5.753   0.927   5.107
 5408TIP3    H216231   5.646   0.857   5.025
 5409TIP3   OH216232   0.472   2.974   0.083
 5409TIP3    H116233   0.548   2.922   0.110
 5409TIP3    H216234   0.509   3.055   0.049
 5410TIP3   OH216235   5.007   3.704   5.011
 5410TIP3    H116236   5.029   3.622   4.968
 5410TIP3    H216237   4.941   3.744   4.954
 5411TIP3   OH216238   3.041   2.942   4.218
 5411TIP3    H116239   3.017   2.875   4.154
 5411TIP3    H216240   2.966   2.948   4.277
 5412TIP3   OH216241   0.006   4.579   0.204
 5412TIP3    H116242  -0.013   4.563   0.111
 5412TIP3    H216243   0.048   4.665   0.205
 5413TIP3   OH216244   6.349   2.326   1.212
 5413TIP3    H116245   6.285   2.329   1.283
 5413TIP3    H216246   6.358   2.417   1.184
 5414TIP3   OH216247   1.924   2.581   3.717
 5414TIP3    H116248   1.904   2.599   3.625
 5414TIP3    H216249   2.018   2.593   3.723
 5415TIP3   OH216250   1.367   3.096   2.737
 5415TIP3    H116251   1.326   3.159   2.679
 5415TIP3    H216252   1.436   3.055   2.685
 5416TIP3   OH216253   0.375   0.503   4.192
 5416TIP3    H116254   0.365   0.526   4.284
 5416TIP3    H216255   0.328   0.572   4.144
 5417TIP3   OH216256   5.208   2.207   1.626
 5417TIP3    H116257   5.189   2.120   1.590
 5417TIP3    H216258   5.219   2.263   1.549
 5418TIP3   OH216259   3.768   3.364   3.516
 5418TIP3    H116260   3.713   3.424   3.466
 5418TIP3    H216261   3.743   3.378   3.607
 5419TIP3   OH216262   5.564   4.603   2.910
 5419TIP3    H116263   5.545   4.696   2.914
 5419TIP3    H216264   5.506   4.570   2.840
 5420TIP3   OH216265   6.205   4.378   0.365
 5420TIP3    H116266   6.113   4.401   0.382
 5420TIP3    H216267   6.236   4.448   0.307
 5421TIP3   OH216268   1.971   3.805   2.418
 5421TIP3    H116269   1.884   3.809   2.378
 5421TIP3    H216270   1.955   3.814   2.512
 5422TIP3   OH216271   3.264   1.216   4.656
 5422TIP3    H116272   3.280   1.214   4.562
 5422TIP3    H216273   3.249   1.124   4.679
 5423TIP3   OH216274   1.092   2.173   4.055
 5423TIP3    H116275   1.141   2.128   4.124
 5423TIP3    H216276   1.137   2.257   4.045
 5424TIP3   OH216277   4.201   3.045   0.794
 5424TIP3    H116278   4.236   3.077   0.710
 5424TIP3    H216279   4.188   3.125   0.846
 5425TIP3   OH216280   1.316   3.557   3.601
 5425TIP3    H116281   1.250   3.624   3.620
 5425TIP3    H216282   1.265   3.477   3.588
 5426TIP3   OH216283   1.479   4.076   5.089
 5426TIP3    H116284   1.467   4.054   4.997
 5426TIP3    H216285   1.570   4.053   5.108
 5427TIP3   OH216286   1.241   3.492   1.218
 5427TIP3    H116287   1.276   3.579   1.237
 5427TIP3    H216288   1.291   3.433   1.274
 5428TIP3   OH216289   1.611   0.330   1.015
 5428TIP3    H116290   1.561   0.326   1.097
 5428TIP3    H216291   1.544   0.323   0.947
 5429TIP3   OH216292   4.240   2.105   3.448
 5429TIP3    H116293   4.333   2.122   3.432
 5429TIP3    H216294   4.198   2.189   3.428
 5430TIP3   OH216295   1.327   0.293   0.220
 5430TIP3    H116296   1.411   0.276   0.263
 5430TIP3    H216297   1.262   0.249   0.274
 5431TIP3   OH216298   5.721   3.406   2.842
 5431TIP3    H116299   5.795   3.346   2.851
 5431TIP3    H216300   5.726   3.462   2.920
 5432TIP3   OH216301   0.700   1.579   5.120
 5432TIP3    H116302   0.682   1.630   5.041
 5432TIP3    H216303   0.636   1.610   5.184
 5433TIP3   OH216304   1.795   1.448   0.674
 5433TIP3    H116305   1.719   1.406   0.714
 5433TIP3    H216306   1.840   1.492   0.746
 5434TIP3   OH216307   0.818   4.379   5.013
 5434TIP3    H116308   0.838   4.452   5.071
 5434TIP3    H216309   0.772   4.316   5.070
 5435TIP3   OH216310   2.534   4.938   1.044
 5435TIP3    H116311   2.593   5.006   1.011
 5435TIP3    H216312   2.585   4.857   1.036
 5436TIP3   OH216313   2.668   4.978   3.226
 5436TIP3    H116314   2.685   4.893   3.185
 5436TIP3    H216315   2.683   4.964   3.319
 5437TIP3   OH216316   6.147   4.676   3.794
 5437TIP3    H116317   6.161   4.693   3.888
 5437TIP3    H216318   6.078   4.737   3.768
 5438TIP3   OH216319   3.593   4.435   0.717
 5438TIP3    H116320   3.632   4.408   0.801
 5438TIP3    H216321   3.668   4.441   0.657
 5439TIP3   OH216322   4.471   1.068   2.003
 5439TIP3    H116323   4.449   1.024   2.084
 5439TIP3    H216324   4.521   1.004   1.953
 5440TIP3   OH216325   3.234   1.843   2.281
 5440TIP3    H116326   3.229   1.934   2.253
 5440TIP3    H216327   3.182   1.839   2.361
 5441TIP3   OH216328   4.839   1.461   1.446
 5441TIP3    H116329   4.793   1.544   1.435
 5441TIP3    H216330   4.900   1.458   1.373
 5442TIP3   OH216331   0.946   3.701   0.961
 5442TIP3    H116332   0.852   3.718   0.964
 5442TIP3    H216333   0.968   3.673   1.049
 5443TIP3   OH216334   3.455   3.332   4.668
 5443TIP3    H116335   3.487   3.329   4.578
 5443TIP3    H216336   3.534   3.317   4.721
 5444TIP3   OH216337   2.552   2.861   0.444
 5444TIP3    H116338   2.505   2.860   0.528
 5444TIP3    H216339   2.559   2.954   0.422
 5445TIP3   OH216340   5.062   5.247   4.289
 5445TIP3    H116341   5.097   5.272   4.374
 5445TIP3    H216342   4.977   5.291   4.283
 5446TIP3   OH216343   6.253   5.314   0.458
 5446TIP3    H116344   6.230   5.240   0.402
 5446TIP3    H216345   6.338   5.291   0.495
 5447TIP3   OH216346   5.699   3.308   0.588
 5447TIP3    H116347   5.751   3.361   0.648
 5447TIP3    H216348   5.743   3.319   0.503
 5448TIP3   OH216349   3.682   1.790   4.297
 5448TIP3    H116350   3.612   1.838   4.254
 5448TIP3    H216351   3.762   1.822   4.255
 5449TIP3   OH216352   4.639   0.585   2.814
 5449TIP3    H116353   4.652   0.650   2.745
 5449TIP3    H216354   4.727   0.564   2.844
 5450TIP3   OH216355   0.138   4.152   2.885
 5450TIP3    H116356   0.087   4.125   2.962
 5450TIP3    H216357   0.090   4.114   2.811
 5451TIP3   OH216358   3.732   3.565   2.997
 5451TIP3    H116359   3.726   3.638   2.936
 5451TIP3    H216360   3.826   3.550   3.007
 5452TIP3   OH216361   5.918   2.223   1.356
 5452TIP3    H116362   5.888   2.192   1.441
 5452TIP3    H216363   6.000   2.269   1.374
 5453TIP3   OH216364   4.511   3.286   0.773
 5453TIP3    H116365   4.479   3.251   0.856
 5453TIP3    H216366   4.594   3.241   0.759
 5454TIP3   OH216367   4.815   3.831   1.403
 5454TIP3    H116368   4.870   3.885   1.459
 5454TIP3    H216369   4.830   3.742   1.433
 5455TIP3   OH216370   1.836   4.912   2.561
 5455TIP3    H116371   1.807   4.886   2.474
 5455TIP3    H216372   1.856   4.830   2.606
 5456TIP3   OH216373   0.269   3.850   0.579
 5456TIP3    H116374   0.189   3.803   0.602
 5456TIP3    H216375   0.239   3.934   0.546
 5457TIP3   OH216376   0.169   0.438   1.708
 5457TIP3    H116377   0.172   0.343   1.715
 5457TIP3    H216378   0.181   0.470   1.798
 5458TIP3   OH216379   0.065   1.937   2.434
 5458TIP3    H116380   0.069   1.841   2.427
 5458TIP3    H216381   0.087   1.968   2.346
 5459TIP3   OH216382   0.758   3.683   3.678
 5459TIP3    H116383   0.714   3.652   3.757
 5459TIP3    H216384   0.741   3.777   3.676
 5460TIP3   OH216385   3.085   2.085   1.203
 5460TIP3    H116386   3.180   2.088   1.213
 5460TIP3    H216387   3.069   2.006   1.151
 5461TIP3   OH216388   1.846   3.661   3.894
 5461TIP3    H116389   1.839   3.568   3.917
 5461TIP3    H216390   1.826   3.664   3.801
 5462TIP3   OH216391   1.115   5.590   4.419
 5462TIP3    H116392   1.152   5.563   4.503
 5462TIP3    H216393   1.023   5.565   4.424
 5463TIP3   OH216394   3.239   2.474   4.498
 5463TIP3    H116395   3.185   2.515   4.431
 5463TIP3    H216396   3.178   2.453   4.569
 5464TIP3   OH216397   0.364   3.819   4.255
 5464TIP3    H116398   0.442   3.765   4.267
 5464TIP3    H216399   0.394   3.908   4.273
 5465TIP3   OH216400   5.587   5.996   1.077
 5465TIP3    H116401   5.555   5.912   1.043
 5465TIP3    H216402   5.644   6.029   1.008
 5466TIP3   OH216403   4.135   0.469   3.585
 5466TIP3    H116404   4.147   0.519   3.504
 5466TIP3    H216405   4.224   0.458   3.619
 5467TIP3   OH216406   2.675   0.540   2.595
 5467TIP3    H116407   2.589   0.508   2.622
 5467TIP3    H216408   2.692   0.615   2.652
 5468TIP3   OH216409   4.761   1.236   4.065
 5468TIP3    H116410   4.706   1.257   4.141
 5468TIP3    H216411   4.723   1.288   3.994
 5469TIP3   OH216412   5.488   1.305   3.765
 5469TIP3    H116413   5.545   1.299   3.842
 5469TIP3    H216414   5.441   1.388   3.777
 5470TIP3   OH216415   5.867   2.040   4.661
 5470TIP3    H116416   5.780   2.001   4.671
 5470TIP3    H216417   5.913   1.979   4.604
 5471TIP3   OH216418   3.269   0.665   4.119
 5471TIP3    H116419   3.213   0.640   4.193
 5471TIP3    H216420   3.344   0.605   4.124
 5472TIP3   OH216421   3.498   4.189   2.986
 5472TIP3    H116422   3.461   4.242   3.056
 5472TIP3    H216423   3.556   4.249   2.939
 5473TIP3   OH216424   4.876   4.354   3.317
 5473TIP3    H116425   4.798   4.407   3.331
 5473TIP3    H216426   4.856   4.271   3.361
 5474TIP3   OH216427   6.110   4.625   2.730
 5474TIP3    H116428   6.123   4.632   2.635
 5474TIP3    H216429   6.074   4.537   2.743
 5475TIP3   OH216430   4.185   0.626   1.342
 5475TIP3    H116431   4.260   0.681   1.366
 5475TIP3    H216432   4.176   0.565   1.414
 5476TIP3   OH216433   4.003   0.328   5.131
 5476TIP3    H116434   4.010   0.327   5.226
 5476TIP3    H216435   3.933   0.267   5.111
 5477TIP3   OH216436   2.500   3.168   3.338
 5477TIP3    H116437   2.535   3.244   3.292
 5477TIP3    H216438   2.405   3.181   3.335
 5478TIP3   OH216439   3.425   1.332   0.466
 5478TIP3    H116440   3.454   1.422   0.475
 5478TIP3    H216441   3.504   1.279   0.476
 5479TIP3   OH216442   0.611   0.261   4.241
 5479TIP3    H116443   0.557   0.206   4.184
 5479TIP3    H216444   0.609   0.348   4.200
 5480TIP3   OH216445   2.374   3.075   2.973
 5480TIP3    H116446   2.323   3.056   3.052
 5480TIP3    H216447   2.381   2.991   2.928
 5481TIP3   OH216448   3.203   3.650   2.903
 5481TIP3    H116449   3.133   3.712   2.881
 5481TIP3    H216450   3.265   3.701   2.954
 5482TIP3   OH216451   1.220   3.340   0.983
 5482TIP3    H116452   1.228   3.362   1.076
 5482TIP3    H216453   1.310   3.326   0.954
 5483TIP3   OH216454   2.203   1.808   5.020
 5483TIP3    H116455   2.262   1.737   4.995
 5483TIP3    H216456   2.132   1.764   5.068
 5484TIP3   OH216457   1.899   4.240   3.581
 5484TIP3    H116458   1.955   4.233   3.659
 5484TIP3    H216459   1.871   4.331   3.580
 5485TIP3   OH216460   2.436   0.873   4.705
 5485TIP3    H116461   2.483   0.951   4.676
 5485TIP3    H216462   2.347   0.904   4.724
 5486TIP3   OH216463   5.014   1.430   3.999
 5486TIP3    H116464   5.047   1.447   4.087
 5486TIP3    H216465   4.976   1.513   3.970
 5487TIP3   OH216466   3.121   3.930   2.553
 5487TIP3    H116467   3.194   3.870   2.542
 5487TIP3    H216468   3.100   3.959   2.464
 5488TIP3   OH216469   0.161   2.913   4.184
 5488TIP3    H116470   0.221   2.853   4.229
 5488TIP3    H216471   0.190   2.914   4.093
 5489TIP3   OH216472   5.745   3.536   2.608
 5489TIP3    H116473   5.745   3.521   2.703
 5489TIP3    H216474   5.759   3.630   2.599
 5490TIP3   OH216475   0.552   1.376   0.863
 5490TIP3    H116476   0.488   1.306   0.851
 5490TIP3    H216477   0.563   1.414   0.775
 5491TIP3   OH216478   6.090   0.315   0.714
 5491TIP3    H116479   6.017   0.259   0.689
 5491TIP3    H216480   6.067   0.402   0.682
 5492TIP3   OH216481   6.172   5.756   2.134
 5492TIP3    H116482   6.113   5.805   2.192
 5492TIP3    H216483   6.242   5.725   2.192
 5493TIP3   OH216484   3.061   0.053   2.952
 5493TIP3    H116485   2.982   0.003   2.971
 5493TIP3    H216486   3.044   0.093   2.867
 5494TIP3   OH216487   5.656   3.649  -0.009
 5494TIP3    H116488   5.677   3.702   0.068
 5494TIP3    H216489   5.721   3.578  -0.008
 5495TIP3   OH216490   1.676   1.200   1.659
 5495TIP3    H116491   1.736   1.202   1.734
 5495TIP3    H216492   1.718   1.141   1.596
 5496TIP3   OH216493   2.828   5.560   4.829
 5496TIP3    H116494   2.830   5.464   4.831
 5496TIP3    H216495   2.735   5.582   4.824
 5497TIP3   OH216496   2.440   4.453   0.070
 5497TIP3    H116497   2.490   4.377   0.039
 5497TIP3    H216498   2.396   4.421   0.149
 5498TIP3   OH216499   6.410   5.195   1.369
 5498TIP3    H116500   6.381   5.125   1.428
 5498TIP3    H216501   6.366   5.177   1.287
 5499TIP3   OH216502   3.790   1.730   0.356
 5499TIP3    H116503   3.748   1.816   0.350
 5499TIP3    H216504   3.841   1.724   0.275
 5500TIP3   OH216505   2.676   1.628   2.692
 5500TIP3    H116506   2.670   1.716   2.729
 5500TIP3    H216507   2.706   1.643   2.602
 5501TIP3   OH216508   0.585   5.981   1.771
 5501TIP3    H116509   0.581   5.888   1.746
 5501TIP3    H216510   0.514   5.992   1.834
 5502TIP3   OH216511   5.661   1.845   4.471
 5502TIP3    H116512   5.708   1.903   4.412
 5502TIP3    H216513   5.683   1.876   4.559
 5503TIP3   OH216514   2.154   1.665   4.439
 5503TIP3    H116515   2.085   1.643   4.377
 5503TIP3    H216516   2.112   1.659   4.525
 5504TIP3   OH216517   5.891   3.142   3.129
 5504TIP3    H116518   5.892   3.193   3.048
 5504TIP3    H216519   5.943   3.194   3.190
 5505TIP3   OH216520   3.511   5.538   3.699
 5505TIP3    H116521   3.449   5.595   3.654
 5505TIP3    H216522   3.458   5.491   3.763
 5506TIP3   OH216523   0.309   5.385   4.916
 5506TIP3    H116524   0.394   5.368   4.875
 5506TIP3    H216525   0.313   5.478   4.940
 5507TIP3   OH216526   4.068   1.648   0.322
 5507TIP3    H116527   4.028   1.570   0.285
 5507TIP3    H216528   4.117   1.687   0.249
 5508TIP3   OH216529   2.478   2.478   2.974
 5508TIP3    H116530   2.389   2.461   2.944
 5508TIP3    H216531   2.532   2.414   2.927
 5509TIP3   OH216532   3.759   0.640   1.989
 5509TIP3    H116533   3.687   0.702   1.996
 5509TIP3    H216534   3.780   0.617   2.079
 5510TIP3   OH216535   4.943   2.417   2.833
 5510TIP3    H116536   4.890   2.463   2.767
 5510TIP3    H216537   4.997   2.486   2.872
 5511TIP3   OH216538   5.516   3.180   0.077
 5511TIP3    H116539   5.436   3.184   0.024
 5511TIP3    H216540   5.509   3.097   0.125
 5512TIP3   OH216541   0.175   4.947   1.727
 5512TIP3    H116542   0.159   5.031   1.772
 5512TIP3    H216543   0.238   4.902   1.784
 5513TIP3   OH216544   2.427   5.571   0.999
 5513TIP3    H116545   2.439   5.593   0.906
 5513TIP3    H216546   2.338   5.600   1.019
 5514TIP3   OH216547   5.076   1.445   1.290
 5514TIP3    H116548   5.133   1.381   1.248
 5514TIP3    H216549   5.129   1.525   1.294
 5515TIP3   OH216550   1.133   0.448   2.673
 5515TIP3    H116551   1.087   0.529   2.695
 5515TIP3    H216552   1.212   0.451   2.726
 5516TIP3   OH216553   0.280   5.421   0.118
 5516TIP3    H116554   0.328   5.420   0.035
 5516TIP3    H216555   0.240   5.508   0.121
 5517TIP3   OH216556   1.475   0.496   1.781
 5517TIP3    H116557   1.417   0.564   1.748
 5517TIP3    H216558   1.562   0.519   1.747
 5518TIP3   OH216559   3.285   0.043   4.143
 5518TIP3    H116560   3.372   0.069   4.176
 5518TIP3    H216561   3.256  -0.025   4.203
 5519TIP3   OH216562   6.131   0.138   3.434
 5519TIP3    H116563   6.041   0.152   3.406
 5519TIP3    H216564   6.184   0.160   3.358
 5520TIP3   OH216565   3.414   1.998   2.983
 5520TIP3    H116566   3.426   1.946   3.063
 5520TIP3    H216567   3.449   2.084   3.005
 5521TIP3   OH216568   4.875   5.537   3.277
 5521TIP3    H116569   4.791   5.583   3.277
 5521TIP3    H216570   4.876   5.488   3.358
 5522TIP3   OH216571   4.373   5.933   0.270
 5522TIP3    H116572   4.321   5.901   0.343
 5522TIP3    H216573   4.381   6.027   0.285
 5523TIP3   OH216574   3.803   4.562   2.616
 5523TIP3    H116575   3.718   4.575   2.657
 5523TIP3    H216576   3.810   4.634   2.553
 5524TIP3   OH216577   2.463   1.492   2.372
 5524TIP3    H116578   2.425   1.432   2.436
 5524TIP3    H216579   2.547   1.453   2.349
 5525TIP3   OH216580   1.576   0.461   4.342
 5525TIP3    H116581   1.580   0.366   4.334
 5525TIP3    H216582   1.501   0.478   4.398
 5526TIP3   OH216583   0.464   1.346   3.517
 5526TIP3    H116584   0.435   1.330   3.607
 5526TIP3    H216585   0.549   1.389   3.527
 5527TIP3   OH216586   4.020   3.419   1.037
 5527TIP3    H116587   4.102   3.427   0.990
 5527TIP3    H216588   3.956   3.467   0.984
 5528TIP3   OH216589   2.555   3.648   1.760
 5528TIP3    H116590   2.500   3.682   1.830
 5528TIP3    H216591   2.607   3.723   1.730
 5529TIP3   OH216592   3.873   3.300   4.696
 5529TIP3    H116593   3.870   3.237   4.624
 5529TIP3    H216594   3.937   3.263   4.757
 5530TIP3   OH216595   2.902   2.585   1.135
 5530TIP3    H116596   2.930   2.649   1.070
 5530TIP3    H216597   2.959   2.510   1.121
 5531TIP3   OH216598   2.727   3.460   3.353
 5531TIP3    H116599   2.721   3.442   3.447
 5531TIP3    H216600   2.800   3.522   3.346
 5532TIP3   OH216601   5.309   3.263   4.609
 5532TIP3    H116602   5.285   3.310   4.529
 5532TIP3    H216603   5.331   3.175   4.579
 5533TIP3   OH216604   5.602   2.157   0.940
 5533TIP3    H116605   5.641   2.070   0.952
 5533TIP3    H216606   5.676   2.217   0.938
 5534TIP3   OH216607   4.995   4.048   4.965
 5534TIP3    H116608   5.064   3.996   5.008
 5534TIP3    H216609   4.996   4.017   4.874
 5535TIP3   OH216610   4.398   3.411   1.357
 5535TIP3    H116611   4.393   3.374   1.269
 5535TIP3    H216612   4.332   3.364   1.408
 5536TIP3   OH216613   2.963   1.388   3.989
 5536TIP3    H116614   2.936   1.413   3.900
 5536TIP3    H216615   2.985   1.470   4.032
 5537TIP3   OH216616   4.439   3.310   4.967
 5537TIP3    H116617   4.451   3.218   4.990
 5537TIP3    H216618   4.528   3.345   4.960
 5538TIP3   OH216619   2.310   4.835   3.491
 5538TIP3    H116620   2.270   4.803   3.573
 5538TIP3    H216621   2.241   4.887   3.450
 5539TIP3   OH216622   4.718   1.692   1.400
 5539TIP3    H116623   4.688   1.741   1.476
 5539TIP3    H216624   4.638   1.673   1.351
 5540TIP3   OH216625   3.077   5.208   3.385
 5540TIP3    H116626   3.109   5.136   3.441
 5540TIP3    H216627   2.982   5.205   3.394
 5541TIP3   OH216628   4.329   3.990   4.613
 5541TIP3    H116629   4.294   3.918   4.666
 5541TIP3    H216630   4.303   4.069   4.660
 5542TIP3   OH216631   4.571   5.207   3.237
 5542TIP3    H116632   4.600   5.116   3.242
 5542TIP3    H216633   4.482   5.203   3.201
 5543TIP3   OH216634   5.885   0.380   1.686
 5543TIP3    H116635   5.807   0.360   1.635
 5543TIP3    H216636   5.866   0.465   1.726
 5544TIP3   OH216637   1.653   4.278   3.166
 5544TIP3    H116638   1.690   4.326   3.092
 5544TIP3    H216639   1.705   4.306   3.241
 5545TIP3   OH216640   2.484   4.281   3.040
 5545TIP3    H116641   2.389   4.288   3.034
 5545TIP3    H216642   2.499   4.206   3.097
 5546TIP3   OH216643   3.623   2.410   3.932
 5546TIP3    H116644   3.632   2.364   3.849
 5546TIP3    H216645   3.549   2.366   3.976
 5547TIP3   OH216646   3.780   4.319   3.219
 5547TIP3    H116647   3.818   4.371   3.150
 5547TIP3    H216648   3.805   4.364   3.300
 5548TIP3   OH216649   5.413   4.447   3.702
 5548TIP3    H116650   5.377   4.375   3.753
 5548TIP3    H216651   5.503   4.421   3.684
 5549TIP3   OH216652   3.664   2.590   3.684
 5549TIP3    H116653   3.653   2.604   3.778
 5549TIP3    H216654   3.576   2.594   3.648
 5550TIP3   OH216655   0.805   3.791   2.523
 5550TIP3    H116656   0.728   3.762   2.573
 5550TIP3    H216657   0.771   3.855   2.460
 5551TIP3   OH216658   5.387   2.151   0.465
 5551TIP3    H116659   5.446   2.097   0.413
 5551TIP3    H216660   5.301   2.109   0.456
 5552TIP3   OH216661   5.713   3.203   4.505
 5552TIP3    H116662   5.791   3.154   4.530
 5552TIP3    H216663   5.679   3.155   4.429
 5553TIP3   OH216664   3.030   4.419   1.400
 5553TIP3    H116665   3.014   4.421   1.494
 5553TIP3    H216666   3.045   4.510   1.376
 5554TIP3   OH216667   4.732   2.815   0.500
 5554TIP3    H116668   4.655   2.807   0.556
 5554TIP3    H216669   4.794   2.753   0.536
 5555TIP3   OH216670   5.706   1.340   5.028
 5555TIP3    H116671   5.642   1.338   4.957
 5555TIP3    H216672   5.790   1.357   4.985
 5556TIP3   OH216673   1.451   1.490   0.383
 5556TIP3    H116674   1.398   1.510   0.460
 5556TIP3    H216675   1.402   1.529   0.310
 5557TIP3   OH216676   0.870   5.836   3.596
 5557TIP3    H116677   0.869   5.775   3.522
 5557TIP3    H216678   0.954   5.819   3.639
 5558TIP3   OH216679   5.460   4.858   2.896
 5558TIP3    H116680   5.532   4.911   2.862
 5558TIP3    H216681   5.384   4.887   2.846
 5559TIP3   OH216682   0.768   3.470   2.478
 5559TIP3    H116683   0.769   3.375   2.468
 5559TIP3    H216684   0.827   3.502   2.410
 5560TIP3   OH216685   1.485   3.850   4.284
 5560TIP3    H116686   1.513   3.837   4.374
 5560TIP3    H216687   1.539   3.789   4.233
 5561TIP3   OH216688   6.065   2.093   3.834
 5561TIP3    H116689   6.011   2.041   3.775
 5561TIP3    H216690   6.150   2.050   3.834
 5562TIP3   OH216691   6.104   2.250   0.576
 5562TIP3    H116692   6.072   2.307   0.646
 5562TIP3    H216693   6.192   2.282   0.558
 5563TIP3   OH216694   1.127   4.830   4.745
 5563TIP3    H116695   1.036   4.830   4.716
 5563TIP3    H216696   1.146   4.737   4.763
 5564TIP3   OH216697   1.308   5.585   3.450
 5564TIP3    H116698   1.394   5.544   3.455
 5564TIP3    H216699   1.259   5.532   3.387
 5565TIP3   OH216700   1.128   4.836   0.222
 5565TIP3    H116701   1.130   4.904   0.154
 5565TIP3    H216702   1.072   4.873   0.290
 5566TIP3   OH216703   4.574   1.018   0.364
 5566TIP3    H116704   4.602   0.981   0.448
 5566TIP3    H216705   4.601   1.110   0.369
 5567TIP3   OH216706   6.002   3.932   5.215
 5567TIP3    H116707   6.037   3.874   5.147
 5567TIP3    H216708   5.978   4.012   5.168
 5568TIP3   OH216709   5.190   1.480   5.062
 5568TIP3    H116710   5.283   1.493   5.044
 5568TIP3    H216711   5.168   1.548   5.126
 5569TIP3   OH216712   1.786   1.072   4.804
 5569TIP3    H116713   1.752   1.160   4.789
 5569TIP3    H216714   1.831   1.078   4.889
 5570TIP3   OH216715   5.076   4.237   2.629
 5570TIP3    H116716   5.001   4.279   2.671
 5570TIP3    H216717   5.115   4.305   2.575
 5571TIP3   OH216718   5.775   5.102   0.389
 5571TIP3    H116719   5.787   5.120   0.296
 5571TIP3    H216720   5.789   5.187   0.432
 5572TIP3   OH216721   4.881   1.108   1.160
 5572TIP3    H116722   4.864   1.127   1.252
 5572TIP3    H216723   4.972   1.134   1.146
 5573TIP3   OH216724   5.228   2.990   1.263
 5573TIP3    H116725   5.263   2.903   1.284
 5573TIP3    H216726   5.282   3.051   1.314
 5574TIP3   OH216727   3.581   2.751   1.924
 5574TIP3    H116728   3.514   2.808   1.962
 5574TIP3    H216729   3.557   2.745   1.832
 5575TIP3   OH216730   4.065   1.497   1.111
 5575TIP3    H116731   3.982   1.536   1.082
 5575TIP3    H216732   4.087   1.433   1.043
 5576TIP3   OH216733   4.167   4.842   1.002
 5576TIP3    H116734   4.133   4.857   0.914
 5576TIP3    H216735   4.137   4.917   1.053
 5577TIP3   OH216736   0.918   4.898   0.943
 5577TIP3    H116737   0.946   4.952   0.869
 5577TIP3    H216738   0.923   4.958   1.018
 5578TIP3   OH216739   0.295   1.991   3.866
 5578TIP3    H116740   0.363   1.952   3.812
 5578TIP3    H216741   0.237   2.035   3.804
 5579TIP3   OH216742   2.734   5.527   1.087
 5579TIP3    H116743   2.712   5.566   1.003
 5579TIP3    H216744   2.802   5.464   1.068
 5580TIP3   OH216745   4.370   1.200   0.196
 5580TIP3    H116746   4.421   1.242   0.265
 5580TIP3    H216747   4.367   1.265   0.126
 5581TIP3   OH216748   4.973   4.068   4.534
 5581TIP3    H116749   4.938   3.984   4.565
 5581TIP3    H216750   4.937   4.077   4.445
 5582TIP3   OH216751   4.179   3.223   4.511
 5582TIP3    H116752   4.174   3.248   4.603
 5582TIP3    H216753   4.273   3.226   4.491
 5583TIP3   OH216754   3.073   3.056   3.001
 5583TIP3    H116755   3.064   2.967   2.967
 5583TIP3    H216756   3.014   3.108   2.945
 5584TIP3   OH216757   0.093   5.233   5.112
 5584TIP3    H116758   0.163   5.294   5.135
 5584TIP3    H216759   0.076   5.251   5.019
 5585TIP3   OH216760   0.380   4.702   2.619
 5585TIP3    H116761   0.399   4.772   2.557
 5585TIP3    H216762   0.343   4.747   2.695
 5586TIP3   OH216763   0.768   2.061   1.639
 5586TIP3    H116764   0.811   1.975   1.634
 5586TIP3    H216765   0.677   2.043   1.616
 5587TIP3   OH216766   2.724   5.793   0.404
 5587TIP3    H116767   2.771   5.788   0.321
 5587TIP3    H216768   2.672   5.873   0.398
 5588TIP3   OH216769   1.750   3.934   5.103
 5588TIP3    H116770   1.773   3.957   5.013
 5588TIP3    H216771   1.791   4.003   5.156
 5589TIP3   OH216772   1.953   3.488   0.944
 5589TIP3    H116773   1.931   3.407   0.991
 5589TIP3    H216774   1.977   3.458   0.856
 5590TIP3   OH216775   5.638   0.562   2.274
 5590TIP3    H116776   5.639   0.509   2.194
 5590TIP3    H216777   5.692   0.638   2.253
 5591TIP3   OH216778   2.879   5.788   4.994
 5591TIP3    H116779   2.899   5.714   4.937
 5591TIP3    H216780   2.795   5.822   4.962
 5592TIP3   OH216781   5.775   0.082   4.512
 5592TIP3    H116782   5.853   0.038   4.545
 5592TIP3    H216783   5.754   0.148   4.578
 5593TIP3   OH216784   3.134   5.627   4.573
 5593TIP3    H116785   3.196   5.697   4.550
 5593TIP3    H216786   3.186   5.547   4.566
 5594TIP3   OH216787   0.072   4.716   1.499
 5594TIP3    H116788   0.146   4.678   1.452
 5594TIP3    H216789   0.082   4.811   1.487
 5595TIP3   OH216790   3.033   5.159   0.079
 5595TIP3    H116791   2.939   5.142   0.087
 5595TIP3    H216792   3.053   5.138  -0.013
 5596TIP3   OH216793   4.136   2.323   0.572
 5596TIP3    H116794   4.227   2.349   0.590
 5596TIP3    H216795   4.143   2.259   0.501
 5597TIP3   OH216796   6.100   2.157   0.864
 5597TIP3    H116797   6.012   2.121   0.870
 5597TIP3    H216798   6.089   2.251   0.878
 5598TIP3   OH216799   1.313   0.684   2.800
 5598TIP3    H116800   1.278   0.659   2.715
 5598TIP3    H216801   1.333   0.601   2.843
 5599TIP3   OH216802   3.471   4.766   0.675
 5599TIP3    H116803   3.481   4.811   0.592
 5599TIP3    H216804   3.384   4.725   0.670
 5600TIP3   OH216805   3.422   5.748   5.130
 5600TIP3    H116806   3.334   5.784   5.141
 5600TIP3    H216807   3.408   5.665   5.084
 5601TIP3   OH216808   2.783   0.483   1.099
 5601TIP3    H116809   2.790   0.527   1.015
 5601TIP3    H216810   2.689   0.483   1.119
 5602TIP3   OH216811   2.815   1.261   4.548
 5602TIP3    H116812   2.787   1.300   4.465
 5602TIP3    H216813   2.825   1.336   4.608
 5603TIP3   OH216814   2.362   5.349   1.400
 5603TIP3    H116815   2.383   5.312   1.314
 5603TIP3    H216816   2.339   5.274   1.454
 5604TIP3   OH216817   5.763   0.412   4.919
 5604TIP3    H116818   5.833   0.477   4.927
 5604TIP3    H216819   5.694   0.457   4.872
 5605TIP3   OH216820   4.408   3.665   2.193
 5605TIP3    H116821   4.497   3.689   2.217
 5605TIP3    H216822   4.354   3.738   2.223
 5606TIP3   OH216823   1.542   0.657   4.697
 5606TIP3    H116824   1.625   0.686   4.735
 5606TIP3    H216825   1.547   0.561   4.700
 5607TIP3   OH216826   6.181   4.099   1.450
 5607TIP3    H116827   6.159   4.020   1.499
 5607TIP3    H216828   6.153   4.080   1.360
 5608TIP3   OH216829   3.219   0.249   1.177
 5608TIP3    H116830   3.202   0.287   1.091
 5608TIP3    H216831   3.297   0.195   1.165
 5609TIP3   OH216832   4.402   1.268   0.972
 5609TIP3    H116833   4.368   1.192   0.925
 5609TIP3    H216834   4.414   1.335   0.905
 5610TIP3   OH216835   0.282   4.869   3.161
 5610TIP3    H116836   0.352   4.931   3.179
 5610TIP3    H216837   0.202   4.913   3.193
 5611TIP3   OH216838   4.303   4.083   2.489
 5611TIP3    H116839   4.334   3.994   2.473
 5611TIP3    H216840   4.208   4.074   2.497
 5612TIP3   OH216841   5.325   0.069   0.247
 5612TIP3    H116842   5.310   0.076   0.152
 5612TIP3    H216843   5.242   0.035   0.281
 5613TIP3   OH216844   0.851   0.958   3.585
 5613TIP3    H116845   0.900   0.951   3.503
 5613TIP3    H216846   0.866   0.873   3.628
 5614TIP3   OH216847   4.824   5.596   0.923
 5614TIP3    H116848   4.865   5.528   0.871
 5614TIP3    H216849   4.851   5.578   1.013
 5615TIP3   OH216850   4.662   5.269   1.677
 5615TIP3    H116851   4.600   5.299   1.610
 5615TIP3    H216852   4.727   5.339   1.683
 5616TIP3   OH216853   3.005   2.405   0.783
 5616TIP3    H116854   2.999   2.482   0.725
 5616TIP3    H216855   3.093   2.409   0.819
 5617TIP3   OH216856   4.817   5.141   1.915
 5617TIP3    H116857   4.879   5.205   1.949
 5617TIP3    H216858   4.849   5.120   1.827
 5618TIP3   OH216859   0.508   2.838   5.030
 5618TIP3    H116860   0.543   2.777   5.095
 5618TIP3    H216861   0.413   2.833   5.041
 5619TIP3   OH216862   4.276   1.525   2.427
 5619TIP3    H116863   4.230   1.590   2.373
 5619TIP3    H216864   4.295   1.571   2.508
 5620TIP3   OH216865   3.869   1.539   3.127
 5620TIP3    H116866   3.922   1.561   3.204
 5620TIP3    H216867   3.930   1.545   3.054
 5621TIP3   OH216868   6.272   1.201   4.248
 5621TIP3    H116869   6.334   1.256   4.296
 5621TIP3    H216870   6.224   1.263   4.193
 5622TIP3   OH216871   3.430   1.175   2.202
 5622TIP3    H116872   3.404   1.253   2.250
 5622TIP3    H216873   3.357   1.158   2.143
 5623TIP3   OH216874   2.003   3.155   2.915
 5623TIP3    H116875   1.910   3.150   2.936
 5623TIP3    H216876   2.031   3.064   2.912
 5624TIP3   OH216877   0.733   5.435   4.701
 5624TIP3    H116878   0.656   5.422   4.756
 5624TIP3    H216879   0.784   5.502   4.747
 5625TIP3   OH216880   6.237   4.604   4.290
 5625TIP3    H116881   6.175   4.570   4.355
 5625TIP3    H216882   6.199   4.686   4.261
 5626TIP3   OH216883   2.756   1.921   4.513
 5626TIP3    H116884   2.828   1.875   4.555
 5626TIP3    H216885   2.712   1.968   4.585
 5627TIP3   OH216886   4.551   1.328   4.626
 5627TIP3    H116887   4.608   1.357   4.555
 5627TIP3    H216888   4.477   1.286   4.583
 5628TIP3   OH216889   4.538   1.102   1.150
 5628TIP3    H116890   4.617   1.057   1.118
 5628TIP3    H216891   4.522   1.171   1.086
 5629TIP3   OH216892   4.042   1.365  -0.015
 5629TIP3    H116893   3.966   1.418  -0.039
 5629TIP3    H216894   4.044   1.366   0.080
 5630TIP3   OH216895   1.527   3.579   1.433
 5630TIP3    H116896   1.609   3.574   1.481
 5630TIP3    H216897   1.463   3.537   1.490
 5631TIP3   OH216898   1.520   0.894   3.911
 5631TIP3    H116899   1.435   0.939   3.913
 5631TIP3    H216900   1.542   0.881   4.003
 5632TIP3   OH216901   0.597   2.611   0.948
 5632TIP3    H116902   0.591   2.540   0.884
 5632TIP3    H216903   0.510   2.614   0.989
 5633TIP3   OH216904   0.331   0.736   5.164
 5633TIP3    H116905   0.387   0.813   5.170
 5633TIP3    H216906   0.389   0.666   5.135
 5634TIP3   OH216907   0.670   0.502   4.099
 5634TIP3    H116908   0.579   0.518   4.125
 5634TIP3    H216909   0.722   0.559   4.155
 5635TIP3   OH216910   1.408   2.594   4.305
 5635TIP3    H116911   1.462   2.636   4.372
 5635TIP3    H216912   1.472   2.564   4.240
 5636TIP3   OH216913   2.604   4.956   1.405
 5636TIP3    H116914   2.640   4.911   1.329
 5636TIP3    H216915   2.607   4.890   1.475
 5637TIP3   OH216916   3.265   5.290   0.146
 5637TIP3    H116917   3.186   5.244   0.119
 5637TIP3    H216918   3.248   5.316   0.236
 5638TIP3   OH216919   1.987   3.436   1.284
 5638TIP3    H116920   2.019   3.443   1.374
 5638TIP3    H216921   1.913   3.497   1.281
 5639TIP3   OH216922   5.055   1.799   1.495
 5639TIP3    H116923   5.011   1.882   1.513
 5639TIP3    H216924   5.119   1.791   1.566
 5640TIP3   OH216925   5.721   3.290   5.060
 5640TIP3    H116926   5.811   3.299   5.027
 5640TIP3    H216927   5.730   3.237   5.139
 5641TIP3   OH216928   2.983   2.658   3.643
 5641TIP3    H116929   3.062   2.693   3.683
 5641TIP3    H216930   2.934   2.736   3.615
 5642TIP3   OH216931   5.244   1.928   0.246
 5642TIP3    H116932   5.196   2.011   0.246
 5642TIP3    H216933   5.217   1.885   0.328
 5643TIP3   OH216934   3.695   3.315   2.916
 5643TIP3    H116935   3.607   3.297   2.947
 5643TIP3    H216936   3.715   3.402   2.951
 5644TIP3   OH216937   4.009   1.413   1.689
 5644TIP3    H116938   3.940   1.433   1.626
 5644TIP3    H216939   4.060   1.343   1.647
 5645TIP3   OH216940   4.350   5.809   4.002
 5645TIP3    H116941   4.289   5.876   3.971
 5645TIP3    H216942   4.347   5.816   4.098
 5646TIP3   OH216943   3.935   4.517   0.259
 5646TIP3    H116944   3.904   4.445   0.204
 5646TIP3    H216945   3.920   4.487   0.349
 5647TIP3   OH216946   5.820   0.857   3.651
 5647TIP3    H116947   5.903   0.883   3.611
 5647TIP3    H216948   5.812   0.914   3.728
 5648TIP3   OH216949   1.404   1.447   3.759
 5648TIP3    H116950   1.466   1.505   3.715
 5648TIP3    H216951   1.423   1.360   3.724
 5649TIP3   OH216952   5.231   0.300   2.507
 5649TIP3    H116953   5.298   0.327   2.444
 5649TIP3    H216954   5.213   0.379   2.559
 5650TIP3   OH216955   5.278   4.871   3.777
 5650TIP3    H116956   5.281   4.804   3.710
 5650TIP3    H216957   5.226   4.832   3.848
 5651TIP3   OH216958   2.198   4.073   3.399
 5651TIP3    H116959   2.183   4.167   3.391
 5651TIP3    H216960   2.116   4.033   3.368
 5652TIP3   OH216961   3.545   1.294   0.884
 5652TIP3    H116962   3.558   1.199   0.881
 5652TIP3    H216963   3.550   1.316   0.977
 5653TIP3   OH216964   2.975   0.333   2.915
 5653TIP3    H116965   2.921   0.375   2.983
 5653TIP3    H216966   3.020   0.262   2.960
 5654TIP3   OH216967   0.589   5.150   3.667
 5654TIP3    H116968   0.551   5.081   3.613
 5654TIP3    H216969   0.669   5.176   3.620
 5655TIP3   OH216970   1.325   0.639   1.138
 5655TIP3    H116971   1.334   0.545   1.150
 5655TIP3    H216972   1.403   0.665   1.089
 5656TIP3   OH216973   4.067   2.908   1.333
 5656TIP3    H116974   4.059   2.899   1.238
 5656TIP3    H216975   4.143   2.856   1.356
 5657TIP3   OH216976   4.924   0.781   1.150
 5657TIP3    H116977   4.863   0.853   1.167
 5657TIP3    H216978   4.870   0.713   1.109
 5658TIP3   OH216979   3.693   5.691   3.843
 5658TIP3    H116980   3.759   5.709   3.777
 5658TIP3    H216981   3.634   5.629   3.802
 5659TIP3   OH216982   2.481   3.336   5.052
 5659TIP3    H116983   2.417   3.351   5.122
 5659TIP3    H216984   2.527   3.420   5.044
 5660TIP3   OH216985   2.602   2.738   2.962
 5660TIP3    H116986   2.655   2.733   3.041
 5660TIP3    H216987   2.560   2.652   2.956
 5661TIP3   OH216988   4.365   0.813   3.326
 5661TIP3    H116989   4.429   0.770   3.269
 5661TIP3    H216990   4.415   0.881   3.372
 5662TIP3   OH216991   3.645   4.165   0.248
 5662TIP3    H116992   3.614   4.235   0.189
 5662TIP3    H216993   3.566   4.118   0.273
 5663TIP3   OH216994   1.619   5.054   1.313
 5663TIP3    H116995   1.633   4.987   1.247
 5663TIP3    H216996   1.535   5.031   1.353
 5664TIP3   OH216997   4.448   3.838   2.504
 5664TIP3    H116998   4.503   3.856   2.428
 5664TIP3    H216999   4.465   3.746   2.524
 5665TIP3   OH217000   0.100   4.327   2.211
 5665TIP3    H117001   0.040   4.321   2.136
 5665TIP3    H217002   0.180   4.365   2.175
 5666TIP3   OH217003   4.442   3.434   3.462
 5666TIP3    H117004   4.477   3.523   3.472
 5666TIP3    H217005   4.350   3.441   3.487
 5667TIP3   OH217006   1.121   4.544   4.742
 5667TIP3    H117007   1.149   4.454   4.726
 5667TIP3    H217008   1.026   4.542   4.725
 5668TIP3   OH217009   4.692   4.147   1.478
 5668TIP3    H117010   4.776   4.109   1.456
 5668TIP3    H217011   4.703   4.241   1.462
 5669TIP3   OH217012   4.705   0.705   3.780
 5669TIP3    H117013   4.648   0.665   3.714
 5669TIP3    H217014   4.772   0.639   3.798
 5670TIP3   OH217015   4.817   3.894   0.439
 5670TIP3    H117016   4.851   3.839   0.510
 5670TIP3    H217017   4.871   3.869   0.363
 5671TIP3   OH217018   4.345   3.476   2.846
 5671TIP3    H117019   4.403   3.549   2.825
 5671TIP3    H217020   4.333   3.482   2.941
 5672TIP3   OH217021   5.660   5.497   1.218
 5672TIP3    H117022   5.603   5.435   1.172
 5672TIP3    H217023   5.599   5.562   1.253
 5673TIP3   OH217024   2.104   4.530   0.357
 5673TIP3    H117025   2.023   4.479   0.363
 5673TIP3    H217026   2.134   4.538   0.448
 5674TIP3   OH217027   5.991   5.636   0.657
 5674TIP3    H117028   6.052   5.626   0.584
 5674TIP3    H217029   6.026   5.710   0.707
 5675TIP3   OH217030   6.199   5.398   3.861
 5675TIP3    H117031   6.193   5.327   3.798
 5675TIP3    H217032   6.225   5.356   3.943
 5676TIP3   OH217033   0.705   3.626   1.539
 5676TIP3    H117034   0.622   3.579   1.548
 5676TIP3    H217035   0.691   3.686   1.466
 5677TIP3   OH217036   2.035   5.750   1.720
 5677TIP3    H117037   2.127   5.769   1.707
 5677TIP3    H217038   2.033   5.658   1.747
 5678TIP3   OH217039   1.820   3.049   4.090
 5678TIP3    H117040   1.814   3.018   4.180
 5678TIP3    H217041   1.764   2.990   4.040
 5679TIP3   OH217042   4.502   0.480   5.026
 5679TIP3    H117043   4.527   0.504   4.937
 5679TIP3    H217044   4.515   0.385   5.030
 5680TIP3   OH217045   2.776   5.499   3.934
 5680TIP3    H117046   2.705   5.513   3.997
 5680TIP3    H217047   2.771   5.406   3.912
 5681TIP3   OH217048   0.457   2.983   4.339
 5681TIP3    H117049   0.394   3.055   4.340
 5681TIP3    H217050   0.466   2.962   4.246
 5682TIP3   OH217051   3.103   0.801   1.595
 5682TIP3    H117052   3.183   0.748   1.591
 5682TIP3    H217053   3.087   0.827   1.504
 5683TIP3   OH217054   5.931   0.793   1.935
 5683TIP3    H117055   6.024   0.784   1.913
 5683TIP3    H217056   5.915   0.887   1.932
 5684TIP3   OH217057   1.066   2.178   0.301
 5684TIP3    H117058   1.036   2.268   0.316
 5684TIP3    H217059   1.110   2.182   0.216
 5685TIP3   OH217060   0.401   5.901   3.433
 5685TIP3    H117061   0.459   5.973   3.409
 5685TIP3    H217062   0.425   5.830   3.373
 5686TIP3   OH217063   5.734   2.078   2.181
 5686TIP3    H117064   5.755   2.021   2.107
 5686TIP3    H217065   5.655   2.124   2.154
 5687TIP3   OH217066   1.068   2.398   4.505
 5687TIP3    H117067   1.055   2.477   4.452
 5687TIP3    H217068   1.133   2.347   4.457
 5688TIP3   OH217069   1.750   4.623   1.967
 5688TIP3    H117070   1.838   4.648   1.938
 5688TIP3    H217071   1.729   4.546   1.914
 5689TIP3   OH217072   3.152   2.729   2.581
 5689TIP3    H117073   3.097   2.784   2.524
 5689TIP3    H217074   3.114   2.641   2.572
 5690TIP3   OH217075   0.241   0.891   3.700
 5690TIP3    H117076   0.298   0.815   3.684
 5690TIP3    H217077   0.233   0.894   3.795
 5691TIP3   OH217078   1.857   2.300   4.713
 5691TIP3    H117079   1.849   2.372   4.775
 5691TIP3    H217080   1.861   2.221   4.767
 5692TIP3   OH217081   0.993   4.408   4.480
 5692TIP3    H117082   0.909   4.455   4.470
 5692TIP3    H217083   0.975   4.342   4.546
 5693TIP3   OH217084   1.284   2.117   4.637
 5693TIP3    H117085   1.276   2.022   4.626
 5693TIP3    H217086   1.319   2.147   4.553
 5694TIP3   OH217087   3.191   4.181   2.710
 5694TIP3    H117088   3.227   4.146   2.791
 5694TIP3    H217089   3.136   4.111   2.676
 5695TIP3   OH217090   3.573   0.860   2.010
 5695TIP3    H117091   3.522   0.807   2.071
 5695TIP3    H217092   3.610   0.930   2.064
 5696TIP3   OH217093   4.909   3.249   1.158
 5696TIP3    H117094   4.932   3.266   1.066
 5696TIP3    H217095   4.838   3.185   1.153
 5697TIP3   OH217096   5.069   5.797   2.413
 5697TIP3    H117097   5.097   5.719   2.365
 5697TIP3    H217098   5.139   5.813   2.476
 5698TIP3   OH217099   3.174   3.656   0.215
 5698TIP3    H117100   3.126   3.577   0.194
 5698TIP3    H217101   3.170   3.662   0.311
 5699TIP3   OH217102   1.478   3.627   1.916
 5699TIP3    H117103   1.545   3.560   1.907
 5699TIP3    H217104   1.397   3.585   1.888
 5700TIP3   OH217105   3.634   1.083   3.097
 5700TIP3    H117106   3.711   1.130   3.130
 5700TIP3    H217107   3.582   1.150   3.054
 5701TIP3   OH217108   2.643   2.512   0.982
 5701TIP3    H117109   2.571   2.571   1.004
 5701TIP3    H217110   2.722   2.557   1.013
 5702TIP3   OH217111   4.998   2.412   0.300
 5702TIP3    H117112   5.079   2.451   0.267
 5702TIP3    H217113   4.929   2.458   0.253
 5703TIP3   OH217114   0.215   4.919   4.869
 5703TIP3    H117115   0.155   4.925   4.943
 5703TIP3    H217116   0.157   4.905   4.793
 5704TIP3   OH217117   2.282   2.319   0.675
 5704TIP3    H117118   2.349   2.279   0.619
 5704TIP3    H217119   2.200   2.301   0.630
 5705TIP3   OH217120   5.033   5.528   4.782
 5705TIP3    H117121   5.038   5.624   4.781
 5705TIP3    H217122   5.105   5.501   4.839
 5706TIP3   OH217123   1.951   0.908   1.413
 5706TIP3    H117124   2.004   0.841   1.456
 5706TIP3    H217125   1.926   0.868   1.329
 5707TIP3   OH217126   2.275   0.907   3.471
 5707TIP3    H117127   2.196   0.961   3.462
 5707TIP3    H217128   2.322   0.922   3.389
 5708TIP3   OH217129   1.420   2.125   0.711
 5708TIP3    H117130   1.415   2.062   0.639
 5708TIP3    H217131   1.358   2.091   0.776
 5709TIP3   OH217132   2.798   1.065   2.144
 5709TIP3    H117133   2.815   1.149   2.101
 5709TIP3    H217134   2.868   1.008   2.113
 5710TIP3   OH217135   6.269   5.742   4.753
 5710TIP3    H117136   6.274   5.659   4.800
 5710TIP3    H217137   6.359   5.761   4.728
 5711TIP3   OH217138   4.030   3.334   3.042
 5711TIP3    H117139   3.956   3.322   3.100
 5711TIP3    H217140   4.107   3.324   3.098
 5712TIP3   OH217141   5.148   2.952   0.906
 5712TIP3    H117142   5.243   2.949   0.914
 5712TIP3    H217143   5.132   2.944   0.812
 5713TIP3   OH217144   3.236   2.778   4.317
 5713TIP3    H117145   3.196   2.863   4.297
 5713TIP3    H217146   3.161   2.719   4.328
 5714TIP3   OH217147   1.573   4.857   2.846
 5714TIP3    H117148   1.567   4.951   2.827
 5714TIP3    H217149   1.570   4.852   2.941
 5715TIP3   OH217150   6.289   2.247   0.088
 5715TIP3    H117151   6.217   2.216   0.144
 5715TIP3    H217152   6.354   2.280   0.150
 5716TIP3   OH217153   6.137   5.699   1.540
 5716TIP3    H117154   6.042   5.698   1.526
 5716TIP3    H217155   6.168   5.617   1.501
 5717TIP3   OH217156   1.651   0.711   3.296
 5717TIP3    H117157   1.647   0.777   3.226
 5717TIP3    H217158   1.698   0.637   3.256
 5718TIP3   OH217159   1.682   4.043   2.550
 5718TIP3    H117160   1.651   4.119   2.502
 5718TIP3    H217161   1.754   4.076   2.603
 5719TIP3   OH217162   5.819   2.462   1.536
 5719TIP3    H117163   5.869   2.491   1.612
 5719TIP3    H217164   5.787   2.375   1.560
 5720TIP3   OH217165   1.050   0.785   4.991
 5720TIP3    H117166   1.075   0.696   5.016
 5720TIP3    H217167   1.023   0.826   5.073
 5721TIP3   OH217168   3.345   0.711   2.751
 5721TIP3    H117169   3.291   0.762   2.811
 5721TIP3    H217170   3.317   0.620   2.766
 5722TIP3   OH217171   6.011   5.906   2.287
 5722TIP3    H117172   5.921   5.906   2.321
 5722TIP3    H217173   6.066   5.913   2.364
 5723TIP3   OH217174   5.493   1.301   0.571
 5723TIP3    H117175   5.425   1.236   0.551
 5723TIP3    H217176   5.445   1.375   0.610
 5724TIP3   OH217177   3.324   4.443   0.423
 5724TIP3    H117178   3.394   4.484   0.371
 5724TIP3    H217179   3.297   4.367   0.371
 5725TIP3   OH217180   4.195   3.714   4.208
 5725TIP3    H117181   4.127   3.674   4.263
 5725TIP3    H217182   4.265   3.736   4.269
 5726TIP3   OH217183   4.148   0.403   0.141
 5726TIP3    H117184   4.110   0.491   0.138
 5726TIP3    H217185   4.139   0.371   0.051
 5727TIP3   OH217186   4.226   3.297   2.688
 5727TIP3    H117187   4.200   3.331   2.603
 5727TIP3    H217188   4.279   3.366   2.727
 5728TIP3   OH217189   6.291   1.560   4.350
 5728TIP3    H117190   6.339   1.478   4.363
 5728TIP3    H217191   6.199   1.535   4.359
 5729TIP3   OH217192   4.320   5.763   2.037
 5729TIP3    H117193   4.356   5.790   2.122
 5729TIP3    H217194   4.361   5.679   2.018
 5730TIP3   OH217195   2.675   1.408   1.657
 5730TIP3    H117196   2.768   1.394   1.640
 5730TIP3    H217197   2.671   1.493   1.701
 5731TIP3   OH217198   2.346   3.646   5.067
 5731TIP3    H117199   2.414   3.655   5.001
 5731TIP3    H217200   2.393   3.648   5.150
 5732TIP3   OH217201   1.122   5.453   1.330
 5732TIP3    H117202   1.084   5.379   1.378
 5732TIP3    H217203   1.216   5.437   1.332
 5733TIP3   OH217204   0.529   0.869   4.481
 5733TIP3    H117205   0.445   0.905   4.452
 5733TIP3    H217206   0.508   0.780   4.509
 5734TIP3   OH217207   5.302   1.524   1.129
 5734TIP3    H117208   5.237   1.562   1.071
 5734TIP3    H217209   5.337   1.449   1.080
 5735TIP3   OH217210   1.537   2.383   4.109
 5735TIP3    H117211   1.446   2.411   4.098
 5735TIP3    H217212   1.531   2.306   4.165
 5736TIP3   OH217213   4.279   3.046   4.220
 5736TIP3    H117214   4.197   3.005   4.194
 5736TIP3    H217215   4.327   3.061   4.138
 5737TIP3   OH217216   3.434   3.618   2.652
 5737TIP3    H117217   3.397   3.570   2.578
 5737TIP3    H217218   3.360   3.632   2.711
 5738TIP3   OH217219   5.250   4.371   4.474
 5738TIP3    H117220   5.317   4.407   4.416
 5738TIP3    H217221   5.297   4.349   4.554
 5739TIP3   OH217222   6.000   2.528   3.802
 5739TIP3    H117223   6.018   2.554   3.711
 5739TIP3    H217224   6.076   2.477   3.828
 5740TIP3   OH217225   2.689   0.553   0.216
 5740TIP3    H117226   2.697   0.637   0.261
 5740TIP3    H217227   2.776   0.537   0.180
 5741TIP3   OH217228   4.469   4.647   4.246
 5741TIP3    H117229   4.436   4.733   4.220
 5741TIP3    H217230   4.532   4.666   4.316
 5742TIP3   OH217231   5.436   1.329   2.052
 5742TIP3    H117232   5.397   1.413   2.031
 5742TIP3    H217233   5.379   1.264   2.009
 5743TIP3   OH217234   2.305   3.080   3.652
 5743TIP3    H117235   2.377   3.142   3.646
 5743TIP3    H217236   2.291   3.069   3.746
 5744TIP3   OH217237   0.755   4.848   4.249
 5744TIP3    H117238   0.712   4.883   4.327
 5744TIP3    H217239   0.707   4.768   4.229
 5745TIP3   OH217240   0.874   3.136   2.090
 5745TIP3    H117241   0.910   3.090   2.166
 5745TIP3    H217242   0.919   3.221   2.089
 5746TIP3   OH217243   3.836   3.811   2.829
 5746TIP3    H117244   3.782   3.867   2.885
 5746TIP3    H217245   3.893   3.765   2.890
 5747TIP3   OH217246   3.352   5.610   0.774
 5747TIP3    H117247   3.379   5.579   0.687
 5747TIP3    H217248   3.419   5.575   0.833
 5748TIP3   OH217249   0.639   2.533   5.135
 5748TIP3    H117250   0.639   2.499   5.225
 5748TIP3    H217251   0.550   2.517   5.104
 5749TIP3   OH217252   1.634   1.902   1.208
 5749TIP3    H117253   1.583   1.959   1.150
 5749TIP3    H217254   1.626   1.815   1.170
 5750TIP3   OH217255   5.135   0.526   2.634
 5750TIP3    H117256   5.186   0.600   2.666
 5750TIP3    H217257   5.067   0.565   2.579
 5751TIP3   OH217258   4.572   2.883   1.458
 5751TIP3    H117259   4.646   2.847   1.409
 5751TIP3    H217260   4.495   2.856   1.408
 5752TIP3   OH217261   0.708   1.957   4.728
 5752TIP3    H117262   0.676   2.043   4.702
 5752TIP3    H217263   0.682   1.899   4.656
 5753TIP3   OH217264   0.134   1.106   3.856
 5753TIP3    H117265   0.053   1.110   3.805
 5753TIP3    H217266   0.198   1.067   3.796
 5754TIP3   OH217267   4.498   2.115   4.877
 5754TIP3    H117268   4.584   2.081   4.852
 5754TIP3    H217269   4.475   2.066   4.956
 5755TIP3   OH217270   2.136   5.917   4.897
 5755TIP3    H117271   2.092   5.841   4.934
 5755TIP3    H217272   2.107   5.991   4.951
 5756TIP3   OH217273   3.539   3.390   1.437
 5756TIP3    H117274   3.584   3.352   1.513
 5756TIP3    H217275   3.450   3.404   1.467
 5757TIP3   OH217276   0.648   4.385   1.867
 5757TIP3    H117277   0.658   4.313   1.805
 5757TIP3    H217278   0.598   4.451   1.819
 5758TIP3   OH217279   0.792   2.043   4.360
 5758TIP3    H117280   0.766   2.130   4.392
 5758TIP3    H217281   0.760   1.982   4.426
 5759TIP3   OH217282   2.819   4.934   3.747
 5759TIP3    H117283   2.725   4.938   3.764
 5759TIP3    H217284   2.845   4.847   3.777
 5760TIP3   OH217285   4.534   4.696   3.493
 5760TIP3    H117286   4.482   4.628   3.536
 5760TIP3    H217287   4.543   4.765   3.558
 5761TIP3   OH217288   5.273   5.067   2.796
 5761TIP3    H117289   5.200   5.007   2.813
 5761TIP3    H217290   5.239   5.153   2.820
 5762TIP3   OH217291   3.137   4.500   2.190
 5762TIP3    H117292   3.173   4.535   2.109
 5762TIP3    H217293   3.050   4.538   2.196
 5763TIP3   OH217294   1.575   1.416   3.527
 5763TIP3    H117295   1.611   1.379   3.607
 5763TIP3    H217296   1.640   1.398   3.460
 5764TIP3   OH217297   0.417   3.094   1.289
 5764TIP3    H117298   0.495   3.044   1.312
 5764TIP3    H217299   0.386   3.130   1.372
 5765TIP3   OH217300   1.917   3.054   2.409
 5765TIP3    H117301   1.991   3.043   2.349
 5765TIP3    H217302   1.899   2.965   2.440
 5766TIP3   OH217303   5.901   3.567   3.901
 5766TIP3    H117304   5.885   3.660   3.891
 5766TIP3    H217305   5.929   3.537   3.815
 5767TIP3   OH217306   1.897   4.211   2.483
 5767TIP3    H117307   1.967   4.157   2.519
 5767TIP3    H217308   1.864   4.160   2.409
 5768TIP3   OH217309   0.255   2.166   0.960
 5768TIP3    H117310   0.276   2.082   0.920
 5768TIP3    H217311   0.269   2.230   0.890
 5769TIP3   OH217312   1.446   5.348   5.019
 5769TIP3    H117313   1.506   5.315   4.952
 5769TIP3    H217314   1.500   5.401   5.077
 5770TIP3   OH217315   4.040   4.610   1.849
 5770TIP3    H117316   4.066   4.614   1.942
 5770TIP3    H217317   3.949   4.638   1.848
 5771TIP3   OH217318   2.943   4.810   3.040
 5771TIP3    H117319   2.850   4.814   3.062
 5771TIP3    H217320   2.947   4.847   2.951
 5772TIP3   OH217321   3.537   1.938   1.476
 5772TIP3    H117322   3.620   1.953   1.431
 5772TIP3    H217323   3.553   1.860   1.530
 5773TIP3   OH217324   0.403   0.440   1.941
 5773TIP3    H117325   0.458   0.444   1.863
 5773TIP3    H217326   0.463   0.452   2.014
 5774TIP3   OH217327   5.953   1.111   2.664
 5774TIP3    H117328   5.864   1.079   2.648
 5774TIP3    H217329   5.945   1.171   2.738
 5775TIP3   OH217330   0.905   4.343   1.304
 5775TIP3    H117331   0.969   4.279   1.273
 5775TIP3    H217332   0.820   4.302   1.287
 5776TIP3   OH217333   2.116   3.752   3.742
 5776TIP3    H117334   2.075   3.688   3.800
 5776TIP3    H217335   2.045   3.813   3.720
 5777TIP3   OH217336   3.103   4.076   3.210
 5777TIP3    H117337   3.012   4.076   3.180
 5777TIP3    H217338   3.106   4.141   3.279
 5778TIP3   OH217339   4.356   5.092   3.661
 5778TIP3    H117340   4.265   5.073   3.635
 5778TIP3    H217341   4.348   5.159   3.728
 5779TIP3   OH217342   1.749   5.496   2.529
 5779TIP3    H117343   1.814   5.431   2.503
 5779TIP3    H217344   1.718   5.534   2.447
 5780TIP3   OH217345   5.896   5.828   5.153
 5780TIP3    H117346   5.923   5.829   5.061
 5780TIP3    H217347   5.880   5.920   5.174
 5781TIP3   OH217348   6.001   5.173   3.759
 5781TIP3    H117349   5.967   5.170   3.670
 5781TIP3    H217350   6.094   5.151   3.749
 5782TIP3   OH217351   4.543   1.677   3.835
 5782TIP3    H117352   4.528   1.758   3.884
 5782TIP3    H217353   4.463   1.664   3.785
 5783TIP3   OH217354   3.230   0.477   2.878
 5783TIP3    H117355   3.140   0.444   2.869
 5783TIP3    H217356   3.227   0.533   2.955
 5784TIP3   OH217357   2.926   1.293   2.402
 5784TIP3    H117358   2.968   1.365   2.448
 5784TIP3    H217359   2.848   1.333   2.362
 5785TIP3   OH217360   6.166   3.271   0.208
 5785TIP3    H117361   6.117   3.252   0.288
 5785TIP3    H217362   6.232   3.334   0.235
 5786TIP3   OH217363   4.991   4.352   3.989
 5786TIP3    H117364   5.061   4.410   3.959
 5786TIP3    H217365   4.944   4.403   4.055
 5787TIP3   OH217366   2.731   0.859   0.049
 5787TIP3    H117367   2.743   0.779  -0.003
 5787TIP3    H217368   2.820   0.886   0.072
 5788TIP3   OH217369   0.941   5.504   2.124
 5788TIP3    H117370   0.958   5.581   2.177
 5788TIP3    H217371   0.939   5.536   2.034
 5789TIP3   OH217372   0.743   4.622   3.015
 5789TIP3    H117373   0.712   4.533   2.996
 5789TIP3    H217374   0.806   4.610   3.087
 5790TIP3   OH217375   5.742   1.056   4.415
 5790TIP3    H117376   5.736   1.089   4.325
 5790TIP3    H217377   5.652   1.032   4.438
 5791TIP3   OH217378   1.809   5.746   3.428
 5791TIP3    H117379   1.782   5.834   3.401
 5791TIP3    H217380   1.755   5.687   3.375
 5792TIP3   OH217381   3.611   0.123   4.905
 5792TIP3    H117382   3.650   0.179   4.839
 5792TIP3    H217383   3.599   0.039   4.861
 5793TIP3   OH217384   1.970   3.914   3.992
 5793TIP3    H117385   1.917   3.885   4.066
 5793TIP3    H217386   1.956   3.846   3.925
 5794TIP3   OH217387   4.380   0.863   3.652
 5794TIP3    H117388   4.416   0.779   3.625
 5794TIP3    H217389   4.453   0.925   3.645
 5795TIP3   OH217390   0.462   5.830   1.008
 5795TIP3    H117391   0.460   5.737   1.033
 5795TIP3    H217392   0.528   5.835   0.939
 5796TIP3   OH217393   1.727   2.989   1.016
 5796TIP3    H117394   1.765   2.966   0.931
 5796TIP3    H217395   1.800   2.983   1.078
 5797TIP3   OH217396   0.049   0.489   4.175
 5797TIP3    H117397  -0.025   0.462   4.230
 5797TIP3    H217398   0.087   0.564   4.220
 5798TIP3   OH217399   4.820   2.150   0.448
 5798TIP3    H117400   4.789   2.156   0.539
 5798TIP3    H217401   4.846   2.058   0.438
 5799TIP3   OH217402   0.628   3.273   0.316
 5799TIP3    H117403   0.581   3.246   0.237
 5799TIP3    H217404   0.643   3.367   0.305
 5800TIP3   OH217405   3.098   1.813   0.542
 5800TIP3    H117406   3.106   1.719   0.523
 5800TIP3    H217407   3.043   1.817   0.620
 5801TIP3   OH217408   0.314   5.225   3.765
 5801TIP3    H117409   0.402   5.203   3.734
 5801TIP3    H217410   0.258   5.216   3.688
 5802TIP3   OH217411   0.196   4.075   4.054
 5802TIP3    H117412   0.291   4.063   4.065
 5802TIP3    H217413   0.158   3.993   4.083
 5803TIP3   OH217414   0.877   0.992   0.352
 5803TIP3    H117415   0.842   0.903   0.356
 5803TIP3    H217416   0.852   1.023   0.265
 5804TIP3   OH217417   6.083   3.944   1.776
 5804TIP3    H117418   5.995   3.976   1.757
 5804TIP3    H217419   6.084   3.930   1.871
 5805TIP3   OH217420   1.957   2.020   4.319
 5805TIP3    H117421   2.041   1.977   4.302
 5805TIP3    H217422   1.899   1.988   4.250
 5806TIP3   OH217423   2.437   2.474   4.044
 5806TIP3    H117424   2.529   2.457   4.065
 5806TIP3    H217425   2.429   2.452   3.951
 5807TIP3   OH217426   5.168   2.441   4.082
 5807TIP3    H117427   5.209   2.378   4.142
 5807TIP3    H217428   5.213   2.427   3.999
 5808TIP3   OH217429   3.268   3.274   1.088
 5808TIP3    H117430   3.232   3.209   1.148
 5808TIP3    H217431   3.284   3.225   1.007
 5809TIP3   OH217432   5.475   4.247   2.416
 5809TIP3    H117433   5.483   4.158   2.380
 5809TIP3    H217434   5.442   4.299   2.343
 5810TIP3   OH217435   5.214   3.125   0.184
 5810TIP3    H117436   5.281   3.176   0.229
 5810TIP3    H217437   5.196   3.051   0.243
 5811TIP3   OH217438   1.957   3.020   5.022
 5811TIP3    H117439   1.947   2.929   5.047
 5811TIP3    H217440   2.027   3.054   5.078
 5812TIP3   OH217441   2.846   1.640   3.121
 5812TIP3    H117442   2.827   1.726   3.157
 5812TIP3    H217443   2.781   1.628   3.052
 5813TIP3   OH217444   2.255   4.548   3.473
 5813TIP3    H117445   2.202   4.551   3.553
 5813TIP3    H217446   2.264   4.640   3.447
 5814TIP3   OH217447   1.509   3.776   0.208
 5814TIP3    H117448   1.481   3.862   0.240
 5814TIP3    H217449   1.601   3.788   0.185
 5815TIP3   OH217450   5.354   0.511   3.945
 5815TIP3    H117451   5.334   0.480   3.857
 5815TIP3    H217452   5.389   0.599   3.932
 5816TIP3   OH217453   0.306   5.996   1.923
 5816TIP3    H117454   0.238   5.930   1.938
 5816TIP3    H217455   0.259   6.079   1.919
 5817TIP3   OH217456   2.421   0.111   1.403
 5817TIP3    H117457   2.496   0.131   1.459
 5817TIP3    H217458   2.460   0.085   1.319
 5818TIP3   OH217459   3.245  -0.024   5.041
 5818TIP3    H117460   3.260  -0.037   4.947
 5818TIP3    H217461   3.232   0.071   5.050
 5819TIP3   OH217462   5.871   3.570   0.423
 5819TIP3    H117463   5.862   3.487   0.376
 5819TIP3    H217464   5.815   3.631   0.375
 5820TIP3   OH217465   3.494   0.334   1.019
 5820TIP3    H117466   3.530   0.421   1.033
 5820TIP3    H217467   3.433   0.345   0.946
 5821TIP3   OH217468   4.781   1.190   0.784
 5821TIP3    H117469   4.863   1.158   0.748
 5821TIP3    H217470   4.807   1.254   0.850
 5822TIP3   OH217471   3.560   5.050   2.924
 5822TIP3    H117472   3.568   5.142   2.950
 5822TIP3    H217473   3.498   5.051   2.851
 5823TIP3   OH217474   0.302   1.879   3.239
 5823TIP3    H117475   0.339   1.824   3.308
 5823TIP3    H217476   0.377   1.928   3.205
 5824TIP3   OH217477   4.333   1.532   4.023
 5824TIP3    H117478   4.279   1.465   4.064
 5824TIP3    H217479   4.359   1.494   3.939
 5825TIP3   OH217480   1.584   3.499   2.849
 5825TIP3    H117481   1.629   3.548   2.919
 5825TIP3    H217482   1.547   3.422   2.893
 5826TIP3   OH217483   1.594   3.237   1.172
 5826TIP3    H117484   1.600   3.330   1.152
 5826TIP3    H217485   1.622   3.193   1.091
 5827TIP3   OH217486   5.410   2.094   3.253
 5827TIP3    H117487   5.413   1.999   3.252
 5827TIP3    H217488   5.343   2.117   3.188
 5828TIP3   OH217489   1.062   4.489   3.014
 5828TIP3    H117490   1.109   4.456   3.091
 5828TIP3    H217491   0.983   4.435   3.008
 5829TIP3   OH217492   6.289   5.387   3.494
 5829TIP3    H117493   6.217   5.328   3.474
 5829TIP3    H217494   6.315   5.422   3.409
 5830TIP3   OH217495   4.682   4.941   3.427
 5830TIP3    H117496   4.719   4.854   3.437
 5830TIP3    H217497   4.690   4.981   3.513
 5831TIP3   OH217498   0.167   5.170   0.508
 5831TIP3    H117499   0.238   5.105   0.498
 5831TIP3    H217500   0.211   5.254   0.500
 5832TIP3   OH217501   1.864   3.308   4.026
 5832TIP3    H117502   1.793   3.300   3.963
 5832TIP3    H217503   1.869   3.222   4.068
 5833TIP3   OH217504   0.098   1.335   4.390
 5833TIP3    H117505   0.084   1.344   4.484
 5833TIP3    H217506   0.193   1.331   4.380
 5834TIP3   OH217507   2.148   5.937   4.588
 5834TIP3    H117508   2.150   5.940   4.684
 5834TIP3    H217509   2.218   5.876   4.565
 5835TIP3   OH217510   1.828   4.613   4.033
 5835TIP3    H117511   1.859   4.574   3.951
 5835TIP3    H217512   1.737   4.584   4.040
 5836TIP3   OH217513   2.793   5.839   4.321
 5836TIP3    H117514   2.850   5.768   4.288
 5836TIP3    H217515   2.841   5.919   4.301
 5837TIP3   OH217516   1.325   4.720   0.044
 5837TIP3    H117517   1.297   4.649  -0.013
 5837TIP3    H217518   1.246   4.772   0.058
 5838TIP3   OH217519   5.425   5.505   3.903
 5838TIP3    H117520   5.383   5.523   3.987
 5838TIP3    H217521   5.518   5.519   3.919
 5839TIP3   OH217522   2.835   3.837   2.577
 5839TIP3    H117523   2.778   3.901   2.621
 5839TIP3    H217524   2.920   3.848   2.620
 5840TIP3   OH217525   1.242   1.158   1.054
 5840TIP3    H117526   1.149   1.177   1.061
 5840TIP3    H217527   1.253   1.076   1.103
 5841TIP3   OH217528   3.041   1.065   2.550
 5841TIP3    H117529   3.136   1.057   2.537
 5841TIP3    H217530   3.017   1.142   2.499
 5842TIP3   OH217531   4.215   3.361   5.118
 5842TIP3    H117532   4.134   3.313   5.100
 5842TIP3    H217533   4.267   3.352   5.038
 5843TIP3   OH217534   1.428   2.668   5.075
 5843TIP3    H117535   1.455   2.578   5.096
 5843TIP3    H217536   1.492   2.723   5.120
 5844TIP3   OH217537   0.459   5.689   3.294
 5844TIP3    H117538   0.411   5.681   3.211
 5844TIP3    H217539   0.447   5.604   3.336
 5845TIP3   OH217540   5.547   0.207   4.130
 5845TIP3    H117541   5.520   0.275   4.191
 5845TIP3    H217542   5.504   0.127   4.162
 5846TIP3   OH217543   2.173   5.561   0.654
 5846TIP3    H117544   2.103   5.496   0.658
 5846TIP3    H217545   2.132   5.642   0.686
 5847TIP3   OH217546   1.634   2.742   3.228
 5847TIP3    H117547   1.659   2.699   3.310
 5847TIP3    H217548   1.637   2.836   3.247
 5848TIP3   OH217549   6.177   2.674   4.376
 5848TIP3    H117550   6.096   2.665   4.426
 5848TIP3    H217551   6.231   2.734   4.428
 5849TIP3   OH217552   2.342   0.288   2.291
 5849TIP3    H117553   2.252   0.259   2.306
 5849TIP3    H217554   2.394   0.208   2.297
 5850TIP3   OH217555   5.713   4.972   3.986
 5850TIP3    H117556   5.633   4.965   3.934
 5850TIP3    H217557   5.781   4.934   3.931
 5851TIP3   OH217558   3.574   0.658   4.838
 5851TIP3    H117559   3.481   0.644   4.855
 5851TIP3    H217560   3.619   0.618   4.912
 5852TIP3   OH217561   3.952   0.419   4.127
 5852TIP3    H117562   3.864   0.421   4.089
 5852TIP3    H217563   3.960   0.332   4.167
 5853TIP3   OH217564   3.552   3.682   1.447
 5853TIP3    H117565   3.633   3.683   1.499
 5853TIP3    H217566   3.553   3.597   1.404
 5854TIP3   OH217567   5.175   0.039   0.892
 5854TIP3    H117568   5.175   0.098   0.966
 5854TIP3    H217569   5.149  -0.046   0.928
 5855TIP3   OH217570   6.271   1.670   2.694
 5855TIP3    H117571   6.206   1.661   2.763
 5855TIP3    H217572   6.227   1.640   2.614
 5856TIP3   OH217573   5.932   4.867   2.120
 5856TIP3    H117574   5.902   4.795   2.176
 5856TIP3    H217575   5.934   4.943   2.178
 5857TIP3   OH217576   3.184   5.354   5.117
 5857TIP3    H117577   3.103   5.308   5.097
 5857TIP3    H217578   3.200   5.410   5.041
 5858TIP3   OH217579   3.572   3.742   0.211
 5858TIP3    H117580   3.594   3.734   0.118
 5858TIP3    H217581   3.651   3.713   0.256
 5859TIP3   OH217582   3.712   3.810   1.192
 5859TIP3    H117583   3.727   3.779   1.102
 5859TIP3    H217584   3.761   3.749   1.247
 5860TIP3   OH217585   6.334   1.900   1.612
 5860TIP3    H117586   6.346   1.809   1.636
 5860TIP3    H217587   6.351   1.949   1.692
 5861TIP3   OH217588   3.754   3.783   2.484
 5861TIP3    H117589   3.727   3.772   2.393
 5861TIP3    H217590   3.678   3.823   2.527
 5862TIP3   OH217591   3.004   1.545   1.710
 5862TIP3    H117592   2.938   1.541   1.779
 5862TIP3    H217593   3.016   1.454   1.683
 5863TIP3   OH217594   6.239   1.611   2.327
 5863TIP3    H117595   6.255   1.561   2.247
 5863TIP3    H217596   6.327   1.635   2.357
 5864TIP3   OH217597   2.819   3.491   0.808
 5864TIP3    H117598   2.839   3.463   0.719
 5864TIP3    H217599   2.875   3.567   0.822
 5865TIP3   OH217600   1.469   0.059   3.977
 5865TIP3    H117601   1.423   0.101   4.049
 5865TIP3    H217602   1.555   0.102   3.975
 5866TIP3   OH217603   2.462   3.850   4.536
 5866TIP3    H117604   2.508   3.859   4.619
 5866TIP3    H217605   2.376   3.891   4.550
 5867TIP3   OH217606   4.058   2.562   1.360
 5867TIP3    H117607   3.969   2.529   1.357
 5867TIP3    H217608   4.052   2.644   1.408
 5868TIP3   OH217609   3.447   3.441   5.136
 5868TIP3    H117610   3.455   3.411   5.227
 5868TIP3    H217611   3.472   3.534   5.140
 5869TIP3   OH217612   2.168   4.077   0.125
 5869TIP3    H117613   2.083   4.095   0.166
 5869TIP3    H217614   2.188   3.987   0.150
 5870TIP3   OH217615   0.337   1.969   0.785
 5870TIP3    H117616   0.276   1.906   0.748
 5870TIP3    H217617   0.346   2.036   0.717
 5871TIP3   OH217618   4.164   4.326   2.930
 5871TIP3    H117619   4.228   4.259   2.955
 5871TIP3    H217620   4.192   4.405   2.977
 5872TIP3   OH217621   6.120   1.152   0.043
 5872TIP3    H117622   6.195   1.108   0.083
 5872TIP3    H217623   6.063   1.173   0.117
 5873TIP3   OH217624   4.590   4.382   4.392
 5873TIP3    H117625   4.574   4.294   4.426
 5873TIP3    H217626   4.651   4.421   4.455
 5874TIP3   OH217627   2.445   1.303   4.306
 5874TIP3    H117628   2.452   1.230   4.244
 5874TIP3    H217629   2.423   1.261   4.390
 5875TIP3   OH217630   2.570   4.797   0.560
 5875TIP3    H117631   2.488   4.844   0.546
 5875TIP3    H217632   2.561   4.757   0.647
 5876TIP3   OH217633   5.256   3.546   5.161
 5876TIP3    H117634   5.269   3.571   5.070
 5876TIP3    H217635   5.334   3.496   5.185
 5877TIP3   OH217636   4.716   3.069   1.162
 5877TIP3    H117637   4.686   3.077   1.253
 5877TIP3    H217638   4.637   3.043   1.113
 5878TIP3   OH217639   3.446   1.790   4.038
 5878TIP3    H117640   3.357   1.801   4.070
 5878TIP3    H217641   3.477   1.710   4.080
 5879TIP3   OH217642   2.729   3.212   1.481
 5879TIP3    H117643   2.673   3.280   1.443
 5879TIP3    H217644   2.818   3.239   1.459
 5880TIP3   OH217645   3.164   1.095   2.239
 5880TIP3    H117646   3.230   1.061   2.301
 5880TIP3    H217647   3.094   1.129   2.295
 5881TIP3   OH217648   2.101   5.355   1.170
 5881TIP3    H117649   2.007   5.344   1.159
 5881TIP3    H217650   2.139   5.272   1.143
 5882TIP3   OH217651   4.781   1.826   4.108
 5882TIP3    H117652   4.843   1.890   4.143
 5882TIP3    H217653   4.709   1.878   4.073
 5883TIP3   OH217654   2.143   3.311   1.771
 5883TIP3    H117655   2.121   3.361   1.849
 5883TIP3    H217656   2.237   3.294   1.779
 5884TIP3   OH217657   2.390   3.758   1.982
 5884TIP3    H117658   2.322   3.707   2.026
 5884TIP3    H217659   2.454   3.777   2.051
 5885TIP3   OH217660   0.623   2.124   4.954
 5885TIP3    H117661   0.649   2.033   4.940
 5885TIP3    H217662   0.693   2.161   5.008
 5886TIP3   OH217663   5.268   1.181   1.913
 5886TIP3    H117664   5.191   1.224   1.948
 5886TIP3    H217665   5.240   1.146   1.828
 5887TIP3   OH217666   3.267   1.183   2.767
 5887TIP3    H117667   3.186   1.226   2.794
 5887TIP3    H217668   3.287   1.221   2.682
 5888TIP3   OH217669   0.635   3.080   1.016
 5888TIP3    H117670   0.553   3.032   1.029
 5888TIP3    H217671   0.701   3.011   1.003
 5889TIP3   OH217672   6.153   5.352   1.775
 5889TIP3    H117673   6.225   5.388   1.723
 5889TIP3    H217674   6.135   5.420   1.841
 5890TIP3   OH217675   0.582   0.475   3.304
 5890TIP3    H117676   0.501   0.445   3.347
 5890TIP3    H217677   0.630   0.521   3.373
 5891TIP3   OH217678   1.480   5.372   0.554
 5891TIP3    H117679   1.564   5.363   0.509
 5891TIP3    H217680   1.444   5.455   0.522
 5892TIP3   OH217681   1.577   0.233   0.625
 5892TIP3    H117682   1.541   0.154   0.664
 5892TIP3    H217683   1.670   0.213   0.611
 5893TIP3   OH217684   2.623   4.483   1.820
 5893TIP3    H117685   2.582   4.460   1.904
 5893TIP3    H217686   2.681   4.556   1.841
 5894TIP3   OH217687   4.342   5.304   5.079
 5894TIP3    H117688   4.343   5.320   5.173
 5894TIP3    H217689   4.414   5.358   5.045
 5895TIP3   OH217690   2.859   5.265   4.736
 5895TIP3    H117691   2.927   5.208   4.702
 5895TIP3    H217692   2.777   5.227   4.703
 5896TIP3   OH217693   1.710   1.414   0.316
 5896TIP3    H117694   1.697   1.319   0.316
 5896TIP3    H217695   1.628   1.449   0.351
 5897TIP3   OH217696   3.418   3.984   0.257
 5897TIP3    H117697   3.328   3.967   0.285
 5897TIP3    H217698   3.455   3.897   0.241
 5898TIP3   OH217699   4.793   3.236   2.423
 5898TIP3    H117700   4.858   3.298   2.390
 5898TIP3    H217701   4.790   3.167   2.356
 5899TIP3   OH217702   0.405   0.700   1.633
 5899TIP3    H117703   0.448   0.655   1.560
 5899TIP3    H217704   0.312   0.699   1.609
 5900TIP3   OH217705   3.219   1.884   1.951
 5900TIP3    H117706   3.238   1.841   2.035
 5900TIP3    H217707   3.171   1.964   1.976
 5901TIP3   OH217708   5.462   1.247   3.118
 5901TIP3    H117709   5.529   1.178   3.127
 5901TIP3    H217710   5.442   1.250   3.025
 5902TIP3   OH217711   2.793   1.662   2.454
 5902TIP3    H117712   2.827   1.739   2.409
 5902TIP3    H217713   2.803   1.591   2.391
 5903TIP3   OH217714   0.167   3.519   3.822
 5903TIP3    H117715   0.240   3.541   3.880
 5903TIP3    H217716   0.188   3.563   3.739
 5904TIP3   OH217717   5.716   2.589   4.851
 5904TIP3    H117718   5.631   2.635   4.846
 5904TIP3    H217719   5.694   2.502   4.884
 5905TIP3   OH217720   6.289   4.738   3.313
 5905TIP3    H117721   6.254   4.662   3.267
 5905TIP3    H217722   6.220   4.804   3.308
 5906TIP3   OH217723   1.251   3.643   0.517
 5906TIP3    H117724   1.222   3.732   0.539
 5906TIP3    H217725   1.273   3.647   0.424
 5907TIP3   OH217726   1.182   3.179   0.126
 5907TIP3    H117727   1.177   3.238   0.201
 5907TIP3    H217728   1.226   3.230   0.058
 5908TIP3   OH217729   3.221   0.881   0.504
 5908TIP3    H117730   3.227   0.956   0.444
 5908TIP3    H217731   3.200   0.920   0.588
 5909TIP3   OH217732   3.018   4.676   1.349
 5909TIP3    H117733   3.000   4.715   1.435
 5909TIP3    H217734   2.937   4.689   1.299
 5910TIP3   OH217735   6.112   1.665   2.927
 5910TIP3    H117736   6.102   1.581   2.972
 5910TIP3    H217737   6.188   1.706   2.968
 5911TIP3   OH217738   4.026   2.180   4.780
 5911TIP3    H117739   3.966   2.218   4.716
 5911TIP3    H217740   4.111   2.217   4.758
 5912TIP3   OH217741   1.272   4.419   1.250
 5912TIP3    H117742   1.265   4.353   1.181
 5912TIP3    H217743   1.365   4.445   1.248
 5913TIP3   OH217744   5.865   5.263   4.370
 5913TIP3    H117745   5.937   5.286   4.429
 5913TIP3    H217746   5.896   5.289   4.284
 5914TIP3   OH217747   0.039   3.356   4.191
 5914TIP3    H117748   0.119   3.333   4.144
 5914TIP3    H217749   0.010   3.438   4.151
 5915TIP3   OH217750   2.530   4.676   0.805
 5915TIP3    H117751   2.493   4.588   0.808
 5915TIP3    H217752   2.584   4.682   0.883
 5916TIP3   OH217753   0.111   5.257   0.834
 5916TIP3    H117754   0.133   5.222   0.920
 5916TIP3    H217755   0.095   5.180   0.780
 5917TIP3   OH217756   0.193   5.733   2.835
 5917TIP3    H117757   0.284   5.756   2.820
 5917TIP3    H217758   0.144   5.785   2.771
 5918TIP3   OH217759   1.662   3.748   4.828
 5918TIP3    H117760   1.733   3.690   4.856
 5918TIP3    H217761   1.688   3.834   4.860
 5919TIP3   OH217762   3.404   3.373   3.639
 5919TIP3    H117763   3.419   3.412   3.553
 5919TIP3    H217764   3.391   3.448   3.698
 5920TIP3   OH217765   1.366   4.749   4.157
 5920TIP3    H117766   1.275   4.748   4.187
 5920TIP3    H217767   1.402   4.830   4.192
 5921TIP3   OH217768   6.348   3.989   2.733
 5921TIP3    H117769   6.418   3.939   2.690
 5921TIP3    H217770   6.267   3.947   2.703
 5922TIP3   OH217771   3.495   1.954   4.644
 5922TIP3    H117772   3.580   1.909   4.644
 5922TIP3    H217773   3.432   1.886   4.669
 5923TIP3   OH217774   4.164   0.187   4.460
 5923TIP3    H117775   4.170   0.272   4.504
 5923TIP3    H217776   4.186   0.124   4.528
 5924TIP3   OH217777   2.105   2.024   3.265
 5924TIP3    H117778   2.024   2.056   3.304
 5924TIP3    H217779   2.144   2.101   3.223
 5925TIP3   OH217780   5.828   2.174   1.607
 5925TIP3    H117781   5.759   2.125   1.651
 5925TIP3    H217782   5.899   2.178   1.671
 5926TIP3   OH217783   5.475   2.953   1.066
 5926TIP3    H117784   5.461   2.990   1.153
 5926TIP3    H217785   5.566   2.923   1.067
 5927TIP3   OH217786   3.590   1.199   4.316
 5927TIP3    H117787   3.585   1.238   4.229
 5927TIP3    H217788   3.580   1.273   4.376
 5928TIP3   OH217789   0.038   0.616   2.777
 5928TIP3    H117790   0.064   0.677   2.845
 5928TIP3    H217791   0.052   0.529   2.815
 5929TIP3   OH217792   3.098   2.519   4.141
 5929TIP3    H117793   3.053   2.603   4.148
 5929TIP3    H217794   3.191   2.541   4.141
 5930TIP3   OH217795   3.559   0.267   1.301
 5930TIP3    H117796   3.601   0.351   1.315
 5930TIP3    H217797   3.550   0.259   1.206
 5931TIP3   OH217798   4.105   4.950   4.702
 5931TIP3    H117799   4.187   4.986   4.668
 5931TIP3    H217800   4.039   4.972   4.636
 5932TIP3   OH217801   0.684   0.907   4.232
 5932TIP3    H117802   0.611   0.910   4.169
 5932TIP3    H217803   0.642   0.918   4.317
 5933TIP3   OH217804   2.696   2.436   4.146
 5933TIP3    H117805   2.782   2.444   4.105
 5933TIP3    H217806   2.707   2.478   4.232
 5934TIP3   OH217807   4.903   4.244   3.749
 5934TIP3    H117808   4.916   4.296   3.829
 5934TIP3    H217809   4.823   4.278   3.711
 5935TIP3   OH217810   2.018   0.120   3.341
 5935TIP3    H117811   2.073   0.138   3.417
 5935TIP3    H217812   2.025   0.199   3.287
 5936TIP3   OH217813   3.701   3.132   2.074
 5936TIP3    H117814   3.618   3.118   2.028
 5936TIP3    H217815   3.695   3.076   2.152
 5937TIP3   OH217816   3.950   5.108   3.412
 5937TIP3    H117817   3.861   5.136   3.437
 5937TIP3    H217818   3.968   5.156   3.331
 5938TIP3   OH217819   2.266   5.085   3.971
 5938TIP3    H117820   2.242   5.010   4.026
 5938TIP3    H217821   2.185   5.107   3.924
 5939TIP3   OH217822   5.856   2.843   3.196
 5939TIP3    H117823   5.882   2.931   3.170
 5939TIP3    H217824   5.824   2.802   3.115
 5940TIP3   OH217825   5.435   4.587   3.945
 5940TIP3    H117826   5.448   4.609   3.853
 5940TIP3    H217827   5.460   4.495   3.951
 5941TIP3   OH217828   1.439   4.607   1.972
 5941TIP3    H117829   1.368   4.561   2.017
 5941TIP3    H217830   1.517   4.555   1.991
 5942TIP3   OH217831   2.446   5.128   2.199
 5942TIP3    H117832   2.447   5.187   2.274
 5942TIP3    H217833   2.516   5.160   2.142
 5943TIP3   OH217834   1.009   1.015   3.321
 5943TIP3    H117835   1.076   0.980   3.263
 5943TIP3    H217836   0.939   1.046   3.263
 5944TIP3   OH217837   3.349   3.872   1.417
 5944TIP3    H117838   3.416   3.803   1.414
 5944TIP3    H217839   3.289   3.843   1.485
 5945TIP3   OH217840   2.804   2.691   2.580
 5945TIP3    H117841   2.767   2.723   2.497
 5945TIP3    H217842   2.799   2.766   2.639
 5946TIP3   OH217843   6.080   0.882   0.985
 5946TIP3    H117844   6.043   0.956   0.937
 5946TIP3    H217845   6.126   0.831   0.918
 5947TIP3   OH217846   3.143   2.043   3.008
 5947TIP3    H117847   3.221   2.065   3.059
 5947TIP3    H217848   3.126   1.951   3.028
 5948TIP3   OH217849   5.809   4.056   4.721
 5948TIP3    H117850   5.781   4.020   4.637
 5948TIP3    H217851   5.765   4.002   4.786
 5949TIP3   OH217852   2.991   0.072   0.967
 5949TIP3    H117853   3.016   0.001   1.026
 5949TIP3    H217854   3.068   0.129   0.963
 5950TIP3   OH217855   5.470   5.380   2.748
 5950TIP3    H117856   5.540   5.335   2.796
 5950TIP3    H217857   5.501   5.471   2.742
 5951TIP3   OH217858   1.636   3.145   1.740
 5951TIP3    H117859   1.613   3.083   1.670
 5951TIP3    H217860   1.663   3.225   1.693
 5952TIP3   OH217861   2.136   1.566   3.240
 5952TIP3    H117862   2.204   1.600   3.297
 5952TIP3    H217863   2.057   1.565   3.294
 5953TIP3   OH217864   0.250   4.330   3.598
 5953TIP3    H117865   0.184   4.399   3.608
 5953TIP3    H217866   0.333   4.377   3.587
 5954TIP3   OH217867   4.489   1.595   4.750
 5954TIP3    H117868   4.541   1.629   4.677
 5954TIP3    H217869   4.496   1.500   4.742
 5955TIP3   OH217870   1.669   3.894   3.721
 5955TIP3    H117871   1.640   3.907   3.811
 5955TIP3    H217872   1.600   3.933   3.667
 5956TIP3   OH217873   4.804   0.384   1.503
 5956TIP3    H117874   4.729   0.443   1.493
 5956TIP3    H217875   4.869   0.436   1.550
 5957TIP3   OH217876   2.954   0.528   0.168
 5957TIP3    H117877   3.011   0.547   0.093
 5957TIP3    H217878   2.999   0.567   0.243
 5958TIP3   OH217879   5.343   0.938   4.813
 5958TIP3    H117880   5.321   0.846   4.828
 5958TIP3    H217881   5.263   0.985   4.835
 5959TIP3   OH217882   3.305   0.652   3.657
 5959TIP3    H117883   3.328   0.630   3.566
 5959TIP3    H217884   3.313   0.569   3.704
 5960TIP3   OH217885   2.527   2.907   4.525
 5960TIP3    H117886   2.607   2.883   4.479
 5960TIP3    H217887   2.517   2.841   4.594
 5961TIP3   OH217888   5.912   0.752   3.377
 5961TIP3    H117889   5.964   0.700   3.438
 5961TIP3    H217890   5.973   0.775   3.307
 5962TIP3   OH217891   1.369   5.126   3.547
 5962TIP3    H117892   1.454   5.145   3.587
 5962TIP3    H217893   1.306   5.177   3.598
 5963TIP3   OH217894   1.652   5.651   2.314
 5963TIP3    H117895   1.607   5.728   2.348
 5963TIP3    H217896   1.661   5.668   2.220
 5964TIP3   OH217897   3.937   5.738   1.574
 5964TIP3    H117898   3.943   5.644   1.591
 5964TIP3    H217899   3.905   5.743   1.483
 5965TIP3   OH217900   2.646   5.253   0.670
 5965TIP3    H117901   2.701   5.174   0.666
 5965TIP3    H217902   2.596   5.243   0.751
 5966TIP3   OH217903   3.880   1.038   1.776
 5966TIP3    H117904   3.962   1.069   1.814
 5966TIP3    H217905   3.898   1.032   1.682
 5967TIP3   OH217906   5.585   2.055   1.684
 5967TIP3    H117907   5.546   1.982   1.637
 5967TIP3    H217908   5.548   2.052   1.772
 5968TIP3   OH217909   3.807   2.579   3.103
 5968TIP3    H117910   3.786   2.485   3.101
 5968TIP3    H217911   3.745   2.616   3.166
 5969TIP3   OH217912   5.080   4.790   3.944
 5969TIP3    H117913   5.043   4.878   3.938
 5969TIP3    H217914   5.063   4.763   4.034
 5970TIP3   OH217915   2.215   3.719   0.708
 5970TIP3    H117916   2.270   3.797   0.712
 5970TIP3    H217917   2.173   3.714   0.794
 5971TIP3   OH217918   5.675   1.161   4.162
 5971TIP3    H117919   5.652   1.237   4.108
 5971TIP3    H217920   5.649   1.086   4.108
 5972TIP3   OH217921   4.532   4.417   4.128
 5972TIP3    H117922   4.487   4.499   4.146
 5972TIP3    H217923   4.560   4.386   4.214
 5973TIP3   OH217924   4.217   1.672   0.089
 5973TIP3    H117925   4.148   1.674   0.023
 5973TIP3    H217926   4.252   1.761   0.090
 5974TIP3   OH217927   1.065   5.847   4.309
 5974TIP3    H117928   1.077   5.802   4.225
 5974TIP3    H217929   1.086   5.781   4.375
 5975TIP3   OH217930   1.222   4.026   2.237
 5975TIP3    H117931   1.232   3.931   2.232
 5975TIP3    H217932   1.156   4.047   2.172
 5976TIP3   OH217933   5.114   0.074   2.348
 5976TIP3    H117934   5.144   0.165   2.353
 5976TIP3    H217935   5.192   0.022   2.367
 5977TIP3   OH217936   4.169   3.164   4.805
 5977TIP3    H117937   4.128   3.225   4.866
 5977TIP3    H217938   4.104   3.094   4.794
 5978TIP3   OH217939   4.403   1.735   4.970
 5978TIP3    H117940   4.327   1.691   5.009
 5978TIP3    H217941   4.443   1.669   4.914
 5979TIP3   OH217942   4.533   0.709   4.817
 5979TIP3    H117943   4.474   0.643   4.782
 5979TIP3    H217944   4.476   0.777   4.852
 5980TIP3   OH217945   3.842   0.610   4.698
 5980TIP3    H117946   3.875   0.661   4.772
 5980TIP3    H217947   3.758   0.575   4.728
 5981TIP3   OH217948   2.782   4.323   0.991
 5981TIP3    H117949   2.858   4.372   1.023
 5981TIP3    H217950   2.752   4.373   0.914
 5982TIP3   OH217951   0.099   2.161   4.564
 5982TIP3    H117952   0.080   2.110   4.485
 5982TIP3    H217953   0.104   2.097   4.634
 5983TIP3   OH217954   2.439   1.162   4.854
 5983TIP3    H117955   2.394   1.246   4.868
 5983TIP3    H217956   2.532   1.184   4.858
 5984TIP3   OH217957   2.241   5.477   1.946
 5984TIP3    H117958   2.261   5.489   2.039
 5984TIP3    H217959   2.322   5.498   1.900
 5985TIP3   OH217960   0.796   1.021   2.191
 5985TIP3    H117961   0.799   1.071   2.273
 5985TIP3    H217962   0.842   0.939   2.211
 5986TIP3   OH217963   2.950   0.949   0.188
 5986TIP3    H117964   2.963   1.005   0.264
 5986TIP3    H217965   3.009   0.875   0.203
 5987TIP3   OH217966   5.973   5.523   4.814
 5987TIP3    H117967   6.052   5.490   4.856
 5987TIP3    H217968   5.904   5.462   4.842
 5988TIP3   OH217969   4.461   3.000   0.972
 5988TIP3    H117970   4.462   2.924   1.030
 5988TIP3    H217971   4.386   2.986   0.914
 5989TIP3   OH217972   2.183   3.745   4.522
 5989TIP3    H117973   2.232   3.669   4.554
 5989TIP3    H217974   2.095   3.734   4.559
 5990TIP3   OH217975   5.128   3.093   2.714
 5990TIP3    H117976   5.131   3.145   2.794
 5990TIP3    H217977   5.203   3.123   2.662
 5991TIP3   OH217978   0.536   5.584   2.833
 5991TIP3    H117979   0.516   5.675   2.814
 5991TIP3    H217980   0.556   5.545   2.748
 5992TIP3   OH217981   1.951   3.838   2.710
 5992TIP3    H117982   1.855   3.843   2.710
 5992TIP3    H217983   1.971   3.772   2.776
 5993TIP3   OH217984   5.000   3.280   4.680
 5993TIP3    H117985   4.966   3.361   4.641
 5993TIP3    H217986   5.067   3.251   4.618
 5994TIP3   OH217987   2.701   5.841   2.289
 5994TIP3    H117988   2.606   5.836   2.279
 5994TIP3    H217989   2.717   5.925   2.330
 5995TIP3   OH217990   0.112   0.211   3.618
 5995TIP3    H117991   0.174   0.167   3.560
 5995TIP3    H217992   0.092   0.293   3.574
 5996TIP3   OH217993   3.193   3.379   2.880
 5996TIP3    H117994   3.214   3.472   2.882
 5996TIP3    H217995   3.099   3.375   2.898
 5997TIP3   OH217996   4.812   1.676   3.287
 5997TIP3    H117997   4.736   1.720   3.249
 5997TIP3    H217998   4.776   1.597   3.327
 5998TIP3   OH217999   4.839   4.722   3.444
 5998TIP3    H118000   4.892   4.792   3.405
 5998TIP3    H218001   4.874   4.642   3.406
 5999TIP3   OH218002   1.377   4.510   2.423
 5999TIP3    H118003   1.380   4.597   2.464
 5999TIP3    H218004   1.291   4.506   2.381
 6000TIP3   OH218005   4.407   5.116   2.301
 6000TIP3    H118006   4.489   5.067   2.295
 6000TIP3    H218007   4.377   5.101   2.391
 6001TIP3   OH218008   5.349   2.485   1.877
 6001TIP3    H118009   5.356   2.496   1.971
 6001TIP3    H218010   5.439   2.472   1.847
 6002TIP3   OH218011   2.090   2.236   1.170
 6002TIP3    H118012   2.133   2.270   1.091
 6002TIP3    H218013   2.012   2.190   1.136
 6003TIP3   OH218014   2.433   5.057   3.094
 6003TIP3    H118015   2.375   4.995   3.138
 6003TIP3    H218016   2.520   5.038   3.128
 6004TIP3   OH218017   4.477   5.205   4.777
 6004TIP3    H118018   4.486   5.298   4.797
 6004TIP3    H218019   4.565   5.177   4.753
 6005TIP3   OH218020   0.467   3.649   1.043
 6005TIP3    H118021   0.405   3.722   1.039
 6005TIP3    H218022   0.443   3.593   0.969
 6006TIP3   OH218023   6.001   1.210   1.574
 6006TIP3    H118024   6.008   1.125   1.619
 6006TIP3    H218025   6.088   1.226   1.539
 6007TIP3   OH218026   3.913   0.092   1.007
 6007TIP3    H118027   3.821   0.101   1.035
 6007TIP3    H218028   3.933   0.000   1.024
 6008TIP3   OH218029   5.481   5.110   1.080
 6008TIP3    H118030   5.573   5.106   1.054
 6008TIP3    H218031   5.482   5.160   1.162
 6009TIP3   OH218032   2.837   0.373   3.741
 6009TIP3    H118033   2.867   0.300   3.687
 6009TIP3    H218034   2.918   0.413   3.774
 6010TIP3   OH218035   2.899   2.079   0.284
 6010TIP3    H118036   2.971   2.018   0.266
 6010TIP3    H218037   2.865   2.051   0.369
 6011TIP3   OH218038   3.537   4.469   3.634
 6011TIP3    H118039   3.630   4.483   3.615
 6011TIP3    H218040   3.533   4.461   3.729
 6012TIP3   OH218041   5.812   2.646   1.329
 6012TIP3    H118042   5.863   2.583   1.279
 6012TIP3    H218043   5.797   2.603   1.414
 6013TIP3   OH218044   2.205   5.036   2.314
 6013TIP3    H118045   2.238   5.018   2.402
 6013TIP3    H218046   2.271   5.094   2.275
 6014TIP3   OH218047   3.106   3.078   1.595
 6014TIP3    H118048   3.072   3.166   1.580
 6014TIP3    H218049   3.034   3.020   1.569
 6015TIP3   OH218050   4.797   3.422   3.510
 6015TIP3    H118051   4.846   3.348   3.545
 6015TIP3    H218052   4.789   3.402   3.416
 6016TIP3   OH218053   2.001   5.543   4.187
 6016TIP3    H118054   2.044   5.628   4.196
 6016TIP3    H218055   2.073   5.481   4.171
 6017TIP3   OH218056   3.756   5.062   3.176
 6017TIP3    H118057   3.688   4.997   3.157
 6017TIP3    H218058   3.724   5.142   3.135
 6018TIP3   OH218059   5.582   5.347   4.162
 6018TIP3    H118060   5.597   5.424   4.108
 6018TIP3    H218061   5.599   5.272   4.104
 6019TIP3   OH218062   1.824   2.326   3.291
 6019TIP3    H118063   1.800   2.250   3.237
 6019TIP3    H218064   1.746   2.343   3.344
 6020TIP3   OH218065   5.193   5.550   2.267
 6020TIP3    H118066   5.245   5.581   2.193
 6020TIP3    H218067   5.234   5.466   2.291
 6021TIP3   OH218068   2.682   4.973   4.716
 6021TIP3    H118069   2.634   4.895   4.688
 6021TIP3    H218070   2.773   4.944   4.721
 6022TIP3   OH218071   1.165   0.923   4.486
 6022TIP3    H118072   1.201   0.987   4.547
 6022TIP3    H218073   1.182   0.838   4.527
 6023TIP3   OH218074   4.976   3.152   3.630
 6023TIP3    H118075   4.943   3.088   3.567
 6023TIP3    H218076   5.066   3.169   3.603
 6024TIP3   OH218077   3.041   4.314   4.804
 6024TIP3    H118078   3.009   4.386   4.749
 6024TIP3    H218079   2.968   4.252   4.806
 6025TIP3   OH218080   4.095   2.815   0.657
 6025TIP3    H118081   4.099   2.726   0.692
 6025TIP3    H218082   4.157   2.864   0.711
 6026TIP3   OH218083   4.088   5.174   3.161
 6026TIP3    H118084   4.182   5.167   3.178
 6026TIP3    H218085   4.058   5.084   3.157
 6027TIP3   OH218086   4.270   3.482   2.049
 6027TIP3    H118087   4.185   3.470   2.093
 6027TIP3    H218088   4.312   3.552   2.098
 6028TIP3   OH218089   1.502   1.935   4.477
 6028TIP3    H118090   1.518   1.963   4.568
 6028TIP3    H218091   1.533   1.844   4.475
 6029TIP3   OH218092   5.433   4.769   2.186
 6029TIP3    H118093   5.346   4.776   2.147
 6029TIP3    H218094   5.479   4.848   2.156
 6030TIP3   OH218095   6.071   3.704   0.109
 6030TIP3    H118096   6.167   3.698   0.105
 6030TIP3    H218097   6.053   3.798   0.102
 6031TIP3   OH218098   4.157   2.568   0.781
 6031TIP3    H118099   4.120   2.503   0.722
 6031TIP3    H218100   4.166   2.522   0.864
 6032TIP3   OH218101   3.174   3.738   1.580
 6032TIP3    H118102   3.096   3.792   1.566
 6032TIP3    H218103   3.197   3.752   1.672
 6033TIP3   OH218104   3.778   0.471   4.957
 6033TIP3    H118105   3.769   0.453   5.050
 6033TIP3    H218106   3.832   0.549   4.952
 6034TIP3   OH218107   0.121   1.289   3.563
 6034TIP3    H118108   0.127   1.197   3.538
 6034TIP3    H218109   0.079   1.332   3.489
 6035TIP3   OH218110   5.724   4.687   1.900
 6035TIP3    H118111   5.764   4.761   1.945
 6035TIP3    H218112   5.688   4.633   1.971
 6036TIP3   OH218113   4.981   0.226   4.823
 6036TIP3    H118114   4.984   0.252   4.731
 6036TIP3    H218115   5.008   0.305   4.870
 6037TIP3   OH218116   0.397   5.274   3.197
 6037TIP3    H118117   0.437   5.189   3.179
 6037TIP3    H218118   0.467   5.338   3.183
 6038TIP3   OH218119   3.975   4.212   2.046
 6038TIP3    H118120   3.948   4.303   2.041
 6038TIP3    H218121   4.028   4.198   1.967
 6039TIP3   OH218122   3.260   1.093   0.259
 6039TIP3    H118123   3.335   1.149   0.281
 6039TIP3    H218124   3.240   1.115   0.168
 6040TIP3   OH218125   3.547   3.100   1.750
 6040TIP3    H118126   3.512   3.011   1.758
 6040TIP3    H218127   3.484   3.155   1.797
 6041TIP3   OH218128   5.260   2.343   2.301
 6041TIP3    H118129   5.202   2.345   2.377
 6041TIP3    H218130   5.219   2.278   2.242
 6042TIP3   OH218131   4.374   0.231   4.302
 6042TIP3    H118132   4.300   0.268   4.350
 6042TIP3    H218133   4.409   0.164   4.361
 6043TIP3   OH218134   1.890   3.533   4.335
 6043TIP3    H118135   1.890   3.611   4.279
 6043TIP3    H218136   1.828   3.554   4.405
 6044TIP3   OH218137   4.722   2.759   4.218
 6044TIP3    H118138   4.685   2.695   4.279
 6044TIP3    H218139   4.784   2.709   4.165
 6045TIP3   OH218140   5.323   0.052   1.913
 6045TIP3    H118141   5.234   0.026   1.937
 6045TIP3    H218142   5.334   0.139   1.951
 6046TIP3   OH218143   2.005   3.843   1.988
 6046TIP3    H118144   2.045   3.887   1.913
 6046TIP3    H218145   1.919   3.883   1.997
 6047TIP3   OH218146   0.232   1.173   2.330
 6047TIP3    H118147   0.296   1.215   2.386
 6047TIP3    H218148   0.242   1.079   2.348
 6048TIP3   OH218149   1.965   3.346   5.222
 6048TIP3    H118150   2.038   3.286   5.208
 6048TIP3    H218151   1.895   3.313   5.165
 6049TIP3   OH218152   4.721   2.244   1.147
 6049TIP3    H118153   4.736   2.151   1.162
 6049TIP3    H218154   4.680   2.248   1.060
 6050TIP3   OH218155   3.428   3.280   2.218
 6050TIP3    H118156   3.464   3.210   2.163
 6050TIP3    H218157   3.502   3.309   2.271
 6051TIP3   OH218158   6.091   0.095   4.168
 6051TIP3    H118159   6.125   0.010   4.142
 6051TIP3    H218160   6.009   0.104   4.119
 6052TIP3   OH218161   4.928   5.025   3.897
 6052TIP3    H118162   4.946   5.092   3.831
 6052TIP3    H218163   4.835   5.036   3.917
 6053TIP3   OH218164   5.363   1.096   1.494
 6053TIP3    H118165   5.382   1.086   1.587
 6053TIP3    H218166   5.445   1.127   1.456
 6054TIP3   OH218167   4.014   4.209   0.880
 6054TIP3    H118168   4.033   4.250   0.964
 6054TIP3    H218169   3.966   4.129   0.902
 6055TIP3   OH218170   6.282   0.778   4.352
 6055TIP3    H118171   6.209   0.834   4.326
 6055TIP3    H218172   6.288   0.788   4.447
 6056TIP3   OH218173   2.466   2.796   3.705
 6056TIP3    H118174   2.507   2.859   3.763
 6056TIP3    H218175   2.372   2.802   3.726
 6057TIP3   OH218176   3.662   3.910   4.969
 6057TIP3    H118177   3.724   3.967   5.014
 6057TIP3    H218178   3.640   3.842   5.034
 6058TIP3   OH218179   5.162   4.992   1.291
 6058TIP3    H118180   5.100   5.063   1.308
 6058TIP3    H218181   5.157   4.978   1.196
 6059TIP3   OH218182   3.724   5.351   1.082
 6059TIP3    H118183   3.752   5.260   1.096
 6059TIP3    H218184   3.742   5.394   1.165
 6060TIP3   OH218185   1.819   2.971   1.486
 6060TIP3    H118186   1.781   2.935   1.566
 6060TIP3    H218187   1.886   3.032   1.517
 6061TIP3   OH218188   4.549   5.453   3.350
 6061TIP3    H118189   4.556   5.364   3.317
 6061TIP3    H218190   4.465   5.485   3.315
 6062TIP3   OH218191   1.641   4.643   1.333
 6062TIP3    H118192   1.601   4.556   1.330
 6062TIP3    H218193   1.616   4.684   1.250
 6063TIP3   OH218194   4.140   0.509   4.973
 6063TIP3    H118195   4.085   0.456   5.031
 6063TIP3    H218196   4.193   0.444   4.926
 6064TIP3   OH218197   2.450   4.383   3.575
 6064TIP3    H118198   2.375   4.440   3.556
 6064TIP3    H218199   2.415   4.294   3.569
 6065TIP3   OH218200   4.551   3.242   1.717
 6065TIP3    H118201   4.557   3.308   1.787
 6065TIP3    H218202   4.555   3.158   1.763
 6066TIP3   OH218203   5.359   5.111   0.382
 6066TIP3    H118204   5.304   5.126   0.305
 6066TIP3    H218205   5.363   5.195   0.426
 6067TIP3   OH218206   6.358   2.669   3.366
 6067TIP3    H118207   6.314   2.754   3.355
 6067TIP3    H218208   6.408   2.678   3.447
 6068TIP3   OH218209   1.160   4.741   3.074
 6068TIP3    H118210   1.123   4.654   3.054
 6068TIP3    H218211   1.254   4.728   3.073
 6069TIP3   OH218212   2.199   5.604   3.043
 6069TIP3    H118213   2.235   5.661   2.975
 6069TIP3    H218214   2.153   5.663   3.102
 6070TIP3   OH218215   3.117   0.238   5.092
 6070TIP3    H118216   3.105   0.332   5.082
 6070TIP3    H218217   3.082   0.218   5.179
 6071TIP3   OH218218   0.579   5.436   3.068
 6071TIP3    H118219   0.658   5.420   3.017
 6071TIP3    H218220   0.527   5.495   3.014
 6072TIP3   OH218221   2.588   5.802   4.481
 6072TIP3    H118222   2.553   5.891   4.485
 6072TIP3    H218223   2.653   5.805   4.411
 6073TIP3   OH218224   1.626   2.313   0.733
 6073TIP3    H118225   1.590   2.348   0.814
 6073TIP3    H218226   1.563   2.247   0.706
 6074TIP3   OH218227   2.612   0.266   2.138
 6074TIP3    H118228   2.523   0.298   2.148
 6074TIP3    H218229   2.650   0.320   2.069
 6075TIP3   OH218230   5.985   4.364   0.775
 6075TIP3    H118231   5.927   4.288   0.776
 6075TIP3    H218232   5.945   4.426   0.836
 6076TIP3   OH218233   0.971   2.172   1.482
 6076TIP3    H118234   0.913   2.182   1.407
 6076TIP3    H218235   0.924   2.114   1.541
 6077TIP3   OH218236   5.511   0.801   3.624
 6077TIP3    H118237   5.503   0.892   3.651
 6077TIP3    H218238   5.469   0.751   3.694
 6078TIP3   OH218239   1.139   2.913   1.916
 6078TIP3    H118240   1.214   2.876   1.964
 6078TIP3    H218241   1.155   2.888   1.825
 6079TIP3   OH218242   3.522   4.424   3.170
 6079TIP3    H118243   3.599   4.369   3.183
 6079TIP3    H218244   3.509   4.466   3.255
 6080TIP3   OH218245   5.347   0.975   2.226
 6080TIP3    H118246   5.258   1.012   2.228
 6080TIP3    H218247   5.401   1.044   2.265
 6081TIP3   OH218248   5.735   4.329   0.140
 6081TIP3    H118249   5.728   4.239   0.172
 6081TIP3    H218250   5.671   4.378   0.192
 6082TIP3   OH218251   0.524   4.086   4.343
 6082TIP3    H118252   0.504   4.150   4.412
 6082TIP3    H218253   0.593   4.031   4.381
 6083TIP3   OH218254   4.204   3.398   1.803
 6083TIP3    H118255   4.176   3.315   1.843
 6083TIP3    H218256   4.263   3.437   1.866
 6084TIP3   OH218257   1.891   2.524   2.304
 6084TIP3    H118258   1.821   2.589   2.308
 6084TIP3    H218259   1.856   2.454   2.249
 6085TIP3   OH218260   5.963   4.873   1.856
 6085TIP3    H118261   5.932   4.943   1.799
 6085TIP3    H218262   5.967   4.913   1.943
 6086TIP3   OH218263   6.017   2.938   3.894
 6086TIP3    H118264   6.106   2.905   3.881
 6086TIP3    H218265   5.961   2.876   3.848
 6087TIP3   OH218266   0.852   2.383   3.770
 6087TIP3    H118267   0.894   2.307   3.810
 6087TIP3    H218268   0.773   2.347   3.728
 6088TIP3   OH218269   3.324   4.773   1.209
 6088TIP3    H118270   3.244   4.721   1.214
 6088TIP3    H218271   3.334   4.793   1.116
 6089TIP3   OH218272   4.381   1.256   3.904
 6089TIP3    H118273   4.336   1.221   3.827
 6089TIP3    H218274   4.471   1.271   3.874
 6090TIP3   OH218275   5.837   0.374   0.923
 6090TIP3    H118276   5.919   0.339   0.958
 6090TIP3    H218277   5.769   0.332   0.975
 6091TIP3   OH218278   0.862   0.318   3.981
 6091TIP3    H118279   0.860   0.406   4.019
 6091TIP3    H218280   0.775   0.306   3.944
 6092TIP3   OH218281   5.895   3.120   1.759
 6092TIP3    H118282   5.966   3.067   1.722
 6092TIP3    H218283   5.815   3.072   1.736
 6093TIP3   OH218284   0.037   2.883   1.749
 6093TIP3    H118285   0.093   2.826   1.800
 6093TIP3    H218286   0.010   2.830   1.674
 6094TIP3   OH218287   4.865   0.390   0.580
 6094TIP3    H118288   4.949   0.346   0.568
 6094TIP3    H218289   4.844   0.424   0.493
 6095TIP3   OH218290   5.405   4.327   1.379
 6095TIP3    H118291   5.382   4.296   1.466
 6095TIP3    H218292   5.472   4.394   1.394
 6096TIP3   OH218293   0.679   1.465   1.074
 6096TIP3    H118294   0.628   1.432   1.148
 6096TIP3    H218295   0.633   1.432   0.997
 6097TIP3   OH218296   2.188   4.363   2.711
 6097TIP3    H118297   2.206   4.280   2.756
 6097TIP3    H218298   2.254   4.423   2.745
 6098TIP3   OH218299   4.412   4.756   1.564
 6098TIP3    H118300   4.496   4.714   1.544
 6098TIP3    H218301   4.425   4.799   1.649
 6099TIP3   OH218302   4.776   4.765   4.841
 6099TIP3    H118303   4.787   4.807   4.755
 6099TIP3    H218304   4.757   4.837   4.901
 6100TIP3   OH218305   3.788   4.081   0.477
 6100TIP3    H118306   3.724   4.115   0.414
 6100TIP3    H218307   3.741   4.078   0.560
 6101TIP3   OH218308   1.861   1.866   3.754
 6101TIP3    H118309   1.925   1.923   3.797
 6101TIP3    H218310   1.776   1.905   3.773
 6102TIP3   OH218311   0.008   2.417   4.491
 6102TIP3    H118312   0.061   2.436   4.413
 6102TIP3    H218313   0.047   2.338   4.528
 6103TIP3   OH218314   2.225   5.426   3.781
 6103TIP3    H118315   2.148   5.389   3.738
 6103TIP3    H218316   2.290   5.434   3.712
 6104TIP3   OH218317   5.602   4.611   4.977
 6104TIP3    H118318   5.682   4.574   4.938
 6104TIP3    H218319   5.629   4.696   5.011
 6105TIP3   OH218320   3.785   1.362   1.519
 6105TIP3    H118321   3.855   1.375   1.455
 6105TIP3    H218322   3.738   1.446   1.521
 6106TIP3   OH218323   2.412   0.442   2.521
 6106TIP3    H118324   2.419   0.410   2.431
 6106TIP3    H218325   2.348   0.513   2.517
 6107TIP3   OH218326   2.756   5.901   4.737
 6107TIP3    H118327   2.763   5.986   4.692
 6107TIP3    H218328   2.756   5.837   4.666
 6108TIP3   OH218329   6.250   0.608   1.965
 6108TIP3    H118330   6.231   0.587   2.057
 6108TIP3    H218331   6.345   0.614   1.961
 6109TIP3   OH218332   5.988   3.909   0.353
 6109TIP3    H118333   6.040   3.957   0.288
 6109TIP3    H218334   5.934   3.849   0.301
 6110TIP3   OH218335   4.625   1.318   3.061
 6110TIP3    H118336   4.635   1.238   3.009
 6110TIP3    H218337   4.682   1.382   3.019
 6111TIP3   OH218338   5.347   3.316   3.202
 6111TIP3    H118339   5.432   3.280   3.228
 6111TIP3    H218340   5.328   3.383   3.268
 6112TIP3   OH218341   4.085   3.327   2.448
 6112TIP3    H118342   4.022   3.270   2.403
 6112TIP3    H218343   4.148   3.352   2.380
 6113TIP3   OH218344   0.167   0.252   5.090
 6113TIP3    H118345   0.103   0.265   5.021
 6113TIP3    H218346   0.128   0.293   5.167
 6114TIP3   OH218347   0.656   0.704   1.216
 6114TIP3    H118348   0.628   0.794   1.200
 6114TIP3    H218349   0.659   0.663   1.130
 6115TIP3   OH218350   3.977   2.659   4.234
 6115TIP3    H118351   3.978   2.754   4.243
 6115TIP3    H218352   3.885   2.636   4.227
 6116TIP3   OH218353   1.018   0.175   3.767
 6116TIP3    H118354   0.992   0.238   3.834
 6116TIP3    H218355   1.114   0.183   3.764
 6117TIP3   OH218356   3.280   3.451   2.463
 6117TIP3    H118357   3.233   3.515   2.410
 6117TIP3    H218358   3.222   3.375   2.465
 6118TIP3   OH218359   1.286   0.677   2.190
 6118TIP3    H118360   1.320   0.634   2.268
 6118TIP3    H218361   1.364   0.712   2.146
 6119TIP3   OH218362   4.096   1.874   3.385
 6119TIP3    H118363   4.145   1.956   3.399
 6119TIP3    H218364   4.064   1.881   3.295
 6120TIP3   OH218365   5.586   4.411   1.673
 6120TIP3    H118366   5.602   4.398   1.579
 6120TIP3    H218367   5.556   4.502   1.680
 6121TIP3   OH218368   3.604   1.611   4.589
 6121TIP3    H118369   3.697   1.628   4.604
 6121TIP3    H218370   3.594   1.517   4.606
 6122TIP3   OH218371   2.017   1.829   1.204
 6122TIP3    H118372   1.964   1.759   1.244
 6122TIP3    H218373   2.045   1.793   1.120
 6123TIP3   OH218374   3.116   2.438   2.874
 6123TIP3    H118375   3.207   2.468   2.878
 6123TIP3    H218376   3.121   2.352   2.831
 6124TIP3   OH218377   2.536   3.554   4.447
 6124TIP3    H118378   2.502   3.643   4.450
 6124TIP3    H218379   2.486   3.507   4.513
 6125TIP3   OH218380   5.166   4.295   3.324
 6125TIP3    H118381   5.078   4.300   3.287
 6125TIP3    H218382   5.211   4.231   3.269
 6126TIP3   OH218383   1.810   4.057   0.785
 6126TIP3    H118384   1.724   4.100   0.781
 6126TIP3    H218385   1.816   4.008   0.703
 6127TIP3   OH218386   1.289   1.304   4.789
 6127TIP3    H118387   1.220   1.369   4.779
 6127TIP3    H218388   1.338   1.333   4.866
 6128TIP3   OH218389   3.142   2.481   1.412
 6128TIP3    H118390   3.210   2.415   1.397
 6128TIP3    H218391   3.090   2.445   1.484
 6129TIP3   OH218392   3.510   2.568   1.479
 6129TIP3    H118393   3.504   2.587   1.385
 6129TIP3    H218394   3.513   2.473   1.484
 6130TIP3   OH218395   0.390   1.253   4.939
 6130TIP3    H118396   0.391   1.319   4.870
 6130TIP3    H218397   0.481   1.225   4.948
 6131TIP3   OH218398   4.993   1.091   3.470
 6131TIP3    H118399   4.917   1.080   3.527
 6131TIP3    H218400   4.958   1.130   3.390
 6132TIP3   OH218401   0.760   5.636   0.701
 6132TIP3    H118402   0.848   5.621   0.665
 6132TIP3    H218403   0.776   5.672   0.788
 6133TIP3   OH218404   2.594   3.886   0.534
 6133TIP3    H118405   2.549   3.866   0.452
 6133TIP3    H218406   2.671   3.831   0.534
 6134TIP3   OH218407   3.412   2.465   5.083
 6134TIP3    H118408   3.371   2.455   5.168
 6134TIP3    H218409   3.460   2.383   5.069
 6135TIP3   OH218410   1.956   5.527   1.480
 6135TIP3    H118411   2.003   5.445   1.496
 6135TIP3    H218412   1.866   5.508   1.503
 6136TIP3   OH218413   3.530   3.069   0.926
 6136TIP3    H118414   3.465   3.134   0.899
 6136TIP3    H218415   3.492   2.985   0.902
 6137TIP3   OH218416   3.327   4.504   0.681
 6137TIP3    H118417   3.306   4.468   0.595
 6137TIP3    H218418   3.422   4.515   0.680
 6138TIP3   OH218419   5.619   0.246   3.307
 6138TIP3    H118420   5.549   0.234   3.370
 6138TIP3    H218421   5.588   0.201   3.228
 6139TIP3   OH218422   3.549   4.502   2.708
 6139TIP3    H118423   3.505   4.535   2.786
 6139TIP3    H218424   3.585   4.417   2.735
 6140TIP3   OH218425   3.897   3.585   3.382
 6140TIP3    H118426   3.853   3.620   3.459
 6140TIP3    H218427   3.949   3.659   3.349
 6141TIP3   OH218428   4.788   0.021   2.029
 6141TIP3    H118429   4.786   0.064   2.115
 6141TIP3    H218430   4.861   0.062   1.983
 6142TIP3   OH218431   1.283   1.391   4.048
 6142TIP3    H118432   1.339   1.375   3.972
 6142TIP3    H218433   1.194   1.385   4.014
 6143TIP3   OH218434   5.131   0.976   1.348
 6143TIP3    H118435   5.188   1.048   1.376
 6143TIP3    H218436   5.092   1.006   1.266
 6144TIP3   OH218437   2.274   4.290   0.563
 6144TIP3    H118438   2.294   4.347   0.488
 6144TIP3    H218439   2.337   4.315   0.630
 6145TIP3   OH218440   4.753   2.833   4.919
 6145TIP3    H118441   4.845   2.813   4.935
 6145TIP3    H218442   4.752   2.926   4.899
 6146TIP3   OH218443   1.106   0.693   0.784
 6146TIP3    H118444   1.149   0.753   0.845
 6146TIP3    H218445   1.165   0.689   0.708
 6147TIP3   OH218446   5.910   4.801   2.454
 6147TIP3    H118447   5.884   4.784   2.544
 6147TIP3    H218448   5.874   4.888   2.434
 6148TIP3   OH218449   5.604   0.247   0.250
 6148TIP3    H118450   5.651   0.165   0.235
 6148TIP3    H218451   5.564   0.236   0.336
 6149TIP3   OH218452   0.888   4.541   0.414
 6149TIP3    H118453   0.834   4.473   0.374
 6149TIP3    H218454   0.826   4.609   0.439
 6150TIP3   OH218455   1.649   1.040   3.550
 6150TIP3    H118456   1.685   1.001   3.629
 6150TIP3    H218457   1.592   1.110   3.581
 6151TIP3   OH218458   2.569   0.633   2.969
 6151TIP3    H118459   2.579   0.677   2.885
 6151TIP3    H218460   2.658   0.627   3.003
 6152TIP3   OH218461   4.337   2.093   4.005
 6152TIP3    H118462   4.258   2.064   3.959
 6152TIP3    H218463   4.307   2.116   4.093
 6153TIP3   OH218464   3.268   2.389   0.852
 6153TIP3    H118465   3.322   2.453   0.899
 6153TIP3    H218466   3.305   2.386   0.764
 6154TIP3   OH218467   3.277   1.417   2.025
 6154TIP3    H118468   3.298   1.326   2.006
 6154TIP3    H218469   3.301   1.464   1.945
 6155TIP3   OH218470   2.723   0.894   1.530
 6155TIP3    H118471   2.733   0.817   1.474
 6155TIP3    H218472   2.741   0.968   1.472
 6156TIP3   OH218473   4.272   2.789   3.122
 6156TIP3    H118474   4.202   2.836   3.076
 6156TIP3    H218475   4.265   2.820   3.212
 6157TIP3   OH218476   0.337   0.341   2.243
 6157TIP3    H118477   0.342   0.426   2.287
 6157TIP3    H218478   0.423   0.301   2.257
 6158TIP3   OH218479   2.111   4.985   3.343
 6158TIP3    H118480   2.123   4.944   3.258
 6158TIP3    H218481   2.024   4.958   3.372
 6159TIP3   OH218482   5.934   2.503   2.616
 6159TIP3    H118483   5.897   2.586   2.645
 6159TIP3    H218484   5.871   2.469   2.552
 6160TIP3   OH218485   4.399   0.548   1.119
 6160TIP3    H118486   4.434   0.483   1.059
 6160TIP3    H218487   4.462   0.550   1.191
 6161TIP3   OH218488   1.509   1.051   5.023
 6161TIP3    H118489   1.595   1.051   5.066
 6161TIP3    H218490   1.453   1.101   5.082
 6162TIP3   OH218491   3.238   4.865   0.199
 6162TIP3    H118492   3.240   4.942   0.257
 6162TIP3    H218493   3.252   4.901   0.111
 6163TIP3   OH218494   4.537   4.937   2.847
 6163TIP3    H118495   4.569   5.008   2.903
 6163TIP3    H218496   4.508   4.981   2.767
 6164TIP3   OH218497   3.125   2.997   3.857
 6164TIP3    H118498   3.146   3.047   3.778
 6164TIP3    H218499   3.195   3.019   3.919
 6165TIP3   OH218500   3.269   5.671   3.587
 6165TIP3    H118501   3.174   5.678   3.580
 6165TIP3    H218502   3.292   5.723   3.664
 6166TIP3   OH218503   4.479   2.600   2.096
 6166TIP3    H118504   4.460   2.608   2.190
 6166TIP3    H218505   4.415   2.657   2.054
 6167TIP3   OH218506   5.358   4.357   2.171
 6167TIP3    H118507   5.341   4.316   2.086
 6167TIP3    H218508   5.274   4.354   2.216
 6168TIP3   OH218509   4.649   5.152   0.332
 6168TIP3    H118510   4.740   5.143   0.304
 6168TIP3    H218511   4.615   5.063   0.335
 6169TIP3   OH218512   1.901   5.070   1.977
 6169TIP3    H118513   1.962   5.136   2.010
 6169TIP3    H218514   1.865   5.108   1.897
 6170TIP3   OH218515   5.841   0.349   4.302
 6170TIP3    H118516   5.772   0.284   4.308
 6170TIP3    H218517   5.797   0.433   4.315
 6171TIP3   OH218518   4.763   3.139   3.798
 6171TIP3    H118519   4.817   3.164   3.723
 6171TIP3    H218520   4.673   3.145   3.766
 6172TIP3   OH218521   2.313   0.196   4.588
 6172TIP3    H118522   2.390   0.140   4.593
 6172TIP3    H218523   2.274   0.192   4.675
 6173TIP3   OH218524   6.058   3.938   2.059
 6173TIP3    H118525   5.971   3.904   2.040
 6173TIP3    H218526   6.049   3.984   2.143
 6174TIP3   OH218527   1.780   2.742   1.810
 6174TIP3    H118528   1.859   2.737   1.863
 6174TIP3    H218529   1.779   2.660   1.760
 6175TIP3   OH218530   5.892   3.524   0.045
 6175TIP3    H118531   5.896   3.471   0.125
 6175TIP3    H218532   5.953   3.596   0.061
 6176TIP3   OH218533   5.457   0.986   0.964
 6176TIP3    H118534   5.456   1.058   1.027
 6176TIP3    H218535   5.475   0.908   1.017
 6177TIP3   OH218536   0.452   4.964   0.023
 6177TIP3    H118537   0.517   4.902   0.055
 6177TIP3    H218538   0.436   4.937  -0.068
 6178TIP3   OH218539   1.979   3.734   1.099
 6178TIP3    H118540   1.935   3.701   1.177
 6178TIP3    H218541   1.951   3.674   1.029
 6179TIP3   OH218542   1.902   4.990  -0.006
 6179TIP3    H118543   1.858   5.060   0.042
 6179TIP3    H218544   1.863   4.993  -0.094
 6180TIP3   OH218545   2.340   4.376   1.644
 6180TIP3    H118546   2.330   4.423   1.727
 6180TIP3    H218547   2.265   4.406   1.591
 6181TIP3   OH218548   3.946   0.829   3.112
 6181TIP3    H118549   3.911   0.765   3.050
 6181TIP3    H218550   4.034   0.848   3.079
 6182TIP3   OH218551  -0.035   3.816   3.852
 6182TIP3    H118552  -0.034   3.905   3.817
 6182TIP3    H218553   0.057   3.795   3.866
 6183TIP3   OH218554   5.924   1.204   3.390
 6183TIP3    H118555   5.938   1.211   3.296
 6183TIP3    H218556   5.835   1.170   3.398
 6184TIP3   OH218557   1.717   5.597   4.646
 6184TIP3    H118558   1.714   5.691   4.626
 6184TIP3    H218559   1.763   5.559   4.571
 6185TIP3   OH218560   1.024   3.461   3.121
 6185TIP3    H118561   1.000   3.525   3.188
 6185TIP3    H218562   0.954   3.395   3.124
 6186TIP3   OH218563   5.597   1.949   4.727
 6186TIP3    H118564   5.562   1.870   4.769
 6186TIP3    H218565   5.531   2.016   4.744
 6187TIP3   OH218566   0.815   1.879   4.082
 6187TIP3    H118567   0.856   1.821   4.018
 6187TIP3    H218568   0.825   1.832   4.165
 6188TIP3   OH218569   2.707   2.537   4.649
 6188TIP3    H118570   2.752   2.603   4.703
 6188TIP3    H218571   2.627   2.516   4.697
 6189TIP3   OH218572   3.779   3.880   0.687
 6189TIP3    H118573   3.824   3.924   0.615
 6189TIP3    H218574   3.770   3.947   0.755
 6190TIP3   OH218575   5.558   0.008   4.349
 6190TIP3    H118576   5.481   0.057   4.378
 6190TIP3    H218577   5.631   0.051   4.392
 6191TIP3   OH218578   0.506   2.731   2.360
 6191TIP3    H118579   0.500   2.709   2.267
 6191TIP3    H218580   0.417   2.717   2.394
 6192TIP3   OH218581   2.451   0.858   1.292
 6192TIP3    H118582   2.369   0.903   1.313
 6192TIP3    H218583   2.490   0.911   1.222
 6193TIP3   OH218584   1.647   4.442   3.577
 6193TIP3    H118585   1.642   4.347   3.571
 6193TIP3    H218586   1.568   4.467   3.626
 6194TIP3   OH218587   0.798   4.035   3.328
 6194TIP3    H118588   0.743   4.021   3.405
 6194TIP3    H218589   0.739   4.025   3.254
 6195TIP3   OH218590   2.463   2.659   1.634
 6195TIP3    H118591   2.555   2.638   1.623
 6195TIP3    H218592   2.462   2.748   1.669
 6196TIP3   OH218593   4.647   3.837   3.265
 6196TIP3    H118594   4.682   3.826   3.354
 6196TIP3    H218595   4.725   3.834   3.209
 6197TIP3   OH218596   1.651   5.390   1.560
 6197TIP3    H118597   1.659   5.311   1.613
 6197TIP3    H218598   1.671   5.361   1.471
 6198TIP3   OH218599   1.195   4.270   4.817
 6198TIP3    H118600   1.159   4.230   4.738
 6198TIP3    H218601   1.138   4.239   4.887
 6199TIP3   OH218602   6.188   3.031   1.885
 6199TIP3    H118603   6.257   2.965   1.885
 6199TIP3    H218604   6.143   3.020   1.802
 6200TIP3   OH218605   4.686   3.004   4.330
 6200TIP3    H118606   4.719   2.941   4.266
 6200TIP3    H218607   4.662   2.951   4.406
 6201TIP3   OH218608   6.112   2.113   0.255
 6201TIP3    H118609   6.039   2.096   0.196
 6201TIP3    H218610   6.071   2.142   0.336
 6202TIP3   OH218611   2.869   0.964   2.913
 6202TIP3    H118612   2.854   0.980   3.006
 6202TIP3    H218613   2.843   1.046   2.870
 6203TIP3   OH218614   1.773   0.292   5.041
 6203TIP3    H118615   1.774   0.325   4.951
 6203TIP3    H218616   1.699   0.231   5.043
 6204TIP3   OH218617   4.434   4.582   1.935
 6204TIP3    H118618   4.453   4.589   1.842
 6204TIP3    H218619   4.445   4.489   1.955
 6205TIP3   OH218620   4.175   4.321   0.470
 6205TIP3    H118621   4.147   4.281   0.388
 6205TIP3    H218622   4.269   4.334   0.460
 6206TIP3   OH218623   1.727   5.315   2.117
 6206TIP3    H118624   1.802   5.359   2.157
 6206TIP3    H218625   1.730   5.341   2.025
 6207TIP3   OH218626   0.089   2.672   0.494
 6207TIP3    H118627   0.066   2.744   0.435
 6207TIP3    H218628   0.165   2.630   0.453
 6208TIP3   OH218629   3.866   5.705   4.335
 6208TIP3    H118630   3.856   5.756   4.254
 6208TIP3    H218631   3.923   5.632   4.311
 6209TIP3   OH218632   5.507   0.944   4.527
 6209TIP3    H118633   5.462   0.862   4.549
 6209TIP3    H218634   5.442   1.012   4.544
 6210TIP3   OH218635   2.714   3.846   1.666
 6210TIP3    H118636   2.724   3.899   1.587
 6210TIP3    H218637   2.701   3.910   1.736
 6211TIP3   OH218638   0.105   0.218   0.364
 6211TIP3    H118639   0.021   0.262   0.358
 6211TIP3    H218640   0.125   0.218   0.458
 6212TIP3   OH218641   0.253   5.711   3.101
 6212TIP3    H118642   0.188   5.756   3.155
 6212TIP3    H218643   0.227   5.729   3.011
 6213TIP3   OH218644   0.515   4.043   1.307
 6213TIP3    H118645   0.510   4.136   1.329
 6213TIP3    H218646   0.502   4.040   1.212
 6214TIP3   OH218647   1.463   4.295   4.573
 6214TIP3    H118648   1.506   4.228   4.520
 6214TIP3    H218649   1.391   4.326   4.518
 6215TIP3   OH218650   2.813   3.384   3.691
 6215TIP3    H118651   2.824   3.292   3.715
 6215TIP3    H218652   2.718   3.399   3.694
 6216TIP3   OH218653   5.784   0.544   4.625
 6216TIP3    H118654   5.828   0.620   4.585
 6216TIP3    H218655   5.725   0.582   4.690
 6217TIP3   OH218656   3.466   0.917   4.221
 6217TIP3    H118657   3.558   0.930   4.197
 6217TIP3    H218658   3.417   0.959   4.150
 6218TIP3   OH218659   2.383   0.799   2.013
 6218TIP3    H118660   2.377   0.878   1.960
 6218TIP3    H218661   2.476   0.783   2.022
 6219TIP3   OH218662   5.594   2.227   3.422
 6219TIP3    H118663   5.511   2.196   3.387
 6219TIP3    H218664   5.652   2.230   3.346
 6220TIP3   OH218665   6.187   2.350   3.491
 6220TIP3    H118666   6.199   2.259   3.519
 6220TIP3    H218667   6.248   2.399   3.547
 6221TIP3   OH218668   3.828   0.026   4.321
 6221TIP3    H118669   3.894   0.070   4.269
 6221TIP3    H218670   3.745   0.051   4.281
 6222TIP3   OH218671   1.986   0.512   1.049
 6222TIP3    H118672   2.000   0.422   1.019
 6222TIP3    H218673   1.891   0.519   1.062
 6223TIP3   OH218674   6.157   0.173   3.735
 6223TIP3    H118675   6.196   0.259   3.752
 6223TIP3    H218676   6.150   0.168   3.640
 6224TIP3   OH218677   0.308   1.579   4.941
 6224TIP3    H118678   0.396   1.548   4.918
 6224TIP3    H218679   0.323   1.654   4.999
 6225TIP3   OH218680   2.322   3.342   4.152
 6225TIP3    H118681   2.239   3.295   4.153
 6225TIP3    H218682   2.303   3.425   4.195
 6226TIP3   OH218683   3.197   2.826   4.886
 6226TIP3    H118684   3.212   2.919   4.904
 6226TIP3    H218685   3.201   2.820   4.790
 6227TIP3   OH218686   3.429   3.583   3.160
 6227TIP3    H118687   3.489   3.536   3.102
 6227TIP3    H218688   3.389   3.649   3.104
 6228TIP3   OH218689   2.444   5.259   1.104
 6228TIP3    H118690   2.501   5.217   1.040
 6228TIP3    H218691   2.446   5.352   1.081
 6229TIP3   OH218692   0.579   3.007   3.630
 6229TIP3    H118693   0.615   2.994   3.718
 6229TIP3    H218694   0.504   3.065   3.644
 6230TIP3   OH218695   1.870   1.826   4.518
 6230TIP3    H118696   1.925   1.892   4.475
 6230TIP3    H218697   1.814   1.792   4.448
 6231TIP3   OH218698   2.594   1.642   0.149
 6231TIP3    H118699   2.633   1.707   0.090
 6231TIP3    H218700   2.641   1.561   0.129
 6232TIP3   OH218701   1.266   1.449   2.825
 6232TIP3    H118702   1.186   1.405   2.853
 6232TIP3    H218703   1.263   1.534   2.868
 6233TIP3   OH218704   6.005   3.636   1.817
 6233TIP3    H118705   5.936   3.699   1.837
 6233TIP3    H218706   6.033   3.660   1.728
 6234TIP3   OH218707   5.795   0.202   2.326
 6234TIP3    H118708   5.783   0.188   2.420
 6234TIP3    H218709   5.707   0.190   2.289
 6235TIP3   OH218710   1.842   0.832   1.654
 6235TIP3    H118711   1.917   0.840   1.713
 6235TIP3    H218712   1.865   0.889   1.580
 6236TIP3   OH218713   0.069   3.859   4.491
 6236TIP3    H118714   0.048   3.767   4.508
 6236TIP3    H218715   0.094   3.862   4.399
 6237TIP3   OH218716   5.852   5.484   1.717
 6237TIP3    H118717   5.852   5.564   1.666
 6237TIP3    H218718   5.847   5.414   1.652
 6238TIP3   OH218719   3.274   5.335   1.857
 6238TIP3    H118720   3.218   5.356   1.782
 6238TIP3    H218721   3.302   5.245   1.841
 6239TIP3   OH218722   2.997   5.421   1.838
 6239TIP3    H118723   3.058   5.465   1.898
 6239TIP3    H218724   2.930   5.486   1.821
 6240TIP3   OH218725   4.668   4.459   0.190
 6240TIP3    H118726   4.593   4.515   0.170
 6240TIP3    H218727   4.631   4.370   0.194
 6241TIP3   OH218728   1.260   1.933   1.036
 6241TIP3    H118729   1.242   1.868   0.968
 6241TIP3    H218730   1.272   1.882   1.116
 6242TIP3   OH218731   1.855   4.329   0.542
 6242TIP3    H118732   1.807   4.397   0.494
 6242TIP3    H218733   1.788   4.265   0.566
 6243TIP3   OH218734   0.259   4.173   0.998
 6243TIP3    H118735   0.258   4.209   0.909
 6243TIP3    H218736   0.200   4.231   1.048
 6244TIP3   OH218737   5.635   3.870   4.023
 6244TIP3    H118738   5.671   3.822   4.097
 6244TIP3    H218739   5.694   3.851   3.950
 6245TIP3   OH218740   1.275   2.830   3.773
 6245TIP3    H118741   1.344   2.765   3.788
 6245TIP3    H218742   1.306   2.880   3.697
 6246TIP3   OH218743   0.436   5.310   4.511
 6246TIP3    H118744   0.486   5.272   4.439
 6246TIP3    H218745   0.410   5.396   4.479
 6247TIP3   OH218746   5.884   5.668   4.433
 6247TIP3    H118747   5.830   5.590   4.424
 6247TIP3    H218748   5.974   5.635   4.425
 6248TIP3   OH218749   5.088   0.311   3.638
 6248TIP3    H118750   5.096   0.271   3.551
 6248TIP3    H218751   5.117   0.401   3.625
 6249TIP3   OH218752   1.910   2.408   2.716
 6249TIP3    H118753   1.969   2.334   2.699
 6249TIP3    H218754   1.830   2.386   2.669
 6250TIP3   OH218755   5.854   3.452   1.049
 6250TIP3    H118756   5.851   3.538   1.006
 6250TIP3    H218757   5.908   3.467   1.127
 6251TIP3   OH218758   0.729   3.462   0.992
 6251TIP3    H118759   0.765   3.540   0.948
 6251TIP3    H218760   0.703   3.404   0.920
 6252TIP3   OH218761   1.468   2.624   1.193
 6252TIP3    H118762   1.553   2.608   1.151
 6252TIP3    H218763   1.405   2.618   1.122
 6253TIP3   OH218764   6.299   1.615  -0.007
 6253TIP3    H118765   6.281   1.673   0.067
 6253TIP3    H218766   6.220   1.562  -0.016
 6254TIP3   OH218767   2.717   4.634   1.311
 6254TIP3    H118768   2.622   4.634   1.303
 6254TIP3    H218769   2.735   4.574   1.384
 6255TIP3   OH218770   4.058   1.105   3.302
 6255TIP3    H118771   4.079   1.059   3.383
 6255TIP3    H218772   4.088   1.047   3.233
 6256TIP3   OH218773   3.958   0.243   1.463
 6256TIP3    H118774   4.044   0.201   1.455
 6256TIP3    H218775   3.896   0.172   1.445
 6257TIP3   OH218776   0.305   2.373   4.318
 6257TIP3    H118777   0.270   2.286   4.340
 6257TIP3    H218778   0.399   2.359   4.311
 6258TIP3   OH218779   4.942   2.657   2.410
 6258TIP3    H118780   4.870   2.696   2.459
 6258TIP3    H218781   4.901   2.587   2.359
 6259TIP3   OH218782   3.630   3.747   4.775
 6259TIP3    H118783   3.629   3.825   4.831
 6259TIP3    H218784   3.667   3.679   4.829
 6260TIP3   OH218785   3.524   1.334   4.615
 6260TIP3    H118786   3.443   1.303   4.656
 6260TIP3    H218787   3.593   1.280   4.653
 6261TIP3   OH218788   2.939   0.388   2.638
 6261TIP3    H118789   2.856   0.433   2.624
 6261TIP3    H218790   2.972   0.425   2.721
 6262TIP3   OH218791   0.937   1.048   4.855
 6262TIP3    H118792   1.030   1.038   4.832
 6262TIP3    H218793   0.890   1.013   4.780
 6263TIP3   OH218794   4.063   1.317   4.735
 6263TIP3    H118795   4.141   1.264   4.718
 6263TIP3    H218796   4.056   1.374   4.658
 6264TIP3   OH218797   0.951   4.983   0.413
 6264TIP3    H118798   0.957   4.950   0.503
 6264TIP3    H218799   0.887   5.054   0.418
 6265TIP3   OH218800   4.016   3.389   2.084
 6265TIP3    H118801   3.940   3.400   2.028
 6265TIP3    H218802   3.981   3.382   2.172
 6266TIP3   OH218803   4.349   4.483   3.603
 6266TIP3    H118804   4.325   4.481   3.696
 6266TIP3    H218805   4.266   4.499   3.558
 6267TIP3   OH218806   5.352   4.822   4.776
 6267TIP3    H118807   5.368   4.902   4.725
 6267TIP3    H218808   5.377   4.846   4.865
 6268TIP3   OH218809   3.856   5.247   5.087
 6268TIP3    H118810   3.787   5.282   5.031
 6268TIP3    H218811   3.930   5.305   5.072
 6269TIP3   OH218812   3.952   2.742   3.336
 6269TIP3    H118813   3.859   2.759   3.350
 6269TIP3    H218814   3.972   2.783   3.251
 6270TIP3   OH218815   1.766   2.933   0.230
 6270TIP3    H118816   1.724   2.857   0.271
 6270TIP3    H218817   1.850   2.900   0.200
 6271TIP3   OH218818   5.555   2.572   1.611
 6271TIP3    H118819   5.565   2.503   1.545
 6271TIP3    H218820   5.513   2.644   1.563
 6272TIP3   OH218821   5.117   2.355   3.243
 6272TIP3    H118822   5.066   2.404   3.307
 6272TIP3    H218823   5.174   2.421   3.202
 6273TIP3   OH218824   5.622   5.712   4.947
 6273TIP3    H118825   5.702   5.660   4.948
 6273TIP3    H218826   5.640   5.783   4.886
 6274TIP3   OH218827   3.816   3.100   3.024
 6274TIP3    H118828   3.769   3.064   3.099
 6274TIP3    H218829   3.771   3.182   3.005
 6275TIP3   OH218830   3.596   0.463   0.394
 6275TIP3    H118831   3.517   0.500   0.354
 6275TIP3    H218832   3.663   0.470   0.327
 6276TIP3   OH218833   4.672   3.670   0.556
 6276TIP3    H118834   4.667   3.621   0.638
 6276TIP3    H218835   4.740   3.627   0.506
 6277TIP3   OH218836   0.673   2.036   2.689
 6277TIP3    H118837   0.609   1.988   2.740
 6277TIP3    H218838   0.666   2.000   2.601
 6278TIP3   OH218839   3.305   3.467   1.574
 6278TIP3    H118840   3.267   3.555   1.572
 6278TIP3    H218841   3.245   3.417   1.629
 6279TIP3   OH218842   5.465   4.402   0.265
 6279TIP3    H118843   5.437   4.493   0.262
 6279TIP3    H218844   5.431   4.364   0.184
 6280TIP3   OH218845   4.516   3.703   3.493
 6280TIP3    H118846   4.575   3.732   3.562
 6280TIP3    H218847   4.458   3.778   3.478
 6281TIP3   OH218848   3.320   1.064   1.546
 6281TIP3    H118849   3.294   1.152   1.572
 6281TIP3    H218850   3.355   1.024   1.626
 6282TIP3   OH218851   2.645   1.416   4.109
 6282TIP3    H118852   2.560   1.401   4.151
 6282TIP3    H218853   2.704   1.438   4.181
 6283TIP3   OH218854   3.367   4.610   4.355
 6283TIP3    H118855   3.454   4.641   4.380
 6283TIP3    H218856   3.320   4.689   4.329
 6284TIP3   OH218857   0.376   1.045   3.106
 6284TIP3    H118858   0.402   1.136   3.116
 6284TIP3    H218859   0.442   1.007   3.047
 6285TIP3   OH218860   5.501   4.346   4.034
 6285TIP3    H118861   5.547   4.272   3.993
 6285TIP3    H218862   5.421   4.307   4.070
 6286TIP3   OH218863   3.434   5.739   2.611
 6286TIP3    H118864   3.349   5.695   2.603
 6286TIP3    H218865   3.426   5.817   2.557
 6287TIP3   OH218866   0.180   0.173   4.282
 6287TIP3    H118867   0.113   0.110   4.309
 6287TIP3    H218868   0.131   0.253   4.262
 6288TIP3   OH218869   2.211   1.012   1.396
 6288TIP3    H118870   2.129   0.965   1.408
 6288TIP3    H218871   2.243   1.028   1.484
 6289TIP3   OH218872   5.940   3.243   2.887
 6289TIP3    H118873   6.017   3.289   2.920
 6289TIP3    H218874   5.970   3.153   2.875
 6290TIP3   OH218875   0.887   0.811   0.089
 6290TIP3    H118876   0.941   0.852   0.021
 6290TIP3    H218877   0.950   0.780   0.154
 6291TIP3   OH218878   1.821   2.141   5.006
 6291TIP3    H118879   1.773   2.218   5.038
 6291TIP3    H218880   1.904   2.143   5.054
 6292TIP3   OH218881   3.176   1.477   4.657
 6292TIP3    H118882   3.204   1.394   4.695
 6292TIP3    H218883   3.225   1.544   4.705
 6293TIP3   OH218884   5.647   0.769   2.864
 6293TIP3    H118885   5.719   0.734   2.916
 6293TIP3    H218886   5.568   0.740   2.908
 6294TIP3   OH218887   3.686   5.894   3.464
 6294TIP3    H118888   3.621   5.961   3.487
 6294TIP3    H218889   3.634   5.819   3.437
 6295TIP3   OH218890   6.162   4.131   0.640
 6295TIP3    H118891   6.248   4.135   0.681
 6295TIP3    H218892   6.116   4.208   0.674
 6296TIP3   OH218893   1.993   2.521   0.080
 6296TIP3    H118894   1.996   2.482  -0.007
 6296TIP3    H218895   2.039   2.460   0.137
 6297TIP3   OH218896   0.835   2.665   0.026
 6297TIP3    H118897   0.790   2.657  -0.058
 6297TIP3    H218898   0.906   2.728   0.008
 6298TIP3   OH218899   5.466   3.857   3.525
 6298TIP3    H118900   5.394   3.836   3.585
 6298TIP3    H218901   5.493   3.773   3.489
 6299TIP3   OH218902   3.270   3.913   4.117
 6299TIP3    H118903   3.196   3.971   4.097
 6299TIP3    H218904   3.244   3.868   4.197
 6300TIP3   OH218905   3.330   3.646   4.446
 6300TIP3    H118906   3.293   3.609   4.366
 6300TIP3    H218907   3.283   3.728   4.459
 6301TIP3   OH218908   5.548   0.142   2.192
 6301TIP3    H118909   5.483   0.210   2.174
 6301TIP3    H218910   5.562   0.099   2.108
 6302TIP3   OH218911   2.575   3.255   4.091
 6302TIP3    H118912   2.599   3.198   4.164
 6302TIP3    H218913   2.490   3.292   4.116
 6303TIP3   OH218914   1.931   5.241   4.044
 6303TIP3    H118915   2.008   5.292   4.070
 6303TIP3    H218916   1.965   5.176   3.982
 6304TIP3   OH218917   0.974   5.338   0.277
 6304TIP3    H118918   1.022   5.419   0.259
 6304TIP3    H218919   0.898   5.366   0.327
 6305TIP3   OH218920   1.523   5.885   3.555
 6305TIP3    H118921   1.505   5.914   3.644
 6305TIP3    H218922   1.584   5.950   3.519
 6306TIP3   OH218923   2.052   2.527   4.483
 6306TIP3    H118924   1.995   2.581   4.538
 6306TIP3    H218925   2.025   2.437   4.501
 6307TIP3   OH218926   5.305   1.724   0.749
 6307TIP3    H118927   5.394   1.691   0.765
 6307TIP3    H218928   5.287   1.782   0.823
 6308TIP3   OH218929   3.424   1.227   3.009
 6308TIP3    H118930   3.432   1.320   3.030
 6308TIP3    H218931   3.355   1.223   2.943
 6309TIP3   OH218932   5.640   0.305   4.608
 6309TIP3    H118933   5.566   0.334   4.556
 6309TIP3    H218934   5.693   0.383   4.620
 6310TIP3   OH218935   0.489   1.639   2.655
 6310TIP3    H118936   0.573   1.656   2.698
 6310TIP3    H218937   0.434   1.601   2.723
 6311TIP3   OH218938   5.341   1.555   1.950
 6311TIP3    H118939   5.361   1.626   2.011
 6311TIP3    H218940   5.276   1.592   1.890
 6312TIP3   OH218941   4.336   1.563   3.725
 6312TIP3    H118942   4.259   1.601   3.768
 6312TIP3    H218943   4.342   1.610   3.641
 6313TIP3   OH218944   3.771   1.517   1.814
 6313TIP3    H118945   3.731   1.444   1.765
 6313TIP3    H218946   3.864   1.512   1.792
 6314TIP3   OH218947   1.308   3.680   2.630
 6314TIP3    H118948   1.215   3.675   2.610
 6314TIP3    H218949   1.339   3.757   2.582
 6315TIP3   OH218950   2.129   5.254   0.345
 6315TIP3    H118951   2.086   5.261   0.260
 6315TIP3    H218952   2.216   5.292   0.331
 6316TIP3   OH218953   0.871   4.880   3.002
 6316TIP3    H118954   0.822   4.799   3.011
 6316TIP3    H218955   0.927   4.883   3.079
 6317TIP3   OH218956   3.577   0.687   3.775
 6317TIP3    H118957   3.592   0.762   3.832
 6317TIP3    H218958   3.489   0.700   3.741
 6318TIP3   OH218959   5.450   3.902   2.876
 6318TIP3    H118960   5.462   3.895   2.781
 6318TIP3    H218961   5.375   3.961   2.886
 6319TIP3   OH218962   1.304   1.595   0.168
 6319TIP3    H118963   1.297   1.549   0.085
 6319TIP3    H218964   1.358   1.672   0.149
 6320TIP3   OH218965   2.728   0.086   3.319
 6320TIP3    H118966   2.781   0.022   3.271
 6320TIP3    H218967   2.766   0.088   3.407
 6321TIP3   OH218968   6.310   4.546   1.222
 6321TIP3    H118969   6.290   4.629   1.265
 6321TIP3    H218970   6.235   4.529   1.165
 6322TIP3   OH218971   6.167   1.500   0.923
 6322TIP3    H118972   6.252   1.482   0.882
 6322TIP3    H218973   6.156   1.430   0.988
 6323TIP3   OH218974   0.972   1.887   4.749
 6323TIP3    H118975   0.884   1.924   4.741
 6323TIP3    H218976   0.960   1.811   4.806
 6324TIP3   OH218977   0.899   2.852   1.261
 6324TIP3    H118978   0.927   2.940   1.234
 6324TIP3    H218979   0.980   2.804   1.274
 6325TIP3   OH218980   3.988   0.195   2.232
 6325TIP3    H118981   3.983   0.143   2.312
 6325TIP3    H218982   4.078   0.226   2.229
 6326TIP3   OH218983   1.159   4.966   1.155
 6326TIP3    H118984   1.102   4.899   1.193
 6326TIP3    H218985   1.199   5.010   1.231
 6327TIP3   OH218986   2.799   3.714   0.585
 6327TIP3    H118987   2.872   3.736   0.643
 6327TIP3    H218988   2.762   3.634   0.622
 6328TIP3   OH218989   1.966   4.248   0.247
 6328TIP3    H118990   1.882   4.213   0.217
 6328TIP3    H218991   1.951   4.267   0.340
 6329TIP3   OH218992   1.525   3.081   4.065
 6329TIP3    H118993   1.576   3.137   4.124
 6329TIP3    H218994   1.564   3.095   3.979
 6330TIP3   OH218995   2.399   3.974   2.971
 6330TIP3    H118996   2.493   3.972   2.951
 6330TIP3    H218997   2.361   4.035   2.909
 6331TIP3   OH218998   5.534   1.031   4.973
 6331TIP3    H118999   5.462   1.008   4.914
 6331TIP3    H219000   5.493   1.082   5.042
 6332TIP3   OH219001   3.693   2.780   0.854
 6332TIP3    H119002   3.600   2.802   0.848
 6332TIP3    H219003   3.730   2.814   0.772
 6333TIP3   OH219004   4.218   2.457   1.826
 6333TIP3    H119005   4.150   2.400   1.861
 6333TIP3    H219006   4.289   2.452   1.889
 6334TIP3   OH219007   2.262   5.503   3.338
 6334TIP3    H119008   2.212   5.425   3.363
 6334TIP3    H219009   2.195   5.565   3.310
 6335TIP3   OH219010   4.788   0.058   2.658
 6335TIP3    H119011   4.702   0.072   2.619
 6335TIP3    H219012   4.825   0.146   2.667
 6336TIP3   OH219013   0.528   2.649   4.481
 6336TIP3    H119014   0.612   2.695   4.483
 6336TIP3    H219015   0.495   2.656   4.571
 6337TIP3   OH219016   1.695   2.786   2.285
 6337TIP3    H119017   1.692   2.804   2.191
 6337TIP3    H219018   1.685   2.872   2.326
 6338TIP3   OH219019   1.070   3.991   3.650
 6338TIP3    H119020   1.097   4.076   3.615
 6338TIP3    H219021   1.082   4.000   3.745
 6339TIP3   OH219022   2.467   1.881   3.949
 6339TIP3    H119023   2.499   1.883   3.859
 6339TIP3    H219024   2.436   1.791   3.961
 6340TIP3   OH219025   4.903   3.848   2.295
 6340TIP3    H119026   4.956   3.912   2.248
 6340TIP3    H219027   4.937   3.763   2.267
 6341TIP3   OH219028   5.493   2.114   2.842
 6341TIP3    H119029   5.425   2.161   2.794
 6341TIP3    H219030   5.574   2.162   2.824
 6342TIP3   OH219031   0.431   5.537   3.851
 6342TIP3    H119032   0.349   5.491   3.834
 6342TIP3    H219033   0.419   5.575   3.938
 6343TIP3   OH219034   5.433   3.974   2.303
 6343TIP3    H119035   5.346   3.934   2.306
 6343TIP3    H219036   5.451   3.985   2.210
 6344TIP3   OH219037   0.720   0.500   2.849
 6344TIP3    H119038   0.724   0.595   2.835
 6344TIP3    H219039   0.733   0.463   2.761
 6345TIP3   OH219040   2.864   3.527   2.454
 6345TIP3    H119041   2.912   3.483   2.525
 6345TIP3    H219042   2.773   3.528   2.484
 6346TIP3   OH219043   3.183   0.432   3.303
 6346TIP3    H119044   3.212   0.370   3.236
 6346TIP3    H219045   3.254   0.497   3.308
 6347TIP3   OH219046   1.242   5.035   4.884
 6347TIP3    H119047   1.316   5.044   4.824
 6347TIP3    H219048   1.197   4.956   4.855
 6348TIP3   OH219049   5.331   3.521   3.370
 6348TIP3    H119050   5.423   3.541   3.388
 6348TIP3    H219051   5.293   3.604   3.343
 6349TIP3   OH219052   5.324   3.463   4.388
 6349TIP3    H119053   5.327   3.513   4.306
 6349TIP3    H219054   5.294   3.526   4.453
 6350TIP3   OH219055   2.441   3.692   1.168
 6350TIP3    H119056   2.371   3.660   1.111
 6350TIP3    H219057   2.522   3.668   1.122
 6351TIP3   OH219058   5.319   5.485   4.367
 6351TIP3    H119059   5.336   5.544   4.293
 6351TIP3    H219060   5.245   5.524   4.412
 6352TIP3   OH219061   2.802   1.076   3.149
 6352TIP3    H119062   2.855   1.028   3.213
 6352TIP3    H219063   2.807   1.168   3.178
 6353TIP3   OH219064   0.486   4.558   0.705
 6353TIP3    H119065   0.460   4.603   0.625
 6353TIP3    H219066   0.441   4.605   0.775
 6354TIP3   OH219067   4.926   0.309   2.720
 6354TIP3    H119068   5.019   0.313   2.698
 6354TIP3    H219069   4.912   0.385   2.777
 6355TIP3   OH219070   4.793   3.475   4.500
 6355TIP3    H119071   4.726   3.493   4.434
 6355TIP3    H219072   4.749   3.487   4.584
 6356TIP3   OH219073   2.342   0.811   0.109
 6356TIP3    H119074   2.274   0.832   0.045
 6356TIP3    H219075   2.414   0.871   0.088
 6357TIP3   OH219076   2.403   3.116   1.939
 6357TIP3    H119077   2.372   3.152   1.856
 6357TIP3    H219078   2.466   3.181   1.972
 6358TIP3   OH219079   5.097   2.169   0.411
 6358TIP3    H119080   5.036   2.133   0.476
 6358TIP3    H219081   5.044   2.231   0.361
 6359TIP3   OH219082   1.775   0.921   3.136
 6359TIP3    H119083   1.865   0.902   3.110
 6359TIP3    H219084   1.730   0.941   3.054
 6360TIP3   OH219085   1.922   4.630   4.533
 6360TIP3    H119086   1.897   4.570   4.603
 6360TIP3    H219087   1.879   4.595   4.455
 6361TIP3   OH219088   3.122   5.462   1.304
 6361TIP3    H119089   3.121   5.536   1.365
 6361TIP3    H219090   3.195   5.407   1.332
 6362TIP3   OH219091   4.290   4.293   1.104
 6362TIP3    H119092   4.329   4.302   1.018
 6362TIP3    H219093   4.332   4.360   1.157
 6363TIP3   OH219094   1.232   3.960   4.979
 6363TIP3    H119095   1.263   3.967   4.889
 6363TIP3    H219096   1.160   4.024   4.985
 6364TIP3   OH219097   2.706   0.068   0.192
 6364TIP3    H119098   2.613   0.087   0.177
 6364TIP3    H219099   2.742   0.151   0.224
 6365TIP3   OH219100   0.555   0.899   2.537
 6365TIP3    H119101   0.571   0.862   2.450
 6365TIP3    H219102   0.520   0.986   2.519
 6366TIP3   OH219103   4.006   5.360   2.775
 6366TIP3    H119104   3.967   5.317   2.852
 6366TIP3    H219105   3.932   5.380   2.719
 6367TIP3   OH219106   1.781   4.432   2.554
 6367TIP3    H119107   1.833   4.363   2.511
 6367TIP3    H219108   1.832   4.512   2.540
 6368TIP3   OH219109   4.505   2.627   3.088
 6368TIP3    H119110   4.425   2.679   3.102
 6368TIP3    H219111   4.533   2.603   3.176
 6369TIP3   OH219112   1.110   3.465   2.664
 6369TIP3    H119113   1.075   3.542   2.620
 6369TIP3    H219114   1.123   3.401   2.594
 6370TIP3   OH219115   4.229   5.865   1.486
 6370TIP3    H119116   4.157   5.816   1.526
 6370TIP3    H219117   4.194   5.953   1.473
 6371TIP3   OH219118   5.098   1.688   3.553
 6371TIP3    H119119   5.024   1.746   3.571
 6371TIP3    H219120   5.107   1.691   3.458
 6372TIP3   OH219121   1.410   5.232   4.525
 6372TIP3    H119122   1.469   5.305   4.505
 6372TIP3    H219123   1.334   5.247   4.469
 6373TIP3   OH219124   4.328   4.819   4.480
 6373TIP3    H119125   4.422   4.810   4.498
 6373TIP3    H219126   4.296   4.879   4.547
 6374TIP3   OH219127   3.675   4.963   4.356
 6374TIP3    H119128   3.649   4.938   4.268
 6374TIP3    H219129   3.658   4.885   4.410
 6375TIP3   OH219130   4.569   5.511   1.056
 6375TIP3    H119131   4.499   5.513   1.121
 6375TIP3    H219132   4.637   5.457   1.095
 6376TIP3   OH219133   3.231   3.705   0.488
 6376TIP3    H119134   3.318   3.744   0.498
 6376TIP3    H219135   3.177   3.750   0.553
 6377TIP3   OH219136   4.885   3.195   0.088
 6377TIP3    H119137   4.790   3.199   0.076
 6377TIP3    H219138   4.905   3.102   0.088
 6378TIP3   OH219139   4.623   5.466   0.784
 6378TIP3    H119140   4.614   5.488   0.877
 6378TIP3    H219141   4.664   5.380   0.784
 6379TIP3   OH219142   3.581   0.650   1.540
 6379TIP3    H119143   3.582   0.570   1.592
 6379TIP3    H219144   3.672   0.661   1.512
 6380TIP3   OH219145   3.388   3.554   3.848
 6380TIP3    H119146   3.298   3.556   3.881
 6380TIP3    H219147   3.435   3.617   3.902
 6381TIP3   OH219148   2.491   5.336   3.022
 6381TIP3    H119149   2.466   5.260   3.075
 6381TIP3    H219150   2.574   5.364   3.059
 6382TIP3   OH219151   2.451   4.685   3.903
 6382TIP3    H119152   2.498   4.680   3.987
 6382TIP3    H219153   2.453   4.596   3.868
 6383TIP3   OH219154   1.040   1.447   2.324
 6383TIP3    H119155   0.975   1.515   2.309
 6383TIP3    H219156   1.124   1.489   2.307
 6384TIP3   OH219157   0.053   2.691   4.887
 6384TIP3    H119158   0.105   2.748   4.830
 6384TIP3    H219159   0.005   2.634   4.826
 6385TIP3   OH219160   5.369   0.780   0.061
 6385TIP3    H119161   5.348   0.745   0.148
 6385TIP3    H219162   5.396   0.703   0.011
 6386TIP3   OH219163   2.978   3.875   1.475
 6386TIP3    H119164   2.927   3.956   1.480
 6386TIP3    H219165   2.933   3.822   1.409
 6387TIP3   OH219166   4.395   2.410   0.672
 6387TIP3    H119167   4.395   2.485   0.612
 6387TIP3    H219168   4.403   2.334   0.615
 6388TIP3   OH219169   4.534   0.384   1.885
 6388TIP3    H119170   4.601   0.336   1.838
 6388TIP3    H219171   4.491   0.319   1.941
 6389TIP3   OH219172   1.035   2.958   3.873
 6389TIP3    H119173   0.972   2.950   3.801
 6389TIP3    H219174   1.119   2.937   3.834
 6390TIP3   OH219175   4.457   0.210   2.950
 6390TIP3    H119176   4.414   0.165   2.877
 6390TIP3    H219177   4.486   0.140   3.008
 6391TIP3   OH219178   0.054   2.888   2.060
 6391TIP3    H119179   0.022   2.810   2.016
 6391TIP3    H219180  -0.006   2.900   2.134
 6392TIP3   OH219181   4.087   3.231   4.000
 6392TIP3    H119182   4.133   3.147   3.989
 6392TIP3    H219183   4.090   3.247   4.095
 6393TIP3   OH219184   3.034   1.816   1.609
 6393TIP3    H119185   2.983   1.816   1.528
 6393TIP3    H219186   3.005   1.738   1.656
 6394TIP3   OH219187   0.881   0.431   0.125
 6394TIP3    H119188   0.904   0.447   0.217
 6394TIP3    H219189   0.853   0.339   0.123
 6395TIP3   OH219190   5.233   1.198   4.896
 6395TIP3    H119191   5.206   1.135   4.962
 6395TIP3    H219192   5.162   1.199   4.832
 6396TIP3   OH219193   5.293   4.310   4.955
 6396TIP3    H119194   5.286   4.405   4.945
 6396TIP3    H219195   5.219   4.275   4.904
 6397TIP3   OH219196   2.087   0.415   2.637
 6397TIP3    H119197   2.132   0.466   2.570
 6397TIP3    H219198   2.066   0.478   2.706
 6398TIP3   OH219199   5.981   2.358   2.824
 6398TIP3    H119200   5.956   2.413   2.750
 6398TIP3    H219201   6.076   2.363   2.826
 6399TIP3   OH219202   4.631   0.337   4.505
 6399TIP3    H119203   4.638   0.367   4.414
 6399TIP3    H219204   4.716   0.359   4.544
 6400TIP3   OH219205   4.852   3.330   0.878
 6400TIP3    H119206   4.822   3.271   0.808
 6400TIP3    H219207   4.946   3.340   0.862
 6401TIP3   OH219208   0.559   4.111   0.290
 6401TIP3    H119209   0.568   4.179   0.357
 6401TIP3    H219210   0.628   4.048   0.309
 6402TIP3   OH219211   4.501   0.802   2.371
 6402TIP3    H119212   4.588   0.809   2.331
 6402TIP3    H219213   4.458   0.733   2.322
 6403TIP3   OH219214   1.101   2.388   1.604
 6403TIP3    H119215   1.080   2.414   1.694
 6403TIP3    H219216   1.061   2.302   1.594
 6404TIP3   OH219217   0.832   4.003   0.814
 6404TIP3    H119218   0.859   4.080   0.862
 6404TIP3    H219219   0.793   4.037   0.733
 6405TIP3   OH219220   4.960   1.759   2.359
 6405TIP3    H119221   4.891   1.802   2.409
 6405TIP3    H219222   4.944   1.665   2.371
 6406TIP3   OH219223   5.279   0.665   4.829
 6406TIP3    H119224   5.241   0.618   4.755
 6406TIP3    H219225   5.340   0.602   4.868
 6407TIP3   OH219226   0.491   5.313   0.538
 6407TIP3    H119227   0.508   5.366   0.616
 6407TIP3    H219228   0.423   5.360   0.491
 6408TIP3   OH219229   3.588   3.675   4.508
 6408TIP3    H119230   3.594   3.704   4.599
 6408TIP3    H219231   3.494   3.662   4.493
 6409TIP3   OH219232   5.561   3.152   1.287
 6409TIP3    H119233   5.655   3.134   1.293
 6409TIP3    H219234   5.540   3.194   1.370
 6410TIP3   OH219235   3.837   5.663   2.648
 6410TIP3    H119236   3.818   5.719   2.573
 6410TIP3    H219237   3.818   5.574   2.617
 6411TIP3   OH219238   1.467   2.211   3.134
 6411TIP3    H119239   1.392   2.253   3.175
 6411TIP3    H219240   1.496   2.274   3.068
 6412TIP3   OH219241   2.511   4.065   3.208
 6412TIP3    H119242   2.585   4.006   3.224
 6412TIP3    H219243   2.441   4.007   3.177
 6413TIP3   OH219244   4.152   3.726   2.755
 6413TIP3    H119245   4.205   3.805   2.768
 6413TIP3    H219246   4.216   3.657   2.735
 6414TIP3   OH219247   2.908   3.215   5.085
 6414TIP3    H119248   3.000   3.231   5.065
 6414TIP3    H219249   2.874   3.168   5.009
 6415TIP3   OH219250   4.123   4.694   4.329
 6415TIP3    H119251   4.179   4.737   4.394
 6415TIP3    H219252   4.161   4.607   4.319
 6416TIP3   OH219253   2.449   2.420   0.179
 6416TIP3    H119254   2.490   2.483   0.238
 6416TIP3    H219255   2.517   2.398   0.116
 6417TIP3   OH219256   5.471   2.158   2.127
 6417TIP3    H119257   5.440   2.110   2.204
 6417TIP3    H219258   5.481   2.090   2.059
 6418TIP3   OH219259   5.491   4.544   1.095
 6418TIP3    H119260   5.458   4.454   1.108
 6418TIP3    H219261   5.561   4.553   1.160
 6419TIP3   OH219262   3.823   5.141   1.533
 6419TIP3    H119263   3.896   5.158   1.592
 6419TIP3    H219264   3.785   5.059   1.565
 6420TIP3   OH219265   6.066   5.120   0.912
 6420TIP3    H119266   6.030   5.130   0.824
 6420TIP3    H219267   6.145   5.067   0.900
 6421TIP3   OH219268   1.569   2.789   2.638
 6421TIP3    H119269   1.554   2.818   2.728
 6421TIP3    H219270   1.522   2.853   2.584
 6422TIP3   OH219271   2.519   3.556   4.817
 6422TIP3    H119272   2.546   3.478   4.768
 6422TIP3    H219273   2.602   3.597   4.844
 6423TIP3   OH219274   1.504   5.622   1.476
 6423TIP3    H119275   1.552   5.547   1.510
 6423TIP3    H219276   1.466   5.664   1.553
 6424TIP3   OH219277   2.008   4.675   1.129
 6424TIP3    H119278   1.941   4.665   1.061
 6424TIP3    H219279   2.038   4.765   1.119
 6425TIP3   OH219280   2.907   4.075   0.885
 6425TIP3    H119281   2.837   4.043   0.829
 6425TIP3    H219282   2.892   4.170   0.892
 6426TIP3   OH219283   5.248   1.179   2.612
 6426TIP3    H119284   5.276   1.262   2.573
 6426TIP3    H219285   5.170   1.201   2.662
 6427TIP3   OH219286   3.935   5.905   3.559
 6427TIP3    H119287   3.846   5.911   3.526
 6427TIP3    H219288   3.983   5.973   3.512
 6428TIP3   OH219289   5.107   2.576   2.960
 6428TIP3    H119290   5.176   2.512   2.980
 6428TIP3    H219291   5.078   2.607   3.046
 6429TIP3   OH219292   0.321   2.735   0.195
 6429TIP3    H119293   0.399   2.726   0.249
 6429TIP3    H219294   0.280   2.649   0.197
 6430TIP3   OH219295   1.921   4.406   0.966
 6430TIP3    H119296   1.947   4.358   1.045
 6430TIP3    H219297   1.985   4.379   0.900
 6431TIP3   OH219298   2.920   5.728   0.743
 6431TIP3    H119299   2.975   5.716   0.820
 6431TIP3    H219300   2.830   5.720   0.777
 6432TIP3   OH219301   2.157   2.365   3.851
 6432TIP3    H119302   2.194   2.280   3.875
 6432TIP3    H219303   2.119   2.398   3.932
 6433TIP3   OH219304   3.625   4.633   4.100
 6433TIP3    H119305   3.614   4.724   4.074
 6433TIP3    H219306   3.720   4.622   4.112
 6434TIP3   OH219307   4.228   4.703   0.708
 6434TIP3    H119308   4.196   4.772   0.650
 6434TIP3    H219309   4.271   4.640   0.649
 6435TIP3   OH219310   2.754   2.365   1.893
 6435TIP3    H119311   2.721   2.314   1.967
 6435TIP3    H219312   2.683   2.362   1.828
 6436TIP3   OH219313   2.202   5.327   0.867
 6436TIP3    H119314   2.177   5.304   0.956
 6436TIP3    H219315   2.217   5.422   0.870
 6437TIP3   OH219316   2.112   3.528   3.971
 6437TIP3    H119317   2.076   3.506   3.885
 6437TIP3    H219318   2.066   3.471   4.032
 6438TIP3   OH219319   1.655   2.763   4.880
 6438TIP3    H119320   1.608   2.689   4.840
 6438TIP3    H219321   1.594   2.836   4.874
 6439TIP3   OH219322   6.167   4.275   4.140
 6439TIP3    H119323   6.206   4.246   4.223
 6439TIP3    H219324   6.223   4.348   4.112
 6440TIP3   OH219325   0.878   1.131   1.733
 6440TIP3    H119326   0.965   1.096   1.750
 6440TIP3    H219327   0.862   1.193   1.803
 6441TIP3   OH219328   2.022   4.948   3.068
 6441TIP3    H119329   2.077   4.986   2.999
 6441TIP3    H219330   1.934   4.947   3.030
 6442TIP3   OH219331   5.779   2.643   0.416
 6442TIP3    H119332   5.707   2.686   0.461
 6442TIP3    H219333   5.748   2.554   0.398
 6443TIP3   OH219334   3.616   1.788   3.258
 6443TIP3    H119335   3.655   1.850   3.320
 6443TIP3    H219336   3.522   1.805   3.263
 6444TIP3   OH219337   1.696   3.473   0.579
 6444TIP3    H119338   1.634   3.441   0.645
 6444TIP3    H219339   1.651   3.547   0.538
 6445TIP3   OH219340   4.918   5.199   3.677
 6445TIP3    H119341   4.877   5.265   3.621
 6445TIP3    H219342   5.008   5.192   3.645
 6446TIP3   OH219343   6.399   1.303   3.239
 6446TIP3    H119344   6.388   1.272   3.149
 6446TIP3    H219345   6.318   1.279   3.283
 6447TIP3   OH219346   0.916   0.709   2.096
 6447TIP3    H119347   0.908   0.622   2.135
 6447TIP3    H219348   0.950   0.764   2.167
 6448TIP3   OH219349   0.282   2.346   0.756
 6448TIP3    H119350   0.365   2.334   0.710
 6448TIP3    H219351   0.271   2.441   0.761
 6449TIP3   OH219352   4.442   1.540   1.472
 6449TIP3    H119353   4.439   1.503   1.384
 6449TIP3    H219354   4.522   1.504   1.511
 6450TIP3   OH219355   4.912   2.428   4.405
 6450TIP3    H119356   4.922   2.492   4.334
 6450TIP3    H219357   4.920   2.343   4.361
 6451TIP3   OH219358   0.412   5.998   4.614
 6451TIP3    H119359   0.445   5.914   4.645
 6451TIP3    H219360   0.427   6.058   4.687
 6452TIP3   OH219361   0.780   1.067   3.160
 6452TIP3    H119362   0.749   1.001   3.098
 6452TIP3    H219363   0.712   1.071   3.226
 6453TIP3   OH219364   5.396   4.932   3.342
 6453TIP3    H119365   5.356   5.007   3.387
 6453TIP3    H219366   5.328   4.866   3.339
 6454TIP3   OH219367   1.569   2.958   2.863
 6454TIP3    H119368   1.617   3.039   2.878
 6454TIP3    H219369   1.501   2.957   2.931
 6455TIP3   OH219370   5.753   0.150   4.975
 6455TIP3    H119371   5.753   0.237   4.936
 6455TIP3    H219372   5.748   0.166   5.070
 6456TIP3   OH219373   4.899   5.543   5.177
 6456TIP3    H119374   4.888   5.635   5.202
 6456TIP3    H219375   4.821   5.523   5.125
 6457TIP3   OH219376   0.374   4.174   3.039
 6457TIP3    H119377   0.301   4.218   3.084
 6457TIP3    H219378   0.359   4.193   2.947
 6458TIP3   OH219379   2.066   2.993   4.386
 6458TIP3    H119380   2.067   3.089   4.378
 6458TIP3    H219381   2.098   2.961   4.301
 6459TIP3   OH219382   6.048   2.438   0.841
 6459TIP3    H119383   6.084   2.524   0.862
 6459TIP3    H219384   5.976   2.456   0.780
 6460TIP3   OH219385   0.127   4.344   4.187
 6460TIP3    H119386   0.063   4.294   4.238
 6460TIP3    H219387   0.137   4.295   4.106
 6461TIP3   OH219388   4.450   1.865   0.040
 6461TIP3    H119389   4.535   1.870   0.083
 6461TIP3    H219390   4.459   1.794  -0.023
 6462TIP3   OH219391   3.843   5.534   3.424
 6462TIP3    H119392   3.890   5.516   3.343
 6462TIP3    H219393   3.765   5.480   3.419
 6463TIP3   OH219394   1.013   5.356   1.085
 6463TIP3    H119395   1.048   5.396   1.165
 6463TIP3    H219396   1.085   5.360   1.023
 6464TIP3   OH219397   2.697   2.577   4.379
 6464TIP3    H119398   2.721   2.556   4.470
 6464TIP3    H219399   2.671   2.669   4.382
 6465TIP3   OH219400   2.294   0.822   2.492
 6465TIP3    H119401   2.244   0.903   2.477
 6465TIP3    H219402   2.370   0.830   2.435
 6466TIP3   OH219403   4.501   0.217   4.970
 6466TIP3    H119404   4.595   0.215   4.949
 6466TIP3    H219405   4.494   0.166   5.051
 6467TIP3   OH219406   1.157   2.938   1.537
 6467TIP3    H119407   1.192   3.027   1.540
 6467TIP3    H219408   1.070   2.947   1.498
 6468TIP3   OH219409   1.155   1.101   4.279
 6468TIP3    H119410   1.065   1.133   4.272
 6468TIP3    H219411   1.149   1.029   4.342
 6469TIP3   OH219412   2.935   5.184   0.884
 6469TIP3    H119413   2.956   5.270   0.921
 6469TIP3    H219414   2.996   5.173   0.812
 6470TIP3   OH219415   3.385   3.906   0.560
 6470TIP3    H119416   3.384   3.931   0.652
 6470TIP3    H219417   3.431   3.978   0.516
 6471TIP3   OH219418   2.588   1.242   1.876
 6471TIP3    H119419   2.627   1.155   1.865
 6471TIP3    H219420   2.629   1.295   1.807
 6472TIP3   OH219421   5.667   5.007   1.930
 6472TIP3    H119422   5.756   5.035   1.954
 6472TIP3    H219423   5.676   4.972   1.842
 6473TIP3   OH219424   6.307   3.815   1.561
 6473TIP3    H119425   6.323   3.905   1.588
 6473TIP3    H219426   6.393   3.783   1.532
 6474TIP3   OH219427   1.439   1.948   2.209
 6474TIP3    H119428   1.402   1.901   2.283
 6474TIP3    H219429   1.493   1.884   2.163
 6475TIP3   OH219430   3.874   4.932   0.196
 6475TIP3    H119431   3.830   4.942   0.280
 6475TIP3    H219432   3.901   5.021   0.172
 6476TIP3   OH219433   3.335   0.479   2.141
 6476TIP3    H119434   3.411   0.425   2.120
 6476TIP3    H219435   3.276   0.420   2.188
 6477TIP3   OH219436   6.113   3.441   4.343
 6477TIP3    H119437   6.157   3.364   4.378
 6477TIP3    H219438   6.046   3.405   4.285
 6478TIP3   OH219439   2.105   2.466   4.217
 6478TIP3    H119440   2.091   2.482   4.310
 6478TIP3    H219441   2.018   2.448   4.182
 6479TIP3   OH219442   3.912   1.149   1.154
 6479TIP3    H119443   3.913   1.066   1.107
 6479TIP3    H219444   3.956   1.211   1.095
 6480TIP3   OH219445   1.194   1.862   3.161
 6480TIP3    H119446   1.161   1.952   3.161
 6480TIP3    H219447   1.271   1.865   3.218
 6481TIP3   OH219448   4.968   5.652   1.856
 6481TIP3    H119449   5.039   5.645   1.919
 6481TIP3    H219450   4.925   5.735   1.877
 6482TIP3   OH219451   1.319   1.559   0.647
 6482TIP3    H119452   1.315   1.655   0.642
 6482TIP3    H219453   1.357   1.541   0.733
 6483TIP3   OH219454   5.776   4.752   4.273
 6483TIP3    H119455   5.775   4.734   4.367
 6483TIP3    H219456   5.775   4.665   4.232
 6484TIP3   OH219457   2.370   1.988   0.419
 6484TIP3    H119458   2.432   1.921   0.390
 6484TIP3    H219459   2.370   2.053   0.349
 6485TIP3   OH219460   2.903   3.206   2.838
 6485TIP3    H119461   2.877   3.292   2.870
 6485TIP3    H219462   2.828   3.149   2.859
 6486TIP3   OH219463   1.423   5.812   3.313
 6486TIP3    H119464   1.398   5.722   3.332
 6486TIP3    H219465   1.435   5.852   3.398
 6487TIP3   OH219466   5.927   3.583   4.562
 6487TIP3    H119467   5.888   3.528   4.495
 6487TIP3    H219468   5.852   3.622   4.607
 6488TIP3   OH219469   5.212   5.993   2.749
 6488TIP3    H119470   5.253   5.919   2.705
 6488TIP3    H219471   5.284   6.052   2.769
 6489TIP3   OH219472   5.008   2.005   3.507
 6489TIP3    H119473   4.941   2.060   3.465
 6489TIP3    H219474   5.085   2.063   3.514
 6490TIP3   OH219475   2.310   3.518   4.632
 6490TIP3    H119476   2.258   3.492   4.707
 6490TIP3    H219477   2.391   3.553   4.670
 6491TIP3   OH219478   1.446   5.948   1.439
 6491TIP3    H119479   1.442   5.944   1.535
 6491TIP3    H219480   1.401   6.029   1.417
 6492TIP3   OH219481   3.976   4.775   1.535
 6492TIP3    H119482   3.929   4.699   1.569
 6492TIP3    H219483   4.008   4.747   1.449
 6493TIP3   OH219484   4.550   5.406   4.060
 6493TIP3    H119485   4.546   5.493   4.101
 6493TIP3    H219486   4.479   5.406   3.997
 6494TIP3   OH219487   0.883   1.178   4.185
 6494TIP3    H119488   0.801   1.213   4.150
 6494TIP3    H219489   0.856   1.127   4.262
 6495TIP3   OH219490   4.184   5.845   1.008
 6495TIP3    H119491   4.169   5.863   0.915
 6495TIP3    H219492   4.279   5.843   1.017
 6496TIP3   OH219493   5.933   1.325   3.797
 6496TIP3    H119494   6.013   1.367   3.764
 6496TIP3    H219495   5.862   1.371   3.752
 6497TIP3   OH219496   3.805   3.483   1.879
 6497TIP3    H119497   3.876   3.523   1.830
 6497TIP3    H219498   3.812   3.389   1.860
 6498TIP3   OH219499   3.436   2.045   0.471
 6498TIP3    H119500   3.368   2.085   0.417
 6498TIP3    H219501   3.403   2.052   0.561
 6499TIP3   OH219502   3.397   0.747   2.207
 6499TIP3    H119503   3.332   0.683   2.178
 6499TIP3    H219504   3.413   0.725   2.299
 6500TIP3   OH219505   2.531   4.207   1.090
 6500TIP3    H119506   2.505   4.137   1.151
 6500TIP3    H219507   2.593   4.260   1.140
 6501TIP3   OH219508   5.884   4.041   1.265
 6501TIP3    H119509   5.890   3.986   1.343
 6501TIP3    H219510   5.966   4.027   1.219
 6502TIP3   OH219511   6.338   0.415   1.424
 6502TIP3    H119512   6.350   0.321   1.435
 6502TIP3    H219513   6.248   0.431   1.452
 6503TIP3   OH219514   2.066   5.738   3.811
 6503TIP3    H119515   2.082   5.645   3.824
 6503TIP3    H219516   1.972   5.744   3.795
 6504TIP3   OH219517   5.798   1.338   1.193
 6504TIP3    H119518   5.771   1.418   1.237
 6504TIP3    H219519   5.858   1.296   1.254
 6505TIP3   OH219520   3.091   3.965   0.734
 6505TIP3    H119521   3.165   4.017   0.703
 6505TIP3    H219522   3.036   4.027   0.780
 6506TIP3   OH219523   4.116   4.532   2.645
 6506TIP3    H119524   4.099   4.474   2.720
 6506TIP3    H219525   4.063   4.496   2.574
 6507TIP3   OH219526   1.886   2.044   3.499
 6507TIP3    H119527   1.939   1.991   3.559
 6507TIP3    H219528   1.867   2.124   3.548
 6508TIP3   OH219529   2.469   0.401   4.489
 6508TIP3    H119530   2.455   0.444   4.573
 6508TIP3    H219531   2.411   0.324   4.492
 6509TIP3   OH219532   0.323   1.246   0.737
 6509TIP3    H119533   0.342   1.162   0.778
 6509TIP3    H219534   0.287   1.223   0.651
 6510TIP3   OH219535   5.192   2.514   4.495
 6510TIP3    H119536   5.102   2.506   4.464
 6510TIP3    H219537   5.216   2.424   4.520
 6511TIP3   OH219538   1.217   3.696   0.237
 6511TIP3    H119539   1.301   3.739   0.222
 6511TIP3    H219540   1.164   3.720   0.160
 6512TIP3   OH219541   3.612   1.877   3.841
 6512TIP3    H119542   3.562   1.858   3.921
 6512TIP3    H219543   3.676   1.944   3.868
 6513TIP3   OH219544   1.368   5.800   4.247
 6513TIP3    H119545   1.326   5.800   4.161
 6513TIP3    H219546   1.346   5.714   4.284
 6514TIP3   OH219547   6.344   5.239   4.062
 6514TIP3    H119548   6.368   5.147   4.048
 6514TIP3    H219549   6.302   5.240   4.148
 6515TIP3   OH219550   4.780   1.563   0.695
 6515TIP3    H119551   4.708   1.624   0.713
 6515TIP3    H219552   4.824   1.601   0.619
 6516TIP3   OH219553   4.136   1.318   0.482
 6516TIP3    H119554   4.136   1.222   0.485
 6516TIP3    H219555   4.222   1.341   0.448
 6517TIP3   OH219556   2.931   5.587   1.638
 6517TIP3    H119557   2.996   5.517   1.624
 6517TIP3    H219558   2.848   5.547   1.612
 6518TIP3   OH219559   2.478   3.888   0.285
 6518TIP3    H119560   2.457   3.976   0.317
 6518TIP3    H219561   2.395   3.854   0.253
 6519TIP3   OH219562   5.966   0.079   1.703
 6519TIP3    H119563   5.967   0.064   1.609
 6519TIP3    H219564   5.909   0.155   1.715
 6520TIP3   OH219565   2.573   3.389   2.793
 6520TIP3    H119566   2.621   3.453   2.741
 6520TIP3    H219567   2.586   3.417   2.884
 6521TIP3   OH219568   0.296   5.724   0.204
 6521TIP3    H119569   0.264   5.753   0.118
 6521TIP3    H219570   0.391   5.714   0.192
 6522TIP3   OH219571   4.056   4.745   1.255
 6522TIP3    H119572   4.132   4.800   1.272
 6522TIP3    H219573   4.047   4.746   1.159
 6523TIP3   OH219574   5.633   4.507   3.410
 6523TIP3    H119575   5.698   4.494   3.342
 6523TIP3    H219576   5.551   4.476   3.372
 6524TIP3   OH219577   5.744   5.890   2.350
 6524TIP3    H119578   5.678   5.877   2.282
 6524TIP3    H219579   5.731   5.981   2.380
 6525TIP3   OH219580   3.052   2.453   4.713
 6525TIP3    H119581   3.093   2.508   4.780
 6525TIP3    H219582   3.002   2.389   4.764
 6526TIP3   OH219583   6.341   5.315   4.380
 6526TIP3    H119584   6.279   5.245   4.357
 6526TIP3    H219585   6.427   5.279   4.356
 6527TIP3   OH219586   5.969   0.025   1.160
 6527TIP3    H119587   6.010   0.080   1.092
 6527TIP3    H219588   5.880   0.011   1.128
 6528TIP3   OH219589   1.556   0.760   2.140
 6528TIP3    H119590   1.640   0.726   2.110
 6528TIP3    H219591   1.577   0.812   2.217
 6529TIP3   OH219592   4.154   1.056   1.469
 6529TIP3    H119593   4.189   1.015   1.389
 6529TIP3    H219594   4.059   1.051   1.458
 6530TIP3   OH219595   5.247   2.932   2.378
 6530TIP3    H119596   5.157   2.966   2.382
 6530TIP3    H219597   5.298   2.993   2.432
 6531TIP3   OH219598   3.857   4.360   4.627
 6531TIP3    H119599   3.948   4.336   4.608
 6531TIP3    H219600   3.843   4.332   4.718
 6532TIP3   OH219601   3.604   5.772   4.370
 6532TIP3    H119602   3.698   5.775   4.382
 6532TIP3    H219603   3.574   5.862   4.383
 6533TIP3   OH219604   0.876   1.398   1.644
 6533TIP3    H119605   0.963   1.422   1.611
 6533TIP3    H219606   0.882   1.303   1.659
 6534TIP3   OH219607   1.443   2.828   2.043
 6534TIP3    H119608   1.477   2.917   2.031
 6534TIP3    H219609   1.460   2.785   1.959
 6535TIP3   OH219610   5.411   4.257   1.108
 6535TIP3    H119611   5.426   4.259   1.203
 6535TIP3    H219612   5.469   4.188   1.076
 6536TIP3   OH219613   1.441   0.456   0.517
 6536TIP3    H119614   1.490   0.382   0.554
 6536TIP3    H219615   1.351   0.423   0.509
 6537TIP3   OH219616   5.331   2.202   4.118
 6537TIP3    H119617   5.348   2.167   4.206
 6537TIP3    H219618   5.417   2.201   4.075
 6538TIP3   OH219619   2.125   1.306   3.529
 6538TIP3    H119620   2.093   1.271   3.613
 6538TIP3    H219621   2.153   1.228   3.481
 6539TIP3   OH219622   5.880   4.492   1.378
 6539TIP3    H119623   5.911   4.437   1.450
 6539TIP3    H219624   5.936   4.569   1.381
 6540TIP3   OH219625   2.323   5.056   4.718
 6540TIP3    H119626   2.357   5.076   4.805
 6540TIP3    H219627   2.305   4.962   4.720
 6541TIP3   OH219628   3.395   5.542   0.215
 6541TIP3    H119629   3.313   5.554   0.167
 6541TIP3    H219630   3.446   5.482   0.160
 6542TIP3   OH219631   3.362   2.804   2.078
 6542TIP3    H119632   3.313   2.723   2.062
 6542TIP3    H219633   3.431   2.778   2.139
 6543TIP3   OH219634   5.174   0.221   3.388
 6543TIP3    H119635   5.085   0.191   3.406
 6543TIP3    H219636   5.184   0.212   3.293
 6544TIP3   OH219637   3.279   2.096   2.202
 6544TIP3    H119638   3.223   2.141   2.139
 6544TIP3    H219639   3.356   2.152   2.211
 6545TIP3   OH219640   2.343   5.240   0.078
 6545TIP3    H119641   2.251   5.247   0.051
 6545TIP3    H219642   2.378   5.167   0.027
 6546TIP3   OH219643   3.166   4.140   5.081
 6546TIP3    H119644   3.196   4.205   5.145
 6546TIP3    H219645   3.075   4.164   5.064
 6547TIP3   OH219646   4.250   1.021   0.445
 6547TIP3    H119647   4.303   1.092   0.407
 6547TIP3    H219648   4.255   0.951   0.380
 6548TIP3   OH219649   0.117   3.381   1.661
 6548TIP3    H119650   0.136   3.440   1.733
 6548TIP3    H219651   0.042   3.420   1.616
 6549TIP3   OH219652   3.580   4.863   0.445
 6549TIP3    H119653   3.674   4.874   0.452
 6549TIP3    H219654   3.549   4.944   0.404
 6550TIP3   OH219655   1.019   0.506   5.007
 6550TIP3    H119656   0.974   0.481   5.087
 6550TIP3    H219657   1.051   0.423   4.970
 6551TIP3   OH219658   3.493   5.616   4.718
 6551TIP3    H119659   3.453   5.679   4.658
 6551TIP3    H219660   3.577   5.657   4.742
 6552TIP3   OH219661   4.861   4.885   1.712
 6552TIP3    H119662   4.861   4.866   1.805
 6552TIP3    H219663   4.945   4.851   1.681
 6553TIP3   OH219664   2.479   1.314   3.280
 6553TIP3    H119665   2.450   1.223   3.280
 6553TIP3    H219666   2.554   1.316   3.220
 6554TIP3   OH219667   4.141   4.910   2.914
 6554TIP3    H119668   4.069   4.963   2.881
 6554TIP3    H219669   4.113   4.882   3.001
 6555TIP3   OH219670   3.496   4.530   5.088
 6555TIP3    H119671   3.445   4.451   5.070
 6555TIP3    H219672   3.579   4.498   5.123
 6556TIP3   OH219673   6.062   4.146   4.870
 6556TIP3    H119674   6.138   4.113   4.919
 6556TIP3    H219675   6.053   4.086   4.796
 6557TIP3   OH219676   1.129   1.072   0.673
 6557TIP3    H119677   1.158   1.158   0.705
 6557TIP3    H219678   1.176   1.009   0.726
 6558TIP3   OH219679   1.415   1.190   3.669
 6558TIP3    H119680   1.354   1.146   3.728
 6558TIP3    H219681   1.367   1.199   3.587
 6559TIP3   OH219682   2.102   3.779   4.843
 6559TIP3    H119683   2.153   3.848   4.800
 6559TIP3    H219684   2.013   3.813   4.845
 6560TIP3   OH219685   1.882   3.247   1.111
 6560TIP3    H119686   1.906   3.304   1.183
 6560TIP3    H219687   1.883   3.159   1.148
 6561TIP3   OH219688   5.798   0.004   0.580
 6561TIP3    H119689   5.815   0.095   0.607
 6561TIP3    H219690   5.798   0.007   0.485
 6562TIP3   OH219691   4.224   1.187   4.127
 6562TIP3    H119692   4.265   1.134   4.196
 6562TIP3    H219693   4.290   1.193   4.058
 6563TIP3   OH219694   2.538   2.220   3.490
 6563TIP3    H119695   2.583   2.136   3.494
 6563TIP3    H219696   2.586   2.271   3.425
 6564TIP3   OH219697   3.629   0.297   2.050
 6564TIP3    H119698   3.721   0.277   2.036
 6564TIP3    H219699   3.605   0.351   1.974
 6565TIP3   OH219700   0.695   2.420   1.500
 6565TIP3    H119701   0.779   2.464   1.488
 6565TIP3    H219702   0.649   2.432   1.416
 6566TIP3   OH219703   1.124   5.947   0.145
 6566TIP3    H119704   1.119   5.994   0.062
 6566TIP3    H219705   1.065   5.872   0.133
 6567TIP3   OH219706   4.124   5.820   2.930
 6567TIP3    H119707   4.030   5.834   2.917
 6567TIP3    H219708   4.137   5.834   3.024
 6568TIP3   OH219709   2.759   3.298   4.444
 6568TIP3    H119710   2.824   3.366   4.460
 6568TIP3    H219711   2.780   3.266   4.356
 6569TIP3   OH219712   3.905   5.023   3.799
 6569TIP3    H119713   3.830   5.082   3.812
 6569TIP3    H219714   3.893   4.954   3.864
 6570TIP3   OH219715   5.641   2.398   0.383
 6570TIP3    H119716   5.731   2.367   0.366
 6570TIP3    H219717   5.586   2.339   0.331
 6571TIP3   OH219718   6.071   1.853   1.494
 6571TIP3    H119719   6.161   1.837   1.520
 6571TIP3    H219720   6.071   1.940   1.456
 6572TIP3   OH219721   1.283   4.856   0.804
 6572TIP3    H119722   1.323   4.862   0.717
 6572TIP3    H219723   1.341   4.907   0.861
 6573TIP3   OH219724   3.548   0.485   1.877
 6573TIP3    H119725   3.608   0.552   1.910
 6573TIP3    H219726   3.492   0.532   1.815
 6574TIP3   OH219727   2.342   1.185   2.280
 6574TIP3    H119728   2.291   1.248   2.230
 6574TIP3    H219729   2.338   1.217   2.370
 6575TIP3   OH219730   0.495   0.131   2.894
 6575TIP3    H119731   0.570   0.072   2.901
 6575TIP3    H219732   0.520   0.208   2.944
 6576TIP3   OH219733   0.094   3.810   2.563
 6576TIP3    H119734   0.040   3.733   2.579
 6576TIP3    H219735   0.169   3.777   2.513
 6577TIP3   OH219736   0.085   3.492   1.356
 6577TIP3    H119737   0.066   3.563   1.295
 6577TIP3    H219738   0.000   3.473   1.396
 6578TIP3   OH219739   1.362   2.509   1.861
 6578TIP3    H119740   1.307   2.465   1.926
 6578TIP3    H219741   1.388   2.440   1.801
 6579TIP3   OH219742   0.444   1.445   4.709
 6579TIP3    H119743   0.362   1.463   4.663
 6579TIP3    H219744   0.509   1.500   4.666
 6580TIP3   OH219745   5.427   3.462   4.788
 6580TIP3    H119746   5.374   3.395   4.744
 6580TIP3    H219747   5.516   3.428   4.783
 6581TIP3   OH219748   0.514   0.903   4.018
 6581TIP3    H119749   0.437   0.853   3.992
 6581TIP3    H219750   0.524   0.968   3.949
 6582TIP3   OH219751   3.056   2.991   2.326
 6582TIP3    H119752   3.033   3.081   2.305
 6582TIP3    H219753   3.152   2.989   2.323
 6583TIP3   OH219754   4.471   3.590   3.903
 6583TIP3    H119755   4.528   3.605   3.827
 6583TIP3    H219756   4.506   3.511   3.944
 6584TIP3   OH219757   5.723   0.756   4.092
 6584TIP3    H119758   5.746   0.719   4.177
 6584TIP3    H219759   5.655   0.697   4.058
 6585TIP3   OH219760   4.637   4.125   1.117
 6585TIP3    H119761   4.568   4.117   1.184
 6585TIP3    H219762   4.606   4.071   1.045
 6586TIP3   OH219763   1.566   4.295   2.802
 6586TIP3    H119764   1.609   4.380   2.795
 6586TIP3    H219765   1.472   4.315   2.808
 6587TIP3   OH219766   5.773   3.924   2.705
 6587TIP3    H119767   5.689   3.949   2.666
 6587TIP3    H219768   5.836   3.930   2.633
 6588TIP3   OH219769   4.136   0.210   1.911
 6588TIP3    H119770   4.119   0.209   1.817
 6588TIP3    H219771   4.153   0.118   1.934
 6589TIP3   OH219772   6.079   5.065   2.786
 6589TIP3    H119773   6.023   5.006   2.838
 6589TIP3    H219774   6.017   5.118   2.736
 6590TIP3   OH219775   0.977   2.074   4.962
 6590TIP3    H119776   0.959   2.168   4.948
 6590TIP3    H219777   0.997   2.040   4.874
 6591TIP3   OH219778   3.738   0.362   0.616
 6591TIP3    H119779   3.748   0.431   0.681
 6591TIP3    H219780   3.674   0.396   0.553
 6592TIP3   OH219781   0.462   1.876   4.259
 6592TIP3    H119782   0.489   1.889   4.168
 6592TIP3    H219783   0.436   1.784   4.263
 6593TIP3   OH219784   4.438   2.839   5.161
 6593TIP3    H119785   4.473   2.892   5.090
 6593TIP3    H219786   4.343   2.844   5.150
 6594TIP3   OH219787   2.533   5.680   3.613
 6594TIP3    H119788   2.563   5.633   3.535
 6594TIP3    H219789   2.466   5.623   3.651
 6595TIP3   OH219790   1.990   0.728   0.710
 6595TIP3    H119791   1.919   0.779   0.750
 6595TIP3    H219792   1.954   0.640   0.700
 6596TIP3   OH219793   1.329   1.247   0.809
 6596TIP3    H119794   1.304   1.214   0.895
 6596TIP3    H219795   1.283   1.331   0.802
 6597TIP3   OH219796   2.373   3.236   0.805
 6597TIP3    H119797   2.330   3.275   0.729
 6597TIP3    H219798   2.453   3.288   0.816
 6598TIP3   OH219799   2.590   4.620   4.138
 6598TIP3    H119800   2.564   4.625   4.229
 6598TIP3    H219801   2.626   4.531   4.129
 6599TIP3   OH219802   5.947   2.811   0.943
 6599TIP3    H119803   6.025   2.860   0.918
 6599TIP3    H219804   5.896   2.805   0.863
 6600TIP3   OH219805   3.385   5.808   3.802
 6600TIP3    H119806   3.431   5.793   3.885
 6600TIP3    H219807   3.440   5.871   3.755
 6601TIP3   OH219808   0.179   4.578   0.763
 6601TIP3    H119809   0.180   4.653   0.703
 6601TIP3    H219810   0.140   4.507   0.712
 6602TIP3   OH219811   0.345   1.453   0.394
 6602TIP3    H119812   0.340   1.522   0.461
 6602TIP3    H219813   0.307   1.492   0.316
 6603TIP3   OH219814   3.002   5.448   3.607
 6603TIP3    H119815   3.021   5.471   3.698
 6603TIP3    H219816   3.008   5.352   3.606
 6604TIP3   OH219817   1.127   1.666   0.385
 6604TIP3    H119818   1.096   1.662   0.294
 6604TIP3    H219819   1.210   1.619   0.384
 6605TIP3   OH219820   2.363   2.576   2.339
 6605TIP3    H119821   2.365   2.507   2.273
 6605TIP3    H219822   2.403   2.652   2.296
 6606TIP3   OH219823   0.740   4.961   2.691
 6606TIP3    H119824   0.664   4.975   2.634
 6606TIP3    H219825   0.716   4.885   2.744
 6607TIP3   OH219826   4.222   0.043   0.609
 6607TIP3    H119827   4.182   0.033   0.522
 6607TIP3    H219828   4.312   0.014   0.598
 6608TIP3   OH219829   4.280   2.783   1.464
 6608TIP3    H119830   4.289   2.848   1.535
 6608TIP3    H219831   4.309   2.701   1.503
 6609TIP3   OH219832   4.978   3.432   3.250
 6609TIP3    H119833   5.001   3.340   3.265
 6609TIP3    H219834   4.917   3.429   3.176
 6610TIP3   OH219835   6.219   0.823   0.472
 6610TIP3    H119836   6.191   0.771   0.547
 6610TIP3    H219837   6.144   0.879   0.453
 6611TIP3   OH219838   1.716   0.598   1.638
 6611TIP3    H119839   1.752   0.686   1.627
 6611TIP3    H219840   1.788   0.546   1.674
 6612TIP3   OH219841   4.099   2.951   4.475
 6612TIP3    H119842   4.130   3.040   4.493
 6612TIP3    H219843   4.177   2.904   4.446
 6613TIP3   OH219844   1.362   1.847   0.588
 6613TIP3    H119845   1.443   1.823   0.543
 6613TIP3    H219846   1.315   1.903   0.526
 6614TIP3   OH219847   5.795   0.107   4.093
 6614TIP3    H119848   5.706   0.138   4.112
 6614TIP3    H219849   5.811   0.133   4.003
 6615TIP3   OH219850   2.401   1.749   4.476
 6615TIP3    H119851   2.321   1.700   4.455
 6615TIP3    H219852   2.421   1.796   4.395
 6616TIP3   OH219853   0.958   1.178   1.018
 6616TIP3    H119854   0.885   1.168   1.080
 6616TIP3    H219855   0.933   1.125   0.942
 6617TIP3   OH219856   1.404   4.071   4.132
 6617TIP3    H119857   1.335   4.042   4.073
 6617TIP3    H219858   1.422   3.995   4.188
 6618TIP3   OH219859   5.130   4.229   1.658
 6618TIP3    H119860   5.120   4.236   1.753
 6618TIP3    H219861   5.224   4.238   1.643
 6619TIP3   OH219862   0.800   4.312   3.336
 6619TIP3    H119863   0.709   4.342   3.332
 6619TIP3    H219864   0.794   4.216   3.337
 6620TIP3   OH219865   5.036   2.689   3.242
 6620TIP3    H119866   4.949   2.712   3.209
 6620TIP3    H219867   5.022   2.662   3.333
 6621TIP3   OH219868   4.392   3.070   3.183
 6621TIP3    H119869   4.395   3.068   3.087
 6621TIP3    H219870   4.301   3.049   3.205
 6622TIP3   OH219871   0.985   4.836   4.395
 6622TIP3    H119872   0.980   4.931   4.403
 6622TIP3    H219873   0.897   4.810   4.369
 6623TIP3   OH219874   0.576   1.083   3.360
 6623TIP3    H119875   0.488   1.068   3.325
 6623TIP3    H219876   0.563   1.144   3.433
 6624TIP3   OH219877   3.205   0.563   4.515
 6624TIP3    H119878   3.122   0.591   4.475
 6624TIP3    H219879   3.181   0.488   4.569
 6625TIP3   OH219880   0.649   4.579   2.557
 6625TIP3    H119881   0.631   4.492   2.593
 6625TIP3    H219882   0.600   4.639   2.613
 6626TIP3   OH219883   1.078   1.479   5.072
 6626TIP3    H119884   1.169   1.468   5.099
 6626TIP3    H219885   1.084   1.494   4.977
 6627TIP3   OH219886   1.474   3.327   2.130
 6627TIP3    H119887   1.499   3.313   2.038
 6627TIP3    H219888   1.553   3.304   2.180
 6628TIP3   OH219889   3.354   0.091   3.474
 6628TIP3    H119890   3.358  -0.002   3.498
 6628TIP3    H219891   3.291   0.094   3.402
 6629TIP3   OH219892   2.254   3.072   0.505
 6629TIP3    H119893   2.302   3.042   0.583
 6629TIP3    H219894   2.173   3.020   0.507
 6630TIP3   OH219895   0.092   5.469   1.702
 6630TIP3    H119896   0.120   5.433   1.619
 6630TIP3    H219897   0.105   5.564   1.693
 6631TIP3   OH219898   5.313   5.616   1.444
 6631TIP3    H119899   5.327   5.525   1.470
 6631TIP3    H219900   5.223   5.618   1.409
 6632TIP3   OH219901   4.450   5.049   5.127
 6632TIP3    H119902   4.386   5.082   5.189
 6632TIP3    H219903   4.450   5.114   5.056
 6633TIP3   OH219904   5.837   3.233   2.037
 6633TIP3    H119905   5.881   3.211   1.955
 6633TIP3    H219906   5.894   3.296   2.079
 6634TIP3   OH219907   2.944   4.344   2.898
 6634TIP3    H119908   3.010   4.410   2.923
 6634TIP3    H219909   2.976   4.309   2.815
 6635TIP3   OH219910   2.883   4.930   0.338
 6635TIP3    H119911   2.926   4.925   0.424
 6635TIP3    H219912   2.821   5.002   0.347
 6636TIP3   OH219913   3.928   0.942   4.718
 6636TIP3    H119914   3.911   0.883   4.792
 6636TIP3    H219915   3.842   0.972   4.690
 6637TIP3   OH219916   3.048   1.282   3.138
 6637TIP3    H119917   3.106   1.236   3.199
 6637TIP3    H219918   3.097   1.287   3.056
 6638TIP3   OH219919   3.624   5.326   1.634
 6638TIP3    H119920   3.657   5.260   1.573
 6638TIP3    H219921   3.664   5.302   1.718
 6639TIP3   OH219922   3.077   4.423   0.791
 6639TIP3    H119923   3.167   4.441   0.765
 6639TIP3    H219924   3.086   4.372   0.872
 6640TIP3   OH219925   6.207   3.906   0.922
 6640TIP3    H119926   6.275   3.888   0.987
 6640TIP3    H219927   6.255   3.912   0.839
   6.35248   5.98917   5.18678   0.00000   0.00000  -2.11749   0.00000  -2.11749  -2.99459
