Title
19927
    1ASP      N    1   2.063   0.317   2.673  0.4832  0.2192 -0.3860
    1ASP    HT1    2   2.070   0.345   2.573  1.0112  1.0053 -0.1422
    1ASP    HT2    3   1.997   0.236   2.671  1.1923 -0.4164  0.8242
    1ASP    HT3    4   2.150   0.289   2.722  0.2410  0.7155  0.3376
    1ASP     CA    5   2.003   0.426   2.752 -0.3125 -0.4638 -0.9471
    1ASP     HA    6   2.022   0.399   2.855  0.2444  0.1650 -0.8804
    1ASP     CB    7   2.088   0.555   2.730 -0.5396 -0.1556 -0.1961
    1ASP    HB1    8   2.062   0.608   2.636 -0.7572  0.2992  0.1172
    1ASP    HB2    9   2.196   0.529   2.734 -0.2206  0.9921 -0.8497
    1ASP     CG   10   2.077   0.660   2.835  0.7334  0.2693 -0.3207
    1ASP    OD1   11   2.019   0.622   2.939 -0.3972 -0.0486 -0.6751
    1ASP    OD2   12   2.139   0.767   2.822  0.6256  0.1857  0.2823
    1ASP      C   13   1.853   0.437   2.726 -0.5462  0.8242  0.2861
    1ASP      O   14   1.801   0.371   2.635 -0.1832  0.4310  0.5195
    2ALA      N   15   1.778   0.504   2.814  0.1158  0.2410  0.3670
    2ALA     HN   16   1.824   0.558   2.884  0.1703  0.3917  0.2143
    2ALA     CA   17   1.634   0.527   2.804  0.1943  0.4119 -0.1764
    2ALA     HA   18   1.597   0.426   2.790  0.6127 -0.1327  2.1219
    2ALA     CB   19   1.594   0.578   2.938  0.6289 -0.0461  0.5024
    2ALA    HB1   20   1.637   0.508   3.012  1.6187 -0.2014 -0.1975
    2ALA    HB2   21   1.483   0.583   2.940  0.5518 -1.5735  2.2133
    2ALA    HB3   22   1.630   0.682   2.950 -0.2656  0.5884 -1.7138
    2ALA      C   23   1.583   0.599   2.684  0.2472 -0.6822 -0.9306
    2ALA      O   24   1.658   0.660   2.611  0.4522 -0.8331 -0.7271
    3ASP      N   25   1.457   0.577   2.656 -0.0140  0.7416 -0.2679
    3ASP     HN   26   1.403   0.518   2.715  0.4214  0.9393  0.3398
    3ASP     CA   27   1.386   0.641   2.544 -0.5559  1.4493 -0.4147
    3ASP     HA   28   1.435   0.615   2.451 -2.0334  0.0629 -0.8622
    3ASP     CB   29   1.241   0.583   2.525  0.0683 -0.9039  0.3009
    3ASP    HB1   30   1.201   0.643   2.440  0.5365 -0.7981  0.1503
    3ASP    HB2   31   1.169   0.600   2.607  1.3376  1.9949  0.9450
    3ASP     CG   32   1.242   0.440   2.479  0.2359  0.3964 -0.5416
    3ASP    OD1   33   1.133   0.384   2.445  0.4879 -0.3930 -0.0174
    3ASP    OD2   34   1.348   0.372   2.475  0.0902 -0.1171 -0.3114
    3ASP      C   35   1.384   0.792   2.555 -0.5926 -0.5505  0.2454
    3ASP      O   36   1.377   0.834   2.672 -0.2547 -0.1225 -0.3182
    4GLY      N   37   1.398   0.854   2.440 -0.3648  0.3162 -0.6050
    4GLY     HN   38   1.409   0.800   2.357  2.8036 -1.0437  0.5492
    4GLY     CA   39   1.424   0.998   2.428 -0.1307  0.0605  0.0209
    4GLY    HA1   40   1.421   1.018   2.322  0.0296  1.3555  0.2367
    4GLY    HA2   41   1.524   1.016   2.464 -0.5312  2.5909  0.0577
    4GLY      C   42   1.328   1.088   2.494  0.3839 -0.2062  0.3794
    4GLY      O   43   1.217   1.044   2.539 -0.1856 -0.2645 -0.2531
    5PRO      N   44   1.368   1.214   2.506 -0.0758  0.5349 -0.4943
    5PRO     CD   45   1.485   1.274   2.439 -0.0961 -0.4858 -0.7202
    5PRO    HD1   46   1.493   1.242   2.333 -2.6063  1.5161 -1.6335
    5PRO    HD2   47   1.572   1.248   2.501 -0.5937 -1.1639 -0.2945
    5PRO     CA   48   1.285   1.316   2.584  0.5253 -1.0185  0.6469
    5PRO     HA   49   1.273   1.274   2.682  1.6347 -1.5507  0.5729
    5PRO     CB   50   1.388   1.432   2.583  0.5568  0.0795  0.5457
    5PRO    HB1   51   1.465   1.418   2.662 -0.6900  1.0165  2.0044
    5PRO    HB2   52   1.332   1.526   2.602 -0.1143 -0.1518 -0.2564
    5PRO     CG   53   1.464   1.425   2.453  0.6453 -0.0136  0.1315
    5PRO    HG1   54   1.399   1.460   2.371 -0.5806  1.1385  1.5357
    5PRO    HG2   55   1.558   1.485   2.444  0.1685  0.6472 -0.5619
    5PRO      C   56   1.141   1.336   2.537 -0.7567 -0.9968 -0.8107
    5PRO      O   57   1.123   1.365   2.422  0.5023 -0.0229 -0.0314
    6GLY      N   58   1.050   1.319   2.632  0.0142 -0.0651 -0.4250
    6GLY     HN   59   1.068   1.287   2.724 -2.9889 -0.1578  0.2300
    6GLY     CA   60   0.902   1.333   2.616 -0.1780  0.2049 -0.4794
    6GLY    HA1   61   0.854   1.303   2.708  2.3167  0.7637  1.1234
    6GLY    HA2   62   0.869   1.265   2.539 -1.3719 -1.4937  1.4380
    6GLY      C   63   0.847   1.470   2.579  0.0544 -0.0876  0.7426
    6GLY      O   64   0.917   1.560   2.530 -0.0468  0.9339 -0.2963
    7ASP      N   65   0.718   1.486   2.599  0.2658 -1.1639  0.5632
    7ASP     HN   66   0.654   1.415   2.624 -2.6237  0.3093 -1.9443
    7ASP     CA   67   0.648   1.621   2.593 -0.5690  0.2335 -0.5264
    7ASP     HA   68   0.668   1.680   2.504 -0.3080  0.5910 -0.2311
    7ASP     CB   69   0.489   1.604   2.606 -0.9316 -0.4555 -0.5149
    7ASP    HB1   70   0.455   1.710   2.603 -1.5249 -0.6468 -0.7078
    7ASP    HB2   71   0.469   1.556   2.704 -0.5825 -0.8550 -0.6362
    7ASP     CG   72   0.436   1.532   2.494 -0.1761 -0.4300  0.2197
    7ASP    OD1   73   0.503   1.503   2.390 -0.0209 -0.3243  0.3658
    7ASP    OD2   74   0.307   1.517   2.495 -0.1924  0.1108  0.2975
    7ASP      C   75   0.688   1.701   2.720  0.3320  0.9968 -0.2357
    7ASP      O   76   0.696   1.643   2.831  0.0590  0.3479 -0.0811
    8PRO      N   77   0.715   1.832   2.716 -0.2610  0.7945  0.0507
    8PRO     CD   78   0.721   1.918   2.597  0.2400 -0.0644  1.4650
    8PRO    HD1   79   0.615   1.928   2.565 -0.1572  1.0185  2.9805
    8PRO    HD2   80   0.789   1.878   2.519 -0.0009  2.0695  0.0699
    8PRO     CA   81   0.714   1.922   2.832  0.0258  0.6076  0.5950
    8PRO     HA   82   0.810   1.918   2.881 -0.0360  1.9848  0.8658
    8PRO     CB   83   0.701   2.065   2.781  0.1129 -1.4834 -0.1768
    8PRO    HB1   84   0.739   2.148   2.845 -1.5258  0.5359 -1.7170
    8PRO    HB2   85   0.596   2.094   2.758 -0.3517 -1.5530  1.6553
    8PRO     CG   86   0.769   2.051   2.652 -0.6304 -0.2553 -0.1395
    8PRO    HG1   87   0.761   2.130   2.574  5.2706  0.7773 -0.1493
    8PRO    HG2   88   0.874   2.022   2.674 -0.3397 -0.6299 -1.8863
    8PRO      C   89   0.600   1.892   2.932 -0.1117 -0.4179  0.0123
    8PRO      O   90   0.488   1.880   2.884 -0.1872  0.2844  0.1993
    9ASP      N   91   0.633   1.880   3.064 -0.2048 -0.0051  0.6639
    9ASP     HN   92   0.731   1.867   3.077 -0.2251 -0.7869  0.1429
    9ASP     CA   93   0.544   1.846   3.177  0.3271 -0.8408  0.3588
    9ASP     HA   94   0.605   1.868   3.263  1.4911  2.4932 -1.1518
    9ASP     CB   95   0.411   1.926   3.191  0.5070  0.4166 -0.2282
    9ASP    HB1   96   0.357   1.907   3.286 -0.7294 -0.2325 -1.0355
    9ASP    HB2   97   0.346   1.898   3.105  2.2393 -1.3118 -1.0577
    9ASP     CG   98   0.440   2.070   3.188  0.2517  0.2383 -0.2751
    9ASP    OD1   99   0.364   2.147   3.122 -0.0245 -0.4755 -0.5316
    9ASP    OD2  100   0.538   2.118   3.251  0.2490  0.8226  0.0435
    9ASP      C  101   0.515   1.700   3.197 -0.3265  0.8231 -0.6774
    9ASP      O  102   0.441   1.665   3.290  0.1993  0.6875 -0.8954
   10ALA      N  103   0.579   1.607   3.125  0.1698  0.0631  0.3872
   10ALA     HN  104   0.624   1.641   3.043  0.6670  1.0455  1.0576
   10ALA     CA  105   0.564   1.462   3.137  0.2022  0.8364  0.0840
   10ALA     HA  106   0.471   1.431   3.183  0.1701 -0.5295 -0.8499
   10ALA     CB  107   0.560   1.398   2.992  0.6887  0.1253  0.1116
   10ALA    HB1  108   0.517   1.296   3.001 -2.9185  1.4546 -0.4100
   10ALA    HB2  109   0.660   1.399   2.944 -0.7893  1.6861 -3.2177
   10ALA    HB3  110   0.481   1.452   2.937 -1.7818 -2.1068  1.2502
   10ALA      C  111   0.670   1.393   3.217 -0.0614 -0.1818 -0.2694
   10ALA      O  112   0.657   1.277   3.255 -0.2582  0.3062 -0.0966
   11GLY      N  113   0.773   1.470   3.261 -0.1648  0.1330 -0.0661
   11GLY     HN  114   0.769   1.569   3.244 -1.1209 -0.1017 -1.3427
   11GLY     CA  115   0.880   1.430   3.340 -0.3142 -0.6107 -0.3663
   11GLY    HA1  116   0.943   1.358   3.291  2.9075 -0.4848  3.1056
   11GLY    HA2  117   0.853   1.388   3.436  2.5210 -0.8017  0.4388
   11GLY      C  118   0.969   1.552   3.379  0.4730  0.4156  0.2485
   11GLY    OT1  119   1.072   1.533   3.447  0.3212 -0.2937  0.1834
   11GLY    OT2  120   0.931   1.665   3.345 -0.9113 -0.0606  0.4103
   12SOD    SOD  121   3.349   4.461   4.693 -0.0705 -0.4991 -0.3900
   13SOD    SOD  122   2.732   5.232   3.866 -0.2783 -0.1811  0.0546
   14SOD    SOD  123   1.960   1.365   4.402  0.6310 -0.1177 -0.3686
   15SOD    SOD  124   5.485   1.632   4.057  0.3006  0.0713 -0.4673
   16SOD    SOD  125   0.307   2.720   3.452  0.1459 -0.0491  0.4152
   17SOD    SOD  126   0.332   4.174   4.022 -0.2217  0.0702 -0.3414
   18SOD    SOD  127   5.743   5.651   2.359 -0.6443  0.1931  0.1618
   19SOD    SOD  128   4.492   5.082   5.061 -0.6688 -0.3105  0.0139
   20SOD    SOD  129   0.002   1.348   1.787 -0.0966  0.1251  0.3727
   21SOD    SOD  130   3.042   1.207   1.897 -0.3531 -0.3368  0.1638
   22SOD    SOD  131   5.890   4.302   1.247  0.2380 -0.1219  0.1637
   23SOD    SOD  132   2.126   1.871   4.346 -0.3802  0.2974  0.4732
   24SOD    SOD  133   4.245   5.616   2.207 -0.2488  0.0003  0.0333
   25SOD    SOD  134   1.316   5.424   1.353 -0.0994  0.3846  0.1793
   26SOD    SOD  135   5.618   4.608   0.359 -0.0819 -0.3521  0.0022
   27SOD    SOD  136   1.463   2.120   3.477  0.3719 -0.3092  0.4145
   28SOD    SOD  137   1.994   5.139   4.286 -0.2598 -0.0677  0.1094
   29SOD    SOD  138   3.396   5.289   0.752 -0.2384  0.6143 -0.2531
   30SOD    SOD  139   3.807   1.953   4.426 -0.0962  0.3931  0.1301
   31SOD    SOD  140   5.054   5.799   2.757  0.4495 -0.1534 -0.3499
   32SOD    SOD  141   5.147   1.629   0.597 -0.3645 -0.1782  0.0127
   33SOD    SOD  142   1.919   0.661   1.376 -0.1723  0.1224 -0.0243
   34CLA    CLA  143   1.229   1.123   4.982  0.4233  0.0204 -0.1187
   35CLA    CLA  144   1.484   1.515   3.817 -0.0742 -0.5997 -0.1077
   36CLA    CLA  145   5.306   0.962   0.930 -0.0896  0.0443  0.2252
   37CLA    CLA  146   6.035   5.915   1.367  0.2321 -0.2763 -0.0051
   38CLA    CLA  147   3.079   5.177   4.094 -0.5079  0.0658  0.0269
   39CLA    CLA  148   0.433   5.920   4.655 -0.1963 -0.8242 -0.3822
   40CLA    CLA  149   2.544   4.802   2.743 -0.0141  0.4390  0.4431
   41CLA    CLA  150   1.125   0.379   0.434 -0.4764 -0.0346 -0.0976
   42CLA    CLA  151   4.665   1.437   3.222  0.0979 -0.1027 -0.3682
   43CLA    CLA  152   5.698   4.615   1.811  0.7767 -0.4140  0.3526
   44CLA    CLA  153   1.814   5.214   3.445  0.2513 -0.1398 -0.2923
   45CLA    CLA  154   3.467   2.058   4.646  0.1190  0.0364 -0.2357
   46CLA    CLA  155   3.191   2.658   1.288 -0.0647  0.3314  0.3438
   47CLA    CLA  156   5.489   4.262   0.893 -0.2788 -0.2853 -0.0367
   48CLA    CLA  157   1.388   3.605   4.932 -0.0394  0.2792  0.6839
   49CLA    CLA  158   3.086   5.946   2.333  0.0810 -0.2492 -0.0377
   50CLA    CLA  159   1.416   2.424   0.586  0.0370  0.0865  0.1110
   51CLA    CLA  160   1.993   2.555   2.394  0.1234 -0.0514  0.2338
   52TIP3   OH2  161   3.283   1.815   3.404 -0.1104  0.4816  0.2386
   52TIP3    H1  162   3.223   1.744   3.427  0.8581  0.2659  2.3162
   52TIP3    H2  163   3.252   1.846   3.319 -1.6829 -1.1936  0.1439
   53TIP3   OH2  164   3.297   4.914   0.159  0.0502  0.0890 -0.1726
   53TIP3    H1  165   3.332   4.876   0.240 -2.0602  0.3240  0.9176
   53TIP3    H2  166   3.205   4.888   0.159 -0.4407  1.7052 -1.5451
   54TIP3   OH2  167   3.523   4.378   5.134 -0.3029 -0.3536  0.3616
   54TIP3    H1  168   3.474   4.460   5.124 -1.0652 -0.8873 -0.3402
   54TIP3    H2  169   3.614   4.404   5.117 -0.7791 -0.0278 -2.1805
   55TIP3   OH2  170   5.155   5.324   0.900 -0.6822  0.0532 -0.5311
   55TIP3    H1  171   5.060   5.321   0.885 -0.6154  1.5380 -1.5486
   55TIP3    H2  172   5.165   5.324   0.995 -1.7266  0.1592 -0.4112
   56TIP3   OH2  173   0.776   5.450   3.146  0.2649 -0.2391 -0.3040
   56TIP3    H1  174   0.859   5.440   3.192  0.2594 -1.0798 -0.4608
   56TIP3    H2  175   0.734   5.364   3.152  0.0889 -0.2633 -1.5222
   57TIP3   OH2  176   4.131   0.433   0.465 -0.1664 -0.6205 -0.1216
   57TIP3    H1  177   4.090   0.390   0.540  3.3889 -3.8451  0.2557
   57TIP3    H2  178   4.164   0.516   0.500  0.1534 -1.4001  1.5026
   58TIP3   OH2  179   5.819   2.652   1.118 -0.2858 -0.4796  0.0019
   58TIP3    H1  180   5.853   2.632   1.031  0.5228 -0.9732  0.4241
   58TIP3    H2  181   5.727   2.624   1.114 -0.4276  0.0538 -0.8706
   59TIP3   OH2  182   1.483   1.798   4.204  0.6797  0.5644  0.3979
   59TIP3    H1  183   1.541   1.812   4.279  1.3309 -2.0993  0.5061
   59TIP3    H2  184   1.402   1.762   4.243  0.7094 -0.0461 -0.0836
   60TIP3   OH2  185   4.888   1.844   1.850 -0.7786  0.2529 -0.2336
   60TIP3    H1  186   4.874   1.821   1.941 -0.4436  1.1847  0.0658
   60TIP3    H2  187   4.806   1.823   1.806 -1.5460  1.4178  0.6191
   61TIP3   OH2  188   0.086   4.357   1.279 -0.1256 -0.0084 -0.1530
   61TIP3    H1  189   0.034   4.293   1.328  0.1636  0.6341  1.0363
   61TIP3    H2  190   0.030   4.381   1.205 -0.8396 -0.5600  0.1906
   62TIP3   OH2  191   0.629   4.497   2.119  0.6352 -0.1076 -0.0566
   62TIP3    H1  192   0.597   4.409   2.136  0.5992 -0.0346  0.2692
   62TIP3    H2  193   0.654   4.530   2.205  2.2161 -0.4074 -0.3635
   63TIP3   OH2  194   6.259   5.263   0.215 -0.0787 -0.3570 -0.0615
   63TIP3    H1  195   6.183   5.313   0.246 -1.0506 -0.3638 -2.2827
   63TIP3    H2  196   6.296   5.317   0.145  0.4234 -1.5559 -0.7448
   64TIP3   OH2  197   3.932   1.294   4.876 -0.0425  0.2563  0.2293
   64TIP3    H1  198   3.945   1.247   4.794  0.4246  1.5814 -0.4918
   64TIP3    H2  199   3.884   1.373   4.851 -2.0123 -0.4363  1.6034
   65TIP3   OH2  200   4.209   1.951   3.098  0.7452  0.1680  0.4298
   65TIP3    H1  201   4.183   1.900   3.175  0.1531  3.0031  2.2786
   65TIP3    H2  202   4.304   1.961   3.107  1.2310 -2.3027 -1.1521
   66TIP3   OH2  203   2.295   1.298   4.641  0.3692 -0.2091 -0.0980
   66TIP3    H1  204   2.356   1.371   4.652 -0.3516  0.5124 -0.7420
   66TIP3    H2  205   2.314   1.239   4.715 -0.0280  1.3325  1.2868
   67TIP3   OH2  206   6.274   1.652   3.904 -0.1127  0.2073 -0.1221
   67TIP3    H1  207   6.288   1.688   3.816  1.1807 -1.2995 -0.5721
   67TIP3    H2  208   6.355   1.606   3.925  0.0375  1.3997  2.3387
   68TIP3   OH2  209   5.243   4.314   3.212 -0.4744 -0.1170  0.2775
   68TIP3    H1  210   5.242   4.317   3.116 -0.2067  1.6371  0.2894
   68TIP3    H2  211   5.229   4.222   3.233  0.0802 -0.6510 -1.4560
   69TIP3   OH2  212   3.555   5.302   1.231 -0.1951 -0.3463 -0.2011
   69TIP3    H1  213   3.594   5.215   1.226 -2.2601 -1.3103 -0.7891
   69TIP3    H2  214   3.488   5.295   1.299 -0.7667  0.6054 -0.6332
   70TIP3   OH2  215   0.663   1.796   3.553  1.0244  0.4171  0.7992
   70TIP3    H1  216   0.659   1.749   3.636  1.7555 -0.2689  0.4529
   70TIP3    H2  217   0.741   1.762   3.509  0.0259 -0.0642 -0.6774
   71TIP3   OH2  218   3.834   3.801   3.506  0.0109 -0.6013 -0.2027
   71TIP3    H1  219   3.844   3.721   3.557  0.0251 -1.0012 -0.8195
   71TIP3    H2  220   3.826   3.870   3.571 -0.5873 -1.1713  0.3502
   72TIP3   OH2  221   0.822   0.253   4.148 -0.1387  0.1276 -0.2037
   72TIP3    H1  222   0.811   0.343   4.180 -4.3175  0.0191 -0.8040
   72TIP3    H2  223   0.797   0.199   4.222  1.5183 -0.6131 -0.1326
   73TIP3   OH2  224   5.224   3.265   0.570  0.0684 -0.1775 -0.2905
   73TIP3    H1  225   5.286   3.195   0.588  0.0076 -0.7814 -2.1725
   73TIP3    H2  226   5.240   3.289   0.479 -1.9554  0.1491 -0.6188
   74TIP3   OH2  227   5.075   1.815   3.819  0.3222 -0.1875 -0.8395
   74TIP3    H1  228   4.999   1.839   3.871 -0.9626  0.5091 -2.9438
   74TIP3    H2  229   5.128   1.895   3.815  0.6494 -0.3676 -0.2778
   75TIP3   OH2  230   4.896   5.304   2.624 -0.2003  0.1615 -0.3229
   75TIP3    H1  231   4.944   5.368   2.571  0.5615 -1.1204 -1.2395
   75TIP3    H2  232   4.823   5.276   2.568 -2.2028  2.1552  1.0842
   76TIP3   OH2  233   3.168   2.737   4.335  0.5883 -0.2388 -0.2083
   76TIP3    H1  234   3.255   2.738   4.376  1.1457  0.1047 -1.3651
   76TIP3    H2  235   3.134   2.826   4.351  0.0149 -0.6737  1.1070
   77TIP3   OH2  236   3.144   4.909   1.678 -0.2073 -0.3685 -0.1648
   77TIP3    H1  237   3.222   4.910   1.622 -0.5478  2.0870 -0.7319
   77TIP3    H2  238   3.080   4.964   1.631 -1.1385  0.3184  1.7823
   78TIP3   OH2  239   1.165   3.255   0.924 -0.0294  0.2263 -0.4678
   78TIP3    H1  240   1.182   3.178   0.870 -0.1306 -1.4134  1.7121
   78TIP3    H2  241   1.105   3.224   0.992  0.1036  2.1861  0.6202
   79TIP3   OH2  242   4.683   1.319   5.146  0.7831  0.2451 -0.5859
   79TIP3    H1  243   4.641   1.352   5.066 -0.6267  0.4838  0.2246
   79TIP3    H2  244   4.611   1.288   5.200  1.4939  1.9015  1.4299
   80TIP3   OH2  245   3.283   0.875   2.258 -0.6919  0.1669 -0.0324
   80TIP3    H1  246   3.304   0.929   2.334 -1.5212  0.3774  0.0604
   80TIP3    H2  247   3.264   0.789   2.294 -1.3909  0.3459  0.0383
   81TIP3   OH2  248   1.088   1.836   0.360 -0.7601  0.1163  1.0695
   81TIP3    H1  249   1.017   1.837   0.424 -1.2708 -1.0948  0.5496
   81TIP3    H2  250   1.045   1.834   0.275 -0.1013 -0.3648  0.7346
   82TIP3   OH2  251   2.783   2.642   0.828 -0.5264 -0.1520  0.4080
   82TIP3    H1  252   2.865   2.669   0.869 -0.5358 -0.2271  0.4766
   82TIP3    H2  253   2.808   2.612   0.741 -0.7508  1.9675 -0.4570
   83TIP3   OH2  254   0.232   5.497   4.858  0.5072 -0.1159 -0.3681
   83TIP3    H1  255   0.175   5.497   4.935 -0.5863  2.4788 -1.0796
   83TIP3    H2  256   0.302   5.559   4.879 -1.2216  2.7035 -2.3080
   84TIP3   OH2  257   0.720   4.445   3.813 -0.1502 -0.2198  0.0550
   84TIP3    H1  258   0.647   4.448   3.751 -0.0989  1.0715  0.0219
   84TIP3    H2  259   0.746   4.353   3.815 -1.2207 -0.5589 -0.5816
   85TIP3   OH2  260   1.836   1.526   0.506 -0.1724  0.8861 -0.3868
   85TIP3    H1  261   1.855   1.612   0.545 -0.9594 -0.6509  3.9351
   85TIP3    H2  262   1.750   1.503   0.541 -0.7656 -1.0176 -2.8436
   86TIP3   OH2  263   5.899   5.497   4.215  0.4323  0.2840 -0.1768
   86TIP3    H1  264   5.903   5.406   4.244  0.7155  0.0932 -0.8126
   86TIP3    H2  265   5.826   5.500   4.153 -0.5500  0.8186  0.9600
   87TIP3   OH2  266   3.424   4.544   0.904 -0.5532  0.2482 -0.0916
   87TIP3    H1  267   3.456   4.484   0.837 -0.5746 -0.5593  0.6053
   87TIP3    H2  268   3.355   4.594   0.860 -0.6017 -0.3023 -0.6545
   88TIP3   OH2  269   0.403   3.178   3.770 -0.0522 -0.0745 -0.5544
   88TIP3    H1  270   0.436   3.138   3.690 -0.3927 -0.5306 -0.4732
   88TIP3    H2  271   0.331   3.121   3.798 -1.0278  0.9715 -0.8250
   89TIP3   OH2  272   2.749   1.016   1.648 -0.2687 -0.9300  0.5076
   89TIP3    H1  273   2.715   0.931   1.675  1.7919 -1.5650  1.2837
   89TIP3    H2  274   2.837   0.997   1.615 -0.9282  0.4694 -2.4379
   90TIP3   OH2  275   3.398   2.431   1.594 -0.0241 -0.1271  0.5647
   90TIP3    H1  276   3.353   2.379   1.526  2.9866 -0.1503 -1.6239
   90TIP3    H2  277   3.435   2.366   1.653  0.7143 -0.3420 -0.1159
   91TIP3   OH2  278   1.202   2.750   0.939  0.1901  0.3067  0.1709
   91TIP3    H1  279   1.252   2.670   0.923  3.3753  2.0334  0.6503
   91TIP3    H2  280   1.165   2.737   1.027 -0.9547 -1.3095 -0.4911
   92TIP3   OH2  281   4.511   2.852   3.015  0.0491 -0.0838  0.5154
   92TIP3    H1  282   4.551   2.773   2.977  0.9181  0.8183 -0.5090
   92TIP3    H2  283   4.501   2.831   3.108 -1.0312 -1.9160  0.0534
   93TIP3   OH2  284   5.553   1.727   3.865 -0.0899  0.2497  0.1964
   93TIP3    H1  285   5.483   1.720   3.799 -0.2012 -2.4860  0.4886
   93TIP3    H2  286   5.628   1.762   3.816 -0.5627 -0.4248 -1.0766
   94TIP3   OH2  287   1.276   4.125   2.464  0.3790  0.1690 -0.0804
   94TIP3    H1  288   1.350   4.178   2.433 -1.3754  1.8022 -1.7776
   94TIP3    H2  289   1.315   4.065   2.527  3.3248  0.2317 -1.6371
   95TIP3   OH2  290   4.630   3.902   2.131  0.2523  0.9336 -0.4205
   95TIP3    H1  291   4.699   3.917   2.195  0.2690 -0.6407 -0.0275
   95TIP3    H2  292   4.551   3.934   2.173  0.0498 -1.1625  0.9611
   96TIP3   OH2  293   2.726   3.163   3.100  0.1690  0.6418  0.2554
   96TIP3    H1  294   2.705   3.158   3.193 -1.1436  0.7137 -0.0150
   96TIP3    H2  295   2.696   3.250   3.073 -0.6914  0.1396 -0.4954
   97TIP3   OH2  296   5.141   1.054   2.270 -0.0736 -0.2793 -0.1663
   97TIP3    H1  297   5.088   1.004   2.209  0.3618  0.6170 -1.3097
   97TIP3    H2  298   5.184   0.988   2.325 -1.2660 -1.0541 -0.1381
   98TIP3   OH2  299   1.850   1.224   3.897 -0.6730  0.1306 -0.1079
   98TIP3    H1  300   1.900   1.146   3.922  1.3584  1.5890  0.6963
   98TIP3    H2  301   1.762   1.208   3.930 -0.5529 -2.1572 -0.7184
   99TIP3   OH2  302   2.068   4.206   2.207  0.2063 -0.0907  0.2098
   99TIP3    H1  303   2.111   4.254   2.277 -0.3737  0.9854 -0.1506
   99TIP3    H2  304   1.986   4.175   2.245  0.5882 -0.8275  0.4473
  100TIP3   OH2  305   5.708   4.919   3.765  0.3031 -0.1323 -0.4806
  100TIP3    H1  306   5.686   4.829   3.790  2.6901 -0.7103 -0.2427
  100TIP3    H2  307   5.803   4.921   3.763  0.3253  2.4246 -0.4571
  101TIP3   OH2  308   4.682   5.344   1.243  0.0480 -0.4439 -0.2215
  101TIP3    H1  309   4.726   5.286   1.306  1.1561 -1.5969 -1.9761
  101TIP3    H2  310   4.723   5.429   1.256  0.0870 -0.6004  0.7722
  102TIP3   OH2  311   3.335   1.226   1.349  0.3485  0.1977 -0.2612
  102TIP3    H1  312   3.387   1.302   1.322 -2.8353  2.3571 -0.8505
  102TIP3    H2  313   3.310   1.183   1.268 -0.4872  0.4551 -0.1553
  103TIP3   OH2  314   4.947   4.049   2.122  0.0828 -0.1499  0.0075
  103TIP3    H1  315   4.910   3.988   2.186  1.9723 -1.7345 -0.3262
  103TIP3    H2  316   4.910   4.134   2.146 -1.0477 -1.0774  1.7590
  104TIP3   OH2  317   2.687   1.112   5.149  0.5678 -0.0554 -0.4316
  104TIP3    H1  318   2.622   1.047   5.175  0.3301 -0.3534 -1.7048
  104TIP3    H2  319   2.654   1.149   5.068 -0.0328  2.7379  0.9409
  105TIP3   OH2  320   2.321   3.868   4.219  0.4235  0.7710  0.3138
  105TIP3    H1  321   2.300   3.795   4.160  1.5743 -1.5894  2.6334
  105TIP3    H2  322   2.254   3.864   4.287  1.6996  0.4965  1.5893
  106TIP3   OH2  323   3.375   4.028   4.952  0.1669 -0.1299 -0.7530
  106TIP3    H1  324   3.293   4.074   4.967  0.1918 -0.2212 -0.3046
  106TIP3    H2  325   3.365   3.987   4.866 -0.2934 -0.2206 -0.6569
  107TIP3   OH2  326   1.674   2.625   4.220 -0.5550  0.0239  0.1161
  107TIP3    H1  327   1.600   2.606   4.277 -0.0287 -0.1064  0.7647
  107TIP3    H2  328   1.690   2.718   4.230  1.3771 -0.4741  2.4804
  108TIP3   OH2  329   4.657   1.560   2.824 -0.4928  0.9770  0.1457
  108TIP3    H1  330   4.628   1.511   2.901 -1.1005  1.3763  0.1713
  108TIP3    H2  331   4.750   1.576   2.840 -0.3051 -0.0479  0.1985
  109TIP3   OH2  332   3.061   0.155   1.491  0.1165 -0.1991 -0.5058
  109TIP3    H1  333   2.991   0.155   1.426  0.4570 -1.1368 -0.8848
  109TIP3    H2  334   3.021   0.192   1.570 -0.1948  1.3483 -1.3406
  110TIP3   OH2  335   1.076   4.691   1.095 -0.0816  0.1767  0.1189
  110TIP3    H1  336   1.069   4.782   1.065  0.1167  0.1150 -0.1198
  110TIP3    H2  337   1.132   4.649   1.030  3.7712  0.9924  2.5931
  111TIP3   OH2  338   6.225   3.922   1.125  0.5661  0.5824  0.1182
  111TIP3    H1  339   6.199   3.978   1.052  1.8445 -0.0552 -0.8661
  111TIP3    H2  340   6.143   3.884   1.156  0.1534 -0.7874 -2.3737
  112TIP3   OH2  341   1.442   5.683   2.500  0.3733  0.1405  0.0596
  112TIP3    H1  342   1.476   5.745   2.435 -0.9305  0.8372  0.0066
  112TIP3    H2  343   1.451   5.729   2.584  0.4703 -0.0658  0.1621
  113TIP3   OH2  344   4.058   4.380   2.824 -0.3007 -0.0310 -0.0096
  113TIP3    H1  345   4.038   4.376   2.731 -0.9613 -1.3249  0.1624
  113TIP3    H2  346   4.033   4.294   2.858  2.9363 -0.8385  0.7705
  114TIP3   OH2  347   6.133   5.718   0.027  0.4325  0.3766 -0.0253
  114TIP3    H1  348   6.070   5.673   0.083 -0.4658  0.9522 -0.5494
  114TIP3    H2  349   6.218   5.694   0.063 -0.0689 -0.6763  0.5006
  115TIP3   OH2  350   0.807   0.919   2.313 -0.4445 -0.3796 -0.4141
  115TIP3    H1  351   0.793   1.007   2.280 -1.3268 -0.0524  0.7618
  115TIP3    H2  352   0.726   0.872   2.292 -1.2994  0.0119  1.7129
  116TIP3   OH2  353   0.878   0.186   1.608 -0.7302  0.5378 -0.3394
  116TIP3    H1  354   0.837   0.112   1.653 -1.2522  1.8766  1.5007
  116TIP3    H2  355   0.929   0.230   1.676  1.3792  0.6410 -1.9050
  117TIP3   OH2  356   1.334   0.333   1.955 -0.0693 -0.0256 -0.2650
  117TIP3    H1  357   1.404   0.270   1.939  0.4530  0.0974  1.3745
  117TIP3    H2  358   1.254   0.288   1.926  0.3680 -1.2048  0.3066
  118TIP3   OH2  359   0.053   4.708   0.515 -0.5860 -0.6272 -0.2082
  118TIP3    H1  360   0.034   4.617   0.496 -0.6421 -1.2433  2.4466
  118TIP3    H2  361  -0.033   4.749   0.523 -0.5975 -0.7488  0.3123
  119TIP3   OH2  362   4.659   0.545   1.699 -0.0816  0.1746  0.0926
  119TIP3    H1  363   4.727   0.490   1.660 -0.8679 -0.9456  0.2353
  119TIP3    H2  364   4.602   0.569   1.625 -1.4185 -1.7248  0.4217
  120TIP3   OH2  365   5.242   1.268   4.394  0.2213 -0.3365 -0.2966
  120TIP3    H1  366   5.338   1.261   4.398  0.1485 -0.8959  0.6310
  120TIP3    H2  367   5.215   1.188   4.348  0.0900 -1.1230  1.0966
  121TIP3   OH2  368   3.659   0.482   0.454  0.6427  0.0806  0.2782
  121TIP3    H1  369   3.739   0.484   0.402 -0.0084  1.6368 -0.7199
  121TIP3    H2  370   3.601   0.423   0.407  0.4852  0.5516 -0.1284
  122TIP3   OH2  371   3.715   4.637   4.917  0.4745 -0.8155  0.3932
  122TIP3    H1  372   3.725   4.640   5.012 -1.2009  0.3230  0.5839
  122TIP3    H2  373   3.796   4.597   4.886  1.2031 -0.9296  2.2688
  123TIP3   OH2  374   0.312   5.121   2.028  0.8294 -0.3005 -0.0059
  123TIP3    H1  375   0.272   5.208   2.037 -0.0956 -0.7871  0.9413
  123TIP3    H2  376   0.259   5.066   2.086  1.9882 -1.2991  0.1240
  124TIP3   OH2  377   6.191   1.613   4.169 -1.1097  0.0719 -0.1471
  124TIP3    H1  378   6.145   1.530   4.160 -0.1946 -0.5279  0.5692
  124TIP3    H2  379   6.203   1.645   4.080  1.1624 -2.0252 -0.6804
  125TIP3   OH2  380   5.273   3.762   3.954  0.1402 -0.0044  0.5803
  125TIP3    H1  381   5.359   3.803   3.964 -0.1472  0.9468 -0.6824
  125TIP3    H2  382   5.292   3.672   3.927  0.7484  0.6457 -1.2524
  126TIP3   OH2  383   1.703   3.215   3.844 -0.5686  0.1475 -0.2532
  126TIP3    H1  384   1.659   3.255   3.769  0.6091  0.5465 -0.7473
  126TIP3    H2  385   1.655   3.248   3.920 -1.3626  0.2642 -0.7950
  127TIP3   OH2  386   4.279   5.317   3.231  0.2604  0.4122 -0.2524
  127TIP3    H1  387   4.227   5.345   3.306  1.6734  1.3424  0.4066
  127TIP3    H2  388   4.314   5.397   3.193  0.9145 -0.1609 -0.9102
  128TIP3   OH2  389   0.054   5.658   3.919  0.5044  0.3998  0.8111
  128TIP3    H1  390   0.133   5.686   3.965  0.6210  1.4048  0.0446
  128TIP3    H2  391  -0.011   5.645   3.988  1.7845 -2.2328  1.6435
  129TIP3   OH2  392   0.834   3.406   1.931  0.4297  0.0229 -0.2189
  129TIP3    H1  393   0.827   3.376   1.840  0.1978 -1.1241  0.1565
  129TIP3    H2  394   0.928   3.414   1.945  0.6706 -2.5834  0.2519
  130TIP3   OH2  395   2.304   4.874   2.958  0.3215 -0.3150 -0.1012
  130TIP3    H1  396   2.372   4.862   2.892  1.1484 -0.0653  0.6753
  130TIP3    H2  397   2.284   4.786   2.989  1.4020 -0.2893  0.7313
  131TIP3   OH2  398   4.677   1.957   4.133  0.6123  0.4086  0.2115
  131TIP3    H1  399   4.593   1.938   4.090  0.5886  1.1310 -0.0796
  131TIP3    H2  400   4.673   2.051   4.151  1.2160  0.3760  0.5237
  132TIP3   OH2  401   6.305   5.753   0.479 -0.3124  0.3154  0.1481
  132TIP3    H1  402   6.278   5.811   0.551  0.0819  0.6663  0.0168
  132TIP3    H2  403   6.232   5.693   0.468 -2.1000  2.6640 -1.7294
  133TIP3   OH2  404   2.831   4.603   1.451 -0.0510  0.2698 -0.7563
  133TIP3    H1  405   2.822   4.620   1.545  1.1737  0.3990 -0.6464
  133TIP3    H2  406   2.756   4.548   1.429  0.1488 -0.5386  0.4907
  134TIP3   OH2  407   3.633   1.783   4.400  0.2017 -0.1468 -0.5624
  134TIP3    H1  408   3.668   1.734   4.475  0.0834  0.9008  0.1942
  134TIP3    H2  409   3.540   1.763   4.400  0.0142  0.6404  0.2119
  135TIP3   OH2  410   0.567   5.353   1.682  0.0792  0.0601 -0.1989
  135TIP3    H1  411   0.659   5.378   1.693  0.2330 -0.8992  0.8662
  135TIP3    H2  412   0.519   5.435   1.685  0.9227  0.6136 -1.1648
  136TIP3   OH2  413   3.577   4.274   1.232  0.1974 -0.0976  0.3060
  136TIP3    H1  414   3.508   4.222   1.273 -2.3987  0.1342 -3.2544
  136TIP3    H2  415   3.605   4.222   1.157  3.9479 -0.0809  1.5156
  137TIP3   OH2  416   1.951   5.072   2.854 -0.1320 -0.0553 -0.5521
  137TIP3    H1  417   2.039   5.076   2.891 -0.5144 -0.5226  0.4665
  137TIP3    H2  418   1.961   5.103   2.764  0.7086  2.0328  0.1919
  138TIP3   OH2  419   2.330   1.732   3.341  0.1205  0.2612 -0.7175
  138TIP3    H1  420   2.400   1.699   3.286 -0.1799 -0.6006 -0.5975
  138TIP3    H2  421   2.254   1.678   3.318 -0.3045  0.6710 -0.2977
  139TIP3   OH2  422   0.443   4.510   2.552  0.1720  0.4874 -0.2119
  139TIP3    H1  423   0.453   4.415   2.557 -0.6124  0.3176 -1.4412
  139TIP3    H2  424   0.368   4.523   2.493  0.0473  1.8585  0.2217
  140TIP3   OH2  425   3.672   3.409   1.550  0.2830 -0.4889 -0.1140
  140TIP3    H1  426   3.665   3.440   1.640 -1.2673  1.8748 -0.9486
  140TIP3    H2  427   3.620   3.329   1.547 -0.3268 -0.1413  0.9228
  141TIP3   OH2  428   3.157   1.614   5.036 -0.9283 -0.7429  0.0087
  141TIP3    H1  429   3.129   1.595   4.946  0.8214  1.9564 -1.2448
  141TIP3    H2  430   3.114   1.696   5.058 -0.2661 -0.6763  1.1249
  142TIP3   OH2  431   2.391   3.092   1.335 -0.7475  0.7886 -0.3848
  142TIP3    H1  432   2.302   3.123   1.353 -1.2580 -1.9987  3.0164
  142TIP3    H2  433   2.378   3.005   1.297  0.5221  0.5002 -0.1875
  143TIP3   OH2  434   2.119   0.214   1.616  0.1613 -0.1349  0.3929
  143TIP3    H1  435   2.114   0.134   1.668 -1.7044  0.5772  1.4018
  143TIP3    H2  436   2.161   0.278   1.673 -1.4946  0.5276  0.9358
  144TIP3   OH2  437   5.449   0.344   1.274 -0.1234 -0.1044  0.4701
  144TIP3    H1  438   5.429   0.312   1.186  1.1166  0.2961  0.0131
  144TIP3    H2  439   5.539   0.377   1.267  0.4992 -1.2981  2.2289
  145TIP3   OH2  440   2.923   3.028   1.683  0.5280 -0.1416  0.3302
  145TIP3    H1  441   2.973   3.103   1.716  3.3443 -1.1193 -1.3994
  145TIP3    H2  442   2.839   3.066   1.657  1.2763  2.1156  0.9517
  146TIP3   OH2  443   0.010   5.644   2.994  0.4738  0.3998 -0.4881
  146TIP3    H1  444   0.044   5.674   2.910  1.4834 -0.3372 -0.3516
  146TIP3    H2  445   0.077   5.584   3.028  0.5850  1.4723  1.3269
  147TIP3   OH2  446   3.117   3.372   3.249 -0.6890  0.0756  0.0682
  147TIP3    H1  447   3.027   3.404   3.241 -1.1337 -1.0666  0.3083
  147TIP3    H2  448   3.108   3.284   3.286  0.5885  0.3469  1.0916
  148TIP3   OH2  449   6.327   3.099   0.072 -0.1587  0.9076  0.3932
  148TIP3    H1  450   6.268   3.024   0.081  0.2170  0.6646  0.9056
  148TIP3    H2  451   6.284   3.156   0.008 -0.2820  0.0955 -0.2563
  149TIP3   OH2  452   3.359   2.755   4.544 -0.6731  0.3388  0.2269
  149TIP3    H1  453   3.323   2.667   4.555  2.0681 -1.0482 -1.1432
  149TIP3    H2  454   3.435   2.757   4.602  1.3320  0.5045 -2.2675
  150TIP3   OH2  455   2.012   2.550   2.074 -0.2917  0.1877 -0.2296
  150TIP3    H1  456   2.024   2.640   2.045  0.3519  0.4400  0.7647
  150TIP3    H2  457   2.035   2.551   2.167 -0.6195 -0.9315 -0.1160
  151TIP3   OH2  458   2.494   5.002   0.048  0.4260  0.3651 -0.3170
  151TIP3    H1  459   2.440   5.010   0.127 -0.3277  0.3875 -0.8228
  151TIP3    H2  460   2.531   4.914   0.053 -0.6885 -0.1382 -0.5865
  152TIP3   OH2  461   1.788   2.310   4.416 -0.3428  0.0822 -0.1331
  152TIP3    H1  462   1.803   2.397   4.452 -0.1810 -0.4201  1.0676
  152TIP3    H2  463   1.873   2.284   4.380 -0.2001  0.1262  0.1684
  153TIP3   OH2  464   6.238   3.328   3.955 -0.1336  0.3870 -0.0142
  153TIP3    H1  465   6.174   3.380   3.906  0.2593  0.5871 -0.3226
  153TIP3    H2  466   6.223   3.353   4.046 -0.4366  0.4998 -0.0921
  154TIP3   OH2  467   0.395   3.398   5.131  0.8630 -0.0575 -0.2366
  154TIP3    H1  468   0.378   3.311   5.094  2.9462 -1.0680  0.9946
  154TIP3    H2  469   0.345   3.458   5.075  0.3379 -1.9086 -1.8802
  155TIP3   OH2  470   3.249   4.503   3.780 -0.3183 -0.1621 -0.2936
  155TIP3    H1  471   3.221   4.444   3.710 -2.4406  1.5397 -0.9619
  155TIP3    H2  472   3.220   4.460   3.860 -2.0741  0.0401 -0.7889
  156TIP3   OH2  473   6.283   5.897   3.512 -0.2761 -0.5014  0.5227
  156TIP3    H1  474   6.200   5.904   3.465  0.9512  3.4219 -1.5220
  156TIP3    H2  475   6.263   5.927   3.601 -1.0079  1.0292 -0.1276
  157TIP3   OH2  476   6.098   1.300   3.300 -0.0322 -0.3166 -0.5502
  157TIP3    H1  477   6.176   1.303   3.356  0.1557 -0.8973 -0.7771
  157TIP3    H2  478   6.098   1.384   3.255 -0.2595  0.2252  0.4137
  158TIP3   OH2  479   6.182   3.782   2.476 -0.3223  0.3326 -0.1502
  158TIP3    H1  480   6.198   3.706   2.420 -2.9343  0.1161 -0.7479
  158TIP3    H2  481   6.192   3.857   2.418 -2.1578  0.1503 -0.7752
  159TIP3   OH2  482   2.700   1.682   4.025 -0.4928 -0.5277  0.0208
  159TIP3    H1  483   2.692   1.750   3.957 -0.6143  0.0083  0.5639
  159TIP3    H2  484   2.709   1.601   3.976  2.4058  0.1224 -0.7140
  160TIP3   OH2  485   5.981   2.465   4.849  0.0169 -0.6077  0.2691
  160TIP3    H1  486   5.999   2.509   4.766  0.0706 -1.4904 -0.1966
  160TIP3    H2  487   5.948   2.534   4.907 -0.6753 -0.1126 -0.6991
  161TIP3   OH2  488   0.788   5.046   1.588 -0.6675  0.6856 -0.1147
  161TIP3    H1  489   0.699   5.035   1.554 -0.4368  0.5253 -0.6661
  161TIP3    H2  490   0.799   5.141   1.594 -1.4827  0.7270  1.5804
  162TIP3   OH2  491   3.819   4.052   2.710 -0.2559  0.1853  0.6267
  162TIP3    H1  492   3.776   3.978   2.754  0.6644 -0.3119  0.7127
  162TIP3    H2  493   3.871   4.094   2.780  1.7753 -1.0208 -0.0688
  163TIP3   OH2  494   0.366   0.786   2.064 -0.3070  0.3399  0.3470
  163TIP3    H1  495   0.306   0.806   2.136  0.8678  2.5080  0.7881
  163TIP3    H2  496   0.317   0.810   1.985 -1.2100 -1.0717  0.4374
  164TIP3   OH2  497   2.213   1.748   3.960 -0.0931 -0.0079 -0.5099
  164TIP3    H1  498   2.184   1.724   4.048 -0.2719 -0.8069 -0.7817
  164TIP3    H2  499   2.284   1.811   3.975 -1.4216  1.3922  0.1704
  165TIP3   OH2  500   3.203   5.436   2.991 -0.6930  0.2561 -0.7689
  165TIP3    H1  501   3.152   5.490   2.931  0.1124 -0.6942 -2.4127
  165TIP3    H2  502   3.143   5.414   3.062 -1.7115  1.3811 -1.2504
  166TIP3   OH2  503   5.643   0.997   3.703 -0.3899 -0.1783  0.0769
  166TIP3    H1  504   5.565   0.971   3.655  0.3076 -1.1959 -0.5467
  166TIP3    H2  505   5.713   0.996   3.638  0.6262 -1.8611  1.1054
  167TIP3   OH2  506   2.891   1.238   3.303 -0.5226 -0.0264 -0.1052
  167TIP3    H1  507   2.962   1.189   3.344 -1.0707  1.4833  2.9444
  167TIP3    H2  508   2.935   1.299   3.244  0.8786  1.2275  2.0847
  168TIP3   OH2  509   2.769   4.612   3.887  0.4334  0.0664  0.5076
  168TIP3    H1  510   2.785   4.564   3.806  0.7702 -0.2374  0.7520
  168TIP3    H2  511   2.712   4.555   3.938 -0.0896  0.4218  0.3335
  169TIP3   OH2  512   0.315   0.803   4.065 -0.2070  0.5288 -0.0856
  169TIP3    H1  513   0.321   0.887   4.109 -1.7228 -0.6121  2.5963
  169TIP3    H2  514   0.239   0.811   4.008  0.0536  1.1773 -0.3418
  170TIP3   OH2  515   0.307   3.502   1.601  0.0705 -0.2945  0.3369
  170TIP3    H1  516   0.288   3.504   1.507  2.3999 -0.4581 -0.1966
  170TIP3    H2  517   0.322   3.410   1.620 -1.1978 -0.3699  1.0920
  171TIP3   OH2  518   1.659   2.090   4.546  0.0426  0.0268  0.1712
  171TIP3    H1  519   1.679   2.154   4.614 -2.9591  1.1793  0.1284
  171TIP3    H2  520   1.668   2.139   4.464 -1.9344  0.4035  0.1228
  172TIP3   OH2  521   1.081   0.749   2.805  0.0196 -0.0386  0.5314
  172TIP3    H1  522   0.995   0.743   2.764  0.0958 -1.1561  0.5197
  172TIP3    H2  523   1.125   0.819   2.756 -0.2659 -0.6288 -0.6235
  173TIP3   OH2  524   0.099   1.617   4.538  0.4397  0.2839  0.0359
  173TIP3    H1  525   0.145   1.643   4.618 -0.0280  0.6747  0.1855
  173TIP3    H2  526   0.168   1.608   4.472  0.8786 -0.5106  0.6014
  174TIP3   OH2  527   2.566   3.622   3.980 -0.3040  0.5165  0.5956
  174TIP3    H1  528   2.578   3.545   4.035 -2.0251 -0.1468  0.1084
  174TIP3    H2  529   2.569   3.589   3.890 -2.0632  0.7977  0.3916
  175TIP3   OH2  530   3.413   0.344   4.586 -0.0275 -0.3222 -0.0591
  175TIP3    H1  531   3.377   0.380   4.667  0.1650 -1.0092  0.3437
  175TIP3    H2  532   3.356   0.377   4.517 -1.1404 -0.9977  0.5193
  176TIP3   OH2  533   1.907   3.020   4.445 -0.1616  0.0931  0.4878
  176TIP3    H1  534   1.875   2.991   4.530 -1.0035 -0.7336 -0.0936
  176TIP3    H2  535   1.902   3.115   4.448  0.1157  0.0864  1.4684
  177TIP3   OH2  536   5.964   2.629   3.120  0.4778  0.3314  0.8620
  177TIP3    H1  537   5.881   2.668   3.148  0.7146  1.0499  0.5833
  177TIP3    H2  538   6.030   2.695   3.139  1.0629 -0.4076  1.4946
  178TIP3   OH2  539   4.251   1.945   0.047  0.3549 -0.1208 -0.7203
  178TIP3    H1  540   4.219   1.976  -0.037  0.4272 -0.0412 -0.7184
  178TIP3    H2  541   4.345   1.932   0.035  0.4664  0.4336 -0.4924
  179TIP3   OH2  542   2.085   2.634   3.953 -0.0948 -0.2296  0.1159
  179TIP3    H1  543   2.059   2.557   3.903 -1.1190 -0.2086  0.5824
  179TIP3    H2  544   2.164   2.665   3.910  0.5385 -1.7383  0.1251
  180TIP3   OH2  545   2.307   4.645   0.120  0.1934 -0.3012 -0.4090
  180TIP3    H1  546   2.255   4.624   0.197  0.8144 -0.2794  0.0299
  180TIP3    H2  547   2.391   4.674   0.156  0.9351 -1.4921 -1.1286
  181TIP3   OH2  548   3.003   4.695   1.838 -0.5275 -0.2020 -0.2001
  181TIP3    H1  549   3.069   4.762   1.823  0.0265 -0.6090  0.3946
  181TIP3    H2  550   2.984   4.700   1.931 -1.4375 -0.0072 -0.3812
  182TIP3   OH2  551   1.305   3.767   2.412  0.4256 -0.0988 -0.2302
  182TIP3    H1  552   1.281   3.675   2.398 -0.3636  0.1137 -0.2724
  182TIP3    H2  553   1.247   3.796   2.482  0.9244  0.2709  0.0336
  183TIP3   OH2  554   4.354   3.665   2.871  0.2225  0.1541 -0.5051
  183TIP3    H1  555   4.333   3.752   2.906  0.4716 -1.0697  2.9979
  183TIP3    H2  556   4.274   3.614   2.883  0.8041 -0.7368 -0.3303
  184TIP3   OH2  557   1.907   4.063   0.081 -0.3544  0.4026 -0.2669
  184TIP3    H1  558   1.881   4.137   0.136 -2.1498  0.5024 -1.1996
  184TIP3    H2  559   1.825   4.017   0.062  0.7013 -1.8988  0.3385
  185TIP3   OH2  560   5.493   3.381   1.893 -0.2311  0.6700  0.4702
  185TIP3    H1  561   5.496   3.397   1.798  0.4615  1.8245  0.6682
  185TIP3    H2  562   5.414   3.426   1.922  0.0482  1.1036  0.5685
  186TIP3   OH2  563   2.821   2.631   2.153 -0.8853  0.1965  0.1050
  186TIP3    H1  564   2.853   2.655   2.066  0.2167  0.9234  0.6834
  186TIP3    H2  565   2.738   2.586   2.137  0.0397 -1.0638 -1.4207
  187TIP3   OH2  566   6.211   4.172   4.954  0.5883  0.4722 -0.1477
  187TIP3    H1  567   6.159   4.200   5.029 -0.7574 -0.4705 -0.6893
  187TIP3    H2  568   6.232   4.253   4.907 -0.7517  0.8587 -0.1252
  188TIP3   OH2  569   2.780   0.674   3.088 -0.1553  0.0049 -0.3460
  188TIP3    H1  570   2.800   0.624   3.167  0.5610 -1.0886 -1.2030
  188TIP3    H2  571   2.821   0.760   3.103 -0.3893 -0.0484  0.6322
  189TIP3   OH2  572   5.068   0.499   1.591 -0.1419 -0.0861  0.1229
  189TIP3    H1  573   4.988   0.550   1.578  0.1271  0.3808  0.2554
  189TIP3    H2  574   5.125   0.525   1.518 -0.3902 -0.9813 -0.3989
  190TIP3   OH2  575   3.589   2.910   3.483 -0.3755 -0.0996  0.3804
  190TIP3    H1  576   3.653   2.971   3.445 -0.0252 -0.4467  0.4057
  190TIP3    H2  577   3.528   2.967   3.531  0.7565  0.1554  1.5975
  191TIP3   OH2  578   0.311   2.476   4.786  0.1011 -0.3180 -0.0450
  191TIP3    H1  579   0.230   2.429   4.808 -2.5924  3.3173 -1.2333
  191TIP3    H2  580   0.324   2.458   4.693  0.7005 -0.8790  0.1404
  192TIP3   OH2  581   4.067   4.811   1.716  0.1208 -0.7561 -0.1248
  192TIP3    H1  582   3.977   4.828   1.746 -0.2846  1.3530 -2.2134
  192TIP3    H2  583   4.121   4.870   1.767  0.0916 -0.8040 -0.0384
  193TIP3   OH2  584   3.018   4.058   2.209  0.3855 -0.1096  0.4694
  193TIP3    H1  585   3.072   4.103   2.274 -0.0388  0.6542  0.3114
  193TIP3    H2  586   3.065   3.976   2.191  0.4939 -0.3651  1.7603
  194TIP3   OH2  587   3.450   4.412   0.323 -0.2508  0.1288 -0.1206
  194TIP3    H1  588   3.457   4.321   0.350 -0.2326  0.0315 -0.4450
  194TIP3    H2  589   3.477   4.463   0.399  2.0402 -0.1696 -0.6755
  195TIP3   OH2  590   4.778   3.349   4.748  0.4140 -0.2701  0.8225
  195TIP3    H1  591   4.780   3.296   4.827  1.8891 -1.6858 -0.1131
  195TIP3    H2  592   4.705   3.314   4.697 -0.2057  0.3018  1.2898
  196TIP3   OH2  593   4.466   1.815   1.787  0.6268 -0.0469  0.1846
  196TIP3    H1  594   4.393   1.875   1.799  0.6660  0.2524 -0.9260
  196TIP3    H2  595   4.427   1.728   1.788  0.5042  0.0111  1.3308
  197TIP3   OH2  596   1.669   3.868   4.306 -0.4120 -0.1616  0.9412
  197TIP3    H1  597   1.673   3.962   4.292  0.1300 -0.4536 -1.2728
  197TIP3    H2  598   1.751   3.847   4.350  0.2943  0.2013 -0.1636
  198TIP3   OH2  599   4.887   5.549   1.596  0.1449  0.3234  0.0712
  198TIP3    H1  600   4.819   5.604   1.558  0.7517  1.1686  0.1810
  198TIP3    H2  601   4.852   5.460   1.590 -0.6906  0.6750 -0.4519
  199TIP3   OH2  602   4.844   2.735   5.102  0.4809 -0.2827  0.0969
  199TIP3    H1  603   4.862   2.726   5.196 -2.2844  0.6829  0.8440
  199TIP3    H2  604   4.906   2.801   5.072  1.4105 -0.6021  1.2241
  200TIP3   OH2  605   2.215   5.486   2.308  0.1032 -0.0151  0.4983
  200TIP3    H1  606   2.201   5.558   2.246 -1.1176  1.2615  2.1534
  200TIP3    H2  607   2.206   5.407   2.255 -1.8463  0.9918 -0.8088
  201TIP3   OH2  608   3.593   5.699   3.833  0.4572  0.4545 -0.6335
  201TIP3    H1  609   3.527   5.639   3.798  0.7394  0.2875 -0.8786
  201TIP3    H2  610   3.555   5.786   3.823 -0.3797  0.2636  0.6213
  202TIP3   OH2  611   2.280   1.837   0.612  0.2333  0.1599 -0.4627
  202TIP3    H1  612   2.316   1.830   0.524 -2.4397  1.3938 -1.7771
  202TIP3    H2  613   2.303   1.926   0.640  1.9465 -0.5662  0.5687
  203TIP3   OH2  614   4.108   3.364   1.534  0.7694 -0.3148 -0.1596
  203TIP3    H1  615   4.057   3.392   1.610  0.3633 -2.4348  0.4134
  203TIP3    H2  616   4.194   3.341   1.571  1.2945  0.6590 -0.7124
  204TIP3   OH2  617   4.681   4.763   1.308  0.2767 -0.8290  0.8568
  204TIP3    H1  618   4.634   4.729   1.231 -0.9466  0.9590  0.7669
  204TIP3    H2  619   4.654   4.854   1.314  1.6306 -0.4992  2.4758
  205TIP3   OH2  620   0.898   1.212   0.253  0.6981  0.6591 -0.0462
  205TIP3    H1  621   0.909   1.117   0.260  2.3690  0.7243 -1.2818
  205TIP3    H2  622   0.970   1.249   0.304 -0.2224  1.3004  0.8272
  206TIP3   OH2  623   4.461   1.634   2.562 -0.3610  0.1524  0.2052
  206TIP3    H1  624   4.496   1.681   2.637  1.9180 -2.6632  1.1133
  206TIP3    H2  625   4.521   1.655   2.491 -0.4028  0.0420  0.1368
  207TIP3   OH2  626   0.600   1.117   4.926 -0.6762 -0.0865  0.2081
  207TIP3    H1  627   0.506   1.105   4.942 -0.2623 -1.5814  1.7080
  207TIP3    H2  628   0.603   1.178   4.852 -2.8535 -1.1060 -0.8379
  208TIP3   OH2  629   1.097   4.461   2.210  0.0202 -0.6951  0.5547
  208TIP3    H1  630   1.158   4.509   2.154 -1.3838 -0.4841 -0.8802
  208TIP3    H2  631   1.018   4.452   2.156  0.0974 -4.3626  0.8240
  209TIP3   OH2  632   0.477   0.130   4.468 -0.4941 -0.1073  0.4090
  209TIP3    H1  633   0.479   0.048   4.517 -0.7648 -0.4060 -0.0668
  209TIP3    H2  634   0.567   0.145   4.441 -0.5560 -0.6176 -0.0955
  210TIP3   OH2  635   1.619   2.593   0.163  0.4803 -0.2473 -0.6067
  210TIP3    H1  636   1.666   2.611   0.245  0.5971 -0.6197 -0.5883
  210TIP3    H2  637   1.536   2.641   0.172  1.0125  0.7249 -0.8047
  211TIP3   OH2  638   3.485   1.689   4.012  0.0165  0.2388 -0.1195
  211TIP3    H1  639   3.571   1.656   3.986 -0.4115  0.0000 -1.3398
  211TIP3    H2  640   3.465   1.645   4.094 -0.4439 -2.4904 -1.5810
  212TIP3   OH2  641   0.224   0.607   5.010 -0.4052 -0.5813 -0.3213
  212TIP3    H1  642   0.132   0.629   5.002 -0.9133 -2.3868  0.1105
  212TIP3    H2  643   0.228   0.544   5.081  0.9097 -1.8564 -1.4508
  213TIP3   OH2  644   5.649   0.803   3.870 -0.1960  0.4651  0.1552
  213TIP3    H1  645   5.728   0.766   3.832 -1.2779 -1.7613 -0.0888
  213TIP3    H2  646   5.640   0.890   3.830  0.7339 -0.2817 -1.7474
  214TIP3   OH2  647   4.542   5.092   0.058 -0.1587  0.4624 -0.4527
  214TIP3    H1  648   4.518   5.154  -0.012 -0.0141  0.7543 -0.2481
  214TIP3    H2  649   4.531   5.143   0.139 -0.6017  0.0382 -0.2457
  215TIP3   OH2  650   3.129   2.901   2.567 -0.2140 -0.1879  0.3914
  215TIP3    H1  651   3.160   2.991   2.558  1.2575 -0.4887  1.9696
  215TIP3    H2  652   3.089   2.880   2.483 -0.2567  1.8135 -0.1121
  216TIP3   OH2  653   4.106   4.718   4.383  0.1662  0.2091 -0.2013
  216TIP3    H1  654   4.148   4.716   4.297  2.1282  0.3361  0.6817
  216TIP3    H2  655   4.013   4.713   4.365  0.5835 -2.7042 -2.2265
  217TIP3   OH2  656   3.570   3.899   2.233 -0.7063 -0.0304  0.4179
  217TIP3    H1  657   3.597   3.969   2.293  1.3572 -1.5373  1.3908
  217TIP3    H2  658   3.577   3.939   2.146  3.1909  0.3551  0.6985
  218TIP3   OH2  659   6.023   5.326   3.465 -0.3332 -0.4095  0.1302
  218TIP3    H1  660   5.970   5.291   3.536 -0.7197 -0.0786  0.0112
  218TIP3    H2  661   6.053   5.411   3.498 -0.6665 -0.1740 -0.1755
  219TIP3   OH2  662   5.722   2.485   0.294 -0.4884  0.2162  0.6813
  219TIP3    H1  663   5.709   2.415   0.230  0.6549  0.7072 -0.1295
  219TIP3    H2  664   5.812   2.473   0.323  0.3827  2.4318 -0.8678
  220TIP3   OH2  665   1.235   0.799   0.826 -0.2818  0.3452 -0.1898
  220TIP3    H1  666   1.172   0.869   0.843 -0.6278 -0.3649  1.6727
  220TIP3    H2  667   1.233   0.745   0.905 -1.5617 -3.0000 -2.2633
  221TIP3   OH2  668   5.030   2.042   2.543 -0.7816  0.0250  0.0505
  221TIP3    H1  669   5.012   1.956   2.581 -1.0509 -0.2375 -0.6603
  221TIP3    H2  670   5.125   2.053   2.553 -0.4748 -1.0792 -1.3143
  222TIP3   OH2  671   3.118   4.103   3.453  0.2302  0.0221  0.3141
  222TIP3    H1  672   3.170   4.105   3.373 -0.7162  1.1447 -0.3208
  222TIP3    H2  673   3.041   4.051   3.431  0.0925  0.1089  0.5778
  223TIP3   OH2  674   2.015   4.364   0.526 -0.4795  0.1805  0.0636
  223TIP3    H1  675   1.954   4.305   0.570  0.8470 -0.1947  1.4778
  223TIP3    H2  676   2.087   4.307   0.498 -0.0661  0.8382 -0.2382
  224TIP3   OH2  677   3.821   3.841   0.339  0.6866  0.1144 -0.0949
  224TIP3    H1  678   3.895   3.863   0.395  0.7085 -0.8953  0.2837
  224TIP3    H2  679   3.855   3.846   0.250  1.2649 -0.5057  0.0857
  225TIP3   OH2  680   5.906   4.761   4.806 -0.1996  0.3679 -0.5278
  225TIP3    H1  681   5.915   4.789   4.715 -0.5016 -1.0744 -1.0265
  225TIP3    H2  682   5.824   4.712   4.808 -0.1080  0.2430  0.4820
  226TIP3   OH2  683   5.749   1.878   3.737  0.1573 -0.0725  0.2693
  226TIP3    H1  684   5.823   1.915   3.785 -0.6549  0.1282  1.4033
  226TIP3    H2  685   5.701   1.954   3.704  1.1478 -0.2002 -1.6409
  227TIP3   OH2  686   3.804   4.673   4.385 -0.1190  0.1928  0.0531
  227TIP3    H1  687   3.793   4.588   4.428 -0.6492  0.8182  1.2208
  227TIP3    H2  688   3.720   4.689   4.342 -0.3369  0.5072  0.5812
  228TIP3   OH2  689   4.579   0.427   3.312  0.8627  0.1780 -0.3511
  228TIP3    H1  690   4.627   0.344   3.302  0.9877  0.2977 -0.7562
  228TIP3    H2  691   4.587   0.448   3.405  0.7716 -0.3014 -0.2334
  229TIP3   OH2  692   1.525   5.161   3.293 -0.2430 -0.0785  0.3548
  229TIP3    H1  693   1.609   5.177   3.336 -0.4315 -0.4431  0.8696
  229TIP3    H2  694   1.516   5.065   3.292 -0.7980 -0.0369  0.6020
  230TIP3   OH2  695  -0.016   1.155   4.250 -0.1369  0.5197 -0.2664
  230TIP3    H1  696   0.047   1.086   4.268 -0.9056 -0.2273 -0.4020
  230TIP3    H2  697   0.036   1.236   4.250  1.0799 -0.2205 -1.7929
  231TIP3   OH2  698   0.088   1.106   1.829  0.0173 -0.1262  0.3792
  231TIP3    H1  699   0.045   1.075   1.908 -0.5750  0.3411  0.2491
  231TIP3    H2  700   0.170   1.056   1.824 -0.4514 -0.9290  0.6966
  232TIP3   OH2  701   5.469   4.975   0.118  0.1560 -0.1109 -0.1818
  232TIP3    H1  702   5.393   4.951   0.171  0.4650 -0.4058  0.1337
  232TIP3    H2  703   5.437   4.973   0.028 -0.2348 -0.1346 -0.0442
  233TIP3   OH2  704   0.944   1.627   2.886  0.3658 -0.9574  0.7617
  233TIP3    H1  705   0.855   1.610   2.857  0.2111 -0.5292  0.9794
  233TIP3    H2  706   0.935   1.694   2.954  0.7900 -1.4149  1.2805
  234TIP3   OH2  707   6.139   4.717   0.526 -0.3064  0.3990  0.3830
  234TIP3    H1  708   6.103   4.636   0.561  0.4448  0.0353  0.3355
  234TIP3    H2  709   6.077   4.785   0.552 -1.3769 -0.2962 -0.2892
  235TIP3   OH2  710   1.301   3.428   0.750  0.3760  0.2158  0.1264
  235TIP3    H1  711   1.242   3.374   0.803 -0.6008 -0.1994 -1.3318
  235TIP3    H2  712   1.247   3.501   0.720  1.0351  0.6823  0.0490
  236TIP3   OH2  713   0.983   5.569   2.320  0.5299  0.4367 -0.8030
  236TIP3    H1  714   1.044   5.609   2.382  0.9852 -1.6217  0.1572
  236TIP3    H2  715   0.915   5.530   2.375  0.1754 -0.2207 -1.6831
  237TIP3   OH2  716   4.903   3.588   4.429 -0.2484  0.4012  0.1476
  237TIP3    H1  717   4.930   3.501   4.458  1.5533  1.5485  2.2395
  237TIP3    H2  718   4.965   3.611   4.361 -1.9615 -0.6561 -1.8913
  238TIP3   OH2  719   5.816   4.190   4.269 -0.1260  0.0619  0.7548
  238TIP3    H1  720   5.765   4.129   4.323 -0.3469  0.4794  1.0207
  238TIP3    H2  721   5.760   4.268   4.262 -0.1419 -0.0198 -0.1504
  239TIP3   OH2  722   0.915   1.552   4.576  0.4305  0.1266  0.2092
  239TIP3    H1  723   0.914   1.457   4.578  0.5462  0.1186 -0.0545
  239TIP3    H2  724   0.869   1.576   4.496  4.4347  0.1377 -2.4078
  240TIP3   OH2  725   5.412   5.584   0.629  0.5240  0.3170  0.1702
  240TIP3    H1  726   5.396   5.616   0.718  0.2616  1.5224 -0.2930
  240TIP3    H2  727   5.482   5.641   0.596 -1.1984  1.6778 -1.3167
  241TIP3   OH2  728   2.088   2.428   0.320 -0.6766  0.0991 -0.0606
  241TIP3    H1  729   2.005   2.396   0.354 -0.6160  0.3752  0.3513
  241TIP3    H2  730   2.070   2.517   0.289 -0.3506  0.4760  0.8009
  242TIP3   OH2  731   5.421   1.381   1.295 -0.3488 -0.3534  0.6466
  242TIP3    H1  732   5.354   1.378   1.364 -1.0274  2.1371  0.1883
  242TIP3    H2  733   5.394   1.313   1.233 -0.7183 -1.4296  1.9443
  243TIP3   OH2  734   1.750   1.000   4.932 -0.0136 -0.3310 -0.2475
  243TIP3    H1  735   1.682   0.944   4.969  1.8188 -1.4959  1.6332
  243TIP3    H2  736   1.828   0.943   4.929  1.5198  1.6495  0.1895
  244TIP3   OH2  737   5.228   0.068   2.940  0.2274  0.3025  0.0174
  244TIP3    H1  738   5.167   0.076   3.014  0.6219 -2.2910  0.7508
  244TIP3    H2  739   5.191  -0.001   2.886  1.4781  0.0726 -0.5901
  245TIP3   OH2  740   3.500   4.284   2.401  0.2491 -0.4032  0.0884
  245TIP3    H1  741   3.565   4.338   2.445 -0.5111 -0.7694  1.7584
  245TIP3    H2  742   3.535   4.195   2.407 -0.2418 -0.5603  0.7103
  246TIP3   OH2  743   2.805   2.393   4.042 -0.6139  0.2234 -0.0820
  246TIP3    H1  744   2.839   2.307   4.020 -3.2573 -0.8241 -0.4149
  246TIP3    H2  745   2.874   2.433   4.095  1.3126 -1.4608 -1.1750
  247TIP3   OH2  746   1.239   4.814   2.337  0.5513 -0.0791 -0.1298
  247TIP3    H1  747   1.197   4.837   2.420 -0.9276 -2.2855 -0.1955
  247TIP3    H2  748   1.168   4.811   2.273  1.1362 -1.4809 -0.7703
  248TIP3   OH2  749   2.498   1.105   0.801  0.1534  0.1106  0.8111
  248TIP3    H1  750   2.466   1.179   0.751  1.5277 -1.4376 -2.6609
  248TIP3    H2  751   2.587   1.129   0.825  0.3570 -0.1292  0.3011
  249TIP3   OH2  752   4.490   4.259   1.081 -0.1282  0.5639 -0.0074
  249TIP3    H1  753   4.468   4.168   1.064 -1.0682  0.7807 -0.0547
  249TIP3    H2  754   4.566   4.277   1.026  0.5794 -0.4142  0.6235
  250TIP3   OH2  755   0.468   3.754   1.333 -1.0413 -0.2579  0.0491
  250TIP3    H1  756   0.488   3.798   1.251 -1.4528  1.4111  0.8113
  250TIP3    H2  757   0.426   3.672   1.307 -1.5049  0.4122 -1.3974
  251TIP3   OH2  758   1.126   4.850   1.790 -0.6259 -0.3835  0.0590
  251TIP3    H1  759   1.050   4.807   1.749 -0.9579  1.9597 -2.0803
  251TIP3    H2  760   1.088   4.905   1.858 -0.3351 -2.3528  1.8915
  252TIP3   OH2  761   5.985   3.075   3.664  0.0076  0.1852 -0.1053
  252TIP3    H1  762   6.054   3.067   3.731  1.5502  0.1991 -1.6212
  252TIP3    H2  763   5.920   3.009   3.689 -0.3192  1.3416  2.3364
  253TIP3   OH2  764   0.343   5.159   4.201 -0.2989 -0.1342 -0.1066
  253TIP3    H1  765   0.329   5.093   4.269 -1.5984  0.0620 -0.1548
  253TIP3    H2  766   0.268   5.149   4.142 -1.3052  2.3086  0.6501
  254TIP3   OH2  767   1.259   4.602   4.947  0.4293  0.1086  0.1277
  254TIP3    H1  768   1.169   4.572   4.939  0.4199 -0.2980  1.5203
  254TIP3    H2  769   1.254   4.698   4.939 -0.1785  0.1155  0.5721
  255TIP3   OH2  770   2.913   2.588   1.628 -0.0770 -0.4263 -0.1344
  255TIP3    H1  771   2.912   2.673   1.585  1.8147  0.1482  0.8482
  255TIP3    H2  772   2.842   2.592   1.692  0.2358  0.5761  0.1623
  256TIP3   OH2  773   3.042   1.352   2.532  0.7597 -0.3003  0.3326
  256TIP3    H1  774   3.033   1.418   2.463 -0.6684 -2.7702 -1.9978
  256TIP3    H2  775   3.099   1.394   2.597 -0.5449  3.4385 -0.6698
  257TIP3   OH2  776   4.691   4.468   2.694 -0.7764 -0.0322  0.7672
  257TIP3    H1  777   4.678   4.417   2.774 -3.5854 -0.7181 -0.0206
  257TIP3    H2  778   4.604   4.503   2.674 -0.2245 -0.1469 -2.1687
  258TIP3   OH2  779   0.650   0.179   3.915  0.6029  0.5354 -0.0120
  258TIP3    H1  780   0.617   0.263   3.884 -1.1148  0.2909  1.0285
  258TIP3    H2  781   0.702   0.200   3.992  1.0033  0.7308 -0.3360
  259TIP3   OH2  782   1.707   5.610   1.898 -0.1639  0.2950 -0.1924
  259TIP3    H1  783   1.766   5.542   1.930 -1.5067 -0.8140  0.0272
  259TIP3    H2  784   1.725   5.616   1.804  0.2437 -0.0822 -0.1405
  260TIP3   OH2  785   2.228   5.748   0.561  0.2905 -0.2943  0.3570
  260TIP3    H1  786   2.295   5.767   0.626 -0.0343 -0.7014  0.8172
  260TIP3    H2  787   2.224   5.653   0.557 -0.9028 -0.2886  1.0224
  261TIP3   OH2  788   3.520   5.624   3.462  0.3908  0.1932  0.2055
  261TIP3    H1  789   3.518   5.551   3.400 -0.1401 -1.8016  2.4124
  261TIP3    H2  790   3.613   5.647   3.469  0.7911 -1.4004  0.6274
  262TIP3   OH2  791   3.507   4.830   4.983  0.2170 -0.3188  0.1381
  262TIP3    H1  792   3.561   4.756   4.956  0.5195 -0.2357  0.5142
  262TIP3    H2  793   3.551   4.907   4.946 -0.8632 -0.4266 -1.4755
  263TIP3   OH2  794   0.034   4.000   3.128 -0.3247 -0.4550 -0.1311
  263TIP3    H1  795  -0.061   4.010   3.123 -0.3852 -1.3059 -0.9715
  263TIP3    H2  796   0.048   3.905   3.130  0.4945 -0.3323  0.3883
  264TIP3   OH2  797   1.415   0.833   1.855  0.4426 -0.0215 -0.0336
  264TIP3    H1  798   1.499   0.840   1.810  0.8613 -2.0673  0.3624
  264TIP3    H2  799   1.395   0.740   1.857 -0.4280  0.1262  2.3880
  265TIP3   OH2  800   0.479   2.763   3.297 -0.2989  0.4203  0.3557
  265TIP3    H1  801   0.569   2.768   3.263  0.1818 -0.2029  1.5153
  265TIP3    H2  802   0.424   2.768   3.218  0.7657 -0.0210 -0.4380
  266TIP3   OH2  803   0.812   3.951   2.629  0.6097 -0.2602  0.8382
  266TIP3    H1  804   0.774   4.018   2.686  2.1008  0.5457  0.9565
  266TIP3    H2  805   0.750   3.942   2.557  0.3285  1.2221  0.8612
  267TIP3   OH2  806   1.265   5.406   4.448 -0.2876 -0.0145  0.1761
  267TIP3    H1  807   1.295   5.496   4.464 -0.6114  0.5805 -2.2075
  267TIP3    H2  808   1.181   5.416   4.405 -0.7390 -1.5225  0.6476
  268TIP3   OH2  809   3.212   3.064   2.967 -0.4260  0.4369  0.0975
  268TIP3    H1  810   3.124   3.047   3.000 -0.3333 -0.7317 -0.1932
  268TIP3    H2  811   3.208   3.153   2.932 -1.5822  0.2910 -0.1959
  269TIP3   OH2  812   1.397   5.958   0.950 -0.3449 -0.0741 -0.0757
  269TIP3    H1  813   1.425   5.904   1.025  1.3031 -1.6427 -1.7195
  269TIP3    H2  814   1.314   5.997   0.979 -0.2115 -1.2912  2.2378
  270TIP3   OH2  815   0.687   2.676   0.357 -0.2318 -0.5105  0.5525
  270TIP3    H1  816   0.660   2.767   0.342 -0.7059 -0.5361  1.1738
  270TIP3    H2  817   0.722   2.676   0.446 -0.4055 -0.9730  0.6236
  271TIP3   OH2  818   2.163   0.814   4.279 -0.5232  0.6798 -0.0466
  271TIP3    H1  819   2.190   0.844   4.193 -1.9186 -0.8768 -1.0953
  271TIP3    H2  820   2.210   0.871   4.340 -0.9077  3.0474 -1.8198
  272TIP3   OH2  821   4.501   4.544   4.634 -0.8647  0.4583  0.4217
  272TIP3    H1  822   4.432   4.483   4.606 -0.6500  0.5789 -0.3961
  272TIP3    H2  823   4.555   4.492   4.693  0.3735 -0.7626 -1.6667
  273TIP3   OH2  824   4.996   5.772   4.489  0.4299  0.1390  0.2330
  273TIP3    H1  825   4.901   5.786   4.491  0.0231 -2.0902  3.6787
  273TIP3    H2  826   5.006   5.684   4.451  0.9874 -0.2151  1.1851
  274TIP3   OH2  827   3.725   5.016   4.974  0.0556  0.5785 -0.8651
  274TIP3    H1  828   3.738   4.956   5.047  0.6484  1.6472 -0.0613
  274TIP3    H2  829   3.812   5.027   4.937  0.6717  3.5524  1.1479
  275TIP3   OH2  830   1.825   4.027   2.886  0.1692  0.2628 -0.7467
  275TIP3    H1  831   1.730   4.033   2.872 -0.5467 -3.8167  0.9449
  275TIP3    H2  832   1.839   4.072   2.969 -1.3427 -2.9712  1.5124
  276TIP3   OH2  833   0.889   1.794   3.106 -0.2230 -0.0298 -0.0971
  276TIP3    H1  834   0.928   1.752   3.183  1.3387  1.3884 -0.0472
  276TIP3    H2  835   0.930   1.881   3.103 -1.6130  0.6232 -1.4986
  277TIP3   OH2  836   6.204   4.014   0.068 -0.0255 -0.0912  0.2683
  277TIP3    H1  837   6.192   4.087   0.129 -0.8991 -0.9097  1.0977
  277TIP3    H2  838   6.122   3.965   0.072  0.6992 -1.3608  0.0460
  278TIP3   OH2  839   5.559   1.262   5.001  0.1850  0.1097 -0.0236
  278TIP3    H1  840   5.496   1.311   5.053  0.4710  0.7748 -0.2807
  278TIP3    H2  841   5.582   1.322   4.930  0.3600 -0.4990 -0.4867
  279TIP3   OH2  842   2.884   3.626   3.573  0.1648  0.5273 -0.5442
  279TIP3    H1  843   2.874   3.618   3.668 -0.4483 -1.8885 -0.7308
  279TIP3    H2  844   2.853   3.714   3.552 -1.6105  0.4066  1.2951
  280TIP3   OH2  845   5.047   5.388   3.769  0.3171  0.0861  0.0916
  280TIP3    H1  846   5.042   5.482   3.749  1.6299 -0.0719 -1.0922
  280TIP3    H2  847   5.135   5.375   3.803  0.7925 -0.9937 -1.4437
  281TIP3   OH2  848   2.831   1.893   3.820 -0.4105  0.2975 -0.2864
  281TIP3    H1  849   2.902   1.945   3.858  0.1583 -1.2961  0.9822
  281TIP3    H2  850   2.874   1.810   3.796 -1.8195 -0.7149  0.5451
  282TIP3   OH2  851   5.262   5.478   2.699 -0.6986 -0.3201 -0.2463
  282TIP3    H1  852   5.197   5.426   2.745  0.0276 -1.5895 -0.6089
  282TIP3    H2  853   5.211   5.534   2.641 -1.5743  0.5206  1.2598
  283TIP3   OH2  854   0.969   5.465   2.065  0.2822 -0.1054 -0.2366
  283TIP3    H1  855   0.894   5.413   2.038  2.3066 -3.0727 -0.6402
  283TIP3    H2  856   0.949   5.492   2.154 -1.8313  0.4371 -0.8295
  284TIP3   OH2  857   4.182   4.579   1.862 -0.5206 -1.0589 -0.7059
  284TIP3    H1  858   4.134   4.633   1.799  0.6729 -1.7014 -2.2256
  284TIP3    H2  859   4.177   4.629   1.944 -3.5495 -1.0068 -0.8040
  285TIP3   OH2  860   2.248   5.551   0.076  0.4013  0.3103  0.2325
  285TIP3    H1  861   2.212   5.560   0.165  0.8614 -0.4775  0.5081
  285TIP3    H2  862   2.314   5.482   0.084  0.5783  0.3659 -0.6863
  286TIP3   OH2  863   2.497   4.640   3.728  0.1347 -0.0910  0.3690
  286TIP3    H1  864   2.573   4.692   3.702  0.5073 -1.0555 -0.4983
  286TIP3    H2  865   2.474   4.673   3.815  0.5505  1.3099 -0.0257
  287TIP3   OH2  866   2.707   1.172   4.880 -0.3192 -0.5355 -0.1664
  287TIP3    H1  867   2.680   1.136   4.796  0.3811 -3.3626  0.7041
  287TIP3    H2  868   2.802   1.156   4.884 -0.2109  0.2120  0.8710
  288TIP3   OH2  869   3.481   5.793   1.443 -0.3248  0.0275 -0.1040
  288TIP3    H1  870   3.492   5.699   1.460  0.3417 -0.2592 -1.9115
  288TIP3    H2  871   3.404   5.798   1.388 -0.2868  0.5352 -0.1085
  289TIP3   OH2  872   3.907   5.134   0.518  0.5289 -0.3426  0.2286
  289TIP3    H1  873   3.912   5.112   0.611 -0.0663 -0.3151  0.2699
  289TIP3    H2  874   3.997   5.124   0.486  0.6098 -1.0309  0.6516
  290TIP3   OH2  875   1.906   1.818   3.429  0.2315  0.0773 -0.4642
  290TIP3    H1  876   1.853   1.766   3.369  0.4089  0.3685 -0.8791
  290TIP3    H2  877   1.843   1.878   3.470 -0.0322 -0.6822  0.2720
  291TIP3   OH2  878   1.856   1.451   4.192 -0.1211 -0.1841  0.1718
  291TIP3    H1  879   1.789   1.494   4.139  0.8405  1.1589 -0.0140
  291TIP3    H2  880   1.893   1.384   4.135  0.2245  0.5893 -0.5423
  292TIP3   OH2  881   3.947   2.420   5.162  0.6740  0.0439 -0.1234
  292TIP3    H1  882   3.887   2.467   5.104 -0.7692 -1.1452  0.3468
  292TIP3    H2  883   4.026   2.409   5.110  0.5660  1.7340 -0.7351
  293TIP3   OH2  884   4.207   5.798   0.452  0.0833 -0.3175 -0.2875
  293TIP3    H1  885   4.185   5.807   0.545 -1.2219  0.4283 -0.6408
  293TIP3    H2  886   4.147   5.731   0.420 -0.2302  0.2006 -0.8098
  294TIP3   OH2  887   4.938   0.075   0.328 -0.0343 -0.2106 -0.1454
  294TIP3    H1  888   4.904   0.059   0.416 -1.7984 -1.2301 -0.9615
  294TIP3    H2  889   4.881   0.144   0.292  0.0710 -0.4660 -0.8206
  295TIP3   OH2  890   1.121   4.841   2.885 -0.0850  0.2252 -0.0154
  295TIP3    H1  891   1.170   4.851   2.803 -0.2133 -0.8813 -0.2474
  295TIP3    H2  892   1.139   4.921   2.933  1.9365 -0.1141 -0.1079
  296TIP3   OH2  893   1.926   0.087   3.198  0.2026 -0.0654 -0.2233
  296TIP3    H1  894   1.935   0.001   3.155  0.6722 -1.0129  1.6588
  296TIP3    H2  895   1.968   0.076   3.283 -1.5330  1.4208  0.9079
  297TIP3   OH2  896   1.320   4.247   2.214  0.0812 -0.1922 -0.0887
  297TIP3    H1  897   1.279   4.330   2.189 -0.9964 -0.9843 -1.0239
  297TIP3    H2  898   1.278   4.224   2.297 -0.1417 -0.1674 -0.1942
  298TIP3   OH2  899   4.388   4.952   1.391  0.1243 -0.0754  0.5120
  298TIP3    H1  900   4.344   4.871   1.418  1.7783 -1.0757  0.3633
  298TIP3    H2  901   4.330   4.990   1.325 -1.8194  0.0971  2.2340
  299TIP3   OH2  902   3.296   0.924   4.671 -0.2596  0.3258 -0.4067
  299TIP3    H1  903   3.342   0.844   4.645  1.3017  0.6466  1.1602
  299TIP3    H2  904   3.253   0.901   4.754  0.5742  1.2108  0.2941
  300TIP3   OH2  905   5.811   0.177   2.908  0.0738  0.0438 -0.4710
  300TIP3    H1  906   5.811   0.224   2.991  0.1378 -1.0940  0.1890
  300TIP3    H2  907   5.819   0.246   2.841  0.2955  0.9440  0.4644
  301TIP3   OH2  908   1.394   4.796   1.881  0.0362 -0.2873  0.2113
  301TIP3    H1  909   1.399   4.717   1.935  0.7191 -2.1125 -2.3769
  301TIP3    H2  910   1.312   4.787   1.833  0.1106  0.6094 -0.1015
  302TIP3   OH2  911   6.007   5.914   0.225  0.5931 -0.2042 -0.5863
  302TIP3    H1  912   6.048   5.944   0.144 -1.3823 -0.3276 -1.7209
  302TIP3    H2  913   5.994   5.820   0.212  0.0268 -0.1771 -0.2514
  303TIP3   OH2  914   5.006   1.180   4.800  0.0631 -0.0307  0.0982
  303TIP3    H1  915   4.958   1.130   4.734 -0.2609 -1.2941  1.2353
  303TIP3    H2  916   5.083   1.214   4.754 -1.3992  1.2076 -1.5007
  304TIP3   OH2  917   3.835   0.798   2.033 -0.1441  0.1891  0.9462
  304TIP3    H1  918   3.847   0.859   2.106  2.0747  0.1504  0.6822
  304TIP3    H2  919   3.858   0.849   1.955  2.3548 -1.0514  0.7738
  305TIP3   OH2  920   1.070   5.311   0.971  0.0301 -0.2886  0.0206
  305TIP3    H1  921   1.127   5.237   0.988  1.2210  0.5187 -0.3387
  305TIP3    H2  922   1.043   5.302   0.880 -0.1452 -0.4807  0.0904
  306TIP3   OH2  923   1.867   5.583   4.958 -0.1317 -0.1309 -0.4792
  306TIP3    H1  924   1.810   5.660   4.950  0.9056  0.5965 -1.1852
  306TIP3    H2  925   1.822   5.514   4.910  0.7557  1.1512 -3.3623
  307TIP3   OH2  926   2.210   3.840   2.367  0.7062  0.3521  0.5473
  307TIP3    H1  927   2.264   3.915   2.342 -0.5725  2.0801  2.6356
  307TIP3    H2  928   2.240   3.817   2.454 -0.1594 -0.3614  0.6740
  308TIP3   OH2  929   5.657   3.093   3.408  0.0431 -0.5474  0.6076
  308TIP3    H1  930   5.671   3.033   3.335  0.1264 -0.5556  0.6312
  308TIP3    H2  931   5.742   3.136   3.421 -0.2072  0.1301  0.0858
  309TIP3   OH2  932   0.105   0.658   3.847 -0.0685  0.5104 -0.5731
  309TIP3    H1  933   0.164   0.604   3.793  0.7622  1.1254 -0.2985
  309TIP3    H2  934   0.018   0.623   3.830  0.2160  0.4720 -2.0714
  310TIP3   OH2  935   4.470   1.928   0.766 -0.1734  0.1524 -0.2374
  310TIP3    H1  936   4.521   1.986   0.822 -0.6920  0.1212  0.2708
  310TIP3    H2  937   4.383   1.969   0.762 -0.7477 -0.9307  0.6729
  311TIP3   OH2  938   5.898   4.321   3.146  0.6150  0.2957  0.1379
  311TIP3    H1  939   5.957   4.245   3.148  0.0111 -0.1734  0.5850
  311TIP3    H2  940   5.943   4.385   3.090  0.8031 -0.6577 -0.8394
  312TIP3   OH2  941   0.832   1.147   4.357 -0.5148  0.5371 -0.4640
  312TIP3    H1  942   0.764   1.189   4.305  0.2604  2.0173 -0.3452
  312TIP3    H2  943   0.785   1.098   4.425 -1.4506  1.1189 -0.6801
  313TIP3   OH2  944   1.108   2.979   3.655  0.0205  0.4764  0.5642
  313TIP3    H1  945   1.090   3.024   3.573 -0.5348 -2.0040 -0.7690
  313TIP3    H2  946   1.191   2.933   3.640 -0.4717 -0.6311  1.0671
  314TIP3   OH2  947   4.191   4.939   4.024 -0.0438  0.0604 -0.3380
  314TIP3    H1  948   4.126   4.892   4.076  0.6341 -1.6232 -0.9300
  314TIP3    H2  949   4.194   4.891   3.941  1.4368  0.5198 -0.5790
  315TIP3   OH2  950   4.245   1.555   3.098 -0.6627 -0.4296 -0.6758
  315TIP3    H1  951   4.169   1.513   3.058  1.1620 -1.5765 -3.2625
  315TIP3    H2  952   4.319   1.526   3.044  1.4322  1.8304  0.7771
  316TIP3   OH2  953   1.493   2.327   1.634  0.0836  0.3078  0.1007
  316TIP3    H1  954   1.476   2.420   1.652  2.3169  0.5911  1.0797
  316TIP3    H2  955   1.439   2.280   1.697  0.7636  1.0388  1.2585
  317TIP3   OH2  956   3.007   3.588   4.969 -0.2791  0.1864  0.6195
  317TIP3    H1  957   3.078   3.597   4.905 -1.6553  1.4356 -0.8043
  317TIP3    H2  958   2.977   3.498   4.959 -0.7917  0.4985 -0.8717
  318TIP3   OH2  959   4.943   2.461   5.059  0.2293  0.5645  0.3559
  318TIP3    H1  960   4.933   2.423   4.972 -2.0376 -0.6666  1.0503
  318TIP3    H2  961   4.879   2.532   5.061  0.6515  0.9367  0.8405
  319TIP3   OH2  962   1.662   4.999   2.630  0.3144 -0.0265 -0.2222
  319TIP3    H1  963   1.606   4.929   2.597  1.0913 -1.3097  1.0607
  319TIP3    H2  964   1.735   4.954   2.672  0.5186  1.5335  1.2242
  320TIP3   OH2  965   3.268   5.726   3.116  0.4066 -0.0158  0.6035
  320TIP3    H1  966   3.188   5.749   3.162 -0.4786 -1.4666 -0.1434
  320TIP3    H2  967   3.245   5.649   3.064  2.1693 -0.2077  0.0337
  321TIP3   OH2  968   1.012   3.258   0.090  0.8894  0.1278 -0.3278
  321TIP3    H1  969   1.065   3.330   0.055  1.9257  0.3867  1.6509
  321TIP3    H2  970   1.037   3.182   0.037 -0.1070  1.1181 -2.3520
  322TIP3   OH2  971   1.130   0.753   4.186  0.3939 -0.2363  0.1166
  322TIP3    H1  972   1.040   0.777   4.208  1.1507  1.3327  1.8256
  322TIP3    H2  973   1.171   0.735   4.271  1.9508  0.1631 -0.5090
  323TIP3   OH2  974   3.173   0.181   0.378  0.0144  0.4064  0.1644
  323TIP3    H1  975   3.267   0.167   0.387 -0.0547  0.5105  1.1132
  323TIP3    H2  976   3.147   0.227   0.458 -0.9135  0.0299  0.1009
  324TIP3   OH2  977   0.047   3.143   3.464  0.2904 -0.2187 -0.0907
  324TIP3    H1  978  -0.010   3.208   3.505  0.4094  0.0906 -0.4133
  324TIP3    H2  979  -0.002   3.112   3.388 -0.7121 -2.1107  1.2463
  325TIP3   OH2  980   4.160   2.704   0.304 -0.2219  0.4411  1.0812
  325TIP3    H1  981   4.067   2.687   0.294 -0.2835  0.9580  0.7230
  325TIP3    H2  982   4.164   2.788   0.350  0.0503  0.9944  0.0935
  326TIP3   OH2  983   5.800   5.017   0.876 -0.3757 -0.7209 -0.1241
  326TIP3    H1  984   5.810   4.948   0.942 -1.8096 -1.0285 -0.1892
  326TIP3    H2  985   5.709   5.044   0.884  0.0326  0.8372 -0.4530
  327TIP3   OH2  986   5.138   2.144   2.256  0.1643  0.1062 -0.4794
  327TIP3    H1  987   5.074   2.157   2.186 -1.1462 -0.0276  0.6334
  327TIP3    H2  988   5.134   2.050   2.274 -0.8253  0.3840  0.9186
  328TIP3   OH2  989   6.193   0.333   4.722 -0.0930 -0.4368  0.2505
  328TIP3    H1  990   6.225   0.398   4.660 -0.3119 -1.1020 -0.5769
  328TIP3    H2  991   6.269   0.314   4.778 -0.0069  0.4588  0.4589
  329TIP3   OH2  992   2.698   4.847   3.715 -0.1974 -0.0860  0.3215
  329TIP3    H1  993   2.656   4.932   3.728 -0.8541 -0.2848 -0.4895
  329TIP3    H2  994   2.753   4.836   3.793 -2.1908 -0.1627  1.7929
  330TIP3   OH2  995   2.983   1.538   2.308  0.0933  0.0378  0.5679
  330TIP3    H1  996   2.921   1.609   2.326 -0.2982 -0.4980  1.4370
  330TIP3    H2  997   3.061   1.582   2.275  0.5402  1.0876  2.8092
  331TIP3   OH2  998   3.680   3.436   4.334 -0.3271  0.1535  0.1060
  331TIP3    H1  999   3.742   3.387   4.279  0.0004 -1.3176  1.7047
  331TIP3    H2 1000   3.600   3.384   4.332 -0.1788 -0.1588  1.3071
  332TIP3   OH2 1001   3.704   3.862   3.957 -0.1517  0.3475 -0.5319
  332TIP3    H1 1002   3.658   3.837   3.877 -1.0445  1.5867 -0.4464
  332TIP3    H2 1003   3.714   3.957   3.951  2.2913  0.1775 -0.4537
  333TIP3   OH2 1004   0.844   2.354   2.249  0.2560 -0.1214  0.4128
  333TIP3    H1 1005   0.932   2.391   2.251  0.2203  0.1289 -1.3626
  333TIP3    H2 1006   0.787   2.429   2.231 -0.0837 -0.6190 -0.6343
  334TIP3   OH2 1007   2.335   2.658   3.851  0.5913  0.0227 -0.6307
  334TIP3    H1 1008   2.400   2.629   3.915  0.9014  1.8800 -0.0297
  334TIP3    H2 1009   2.357   2.612   3.771  2.0151 -0.1562 -0.1602
  335TIP3   OH2 1010   1.883   4.592   4.922 -0.5713  0.2523 -0.2699
  335TIP3    H1 1011   1.838   4.510   4.942 -1.7275  1.0523  0.5342
  335TIP3    H2 1012   1.871   4.646   5.000  0.0844  1.2366 -0.8242
  336TIP3   OH2 1013   1.560   5.395   1.765 -0.1399  0.2046 -0.4455
  336TIP3    H1 1014   1.528   5.340   1.837 -0.9755 -0.4172 -1.2631
  336TIP3    H2 1015   1.527   5.483   1.786  1.8535  0.6450  1.2726
  337TIP3   OH2 1016   2.119   3.906   0.203  0.2232  0.3431  0.0404
  337TIP3    H1 1017   2.084   3.976   0.147 -1.0769  0.9553  1.5635
  337TIP3    H2 1018   2.202   3.941   0.236  0.4968  0.3890 -0.6760
  338TIP3   OH2 1019   2.865   5.733   1.457  0.2857  0.1292  0.2383
  338TIP3    H1 1020   2.820   5.798   1.510 -0.3792  0.1651 -0.3546
  338TIP3    H2 1021   2.950   5.772   1.438  0.6435 -0.0075  1.5024
  339TIP3   OH2 1022   1.800   5.266   2.138 -0.6492  0.2443  0.5930
  339TIP3    H1 1023   1.803   5.198   2.070 -0.6114  1.7628 -0.9774
  339TIP3    H2 1024   1.840   5.343   2.097 -1.0449  1.3421  2.1920
  340TIP3   OH2 1025   5.983   0.066   3.552 -0.4177  0.6385 -0.0873
  340TIP3    H1 1026   6.068   0.075   3.509 -0.7230  1.3542 -0.5586
  340TIP3    H2 1027   5.934   0.005   3.497  0.3993 -1.2229  1.1613
  341TIP3   OH2 1028   5.101   3.227   2.605  0.0508  0.3039 -0.5247
  341TIP3    H1 1029   5.131   3.271   2.526 -0.7268 -0.4409 -1.2511
  341TIP3    H2 1030   5.096   3.296   2.671  2.6136  0.6064 -0.5413
  342TIP3   OH2 1031   3.578   4.978   0.969 -0.4072  0.5691 -0.3620
  342TIP3    H1 1032   3.614   4.988   0.881 -0.8037  1.7841 -0.4031
  342TIP3    H2 1033   3.592   4.886   0.991  0.0094  0.3409 -1.5547
  343TIP3   OH2 1034   3.350   3.068   3.342 -0.1597 -0.5289  0.1374
  343TIP3    H1 1035   3.269   3.098   3.300  0.5038 -0.1105 -0.9004
  343TIP3    H2 1036   3.327   2.985   3.383 -1.0332 -0.5803 -0.4276
  344TIP3   OH2 1037   5.816   0.691   2.654 -0.4777 -0.2588  0.2254
  344TIP3    H1 1038   5.911   0.706   2.656 -0.7345  1.6104  2.0044
  344TIP3    H2 1039   5.797   0.669   2.563  1.6883 -0.9327 -0.1105
  345TIP3   OH2 1040   1.336   2.144   0.719  0.3459 -0.1208  0.4381
  345TIP3    H1 1041   1.406   2.078   0.725  0.1904 -0.3523 -0.1918
  345TIP3    H2 1042   1.374   2.215   0.669  0.4696  0.2165  1.0046
  346TIP3   OH2 1043   0.657   3.941   2.166  0.1912  0.0853  0.0321
  346TIP3    H1 1044   0.568   3.943   2.131  0.6858 -0.5883 -1.3689
  346TIP3    H2 1045   0.704   4.009   2.117  0.4061  0.5612  0.8875
  347TIP3   OH2 1046   1.728   4.800   3.081  0.1208 -0.2942  0.4569
  347TIP3    H1 1047   1.796   4.824   3.144  1.6674 -0.4304 -1.1020
  347TIP3    H2 1048   1.652   4.853   3.108  0.1975 -1.4369  3.3108
  348TIP3   OH2 1049   4.962   3.131   3.958  0.1634  0.1400  0.4033
  348TIP3    H1 1050   4.945   3.039   3.978 -0.9822  0.0642 -0.7679
  348TIP3    H2 1051   4.933   3.179   4.036  0.4453 -0.4652  0.8824
  349TIP3   OH2 1052   1.041   1.647   1.331 -0.3209  0.1524 -0.4097
  349TIP3    H1 1053   1.026   1.615   1.243  0.2430  0.4646 -0.6243
  349TIP3    H2 1054   1.001   1.581   1.388 -0.1572 -0.3573 -0.8764
  350TIP3   OH2 1055   1.242   1.036   2.833  0.1382 -0.3762 -0.3425
  350TIP3    H1 1056   1.286   0.984   2.900  2.2975  0.4256 -1.0629
  350TIP3    H2 1057   1.298   1.029   2.756  0.2927  2.5969 -0.6250
  351TIP3   OH2 1058   1.173   1.282   3.443  0.3729 -0.5657 -0.5051
  351TIP3    H1 1059   1.113   1.352   3.418  0.0082 -0.2667  1.1032
  351TIP3    H2 1060   1.259   1.325   3.448 -0.0646  0.1636  1.8630
  352TIP3   OH2 1061   4.868   4.488   1.272  0.0644  1.0597  0.5454
  352TIP3    H1 1062   4.901   4.461   1.357  1.4526 -0.2006 -0.3599
  352TIP3    H2 1063   4.786   4.439   1.261  1.0852 -0.6294  0.1712
  353TIP3   OH2 1064   3.702   5.348   4.201 -0.5855  0.1458  0.1610
  353TIP3    H1 1065   3.618   5.385   4.176  0.1532  0.3459 -2.3789
  353TIP3    H2 1066   3.753   5.422   4.234 -0.4571  0.6267 -1.0768
  354TIP3   OH2 1067   4.294   5.397   2.096 -0.4482  0.5192  0.0756
  354TIP3    H1 1068   4.219   5.411   2.037 -0.5111  0.1663  0.0717
  354TIP3    H2 1069   4.371   5.401   2.039 -0.3791  1.9060  0.2236
  355TIP3   OH2 1070   0.612   5.918   3.188  0.2777  0.0263  0.1637
  355TIP3    H1 1071   0.688   5.944   3.240 -1.0825  1.4478  1.5410
  355TIP3    H2 1072   0.547   5.889   3.252 -1.4172  1.7245 -0.6868
  356TIP3   OH2 1073   5.053   2.845   1.364 -0.2103  0.4823 -0.1564
  356TIP3    H1 1074   5.066   2.818   1.455  0.2976  0.8746 -0.1117
  356TIP3    H2 1075   4.978   2.794   1.335  1.2016 -1.5759 -0.3375
  357TIP3   OH2 1076   2.627   0.754   1.378  0.1852  0.0518 -0.5835
  357TIP3    H1 1077   2.636   0.766   1.472 -1.7573 -1.5437 -0.1390
  357TIP3    H2 1078   2.716   0.736   1.347  0.9612  1.3141  0.7983
  358TIP3   OH2 1079   5.423   2.976   2.190  0.2091 -0.1605 -0.1127
  358TIP3    H1 1080   5.404   2.916   2.262  1.2383 -3.7107 -2.5526
  358TIP3    H2 1081   5.498   3.027   2.221 -0.9727  0.3548  2.2140
  359TIP3   OH2 1082   5.006   1.329   2.605  0.2927  0.2212  0.5022
  359TIP3    H1 1083   4.996   1.330   2.510  2.1048 -0.8481  0.2489
  359TIP3    H2 1084   4.958   1.252   2.634 -1.3166  1.2329  0.6417
  360TIP3   OH2 1085   0.516   4.352   2.817 -0.4321 -0.1545 -0.8117
  360TIP3    H1 1086   0.431   4.334   2.777 -0.9657  1.4408 -0.4515
  360TIP3    H2 1087   0.514   4.446   2.837  1.4169 -0.0798 -0.8059
  361TIP3   OH2 1088   3.345   1.186   2.694  0.0786 -0.0852 -0.3432
  361TIP3    H1 1089   3.339   1.239   2.774  2.5450 -0.5788  0.2462
  361TIP3    H2 1090   3.256   1.153   2.681 -0.9419  2.0090  0.7561
  362TIP3   OH2 1091   5.250   0.453   2.650 -0.4828  0.0204  0.6441
  362TIP3    H1 1092   5.333   0.485   2.684  0.9005 -1.3737 -1.1933
  362TIP3    H2 1093   5.210   0.406   2.723  0.9080 -0.2614  1.2530
  363TIP3   OH2 1094   2.573   1.458   2.840  0.4802  0.2294 -0.3068
  363TIP3    H1 1095   2.498   1.512   2.867  0.3129  0.8361 -1.8380
  363TIP3    H2 1096   2.591   1.487   2.750  0.6876 -1.9531 -1.0204
  364TIP3   OH2 1097   1.036   5.814   4.360  0.0019 -0.0958  0.0010
  364TIP3    H1 1098   1.121   5.857   4.370 -0.2125  0.1402  0.8778
  364TIP3    H2 1099   1.041   5.736   4.415  0.6462 -1.6606 -2.1251
  365TIP3   OH2 1100   1.607   3.545   2.709 -0.0152 -0.2272  0.0971
  365TIP3    H1 1101   1.628   3.502   2.792 -1.3676 -0.7150  0.2142
  365TIP3    H2 1102   1.613   3.475   2.644 -3.5064 -1.0495  0.4620
  366TIP3   OH2 1103   2.338   4.639   0.665  0.3665 -0.3811  0.1661
  366TIP3    H1 1104   2.247   4.642   0.637  0.9377 -1.0597 -1.9880
  366TIP3    H2 1105   2.384   4.595   0.593  2.0748 -1.9735  2.1029
  367TIP3   OH2 1106   3.672   0.147   2.424 -0.1978 -0.1645  0.5134
  367TIP3    H1 1107   3.630   0.228   2.397 -1.0903 -0.8026 -0.0934
  367TIP3    H2 1108   3.766   0.163   2.416 -0.3823  0.6156 -0.1290
  368TIP3   OH2 1109   1.149   4.320   0.879 -0.0248  0.3939 -0.5090
  368TIP3    H1 1110   1.221   4.271   0.919  1.2775  3.3925  1.1784
  368TIP3    H2 1111   1.070   4.271   0.902  0.9988  0.0368  2.8360
  369TIP3   OH2 1112   0.217   4.982   4.962 -0.7542  0.2567  0.2568
  369TIP3    H1 1113   0.235   4.926   5.037 -1.2108  0.5611  0.5995
  369TIP3    H2 1114   0.303   5.013   4.934 -0.4835 -0.7102 -0.0192
  370TIP3   OH2 1115   1.880   5.393   0.870  0.1207  0.3222  0.0634
  370TIP3    H1 1116   1.837   5.327   0.925 -1.0546 -0.2873 -1.5002
  370TIP3    H2 1117   1.945   5.344   0.820  0.4531  0.6730  0.1463
  371TIP3   OH2 1118   3.637   2.734   2.602  0.1208 -0.2551  0.6614
  371TIP3    H1 1119   3.642   2.708   2.510  0.7611  0.5337  0.4624
  371TIP3    H2 1120   3.726   2.723   2.634 -0.4483 -2.3639  1.7359
  372TIP3   OH2 1121   3.603   1.446   3.084  0.7509  0.3909 -0.0932
  372TIP3    H1 1122   3.695   1.438   3.060  0.7631 -0.5519  0.2203
  372TIP3    H2 1123   3.598   1.529   3.131  1.2164  0.9953 -1.0711
  373TIP3   OH2 1124   2.948   3.886   1.209 -0.2474 -0.1513 -0.2230
  373TIP3    H1 1125   3.021   3.939   1.243  1.2092 -1.0348 -1.7864
  373TIP3    H2 1126   2.930   3.925   1.123 -1.8312  0.2107  0.2515
  374TIP3   OH2 1127   4.657   5.829   2.099 -0.4171  0.4323 -0.5834
  374TIP3    H1 1128   4.719   5.762   2.069 -1.0886 -0.2847 -0.3818
  374TIP3    H2 1129   4.640   5.806   2.190 -1.8260 -0.0315 -0.9416
  375TIP3   OH2 1130   3.680   0.049   4.585 -0.1106 -0.3051  0.4109
  375TIP3    H1 1131   3.727   0.131   4.571  0.3585 -0.7115 -0.5312
  375TIP3    H2 1132   3.593   0.075   4.615  0.7873  0.4646  2.5318
  376TIP3   OH2 1133   4.235   0.506   0.190  0.6184  0.2184 -0.3990
  376TIP3    H1 1134   4.189   0.483   0.270  1.8591 -0.0252  0.2671
  376TIP3    H2 1135   4.278   0.589   0.210  0.9893  0.1240 -0.7838
  377TIP3   OH2 1136   0.932   0.764   3.901 -0.5682 -0.4572  0.7997
  377TIP3    H1 1137   0.994   0.830   3.932  0.4073 -0.4018 -1.1301
  377TIP3    H2 1138   0.967   0.736   3.817 -1.3644 -2.9318  1.2292
  378TIP3   OH2 1139   4.219   3.719   2.196 -0.7973 -0.1535  0.3651
  378TIP3    H1 1140   4.292   3.661   2.175 -1.3211 -0.9397  0.6882
  378TIP3    H2 1141   4.221   3.785   2.126  1.5541  1.1451  1.5366
  379TIP3   OH2 1142   0.958   3.173   3.086 -0.2707 -0.1171 -0.0926
  379TIP3    H1 1143   0.948   3.198   2.995  0.6281  0.0219 -0.1703
  379TIP3    H2 1144   1.017   3.239   3.123 -0.7912 -0.0453  0.6480
  380TIP3   OH2 1145   4.440   5.222   4.885  0.3217 -0.0343 -0.1857
  380TIP3    H1 1146   4.505   5.227   4.816  1.0821  0.9533  0.5694
  380TIP3    H2 1147   4.357   5.209   4.839  0.8975 -0.0977 -1.2276
  381TIP3   OH2 1148   3.714   0.644   4.737  0.1673  0.2261 -0.0902
  381TIP3    H1 1149   3.668   0.714   4.784 -0.6133 -0.7724  0.6839
  381TIP3    H2 1150   3.807   0.667   4.745 -0.1182  2.2145 -1.5648
  382TIP3   OH2 1151   0.231   1.327   3.219  0.0265 -0.4320 -0.4528
  382TIP3    H1 1152   0.250   1.239   3.187 -0.8760 -1.1001  0.7577
  382TIP3    H2 1153   0.160   1.315   3.282 -0.2281  1.1896 -0.3827
  383TIP3   OH2 1154   4.022   0.924   4.264 -0.6255  0.0717  0.0432
  383TIP3    H1 1155   3.931   0.895   4.264 -0.3159 -1.0713 -1.7771
  383TIP3    H2 1156   4.072   0.848   4.233  0.9897  0.6241  1.1262
  384TIP3   OH2 1157   4.748   2.382   0.800 -0.0168  0.2096  0.2142
  384TIP3    H1 1158   4.840   2.408   0.793 -0.0825  0.0741 -1.5306
  384TIP3    H2 1159   4.748   2.288   0.786 -0.4736  0.3163 -0.6240
  385TIP3   OH2 1160   0.602   2.744   1.217 -0.4645  0.1905 -0.1947
  385TIP3    H1 1161   0.572   2.783   1.300  0.9118  1.0545 -0.0657
  385TIP3    H2 1162   0.603   2.650   1.234 -1.6646  0.2464  0.2564
  386TIP3   OH2 1163   1.390   5.894   2.022 -0.4900  0.5217  0.4701
  386TIP3    H1 1164   1.321   5.852   1.972 -1.0819  0.4067  1.3639
  386TIP3    H2 1165   1.379   5.862   2.111  0.3155  1.0028  0.7614
  387TIP3   OH2 1166   0.592   0.512   0.517  0.1954 -0.2462  0.5616
  387TIP3    H1 1167   0.666   0.456   0.495 -0.0406 -1.2616  2.2064
  387TIP3    H2 1168   0.518   0.473   0.471 -0.0363 -1.5343  1.9685
  388TIP3   OH2 1169   5.658   3.438   0.526 -0.6135  0.3912 -0.1682
  388TIP3    H1 1170   5.710   3.462   0.603 -0.8107 -1.4377  0.5936
  388TIP3    H2 1171   5.717   3.385   0.473 -1.0144  0.1732 -0.4013
  389TIP3   OH2 1172   5.633   3.904   2.791  0.1703  0.0996  0.4338
  389TIP3    H1 1173   5.625   3.841   2.719 -0.4317  0.7361 -0.0689
  389TIP3    H2 1174   5.656   3.986   2.748  0.8488  0.2551  1.0773
  390TIP3   OH2 1175   5.143   2.711   4.449  0.3794 -0.5137  0.7212
  390TIP3    H1 1176   5.159   2.654   4.524 -0.8646 -1.5976  0.2070
  390TIP3    H2 1177   5.180   2.795   4.474  1.3681 -1.2734  1.9136
  391TIP3   OH2 1178   3.394   4.817   0.389 -0.0355  0.0967  0.0607
  391TIP3    H1 1179   3.489   4.819   0.401 -0.1762  1.1195  1.2179
  391TIP3    H2 1180   3.361   4.773   0.468 -0.5105 -0.7229 -0.5717
  392TIP3   OH2 1181   2.668   4.454   2.261  0.6236  0.2052  0.3993
  392TIP3    H1 1182   2.632   4.535   2.298 -0.9656 -0.2651 -0.0460
  392TIP3    H2 1183   2.691   4.476   2.171 -0.0981  0.1059  0.1816
  393TIP3   OH2 1184   4.324   5.866   1.905 -0.1490  0.3111 -0.3755
  393TIP3    H1 1185   4.370   5.877   1.988 -2.4032 -1.3072  1.2178
  393TIP3    H2 1186   4.381   5.809   1.853 -1.1940 -3.9355  2.5499
  394TIP3   OH2 1187   0.789   2.544   3.374 -0.1785 -0.0878 -0.1246
  394TIP3    H1 1188   0.816   2.519   3.462 -1.6901 -0.2758  0.3134
  394TIP3    H2 1189   0.704   2.503   3.362 -2.0153  3.3515 -0.0558
  395TIP3   OH2 1190   4.142   5.619   1.969  0.8255  0.5501 -0.3454
  395TIP3    H1 1191   4.054   5.586   1.949  1.3586 -0.7913 -0.5884
  395TIP3    H2 1192   4.146   5.704   1.926  0.1484 -0.0100 -1.5665
  396TIP3   OH2 1193   4.876   0.479   4.727  0.7925  0.2981  0.4219
  396TIP3    H1 1194   4.961   0.495   4.684  0.8873 -1.0709  0.0376
  396TIP3    H2 1195   4.898   0.422   4.801 -0.0184 -1.9015 -0.9567
  397TIP3   OH2 1196   2.134   4.512   4.775  0.1346 -0.2893 -0.2934
  397TIP3    H1 1197   2.164   4.600   4.796 -0.3616  0.1509 -1.3652
  397TIP3    H2 1198   2.049   4.504   4.818  0.1018 -0.1828 -0.3382
  398TIP3   OH2 1199   3.522   3.275   3.006  0.3099  0.9192 -0.6235
  398TIP3    H1 1200   3.518   3.189   2.964 -0.3056  0.3187  0.6012
  398TIP3    H2 1201   3.431   3.292   3.034  0.8546  0.7378  1.4602
  399TIP3   OH2 1202   5.934   3.844   1.210  0.4973 -0.1764 -0.2196
  399TIP3    H1 1203   5.908   3.839   1.302  0.6062  0.2079 -0.1670
  399TIP3    H2 1204   5.887   3.772   1.168 -2.2205  1.6466 -0.5129
  400TIP3   OH2 1205   0.679   5.659   4.933  0.5848  0.5644  0.1653
  400TIP3    H1 1206   0.717   5.709   4.861 -1.7678  0.7056 -1.1028
  400TIP3    H2 1207   0.656   5.575   4.894  1.8145 -0.4308  1.5156
  401TIP3   OH2 1208   4.347   5.715   0.032 -0.5300  0.2560 -0.1269
  401TIP3    H1 1209   4.360   5.701  -0.062  1.4073  0.1520  0.1273
  401TIP3    H2 1210   4.392   5.797   0.051 -1.2413  0.4819  0.6689
  402TIP3   OH2 1211   0.244   4.136   1.975  0.2093  0.8727  0.0039
  402TIP3    H1 1212   0.175   4.121   2.040  0.8004 -0.3082  0.3895
  402TIP3    H2 1213   0.198   4.138   1.891 -0.2239 -0.9816  0.1470
  403TIP3   OH2 1214   1.529   2.108   2.165 -0.1663 -0.3529 -0.4734
  403TIP3    H1 1215   1.464   2.164   2.206  1.4137  1.0090  0.3119
  403TIP3    H2 1216   1.565   2.056   2.237  1.9486  1.3674 -0.1813
  404TIP3   OH2 1217   3.750   3.077   3.327 -0.3966 -0.2437  0.1410
  404TIP3    H1 1218   3.753   3.019   3.251 -1.6244 -1.1817  0.7865
  404TIP3    H2 1219   3.737   3.165   3.290  1.1927 -0.3764 -0.8210
  405TIP3   OH2 1220   4.487   4.705   3.890  1.1009  0.2402 -0.5682
  405TIP3    H1 1221   4.498   4.662   3.975  0.4516 -0.9854 -1.0853
  405TIP3    H2 1222   4.507   4.798   3.907  3.6034 -0.3779  0.3529
  406TIP3   OH2 1223   1.987   0.069   4.073 -0.5000 -0.3707 -0.1065
  406TIP3    H1 1224   2.063   0.098   4.023  0.6462  0.0596  1.7746
  406TIP3    H2 1225   1.954   0.149   4.114  0.0598 -1.0167  1.6921
  407TIP3   OH2 1226   0.121   4.273   3.607 -0.2997 -0.1050 -0.0415
  407TIP3    H1 1227   0.050   4.337   3.616 -1.6225 -1.3107 -1.2289
  407TIP3    H2 1228   0.111   4.239   3.518  1.6095 -0.5530 -0.1350
  408TIP3   OH2 1229   1.027   2.453   4.595  0.8216 -0.2446 -0.0857
  408TIP3    H1 1230   1.005   2.375   4.647  0.9800 -0.6867 -0.6697
  408TIP3    H2 1231   0.945   2.503   4.592  1.1011  0.3628  1.5351
  409TIP3   OH2 1232   3.793   2.543   4.964 -1.0313 -0.3355  0.1587
  409TIP3    H1 1233   3.750   2.627   4.975 -1.4997 -0.5173 -0.2528
  409TIP3    H2 1234   3.868   2.562   4.908  0.5252  0.3189  2.3110
  410TIP3   OH2 1235   4.232   3.421   2.389 -0.7884  0.0009 -0.0045
  410TIP3    H1 1236   4.182   3.443   2.310 -0.2153  0.9469 -0.1186
  410TIP3    H2 1237   4.250   3.505   2.430 -1.4938 -0.5081  1.4096
  411TIP3   OH2 1238   5.411   2.026   2.066 -0.1030  0.2241  0.0322
  411TIP3    H1 1239   5.404   1.932   2.079 -0.2676  0.1244 -0.7026
  411TIP3    H2 1240   5.482   2.054   2.124 -1.0134 -0.1044  1.3509
  412TIP3   OH2 1241   3.846   3.334   1.939  0.1403 -0.5345 -0.1030
  412TIP3    H1 1242   3.814   3.271   2.003 -2.0625  0.5332 -0.0733
  412TIP3    H2 1243   3.845   3.418   1.984 -1.1949  0.1937 -1.4189
  413TIP3   OH2 1244   5.368   1.117   0.302  0.1440 -0.7748 -0.1918
  413TIP3    H1 1245   5.322   1.034   0.287  0.4420 -1.1460  0.8553
  413TIP3    H2 1246   5.456   1.103   0.267  0.1934 -0.9064 -0.0169
  414TIP3   OH2 1247   5.978   4.856   3.526 -0.1047  0.6391 -0.0708
  414TIP3    H1 1248   6.023   4.939   3.538 -0.3137  1.3075 -3.0048
  414TIP3    H2 1249   6.033   4.792   3.570  1.0283  2.0941  0.7220
  415TIP3   OH2 1250   0.838   3.129   0.769  0.1698 -0.2821 -0.2389
  415TIP3    H1 1251   0.793   3.049   0.795  1.0108 -0.5293  0.5065
  415TIP3    H2 1252   0.809   3.196   0.831 -1.4716  0.3379 -1.5855
  416TIP3   OH2 1253   1.423   5.475   2.344  0.1717  0.3822  0.1095
  416TIP3    H1 1254   1.467   5.518   2.270 -2.4879  0.4772 -1.5375
  416TIP3    H2 1255   1.432   5.536   2.417 -1.0023  2.4594 -1.3851
  417TIP3   OH2 1256   0.135   5.719   4.410  0.8756  0.0266  0.7624
  417TIP3    H1 1257   0.108   5.681   4.326  0.5020 -0.2891  1.0226
  417TIP3    H2 1258   0.157   5.643   4.464 -0.5960  0.1183  1.5380
  418TIP3   OH2 1259   4.463   2.152   2.991  0.3163  0.5773 -0.2915
  418TIP3    H1 1260   4.533   2.119   2.934  1.0514  0.6202  0.5654
  418TIP3    H2 1261   4.461   2.246   2.975  1.1476  0.7254  0.4093
  419TIP3   OH2 1262   2.645   1.055   3.309  0.1918 -0.2686 -0.0968
  419TIP3    H1 1263   2.730   1.088   3.281  1.0356 -1.4759  0.9533
  419TIP3    H2 1264   2.582   1.119   3.275  1.3264 -0.3508 -2.5230
  420TIP3   OH2 1265   4.923   1.942   1.427 -0.2558  0.6440  0.2422
  420TIP3    H1 1266   4.828   1.934   1.439 -0.2031 -0.7914 -0.0958
  420TIP3    H2 1267   4.957   1.952   1.516 -0.4522 -2.7149  0.8250
  421TIP3   OH2 1268   5.229   3.285   5.106 -0.6332  0.2800 -0.0978
  421TIP3    H1 1269   5.199   3.198   5.133 -0.2477  0.2192  0.1519
  421TIP3    H2 1270   5.214   3.341   5.182  3.9695 -0.6790  1.8459
  422TIP3   OH2 1271   2.503   0.417   3.455  0.3272 -1.0081 -0.0242
  422TIP3    H1 1272   2.504   0.333   3.500 -0.5290 -1.2530 -0.4294
  422TIP3    H2 1273   2.411   0.444   3.457  0.4052 -0.6333 -0.8905
  423TIP3   OH2 1274   3.668   3.906   4.285 -0.5830  0.2458  0.2678
  423TIP3    H1 1275   3.682   3.829   4.341 -0.0950 -0.7815 -1.2145
  423TIP3    H2 1276   3.755   3.925   4.249 -1.1967 -0.3289 -1.6321
  424TIP3   OH2 1277   2.242   4.826   1.493  0.2490  0.6401 -0.3722
  424TIP3    H1 1278   2.275   4.860   1.576 -1.0105  0.0663  0.3901
  424TIP3    H2 1279   2.318   4.829   1.434  2.0775 -1.7543  1.6223
  425TIP3   OH2 1280   2.071   0.375   5.117 -0.1350  0.7568  0.5091
  425TIP3    H1 1281   1.979   0.358   5.098  0.1792  0.4895 -0.8848
  425TIP3    H2 1282   2.114   0.290   5.108  1.0206  1.5906 -3.8938
  426TIP3   OH2 1283   1.753   2.953   3.819 -0.1123  0.3706  0.4239
  426TIP3    H1 1284   1.717   3.037   3.847  2.0151  1.6738 -0.5063
  426TIP3    H2 1285   1.743   2.896   3.896 -1.7269  1.3801  1.0247
  427TIP3   OH2 1286   1.769   3.321   2.169  0.1160  0.2727  0.6633
  427TIP3    H1 1287   1.802   3.362   2.249  1.9321  2.9850 -1.3268
  427TIP3    H2 1288   1.778   3.227   2.185 -0.8977  0.6455  4.1126
  428TIP3   OH2 1289   1.107   0.034   5.107  0.0819  0.3509 -0.4219
  428TIP3    H1 1290   1.167  -0.011   5.047 -1.0086 -1.6702 -0.0944
  428TIP3    H2 1291   1.025  -0.016   5.101 -0.2680  0.4703  2.2692
  429TIP3   OH2 1292   0.054   4.292   0.679 -0.0880 -0.0063 -0.0478
  429TIP3    H1 1293   0.145   4.276   0.657  1.1097  1.3889  3.3025
  429TIP3    H2 1294   0.033   4.376   0.638  0.9046  0.7662  0.9573
  430TIP3   OH2 1295   1.290   3.148   3.130 -0.2019  0.0220  0.1527
  430TIP3    H1 1296   1.323   3.210   3.195 -0.1084  0.5746 -0.4175
  430TIP3    H2 1297   1.364   3.090   3.111 -0.7141 -1.3000  1.8489
  431TIP3   OH2 1298   3.701   1.767   0.531 -0.0738 -0.7457  0.0432
  431TIP3    H1 1299   3.731   1.857   0.515  2.5288 -1.6092 -0.4047
  431TIP3    H2 1300   3.647   1.773   0.609 -0.5581  1.3064 -0.3924
  432TIP3   OH2 1301   2.823   5.611   5.067 -0.7265  0.5785 -0.0908
  432TIP3    H1 1302   2.870   5.585   5.146 -0.3545 -0.5634 -0.6512
  432TIP3    H2 1303   2.791   5.699   5.085 -1.2606  0.0745  1.6026
  433TIP3   OH2 1304   4.209   3.667   0.505  0.2861  0.2017 -0.1507
  433TIP3    H1 1305   4.274   3.657   0.574 -0.5513  1.5238  0.8904
  433TIP3    H2 1306   4.153   3.589   0.514  0.7462 -0.1168  0.0245
  434TIP3   OH2 1307   3.584   2.400   3.519 -0.0585 -0.5047 -0.2949
  434TIP3    H1 1308   3.670   2.368   3.490  0.3717 -0.0641  0.4674
  434TIP3    H2 1309   3.569   2.477   3.463  1.2835  1.0160  1.3011
  435TIP3   OH2 1310   3.612   2.105   4.382 -0.4940 -0.1013  0.1558
  435TIP3    H1 1311   3.632   2.198   4.395 -0.2819 -0.2166  0.6721
  435TIP3    H2 1312   3.555   2.082   4.456 -0.4190 -0.4183  0.1166
  436TIP3   OH2 1313   1.574   5.536   4.563  0.7231  0.1627  0.4957
  436TIP3    H1 1314   1.507   5.579   4.509  0.6461  2.3670  2.2221
  436TIP3    H2 1315   1.657   5.562   4.524  0.6894  2.2800  1.6835
  437TIP3   OH2 1316   5.801   2.243   1.197  0.1796 -0.3773 -0.0626
  437TIP3    H1 1317   5.892   2.272   1.210  0.4533 -0.4564 -1.6097
  437TIP3    H2 1318   5.762   2.246   1.285  1.0454  1.7391  0.3032
  438TIP3   OH2 1319   5.805   1.562   2.175 -0.2666 -0.1536  0.2125
  438TIP3    H1 1320   5.899   1.547   2.167  0.2465  2.6386 -0.2362
  438TIP3    H2 1321   5.793   1.654   2.149 -3.1815 -0.5256 -0.1533
  439TIP3   OH2 1322   5.772   2.512   5.069  0.5636 -0.3560 -0.4162
  439TIP3    H1 1323   5.682   2.515   5.101  0.0565 -2.6978 -1.4128
  439TIP3    H2 1324   5.823   2.561   5.135 -1.3709  0.9352  0.2116
  440TIP3   OH2 1325   5.009  -0.002   2.000 -0.0547  0.2006  0.2088
  440TIP3    H1 1326   4.930   0.048   1.980 -0.3629  0.1050  1.1534
  440TIP3    H2 1327   5.069   0.063   2.038 -0.3552 -0.0822  1.1836
  441TIP3   OH2 1328   1.084   4.573   2.688 -0.6397  0.2174 -0.7076
  441TIP3    H1 1329   1.105   4.484   2.658 -0.4741  0.5390 -1.5850
  441TIP3    H2 1330   1.048   4.561   2.776 -1.0776 -0.7651 -1.0069
  442TIP3   OH2 1331   2.523   0.911   0.317 -0.0834  0.0464  0.0897
  442TIP3    H1 1332   2.433   0.881   0.303  0.9954 -3.1056 -0.9722
  442TIP3    H2 1333   2.521   0.950   0.404 -2.2794 -0.8756  0.5395
  443TIP3   OH2 1334   6.078   2.001   0.552  0.4695 -0.5341  0.2991
  443TIP3    H1 1335   5.991   2.039   0.562  0.3189 -0.4618 -1.0082
  443TIP3    H2 1336   6.118   2.008   0.638 -0.0142  1.4653  0.4037
  444TIP3   OH2 1337   3.128   3.338   3.592 -0.6012 -0.3341  1.0827
  444TIP3    H1 1338   3.081   3.367   3.514 -1.0100  0.7953  1.7340
  444TIP3    H2 1339   3.159   3.419   3.633 -0.9772 -0.8676  2.4563
  445TIP3   OH2 1340   2.694   3.629   0.706  0.0958  0.1221 -0.5095
  445TIP3    H1 1341   2.787   3.623   0.729 -0.0407 -0.9329 -0.1948
  445TIP3    H2 1342   2.648   3.626   0.789 -0.2917 -1.1591 -0.7516
  446TIP3   OH2 1343   5.304   2.337   2.098  0.3175 -0.0442  0.3266
  446TIP3    H1 1344   5.360   2.266   2.067  1.3445  0.3547  1.1885
  446TIP3    H2 1345   5.253   2.298   2.169 -1.2698 -0.6761 -1.1115
  447TIP3   OH2 1346   6.080   2.750   1.480 -0.1943 -0.1207  0.0689
  447TIP3    H1 1347   6.008   2.706   1.435 -0.7484  1.0165 -0.2001
  447TIP3    H2 1348   6.107   2.820   1.420  0.0903  0.4351  0.8226
  448TIP3   OH2 1349   1.280   0.585   1.568  0.0279  0.1981 -0.1451
  448TIP3    H1 1350   1.345   0.561   1.502  2.9843  0.2678  2.4629
  448TIP3    H2 1351   1.256   0.675   1.547  2.3401  0.8881 -0.1691
  449TIP3   OH2 1352   1.211   1.736   3.543  0.0848  0.2673 -0.1569
  449TIP3    H1 1353   1.144   1.799   3.516 -0.9845 -0.9789 -0.5185
  449TIP3    H2 1354   1.176   1.651   3.516  2.1944 -0.3653 -1.1134
  450TIP3   OH2 1355   0.893   2.398   2.830 -0.2015  0.3837  0.6063
  450TIP3    H1 1356   0.934   2.453   2.897 -0.3413  0.1909  0.8498
  450TIP3    H2 1357   0.962   2.385   2.765 -0.5330  1.8764 -0.0875
  451TIP3   OH2 1358   3.047   4.757   0.147 -0.4844  0.1262 -0.5585
  451TIP3    H1 1359   3.103   4.692   0.188 -0.6217 -1.1532 -2.3193
  451TIP3    H2 1360   2.960   4.740   0.183  0.0138  1.6594  1.6301
  452TIP3   OH2 1361   5.709   3.864   3.513  0.1364  0.2425 -0.2432
  452TIP3    H1 1362   5.694   3.791   3.454  0.3183  0.4389 -0.5346
  452TIP3    H2 1363   5.730   3.938   3.456  1.2379  0.2141  0.1048
  453TIP3   OH2 1364   4.035   3.181   2.818 -0.4559  0.0543 -0.2545
  453TIP3    H1 1365   3.959   3.153   2.767 -1.3380  0.5991  0.7101
  453TIP3    H2 1366   4.104   3.119   2.795 -0.7064  0.4695 -2.3359
  454TIP3   OH2 1367   0.592   4.228   5.066 -0.4243  0.3185 -0.0318
  454TIP3    H1 1368   0.528   4.177   5.115 -1.0671  1.1688  0.0303
  454TIP3    H2 1369   0.540   4.286   5.011  0.2474 -0.8007 -1.9916
  455TIP3   OH2 1370   0.971   3.195   4.662  0.0424 -0.4999  0.7398
  455TIP3    H1 1371   0.992   3.164   4.751  1.4495  0.8773  0.9347
  455TIP3    H2 1372   1.051   3.180   4.612  0.1305  1.0239  0.3737
  456TIP3   OH2 1373   2.166   1.482   0.618  0.2876 -0.1730 -0.3742
  456TIP3    H1 1374   2.147   1.519   0.704 -1.4256  1.7709 -1.4793
  456TIP3    H2 1375   2.103   1.411   0.608  0.3943 -0.3104 -0.0695
  457TIP3   OH2 1376   0.971   4.583   2.946 -0.9535 -0.5261 -1.0052
  457TIP3    H1 1377   1.014   4.661   2.982 -2.1892  0.0308 -0.6609
  457TIP3    H2 1378   0.883   4.613   2.925 -1.5651 -1.9163 -0.5268
  458TIP3   OH2 1379   0.581   2.819   0.657 -0.2323 -0.6289 -0.5315
  458TIP3    H1 1380   0.671   2.786   0.657  0.9774  2.1635  1.5465
  458TIP3    H2 1381   0.551   2.806   0.747 -0.9095  0.7713 -0.5297
  459TIP3   OH2 1382   2.549   0.386   4.210 -0.4468  0.4643  0.4001
  459TIP3    H1 1383   2.455   0.368   4.205 -0.9375  2.1656  2.0709
  459TIP3    H2 1384   2.579   0.336   4.286  0.2351 -0.7461 -0.6155
  460TIP3   OH2 1385   3.971   1.021   3.991  0.6685 -0.3714 -0.0005
  460TIP3    H1 1386   4.012   1.000   4.075  2.0561 -1.4111 -0.8910
  460TIP3    H2 1387   4.000   0.951   3.932 -2.2061 -1.0334 -0.7952
  461TIP3   OH2 1388   5.529   3.335   3.782 -0.4574  0.6590  0.0169
  461TIP3    H1 1389   5.518   3.334   3.686 -0.7318 -1.4034  0.0230
  461TIP3    H2 1390   5.622   3.322   3.795 -0.8477 -3.5502 -0.0651
  462TIP3   OH2 1391   1.231   2.723   4.034 -0.1504  0.4032  0.1518
  462TIP3    H1 1392   1.163   2.656   4.034 -0.7747  1.0256  1.3935
  462TIP3    H2 1393   1.197   2.791   3.976 -0.4968  0.6293  0.6217
  463TIP3   OH2 1394   0.366   4.583   2.089  0.3482  0.1234  0.1395
  463TIP3    H1 1395   0.356   4.670   2.049  0.2499 -1.2023 -3.0204
  463TIP3    H2 1396   0.461   4.571   2.095  0.3618  0.4880  0.7212
  464TIP3   OH2 1397   4.180   0.647   2.312 -0.5795  0.2624 -0.0654
  464TIP3    H1 1398   4.154   0.706   2.241 -1.3209 -1.4367 -1.3015
  464TIP3    H2 1399   4.182   0.560   2.270  0.8936 -0.5398  1.5548
  465TIP3   OH2 1400   4.374   3.189   3.652  0.5198  0.1576  0.3483
  465TIP3    H1 1401   4.370   3.101   3.689 -0.4778 -0.3287 -0.8380
  465TIP3    H2 1402   4.324   3.243   3.713  0.7707 -0.1872  0.8608
  466TIP3   OH2 1403   0.713   3.932   3.787 -0.9966 -0.3710 -0.1831
  466TIP3    H1 1404   0.696   3.848   3.831 -1.6820 -0.7889 -1.1866
  466TIP3    H2 1405   0.735   3.907   3.697 -0.1844  0.4830 -0.2251
  467TIP3   OH2 1406   2.466   5.402   2.164  0.1619  0.4171  0.6749
  467TIP3    H1 1407   2.496   5.446   2.244  1.3162  0.5507  0.1917
  467TIP3    H2 1408   2.402   5.338   2.195 -0.6798  1.6124  1.5189
  468TIP3   OH2 1409   1.583   3.502   1.569 -0.6917 -0.1552  0.4791
  468TIP3    H1 1410   1.641   3.576   1.588 -0.9164  0.5289 -1.3247
  468TIP3    H2 1411   1.571   3.505   1.474 -1.7469 -1.7467  0.5338
  469TIP3   OH2 1412   0.410   0.074   2.521 -0.1218  0.3207  0.1706
  469TIP3    H1 1413   0.335   0.081   2.581  0.1916 -1.6536  0.8678
  469TIP3    H2 1414   0.417   0.161   2.482 -2.3216  0.7713  0.6142
  470TIP3   OH2 1415   3.839   5.430   4.615  0.0001 -0.3785 -0.0008
  470TIP3    H1 1416   3.891   5.353   4.641 -1.4469 -1.2647  0.3900
  470TIP3    H2 1417   3.749   5.399   4.617 -0.7022  1.5703  0.9744
  471TIP3   OH2 1418   3.188   0.527   1.130 -0.1877 -0.0909 -0.0110
  471TIP3    H1 1419   3.127   0.488   1.067  0.1235  0.9429 -0.9816
  471TIP3    H2 1420   3.274   0.495   1.103 -0.0827  0.1346  0.0524
  472TIP3   OH2 1421   3.763   2.761   0.585 -0.2153  0.6389  0.1946
  472TIP3    H1 1422   3.743   2.767   0.679  1.7703  0.1011  0.7139
  472TIP3    H2 1423   3.714   2.832   0.545 -1.0536  0.9315  1.6545
  473TIP3   OH2 1424   1.837   1.793   1.874  0.3980 -0.5466  0.4652
  473TIP3    H1 1425   1.810   1.852   1.944  1.4885 -0.4003  0.7779
  473TIP3    H2 1426   1.789   1.825   1.797 -1.4717 -1.2192  1.2728
  474TIP3   OH2 1427   1.696   0.580   5.117  0.3936  0.0701  0.0892
  474TIP3    H1 1428   1.784   0.614   5.130  0.5266 -0.0569 -0.4781
  474TIP3    H2 1429   1.651   0.648   5.065  0.6354 -0.5614 -0.9769
  475TIP3   OH2 1430   1.047   5.176   3.987  0.1866 -0.4505 -0.1543
  475TIP3    H1 1431   1.042   5.177   3.891 -0.6544 -2.5600 -0.1861
  475TIP3    H2 1432   1.114   5.242   4.008  0.4050  0.0482 -2.1774
  476TIP3   OH2 1433   0.139   5.078   1.826 -0.7233 -0.3540 -0.3915
  476TIP3    H1 1434   0.093   5.160   1.844  0.6616  0.2911  0.3045
  476TIP3    H2 1435   0.198   5.067   1.899 -1.0692 -2.1408 -0.3430
  477TIP3   OH2 1436   4.852   4.717   2.959  0.2732  0.0595  0.4942
  477TIP3    H1 1437   4.827   4.805   2.988  1.8405  0.7093  0.0231
  477TIP3    H2 1438   4.816   4.710   2.870 -2.2289 -0.9014  1.4893
  478TIP3   OH2 1439   1.594   5.207   0.742  0.2354 -0.1887  0.2397
  478TIP3    H1 1440   1.586   5.286   0.689  0.7631 -1.5630 -2.0052
  478TIP3    H2 1441   1.589   5.239   0.833 -2.4525  2.0779 -0.5582
  479TIP3   OH2 1442   1.786   5.819   0.517  0.0767  0.2216 -0.1072
  479TIP3    H1 1443   1.841   5.828   0.594  0.8837 -0.0876 -0.6372
  479TIP3    H2 1444   1.847   5.801   0.445 -0.6952  0.0361 -0.7362
  480TIP3   OH2 1445   2.930   2.351   3.027 -0.2112 -0.4249  0.0489
  480TIP3    H1 1446   2.887   2.400   3.098  0.1192 -1.4386  0.9770
  480TIP3    H2 1447   3.023   2.355   3.048 -0.1718 -1.3783  0.1182
  481TIP3   OH2 1448   3.453   1.154   2.385  0.1215 -0.3066 -0.1157
  481TIP3    H1 1449   3.430   1.190   2.471  2.4167  1.1388 -0.0268
  481TIP3    H2 1450   3.412   1.067   2.384 -0.8362  0.0532  1.9943
  482TIP3   OH2 1451   1.647   0.905   4.124 -0.5940  0.3666 -0.2375
  482TIP3    H1 1452   1.678   0.819   4.094 -0.1090 -0.1346  1.5985
  482TIP3    H2 1453   1.552   0.899   4.117 -0.6149 -0.6224  0.5755
  483TIP3   OH2 1454   5.132   0.346   0.052  0.6947 -0.7408 -0.4255
  483TIP3    H1 1455   5.053   0.328   0.104  1.3189  1.2160  1.3719
  483TIP3    H2 1456   5.099   0.370  -0.034 -0.5873 -1.2463 -0.1069
  484TIP3   OH2 1457   0.171   1.042   5.026  0.0134  0.5096  0.0899
  484TIP3    H1 1458   0.087   1.020   5.066 -0.0553  1.3452  0.4463
  484TIP3    H2 1459   0.236   1.010   5.089 -0.0386  0.0135 -0.1053
  485TIP3   OH2 1460   2.963   0.852   2.534  0.1358 -0.3335  0.2102
  485TIP3    H1 1461   2.896   0.849   2.466 -0.9166  0.9916  1.1440
  485TIP3    H2 1462   2.920   0.893   2.609  1.6105 -0.6626  1.2861
  486TIP3   OH2 1463   0.211   0.930   2.491 -0.0537 -0.5492  0.0409
  486TIP3    H1 1464   0.226   0.871   2.566  0.6191  0.0579  0.4020
  486TIP3    H2 1465   0.293   0.978   2.482 -1.1379  1.6109  0.8966
  487TIP3   OH2 1466   5.721   0.754   3.157  0.4861 -0.7997 -0.2131
  487TIP3    H1 1467   5.677   0.797   3.084 -1.1823 -0.3952  0.9658
  487TIP3    H2 1468   5.792   0.813   3.181 -0.2233  0.0754 -0.2189
  488TIP3   OH2 1469   5.712   1.300   1.544  0.2714  0.0994  0.0409
  488TIP3    H1 1470   5.786   1.275   1.600 -0.1842  0.1159  0.6453
  488TIP3    H2 1471   5.639   1.312   1.603 -0.3972 -0.5661 -0.6225
  489TIP3   OH2 1472   4.339   2.737   3.621  0.9770 -0.1112 -0.0267
  489TIP3    H1 1473   4.335   2.810   3.682  2.2445  0.6018 -0.7596
  489TIP3    H2 1474   4.279   2.672   3.658  0.4355  0.9584  1.0665
  490TIP3   OH2 1475   3.755   5.599   4.888  0.3278 -0.4104 -0.2873
  490TIP3    H1 1476   3.822   5.623   4.825  1.0328  0.2428  0.6759
  490TIP3    H2 1477   3.693   5.546   4.839  1.2345 -0.5215 -1.3425
  491TIP3   OH2 1478   0.477   3.072   2.906  0.2721  0.0805 -0.1997
  491TIP3    H1 1479   0.539   3.107   2.841  0.2247  0.0677 -0.2516
  491TIP3    H2 1480   0.459   2.983   2.876  1.9312 -0.7077  1.0107
  492TIP3   OH2 1481   1.818   3.447   2.395 -0.0736  0.2854 -0.1289
  492TIP3    H1 1482   1.741   3.501   2.376  0.2640  1.3821  1.4925
  492TIP3    H2 1483   1.892   3.507   2.392  0.2980  0.0025  1.7685
  493TIP3   OH2 1484   4.744   2.786   3.538 -0.4232  0.2022  0.8237
  493TIP3    H1 1485   4.768   2.725   3.468 -0.9562 -1.0244  1.6652
  493TIP3    H2 1486   4.765   2.739   3.618 -0.0782  1.4809  1.5071
  494TIP3   OH2 1487   1.937   0.297   1.105 -0.5864 -0.4221  0.5331
  494TIP3    H1 1488   1.963   0.259   1.189  0.9273  0.1754  0.3625
  494TIP3    H2 1489   1.991   0.376   1.096 -2.5057  0.8976  0.1252
  495TIP3   OH2 1490   5.995   0.409   1.943 -0.0391 -0.0797  0.2089
  495TIP3    H1 1491   5.899   0.412   1.951 -0.0883  2.0057 -0.4484
  495TIP3    H2 1492   6.024   0.494   1.977  1.5908 -0.6875  0.4179
  496TIP3   OH2 1493   1.136   4.301   2.645  0.1357  0.0598  0.0646
  496TIP3    H1 1494   1.152   4.255   2.728  1.1711  1.0076  0.4211
  496TIP3    H2 1495   1.149   4.235   2.578 -0.8187 -0.7539  0.6468
  497TIP3   OH2 1496   4.777   0.575   3.495 -0.0930  0.3501  0.2951
  497TIP3    H1 1497   4.724   0.642   3.452  1.4152  0.6812 -1.1731
  497TIP3    H2 1498   4.843   0.624   3.544 -0.3553 -0.0703  1.0967
  498TIP3   OH2 1499   2.986   1.352   0.502  0.3825  0.1526 -1.1599
  498TIP3    H1 1500   2.932   1.391   0.571  1.3375 -0.6904  0.0915
  498TIP3    H2 1501   2.923   1.327   0.434 -0.6601  0.2798 -0.2645
  499TIP3   OH2 1502   3.870   3.786   1.211 -0.5803  0.3681  0.1281
  499TIP3    H1 1503   3.855   3.820   1.299 -1.2502 -0.7817  0.4978
  499TIP3    H2 1504   3.802   3.718   1.201 -0.2958  0.2533 -1.1393
  500TIP3   OH2 1505   5.917   1.285   1.729  0.2003  0.1653 -0.1850
  500TIP3    H1 1506   5.916   1.379   1.750 -0.7357  0.1007  0.1177
  500TIP3    H2 1507   6.006   1.257   1.749 -0.0934  0.5247  1.9212
  501TIP3   OH2 1508   2.698   2.494   4.407 -0.1375 -0.7552 -0.0002
  501TIP3    H1 1509   2.662   2.528   4.490 -1.3989 -2.4738  0.2072
  501TIP3    H2 1510   2.792   2.490   4.423 -0.1686  0.5980  0.7079
  502TIP3   OH2 1511   1.153   2.509   4.359 -0.4143 -0.1919 -0.3755
  502TIP3    H1 1512   1.117   2.469   4.438 -0.1080 -1.3790 -0.8014
  502TIP3    H2 1513   1.107   2.465   4.287 -0.1893  0.3621 -0.8683
  503TIP3   OH2 1514   3.924   4.121   4.612  0.4558 -0.1113 -0.2781
  503TIP3    H1 1515   3.981   4.156   4.680  0.5838 -0.4573 -0.2033
  503TIP3    H2 1516   3.866   4.061   4.658  1.1240 -1.0314 -0.5882
  504TIP3   OH2 1517   4.231   2.763   3.340 -0.3906  0.0576  0.2527
  504TIP3    H1 1518   4.279   2.767   3.422  0.0320 -2.8429  0.2335
  504TIP3    H2 1519   4.144   2.797   3.362  0.8713  3.2662  0.8067
  505TIP3   OH2 1520   2.414   1.026   2.696 -0.1051  0.3660  0.2564
  505TIP3    H1 1521   2.474   1.071   2.755  0.0145 -0.0389  0.4515
  505TIP3    H2 1522   2.402   1.086   2.623  1.3925  0.0413 -0.3064
  506TIP3   OH2 1523   3.481   4.495   2.180  0.1910  0.1220 -0.2876
  506TIP3    H1 1524   3.443   4.464   2.262  0.7211  0.6595  0.1730
  506TIP3    H2 1525   3.416   4.556   2.145  0.5779  1.0084  0.4766
  507TIP3   OH2 1526   1.763   4.984   3.973  0.4006  0.1881  0.3830
  507TIP3    H1 1527   1.790   5.074   3.990  0.2352  0.2760  0.1860
  507TIP3    H2 1528   1.674   4.991   3.940  0.2174 -0.0838  0.8039
  508TIP3   OH2 1529   4.860   3.313   3.404 -0.0300 -0.1709  0.7859
  508TIP3    H1 1530   4.867   3.316   3.308  0.9111 -0.9856  0.8114
  508TIP3    H2 1531   4.847   3.404   3.430  1.6515  0.3292 -0.0006
  509TIP3   OH2 1532   6.071   3.609   0.862  0.0380 -0.7902 -0.0732
  509TIP3    H1 1533   6.129   3.536   0.843 -0.2809 -0.3985 -3.1111
  509TIP3    H2 1534   6.103   3.644   0.945  2.7808 -1.9160 -0.5324
  510TIP3   OH2 1535   4.969   3.735   1.216  0.2120 -0.1061  0.2642
  510TIP3    H1 1536   4.981   3.719   1.310  0.1572 -0.6149  0.1896
  510TIP3    H2 1537   4.944   3.827   1.210  0.1484 -0.0879  0.7549
  511TIP3   OH2 1538   0.773   2.541   4.507 -0.1319 -0.3555  0.5340
  511TIP3    H1 1539   0.758   2.634   4.523  0.5658  0.0201 -0.8029
  511TIP3    H2 1540   0.774   2.534   4.412  0.0911 -1.6910  0.6256
  512TIP3   OH2 1541   5.886   0.455   0.305  0.1983  0.1040  0.1045
  512TIP3    H1 1542   5.832   0.531   0.281 -1.5389 -1.3403 -0.7870
  512TIP3    H2 1543   5.876   0.448   0.400 -1.7277 -0.4760 -0.1036
  513TIP3   OH2 1544   5.434   1.045   3.081  0.5383  0.2866  0.0638
  513TIP3    H1 1545   5.447   1.078   3.170  0.6265 -1.1472  0.6150
  513TIP3    H2 1546   5.342   1.021   3.078  0.9538 -1.5486  0.4850
  514TIP3   OH2 1547   1.097   0.192   2.247 -0.8422 -0.4041 -0.5803
  514TIP3    H1 1548   1.185   0.155   2.241 -0.6917  0.0746 -1.3574
  514TIP3    H2 1549   1.106   0.265   2.308 -0.7546 -0.4925 -0.4861
  515TIP3   OH2 1550   0.563   2.529   2.991  0.0271 -0.3935  0.0176
  515TIP3    H1 1551   0.612   2.514   2.910 -0.6436  0.7828 -0.6350
  515TIP3    H2 1552   0.471   2.513   2.967 -0.3223  1.2443  0.1852
  516TIP3   OH2 1553   5.484   1.401   3.937 -0.0675  0.3523 -0.2536
  516TIP3    H1 1554   5.517   1.419   3.849  2.7162 -1.1884  0.3349
  516TIP3    H2 1555   5.556   1.355   3.980 -2.5623 -2.0768  1.7183
  517TIP3   OH2 1556   5.386   4.648   2.172  0.3558  0.2597  0.3451
  517TIP3    H1 1557   5.418   4.561   2.196 -1.0178 -0.5346 -0.5688
  517TIP3    H2 1558   5.421   4.663   2.084 -0.7988 -0.1213 -0.1909
  518TIP3   OH2 1559   3.097   3.931   4.146 -0.7624 -0.0606 -0.0656
  518TIP3    H1 1560   3.161   3.993   4.181 -0.6394  1.2241 -2.3407
  518TIP3    H2 1561   3.047   3.901   4.222  0.6271  1.1502  1.3807
  519TIP3   OH2 1562   4.151   4.959   0.354  0.2947  0.3718 -0.0577
  519TIP3    H1 1563   4.214   4.993   0.417  0.3432 -0.9558  0.6425
  519TIP3    H2 1564   4.125   4.874   0.389 -2.7029  1.2903  0.2635
  520TIP3   OH2 1565   5.866   3.126   2.953  0.3657 -0.3436 -0.4006
  520TIP3    H1 1566   5.935   3.060   2.949  0.3072 -0.4288  0.0063
  520TIP3    H2 1567   5.785   3.077   2.945  0.3423 -0.2521 -0.7811
  521TIP3   OH2 1568   1.517   0.865   1.471 -0.3671  0.0007  0.2508
  521TIP3    H1 1569   1.543   0.895   1.558 -0.4354 -0.0730  0.2964
  521TIP3    H2 1570   1.581   0.798   1.448 -1.5122 -1.4702  1.1051
  522TIP3   OH2 1571   2.964   2.618   4.689 -0.5624 -0.1352  0.6095
  522TIP3    H1 1572   2.961   2.579   4.601 -1.1578 -1.7033  1.2925
  522TIP3    H2 1573   2.872   2.619   4.717 -0.4556  0.9928  0.9649
  523TIP3   OH2 1574   2.066   5.189   4.073 -0.3295  0.6214 -0.2929
  523TIP3    H1 1575   2.070   5.126   4.002 -0.4120 -1.2785  1.2887
  523TIP3    H2 1576   2.096   5.271   4.035  1.2465 -0.7147 -2.0925
  524TIP3   OH2 1577   4.187   5.244   2.360 -0.1371 -0.0583 -0.3435
  524TIP3    H1 1578   4.173   5.283   2.446  0.2899  0.9103 -0.6923
  524TIP3    H2 1579   4.138   5.300   2.300  1.1658  0.4769 -0.9567
  525TIP3   OH2 1580   5.555   5.621   3.636  0.5971  0.3078 -0.5699
  525TIP3    H1 1581   5.515   5.540   3.605 -2.2315  1.6510 -0.7061
  525TIP3    H2 1582   5.627   5.637   3.575  2.8337 -3.2130  0.8246
  526TIP3   OH2 1583   5.851   2.782   1.349  0.6042 -0.2181  0.1405
  526TIP3    H1 1584   5.818   2.745   1.267  3.0920 -1.6356 -0.3125
  526TIP3    H2 1585   5.836   2.876   1.340 -2.1544 -0.6139 -0.4464
  527TIP3   OH2 1586   0.867   0.784   5.033 -0.3010 -0.0861 -0.3931
  527TIP3    H1 1587   0.895   0.826   5.114 -0.6057  1.9741 -1.3008
  527TIP3    H2 1588   0.806   0.716   5.061  2.0707 -1.7087  1.3000
  528TIP3   OH2 1589   6.223   1.008   4.539 -0.8499 -0.0222  0.8167
  528TIP3    H1 1590   6.163   1.083   4.540 -0.3064  0.4411 -0.3745
  528TIP3    H2 1591   6.262   1.009   4.452 -0.2340 -1.2231  1.0622
  529TIP3   OH2 1592   4.770   2.133   0.907 -0.1727 -0.3635  0.2638
  529TIP3    H1 1593   4.682   2.171   0.912  0.1180  0.1993  1.6929
  529TIP3    H2 1594   4.803   2.137   0.997  1.1413 -0.9959 -0.1591
  530TIP3   OH2 1595   4.416   4.094   3.969 -0.3713  0.0856  0.0492
  530TIP3    H1 1596   4.388   4.068   3.881  2.0780  1.2453 -1.1691
  530TIP3    H2 1597   4.461   4.016   4.003 -2.6838 -0.9180  1.0080
  531TIP3   OH2 1598   5.144   2.382   0.634 -0.4416 -0.0975 -0.3203
  531TIP3    H1 1599   5.177   2.384   0.544 -0.2843  0.7212 -0.2524
  531TIP3    H2 1600   5.051   2.405   0.626 -0.0244  1.8471 -0.1230
  532TIP3   OH2 1601   3.485   1.107   4.574  0.2036  0.2059  0.1235
  532TIP3    H1 1602   3.434   1.059   4.639 -0.6080  0.9047  0.0232
  532TIP3    H2 1603   3.482   1.051   4.496 -0.1044  0.0829  0.2225
  533TIP3   OH2 1604   3.507   1.256   0.211 -0.0697 -0.3022  0.0518
  533TIP3    H1 1605   3.433   1.199   0.189 -0.9303  0.2756  1.3703
  533TIP3    H2 1606   3.487   1.339   0.168 -0.0012 -0.2566  0.1077
  534TIP3   OH2 1607   5.877   4.662   1.400  0.4775 -0.0415 -0.3639
  534TIP3    H1 1608   5.918   4.749   1.399 -0.1486  0.3034  0.9630
  534TIP3    H2 1609   5.888   4.629   1.311  2.2168  0.6997 -0.4619
  535TIP3   OH2 1610   1.854   4.737   4.040 -0.2637  0.2763 -0.4264
  535TIP3    H1 1611   1.780   4.693   3.999  0.6524 -0.7021 -1.1097
  535TIP3    H2 1612   1.847   4.828   4.012 -0.8758  0.0646 -0.9672
  536TIP3   OH2 1613   0.913   1.544   1.074  0.1175  0.4876 -0.0520
  536TIP3    H1 1614   0.891   1.567   0.984 -1.3958  2.5939  0.7680
  536TIP3    H2 1615   0.831   1.509   1.110  1.3625 -2.9435 -0.1344
  537TIP3   OH2 1616   5.149   1.390   3.830  0.4667 -0.3573  0.3267
  537TIP3    H1 1617   5.060   1.411   3.799  0.1011  0.4390  1.8102
  537TIP3    H2 1618   5.205   1.403   3.754 -0.6536 -0.6360 -0.5738
  538TIP3   OH2 1619   5.745   5.010   1.511  0.2175 -0.7022 -0.3068
  538TIP3    H1 1620   5.813   4.982   1.450  0.1670  0.2872 -0.8371
  538TIP3    H2 1621   5.703   5.084   1.468  1.1060  0.9543  1.5228
  539TIP3   OH2 1622   4.584   0.870   3.761  0.0779 -0.2410 -0.1147
  539TIP3    H1 1623   4.524   0.904   3.695  2.3748 -0.8994 -2.7551
  539TIP3    H2 1624   4.594   0.940   3.825 -2.4155  0.3393 -0.2891
  540TIP3   OH2 1625   2.802   0.388   3.592 -0.1210 -0.6918 -0.3873
  540TIP3    H1 1626   2.798   0.294   3.574 -0.1540 -1.0822  1.4500
  540TIP3    H2 1627   2.719   0.408   3.635 -0.0407  0.1564 -0.6031
  541TIP3   OH2 1628   0.899   2.282   0.418 -0.0652  0.0215 -0.2781
  541TIP3    H1 1629   0.948   2.300   0.338  1.1760  0.6059  0.5791
  541TIP3    H2 1630   0.958   2.308   0.489 -1.2311 -0.2335  0.8281
  542TIP3   OH2 1631   2.448   1.803   0.377 -0.1637 -0.3194 -0.7359
  542TIP3    H1 1632   2.387   1.804   0.303 -0.2034  0.8862 -0.7024
  542TIP3    H2 1633   2.463   1.710   0.395  0.0801 -0.6400 -2.4480
  543TIP3   OH2 1634   3.958   1.954   0.102 -0.9450 -0.4864 -0.2393
  543TIP3    H1 1635   3.951   2.012   0.026 -1.2263 -0.8885 -0.5248
  543TIP3    H2 1636   4.046   1.970   0.136 -1.7866  1.8059  1.0812
  544TIP3   OH2 1637   3.580   5.077   4.492  0.0221  0.5473 -0.0586
  544TIP3    H1 1638   3.546   5.156   4.450  0.4661  1.4567  1.2004
  544TIP3    H2 1639   3.503   5.022   4.505 -0.4228  1.1037 -0.2907
  545TIP3   OH2 1640   5.628   3.570   4.812 -0.3939 -0.3145 -0.0233
  545TIP3    H1 1641   5.606   3.621   4.735 -0.3230  0.1475  0.2598
  545TIP3    H2 1642   5.571   3.493   4.808 -0.9061  0.0745 -0.1436
  546TIP3   OH2 1643   2.804   3.974   4.580 -0.5045 -0.2147 -0.1502
  546TIP3    H1 1644   2.774   4.024   4.505 -0.3286  1.2351  0.7093
  546TIP3    H2 1645   2.740   3.992   4.648  1.0183  1.1080  1.0189
  547TIP3   OH2 1646   3.205   0.231   4.337  0.1375 -0.0554  0.1280
  547TIP3    H1 1647   3.257   0.233   4.257 -1.1007 -1.6265 -0.7959
  547TIP3    H2 1648   3.119   0.199   4.308  0.3288 -3.0894  2.3799
  548TIP3   OH2 1649   4.044   3.162   4.368  1.0669 -0.2362  0.1846
  548TIP3    H1 1650   4.055   3.106   4.291  1.5593 -0.3542  0.3341
  548TIP3    H2 1651   3.989   3.234   4.338 -1.5156 -1.9332  0.5818
  549TIP3   OH2 1652   1.382   4.278   0.275  0.1690 -0.0527 -0.0288
  549TIP3    H1 1653   1.298   4.264   0.318 -0.0424 -1.2410 -0.7954
  549TIP3    H2 1654   1.376   4.367   0.241  0.1668  0.7614  1.9348
  550TIP3   OH2 1655   3.872   2.356   0.673  0.7108  0.0121  0.8083
  550TIP3    H1 1656   3.828   2.368   0.589  0.3234  1.5012  1.1962
  550TIP3    H2 1657   3.957   2.399   0.662  0.0942  1.4892  1.6041
  551TIP3   OH2 1658   4.994   5.688   3.777  0.2706  0.1001 -0.3224
  551TIP3    H1 1659   4.970   5.756   3.840  0.0694 -0.4609  0.2057
  551TIP3    H2 1660   5.039   5.736   3.707  0.2402  0.7616  0.1030
  552TIP3   OH2 1661   1.957   3.084   1.960  0.1002 -0.0533 -0.3002
  552TIP3    H1 1662   1.925   3.162   2.006  0.4379  0.1559 -0.4137
  552TIP3    H2 1663   1.980   3.115   1.873  0.4112 -0.2435 -0.2865
  553TIP3   OH2 1664   3.028   1.066   2.970 -0.1999 -0.1183 -0.4632
  553TIP3    H1 1665   3.083   1.031   2.900  1.6302 -2.7205  2.0692
  553TIP3    H2 1666   2.959   1.115   2.924  0.9600 -1.5155 -4.0177
  554TIP3   OH2 1667   3.827   3.415   2.299  0.1591 -0.2014  0.0513
  554TIP3    H1 1668   3.855   3.459   2.379 -1.2475  0.5882  0.1361
  554TIP3    H2 1669   3.852   3.474   2.229 -1.0446  0.4017  0.1126
  555TIP3   OH2 1670   3.201   2.375   3.133  0.6058  0.3934  0.3680
  555TIP3    H1 1671   3.212   2.331   3.049  0.1467  2.4138 -0.8299
  555TIP3    H2 1672   3.254   2.454   3.125 -1.8500  2.1893  0.7212
  556TIP3   OH2 1673   2.977   0.567   2.729  0.6134  0.2786  0.2629
  556TIP3    H1 1674   2.979   0.613   2.645  1.0210 -0.2969 -0.0510
  556TIP3    H2 1675   2.921   0.491   2.714 -0.4610  0.9279  0.9201
  557TIP3   OH2 1676   2.758   4.066   0.050  0.1865 -0.0173  0.7688
  557TIP3    H1 1677   2.746   4.110  -0.034 -0.1517  0.1989  0.9271
  557TIP3    H2 1678   2.847   4.033   0.047  0.9985  1.9749  1.2373
  558TIP3   OH2 1679   0.945   5.465   0.236 -0.5046  0.1232  0.1816
  558TIP3    H1 1680   0.864   5.516   0.241 -0.4918  0.1088  0.5404
  558TIP3    H2 1681   1.002   5.504   0.302 -0.2418  0.0889 -0.0223
  559TIP3   OH2 1682   5.915   5.290   3.226  0.5801 -0.1339 -0.5839
  559TIP3    H1 1683   5.972   5.288   3.303  0.5153  1.9447 -0.4410
  559TIP3    H2 1684   5.841   5.234   3.250  1.4517 -1.0453  0.0893
  560TIP3   OH2 1685   2.001   4.424   4.552  0.1864 -0.4474 -0.3683
  560TIP3    H1 1686   2.078   4.455   4.600 -0.7408 -0.3142  1.0767
  560TIP3    H2 1687   1.982   4.495   4.490 -0.5857  0.9825  1.3960
  561TIP3   OH2 1688   5.100   1.928   3.449  0.4171 -0.3885 -0.4147
  561TIP3    H1 1689   5.042   1.956   3.520  0.0213  0.3906 -1.0298
  561TIP3    H2 1690   5.126   2.009   3.405 -0.1339 -0.9042 -1.7687
  562TIP3   OH2 1691   3.271   3.426   4.584  1.1255  0.5919  0.5676
  562TIP3    H1 1692   3.212   3.370   4.533  1.5302 -1.3762  2.1363
  562TIP3    H2 1693   3.265   3.511   4.542 -1.0778 -0.1157 -0.7191
  563TIP3   OH2 1694   1.580   2.030   2.454  0.1926  0.0368  0.4287
  563TIP3    H1 1695   1.505   2.083   2.480  0.1771  1.3374 -1.9957
  563TIP3    H2 1696   1.587   1.963   2.522 -2.5192  0.4754  1.2458
  564TIP3   OH2 1697   5.374   2.622   2.982  0.4053  0.5406 -0.0032
  564TIP3    H1 1698   5.311   2.690   2.961  0.6626  1.1767  1.1990
  564TIP3    H2 1699   5.391   2.578   2.899  2.5415  3.8559 -1.5229
  565TIP3   OH2 1700   0.079   4.494   1.613  0.2731  0.3922 -0.4579
  565TIP3    H1 1701   0.120   4.537   1.538  0.1299  0.3147 -0.5815
  565TIP3    H2 1702   0.148   4.438   1.649 -0.2100 -1.1286 -1.7513
  566TIP3   OH2 1703   2.544   2.358   3.056  0.3794 -0.1974 -0.3627
  566TIP3    H1 1704   2.451   2.337   3.049  0.5358 -0.3072 -2.8317
  566TIP3    H2 1705   2.565   2.402   2.974  2.6994 -0.9777 -0.2602
  567TIP3   OH2 1706   5.316   2.012   2.579 -0.2782  0.3467 -0.5231
  567TIP3    H1 1707   5.337   1.971   2.495 -1.3945 -0.3478 -0.4869
  567TIP3    H2 1708   5.355   1.954   2.644  1.6976  1.5540 -0.5534
  568TIP3   OH2 1709   3.890   3.505   0.216 -0.4435 -0.3625  0.0637
  568TIP3    H1 1710   3.807   3.530   0.176 -0.2463  2.0320  0.9958
  568TIP3    H2 1711   3.871   3.497   0.309 -0.0596 -2.0193  0.0332
  569TIP3   OH2 1712   1.461   1.401   1.009 -0.0619 -0.5712  0.3003
  569TIP3    H1 1713   1.506   1.442   1.082 -0.9244  0.2502  0.3915
  569TIP3    H2 1714   1.368   1.417   1.026 -0.2492  0.4258 -1.3977
  570TIP3   OH2 1715   4.199   5.540   0.328 -0.3655  0.1611 -0.3805
  570TIP3    H1 1716   4.202   5.508   0.239  2.2078 -0.7370 -0.0622
  570TIP3    H2 1717   4.199   5.461   0.383 -0.4496  0.6878  0.4048
  571TIP3   OH2 1718   5.775   2.606   3.677 -0.3026  0.1847  0.4143
  571TIP3    H1 1719   5.799   2.582   3.588  0.8603  0.8639  0.5312
  571TIP3    H2 1720   5.826   2.548   3.733  0.1083  0.7519  0.6447
  572TIP3   OH2 1721   4.928   3.783   3.961 -0.7059 -0.2895  0.0237
  572TIP3    H1 1722   4.880   3.826   4.032 -1.1139  1.0594 -1.0379
  572TIP3    H2 1723   4.926   3.845   3.889  1.3711 -0.8144 -0.5717
  573TIP3   OH2 1724   0.914   1.179   0.668 -0.0453 -0.3850  0.4202
  573TIP3    H1 1725   0.820   1.187   0.651 -0.4473  0.7658  2.7338
  573TIP3    H2 1726   0.936   1.090   0.643 -1.2362 -0.0332 -2.2339
  574TIP3   OH2 1727   4.878   4.090   0.835  0.0756 -0.2462 -0.1276
  574TIP3    H1 1728   4.845   4.143   0.762  0.1268 -0.3149 -0.1998
  574TIP3    H2 1729   4.972   4.105   0.835  0.1227 -0.5449 -0.3107
  575TIP3   OH2 1730   1.909   3.335   4.212  0.1645 -0.3261 -0.2214
  575TIP3    H1 1731   1.981   3.385   4.172 -0.3497 -0.0118 -0.7639
  575TIP3    H2 1732   1.830   3.376   4.179 -0.2845 -1.9908 -1.2918
  576TIP3   OH2 1733   4.863   0.288   0.159 -0.3424 -0.0558 -0.1938
  576TIP3    H1 1734   4.794   0.325   0.104  0.4418  0.7657 -0.6744
  576TIP3    H2 1735   4.844   0.320   0.247 -1.4304 -1.1171 -0.0258
  577TIP3   OH2 1736   2.842   1.475   1.419 -0.0730  0.3484  0.7913
  577TIP3    H1 1737   2.912   1.536   1.393  2.7364 -2.2614  1.6013
  577TIP3    H2 1738   2.827   1.495   1.512 -0.2559  0.8013  0.6652
  578TIP3   OH2 1739   2.428   3.883   3.224  0.4845 -0.4535  0.0146
  578TIP3    H1 1740   2.394   3.875   3.313 -0.7394  2.9467  0.0208
  578TIP3    H2 1741   2.352   3.912   3.172  1.6354 -0.3203 -1.6756
  579TIP3   OH2 1742   3.872   0.553   4.314 -0.6182  0.0139 -0.0214
  579TIP3    H1 1743   3.872   0.465   4.351  2.1269 -0.4932 -1.0025
  579TIP3    H2 1744   3.944   0.598   4.359 -2.4266  2.0796  0.9961
  580TIP3   OH2 1745   0.365   5.308   2.229 -0.1221 -0.1240 -0.3454
  580TIP3    H1 1746   0.429   5.321   2.159 -0.5753  1.0425 -0.5555
  580TIP3    H2 1747   0.348   5.213   2.228  0.8477 -0.3056 -0.9442
  581TIP3   OH2 1748   2.693   0.083   0.712  0.1035 -0.4718 -0.5459
  581TIP3    H1 1749   2.675   0.166   0.755 -0.2343 -0.0360 -1.4868
  581TIP3    H2 1750   2.735   0.107   0.629 -1.1592 -1.1453 -1.4280
  582TIP3   OH2 1751   3.365   5.644   4.719 -0.3663  0.4902 -0.7550
  582TIP3    H1 1752   3.382   5.603   4.804 -1.2071  0.0538 -0.7901
  582TIP3    H2 1753   3.424   5.719   4.717 -0.3149  0.4952  0.2112
  583TIP3   OH2 1754   5.629   5.203   0.080 -0.3151  0.1830  0.1532
  583TIP3    H1 1755   5.676   5.154   0.013 -2.4318  0.4569 -1.6782
  583TIP3    H2 1756   5.563   5.142   0.114 -0.5457  0.6354  0.5470
  584TIP3   OH2 1757   5.343   2.350   3.265  0.5791 -0.7410  0.1260
  584TIP3    H1 1758   5.438   2.348   3.253  0.7973  1.7248  0.8395
  584TIP3    H2 1759   5.328   2.430   3.316 -1.7320 -1.9783  1.5176
  585TIP3   OH2 1760   5.783   5.449   0.103 -0.2106  0.5192 -0.2277
  585TIP3    H1 1761   5.729   5.372   0.086  1.1034 -0.8144  1.2906
  585TIP3    H2 1762   5.837   5.459   0.024  1.5794 -1.8814  0.5905
  586TIP3   OH2 1763   6.050   1.603   0.317 -0.3367 -0.0027  0.2075
  586TIP3    H1 1764   6.016   1.525   0.360  1.9157 -1.5943 -0.7491
  586TIP3    H2 1765   6.113   1.640   0.380 -1.0541  0.8371  0.4653
  587TIP3   OH2 1766   5.889   2.581   1.757  0.1603  0.9706 -0.6245
  587TIP3    H1 1767   5.898   2.676   1.768  2.1505  0.8511 -0.8916
  587TIP3    H2 1768   5.862   2.549   1.843  2.7103  1.4606  0.4485
  588TIP3   OH2 1769   2.514   2.945   0.694 -0.0085  0.4684  0.3844
  588TIP3    H1 1770   2.559   2.948   0.609  1.5401  1.8045  1.1779
  588TIP3    H2 1771   2.426   2.979   0.676 -0.4486 -1.2950 -1.0505
  589TIP3   OH2 1772   4.282   5.912   3.448 -0.0112  0.3088  0.3138
  589TIP3    H1 1773   4.319   5.826   3.466 -0.1669  0.4292  1.2493
  589TIP3    H2 1774   4.261   5.948   3.534  1.7093  2.0159  0.0896
  590TIP3   OH2 1775   5.927   2.420   4.378  0.2262 -0.1173  0.6421
  590TIP3    H1 1776   5.898   2.432   4.469 -0.2270 -0.2779  0.5228
  590TIP3    H2 1777   5.919   2.326   4.363 -0.9489  0.0608  0.0321
  591TIP3   OH2 1778   2.692   0.029   4.411  0.2834 -0.0582  0.0870
  591TIP3    H1 1779   2.658   0.115   4.435 -1.2530 -0.5472 -0.2358
  591TIP3    H2 1780   2.685  -0.023   4.492  2.9442  0.5507  0.8376
  592TIP3   OH2 1781   4.118   3.471   3.381 -0.4149 -0.0450 -0.0077
  592TIP3    H1 1782   4.053   3.405   3.356 -0.4746 -0.0940  0.2775
  592TIP3    H2 1783   4.198   3.421   3.397 -0.4561 -0.0479  0.1922
  593TIP3   OH2 1784   3.729   0.888   0.167 -0.3165 -0.4174  0.0217
  593TIP3    H1 1785   3.766   0.959   0.115 -0.1061 -0.6899 -0.2062
  593TIP3    H2 1786   3.692   0.828   0.103 -0.8413 -0.3221  0.2340
  594TIP3   OH2 1787   1.549   5.900   0.080 -0.3871  0.1576 -0.4739
  594TIP3    H1 1788   1.603   5.821   0.080  0.0151  0.4236  0.2819
  594TIP3    H2 1789   1.461   5.870   0.100 -0.0757 -0.0070  0.7288
  595TIP3   OH2 1790   2.114   3.910   3.261  0.4883 -0.4099 -1.0386
  595TIP3    H1 1791   2.120   3.824   3.303 -1.0511 -0.0290  0.0107
  595TIP3    H2 1792   2.081   3.891   3.173 -1.4928 -0.7991 -0.2623
  596TIP3   OH2 1793   5.416   2.185   4.655 -0.1625  0.4860 -0.5779
  596TIP3    H1 1794   5.337   2.194   4.602 -0.3482 -1.8242 -0.7999
  596TIP3    H2 1795   5.391   2.220   4.741 -1.5679 -0.4848 -0.5539
  597TIP3   OH2 1796   3.259   1.343   0.519 -0.4458 -0.3717  0.2402
  597TIP3    H1 1797   3.165   1.341   0.500 -0.4909  0.6135  0.3244
  597TIP3    H2 1798   3.300   1.374   0.438 -0.3583  0.8180  0.7192
  598TIP3   OH2 1799   0.255   4.374   3.199  0.6278 -0.4962 -0.1989
  598TIP3    H1 1800   0.240   4.303   3.262 -1.3657  1.4287  1.6900
  598TIP3    H2 1801   0.188   4.362   3.132  0.0219 -0.2051  0.3433
  599TIP3   OH2 1802   1.049   2.264   4.178 -0.4284  0.3560 -0.4919
  599TIP3    H1 1803   1.130   2.267   4.126 -0.2723  0.0489 -0.2660
  599TIP3    H2 1804   1.065   2.197   4.244 -0.1060  1.6821  0.8355
  600TIP3   OH2 1805   3.981   3.982   1.432  0.3917  0.2003 -0.0476
  600TIP3    H1 1806   4.030   3.974   1.350 -0.7111  0.6688 -0.7760
  600TIP3    H2 1807   3.889   3.986   1.405 -0.2267 -2.3741  1.3528
  601TIP3   OH2 1808   0.505   4.347   0.701 -0.2995 -0.2442  0.1799
  601TIP3    H1 1809   0.502   4.259   0.739 -2.0987 -0.4459 -0.3595
  601TIP3    H2 1810   0.586   4.385   0.736  0.3772 -1.9991  0.6434
  602TIP3   OH2 1811   6.067   2.096   4.676 -0.6495 -0.0394 -0.5105
  602TIP3    H1 1812   6.114   2.128   4.753 -1.0542  0.6209 -0.5254
  602TIP3    H2 1813   6.078   2.001   4.678  0.7553  0.1016 -0.5665
  603TIP3   OH2 1814   4.210   2.469   2.607  0.4635 -0.4572  0.7302
  603TIP3    H1 1815   4.233   2.512   2.525 -0.3552 -0.1696  0.6486
  603TIP3    H2 1816   4.189   2.379   2.582 -4.0419  0.5923 -0.1270
  604TIP3   OH2 1817   1.533   1.786   2.261  0.1075 -0.1116  0.0720
  604TIP3    H1 1818   1.617   1.795   2.307 -0.6405  0.6302  1.3741
  604TIP3    H2 1819   1.469   1.779   2.332 -1.1236  1.2605 -0.8634
  605TIP3   OH2 1820   6.246   3.362   3.570 -0.1490  0.2197 -0.3758
  605TIP3    H1 1821   6.161   3.348   3.612 -0.0406 -0.7438 -0.4564
  605TIP3    H2 1822   6.225   3.377   3.478 -0.3200  1.3484 -0.1589
  606TIP3   OH2 1823   3.164   3.847   1.544  0.1617 -0.1816  0.4238
  606TIP3    H1 1824   3.241   3.850   1.600  0.2457 -1.2045  0.3709
  606TIP3    H2 1825   3.090   3.866   1.603  0.5108  1.9054  0.2804
  607TIP3   OH2 1826   2.898   1.346   0.090 -0.0691 -0.1270  0.0973
  607TIP3    H1 1827   2.916   1.268   0.143 -0.0040 -0.5210 -0.4871
  607TIP3    H2 1828   2.975   1.355   0.034 -0.0334  0.4228  0.2281
  608TIP3   OH2 1829   3.765   4.101   3.083 -0.1095  0.0091 -0.4638
  608TIP3    H1 1830   3.765   4.063   3.171 -0.3444 -2.2507 -1.3756
  608TIP3    H2 1831   3.789   4.193   3.097  0.3911 -0.4051  1.8843
  609TIP3   OH2 1832   3.491   0.622   0.622  0.0222 -0.6216  0.4578
  609TIP3    H1 1833   3.520   0.712   0.609 -1.5015 -0.1103  0.3755
  609TIP3    H2 1834   3.543   0.571   0.560 -1.7968  0.7429 -2.4433
  610TIP3   OH2 1835   5.963   0.023   2.244  0.1267  0.2077 -0.2798
  610TIP3    H1 1836   5.922   0.030   2.158  0.7778 -0.2123 -0.6399
  610TIP3    H2 1837   6.056   0.037   2.227  0.2650  0.0743  0.3485
  611TIP3   OH2 1838   3.828   1.585   4.144 -0.4927 -0.3847  0.2588
  611TIP3    H1 1839   3.783   1.560   4.064  1.1434 -1.6053 -0.3189
  611TIP3    H2 1840   3.837   1.503   4.193  1.7042 -0.3419  0.0120
  612TIP3   OH2 1841   5.538   1.368   1.743 -0.2468  0.0804 -0.4803
  612TIP3    H1 1842   5.452   1.325   1.743 -0.6167  0.8166 -0.2105
  612TIP3    H2 1843   5.520   1.458   1.767  0.4678  0.5401 -1.6145
  613TIP3   OH2 1844   5.280   0.418   3.221 -0.2073 -0.0884 -0.4377
  613TIP3    H1 1845   5.370   0.452   3.224  0.0297 -0.7429  1.0376
  613TIP3    H2 1846   5.234   0.477   3.161  1.2613  0.0992 -1.4577
  614TIP3   OH2 1847   0.482   5.038   3.514 -0.4464 -0.1170  0.4250
  614TIP3    H1 1848   0.497   5.112   3.572 -0.1799 -0.8563  1.3179
  614TIP3    H2 1849   0.392   5.049   3.483 -0.7118  0.0855  1.2609
  615TIP3   OH2 1850   4.181   1.078   4.833 -0.2501 -0.1663 -0.3730
  615TIP3    H1 1851   4.264   1.029   4.828 -0.3154 -0.2431 -0.6959
  615TIP3    H2 1852   4.207   1.164   4.866 -0.0222 -0.1440 -0.6093
  616TIP3   OH2 1853   2.616   4.725   1.101  0.2944  0.3463 -0.1148
  616TIP3    H1 1854   2.541   4.700   1.155  0.5215 -2.0988 -0.8232
  616TIP3    H2 1855   2.577   4.770   1.026 -0.3876 -0.0647 -0.0193
  617TIP3   OH2 1856   0.813   0.598   0.163 -0.4112  0.1976  0.0533
  617TIP3    H1 1857   0.833   0.505   0.150  0.6591  0.4397 -0.0605
  617TIP3    H2 1858   0.870   0.644   0.102  0.1295  1.0134  1.1492
  618TIP3   OH2 1859   6.253   5.196   0.932 -0.4026  0.4860  0.6285
  618TIP3    H1 1860   6.187   5.141   0.890 -0.7402  0.1022  1.6254
  618TIP3    H2 1861   6.205   5.271   0.965 -0.1550  0.7534  0.3806
  619TIP3   OH2 1862   0.551   5.129   1.863 -0.2299  0.3305 -0.2010
  619TIP3    H1 1863   0.546   5.204   1.804  1.0162  1.9089  1.5819
  619TIP3    H2 1864   0.471   5.135   1.916  0.3102  0.9836  0.5615
  620TIP3   OH2 1865   0.000   2.371   5.043  0.2318 -0.0078 -0.1162
  620TIP3    H1 1866   0.077   2.317   5.022 -0.3535 -0.6500 -0.6575
  620TIP3    H2 1867   0.033   2.461   5.039  1.4588 -0.3203  1.7206
  621TIP3   OH2 1868   4.067   2.963   3.845  0.3984  0.1897  1.0730
  621TIP3    H1 1869   4.021   2.881   3.865 -0.3117  0.7234  1.7056
  621TIP3    H2 1870   4.005   3.013   3.791  0.2938  0.8188  1.7439
  622TIP3   OH2 1871   0.395   4.149   3.595  0.4091 -0.4615 -0.3244
  622TIP3    H1 1872   0.305   4.175   3.616  0.6519 -0.3459  0.5735
  622TIP3    H2 1873   0.405   4.174   3.503 -0.3315 -0.0660 -0.3104
  623TIP3   OH2 1874   2.691   1.692   1.033 -0.3723  0.1589  0.4999
  623TIP3    H1 1875   2.659   1.746   0.960 -1.5766 -0.6014  0.4368
  623TIP3    H2 1876   2.629   1.619   1.038  0.3002 -0.3653  1.6149
  624TIP3   OH2 1877   4.622   4.862   2.449 -0.9785 -0.1481 -0.3301
  624TIP3    H1 1878   4.581   4.948   2.458 -0.4362  0.1212 -0.3629
  624TIP3    H2 1879   4.716   4.881   2.444 -0.6767 -0.8932  1.7342
  625TIP3   OH2 1880   0.117   2.955   1.433 -0.1359 -0.8620  1.0510
  625TIP3    H1 1881   0.076   2.923   1.514  0.1692 -0.9866  1.1560
  625TIP3    H2 1882   0.142   2.876   1.386 -1.1514 -0.8105  0.3969
  626TIP3   OH2 1883   0.661   0.520   2.343  0.1134  0.0046 -0.1947
  626TIP3    H1 1884   0.748   0.555   2.363 -1.0216  2.8642  0.2400
  626TIP3    H2 1885   0.631   0.573   2.268 -0.3325 -2.6160 -1.9935
  627TIP3   OH2 1886   4.139   2.601   4.876 -0.1802  0.1872  0.2207
  627TIP3    H1 1887   4.209   2.659   4.905  0.7075 -1.0904  0.7072
  627TIP3    H2 1888   4.156   2.519   4.921 -1.3175 -0.5080 -0.5770
  628TIP3   OH2 1889   5.843   2.377   3.038  0.2226  0.0660 -0.2803
  628TIP3    H1 1890   5.911   2.313   3.056  0.3063  0.7600  2.3450
  628TIP3    H2 1891   5.888   2.461   3.039 -0.4962  0.4555  0.4473
  629TIP3   OH2 1892   1.245   4.008   1.925 -0.2148 -0.0377 -0.3995
  629TIP3    H1 1893   1.299   3.929   1.916  0.9253  0.4694  1.4243
  629TIP3    H2 1894   1.195   3.993   2.005 -2.2912 -0.1492 -1.6367
  630TIP3   OH2 1895   3.727   1.008   4.355 -0.6233  0.3705 -0.3134
  630TIP3    H1 1896   3.729   1.029   4.261  2.8520 -0.0430 -0.4494
  630TIP3    H2 1897   3.647   0.958   4.366  0.5512 -2.7746 -3.8592
  631TIP3   OH2 1898   3.890   2.592   1.501  0.0501  0.1361 -0.4120
  631TIP3    H1 1899   3.944   2.643   1.440  0.3228 -1.7631 -1.8474
  631TIP3    H2 1900   3.935   2.509   1.510 -1.3023 -0.5434  0.4327
  632TIP3   OH2 1901   2.355   1.971   4.269  0.1608 -0.0650  0.1386
  632TIP3    H1 1902   2.349   1.956   4.175 -0.4593  3.5788 -0.5496
  632TIP3    H2 1903   2.445   1.945   4.292  0.6075 -0.1983 -1.6377
  633TIP3   OH2 1904   3.382   3.022   4.439  0.3705  0.1565 -0.1600
  633TIP3    H1 1905   3.342   3.058   4.519  0.8565 -0.4182  0.3437
  633TIP3    H2 1906   3.386   2.928   4.454  1.2395  0.1312 -0.5167
  634TIP3   OH2 1907   5.509   0.116   2.736 -0.2758  0.6168 -0.3266
  634TIP3    H1 1908   5.437   0.090   2.679  0.4042  2.0455 -1.9382
  634TIP3    H2 1909   5.537   0.035   2.778 -1.6967 -0.2473 -0.9828
  635TIP3   OH2 1910   5.978   3.693   3.038  0.4214  0.1906 -0.0091
  635TIP3    H1 1911   6.001   3.719   2.949  1.7895  0.2086  0.3166
  635TIP3    H2 1912   6.005   3.602   3.045  2.7925  0.8780  1.1124
  636TIP3   OH2 1913   6.103   5.574   0.453  0.0438  0.7642  0.3492
  636TIP3    H1 1914   6.013   5.596   0.479 -0.3610  0.2458 -0.5685
  636TIP3    H2 1915   6.092   5.515   0.379  1.1502  1.6521 -0.5505
  637TIP3   OH2 1916   3.383   1.691   4.412 -1.0222 -0.3675 -0.1198
  637TIP3    H1 1917   3.311   1.722   4.358 -1.6855 -0.6230  0.6054
  637TIP3    H2 1918   3.362   1.721   4.501  0.7838  1.3597 -0.1802
  638TIP3   OH2 1919   1.522   0.193   0.288 -0.0504 -0.1181  0.1085
  638TIP3    H1 1920   1.539   0.284   0.313 -1.4788  0.6233 -1.3793
  638TIP3    H2 1921   1.582   0.142   0.342 -1.1746  1.4667  3.1605
  639TIP3   OH2 1922   5.395   0.124   5.058  0.3019 -0.6985  0.0575
  639TIP3    H1 1923   5.480   0.160   5.032  0.4161 -0.9109  0.1331
  639TIP3    H2 1924   5.398   0.032   5.030  0.7478 -1.1552  1.5356
  640TIP3   OH2 1925   4.074   3.928   3.374  0.4293 -1.1334  0.1774
  640TIP3    H1 1926   4.092   3.981   3.296  3.0485 -0.9321  0.8253
  640TIP3    H2 1927   4.089   3.988   3.447 -1.1089 -1.5735  0.8814
  641TIP3   OH2 1928   1.947   0.472   4.799 -0.4623 -0.4453 -0.2983
  641TIP3    H1 1929   1.919   0.464   4.890  0.7727  2.0743  0.3951
  641TIP3    H2 1930   2.030   0.426   4.795 -0.3077 -0.1933 -0.0314
  642TIP3   OH2 1931   2.435   0.140   2.247  0.2051 -0.2660  0.3783
  642TIP3    H1 1932   2.454   0.117   2.156  0.6635 -1.1857  0.6967
  642TIP3    H2 1933   2.514   0.117   2.295  0.8144  2.2645  0.7150
  643TIP3   OH2 1934   1.713   4.937   4.955 -0.4287 -0.4852 -0.2236
  643TIP3    H1 1935   1.630   4.947   5.003 -1.1695 -0.6787 -1.4379
  643TIP3    H2 1936   1.702   4.856   4.905  0.8238 -0.9429  0.2231
  644TIP3   OH2 1937   5.185   4.435   0.380  0.6564  0.0106  0.0373
  644TIP3    H1 1938   5.167   4.510   0.323 -2.5451 -0.2886  0.4991
  644TIP3    H2 1939   5.173   4.469   0.469  0.0282 -0.8157  0.2807
  645TIP3   OH2 1940   2.914   1.066   0.088 -0.2007 -0.0705  0.6095
  645TIP3    H1 1941   2.984   1.003   0.102 -1.5744 -1.6717  0.5505
  645TIP3    H2 1942   2.915   1.084  -0.006 -1.5983 -2.2939  0.0917
  646TIP3   OH2 1943   1.297   3.052   5.186 -0.0123 -0.2880  0.0053
  646TIP3    H1 1944   1.254   3.009   5.112 -3.2189  0.9187  1.0300
  646TIP3    H2 1945   1.322   3.138   5.151 -0.2743 -0.2257 -0.0261
  647TIP3   OH2 1946   1.743   0.504   3.669 -0.2233 -0.6360  0.2034
  647TIP3    H1 1947   1.649   0.497   3.652 -0.7951  0.7662  2.3664
  647TIP3    H2 1948   1.760   0.599   3.666  1.1369 -0.8682 -0.1254
  648TIP3   OH2 1949   4.718   0.211   3.680 -0.0337  0.5617  0.2304
  648TIP3    H1 1950   4.745   0.173   3.596 -0.5514  0.1073  0.2655
  648TIP3    H2 1951   4.726   0.138   3.742  0.7757  1.0113  0.6692
  649TIP3   OH2 1952   2.969   0.961   1.497  0.0440 -0.4038  0.5567
  649TIP3    H1 1953   3.059   0.991   1.490  0.4374 -1.2724  1.5193
  649TIP3    H2 1954   2.931   0.976   1.410  0.7517  1.0538  0.4776
  650TIP3   OH2 1955   4.226   4.873   2.927 -0.4570  0.1416  0.2154
  650TIP3    H1 1956   4.153   4.910   2.977 -0.1556  0.5909  0.3324
  650TIP3    H2 1957   4.304   4.915   2.964 -0.3360  1.8032 -1.7399
  651TIP3   OH2 1958   4.750   1.162   2.517 -0.6252 -0.0079  0.2111
  651TIP3    H1 1959   4.673   1.128   2.563 -0.8504 -1.0771 -0.9144
  651TIP3    H2 1960   4.733   1.144   2.425  0.7160  0.2734 -0.1110
  652TIP3   OH2 1961   1.662   5.007   3.620  0.6337 -0.0762  0.5195
  652TIP3    H1 1962   1.700   5.062   3.552  0.0889  2.1589  1.9195
  652TIP3    H2 1963   1.683   5.053   3.702  0.0059 -1.8935  1.7551
  653TIP3   OH2 1964   3.597   3.269   2.500  0.0068  0.1649 -0.3311
  653TIP3    H1 1965   3.620   3.225   2.418 -0.9480 -0.7064 -0.1562
  653TIP3    H2 1966   3.557   3.200   2.553  1.5021  0.4742  1.2698
  654TIP3   OH2 1967   1.189   3.506   1.130 -0.4086 -0.1673  0.0663
  654TIP3    H1 1968   1.158   3.420   1.101  0.8653 -0.2407 -1.1971
  654TIP3    H2 1969   1.195   3.558   1.050  1.5778  0.1756  0.3710
  655TIP3   OH2 1970   1.660   5.613   0.840 -0.1359 -0.6440 -0.2023
  655TIP3    H1 1971   1.711   5.549   0.790 -0.6299 -1.0098 -0.2472
  655TIP3    H2 1972   1.613   5.663   0.773  0.4088 -0.0945 -0.1772
  656TIP3   OH2 1973   4.612   4.407   3.939 -0.2807 -0.4779 -0.6523
  656TIP3    H1 1974   4.621   4.469   4.012 -1.5024  0.8760 -1.6115
  656TIP3    H2 1975   4.691   4.353   3.945 -0.2069 -0.2534  1.5025
  657TIP3   OH2 1976   2.961   1.788   3.497  0.1690  0.0659  0.3772
  657TIP3    H1 1977   2.869   1.811   3.509  0.3543  1.1197 -0.1430
  657TIP3    H2 1978   2.960   1.712   3.439 -0.3451  0.6448 -0.3819
  658TIP3   OH2 1979   5.334   4.433   2.945  0.0904 -0.6167  0.0154
  658TIP3    H1 1980   5.394   4.457   3.014  1.6418 -1.2760 -1.0412
  658TIP3    H2 1981   5.275   4.508   2.936  0.4745 -0.1338  1.3624
  659TIP3   OH2 1982   6.243   2.382   4.059 -0.0375  0.2503  0.5503
  659TIP3    H1 1983   6.168   2.335   4.095  0.6796  0.5170  2.5393
  659TIP3    H2 1984   6.216   2.474   4.058  0.0596  0.2823  0.7504
  660TIP3   OH2 1985   4.027   0.270   0.667  0.3499 -0.4120 -0.1807
  660TIP3    H1 1986   4.060   0.211   0.600  0.5161 -0.2356 -0.2554
  660TIP3    H2 1987   4.068   0.240   0.748 -0.0975 -0.8209 -0.1057
  661TIP3   OH2 1988   3.012   0.841   3.128 -0.1649 -0.2678  0.3785
  661TIP3    H1 1989   2.997   0.904   3.058 -0.5524 -1.1899 -0.4035
  661TIP3    H2 1990   3.067   0.773   3.089 -0.4377 -0.8301  0.9400
  662TIP3   OH2 1991   0.808   1.845   4.454  0.2051  0.1779 -0.6951
  662TIP3    H1 1992   0.846   1.881   4.374 -0.6040  1.7425 -0.4293
  662TIP3    H2 1993   0.713   1.846   4.438 -0.0285  1.3035  0.5541
  663TIP3   OH2 1994   2.565   4.333   1.661 -0.4070 -0.2884  0.1294
  663TIP3    H1 1995   2.510   4.386   1.717  0.1742  0.7998 -0.3041
  663TIP3    H2 1996   2.652   4.337   1.700 -0.5496 -1.8107  0.6867
  664TIP3   OH2 1997   6.218   2.760   3.273 -0.1485  0.0135 -0.3551
  664TIP3    H1 1998   6.232   2.672   3.309  1.6651  0.7470  0.8600
  664TIP3    H2 1999   6.259   2.756   3.186 -0.5442 -0.4627 -0.5316
  665TIP3   OH2 2000   4.826   5.589   1.250 -0.1432  0.1315  0.4516
  665TIP3    H1 2001   4.794   5.627   1.332 -0.7254 -0.4702  0.5101
  665TIP3    H2 2002   4.921   5.584   1.261 -0.0403  1.6450  0.4076
  666TIP3   OH2 2003   0.196   2.678   3.238 -0.1483 -0.3208  0.0081
  666TIP3    H1 2004   0.257   2.719   3.176 -0.1613  2.6202  1.7270
  666TIP3    H2 2005   0.113   2.675   3.190  0.5230 -1.1283 -1.1636
  667TIP3   OH2 2006   2.135   2.395   3.797 -0.1329 -0.7274 -0.4932
  667TIP3    H1 2007   2.187   2.374   3.874  0.2700 -0.3689 -0.6592
  667TIP3    H2 2008   2.150   2.322   3.737 -0.5255 -1.0544 -0.1990
  668TIP3   OH2 2009   4.433   4.476   3.098  0.2621  0.2891  0.2132
  668TIP3    H1 2010   4.453   4.529   3.174 -0.6886  1.7999 -0.5390
  668TIP3    H2 2011   4.340   4.493   3.081  0.5036  0.1557 -1.3924
  669TIP3   OH2 2012   2.223   1.642   2.660  0.1757  0.1131 -0.0106
  669TIP3    H1 2013   2.239   1.700   2.734 -0.5323  0.5750 -0.2091
  669TIP3    H2 2014   2.289   1.667   2.595 -1.1658  1.8894 -0.7602
  670TIP3   OH2 2015   1.071   4.374   3.677  0.4021  0.3686 -0.1271
  670TIP3    H1 2016   1.067   4.428   3.756 -0.7595  0.1709 -0.0421
  670TIP3    H2 2017   1.011   4.417   3.616  2.1732  1.2260 -1.3724
  671TIP3   OH2 2018   4.374   4.349   2.819 -0.0930 -0.0030  0.3009
  671TIP3    H1 2019   4.394   4.315   2.906  0.7068 -1.3697 -0.3885
  671TIP3    H2 2020   4.369   4.271   2.763 -1.4573  0.7820 -0.7153
  672TIP3   OH2 2021   0.362   3.060   1.972  0.3485  0.2727  0.1308
  672TIP3    H1 2022   0.431   3.084   2.034  0.9326 -1.0787  0.0508
  672TIP3    H2 2023   0.402   2.992   1.917 -0.3554  1.0057 -1.3422
  673TIP3   OH2 2024   2.107   2.076   4.415  0.0997  0.0664 -0.7229
  673TIP3    H1 2025   2.100   2.147   4.351 -2.1756  0.9962  0.4387
  673TIP3    H2 2026   2.094   2.118   4.500  0.8658 -1.4540  0.1966
  674TIP3   OH2 2027   5.821   3.977   2.331 -0.1273 -0.1682 -0.0218
  674TIP3    H1 2028   5.786   4.045   2.274 -0.5778 -1.0708 -0.8617
  674TIP3    H2 2029   5.835   3.902   2.273 -1.4141 -1.4208  1.1698
  675TIP3   OH2 2030   3.615   0.996   1.527  0.2284  0.0485  0.0818
  675TIP3    H1 2031   3.703   1.013   1.561  0.5352 -2.7800  0.9187
  675TIP3    H2 2032   3.560   0.985   1.605 -0.3001 -0.7687 -0.3889
  676TIP3   OH2 2033   2.679   4.362   2.628 -0.2005 -0.0507  0.1401
  676TIP3    H1 2034   2.718   4.315   2.554 -0.8951 -0.5260  0.0622
  676TIP3    H2 2035   2.693   4.454   2.608  0.3197 -0.1957 -0.1928
  677TIP3   OH2 2036   4.214   1.198   2.471 -0.1179  0.1250  0.2717
  677TIP3    H1 2037   4.119   1.206   2.480 -0.1923 -0.4823  0.0821
  677TIP3    H2 2038   4.250   1.243   2.548 -0.5765 -0.2321  0.7018
  678TIP3   OH2 2039   6.012   4.788   1.886  0.1724  0.3280  0.4501
  678TIP3    H1 2040   5.929   4.757   1.849 -0.0750  0.5919  0.7823
  678TIP3    H2 2041   6.079   4.746   1.832 -0.1756  0.0784  0.2066
  679TIP3   OH2 2042   5.204   0.407   0.301 -0.3214 -0.3824 -0.0092
  679TIP3    H1 2043   5.170   0.374   0.218  2.2343 -1.4032 -0.7487
  679TIP3    H2 2044   5.238   0.329   0.345 -0.9479  0.2569  1.6843
  680TIP3   OH2 2045   3.261   2.585   3.435  0.1469  0.0538  0.0141
  680TIP3    H1 2046   3.222   2.499   3.422  2.9290 -1.2260 -0.4785
  680TIP3    H2 2047   3.348   2.578   3.397  0.2680  3.3044 -0.5724
  681TIP3   OH2 2048   5.989   4.300   2.347 -0.3235 -0.0085  0.4256
  681TIP3    H1 2049   5.909   4.305   2.295  0.7589 -0.2335 -1.3221
  681TIP3    H2 2050   5.979   4.218   2.396 -1.3619  0.2061  0.6101
  682TIP3   OH2 2051   0.960   2.432   0.849 -0.0777 -0.2725  0.2330
  682TIP3    H1 2052   0.964   2.454   0.942 -2.3141 -2.8721  1.0903
  682TIP3    H2 2053   0.950   2.516   0.804 -0.8671  0.9369  2.5092
  683TIP3   OH2 2054   5.507   1.767   0.421  0.0336 -0.2055  0.0566
  683TIP3    H1 2055   5.428   1.806   0.458 -0.2213 -0.5983 -0.0645
  683TIP3    H2 2056   5.568   1.840   0.413 -0.3456  0.1207  0.0731
  684TIP3   OH2 2057   3.515   0.663   1.252  0.5830 -0.3672  0.2221
  684TIP3    H1 2058   3.579   0.682   1.321  1.3659 -0.8282 -0.3647
  684TIP3    H2 2059   3.563   0.677   1.170 -0.0344 -0.8380 -0.2284
  685TIP3   OH2 2060   5.426   5.778   1.717 -0.4496  0.0856  0.0115
  685TIP3    H1 2061   5.494   5.741   1.772 -0.4785 -1.6705 -1.0417
  685TIP3    H2 2062   5.472   5.808   1.638 -0.5821  1.3254  0.3808
  686TIP3   OH2 2063   3.150   4.140   0.571  0.3043 -0.1779 -0.0229
  686TIP3    H1 2064   3.120   4.201   0.638  1.3135  0.0798  0.1968
  686TIP3    H2 2065   3.073   4.086   0.552 -0.0951 -0.0106  1.0734
  687TIP3   OH2 2066   5.242   4.801   1.637 -0.2920 -0.2102  0.3358
  687TIP3    H1 2067   5.325   4.845   1.654 -0.9402  1.1701  0.1166
  687TIP3    H2 2068   5.253   4.713   1.672  1.2373 -0.0343  0.3489
  688TIP3   OH2 2069   4.309   2.954   0.797  0.5987 -1.0961  0.2642
  688TIP3    H1 2070   4.348   3.041   0.791  1.1231 -1.3002  0.6758
  688TIP3    H2 2071   4.215   2.969   0.787  0.7714 -0.5947 -0.6576
  689TIP3   OH2 2072   4.682   5.523   4.473  0.1195  0.1907  0.2152
  689TIP3    H1 2073   4.727   5.535   4.389 -0.1004 -0.5223 -0.0121
  689TIP3    H2 2074   4.751   5.495   4.533  0.1781  0.1621  0.1349
  690TIP3   OH2 2075   0.794   1.982   1.026  0.1004  0.2207 -0.4658
  690TIP3    H1 2076   0.753   1.936   1.098 -0.4899  0.5172 -0.6054
  690TIP3    H2 2077   0.876   2.017   1.062  1.8943 -3.0295 -0.9862
  691TIP3   OH2 2078   6.054   0.711   2.263  0.2489 -0.0157 -0.2350
  691TIP3    H1 2079   5.964   0.682   2.279 -0.5719  2.6356  0.4858
  691TIP3    H2 2080   6.050   0.806   2.270  3.3871  0.1433  1.2835
  692TIP3   OH2 2081   4.726   3.320   0.418  0.3882  0.0372 -0.0025
  692TIP3    H1 2082   4.667   3.380   0.464  1.2167 -0.3224  1.5933
  692TIP3    H2 2083   4.689   3.314   0.330 -2.5089 -0.8363  1.1337
  693TIP3   OH2 2084   2.111   0.143   2.423  0.0458 -0.3926  0.1885
  693TIP3    H1 2085   2.070   0.209   2.367  0.1056 -0.3635  0.1778
  693TIP3    H2 2086   2.202   0.172   2.430  0.4163 -1.2082 -0.9415
  694TIP3   OH2 2087   0.772   4.680   4.482 -0.0425 -0.5897  0.4161
  694TIP3    H1 2088   0.684   4.643   4.478  0.3187 -1.3280 -1.9664
  694TIP3    H2 2089   0.795   4.678   4.575 -2.2985 -0.9064  1.0145
  695TIP3   OH2 2090   4.796   1.851   4.506 -0.3172  1.0498 -0.1851
  695TIP3    H1 2091   4.855   1.785   4.544  0.5646  1.7960 -0.2396
  695TIP3    H2 2092   4.747   1.885   4.582 -0.1652  0.9437 -0.0383
  696TIP3   OH2 2093   3.707   3.960   1.052 -0.5456  0.3500  0.0290
  696TIP3    H1 2094   3.761   3.939   1.128 -0.9303  2.6334  1.0404
  696TIP3    H2 2095   3.761   3.935   0.976  1.0870  0.6606  1.0258
  697TIP3   OH2 2096   2.208   0.451   1.793  0.4867  0.0512 -0.1554
  697TIP3    H1 2097   2.235   0.543   1.787  2.0209 -0.3505  0.2028
  697TIP3    H2 2098   2.112   0.454   1.788  0.4116  1.7980  1.2952
  698TIP3   OH2 2099  -0.022   2.036   3.766 -0.0815  0.4744  0.0406
  698TIP3    H1 2100  -0.025   1.941   3.763  2.4899  0.3181 -2.6052
  698TIP3    H2 2101   0.070   2.058   3.756 -0.8185  3.1966 -2.3373
  699TIP3   OH2 2102   6.063   5.700   4.580 -0.3291  0.4713 -0.5045
  699TIP3    H1 2103   6.135   5.673   4.637 -1.3717 -1.0788  0.1593
  699TIP3    H2 2104   6.103   5.760   4.517  1.9149 -1.6759 -1.2796
  700TIP3   OH2 2105   1.160   5.419   3.532  0.1318 -0.3036 -0.5298
  700TIP3    H1 2106   1.229   5.408   3.468  1.0739 -0.2444  0.4526
  700TIP3    H2 2107   1.202   5.461   3.607 -1.9733  4.6276 -1.7370
  701TIP3   OH2 2108   3.373   1.938   2.989  0.0034 -0.4097  0.4943
  701TIP3    H1 2109   3.367   2.033   2.983 -1.5516 -0.4828  0.4166
  701TIP3    H2 2110   3.463   1.917   2.964  0.8248  1.1332  1.9905
  702TIP3   OH2 2111   4.098   3.046   2.174  0.3909  0.0319  0.1176
  702TIP3    H1 2112   4.089   3.123   2.118 -1.1665  0.2212  0.5899
  702TIP3    H2 2113   4.078   2.972   2.116  0.3631  0.1033  0.0351
  703TIP3   OH2 2114   3.187   1.937   2.298 -0.2677 -0.3646  0.6211
  703TIP3    H1 2115   3.212   2.024   2.268  0.5297 -1.4143 -2.0885
  703TIP3    H2 2116   3.095   1.946   2.323 -0.1391  1.2906  0.6378
  704TIP3   OH2 2117   1.330   3.607   0.352  0.0045  0.4618  0.0943
  704TIP3    H1 2118   1.350   3.641   0.440  1.9718 -2.5426  0.9773
  704TIP3    H2 2119   1.416   3.584   0.316 -1.0429 -3.3559 -0.3394
  705TIP3   OH2 2120   1.391   5.676   4.373 -0.3610  0.3845 -0.3917
  705TIP3    H1 2121   1.430   5.615   4.311 -2.2617 -0.6572 -0.6447
  705TIP3    H2 2122   1.402   5.762   4.331  2.9764  0.4397  0.3005
  706TIP3   OH2 2123   1.960   0.518   3.481  0.7816  0.2304  0.1786
  706TIP3    H1 2124   1.949   0.470   3.398  0.0477  0.4585  0.1337
  706TIP3    H2 2125   1.888   0.486   3.535 -0.1789  1.8158 -0.1116
  707TIP3   OH2 2126   3.960   2.548   2.718 -0.2309  0.0306  0.8317
  707TIP3    H1 2127   3.985   2.630   2.760 -1.2544  0.8680 -0.1353
  707TIP3    H2 2128   4.039   2.521   2.670 -0.2207  1.0433  0.2584
  708TIP3   OH2 2129   1.983   2.507   1.192  0.1309 -0.4501  0.5519
  708TIP3    H1 2130   1.934   2.425   1.200  0.1635 -0.9010 -2.5672
  708TIP3    H2 2131   2.048   2.489   1.123  2.0277  1.3659  1.7449
  709TIP3   OH2 2132   1.265   0.409   3.179 -0.3114 -0.1925  0.4298
  709TIP3    H1 2133   1.232   0.418   3.268 -2.1366 -0.5886 -0.1743
  709TIP3    H2 2134   1.225   0.481   3.131  0.1807 -0.3374 -0.2107
  710TIP3   OH2 2135   3.447   3.701   2.370 -0.2588  0.4141 -0.9615
  710TIP3    H1 2136   3.474   3.787   2.337 -0.3730  1.1697  0.7754
  710TIP3    H2 2137   3.357   3.713   2.399  0.0477  0.0311  0.2544
  711TIP3   OH2 2138   1.855   4.827   2.824 -0.5521 -0.2522 -0.0002
  711TIP3    H1 2139   1.868   4.920   2.842 -1.4024  0.4678 -2.6165
  711TIP3    H2 2140   1.830   4.789   2.908 -1.5135  2.1471  0.8737
  712TIP3   OH2 2141   3.904   5.000   2.763  0.6990 -0.9673 -0.1986
  712TIP3    H1 2142   3.934   4.978   2.675  0.5302 -0.8320 -0.2914
  712TIP3    H2 2143   3.963   5.071   2.791 -0.3526  0.2251 -0.9039
  713TIP3   OH2 2144   1.309   5.552   4.904  0.1907  0.1835  0.3164
  713TIP3    H1 2145   1.319   5.629   4.960 -2.9749 -0.7527  2.4504
  713TIP3    H2 2146   1.248   5.496   4.952 -0.0222 -2.2907 -2.5728
  714TIP3   OH2 2147   3.165   0.785   4.880  0.6283  0.1915 -0.6302
  714TIP3    H1 2148   3.070   0.801   4.882  0.7257  0.7961 -0.6026
  714TIP3    H2 2149   3.174   0.696   4.848  0.0295 -0.0171 -0.2323
  715TIP3   OH2 2150   6.152   0.312   1.725  0.1733  0.5067 -0.0064
  715TIP3    H1 2151   6.083   0.337   1.787 -0.2044  0.1812 -0.2981
  715TIP3    H2 2152   6.182   0.227   1.756 -1.6997 -0.8232 -1.6693
  716TIP3   OH2 2153   2.467   2.069   3.264 -0.2436 -0.0384 -0.1841
  716TIP3    H1 2154   2.440   2.015   3.190 -3.9232  3.4336 -1.7828
  716TIP3    H2 2155   2.435   2.022   3.341 -1.5981 -1.0550 -1.3148
  717TIP3   OH2 2156   2.738   3.439   1.552 -0.3254  0.8007  0.3300
  717TIP3    H1 2157   2.759   3.358   1.506  0.1590  0.5389  0.9794
  717TIP3    H2 2158   2.691   3.492   1.488  0.2580  0.4216 -0.4304
  718TIP3   OH2 2159   6.104   1.793   4.638 -0.0138 -0.3654  0.2834
  718TIP3    H1 2160   6.181   1.768   4.689 -0.4642 -1.0676  0.6449
  718TIP3    H2 2161   6.129   1.777   4.547  0.5015  0.0781  0.3436
  719TIP3   OH2 2162   5.294   4.739   2.422 -0.2870 -0.7070 -0.6249
  719TIP3    H1 2163   5.316   4.721   2.331  1.7381  1.3731 -0.6337
  719TIP3    H2 2164   5.360   4.692   2.473 -0.2011 -0.2874 -0.3368
  720TIP3   OH2 2165   5.190   5.494   3.273  0.1012  0.2058  0.4526
  720TIP3    H1 2166   5.131   5.493   3.349  0.2436  2.0561  0.6372
  720TIP3    H2 2167   5.168   5.575   3.227  0.2432 -0.7288 -1.3249
  721TIP3   OH2 2168   5.311   4.940   5.010 -0.3267 -0.0500 -0.0046
  721TIP3    H1 2169   5.378   4.920   5.076  0.8094  0.5067 -0.9502
  721TIP3    H2 2170   5.301   5.035   5.014 -0.5875 -0.0621 -0.3194
  722TIP3   OH2 2171   1.939   3.821   0.913  0.4892  0.1103 -0.4831
  722TIP3    H1 2172   1.857   3.822   0.864  0.5582  0.4549 -0.5952
  722TIP3    H2 2173   1.945   3.733   0.949 -0.2140  0.2587  0.0027
  723TIP3   OH2 2174   4.830   4.340   4.562  0.0857 -0.3642 -0.1568
  723TIP3    H1 2175   4.792   4.319   4.476  0.8416  1.1411 -0.8985
  723TIP3    H2 2176   4.817   4.260   4.613 -0.6709 -1.2022 -1.5629
  724TIP3   OH2 2177   0.049   1.137   2.373  0.6903 -0.2688  0.1588
  724TIP3    H1 2178   0.104   1.108   2.300  1.3747 -0.6603  0.8111
  724TIP3    H2 2179   0.083   1.089   2.449 -1.5886 -1.7797  0.3252
  725TIP3   OH2 2180   3.264   0.712   3.555 -0.4324  0.6717 -0.4690
  725TIP3    H1 2181   3.182   0.669   3.581 -0.3647  0.4183 -0.6774
  725TIP3    H2 2182   3.240   0.767   3.481 -0.3111  0.2021 -0.8594
  726TIP3   OH2 2183   4.092   0.911   0.709  0.3897  0.8199 -0.0929
  726TIP3    H1 2184   4.019   0.965   0.742  0.5816  1.2254 -0.3193
  726TIP3    H2 2185   4.135   0.967   0.644  0.2242  0.1663 -0.7909
  727TIP3   OH2 2186   5.726   0.412   2.054 -0.0998 -0.1432 -0.3399
  727TIP3    H1 2187   5.632   0.394   2.055 -0.2835  0.6929 -1.2652
  727TIP3    H2 2188   5.747   0.431   2.146 -1.8662  4.4595 -0.6018
  728TIP3   OH2 2189   4.901   1.995   5.065 -0.0651 -0.4815  0.1552
  728TIP3    H1 2190   4.926   1.920   5.119 -2.4531 -1.4679  0.0338
  728TIP3    H2 2191   4.874   1.956   4.982 -0.0901  0.6637 -0.3890
  729TIP3   OH2 2192   5.366   2.130   1.035  0.2186  0.4535  0.1515
  729TIP3    H1 2193   5.424   2.202   1.060  0.8514  0.6445 -1.7426
  729TIP3    H2 2194   5.380   2.064   1.103  2.9508  0.3494 -0.3893
  730TIP3   OH2 2195   0.342   5.033   3.846  0.0364 -0.0198  0.1147
  730TIP3    H1 2196   0.291   4.990   3.914  2.2305 -0.7768  1.3660
  730TIP3    H2 2197   0.314   5.125   3.849 -0.5423 -0.2203  1.4025
  731TIP3   OH2 2198   3.903   1.164   1.842  0.2179  0.1483 -0.0123
  731TIP3    H1 2199   3.995   1.171   1.816  0.5435  0.2039  1.1171
  731TIP3    H2 2200   3.906   1.140   1.935 -0.8630 -2.6223 -0.5681
  732TIP3   OH2 2201   5.100   1.512   4.398  0.5719  0.2634 -0.5625
  732TIP3    H1 2202   5.066   1.560   4.323  0.3322  1.2120  0.1267
  732TIP3    H2 2203   5.112   1.422   4.367 -3.2200 -0.3627 -0.7045
  733TIP3   OH2 2204   2.121   4.937   1.782 -0.3960 -0.8495  0.0092
  733TIP3    H1 2205   2.061   5.002   1.747  0.8126 -0.3719 -1.3126
  733TIP3    H2 2206   2.092   4.854   1.742  0.7074 -0.3761 -1.9202
  734TIP3   OH2 2207   6.006   0.664   4.462  0.4503 -0.2527  0.0671
  734TIP3    H1 2208   5.984   0.636   4.550  0.1764 -3.9997 -1.0203
  734TIP3    H2 2209   5.927   0.648   4.410  0.7770  1.3385 -1.0000
  735TIP3   OH2 2210   0.596   4.437   4.154 -0.3011  0.6383 -0.1688
  735TIP3    H1 2211   0.530   4.467   4.091  0.1029  0.0330 -0.8957
  735TIP3    H2 2212   0.679   4.463   4.115 -0.0496  0.3739  0.1860
  736TIP3   OH2 2213   0.517   4.406   1.146 -0.0377 -0.2254 -0.2557
  736TIP3    H1 2214   0.459   4.363   1.084  1.1486 -0.1502 -1.4653
  736TIP3    H2 2215   0.575   4.336   1.177  0.9678  0.2050 -1.1307
  737TIP3   OH2 2216   1.720   4.055   5.167  0.0344  0.0475 -0.2929
  737TIP3    H1 2217   1.668   4.033   5.089  0.0395 -0.4954 -0.1459
  737TIP3    H2 2218   1.707   3.981   5.226  1.9192 -0.6792 -0.7145
  738TIP3   OH2 2219   5.068   1.494   3.106  0.4748 -0.1273  0.2978
  738TIP3    H1 2220   5.023   1.525   3.028  2.2903  3.5847  0.5053
  738TIP3    H2 2221   5.016   1.528   3.179  0.7457 -0.4332  0.6401
  739TIP3   OH2 2222   1.104   2.775   0.105  0.1534  0.2565  0.1703
  739TIP3    H1 2223   1.108   2.680   0.111 -0.5966  0.2287  0.3897
  739TIP3    H2 2224   1.173   2.806   0.163 -1.8849 -0.1201  3.0013
  740TIP3   OH2 2225   5.687   1.187   0.289 -0.6884  0.0615 -0.3161
  740TIP3    H1 2226   5.658   1.276   0.305 -0.5184  0.1101 -0.2794
  740TIP3    H2 2227   5.746   1.194   0.214  1.7760  0.4497  1.5303
  741TIP3   OH2 2228   5.454   2.652   4.277 -0.3397  0.8647  0.2485
  741TIP3    H1 2229   5.361   2.669   4.272 -0.4544  0.5308  1.0718
  741TIP3    H2 2230   5.483   2.645   4.186 -1.1110  0.9700 -0.0046
  742TIP3   OH2 2231   6.239   1.294   1.982 -0.3535  0.2821  0.3099
  742TIP3    H1 2232   6.143   1.289   1.978 -0.3829  1.1332 -0.3445
  742TIP3    H2 2233   6.259   1.296   2.075 -1.1719  2.9181  0.5200
  743TIP3   OH2 2234   1.464   1.409   2.957  0.7498  0.8875 -0.2155
  743TIP3    H1 2235   1.369   1.408   2.952  0.6226 -1.7794  1.2964
  743TIP3    H2 2236   1.492   1.366   2.876  0.6574  1.1687 -0.3987
  744TIP3   OH2 2237   5.640   2.378   2.827 -0.5112  0.3803 -0.4400
  744TIP3    H1 2238   5.584   2.301   2.822 -0.2936  0.2915 -2.4939
  744TIP3    H2 2239   5.723   2.347   2.863 -1.0869  0.1014  0.6812
  745TIP3   OH2 2240   5.901   0.313   1.362 -0.6363  0.0081  0.5559
  745TIP3    H1 2241   5.944   0.395   1.387  0.2345 -0.4784  0.7190
  745TIP3    H2 2242   5.959   0.245   1.397 -1.3674 -0.6749  0.4592
  746TIP3   OH2 2243   1.084   1.392   1.638  0.0564 -0.3924  0.4588
  746TIP3    H1 2244   1.037   1.380   1.555 -0.6808  0.5387  0.7196
  746TIP3    H2 2245   1.174   1.410   1.612 -0.4571  1.4204 -0.2436
  747TIP3   OH2 2246   1.023   3.153   4.936  0.4084 -0.2940  0.0379
  747TIP3    H1 2247   1.085   3.085   4.962  0.9006 -0.6493 -1.8768
  747TIP3    H2 2248   1.064   3.235   4.965 -0.2022 -0.7567  2.3840
  748TIP3   OH2 2249   4.131   0.749   0.927  0.0525  0.4362 -0.0051
  748TIP3    H1 2250   4.109   0.800   0.849  0.7552 -0.7471 -1.0039
  748TIP3    H2 2251   4.081   0.668   0.917  1.8768 -0.6942 -0.4108
  749TIP3   OH2 2252   0.239   1.789   0.949 -0.1248 -0.2807  0.3477
  749TIP3    H1 2253   0.150   1.785   0.915  0.5445 -1.6423 -1.3442
  749TIP3    H2 2254   0.258   1.700   0.978  1.1272 -0.3208 -0.5277
  750TIP3   OH2 2255   3.303   3.589   1.745 -0.2793  0.3389  0.0287
  750TIP3    H1 2256   3.329   3.497   1.737 -0.4049  0.3213 -0.1916
  750TIP3    H2 2257   3.256   3.594   1.828 -1.0828  0.0093 -0.3927
  751TIP3   OH2 2258   4.559   2.852   3.289  0.3188 -0.2284 -0.6112
  751TIP3    H1 2259   4.567   2.792   3.363 -1.3906 -1.9813 -1.7486
  751TIP3    H2 2260   4.532   2.935   3.329 -0.4846 -1.1081  0.7670
  752TIP3   OH2 2261   2.308   3.693   4.005  0.1226 -0.1400  0.0246
  752TIP3    H1 2262   2.395   3.654   3.996 -0.1370 -1.1932  1.8153
  752TIP3    H2 2263   2.252   3.641   3.948  0.3595 -0.4557  0.0788
  753TIP3   OH2 2264   5.286   0.054   1.690 -0.2578 -0.1673 -0.1838
  753TIP3    H1 2265   5.269  -0.038   1.707 -0.2228 -0.1939 -0.2885
  753TIP3    H2 2266   5.325   0.056   1.602  4.8646 -0.5852  1.7658
  754TIP3   OH2 2267   0.947   0.963   2.640  0.1834  0.0385 -0.0475
  754TIP3    H1 2268   1.020   1.025   2.638 -0.5077  0.8635 -0.7482
  754TIP3    H2 2269   0.948   0.922   2.553  1.0986 -1.5221  0.6628
  755TIP3   OH2 2270   5.533   3.207   2.942  0.2579  0.1010 -0.1382
  755TIP3    H1 2271   5.597   3.245   3.002  0.3929 -0.7427  0.2635
  755TIP3    H2 2272   5.513   3.121   2.978  0.6795 -0.6229 -1.5252
  756TIP3   OH2 2273   4.443   1.023   0.479  0.4633  0.0052 -0.2830
  756TIP3    H1 2274   4.519   0.997   0.531  2.2398  2.1206 -1.6628
  756TIP3    H2 2275   4.459   0.985   0.393 -1.3668 -1.6284  0.0199
  757TIP3   OH2 2276   4.851   2.212   1.494  0.2154  0.6934  0.2506
  757TIP3    H1 2277   4.788   2.272   1.534  1.4659  1.1684  1.6396
  757TIP3    H2 2278   4.883   2.159   1.567  1.7861  0.8371 -0.2779
  758TIP3   OH2 2279   4.490   0.886   1.001 -0.0886 -0.2773  0.4483
  758TIP3    H1 2280   4.476   0.904   1.094 -1.2485  0.3166  0.1785
  758TIP3    H2 2281   4.429   0.944   0.956  1.0643  0.0668 -0.7286
  759TIP3   OH2 2282   5.631   1.949   2.649 -0.1279  0.4779  0.3795
  759TIP3    H1 2283   5.716   1.987   2.672  0.5230 -1.3798  1.2389
  759TIP3    H2 2284   5.646   1.902   2.567 -0.2296 -0.1485  0.7160
  760TIP3   OH2 2285   0.406   2.432   0.574  0.4828  0.0174  0.0510
  760TIP3    H1 2286   0.494   2.429   0.612 -0.0729 -2.1122  1.3743
  760TIP3    H2 2287   0.349   2.401   0.644 -1.3661  1.4469 -0.7466
  761TIP3   OH2 2288   3.194   5.263   0.195  0.2805 -0.1310 -0.1243
  761TIP3    H1 2289   3.228   5.226   0.277  0.0218 -0.5285 -0.1954
  761TIP3    H2 2290   3.112   5.217   0.180 -0.9399  1.6878  0.6884
  762TIP3   OH2 2291   1.214   3.321   4.406 -0.5357  0.1864  0.3236
  762TIP3    H1 2292   1.199   3.409   4.371  2.1214  0.0102 -1.5700
  762TIP3    H2 2293   1.256   3.336   4.491  0.3931  0.8215 -0.2217
  763TIP3   OH2 2294   4.662   4.618   0.062 -0.3261  0.1055  0.5529
  763TIP3    H1 2295   4.600   4.690   0.048  0.0545  0.2507 -0.4716
  763TIP3    H2 2296   4.662   4.570  -0.021  1.5476  0.6070  0.2184
  764TIP3   OH2 2297   6.264   3.998   3.967  0.1943  0.2971 -0.4765
  764TIP3    H1 2298   6.269   4.003   3.872 -2.4528 -0.5398 -0.7381
  764TIP3    H2 2299   6.200   4.065   3.991  1.1472  0.8004  0.8067
  765TIP3   OH2 2300   3.179   5.497   3.987 -0.1342  0.3101  0.2828
  765TIP3    H1 2301   3.128   5.554   4.044 -0.1327  0.3947  0.2012
  765TIP3    H2 2302   3.146   5.409   4.004 -0.9276  0.4535 -0.4093
  766TIP3   OH2 2303   3.534   5.808   0.516 -0.4513  0.5700 -0.2947
  766TIP3    H1 2304   3.626   5.836   0.519 -0.2843  0.5394 -3.0687
  766TIP3    H2 2305   3.512   5.808   0.423 -2.7686 -1.0818  0.1764
  767TIP3   OH2 2306   0.381   0.434   4.610  0.0726 -0.1246 -0.6074
  767TIP3    H1 2307   0.461   0.451   4.559  1.2378 -1.1523  0.7826
  767TIP3    H2 2308   0.367   0.339   4.601 -1.3355  0.1197 -1.2757
  768TIP3   OH2 2309   3.741   1.115   3.381  0.1922  0.0259  0.1286
  768TIP3    H1 2310   3.679   1.132   3.310  0.1397  0.7898  0.3540
  768TIP3    H2 2311   3.827   1.114   3.338  0.1062 -0.1498 -0.0423
  769TIP3   OH2 2312   3.722   4.490   3.908 -0.3912 -0.0636 -0.7204
  769TIP3    H1 2313   3.793   4.553   3.915 -0.3919 -0.0998 -0.3450
  769TIP3    H2 2314   3.741   4.440   3.829  0.9890 -1.2770  0.3211
  770TIP3   OH2 2315   4.825   5.171   2.201 -0.0611 -0.0199  0.1968
  770TIP3    H1 2316   4.884   5.123   2.142 -0.4310 -0.1196 -0.0984
  770TIP3    H2 2317   4.737   5.147   2.171 -0.2522  0.1422  0.6210
  771TIP3   OH2 2318   1.443   1.024   0.843  0.0713 -0.7824 -1.3552
  771TIP3    H1 2319   1.461   0.982   0.927 -0.3827  1.5152 -0.0366
  771TIP3    H2 2320   1.511   1.090   0.835 -0.2160 -0.6148 -2.5665
  772TIP3   OH2 2321   4.060   2.836   3.068 -0.0929  0.5635 -0.1644
  772TIP3    H1 2322   4.054   2.751   3.111 -0.5316  0.4173 -0.4975
  772TIP3    H2 2323   4.139   2.876   3.104 -0.4725  0.4702  0.7994
  773TIP3   OH2 2324   2.714   3.787   2.403 -0.2049 -0.3245  0.6305
  773TIP3    H1 2325   2.726   3.751   2.491  1.8895 -2.5963 -0.4652
  773TIP3    H2 2326   2.781   3.744   2.350 -0.3446  2.1475 -1.7862
  774TIP3   OH2 2327   4.952   5.080   1.975  0.1553 -0.0480  0.9072
  774TIP3    H1 2328   5.043   5.063   1.950  0.3770  1.4697  0.5644
  774TIP3    H2 2329   4.901   5.060   1.897  0.2168 -0.6050  1.0042
  775TIP3   OH2 2330   0.951   3.745   3.398 -0.1593 -0.3450 -0.1098
  775TIP3    H1 2331   0.888   3.753   3.326 -0.0056 -0.1669 -0.2263
  775TIP3    H2 2332   0.982   3.834   3.413 -0.0251 -0.4147  0.0285
  776TIP3   OH2 2333   5.413   5.447   1.495 -0.0210 -0.2079 -0.7539
  776TIP3    H1 2334   5.456   5.512   1.439 -0.6414 -0.3880 -1.4594
  776TIP3    H2 2335   5.325   5.481   1.508 -0.4333 -1.0165 -1.3356
  777TIP3   OH2 2336   1.341   2.503   0.872  0.0371 -0.2201  0.4451
  777TIP3    H1 2337   1.325   2.416   0.910 -0.2910  0.0646  0.9719
  777TIP3    H2 2338   1.366   2.485   0.781 -1.2290 -0.8130  0.1918
  778TIP3   OH2 2339   2.730   4.976   1.124  0.4499 -0.8874 -0.1308
  778TIP3    H1 2340   2.737   5.050   1.185 -2.2028  1.4710 -2.3838
  778TIP3    H2 2341   2.691   4.906   1.177  0.5981  0.1864  1.5058
  779TIP3   OH2 2342   2.778   1.435   2.614  0.2349  0.2636  0.3238
  779TIP3    H1 2343   2.795   1.378   2.689  0.0147 -1.7675 -1.0969
  779TIP3    H2 2344   2.837   1.403   2.546  0.1483  1.8095 -0.5187
  780TIP3   OH2 2345   3.141   0.622   2.403 -0.6436 -1.0267  0.3266
  780TIP3    H1 2346   3.077   0.684   2.438 -1.2024 -0.3386 -1.7446
  780TIP3    H2 2347   3.091   0.542   2.385 -0.4877 -1.1838  0.5912
  781TIP3   OH2 2348   1.368   5.172   3.909  0.4016  0.3310 -0.1152
  781TIP3    H1 2349   1.389   5.239   3.973 -3.2285 -0.1827  1.8911
  781TIP3    H2 2350   1.349   5.221   3.828 -1.5231  1.7962  1.1224
  782TIP3   OH2 2351   1.643   1.212   0.441  0.7180 -0.4618 -0.3090
  782TIP3    H1 2352   1.695   1.244   0.367 -0.0254 -1.2295 -1.1820
  782TIP3    H2 2353   1.618   1.292   0.488  1.6528 -0.0030 -0.5585
  783TIP3   OH2 2354   1.764   4.841   1.514  0.7234  0.4925 -0.5674
  783TIP3    H1 2355   1.689   4.791   1.483  0.2363  0.8805 -0.0376
  783TIP3    H2 2356   1.838   4.808   1.463  0.4069 -0.7285 -0.2770
  784TIP3   OH2 2357   4.777   2.251   2.958  0.2688  0.3550  0.2813
  784TIP3    H1 2358   4.838   2.249   3.032 -1.1099  2.1434  1.5390
  784TIP3    H2 2359   4.803   2.176   2.904  1.2591 -1.0982  2.6298
  785TIP3   OH2 2360   4.949   3.706   5.125 -0.1207 -0.9982  0.6770
  785TIP3    H1 2361   4.942   3.762   5.202  0.6482 -0.7643  0.5841
  785TIP3    H2 2362   4.863   3.711   5.084 -0.5035 -1.0522  1.4719
  786TIP3   OH2 2363   3.623   1.792   2.593 -0.4896  0.0541  0.0771
  786TIP3    H1 2364   3.716   1.771   2.605 -0.7582 -0.8230  0.7111
  786TIP3    H2 2365   3.586   1.715   2.550 -1.1251 -0.0351  0.7675
  787TIP3   OH2 2366   3.129   2.164   1.193 -0.1831  0.2410 -0.5949
  787TIP3    H1 2367   3.054   2.125   1.150  0.9964  0.6892 -3.2681
  787TIP3    H2 2368   3.172   2.216   1.125  2.6235 -0.1119  0.7341
  788TIP3   OH2 2369   3.568   0.227   3.826 -0.0831  0.0039  0.3797
  788TIP3    H1 2370   3.476   0.256   3.823  0.0181  0.4094  0.9619
  788TIP3    H2 2371   3.606   0.278   3.898 -0.2148 -2.4687  2.3336
  789TIP3   OH2 2372   2.967   1.933   4.469 -0.4048  0.5273  0.0339
  789TIP3    H1 2373   3.044   1.971   4.512  0.0399 -1.3278  0.9943
  789TIP3    H2 2374   2.959   1.846   4.509 -1.4151 -0.3453 -1.9767
  790TIP3   OH2 2375   1.981   3.238   3.828  0.4498  0.4633  0.2370
  790TIP3    H1 2376   1.888   3.257   3.826 -0.0726 -1.9062 -0.7868
  790TIP3    H2 2377   1.997   3.183   3.751  2.3950 -0.4175  1.1881
  791TIP3   OH2 2378   4.665   2.485   4.576 -0.7111 -0.5617  0.1657
  791TIP3    H1 2379   4.692   2.487   4.484 -0.8293  0.2288  0.1416
  791TIP3    H2 2380   4.641   2.394   4.592  2.1001 -1.3743  0.2443
  792TIP3   OH2 2381   3.494   1.739   0.749 -0.1936 -0.1255  0.5920
  792TIP3    H1 2382   3.444   1.799   0.804 -0.8318  0.1164 -0.2215
  792TIP3    H2 2383   3.428   1.701   0.690  0.5596  0.1585 -0.4641
  793TIP3   OH2 2384   4.907   0.280   3.150 -0.4500 -0.3011  0.2972
  793TIP3    H1 2385   4.966   0.294   3.224  0.5263  0.4127 -0.5837
  793TIP3    H2 2386   4.882   0.368   3.122 -0.5512 -0.5513 -0.4184
  794TIP3   OH2 2387   4.935   0.718   3.666  0.2875 -0.6170  0.9747
  794TIP3    H1 2388   4.920   0.792   3.724  0.5428  0.9336 -0.8441
  794TIP3    H2 2389   5.029   0.723   3.645 -0.3496  0.8196 -1.9905
  795TIP3   OH2 2390   2.909   5.338   4.510  0.4439 -0.2310  0.5996
  795TIP3    H1 2391   2.986   5.354   4.456  0.8999  1.0087  1.5538
  795TIP3    H2 2392   2.874   5.425   4.528 -0.0984 -0.6593  1.7064
  796TIP3   OH2 2393   4.567   3.231   4.249 -0.1964 -0.0017 -0.5288
  796TIP3    H1 2394   4.566   3.299   4.315  1.3530  0.4371 -0.9154
  796TIP3    H2 2395   4.657   3.229   4.217 -0.3088 -1.8970 -0.8793
  797TIP3   OH2 2396   3.294   0.239   2.482  0.3795  0.2892 -1.0329
  797TIP3    H1 2397   3.199   0.256   2.483 -0.3488 -2.6032  2.8503
  797TIP3    H2 2398   3.332   0.311   2.531  0.0734  0.8388 -1.5874
  798TIP3   OH2 2399   5.679   4.680   0.834 -0.1015 -0.1018 -0.0527
  798TIP3    H1 2400   5.629   4.654   0.911  0.5113 -0.3145  0.2838
  798TIP3    H2 2401   5.731   4.754   0.863  1.4528 -1.2566  0.2790
  799TIP3   OH2 2402   4.609   5.526   3.406 -0.0113  0.2310 -0.0545
  799TIP3    H1 2403   4.596   5.621   3.395  0.2926  0.0544 -2.6196
  799TIP3    H2 2404   4.667   5.518   3.481  0.2179  2.1023  0.0134
  800TIP3   OH2 2405   5.636   4.457   2.057 -0.3633 -0.0606  0.1501
  800TIP3    H1 2406   5.561   4.419   2.010 -0.6491 -0.8459  1.1971
  800TIP3    H2 2407   5.685   4.505   1.990 -1.9610  0.7216 -0.5121
  801TIP3   OH2 2408   0.602   2.173   4.314  0.2307 -0.6245 -0.6538
  801TIP3    H1 2409   0.671   2.141   4.255 -1.0344 -1.6184 -1.6431
  801TIP3    H2 2410   0.576   2.096   4.364 -0.3050 -0.3014 -0.4286
  802TIP3   OH2 2411   5.601   1.457   3.418 -0.5260 -0.6442 -0.1041
  802TIP3    H1 2412   5.614   1.478   3.510 -1.0102 -0.7654 -0.0050
  802TIP3    H2 2413   5.533   1.519   3.389  0.2615  0.0060 -0.6181
  803TIP3   OH2 2414   2.804   1.201   1.852 -0.7113  0.2122 -0.3797
  803TIP3    H1 2415   2.728   1.257   1.865  0.1886  1.7259 -1.3091
  803TIP3    H2 2416   2.772   1.131   1.796 -1.0639  1.8011 -2.2914
  804TIP3   OH2 2417   4.335   4.389   1.492 -0.2700 -0.3117  0.2554
  804TIP3    H1 2418   4.417   4.401   1.541 -0.1343  0.5753 -0.1828
  804TIP3    H2 2419   4.325   4.294   1.487  0.7125 -0.4342  0.3454
  805TIP3   OH2 2420   1.984   0.305   2.122  0.2168  0.2180  0.1107
  805TIP3    H1 2421   1.890   0.310   2.107  0.4363  0.9107 -1.2106
  805TIP3    H2 2422   2.016   0.394   2.105  0.9046  0.4453  2.2652
  806TIP3   OH2 2423   2.739   0.902   3.517 -0.2965  0.1456  0.7246
  806TIP3    H1 2424   2.706   0.963   3.450  0.4993  0.9261  1.0236
  806TIP3    H2 2425   2.663   0.849   3.540 -1.4674  2.0650  1.5878
  807TIP3   OH2 2426   5.537   0.429   2.796 -0.4968 -0.8642  0.4778
  807TIP3    H1 2427   5.477   0.392   2.860  0.4971 -1.6779  0.9639
  807TIP3    H2 2428   5.564   0.355   2.741 -0.2190 -0.4458  0.0325
  808TIP3   OH2 2429   4.096   1.604   0.417  0.7471 -0.2741 -0.0594
  808TIP3    H1 2430   4.159   1.557   0.471  1.7382 -0.2761 -1.1944
  808TIP3    H2 2431   4.034   1.641   0.480  1.4764 -0.8479  1.0262
  809TIP3   OH2 2432   2.954   2.159   4.320  0.1009  0.3555 -0.0948
  809TIP3    H1 2433   3.046   2.165   4.294  0.0792  1.1377 -0.0043
  809TIP3    H2 2434   2.950   2.082   4.376  0.9818  1.1155  1.0567
  810TIP3   OH2 2435   5.650   4.504   4.290 -0.7003  0.5541  0.0764
  810TIP3    H1 2436   5.669   4.589   4.249  3.4252 -0.3370 -0.2888
  810TIP3    H2 2437   5.658   4.440   4.219 -1.0453 -0.3841  0.8623
  811TIP3   OH2 2438   5.040   1.742   4.625 -0.4647 -0.3149 -0.9224
  811TIP3    H1 2439   4.990   1.672   4.584 -0.9134 -0.5313 -0.0096
  811TIP3    H2 2440   5.130   1.709   4.628 -0.9138 -1.4614  0.8069
  812TIP3   OH2 2441   2.494   3.347   2.422 -0.2545 -0.5258 -0.2561
  812TIP3    H1 2442   2.524   3.323   2.335 -0.9697  0.3663 -0.7772
  812TIP3    H2 2443   2.425   3.284   2.443 -0.6731 -0.2218 -0.7084
  813TIP3   OH2 2444   1.910   3.909   4.494 -0.3712 -0.4857  0.4678
  813TIP3    H1 2445   1.902   4.004   4.484  0.9447 -0.2793  1.0079
  813TIP3    H2 2446   1.852   3.888   4.567 -1.0202 -0.1748  0.0515
  814TIP3   OH2 2447   5.659   4.049   1.934  0.0385 -0.2017  0.0065
  814TIP3    H1 2448   5.574   4.068   1.974  0.0159 -0.1828 -0.0506
  814TIP3    H2 2449   5.653   4.085   1.846  0.2520  0.1623  0.1403
  815TIP3   OH2 2450   3.433   0.876   3.754 -0.2482 -0.0093 -0.0288
  815TIP3    H1 2451   3.374   0.950   3.741  1.3238  0.9396 -2.2542
  815TIP3    H2 2452   3.391   0.804   3.706 -0.9088 -0.1325  0.6989
  816TIP3   OH2 2453   5.136   5.662   2.560 -0.0439  0.7058  1.1279
  816TIP3    H1 2454   5.089   5.615   2.491  0.6809  1.2102  0.2718
  816TIP3    H2 2455   5.165   5.743   2.518  3.0426 -0.2906  1.0759
  817TIP3   OH2 2456   6.154   1.390   3.574  0.2847  0.4202 -0.5674
  817TIP3    H1 2457   6.239   1.398   3.616 -0.4671  0.4525  0.9965
  817TIP3    H2 2458   6.132   1.480   3.547  0.0150  0.6956  0.5286
  818TIP3   OH2 2459   4.442   5.275   2.711 -0.4416 -0.2122  0.0030
  818TIP3    H1 2460   4.473   5.197   2.756  0.2902  0.0172 -0.0874
  818TIP3    H2 2461   4.446   5.253   2.618 -0.3936 -0.1211 -0.0170
  819TIP3   OH2 2462   5.150   3.943   4.316 -0.6331  0.2847  0.2323
  819TIP3    H1 2463   5.203   3.938   4.237 -2.5268 -4.1654 -1.0177
  819TIP3    H2 2464   5.175   3.866   4.367 -1.7466  1.3240  2.5103
  820TIP3   OH2 2465   6.300   2.718   0.158  0.7751 -0.6486 -0.2857
  820TIP3    H1 2466   6.282   2.628   0.182  0.4837  0.0991  2.6794
  820TIP3    H2 2467   6.308   2.764   0.241  1.1646  2.0324 -1.6864
  821TIP3   OH2 2468   2.297   2.298   0.189 -0.1785 -0.1902  0.4978
  821TIP3    H1 2469   2.259   2.231   0.133 -0.5080 -1.5527  2.2429
  821TIP3    H2 2470   2.222   2.347   0.223  0.1089  1.8655 -1.6095
  822TIP3   OH2 2471   4.495   5.509   0.391  0.4516  0.0270  0.1908
  822TIP3    H1 2472   4.519   5.598   0.362 -0.1717 -0.0916 -0.7477
  822TIP3    H2 2473   4.467   5.520   0.482  0.6698  0.7457  0.1762
  823TIP3   OH2 2474   2.408   3.721   0.443 -0.3834  0.4461  0.1435
  823TIP3    H1 2475   2.410   3.813   0.416  2.0045  0.9971  1.9337
  823TIP3    H2 2476   2.319   3.708   0.476 -0.3656  2.5480  1.1797
  824TIP3   OH2 2477   2.150   4.109   1.477 -0.3404 -0.4714  0.0614
  824TIP3    H1 2478   2.236   4.128   1.514 -0.7722  2.9092 -0.3184
  824TIP3    H2 2479   2.089   4.122   1.549 -0.6299 -1.8667  0.0848
  825TIP3   OH2 2480   2.011   2.131   3.785  0.4195  0.7520  0.4550
  825TIP3    H1 2481   2.014   2.224   3.761 -0.7611  0.8419  0.6043
  825TIP3    H2 2482   1.919   2.106   3.774  0.8027 -0.5252 -0.0354
  826TIP3   OH2 2483   1.381   3.945   1.618  0.0544  0.3218 -0.2252
  826TIP3    H1 2484   1.403   3.905   1.533 -0.1344  0.7016 -0.4549
  826TIP3    H2 2485   1.425   3.889   1.682  0.9336  0.5351 -0.6239
  827TIP3   OH2 2486   1.766   5.953   0.918  1.3563  0.6663 -0.2419
  827TIP3    H1 2487   1.740   5.876   0.867  0.9086 -0.5921  1.7400
  827TIP3    H2 2488   1.861   5.948   0.923  1.2328 -1.5095  2.2261
  828TIP3   OH2 2489   1.171   1.803   1.041  0.4454  0.2099  0.5293
  828TIP3    H1 2490   1.080   1.792   1.015  0.5548 -1.3853  0.7243
  828TIP3    H2 2491   1.188   1.897   1.032 -0.5467  0.2201 -1.6645
  829TIP3   OH2 2492   0.739   2.992   3.762 -0.6052 -0.3193  0.4795
  829TIP3    H1 2493   0.647   2.972   3.775 -1.3431  0.3773 -2.7404
  829TIP3    H2 2494   0.769   2.927   3.699  0.6276  0.4466  0.2319
  830TIP3   OH2 2495   5.512   3.632   4.070 -0.0402 -0.0079 -0.2614
  830TIP3    H1 2496   5.594   3.627   4.019 -1.7544  3.6049 -4.0003
  830TIP3    H2 2497   5.447   3.588   4.015 -1.0248 -1.3495  1.8545
  831TIP3   OH2 2498   3.799   3.145   2.686 -0.3795  0.3003 -0.3412
  831TIP3    H1 2499   3.728   3.081   2.676  1.0049 -1.3571  0.0394
  831TIP3    H2 2500   3.837   3.153   2.598 -0.5458  0.6080 -0.3869
  832TIP3   OH2 2501   4.583   5.271   4.636 -0.1494  0.3052  0.3525
  832TIP3    H1 2502   4.603   5.318   4.555  3.0557  0.1140  0.9146
  832TIP3    H2 2503   4.599   5.179   4.614 -0.5903  0.1082  0.8524
  833TIP3   OH2 2504   0.692   0.520   2.017  0.3382  0.3228  0.5210
  833TIP3    H1 2505   0.699   0.499   1.924 -1.8246 -2.2036  0.8267
  833TIP3    H2 2506   0.774   0.488   2.055  0.9448  0.7504 -0.3758
  834TIP3   OH2 2507   2.979   3.979   3.018  0.4623  0.3902 -0.6168
  834TIP3    H1 2508   2.918   3.914   2.983  0.2451  0.6597 -0.7364
  834TIP3    H2 2509   3.042   3.927   3.068  0.3818  0.0691 -0.8431
  835TIP3   OH2 2510   6.083   2.704   2.115  0.3734  0.0804 -0.0825
  835TIP3    H1 2511   6.110   2.622   2.156  1.5132  0.9382  0.9535
  835TIP3    H2 2512   6.161   2.733   2.067  0.5301  1.3340  0.8676
  836TIP3   OH2 2513   2.554   3.582   3.715  0.1759  0.0564 -0.2275
  836TIP3    H1 2514   2.585   3.672   3.702  1.5869 -0.1193  1.4951
  836TIP3    H2 2515   2.545   3.546   3.627  0.0785  1.7271 -0.9242
  837TIP3   OH2 2516   0.702   0.026   2.498  0.6597 -0.6746 -0.2065
  837TIP3    H1 2517   0.617  -0.011   2.518  0.2564  0.5479  0.4551
  837TIP3    H2 2518   0.705   0.030   2.402 -0.8001  0.9133 -0.2362
  838TIP3   OH2 2519   2.525   3.277   0.683  0.0720 -0.0846 -0.2520
  838TIP3    H1 2520   2.503   3.195   0.639 -0.4610  0.7988 -1.7344
  838TIP3    H2 2521   2.616   3.265   0.711 -0.3840 -1.6153  0.6966
  839TIP3   OH2 2522   4.843   4.362   2.518 -0.4315 -0.3069  0.2410
  839TIP3    H1 2523   4.913   4.424   2.498  2.1408 -1.7730  3.8014
  839TIP3    H2 2524   4.786   4.408   2.580 -1.7307  0.2452 -1.2775
  840TIP3   OH2 2525   0.113   4.049   1.743 -0.2853 -0.3745  0.1367
  840TIP3    H1 2526   0.185   4.028   1.684  1.4398 -1.2322  2.3906
  840TIP3    H2 2527   0.115   3.979   1.808 -1.7975  0.7411  1.4510
  841TIP3   OH2 2528   4.718   0.528   2.097  0.0502 -0.1785 -0.4910
  841TIP3    H1 2529   4.719   0.442   2.137 -0.5696 -0.0363 -0.1534
  841TIP3    H2 2530   4.810   0.554   2.092  0.2171 -0.7285 -0.3182
  842TIP3   OH2 2531   1.616   1.226   1.282  0.0512  0.2175 -0.5173
  842TIP3    H1 2532   1.524   1.214   1.307  0.5548 -0.2775  1.2688
  842TIP3    H2 2533   1.627   1.320   1.276 -0.1572  0.3896  1.1511
  843TIP3   OH2 2534   2.001   5.857   2.051 -0.0518 -0.3549  0.3747
  843TIP3    H1 2535   2.020   5.943   2.088 -1.0187 -0.1678  0.4719
  843TIP3    H2 2536   1.955   5.876   1.969 -0.0458 -0.7803  0.2720
  844TIP3   OH2 2537   2.731   0.379   1.944  0.3089  0.7311  0.6080
  844TIP3    H1 2538   2.775   0.441   1.886 -0.4245 -1.8360 -3.0131
  844TIP3    H2 2539   2.641   0.373   1.910 -0.0943 -1.1045  1.8333
  845TIP3   OH2 2540   5.907   3.131   1.947 -0.5754  0.0417  0.1694
  845TIP3    H1 2541   5.908   3.206   1.888 -1.6759  0.6325  0.8656
  845TIP3    H2 2542   5.828   3.082   1.923  0.8399 -1.6854 -1.1924
  846TIP3   OH2 2543   6.042   4.248   1.092 -0.3166  0.0006  0.4382
  846TIP3    H1 2544   6.019   4.161   1.058  0.0666 -0.6743  1.8539
  846TIP3    H2 2545   6.097   4.286   1.023 -0.2289 -1.0072 -0.0723
  847TIP3   OH2 2546   4.948   1.813   2.875 -0.6255  0.4769  0.2185
  847TIP3    H1 2547   5.011   1.839   2.943 -1.5990 -0.2848  1.4584
  847TIP3    H2 2548   4.996   1.749   2.822 -0.0227  0.6708  0.5136
  848TIP3   OH2 2549   0.459   3.157   4.306  0.2921  0.0427 -0.9137
  848TIP3    H1 2550   0.489   3.178   4.218  0.8804  0.0561 -0.7142
  848TIP3    H2 2551   0.395   3.226   4.327  2.3871  1.8734 -0.1636
  849TIP3   OH2 2552   0.135   2.911   2.098  0.4405 -0.2336  0.1371
  849TIP3    H1 2553   0.220   2.953   2.113 -0.6542  2.8142 -1.3856
  849TIP3    H2 2554   0.155   2.839   2.038  2.0693 -0.2550  0.6480
  850TIP3   OH2 2555   0.542   5.846   3.489  0.0312  0.7843  0.4461
  850TIP3    H1 2556   0.558   5.822   3.580  0.6469  1.6504  0.5797
  850TIP3    H2 2557   0.581   5.774   3.439 -1.4993 -0.3780  0.8506
  851TIP3   OH2 2558   1.481   0.227   2.659  0.2284 -0.0061  0.7488
  851TIP3    H1 2559   1.427   0.253   2.584  1.3441  0.1573 -0.0411
  851TIP3    H2 2560   1.453   0.284   2.730 -0.1967  0.5144  0.1813
  852TIP3   OH2 2561   6.145   4.504   3.298  0.5016 -0.7614 -0.4396
  852TIP3    H1 2562   6.074   4.561   3.327  1.2495 -0.4924  0.9170
  852TIP3    H2 2563   6.133   4.498   3.203  0.1943  1.3452 -0.5739
  853TIP3   OH2 2564   1.513   0.411   3.566 -0.4685 -0.0945  0.5175
  853TIP3    H1 2565   1.487   0.455   3.485  2.0958 -1.1361 -0.9912
  853TIP3    H2 2566   1.501   0.318   3.547  0.4480 -0.3640  1.1861
  854TIP3   OH2 2567   2.938   1.582   2.929 -0.0448  0.2464 -0.0351
  854TIP3    H1 2568   3.027   1.580   2.964  1.1086 -0.0555 -2.7386
  854TIP3    H2 2569   2.905   1.493   2.941  0.2756  0.1789  0.3484
  855TIP3   OH2 2570   2.847   3.746   2.951 -0.0768  0.1193  0.1266
  855TIP3    H1 2571   2.824   3.710   2.865 -0.2933 -0.8630  0.5756
  855TIP3    H2 2572   2.763   3.762   2.994 -0.0720  3.0312 -0.7491
  856TIP3   OH2 2573   1.556   0.160   1.879  0.5260  0.0893  0.2355
  856TIP3    H1 2574   1.517   0.113   1.805  0.3257 -1.3862  1.2532
  856TIP3    H2 2575   1.649   0.165   1.858  0.8309 -2.2203  0.8308
  857TIP3   OH2 2576   2.677   0.837   4.251  0.4560  0.0907  0.1293
  857TIP3    H1 2577   2.764   0.798   4.240  0.0515 -0.5769 -0.8959
  857TIP3    H2 2578   2.694   0.928   4.276  1.4593  0.1385 -0.6518
  858TIP3   OH2 2579   3.690   2.497   0.490 -0.1332 -0.6003 -0.0705
  858TIP3    H1 2580   3.752   2.555   0.535 -1.4318  0.2656  0.6876
  858TIP3    H2 2581   3.686   2.530   0.400  0.2295 -0.4371 -0.0257
  859TIP3   OH2 2582   2.228   4.945   2.594 -0.3563 -0.3517 -0.1019
  859TIP3    H1 2583   2.217   4.920   2.502  0.9814  0.9889 -0.6753
  859TIP3    H2 2584   2.228   4.862   2.641  1.8604 -1.3623 -1.6733
  860TIP3   OH2 2585   0.543   3.126   0.985  0.2701  0.0632  0.2257
  860TIP3    H1 2586   0.547   3.098   1.076 -0.2910 -1.5259 -0.2069
  860TIP3    H2 2587   0.483   3.200   0.985 -0.5791 -0.6028  1.0086
  861TIP3   OH2 2588   4.258   5.547   4.330 -0.4776  0.5051 -0.3095
  861TIP3    H1 2589   4.272   5.485   4.401 -0.3496  0.7360 -0.1291
  861TIP3    H2 2590   4.322   5.522   4.263 -0.8516  0.0547 -0.5056
  862TIP3   OH2 2591   5.244   3.859   1.195 -0.6151  0.7142 -0.0256
  862TIP3    H1 2592   5.202   3.900   1.271 -0.0117 -2.0032  1.9159
  862TIP3    H2 2593   5.175   3.803   1.158 -0.1898  0.0937  0.1064
  863TIP3   OH2 2594   3.187   4.552   0.319  0.1810  0.0316  0.7704
  863TIP3    H1 2595   3.258   4.559   0.383 -0.7957  0.0098  1.8780
  863TIP3    H2 2596   3.183   4.458   0.298 -0.3985 -0.1732  1.7432
  864TIP3   OH2 2597   2.321   4.377   4.918  0.6290  0.3911  0.5113
  864TIP3    H1 2598   2.286   4.417   4.998  0.7821  0.6118  0.4696
  864TIP3    H2 2599   2.263   4.407   4.848 -0.9290 -1.6812  0.8321
  865TIP3   OH2 2600   2.766   2.150   3.303  0.7328  0.2067  0.0002
  865TIP3    H1 2601   2.773   2.243   3.283  1.2103 -0.1056 -1.4238
  865TIP3    H2 2602   2.687   2.121   3.257  0.5192 -0.0618  0.5353
  866TIP3   OH2 2603   5.566   3.513   4.331  0.1059 -0.2559  0.2137
  866TIP3    H1 2604   5.650   3.514   4.287  0.8352 -0.2241  1.5640
  866TIP3    H2 2605   5.511   3.573   4.279  1.0350  0.0680 -0.4170
  867TIP3   OH2 2606   3.562   4.812   4.258 -0.4913 -0.0368  0.0105
  867TIP3    H1 2607   3.571   4.768   4.174 -1.7224 -0.5686  0.1332
  867TIP3    H2 2608   3.508   4.889   4.240  2.5219  2.1431 -0.4116
  868TIP3   OH2 2609   2.904   0.191   0.284 -0.1588  0.0231  0.4530
  868TIP3    H1 2610   2.898   0.215   0.377  0.9420  0.7322  0.3651
  868TIP3    H2 2611   2.997   0.173   0.270 -0.1671  0.7769 -0.7067
  869TIP3   OH2 2612   0.060   5.315   4.503  0.4835  0.2701 -0.1936
  869TIP3    H1 2613   0.093   5.226   4.490  1.2181  0.4674  0.2305
  869TIP3    H2 2614   0.031   5.342   4.416  0.3624 -0.3376 -0.3496
  870TIP3   OH2 2615   3.527   2.406   5.000  0.0858  0.0256 -0.3003
  870TIP3    H1 2616   3.612   2.449   5.000  0.2567 -0.3024 -0.8470
  870TIP3    H2 2617   3.542   2.322   5.045 -0.0899  0.2242  0.1402
  871TIP3   OH2 2618   2.045   1.318   2.474 -0.7815  0.0874  0.0084
  871TIP3    H1 2619   2.065   1.306   2.566  0.5861 -1.3167 -0.4327
  871TIP3    H2 2620   2.092   1.398   2.449 -1.9260  1.0172  0.7017
  872TIP3   OH2 2621   2.080   4.733   0.542 -0.0588 -0.1583  0.4875
  872TIP3    H1 2622   2.016   4.730   0.613  0.2133 -0.1007  0.7369
  872TIP3    H2 2623   2.029   4.756   0.464 -0.2812  0.2455  0.7538
  873TIP3   OH2 2624   0.510   0.619   2.785 -0.4973  0.3507  0.0002
  873TIP3    H1 2625   0.534   0.528   2.798 -0.6633  0.4866  1.3869
  873TIP3    H2 2626   0.504   0.629   2.690  0.5543 -0.8039 -0.2053
  874TIP3   OH2 2627   4.680   2.978   2.580  0.3186 -0.5523  0.2647
  874TIP3    H1 2628   4.606   2.965   2.521  0.1888  1.9133 -0.2424
  874TIP3    H2 2629   4.640   2.989   2.666  0.2842 -1.2735  0.3481
  875TIP3   OH2 2630   5.688   4.173   2.214  0.0715 -0.0174 -0.3358
  875TIP3    H1 2631   5.752   4.194   2.146  0.2057 -0.5893 -0.3862
  875TIP3    H2 2632   5.604   4.173   2.169  0.0338  0.6934 -0.2776
  876TIP3   OH2 2633   3.624   4.145   5.035  0.0068  0.2718 -0.4010
  876TIP3    H1 2634   3.584   4.226   5.067 -0.1241  0.5681 -1.3010
  876TIP3    H2 2635   3.554   4.081   5.038  0.3478 -0.0611  1.1989
  877TIP3   OH2 2636   4.996   3.569   2.960 -0.5234 -0.2357  0.0456
  877TIP3    H1 2637   5.019   3.635   2.895 -0.3769 -0.8901 -0.5886
  877TIP3    H2 2638   5.074   3.560   3.014 -0.3788 -0.2258 -0.1605
  878TIP3   OH2 2639   6.306   2.040   4.074 -0.0149 -0.5821  0.6700
  878TIP3    H1 2640   6.331   2.033   3.982 -0.1786  1.7094  0.3802
  878TIP3    H2 2641   6.366   1.981   4.120  1.0758 -0.6409 -0.7540
  879TIP3   OH2 2642   6.039   0.678   1.986  0.3085  0.1465  0.8792
  879TIP3    H1 2643   6.046   0.705   2.077 -0.7821  1.6700  0.5386
  879TIP3    H2 2644   6.083   0.747   1.937  0.1503 -0.2367  0.1868
  880TIP3   OH2 2645   3.479   3.035   0.293  0.2050  0.3958  0.2920
  880TIP3    H1 2646   3.556   3.042   0.349  1.5267  1.1743 -1.5125
  880TIP3    H2 2647   3.471   3.121   0.253 -1.7051  0.3569  0.5368
  881TIP3   OH2 2648   1.901   2.836   1.605  0.6861 -0.2078  0.5627
  881TIP3    H1 2649   1.856   2.774   1.661  0.6836 -1.7853 -1.0996
  881TIP3    H2 2650   1.918   2.788   1.523  1.8999  1.5438 -0.2980
  882TIP3   OH2 2651   3.049   2.644   0.948 -0.0387  0.9200  0.0622
  882TIP3    H1 2652   3.073   2.643   1.040 -1.1574  0.3759  0.3732
  882TIP3    H2 2653   3.128   2.616   0.902  0.2040  0.0709  0.9523
  883TIP3   OH2 2654   3.164   1.640   3.067 -0.5432 -0.1148  0.0708
  883TIP3    H1 2655   3.211   1.632   2.983 -0.4605 -1.2204  0.2058
  883TIP3    H2 2656   3.183   1.729   3.096  1.3160 -0.4507  0.0173
  884TIP3   OH2 2657   0.995   2.542   4.015  0.3592 -0.3382 -1.0307
  884TIP3    H1 2658   0.913   2.587   4.031  0.3176 -0.0354 -2.0218
  884TIP3    H2 2659   0.979   2.452   4.045 -0.2291 -0.2035 -0.9304
  885TIP3   OH2 2660   2.205   4.595   5.076 -0.1070 -1.3995 -0.3777
  885TIP3    H1 2661   2.273   4.641   5.026 -1.1160  1.3208  0.6019
  885TIP3    H2 2662   2.243   4.584   5.163 -1.0056  0.4986  0.2917
  886TIP3   OH2 2663   5.846   0.009   0.649 -0.0692 -0.2814 -0.6322
  886TIP3    H1 2664   5.878   0.023   0.560  2.7856 -0.3139  0.3015
  886TIP3    H2 2665   5.923   0.016   0.704 -2.0323  1.7450  2.1356
  887TIP3   OH2 2666   5.775   1.616   5.054  0.3091 -0.2146  0.2915
  887TIP3    H1 2667   5.763   1.617   4.959  1.5578  2.4190  0.0716
  887TIP3    H2 2668   5.686   1.622   5.090 -0.2462 -2.1822 -0.6109
  888TIP3   OH2 2669   1.412   5.047   1.402  0.0449 -0.5508  0.8882
  888TIP3    H1 2670   1.348   5.076   1.467 -0.9613  0.1647 -0.3838
  888TIP3    H2 2671   1.434   4.957   1.429 -0.3215 -0.2765  2.1980
  889TIP3   OH2 2672   1.671   4.869   2.034 -0.3633  0.8467  0.1949
  889TIP3    H1 2673   1.712   4.820   2.104 -0.5580  0.8627  0.3200
  889TIP3    H2 2674   1.644   4.803   1.970  1.0264  0.9171 -0.5208
  890TIP3   OH2 2675   1.809   3.749   3.873  0.3262  0.3152 -0.7380
  890TIP3    H1 2676   1.873   3.740   3.803  1.1573 -2.4449  0.2653
  890TIP3    H2 2677   1.728   3.775   3.827  0.9681 -0.8504 -2.6779
  891TIP3   OH2 2678   0.400   0.040   0.942  0.1619  0.7898 -0.0737
  891TIP3    H1 2679   0.435   0.078   0.861  0.5161  0.3449 -0.1341
  891TIP3    H2 2680   0.477   0.008   0.989 -0.2069 -0.7317 -0.4791
  892TIP3   OH2 2681   5.836   4.704   2.412 -0.3342 -0.2364 -0.2507
  892TIP3    H1 2682   5.870   4.656   2.487  0.5608  0.7145 -0.0150
  892TIP3    H2 2683   5.914   4.732   2.364 -0.7794  1.5217 -0.0123
  893TIP3   OH2 2684   4.328   1.348   1.136 -0.1988 -0.5044  0.2650
  893TIP3    H1 2685   4.367   1.282   1.080  2.9625  0.5509  1.0230
  893TIP3    H2 2686   4.366   1.431   1.105 -2.6885  0.8207  0.4541
  894TIP3   OH2 2687   5.702   1.741   0.705 -0.0995  0.0245  0.0814
  894TIP3    H1 2688   5.700   1.794   0.785 -1.0804  1.5573 -0.9120
  894TIP3    H2 2689   5.744   1.797   0.640 -2.1554  0.0846 -1.2891
  895TIP3   OH2 2690   3.316   5.899   0.893 -0.4338  0.3829 -0.6809
  895TIP3    H1 2691   3.341   5.975   0.947  1.3313 -0.6537  0.0481
  895TIP3    H2 2692   3.395   5.878   0.844 -0.6628 -1.4189 -0.3238
  896TIP3   OH2 2693   0.680   3.793   4.948 -0.5690 -0.0113  0.2864
  896TIP3    H1 2694   0.662   3.701   4.929  1.2065 -0.2513 -0.3574
  896TIP3    H2 2695   0.741   3.821   4.880 -1.2475  1.7300  0.3395
  897TIP3   OH2 2696   0.565   5.525   4.075 -0.4024 -0.7691 -0.1834
  897TIP3    H1 2697   0.507   5.590   4.034  0.4877 -0.8083 -1.5559
  897TIP3    H2 2698   0.575   5.457   4.009  2.7293  0.1449 -0.8130
  898TIP3   OH2 2699   2.823   2.361   1.463  0.3869 -0.0498 -0.4425
  898TIP3    H1 2700   2.863   2.381   1.548  0.1637  1.8908 -0.7509
  898TIP3    H2 2701   2.826   2.444   1.415 -1.7999 -0.4637 -1.3911
  899TIP3   OH2 2702   0.541   5.917   5.198  0.1093  0.3937  0.4099
  899TIP3    H1 2703   0.543   5.933   5.104 -1.1842 -0.8195  0.1444
  899TIP3    H2 2704   0.551   5.822   5.206  1.4335  0.5934  1.5805
  900TIP3   OH2 2705   5.159   1.128   3.970  0.2537 -0.2241  0.2247
  900TIP3    H1 2706   5.098   1.074   3.919  0.8714 -1.8577  1.1660
  900TIP3    H2 2707   5.155   1.213   3.927 -1.9519 -0.5367 -0.3383
  901TIP3   OH2 2708   1.478   0.484   4.512 -0.2349  0.0362  0.1673
  901TIP3    H1 2709   1.485   0.564   4.459 -2.1612 -1.9825 -3.5143
  901TIP3    H2 2710   1.406   0.502   4.573  0.1608  1.4842  0.2422
  902TIP3   OH2 2711   5.819   3.118   1.547 -0.3053  0.9882  0.7495
  902TIP3    H1 2712   5.912   3.137   1.544 -0.1302  0.1238  0.2055
  902TIP3    H2 2713   5.784   3.174   1.617  0.4743  1.8953  0.4321
  903TIP3   OH2 2714   2.792   4.502   2.909 -0.6924 -0.4825 -0.0985
  903TIP3    H1 2715   2.740   4.476   2.833 -0.8099  0.4293 -0.3422
  903TIP3    H2 2716   2.838   4.422   2.936  0.3289 -0.5594 -1.9027
  904TIP3   OH2 2717   1.210   5.105   1.599 -0.6916 -0.4320 -0.0520
  904TIP3    H1 2718   1.153   5.032   1.573  0.7998 -2.0522  0.9818
  904TIP3    H2 2719   1.235   5.084   1.689 -0.7296  1.7459  0.5088
  905TIP3   OH2 2720   2.644   5.860   0.478  0.4229 -0.0653  0.2244
  905TIP3    H1 2721   2.615   5.947   0.506 -0.0436  0.4047 -1.5867
  905TIP3    H2 2722   2.699   5.829   0.550  0.3454  1.5945  1.0519
  906TIP3   OH2 2723   1.335   0.034   0.433  0.3446 -0.6861  0.1908
  906TIP3    H1 2724   1.248   0.058   0.401  0.0729 -2.0554 -0.1601
  906TIP3    H2 2725   1.395   0.089   0.383 -0.0972 -2.4325 -2.4400
  907TIP3   OH2 2726   2.309   4.566   4.408 -0.2204 -0.4256  0.2970
  907TIP3    H1 2727   2.265   4.498   4.358 -1.2648 -0.7454  1.5928
  907TIP3    H2 2728   2.390   4.526   4.438  0.3674 -0.2576 -1.0433
  908TIP3   OH2 2729   4.248   5.580   2.420  0.2337 -0.2809  1.0336
  908TIP3    H1 2730   4.294   5.644   2.474 -0.5413  0.5602  0.7193
  908TIP3    H2 2731   4.216   5.514   2.481  2.4645 -1.3276  1.2016
  909TIP3   OH2 2732   1.902   3.292   4.814  0.4021 -0.1220 -0.0115
  909TIP3    H1 2733   1.874   3.380   4.838 -0.1117 -0.6323  1.3476
  909TIP3    H2 2734   1.924   3.298   4.721  0.3864  1.4331  0.0678
  910TIP3   OH2 2735   1.824   5.402   0.196  0.5692  0.0310  0.1867
  910TIP3    H1 2736   1.827   5.369   0.106 -2.4302 -1.2075  0.4158
  910TIP3    H2 2737   1.904   5.369   0.236  0.7245 -1.5973 -1.3333
  911TIP3   OH2 2738   3.384   2.372   0.784  0.1294  0.3123  0.6089
  911TIP3    H1 2739   3.475   2.395   0.806  1.0867 -2.2954 -0.2548
  911TIP3    H2 2740   3.383   2.372   0.688 -0.2510 -1.4302  0.5933
  912TIP3   OH2 2741   0.248   5.288   3.881  0.2386 -0.3165 -0.6409
  912TIP3    H1 2742   0.226   5.337   3.961 -0.0157 -0.0277 -0.8832
  912TIP3    H2 2743   0.269   5.356   3.817  0.4403 -0.5483 -0.8225
  913TIP3   OH2 2744   3.360   0.967   3.027  0.3301 -0.1553  0.1156
  913TIP3    H1 2745   3.319   0.884   3.049  2.3546 -1.4705 -0.8164
  913TIP3    H2 2746   3.337   1.025   3.100  0.6359 -2.1515  1.8949
  914TIP3   OH2 2747   1.159   4.035   0.088  0.5685  0.3909  0.1179
  914TIP3    H1 2748   1.234   4.087   0.116  0.8108  1.4236 -2.2133
  914TIP3    H2 2749   1.115   4.089   0.022 -1.2933 -0.8819  0.2149
  915TIP3   OH2 2750   6.112   4.806   2.828 -0.7110 -0.1737 -0.3422
  915TIP3    H1 2751   6.188   4.843   2.872 -1.8966  0.7551  1.0407
  915TIP3    H2 2752   6.148   4.749   2.760  1.1981  1.2700 -0.6167
  916TIP3   OH2 2753   3.854   1.454   1.246  0.0588 -0.9825  0.3833
  916TIP3    H1 2754   3.823   1.530   1.195  1.7056 -0.8736 -0.5209
  916TIP3    H2 2755   3.808   1.379   1.207  2.4900 -1.1369 -2.5198
  917TIP3   OH2 2756   5.367   2.937   3.038  0.2326 -0.4982 -0.4436
  917TIP3    H1 2757   5.303   2.961   2.971  2.1432  2.9637 -1.2894
  917TIP3    H2 2758   5.327   2.963   3.120 -0.8310 -1.7602 -0.5287
  918TIP3   OH2 2759   5.798   1.022   3.155 -1.2284 -0.3249 -0.1792
  918TIP3    H1 2760   5.809   1.115   3.174  0.4217 -0.2898 -1.1058
  918TIP3    H2 2761   5.750   1.020   3.072 -0.4879 -0.2587 -0.6190
  919TIP3   OH2 2762   2.495   3.422   4.722 -0.2322 -0.2402  0.5562
  919TIP3    H1 2763   2.550   3.367   4.666  0.1371  0.4617  0.2150
  919TIP3    H2 2764   2.436   3.467   4.661 -0.2492  0.0621  0.7937
  920TIP3   OH2 2765   4.729   2.750   4.652  0.4039  0.1415  0.1451
  920TIP3    H1 2766   4.721   2.658   4.627 -2.7354  0.8941 -2.1306
  920TIP3    H2 2767   4.699   2.753   4.743 -0.6870 -0.9267 -0.1556
  921TIP3   OH2 2768   5.176   4.730   3.424 -0.3525  0.0463 -0.2275
  921TIP3    H1 2769   5.208   4.644   3.451 -2.5143 -0.2108  1.8297
  921TIP3    H2 2770   5.103   4.712   3.365  0.4304  0.5532 -1.4017
  922TIP3   OH2 2771   3.473   2.173   0.329 -0.0369  0.0233 -0.4594
  922TIP3    H1 2772   3.432   2.095   0.366 -1.9850  0.9478 -0.5929
  922TIP3    H2 2773   3.520   2.212   0.403  0.2138 -0.7851 -0.1802
  923TIP3   OH2 2774   3.917   3.918   0.881  0.3854  0.1968 -0.0279
  923TIP3    H1 2775   3.995   3.863   0.873 -1.1045 -2.1583  0.6340
  923TIP3    H2 2776   3.902   3.950   0.792  0.9780 -0.9681 -0.5724
  924TIP3   OH2 2777   5.808   5.348   3.632 -0.0021  0.2146  0.2088
  924TIP3    H1 2778   5.737   5.344   3.696  0.6946 -1.4394  0.9277
  924TIP3    H2 2779   5.766   5.331   3.548 -0.3647 -1.8808  0.7524
  925TIP3   OH2 2780   1.879   1.237   1.719  0.4996  0.1896 -0.0884
  925TIP3    H1 2781   1.870   1.223   1.625 -1.3109 -0.6728  0.1552
  925TIP3    H2 2782   1.798   1.201   1.756  1.8065 -0.8467  1.9533
  926TIP3   OH2 2783   3.046   4.345   4.377  0.0377 -0.4738 -0.1472
  926TIP3    H1 2784   3.081   4.432   4.359  1.5513 -1.1244 -0.4605
  926TIP3    H2 2785   2.966   4.340   4.325  0.6098  0.2746 -1.1259
  927TIP3   OH2 2786   5.058   2.039   4.197 -0.2322 -0.4634  0.1731
  927TIP3    H1 2787   5.059   2.132   4.220  1.2375 -0.3103 -0.4673
  927TIP3    H2 2788   5.147   2.019   4.171 -1.0537 -1.4725 -2.0890
  928TIP3   OH2 2789   6.242   0.828   1.864  0.5730 -0.0279  0.3294
  928TIP3    H1 2790   6.224   0.865   1.778  1.0374 -0.5828 -0.0134
  928TIP3    H2 2791   6.269   0.902   1.918  0.9361  0.2214 -0.1914
  929TIP3   OH2 2792   5.249   4.796   1.079  0.0685 -0.0833 -0.1065
  929TIP3    H1 2793   5.155   4.801   1.099 -0.0292 -0.7679 -0.3615
  929TIP3    H2 2794   5.291   4.787   1.165 -0.1925 -0.9518 -0.0585
  930TIP3   OH2 2795   4.619   1.419   3.922 -0.2872  0.4418  0.1178
  930TIP3    H1 2796   4.706   1.441   3.888  0.1407 -0.6506  0.4419
  930TIP3    H2 2797   4.595   1.493   3.977 -0.2445  1.4585 -1.1627
  931TIP3   OH2 2798   2.135   3.441   2.422 -0.1961 -0.2413  0.4118
  931TIP3    H1 2799   2.140   3.363   2.366 -1.1803  1.0867 -1.6509
  931TIP3    H2 2800   2.150   3.408   2.510  0.4279 -2.6077 -0.4991
  932TIP3   OH2 2801   4.032   0.608   2.869 -0.1350  0.0724 -0.8589
  932TIP3    H1 2802   4.081   0.582   2.947  1.5207 -1.0588 -2.1699
  932TIP3    H2 2803   4.052   0.539   2.805  0.0226  1.8299 -2.8301
  933TIP3   OH2 2804   6.101   0.049   3.128  0.3563 -0.0703  0.1310
  933TIP3    H1 2805   6.069  -0.040   3.112  0.7804 -0.3116  0.6092
  933TIP3    H2 2806   6.021   0.102   3.134  0.1113 -0.3252 -0.6469
  934TIP3   OH2 2807   4.458   4.593   1.871 -0.3678 -0.0034 -0.2043
  934TIP3    H1 2808   4.463   4.640   1.954  0.2746 -1.3217  0.5496
  934TIP3    H2 2809   4.365   4.589   1.850 -0.5249  0.4256  0.4045
  935TIP3   OH2 2810   3.841   4.413   0.671 -0.6228 -0.9343  0.3016
  935TIP3    H1 2811   3.847   4.404   0.766  1.7246 -1.3549  0.1855
  935TIP3    H2 2812   3.887   4.336   0.637 -1.9569 -1.1030 -1.2019
  936TIP3   OH2 2813   1.537   1.407   3.221 -0.0298  0.2708  0.1696
  936TIP3    H1 2814   1.458   1.430   3.270 -1.0157 -2.7589  0.2492
  936TIP3    H2 2815   1.510   1.410   3.129 -0.1347 -0.3298  0.1752
  937TIP3   OH2 2816   0.581   1.551   4.881 -0.0212 -0.1715  0.2988
  937TIP3    H1 2817   0.674   1.548   4.904  0.3180 -1.5397 -1.0620
  937TIP3    H2 2818   0.576   1.507   4.797 -2.1383 -1.7078  1.1380
  938TIP3   OH2 2819   1.330   0.133   3.909 -0.2872 -0.3622 -0.5028
  938TIP3    H1 2820   1.332   0.210   3.851  0.1796 -1.4565 -1.9849
  938TIP3    H2 2821   1.384   0.159   3.984 -0.6570  0.9863 -0.6680
  939TIP3   OH2 2822   5.958   0.348   4.291  0.0313 -0.3326  0.0433
  939TIP3    H1 2823   5.958   0.443   4.302  1.5791 -0.4440  1.3522
  939TIP3    H2 2824   5.931   0.335   4.200 -0.6006  1.3232 -0.0432
  940TIP3   OH2 2825   1.956   0.209   0.256  0.6846 -0.2245 -0.0491
  940TIP3    H1 2826   1.976   0.263   0.333  3.1447  0.9305 -1.3753
  940TIP3    H2 2827   2.037   0.160   0.240  0.7152  0.5341 -2.6214
  941TIP3   OH2 2828   2.770   2.878   1.357 -0.0557  0.7939 -0.5293
  941TIP3    H1 2829   2.699   2.883   1.421 -0.7290 -0.5889 -1.1238
  941TIP3    H2 2830   2.849   2.871   1.410 -0.4999  0.7875  0.1462
  942TIP3   OH2 2831   2.594   2.839   2.323 -0.1987  0.7925 -0.0504
  942TIP3    H1 2832   2.650   2.847   2.401  1.3157  0.3592 -1.0525
  942TIP3    H2 2833   2.650   2.864   2.250 -1.1587 -0.1779 -1.1667
  943TIP3   OH2 2834   1.194   5.350   5.057 -0.0291 -0.3108 -0.4382
  943TIP3    H1 2835   1.240   5.303   5.127 -0.4079 -2.1046 -1.3361
  943TIP3    H2 2836   1.160   5.281   5.000 -2.8919  0.9404 -0.4208
  944TIP3   OH2 2837   0.523   3.752   1.832 -0.5956  0.0791 -0.4588
  944TIP3    H1 2838   0.558   3.822   1.776 -1.6744 -0.2018 -1.5282
  944TIP3    H2 2839   0.475   3.798   1.900 -2.3904  0.4141 -1.8879
  945TIP3   OH2 2840   2.783   4.714   0.237  0.1477  0.2462 -0.1218
  945TIP3    H1 2841   2.732   4.724   0.157 -1.3810 -0.3080  0.7497
  945TIP3    H2 2842   2.728   4.751   0.306  0.6048 -0.9786  0.9538
  946TIP3   OH2 2843   4.336   3.531   0.986  0.1561  0.1732  0.9859
  946TIP3    H1 2844   4.370   3.503   1.071  0.6978  2.3260  1.5288
  946TIP3    H2 2845   4.252   3.573   1.007  0.8609  1.8132  0.6520
  947TIP3   OH2 2846   0.782   4.190   2.181 -0.4813 -0.1399 -0.5298
  947TIP3    H1 2847   0.698   4.192   2.226 -1.0692 -2.0635 -1.4599
  947TIP3    H2 2848   0.776   4.262   2.118 -0.5056  1.1609  0.8909
  948TIP3   OH2 2849   3.489   5.522   1.528 -0.8261 -0.0478 -0.0857
  948TIP3    H1 2850   3.461   5.434   1.504 -0.7685 -0.3271  0.8396
  948TIP3    H2 2851   3.533   5.511   1.612 -1.8202  1.0302  0.5993
  949TIP3   OH2 2852   4.193   3.732   4.493 -0.6526  0.2902  0.6412
  949TIP3    H1 2853   4.145   3.810   4.465 -1.8758 -1.1794 -1.6792
  949TIP3    H2 2854   4.261   3.722   4.427  0.6771  0.3665  1.9530
  950TIP3   OH2 2855   4.201   0.149   1.241  0.5320  0.2806  0.2121
  950TIP3    H1 2856   4.129   0.208   1.218  0.4447 -0.4826 -1.6274
  950TIP3    H2 2857   4.236   0.184   1.323  0.8165  3.1627 -1.0455
  951TIP3   OH2 2858   3.640   1.090   3.653 -0.7702  0.1414  0.1988
  951TIP3    H1 2859   3.556   1.044   3.658 -0.1895 -1.2285 -1.6183
  951TIP3    H2 2860   3.657   1.099   3.559  0.6717  1.2650  0.5325
  952TIP3   OH2 2861   3.425   0.607   2.451  0.1691 -0.6580  0.0873
  952TIP3    H1 2862   3.336   0.628   2.424 -0.1984 -0.2745  1.4806
  952TIP3    H2 2863   3.415   0.565   2.537  1.3673  0.5415  0.8708
  953TIP3   OH2 2864   5.066   0.990   1.945  0.0642 -0.4653 -0.3593
  953TIP3    H1 2865   5.016   0.909   1.951  1.5228 -1.2920  1.1873
  953TIP3    H2 2866   5.157   0.964   1.957  0.4220  1.5639  2.2435
  954TIP3   OH2 2867   4.930   4.569   1.986  0.3343  0.1164 -0.2819
  954TIP3    H1 2868   4.857   4.567   1.925  0.6717 -0.1263 -0.6810
  954TIP3    H2 2869   4.935   4.480   2.021  0.7949 -0.0213 -0.6858
  955TIP3   OH2 2870   2.735   3.415   5.077 -0.2931  0.2785 -0.3116
  955TIP3    H1 2871   2.709   3.404   5.168  1.4493  0.1242  0.2053
  955TIP3    H2 2872   2.818   3.367   5.070  0.5513  1.8110 -1.4919
  956TIP3   OH2 2873   1.799   2.996   0.729  0.7049 -0.1326  0.3947
  956TIP3    H1 2874   1.850   2.974   0.651  0.9140 -1.5703  0.9222
  956TIP3    H2 2875   1.791   2.914   0.777 -1.5927  0.1625  0.6289
  957TIP3   OH2 2876   3.159   0.780   0.503 -0.0297 -0.7243 -0.3007
  957TIP3    H1 2877   3.104   0.859   0.502 -0.3501 -0.9447 -0.5223
  957TIP3    H2 2878   3.196   0.776   0.415  2.6171  0.9589  0.6113
  958TIP3   OH2 2879   0.687   2.061   5.073 -0.2529 -0.2559  0.1021
  958TIP3    H1 2880   0.730   1.979   5.097  0.3448 -0.2055 -0.7587
  958TIP3    H2 2881   0.723   2.083   4.987 -0.3270  0.9589  0.3608
  959TIP3   OH2 2882   4.960   4.705   3.627  0.1540 -0.2338 -0.3900
  959TIP3    H1 2883   5.016   4.699   3.704 -0.2128 -0.0912 -0.1136
  959TIP3    H2 2884   5.020   4.727   3.555  0.1916  1.9994  0.2607
  960TIP3   OH2 2885   3.907   2.987   3.616 -0.3430 -0.3671 -0.1000
  960TIP3    H1 2886   3.896   3.024   3.528 -0.6302 -1.2961 -0.4671
  960TIP3    H2 2887   3.947   2.901   3.601  2.6610  0.7579  0.8999
  961TIP3   OH2 2888   0.756   0.467   4.679  0.0612 -0.1677  0.4826
  961TIP3    H1 2889   0.703   0.505   4.750  0.8829  0.8108  0.5852
  961TIP3    H2 2890   0.724   0.511   4.600 -1.3479 -1.7718  0.1149
  962TIP3   OH2 2891   0.062   4.077   5.156 -0.1092 -0.2140  0.1150
  962TIP3    H1 2892   0.005   4.001   5.169 -0.2943  0.0749  1.1142
  962TIP3    H2 2893   0.080   4.078   5.062 -1.1044 -0.7718 -0.0986
  963TIP3   OH2 2894   5.223   2.293   0.367  0.2745  0.4330  0.5674
  963TIP3    H1 2895   5.186   2.212   0.332  0.3380  0.8373 -0.4682
  963TIP3    H2 2896   5.199   2.360   0.302  0.7700  1.1279  1.0903
  964TIP3   OH2 2897   1.053   5.756   4.737  0.5798  0.0891  0.1779
  964TIP3    H1 2898   1.136   5.749   4.690 -0.1980  0.0214 -1.2584
  964TIP3    H2 2899   1.062   5.833   4.792  1.1878  0.7579 -0.8416
  965TIP3   OH2 2900   2.768   4.040   1.620  0.2649  0.3885  0.1053
  965TIP3    H1 2901   2.770   3.960   1.567  0.8219  0.6702 -0.3071
  965TIP3    H2 2902   2.692   4.029   1.677 -0.6578  0.3152 -1.0992
  966TIP3   OH2 2903   2.338   3.516   1.137 -0.5460 -0.4171  0.1766
  966TIP3    H1 2904   2.291   3.474   1.065  0.3890  0.7073 -1.1460
  966TIP3    H2 2905   2.426   3.479   1.133 -0.9634 -1.7031  1.9472
  967TIP3   OH2 2906   2.258   2.967   3.835  0.5641  0.1878  0.1498
  967TIP3    H1 2907   2.253   2.889   3.891  0.4660  0.1047  0.0259
  967TIP3    H2 2908   2.170   2.975   3.797  0.4774  0.5508  0.4161
  968TIP3   OH2 2909   0.925   2.760   3.676  0.1774  0.0920  0.1307
  968TIP3    H1 2910   1.002   2.817   3.665  0.7775 -0.4200  1.4209
  968TIP3    H2 2911   0.888   2.787   3.760 -1.4746  0.7696 -0.7658
  969TIP3   OH2 2912   4.882   2.898   4.045  0.0385  0.0455  0.3191
  969TIP3    H1 2913   4.881   2.821   3.988 -2.0403 -1.1790  1.8522
  969TIP3    H2 2914   4.907   2.864   4.131 -3.2113  0.4963  1.5894
  970TIP3   OH2 2915   3.074   1.080   3.561 -0.2657  0.0979  0.0112
  970TIP3    H1 2916   3.051   0.994   3.526  0.8971  0.0069 -0.5847
  970TIP3    H2 2917   3.127   1.061   3.638  0.4430  0.2599 -0.4247
  971TIP3   OH2 2918   3.213   3.340   2.308  0.0694 -0.0268  0.3794
  971TIP3    H1 2919   3.307   3.345   2.295  0.0291 -0.3701 -0.1110
  971TIP3    H2 2920   3.187   3.428   2.335  0.4960  0.1299  0.2859
  972TIP3   OH2 2921   0.423   2.818   2.754 -0.6208 -0.0539  0.8161
  972TIP3    H1 2922   0.345   2.767   2.735  0.2801 -1.8465  1.6820
  972TIP3    H2 2923   0.472   2.820   2.672 -0.7556 -0.4262  0.7285
  973TIP3   OH2 2924   3.135   0.101   1.890  0.1088 -0.1018  0.7872
  973TIP3    H1 2925   3.156   0.167   1.956  0.2022  0.1091  0.5459
  973TIP3    H2 2926   3.056   0.133   1.847  1.0303  0.6619 -0.4075
  974TIP3   OH2 2927   6.290   0.171   3.911 -0.5986  0.2990  0.1682
  974TIP3    H1 2928   6.227   0.199   3.845 -1.3685 -1.5783  0.0665
  974TIP3    H2 2929   6.316   0.252   3.955 -1.7417  1.3128 -0.9614
  975TIP3   OH2 2930   3.134   1.000   2.700  0.2918  0.4470  0.2269
  975TIP3    H1 2931   3.104   0.960   2.618 -1.7623  1.8992  0.1843
  975TIP3    H2 2932   3.222   0.966   2.712 -0.6709 -2.7301 -0.6357
  976TIP3   OH2 2933   5.534   1.787   1.635  0.3165  0.3535  0.3769
  976TIP3    H1 2934   5.489   1.852   1.581 -0.4950 -1.3906 -1.1562
  976TIP3    H2 2935   5.562   1.720   1.573  1.7251 -0.4505  1.8141
  977TIP3   OH2 2936   6.077   4.010   4.489 -0.0903  0.9098 -0.5273
  977TIP3    H1 2937   6.153   3.989   4.543  0.6912  2.6047 -0.8998
  977TIP3    H2 2938   6.106   4.082   4.433 -0.7296 -1.0580 -3.6175
  978TIP3   OH2 2939   3.165   3.732   3.977 -0.3310  0.0405  0.2405
  978TIP3    H1 2940   3.114   3.800   4.021 -0.9363 -0.0206 -0.3472
  978TIP3    H2 2941   3.242   3.778   3.945 -0.5112  0.3558  0.2501
  979TIP3   OH2 2942   1.879   2.745   4.728  0.5509 -0.1452 -0.0701
  979TIP3    H1 2943   1.802   2.698   4.760 -0.5945  1.0785 -0.9268
  979TIP3    H2 2944   1.855   2.837   4.735  0.9647  0.2215 -2.6437
  980TIP3   OH2 2945   1.603   1.090   3.709 -0.0854 -0.0619 -0.3129
  980TIP3    H1 2946   1.529   1.141   3.677 -0.8440 -1.2824 -0.5701
  980TIP3    H2 2947   1.679   1.146   3.694 -0.9465  1.2093 -0.0463
  981TIP3   OH2 2948   3.101   0.198   3.684  0.5450  0.5517  0.3504
  981TIP3    H1 2949   3.013   0.161   3.672  1.2185 -0.9342 -0.2492
  981TIP3    H2 2950   3.097   0.244   3.768 -0.9475  0.9819  0.0727
  982TIP3   OH2 2951   5.011   0.037   3.538  0.0291 -0.2566  0.0066
  982TIP3    H1 2952   4.941   0.029   3.473 -1.3334  1.6266  1.1542
  982TIP3    H2 2953   5.088  -0.000   3.494 -1.2936 -0.9463 -1.8863
  983TIP3   OH2 2954   3.932   1.677   1.394 -0.1105 -0.2252 -0.5749
  983TIP3    H1 2955   3.994   1.632   1.451  0.1070 -1.9868 -2.0984
  983TIP3    H2 2956   3.952   1.645   1.306 -1.6423  0.9591 -1.4176
  984TIP3   OH2 2957   6.216   5.621   2.414  0.0398  0.1740  0.0229
  984TIP3    H1 2958   6.241   5.698   2.466  0.7535 -0.3768  0.5030
  984TIP3    H2 2959   6.296   5.569   2.407 -0.2366 -0.1443 -0.9831
  985TIP3   OH2 2960   3.049   5.781   1.884 -0.1631  0.3840  0.0039
  985TIP3    H1 2961   2.984   5.711   1.890 -0.9134  0.9964 -0.8319
  985TIP3    H2 2962   3.000   5.862   1.897  0.6133  0.7909  0.4533
  986TIP3   OH2 2963   5.316   5.940   4.621 -0.3871  0.8379 -0.4592
  986TIP3    H1 2964   5.293   5.866   4.677  0.6229  0.5697 -0.3691
  986TIP3    H2 2965   5.241   5.951   4.562 -1.4153  1.0422  0.8489
  987TIP3   OH2 2966   0.188   5.413   0.416  0.4487 -0.0616  0.5983
  987TIP3    H1 2967   0.157   5.483   0.472 -1.1085  0.6039 -0.9858
  987TIP3    H2 2968   0.126   5.341   0.430  0.1312  0.0593 -0.1134
  988TIP3   OH2 2969   2.105   1.419   1.753  0.7032  0.2405 -0.2010
  988TIP3    H1 2970   2.026   1.366   1.765  1.5352 -1.2033 -0.8801
  988TIP3    H2 2971   2.072   1.509   1.744 -0.9260 -0.4029 -1.2099
  989TIP3   OH2 2972   1.679   0.544   1.876 -0.7011 -0.3496  0.1491
  989TIP3    H1 2973   1.589   0.575   1.885 -0.4279  0.1086  1.4705
  989TIP3    H2 2974   1.726   0.585   1.949  0.3875 -1.2940  0.0013
  990TIP3   OH2 2975   5.576   1.915   0.106  0.3959 -0.0001  0.5822
  990TIP3    H1 2976   5.567   1.895   0.012  0.3687 -2.3201  1.0009
  990TIP3    H2 2977   5.670   1.917   0.121  0.4015 -0.4173  0.6260
  991TIP3   OH2 2978   4.938   1.335   0.793  0.1285 -0.4084 -0.5480
  991TIP3    H1 2979   5.030   1.310   0.790  0.4415  0.4349  0.8420
  991TIP3    H2 2980   4.916   1.361   0.704  1.1565 -0.8772 -0.9437
  992TIP3   OH2 2981   3.820   4.373   3.149  0.3386 -0.1045  0.2489
  992TIP3    H1 2982   3.896   4.380   3.208 -0.9934 -0.2894  2.0579
  992TIP3    H2 2983   3.783   4.461   3.147  0.9602  0.1432 -1.1780
  993TIP3   OH2 2984   5.636   2.156   5.120 -0.4630 -0.0343 -0.2794
  993TIP3    H1 2985   5.569   2.088   5.123 -0.1193 -0.3545  0.4738
  993TIP3    H2 2986   5.690   2.134   5.045  0.0734 -1.0161  0.3774
  994TIP3   OH2 2987   0.717   0.707   0.391  0.8266  0.2229 -0.3031
  994TIP3    H1 2988   0.735   0.667   0.306 -1.1126 -1.5615  0.0693
  994TIP3    H2 2989   0.663   0.644   0.437 -1.8890  2.9784  0.6039
  995TIP3   OH2 2990   4.606   4.066   4.392  0.5959 -0.8861  0.5522
  995TIP3    H1 2991   4.646   4.143   4.353 -1.0279 -0.7142 -0.9039
  995TIP3    H2 2992   4.521   4.058   4.348  0.2496 -2.8613  1.4561
  996TIP3   OH2 2993   3.948   4.161   1.122  0.1275  0.1321  0.0947
  996TIP3    H1 2994   4.027   4.184   1.074  0.0096  1.6149  0.5735
  996TIP3    H2 2995   3.919   4.078   1.083  2.0805 -0.6180  0.1300
  997TIP3   OH2 2996   5.173   1.262   5.170  0.0079 -0.1096 -0.3543
  997TIP3    H1 2997   5.231   1.293   5.100  0.6293 -2.0127 -0.7392
  997TIP3    H2 2998   5.092   1.238   5.125  0.2059 -0.8044 -0.3413
  998TIP3   OH2 2999   3.836   2.611   4.360 -0.9630 -0.2235  0.2033
  998TIP3    H1 3000   3.791   2.611   4.444  0.2670 -0.4567  0.8813
  998TIP3    H2 3001   3.903   2.678   4.369 -1.1458  0.1171 -0.7893
  999TIP3   OH2 3002   0.612   3.659   2.848 -1.0114 -0.3749 -0.1428
  999TIP3    H1 3003   0.667   3.737   2.847 -0.5366 -0.6757 -2.3370
  999TIP3    H2 3004   0.673   3.587   2.832 -1.7632 -0.9264 -0.5879
 1000TIP3   OH2 3005   3.983   3.131   4.639  0.2557  0.0449  0.0124
 1000TIP3    H1 3006   4.005   3.218   4.673 -1.1775  0.3675  0.1799
 1000TIP3    H2 3007   4.001   3.137   4.545 -0.9571  0.9393 -0.1981
 1001TIP3   OH2 3008   2.636   3.008   2.662  0.1410 -0.0262  0.2972
 1001TIP3    H1 3009   2.695   2.937   2.634  0.0578  0.2656 -0.6741
 1001TIP3    H2 3010   2.645   3.074   2.593 -2.1513 -0.4502 -0.5087
 1002TIP3   OH2 3011   6.136   1.863   2.646  0.1598  0.0303  0.3973
 1002TIP3    H1 3012   6.171   1.951   2.630 -0.0503  0.2086  0.8849
 1002TIP3    H2 3013   6.127   1.825   2.559 -0.5492  0.8110  0.1029
 1003TIP3   OH2 3014   3.513   3.799   0.886 -0.3363  0.0116 -0.0950
 1003TIP3    H1 3015   3.542   3.880   0.928  0.1408 -0.0122 -0.3653
 1003TIP3    H2 3016   3.441   3.825   0.830  0.8453  0.5607 -1.4260
 1004TIP3   OH2 3017   1.403   5.847   3.258  0.2445  0.3306 -0.5461
 1004TIP3    H1 3018   1.403   5.932   3.302  0.8595  0.1192 -0.1278
 1004TIP3    H2 3019   1.489   5.810   3.277 -0.0764 -0.4625 -0.5881
 1005TIP3   OH2 3020   5.053   2.902   5.019  0.6127  0.1024 -0.0864
 1005TIP3    H1 3021   5.142   2.928   5.045  0.9386 -0.3670 -0.7214
 1005TIP3    H2 3022   5.045   2.929   4.928 -0.3822  1.3558  0.3533
 1006TIP3   OH2 3023   6.035   5.210   0.522 -0.3313  0.1796  0.2424
 1006TIP3    H1 3024   6.073   5.131   0.483 -0.4344 -0.3956  1.2562
 1006TIP3    H2 3025   6.022   5.270   0.449  1.2553 -0.1258 -0.3247
 1007TIP3   OH2 3026   5.408   3.735   3.515  0.1778  0.2460  0.2014
 1007TIP3    H1 3027   5.446   3.724   3.428 -0.1815  0.5946 -0.0041
 1007TIP3    H2 3028   5.405   3.830   3.528  1.7100  0.1878  1.2579
 1008TIP3   OH2 3029   6.009   0.469   2.900  0.6068 -0.0305 -0.3782
 1008TIP3    H1 3030   6.024   0.559   2.868 -0.2683  0.0976 -0.4322
 1008TIP3    H2 3031   6.096   0.440   2.928  0.6330  1.4307  1.2133
 1009TIP3   OH2 3032   0.126   0.742   2.930  0.4731  0.2689  0.5841
 1009TIP3    H1 3033   0.030   0.750   2.934  0.0236 -3.0175 -0.3316
 1009TIP3    H2 3034   0.152   0.726   3.020  0.2456  1.5303  0.8938
 1010TIP3   OH2 3035   4.484   2.283   4.626  0.3794  0.1544 -0.5840
 1010TIP3    H1 3036   4.468   2.276   4.720  0.6454  1.3661 -0.4319
 1010TIP3    H2 3037   4.397   2.298   4.588  0.3465  0.3218 -0.4485
 1011TIP3   OH2 3038   4.486   2.816   0.264 -0.4001  0.3309 -0.9931
 1011TIP3    H1 3039   4.462   2.904   0.292  0.1867  0.3257 -0.4693
 1011TIP3    H2 3040   4.504   2.768   0.345 -0.7858 -0.2939 -1.2660
 1012TIP3   OH2 3041   3.413   4.984   2.706 -0.1718 -0.2607 -0.5456
 1012TIP3    H1 3042   3.328   5.025   2.691 -0.2586  0.5356  1.7207
 1012TIP3    H2 3043   3.462   4.999   2.624 -1.0091  2.3725 -0.6508
 1013TIP3   OH2 3044   1.431   4.326   3.272 -0.7535  0.5438 -0.4280
 1013TIP3    H1 3045   1.508   4.347   3.325  2.3826 -5.1204 -1.8145
 1013TIP3    H2 3046   1.361   4.314   3.336  0.7651  1.4221  1.5246
 1014TIP3   OH2 3047   3.608   3.645   1.427  0.0718 -0.2733 -0.4478
 1014TIP3    H1 3048   3.560   3.694   1.494 -1.8369 -0.2467 -1.7550
 1014TIP3    H2 3049   3.608   3.554   1.459  0.0981 -0.0919  0.0760
 1015TIP3   OH2 3050   5.321   0.026   1.429 -0.0091 -0.6869  0.3147
 1015TIP3    H1 3051   5.398   0.012   1.374 -0.8103 -0.6254 -0.8588
 1015TIP3    H2 3052   5.256  -0.035   1.396 -1.1941  0.7875 -0.2125
 1016TIP3   OH2 3053   0.327   0.008   1.243 -0.2954 -0.7364 -0.0236
 1016TIP3    H1 3054   0.369   0.095   1.242  1.4087 -1.5037 -1.7784
 1016TIP3    H2 3055   0.314  -0.011   1.336 -0.2868  1.1964  0.4208
 1017TIP3   OH2 3056   1.116   2.926   3.006 -0.3715  0.1432  0.2803
 1017TIP3    H1 3057   1.053   2.970   3.063  0.3474  0.9663  0.4578
 1017TIP3    H2 3058   1.181   2.993   2.986 -0.4565 -0.2109 -1.2914
 1018TIP3   OH2 3059   1.847   2.620   1.416 -0.0142 -0.1106  0.6097
 1018TIP3    H1 3060   1.888   2.597   1.333  0.7370  0.8897  0.6878
 1018TIP3    H2 3061   1.847   2.538   1.466  0.5451 -0.4659  0.0444
 1019TIP3   OH2 3062   1.150   2.423   2.050 -0.3916  0.1911 -0.2556
 1019TIP3    H1 3063   1.074   2.369   2.026  1.4503 -2.3999 -0.7290
 1019TIP3    H2 3064   1.218   2.396   1.989  1.8327  0.0242  2.1170
 1020TIP3   OH2 3065   1.171   1.642   4.622 -0.2297 -0.2490 -0.5139
 1020TIP3    H1 3066   1.229   1.597   4.684 -1.1274  0.7767  1.1530
 1020TIP3    H2 3067   1.088   1.595   4.629 -0.4977  0.2203 -0.5329
 1021TIP3   OH2 3068   5.868   0.353   1.034 -0.5442 -0.0018  0.0322
 1021TIP3    H1 3069   5.929   0.389   1.098 -1.6753  0.0033  1.1528
 1021TIP3    H2 3070   5.920   0.343   0.954  0.4644  1.6396  0.4338
 1022TIP3   OH2 3071   5.281   1.749   3.989  0.4999 -0.4320 -0.2222
 1022TIP3    H1 3072   5.306   1.840   3.969  0.6432 -0.5075 -0.3928
 1022TIP3    H2 3073   5.193   1.740   3.953  0.2070 -0.1551  0.4047
 1023TIP3   OH2 3074   3.255   2.274   4.265  0.3294 -0.2638 -0.4560
 1023TIP3    H1 3075   3.303   2.350   4.297  0.2878  1.2012 -3.4511
 1023TIP3    H2 3076   3.266   2.277   4.170 -2.7687 -1.8816 -1.0159
 1024TIP3   OH2 3077   2.168   2.954   4.417 -0.2493 -0.0659  0.6979
 1024TIP3    H1 3078   2.155   2.859   4.414 -0.1840 -0.0794 -2.9022
 1024TIP3    H2 3079   2.081   2.990   4.401  0.3759  0.2503 -2.7829
 1025TIP3   OH2 3080   3.436   5.057   3.184 -0.0836 -0.2564 -0.4400
 1025TIP3    H1 3081   3.435   5.109   3.103  1.0075 -0.6013 -0.6961
 1025TIP3    H2 3082   3.363   5.091   3.235  1.9143  3.1527  0.4300
 1026TIP3   OH2 3083   5.363   2.035   0.544  0.3852 -0.7371 -0.4047
 1026TIP3    H1 3084   5.326   2.122   0.559 -0.3518 -1.1885  0.4569
 1026TIP3    H2 3085   5.457   2.050   0.537  0.1208  0.3314 -1.9095
 1027TIP3   OH2 3086   0.136   3.416   2.946 -0.6091  0.3142 -0.3028
 1027TIP3    H1 3087   0.167   3.441   3.033  1.3540 -0.4749 -0.7080
 1027TIP3    H2 3088   0.152   3.322   2.940 -1.2928  0.2396 -1.2977
 1028TIP3   OH2 3089   2.734   1.883   3.216  0.6447  0.1820 -0.0735
 1028TIP3    H1 3090   2.763   1.970   3.243  1.3867  0.2957 -1.1768
 1028TIP3    H2 3091   2.802   1.853   3.156 -0.0916 -0.7598 -0.4521
 1029TIP3   OH2 3092   2.595   5.555   4.750 -0.5410 -0.5865 -0.4415
 1029TIP3    H1 3093   2.684   5.523   4.736 -0.4405 -0.6201  0.2252
 1029TIP3    H2 3094   2.540   5.497   4.698 -0.0809  0.1571 -1.8080
 1030TIP3   OH2 3095   2.058   3.946   2.102 -0.0811 -0.2350 -0.4848
 1030TIP3    H1 3096   2.141   3.905   2.076  0.5919 -0.8008  2.2722
 1030TIP3    H2 3097   2.084   4.032   2.135 -0.2994 -1.0600  1.9865
 1031TIP3   OH2 3098   5.605   1.031   0.803  0.1776 -0.4396 -0.0807
 1031TIP3    H1 3099   5.572   1.121   0.801  1.5437  0.0898  0.4102
 1031TIP3    H2 3100   5.534   0.980   0.843  0.1910  0.7700  1.5782
 1032TIP3   OH2 3101   2.126   1.340   0.340 -0.1121  0.1874  1.0271
 1032TIP3    H1 3102   2.078   1.320   0.420 -0.8613  0.0424  0.5472
 1032TIP3    H2 3103   2.124   1.259   0.290 -0.3794  0.5189  0.4928
 1033TIP3   OH2 3104   2.800   2.077   0.882 -0.0957 -0.4582  0.3082
 1033TIP3    H1 3105   2.713   2.041   0.895 -1.1749  1.4399 -1.2005
 1033TIP3    H2 3106   2.831   2.098   0.970 -1.8498  0.3722  0.7584
 1034TIP3   OH2 3107   2.879   4.512   0.382  0.1203  0.6257 -0.3859
 1034TIP3    H1 3108   2.869   4.593   0.332  1.1966  0.7123 -0.4684
 1034TIP3    H2 3109   2.972   4.491   0.377  0.0288 -0.0647  0.5105
 1035TIP3   OH2 3110   1.648   0.069   2.800 -0.6053  0.1182  0.3129
 1035TIP3    H1 3111   1.590   0.129   2.753  0.0748 -0.6343 -1.5658
 1035TIP3    H2 3112   1.671   0.117   2.880 -2.1336  1.2684  0.1200
 1036TIP3   OH2 3113   0.928   5.465   3.969  0.2781  0.6918 -0.3185
 1036TIP3    H1 3114   0.963   5.377   3.960  0.0434  0.6565 -1.0080
 1036TIP3    H2 3115   0.845   5.463   3.920 -0.4225  0.9122  0.8276
 1037TIP3   OH2 3116   1.770   3.448   0.903 -0.2100 -0.0586  0.3661
 1037TIP3    H1 3117   1.678   3.438   0.927 -0.8531  2.5896 -0.6577
 1037TIP3    H2 3118   1.777   3.408   0.816 -0.7488  0.8798 -0.1272
 1038TIP3   OH2 3119   0.982   4.035   3.017  0.3662  0.2953  0.3329
 1038TIP3    H1 3120   0.938   4.113   2.984 -0.1387 -0.2458 -0.3252
 1038TIP3    H2 3121   0.913   3.969   3.021  1.0664 -0.5337 -0.5866
 1039TIP3   OH2 3122   5.536   1.615   3.073 -0.1508  0.6942  0.5358
 1039TIP3    H1 3123   5.493   1.683   3.021 -0.4908 -0.1675 -0.3464
 1039TIP3    H2 3124   5.556   1.547   3.009  2.2585  0.9196  0.9612
 1040TIP3   OH2 3125   3.673   1.259   1.175  0.0014  0.0842  0.2538
 1040TIP3    H1 3126   3.729   1.189   1.208 -1.3618 -0.0174  2.5610
 1040TIP3    H2 3127   3.618   1.217   1.109 -1.8447 -1.5259  2.6499
 1041TIP3   OH2 3128   3.308   1.120   0.056  0.0260  0.6030 -0.2116
 1041TIP3    H1 3129   3.310   1.025   0.050 -1.2848  0.5455  0.1065
 1041TIP3    H2 3130   3.348   1.150  -0.025  2.3979 -0.1900  0.5641
 1042TIP3   OH2 3131   3.192   0.238   2.958 -0.7213 -0.2871  0.4623
 1042TIP3    H1 3132   3.100   0.212   2.961 -0.7117 -0.4576 -0.3818
 1042TIP3    H2 3133   3.239   0.164   2.996 -1.0631  0.6746  2.9138
 1043TIP3   OH2 3134   4.632   1.790   1.409  0.0467 -0.6677 -0.1244
 1043TIP3    H1 3135   4.649   1.753   1.323  0.2559 -0.4233 -0.1886
 1043TIP3    H2 3136   4.598   1.877   1.392 -3.0227 -1.7526 -0.0723
 1044TIP3   OH2 3137   2.964   5.867   0.219 -0.0115 -0.3147 -0.5705
 1044TIP3    H1 3138   2.995   5.898   0.134  2.1983 -0.7874 -0.0007
 1044TIP3    H2 3139   2.902   5.934   0.248 -1.0977 -0.3271 -2.6738
 1045TIP3   OH2 3140   1.911   1.759   4.369  0.2939  0.5915  0.3565
 1045TIP3    H1 3141   1.890   1.667   4.384 -1.2492  0.6118 -1.3502
 1045TIP3    H2 3142   1.826   1.802   4.358  1.0343  1.5773 -2.2155
 1046TIP3   OH2 3143   2.138   0.943   5.144  0.0234  0.3245  0.2856
 1046TIP3    H1 3144   2.098   1.029   5.128 -0.7661 -0.3475 -1.6217
 1046TIP3    H2 3145   2.144   0.903   5.057  0.4117 -1.5502  1.1369
 1047TIP3   OH2 3146   1.991   1.299   1.328  0.1374  0.5404  0.4836
 1047TIP3    H1 3147   1.997   1.227   1.391 -0.4770 -0.2895 -0.3750
 1047TIP3    H2 3148   2.041   1.370   1.368  0.7934 -0.3714  1.3465
 1048TIP3   OH2 3149   1.765   5.802   1.295 -0.2023  0.0496 -0.0070
 1048TIP3    H1 3150   1.766   5.897   1.285 -1.4283  0.2837  1.6953
 1048TIP3    H2 3151   1.855   5.778   1.313  0.2687  0.7616 -1.2838
 1049TIP3   OH2 3152   5.063   2.982   4.744  0.3690  0.4967 -0.1061
 1049TIP3    H1 3153   5.047   3.075   4.760 -0.9389  0.0349  1.4957
 1049TIP3    H2 3154   5.018   2.964   4.661  0.9120  1.3381 -0.5958
 1050TIP3   OH2 3155   4.613   4.772   4.700  0.4269  0.1955  0.0774
 1050TIP3    H1 3156   4.707   4.760   4.712  0.5912 -0.7819 -1.8225
 1050TIP3    H2 3157   4.582   4.687   4.668 -1.2902  0.2128  1.5629
 1051TIP3   OH2 3158   1.529   3.096   0.767  0.1373  0.6296 -0.6085
 1051TIP3    H1 3159   1.621   3.068   0.759  0.1725 -1.1295  3.4958
 1051TIP3    H2 3160   1.534   3.192   0.773  1.6133  0.6160 -1.1519
 1052TIP3   OH2 3161   0.865   5.341   5.066 -0.0827 -0.1631  0.4699
 1052TIP3    H1 3162   0.931   5.403   5.036  1.3078 -0.6325  2.3685
 1052TIP3    H2 3163   0.906   5.255   5.058 -1.5833 -0.7855 -1.0864
 1053TIP3   OH2 3164   3.092   1.750   0.298 -0.3192  0.3384 -0.2591
 1053TIP3    H1 3165   3.023   1.693   0.265 -0.9900  0.3594  1.0427
 1053TIP3    H2 3166   3.091   1.736   0.393 -0.3815  2.3605  0.0718
 1054TIP3   OH2 3167   3.592   2.230   1.626  0.5015  0.0916  0.4572
 1054TIP3    H1 3168   3.583   2.236   1.531 -1.0891 -1.0042  0.4942
 1054TIP3    H2 3169   3.617   2.139   1.642  0.1845  0.1098  1.1063
 1055TIP3   OH2 3170   0.341   0.375   3.900 -0.5980 -0.2903 -0.1843
 1055TIP3    H1 3171   0.381   0.400   3.983 -0.1891  0.6870 -0.6597
 1055TIP3    H2 3172   0.346   0.280   3.898  1.4658 -0.2123 -0.1155
 1056TIP3   OH2 3173   2.114   0.514   1.058 -0.5067  0.0735 -0.4233
 1056TIP3    H1 3174   2.198   0.522   1.012 -0.0603 -0.6657  0.2412
 1056TIP3    H2 3175   2.057   0.578   1.015  0.2370  0.2078 -1.2363
 1057TIP3   OH2 3176   2.844   2.090   1.162 -0.0243  0.0292 -0.2064
 1057TIP3    H1 3177   2.773   2.126   1.215  0.2809 -0.6159  0.6749
 1057TIP3    H2 3178   2.849   1.998   1.189  1.5667  0.2234  0.2306
 1058TIP3   OH2 3179   0.377   1.489   1.379  0.2316 -0.5378  0.2238
 1058TIP3    H1 3180   0.359   1.551   1.449 -0.2013 -1.3456  0.8373
 1058TIP3    H2 3181   0.399   1.544   1.303 -2.9628  0.5133 -0.0794
 1059TIP3   OH2 3182   3.755   2.889   4.558 -0.2124  0.5921 -0.2742
 1059TIP3    H1 3183   3.722   2.957   4.499  1.4296  2.0928  0.4590
 1059TIP3    H2 3184   3.846   2.877   4.532 -0.0025 -0.0953  0.7284
 1060TIP3   OH2 3185   3.888   2.270   0.131 -0.1536  0.1411 -0.1520
 1060TIP3    H1 3186   3.966   2.310   0.092  0.8667 -2.0531 -0.5203
 1060TIP3    H2 3187   3.816   2.301   0.076  0.5888  1.2750 -0.5310
 1061TIP3   OH2 3188   0.842   2.802   0.540  0.1455  0.4622  0.4829
 1061TIP3    H1 3189   0.835   2.894   0.517 -0.1948  0.6966  1.4719
 1061TIP3    H2 3190   0.935   2.788   0.559  0.7301 -0.0818 -2.2820
 1062TIP3   OH2 3191   3.076   1.327   1.186  0.4074  0.9060 -0.0264
 1062TIP3    H1 3192   3.109   1.270   1.255 -0.8422  1.4614  1.0623
 1062TIP3    H2 3193   3.100   1.415   1.215 -0.6436  1.1878  0.0088
 1063TIP3   OH2 3194   2.194   0.250   4.386 -0.4518 -0.4259 -0.2798
 1063TIP3    H1 3195   2.114   0.272   4.434  0.5962  2.0148  0.4851
 1063TIP3    H2 3196   2.217   0.162   4.417 -2.5750 -1.0216 -0.2351
 1064TIP3   OH2 3197   6.244   2.102   4.875 -0.1831  0.3923  0.8060
 1064TIP3    H1 3198   6.302   2.173   4.900 -0.0371  0.0063  1.5969
 1064TIP3    H2 3199   6.229   2.053   4.956 -0.6594 -0.2019  0.3747
 1065TIP3   OH2 3200   0.186   4.663   3.843 -0.4821 -0.0574 -0.0088
 1065TIP3    H1 3201   0.181   4.742   3.789  0.3658  1.3621  1.8644
 1065TIP3    H2 3202   0.097   4.627   3.841 -0.7344  0.5655 -1.4083
 1066TIP3   OH2 3203   0.374   2.584   0.868  0.2291  0.0198  0.4622
 1066TIP3    H1 3204   0.337   2.496   0.869 -0.4982  0.3097  1.3403
 1066TIP3    H2 3205   0.468   2.571   0.857  0.1886 -0.8951  1.0984
 1067TIP3   OH2 3206   3.438   4.499   1.175 -0.3600  0.1304 -0.5371
 1067TIP3    H1 3207   3.481   4.414   1.170  0.9215  0.7841 -1.4035
 1067TIP3    H2 3208   3.429   4.527   1.084 -0.2243  1.1557 -0.2566
 1068TIP3   OH2 3209   0.765   5.348   1.455  0.1308  0.1937  0.1432
 1068TIP3    H1 3210   0.821   5.342   1.378 -1.0198  0.8182 -0.7979
 1068TIP3    H2 3211   0.825   5.354   1.529  1.2873  0.4760 -0.7865
 1069TIP3   OH2 3212   6.051   5.130   3.054  0.4031 -0.5224 -0.0010
 1069TIP3    H1 3213   5.987   5.179   3.107  1.0390  0.8340 -0.4482
 1069TIP3    H2 3214   6.012   5.127   2.966 -0.5453 -2.5744  0.4226
 1070TIP3   OH2 3215   1.867   3.055   3.399  0.0127 -0.8556 -0.6548
 1070TIP3    H1 3216   1.867   3.144   3.363 -0.1545 -0.8197 -0.5682
 1070TIP3    H2 3217   1.792   3.054   3.459  0.1395 -0.9900 -0.4976
 1071TIP3   OH2 3218   6.182   3.672   4.724 -0.3846 -0.0343  0.0233
 1071TIP3    H1 3219   6.102   3.722   4.712 -0.2479 -0.2204 -1.9070
 1071TIP3    H2 3220   6.219   3.704   4.807 -2.0909  0.5099  0.6007
 1072TIP3   OH2 3221   3.411   5.616   1.021  0.1095 -0.4238 -0.1197
 1072TIP3    H1 3222   3.325   5.640   1.054 -0.2185  1.8173 -2.3325
 1072TIP3    H2 3223   3.413   5.648   0.931  2.6603 -1.9109 -0.7049
 1073TIP3   OH2 3224   4.026   3.190   1.150 -0.1950  0.8252 -0.2810
 1073TIP3    H1 3225   4.114   3.207   1.184 -0.7700  3.0446  0.3083
 1073TIP3    H2 3226   3.968   3.226   1.216 -1.6664 -2.0317  0.1074
 1074TIP3   OH2 3227   3.556   1.069   1.005 -0.3449  0.0851  0.1211
 1074TIP3    H1 3228   3.616   1.016   0.954 -0.0457 -0.2545  0.8110
 1074TIP3    H2 3229   3.545   1.021   1.088  0.4895  1.4204  1.0500
 1075TIP3   OH2 3230   1.778   1.515   4.457  0.0749  0.1857 -0.5980
 1075TIP3    H1 3231   1.720   1.492   4.384 -1.1851  0.0138  0.4058
 1075TIP3    H2 3232   1.726   1.574   4.511  1.5260  1.5076 -0.5911
 1076TIP3   OH2 3233   2.194   5.380   5.158  0.0490 -0.0784 -0.1476
 1076TIP3    H1 3234   2.271   5.421   5.196  0.0711  0.8065 -1.1158
 1076TIP3    H2 3235   2.210   5.286   5.169  1.2102  0.0909 -0.2182
 1077TIP3   OH2 3236   1.589   4.588   1.228  0.2749 -0.0154  0.0124
 1077TIP3    H1 3237   1.652   4.532   1.273 -1.1263 -2.5530 -0.9632
 1077TIP3    H2 3238   1.561   4.536   1.152 -2.0796  1.4882 -0.2480
 1078TIP3   OH2 3239   5.514   3.424   1.142  0.1899  0.0938  0.5986
 1078TIP3    H1 3240   5.600   3.441   1.181  0.4695  0.7156 -0.2672
 1078TIP3    H2 3241   5.490   3.506   1.100 -0.9341 -0.0124  1.0072
 1079TIP3   OH2 3242   2.959   2.952   0.898 -0.3935 -0.7356 -0.0204
 1079TIP3    H1 3243   2.890   2.957   0.964 -1.0678 -0.6097 -0.7267
 1079TIP3    H2 3244   2.988   2.861   0.900  0.0106 -0.6052  0.8536
 1080TIP3   OH2 3245   2.055   2.609   3.200 -0.8852 -0.0686  0.0077
 1080TIP3    H1 3246   2.123   2.637   3.139 -0.6451  1.4178  0.9150
 1080TIP3    H2 3247   2.058   2.673   3.271 -2.3927 -0.6988  0.6912
 1081TIP3   OH2 3248   2.686   2.510   4.792 -0.0907 -0.1558  0.1838
 1081TIP3    H1 3249   2.640   2.526   4.875  2.8207  2.1677  1.5045
 1081TIP3    H2 3250   2.713   2.418   4.797  1.5486  0.3704  2.7376
 1082TIP3   OH2 3251   0.882   3.255   3.468 -0.2091  0.1014 -0.9445
 1082TIP3    H1 3252   0.848   3.239   3.380 -0.0942 -0.8313 -0.8301
 1082TIP3    H2 3253   0.905   3.168   3.500 -1.5141  0.2570  0.5256
 1083TIP3   OH2 3254   3.129   4.139   1.296 -0.2031 -0.0482 -0.0992
 1083TIP3    H1 3255   3.072   4.147   1.372  1.0016  1.9200  0.6969
 1083TIP3    H2 3256   3.159   4.229   1.280 -0.8223 -0.2922 -3.2510
 1084TIP3   OH2 3257   3.253   5.392   2.222  0.2147 -0.1866 -0.1820
 1084TIP3    H1 3258   3.233   5.484   2.237 -1.9372 -0.4091 -1.2574
 1084TIP3    H2 3259   3.271   5.357   2.309  0.3090  1.0865  0.3292
 1085TIP3   OH2 3260   0.511   1.758   2.295 -0.1571 -0.1652  0.0408
 1085TIP3    H1 3261   0.597   1.763   2.254 -1.0739 -0.6215 -2.1000
 1085TIP3    H2 3262   0.503   1.667   2.324  0.1829 -0.0554  0.4762
 1086TIP3   OH2 3263   5.952   3.774   4.674 -0.3078  0.0271 -0.4637
 1086TIP3    H1 3264   5.927   3.867   4.677 -2.8317 -0.5945 -0.1676
 1086TIP3    H2 3265   5.902   3.738   4.601 -0.2781 -1.3479  0.1660
 1087TIP3   OH2 3266   2.745   5.523   1.618 -0.3340  0.1528  0.3787
 1087TIP3    H1 3267   2.778   5.612   1.604 -1.4076  0.9651  2.5582
 1087TIP3    H2 3268   2.691   5.505   1.541 -0.2226  1.4437 -0.0295
 1088TIP3   OH2 3269   0.528   4.547   4.415  0.1769  0.3771  0.8010
 1088TIP3    H1 3270   0.547   4.507   4.330  0.0641  0.7013  0.6189
 1088TIP3    H2 3271   0.443   4.510   4.441  0.8202 -0.7187  1.3973
 1089TIP3   OH2 3272   0.276   2.421   2.299 -0.4727  0.0416  0.5969
 1089TIP3    H1 3273   0.349   2.406   2.237 -0.1927  1.1850  0.6380
 1089TIP3    H2 3274   0.294   2.360   2.371 -0.3255 -0.6855 -0.0378
 1090TIP3   OH2 3275   1.946   5.488   3.536  0.0287  0.9998  0.1018
 1090TIP3    H1 3276   1.925   5.436   3.458  1.8545  0.6277 -0.1892
 1090TIP3    H2 3277   1.878   5.555   3.538 -2.5670 -1.4158  0.5940
 1091TIP3   OH2 3278   0.983   2.285   1.610 -0.4129  0.0365  0.4469
 1091TIP3    H1 3279   0.954   2.207   1.561  0.2069  0.8904 -1.3634
 1091TIP3    H2 3280   1.032   2.337   1.546 -0.5290  1.7773  1.7016
 1092TIP3   OH2 3281   2.700   1.875   3.487 -0.6977 -0.4142 -0.0030
 1092TIP3    H1 3282   2.630   1.831   3.536 -0.5243 -0.3636  0.2964
 1092TIP3    H2 3283   2.669   1.876   3.397  0.5026 -3.7382 -0.5902
 1093TIP3   OH2 3284   5.366   2.098   0.032 -0.3088  0.4815  0.0272
 1093TIP3    H1 3285   5.346   2.086  -0.061  1.1578  0.0483 -0.2706
 1093TIP3    H2 3286   5.384   2.009   0.064 -1.9864  0.4627  1.0576
 1094TIP3   OH2 3287   6.265   3.529   1.074 -0.1535 -0.2519  0.4892
 1094TIP3    H1 3288   6.253   3.504   1.166 -0.2416 -0.2299  0.4835
 1094TIP3    H2 3289   6.221   3.461   1.024 -0.1947 -0.2096  0.4669
 1095TIP3   OH2 3290   3.589   4.042   3.571 -0.3087 -0.4395 -0.0376
 1095TIP3    H1 3291   3.587   4.103   3.497  2.1517  0.0718  0.2241
 1095TIP3    H2 3292   3.535   4.083   3.638  1.3771  1.5936  0.1736
 1096TIP3   OH2 3293   3.880   1.081   0.738  0.2153 -0.3872 -0.3637
 1096TIP3    H1 3294   3.917   1.165   0.766 -0.8572 -1.0151  3.5500
 1096TIP3    H2 3295   3.823   1.103   0.664  0.1147  2.3070  0.4294
 1097TIP3   OH2 3296   4.066   1.534   5.053 -0.3285 -0.7404  0.0709
 1097TIP3    H1 3297   4.018   1.606   5.095  1.1191  0.1333  0.3057
 1097TIP3    H2 3298   4.079   1.564   4.963 -2.6638 -2.2314 -0.8573
 1098TIP3   OH2 3299   3.318   4.152   0.202 -0.1456  0.8087 -0.1996
 1098TIP3    H1 3300   3.398   4.116   0.240 -0.8998  0.0144  0.7104
 1098TIP3    H2 3301   3.277   4.078   0.158 -1.1558  0.8025  0.7158
 1099TIP3   OH2 3302   6.285   0.554   5.000  0.6357 -0.2629 -0.6395
 1099TIP3    H1 3303   6.246   0.570   5.086  0.8714  0.1596 -0.6090
 1099TIP3    H2 3304   6.276   0.460   4.987  1.2961 -0.4555  0.1926
 1100TIP3   OH2 3305   1.867   2.461   5.183  0.0137 -0.8348  0.0646
 1100TIP3    H1 3306   1.914   2.516   5.121 -0.6012 -1.5459 -1.0690
 1100TIP3    H2 3307   1.795   2.515   5.215  0.8338 -0.1734  0.8490
 1101TIP3   OH2 3308   4.969   4.069   3.771  0.0891 -0.2180 -0.1354
 1101TIP3    H1 3309   4.956   4.142   3.711  0.1245  0.0204  0.1498
 1101TIP3    H2 3310   5.018   4.005   3.719  0.2057  0.0273 -0.3309
 1102TIP3   OH2 3311   2.125   0.150   3.833 -0.1866  0.1390  0.7865
 1102TIP3    H1 3312   2.131   0.198   3.750  1.4153 -0.2437  0.6449
 1102TIP3    H2 3313   2.057   0.084   3.817  0.6586 -0.4632 -0.5228
 1103TIP3   OH2 3314   5.539   1.336   2.994 -0.3463 -0.5227 -0.4912
 1103TIP3    H1 3315   5.545   1.267   3.060 -0.9081  0.5226  0.7041
 1103TIP3    H2 3316   5.444   1.351   2.984 -0.2204  0.3554 -0.4252
 1104TIP3   OH2 3317   5.325   3.659   4.470  0.9167  0.1092 -0.3015
 1104TIP3    H1 3318   5.239   3.679   4.507  0.6265 -1.1186 -0.2718
 1104TIP3    H2 3319   5.323   3.565   4.454  2.2582  0.0639 -0.3181
 1105TIP3   OH2 3320   4.946   5.429   4.016  0.4398 -0.6960 -0.2483
 1105TIP3    H1 3321   5.024   5.401   4.064 -0.6396 -1.8197  0.9479
 1105TIP3    H2 3322   4.971   5.423   3.924  1.7905 -0.9298  0.1147
 1106TIP3   OH2 3323   2.506   2.449   3.944  0.6415 -0.0678  0.2612
 1106TIP3    H1 3324   2.472   2.434   4.032  1.3903 -1.9475  0.2792
 1106TIP3    H2 3325   2.492   2.366   3.898  1.7172  0.3443 -0.8783
 1107TIP3   OH2 3326   3.619   2.369   4.421 -0.0141 -0.2658 -0.0933
 1107TIP3    H1 3327   3.531   2.404   4.435  0.0878  0.1080 -0.3671
 1107TIP3    H2 3328   3.669   2.400   4.496  0.6101  1.9977 -1.3333
 1108TIP3   OH2 3329   1.403   2.029   3.702 -0.5976 -0.4301  0.5661
 1108TIP3    H1 3330   1.482   2.066   3.742  0.7423 -1.1122 -1.3280
 1108TIP3    H2 3331   1.399   1.939   3.736  0.7075 -1.1075 -0.9682
 1109TIP3   OH2 3332   1.159   0.578   3.986  0.4895 -0.8515  0.1190
 1109TIP3    H1 3333   1.201   0.501   4.025  0.8696 -0.3388  0.7298
 1109TIP3    H2 3334   1.142   0.636   4.060  0.6748 -0.1224 -0.4041
 1110TIP3   OH2 3335   0.962   2.172   0.798 -0.2809 -0.3218  0.1351
 1110TIP3    H1 3336   0.908   2.163   0.720  0.1476  2.0428 -0.4964
 1110TIP3    H2 3337   0.971   2.266   0.812  1.0930 -0.6508  2.0448
 1111TIP3   OH2 3338   3.249   4.092   2.585  0.5688 -0.2246 -0.3398
 1111TIP3    H1 3339   3.343   4.090   2.605  0.3225  1.7468  1.3378
 1111TIP3    H2 3340   3.207   4.083   2.671 -0.7681 -0.3300 -0.9921
 1112TIP3   OH2 3341   5.682   1.014   2.355 -0.0457  0.2445 -0.6325
 1112TIP3    H1 3342   5.711   0.999   2.445 -0.7554 -0.8523 -0.5680
 1112TIP3    H2 3343   5.589   1.035   2.364 -0.4410 -1.1942 -1.2004
 1113TIP3   OH2 3344   5.622   5.066   4.997  0.4976 -0.0177 -0.0304
 1113TIP3    H1 3345   5.538   5.058   4.950 -0.2601  0.9627  1.0927
 1113TIP3    H2 3346   5.616   5.150   5.042  1.7834 -0.2917  0.6924
 1114TIP3   OH2 3347   5.992   2.537   4.112  0.4605  0.7428  0.4838
 1114TIP3    H1 3348   5.955   2.480   4.180 -2.3027  0.2293 -1.2990
 1114TIP3    H2 3349   5.927   2.605   4.099  2.6229  3.0512  0.8388
 1115TIP3   OH2 3350   1.368   2.212   1.876 -0.1770 -0.4882  0.4331
 1115TIP3    H1 3351   1.279   2.180   1.882 -0.3389 -0.0865  0.2435
 1115TIP3    H2 3352   1.422   2.141   1.910 -0.6834 -0.0831  2.2062
 1116TIP3   OH2 3353   4.576   1.703   0.658 -0.3551 -0.1744 -0.3525
 1116TIP3    H1 3354   4.666   1.737   0.658 -0.1882 -0.6065 -0.7113
 1116TIP3    H2 3355   4.525   1.771   0.701  0.8373 -1.7867  4.1196
 1117TIP3   OH2 3356   6.275   2.738   1.925 -0.2075  0.1545 -0.2248
 1117TIP3    H1 3357   6.226   2.794   1.865 -0.0365  0.2125 -0.3107
 1117TIP3    H2 3358   6.334   2.688   1.868  1.2256  1.4673  0.0313
 1118TIP3   OH2 3359   1.242   5.491   1.983  0.1891  0.4207 -0.0928
 1118TIP3    H1 3360   1.293   5.412   2.005  1.0694  0.6969 -1.0564
 1118TIP3    H2 3361   1.151   5.463   1.989  0.4877 -0.7406 -0.5980
 1119TIP3   OH2 3362   3.905   0.503   0.323 -0.5247  0.3899  0.1982
 1119TIP3    H1 3363   3.888   0.444   0.250  1.7675  1.7327 -1.5414
 1119TIP3    H2 3364   3.975   0.459   0.372  0.7495  1.3063 -0.7473
 1120TIP3   OH2 3365   3.336   0.999   0.887 -0.0366  0.2364 -0.1077
 1120TIP3    H1 3366   3.340   0.982   0.793 -1.5503  1.0840 -0.3594
 1120TIP3    H2 3367   3.416   1.047   0.906  1.2531 -1.6111 -0.5502
 1121TIP3   OH2 3368   5.312   3.135   3.247  0.3820 -0.7040  0.3834
 1121TIP3    H1 3369   5.320   3.223   3.210  1.2255 -0.1504  1.8166
 1121TIP3    H2 3370   5.291   3.150   3.339 -0.4042 -2.0322  0.4375
 1122TIP3   OH2 3371   0.757   3.289   0.992  0.2178 -0.5511 -0.2200
 1122TIP3    H1 3372   0.739   3.347   1.066  0.0992 -0.4388 -0.3358
 1122TIP3    H2 3373   0.682   3.231   0.988 -0.7444  0.6942 -1.4510
 1123TIP3   OH2 3374   6.172   1.195   0.747 -0.4801 -0.0242 -0.2908
 1123TIP3    H1 3375   6.187   1.250   0.824 -0.3894 -0.2809 -0.1269
 1123TIP3    H2 3376   6.078   1.200   0.732 -0.3274  1.1200 -0.9712
 1124TIP3   OH2 3377   0.342   0.298   2.855  0.1991  0.5356 -0.1189
 1124TIP3    H1 3378   0.281   0.342   2.915  0.3378 -0.4253  0.7431
 1124TIP3    H2 3379   0.429   0.323   2.887  0.3650 -2.0611  1.8074
 1125TIP3   OH2 3380   2.393   0.316   2.532  0.0563 -0.2302  0.4445
 1125TIP3    H1 3381   2.453   0.330   2.606 -1.1240  0.5010  1.3039
 1125TIP3    H2 3382   2.450   0.290   2.460  1.3771  0.1607  1.3046
 1126TIP3   OH2 3383   5.485   0.529   0.482 -0.2384  0.2160  0.6585
 1126TIP3    H1 3384   5.497   0.559   0.392 -1.5897 -1.1936 -0.0283
 1126TIP3    H2 3385   5.513   0.603   0.536  1.3450  0.8076 -0.8888
 1127TIP3   OH2 3386   5.250   4.453   0.989 -0.3642  0.4092 -0.3182
 1127TIP3    H1 3387   5.324   4.400   0.961 -0.0085  0.1597  1.0074
 1127TIP3    H2 3388   5.289   4.521   1.044 -1.1146  0.1796  0.5245
 1128TIP3   OH2 3389   0.889   3.059   5.188  0.0201 -0.2984 -0.1108
 1128TIP3    H1 3390   0.901   3.071   5.093 -0.3928 -2.2077 -0.4485
 1128TIP3    H2 3391   0.972   3.088   5.226 -0.1437  1.4127 -0.9284
 1129TIP3   OH2 3392   3.082   2.016   2.867  0.5946 -0.7554  0.0096
 1129TIP3    H1 3393   3.142   2.073   2.915 -0.3658 -0.4689  0.9358
 1129TIP3    H2 3394   3.022   2.076   2.822  0.8924 -1.0326 -0.7657
 1130TIP3   OH2 3395   5.784   4.088   1.221  0.3774  0.3493 -0.3022
 1130TIP3    H1 3396   5.836   4.039   1.157  1.6538  1.5238 -0.2204
 1130TIP3    H2 3397   5.711   4.030   1.242 -0.0023 -0.1444 -2.6892
 1131TIP3   OH2 3398   3.215   0.562   0.656 -0.5473 -0.2556  0.2826
 1131TIP3    H1 3399   3.309   0.548   0.645 -0.4388 -0.7253  1.6456
 1131TIP3    H2 3400   3.195   0.635   0.598  0.5136 -0.6241 -0.5749
 1132TIP3   OH2 3401   1.644   1.119   4.602  0.2006  0.3379 -0.3196
 1132TIP3    H1 3402   1.557   1.112   4.563 -0.0835 -0.4340  0.4363
 1132TIP3    H2 3403   1.629   1.159   4.687  0.6752  0.8504 -0.4723
 1133TIP3   OH2 3404   4.455   4.864   3.501  0.2783  0.5060 -0.1777
 1133TIP3    H1 3405   4.506   4.846   3.580  0.6403 -1.1577 -0.7463
 1133TIP3    H2 3406   4.518   4.854   3.429 -0.3821  0.4682 -0.7654
 1134TIP3   OH2 3407   4.736   2.151   4.621 -0.0254  0.3120 -0.0746
 1134TIP3    H1 3408   4.667   2.215   4.638 -0.2389 -0.5863  3.2561
 1134TIP3    H2 3409   4.700   2.068   4.653  2.2644 -0.3235  1.1054
 1135TIP3   OH2 3410   4.064   4.725   4.774  0.5062  0.2088  0.3008
 1135TIP3    H1 3411   4.046   4.798   4.714 -0.5964  0.6348  1.1251
 1135TIP3    H2 3412   4.061   4.647   4.718 -0.9846  0.5448 -0.1434
 1136TIP3   OH2 3413   5.500   3.833   1.081  0.0545 -0.5662  0.0582
 1136TIP3    H1 3414   5.487   3.739   1.071 -0.1012 -0.8425  2.3250
 1136TIP3    H2 3415   5.417   3.865   1.118 -0.1052  0.5991 -1.1917
 1137TIP3   OH2 3416   1.226   0.503   0.157 -0.0793  0.3906  0.2321
 1137TIP3    H1 3417   1.189   0.470   0.239 -0.3310  1.5790  0.6092
 1137TIP3    H2 3418   1.154   0.550   0.116 -0.1060 -0.6184 -0.9384
 1138TIP3   OH2 3419   0.761   4.239   3.591  0.1270  0.0988 -0.3045
 1138TIP3    H1 3420   0.827   4.299   3.554 -0.2420 -0.2990 -1.6885
 1138TIP3    H2 3421   0.710   4.211   3.515  1.3613 -3.3186 -0.0293
 1139TIP3   OH2 3422   3.976   4.350   4.992  0.8753 -0.0120  0.6028
 1139TIP3    H1 3423   3.901   4.335   4.935  0.3538 -0.6614  1.4488
 1139TIP3    H2 3424   4.048   4.369   4.931  0.5150 -1.4792 -0.3152
 1140TIP3   OH2 3425   3.750   3.958   3.310 -0.0305  0.3292 -0.3049
 1140TIP3    H1 3426   3.791   3.896   3.371 -1.0595  0.1935  0.2635
 1140TIP3    H2 3427   3.657   3.954   3.331 -0.1260  2.0609 -0.2746
 1141TIP3   OH2 3428   6.058   2.165   1.859  0.0302  0.0272 -0.1172
 1141TIP3    H1 3429   6.141   2.189   1.899 -0.6251 -1.2428  2.2145
 1141TIP3    H2 3430   6.074   2.080   1.819  0.2902  0.6039 -1.2678
 1142TIP3   OH2 3431   2.877   3.659   2.235  0.6168 -0.2796  0.2418
 1142TIP3    H1 3432   2.910   3.588   2.289  0.6013 -0.5748 -0.1326
 1142TIP3    H2 3433   2.870   3.621   2.147 -0.7800 -0.2434  0.3267
 1143TIP3   OH2 3434   0.188   0.457   1.169 -0.2464 -0.3387 -0.3729
 1143TIP3    H1 3435   0.261   0.401   1.142  0.3568 -0.9023  2.1590
 1143TIP3    H2 3436   0.191   0.456   1.265 -2.4439  1.1583 -0.2108
 1144TIP3   OH2 3437   6.181   2.222   0.296 -0.0651 -0.4144  0.6636
 1144TIP3    H1 3438   6.268   2.186   0.286 -0.0200  0.1015 -1.0858
 1144TIP3    H2 3439   6.122   2.154   0.262 -0.1150  0.3351 -0.8120
 1145TIP3   OH2 3440   0.991   2.881   3.928 -0.2704  0.0651  0.3652
 1145TIP3    H1 3441   0.939   2.893   4.008  1.6805 -1.9864  2.0751
 1145TIP3    H2 3442   1.060   2.947   3.935  0.0372 -0.2684  0.5259
 1146TIP3   OH2 3443   4.847   1.733   3.626  0.6330 -0.4185 -0.0607
 1146TIP3    H1 3444   4.891   1.673   3.566 -1.1918 -1.0192 -0.8642
 1146TIP3    H2 3445   4.899   1.813   3.623  1.4548 -0.9705 -1.2414
 1147TIP3   OH2 3446   2.552   5.602   3.893  0.1237 -0.1363 -0.4617
 1147TIP3    H1 3447   2.627   5.542   3.885  0.2016  0.1473 -2.0867
 1147TIP3    H2 3448   2.567   5.647   3.976  1.2565 -0.7595 -0.3018
 1148TIP3   OH2 3449   3.570   5.709   0.213  0.4385  0.1489 -0.5012
 1148TIP3    H1 3450   3.511   5.645   0.172 -0.7146  0.3017  0.8540
 1148TIP3    H2 3451   3.549   5.792   0.170 -0.1345  0.1428 -0.2506
 1149TIP3   OH2 3452   1.543   5.498   4.232  0.0509 -0.1933 -0.7168
 1149TIP3    H1 3453   1.560   5.420   4.179  1.7530  0.3483 -1.0075
 1149TIP3    H2 3454   1.592   5.568   4.190  0.4036  0.5374  0.8278
 1150TIP3   OH2 3455   6.269   5.082   4.706  0.3423 -0.3298  0.0241
 1150TIP3    H1 3456   6.256   5.008   4.764  0.8310 -0.0777  0.4586
 1150TIP3    H2 3457   6.291   5.155   4.764  0.2088  0.0768 -0.4241
 1151TIP3   OH2 3458   0.515   4.761   0.686  0.2694 -0.2873 -0.4120
 1151TIP3    H1 3459   0.587   4.739   0.747 -0.3380 -1.3299 -0.0446
 1151TIP3    H2 3460   0.444   4.702   0.711 -0.2574 -0.2066 -1.6517
 1152TIP3   OH2 3461   4.621   3.885   4.053 -0.4490 -0.0743 -0.3534
 1152TIP3    H1 3462   4.700   3.853   4.096 -0.4577  0.2651 -0.0772
 1152TIP3    H2 3463   4.649   3.906   3.964  0.0046  0.9345  0.0046
 1153TIP3   OH2 3464   1.585   5.482   0.333  0.4206  0.1327  0.3840
 1153TIP3    H1 3465   1.539   5.398   0.335  1.5855 -0.5408 -0.2716
 1153TIP3    H2 3466   1.674   5.460   0.305  0.6793  1.6206 -0.0203
 1154TIP3   OH2 3467   2.737   3.225   1.364  0.4179  0.3757  0.5547
 1154TIP3    H1 3468   2.689   3.144   1.380 -0.6297  1.2577  2.1478
 1154TIP3    H2 3469   2.775   3.213   1.277 -0.3827 -1.4814  0.4057
 1155TIP3   OH2 3470   0.673   3.189   2.749 -0.1917 -0.2166  0.4468
 1155TIP3    H1 3471   0.755   3.160   2.788 -1.5014 -0.5470  3.2651
 1155TIP3    H2 3472   0.698   3.246   2.676  2.4963 -0.2406  1.2741
 1156TIP3   OH2 3473   0.134   1.784   3.463  0.0506 -0.6272 -0.1262
 1156TIP3    H1 3474   0.154   1.712   3.403  1.0641 -0.6920  0.2719
 1156TIP3    H2 3475   0.214   1.796   3.513 -1.0990 -1.3686  2.0325
 1157TIP3   OH2 3476   2.480   3.961   0.045  0.2864 -0.2123 -0.2809
 1157TIP3    H1 3477   2.560   4.012   0.057  0.0523 -0.1682  1.2467
 1157TIP3    H2 3478   2.510   3.871   0.035  0.6991  0.1304 -2.9135
 1158TIP3   OH2 3479   0.453   5.401   0.317 -0.4499 -0.7881 -0.4226
 1158TIP3    H1 3480   0.441   5.387   0.223 -0.3613 -1.6989 -0.2991
 1158TIP3    H2 3481   0.367   5.430   0.348 -0.0149  1.5050 -1.1081
 1159TIP3   OH2 3482   2.193   2.259   3.565 -0.3686  0.6518 -0.4448
 1159TIP3    H1 3483   2.134   2.194   3.527  1.9572 -1.0623 -1.3289
 1159TIP3    H2 3484   2.233   2.302   3.490  3.7620 -2.2916 -0.3100
 1160TIP3   OH2 3485   5.317   0.512   3.979  0.1915  0.0350 -0.0088
 1160TIP3    H1 3486   5.285   0.588   4.027 -2.6487 -1.1625  0.2250
 1160TIP3    H2 3487   5.370   0.464   4.042 -0.3899  0.3798  0.7630
 1161TIP3   OH2 3488   1.749   1.367   3.694  0.3455 -0.2665  0.4032
 1161TIP3    H1 3489   1.803   1.340   3.768 -0.1410  0.1037  0.9004
 1161TIP3    H2 3490   1.677   1.415   3.734 -0.0116 -0.2132 -0.3029
 1162TIP3   OH2 3491   3.521   0.273   2.849  0.3858 -0.1362  0.1117
 1162TIP3    H1 3492   3.614   0.256   2.833  0.0143 -0.0794 -2.5149
 1162TIP3    H2 3493   3.515   0.287   2.944  2.7514 -1.8338  0.5904
 1163TIP3   OH2 3494   2.365   4.754   3.969  0.3358 -0.3422 -0.0543
 1163TIP3    H1 3495   2.298   4.735   3.903 -0.7256 -2.6534  1.5487
 1163TIP3    H2 3496   2.316   4.761   4.051  1.6666  2.0041  0.6181
 1164TIP3   OH2 3497   2.324   4.042   3.024 -0.6189 -0.0120  0.1010
 1164TIP3    H1 3498   2.397   4.060   2.965  0.8031 -0.5308  1.6168
 1164TIP3    H2 3499   2.246   4.048   2.969  0.6258 -0.3761 -1.7889
 1165TIP3   OH2 3500   5.408   3.918   0.477  0.0660  0.0133  0.2164
 1165TIP3    H1 3501   5.333   3.943   0.532  0.5996 -0.9701  1.4477
 1165TIP3    H2 3502   5.409   3.823   0.480  0.0143 -0.0828 -1.7084
 1166TIP3   OH2 3503   5.109   4.147   2.420 -0.1312 -0.3606  0.4868
 1166TIP3    H1 3504   5.025   4.157   2.375 -0.2722  0.8682  0.9817
 1166TIP3    H2 3505   5.084   4.123   2.510  0.0407 -0.0115  0.6290
 1167TIP3   OH2 3506   5.670   3.972   0.364 -0.1505  0.1803  0.1192
 1167TIP3    H1 3507   5.689   4.016   0.447 -0.1337  1.8377 -0.7125
 1167TIP3    H2 3508   5.577   3.950   0.368 -0.0750 -0.0190  0.7076
 1168TIP3   OH2 3509   6.222   4.846   0.195 -0.2450  0.1897  0.1444
 1168TIP3    H1 3510   6.294   4.906   0.177 -1.1486  1.0324 -0.8121
 1168TIP3    H2 3511   6.184   4.878   0.277  0.7968 -0.6119  0.9667
 1169TIP3   OH2 3512   1.439   2.915   3.306 -0.3554  0.4495  0.2927
 1169TIP3    H1 3513   1.376   2.885   3.240 -1.4375  1.0069  1.0499
 1169TIP3    H2 3514   1.511   2.851   3.301 -0.2958  0.6141 -1.5723
 1170TIP3   OH2 3515   1.873   2.823   4.018  0.2943 -0.3974  0.0092
 1170TIP3    H1 3516   1.951   2.776   3.989  0.5376  0.2386 -0.3921
 1170TIP3    H2 3517   1.902   2.913   4.028 -0.2545 -0.2616  0.4172
 1171TIP3   OH2 3518   4.208   4.614   2.529 -0.2281  0.3071  0.5095
 1171TIP3    H1 3519   4.162   4.639   2.448 -0.1478 -1.7891 -0.2481
 1171TIP3    H2 3520   4.149   4.640   2.599 -2.4545 -1.8612 -0.4215
 1172TIP3   OH2 3521   3.283   1.321   1.822  0.6048 -0.4269  0.4869
 1172TIP3    H1 3522   3.370   1.338   1.785  0.1933  0.5881 -0.0741
 1172TIP3    H2 3523   3.226   1.385   1.778  0.0596  0.7799  2.7922
 1173TIP3   OH2 3524   2.345   4.046   4.007 -0.3448  0.1811 -0.4261
 1173TIP3    H1 3525   2.434   4.023   3.980 -1.4628 -1.5356 -3.1672
 1173TIP3    H2 3526   2.293   3.969   3.985 -2.7975  1.7698 -0.6099
 1174TIP3   OH2 3527   4.984   1.319   3.463  0.2644  0.3239 -0.3924
 1174TIP3    H1 3528   4.962   1.299   3.553  1.5217  2.2585  0.4077
 1174TIP3    H2 3529   5.014   1.236   3.426 -1.6731 -0.8259  0.4672
 1175TIP3   OH2 3530   2.272   4.300   0.136 -0.4424  0.5815  0.3949
 1175TIP3    H1 3531   2.329   4.229   0.165 -0.3957 -0.1800 -1.3841
 1175TIP3    H2 3532   2.289   4.372   0.197  1.6864  0.0459  0.5098
 1176TIP3   OH2 3533   3.652   4.079   1.711  0.0294  0.5339 -0.0864
 1176TIP3    H1 3534   3.657   4.174   1.702  2.1396  0.3606 -1.7652
 1176TIP3    H2 3535   3.599   4.064   1.789 -0.5079  3.0683  0.1076
 1177TIP3   OH2 3536   3.064   3.502   0.215  0.3525 -0.8045 -0.0051
 1177TIP3    H1 3537   3.104   3.442   0.278  1.7251 -1.0159 -1.0251
 1177TIP3    H2 3538   3.017   3.445   0.154 -1.9610 -0.5392  1.4038
 1178TIP3   OH2 3539   4.199   4.493   4.498 -0.2641  0.0529  0.3537
 1178TIP3    H1 3540   4.254   4.467   4.424 -1.7752 -0.7586 -0.5415
 1178TIP3    H2 3541   4.163   4.579   4.473  0.1271  0.3216  0.6880
 1179TIP3   OH2 3542   3.637   1.489   2.413  0.0416 -0.0569 -0.2535
 1179TIP3    H1 3543   3.693   1.457   2.483  0.4894 -0.8251 -0.9393
 1179TIP3    H2 3544   3.553   1.446   2.428 -0.1394  0.4987  0.3380
 1180TIP3   OH2 3545   4.451   4.265   3.730  0.3456 -0.1838  0.4010
 1180TIP3    H1 3546   4.478   4.253   3.821  0.2694  0.9933  0.5966
 1180TIP3    H2 3547   4.390   4.339   3.733  0.9367  0.3729 -0.7069
 1181TIP3   OH2 3548   3.531   3.922   0.471 -0.1367  0.4485 -0.1248
 1181TIP3    H1 3549   3.611   3.926   0.418 -1.2608 -0.0596 -1.9099
 1181TIP3    H2 3550   3.496   3.834   0.455 -0.4214  0.1925  1.6558
 1182TIP3   OH2 3551   4.896   2.445   0.483 -0.0991 -0.1119  0.6612
 1182TIP3    H1 3552   4.902   2.444   0.388 -1.3052 -1.2147  0.5580
 1182TIP3    H2 3553   4.878   2.536   0.506 -3.4054 -0.3432 -0.5038
 1183TIP3   OH2 3554   5.044   0.276   2.749  0.1826  0.0787  0.1663
 1183TIP3    H1 3555   5.084   0.268   2.836  1.6859 -1.8348 -0.6132
 1183TIP3    H2 3556   5.065   0.193   2.705 -0.6056  0.9385 -1.9891
 1184TIP3   OH2 3557   3.827   5.483   3.900 -0.0854  0.4482 -1.2502
 1184TIP3    H1 3558   3.856   5.508   3.987 -2.0952 -1.3457  0.0274
 1184TIP3    H2 3559   3.773   5.556   3.870 -1.7197 -0.0801  0.2657
 1185TIP3   OH2 3560   3.391   1.778   1.365 -0.0227 -0.2206  0.5758
 1185TIP3    H1 3561   3.486   1.769   1.370 -0.0929 -0.4293  1.9216
 1185TIP3    H2 3562   3.377   1.862   1.322  0.7663 -0.2115  0.3132
 1186TIP3   OH2 3563   1.789   2.724   3.029  0.1840 -0.4087 -0.6638
 1186TIP3    H1 3564   1.821   2.644   2.987  1.3899  0.3224 -1.2004
 1186TIP3    H2 3565   1.868   2.764   3.065 -0.5968 -0.1402  0.8128
 1187TIP3   OH2 3566   2.957   1.863   4.143 -0.6383  0.5712  0.1924
 1187TIP3    H1 3567   2.883   1.814   4.178  0.0089 -1.3508 -1.0251
 1187TIP3    H2 3568   2.917   1.932   4.090 -1.5418  0.6452  0.9333
 1188TIP3   OH2 3569   1.531   5.793   0.635  0.0480 -0.4714 -0.4841
 1188TIP3    H1 3570   1.512   5.876   0.678 -2.4415 -0.4087 -1.5556
 1188TIP3    H2 3571   1.621   5.803   0.603  0.5353  0.9751  1.1587
 1189TIP3   OH2 3572   0.552   1.265   2.678  0.2314 -0.1673  0.0435
 1189TIP3    H1 3573   0.563   1.227   2.765  1.4310 -0.2016 -0.1081
 1189TIP3    H2 3574   0.459   1.287   2.673  0.2568  0.3719  1.5404
 1190TIP3   OH2 3575   0.478   5.580   2.461 -0.5105 -0.4148  0.9377
 1190TIP3    H1 3576   0.534   5.653   2.487 -0.4197  0.9085 -2.4638
 1190TIP3    H2 3577   0.390   5.618   2.457 -0.5010 -0.4980 -0.6218
 1191TIP3   OH2 3578   5.053   5.445   4.953 -0.3560 -0.7895  0.3441
 1191TIP3    H1 3579   5.109   5.451   4.876  0.1427 -1.6168  0.6329
 1191TIP3    H2 3580   4.985   5.383   4.928 -0.8196 -0.2279  0.1965
 1192TIP3   OH2 3581   5.178   0.426   2.382 -0.4900  0.4492 -0.4008
 1192TIP3    H1 3582   5.212   0.427   2.471 -0.7996  1.0341 -0.2851
 1192TIP3    H2 3583   5.098   0.478   2.386 -1.4672 -0.9773 -0.6393
 1193TIP3   OH2 3584   1.793   1.639   2.243 -0.4867  0.6284 -1.0590
 1193TIP3    H1 3585   1.793   1.550   2.278  1.7909  0.2249 -1.9308
 1193TIP3    H2 3586   1.712   1.645   2.192 -0.7929 -0.8424 -0.7794
 1194TIP3   OH2 3587   2.800   5.351   2.405  0.1167 -0.2811 -0.0749
 1194TIP3    H1 3588   2.814   5.336   2.499  0.6869 -1.9573 -0.3832
 1194TIP3    H2 3589   2.888   5.358   2.369 -0.0515 -1.1286 -0.6788
 1195TIP3   OH2 3590   5.455   0.862   0.427  0.1977  0.1917  0.3653
 1195TIP3    H1 3591   5.391   0.847   0.357  0.0816 -0.2058  0.5557
 1195TIP3    H2 3592   5.404   0.859   0.507  0.3009  0.8403  0.4567
 1196TIP3   OH2 3593   2.307   2.810   1.462 -0.1564  0.1505 -0.7960
 1196TIP3    H1 3594   2.292   2.820   1.368 -1.5472  1.7453 -0.4563
 1196TIP3    H2 3595   2.402   2.811   1.472 -0.0131  1.4308 -2.0648
 1197TIP3   OH2 3596   3.663   4.332   2.067 -0.0154 -0.7499 -0.1313
 1197TIP3    H1 3597   3.593   4.382   2.108  1.1539  1.0656 -0.2409
 1197TIP3    H2 3598   3.729   4.323   2.136 -0.0813 -1.9224 -0.2048
 1198TIP3   OH2 3599   0.073   1.863   2.534 -0.1301  0.0690 -0.3764
 1198TIP3    H1 3600   0.009   1.854   2.462  0.2390  0.0932 -0.7096
 1198TIP3    H2 3601   0.052   1.791   2.594 -2.3044  1.6814  0.9584
 1199TIP3   OH2 3602   0.383   1.888   1.739  0.2790 -0.6357  0.4437
 1199TIP3    H1 3603   0.456   1.935   1.779 -0.2513 -0.3750  1.1198
 1199TIP3    H2 3604   0.308   1.947   1.748 -0.2152 -1.2719  0.5719
 1200TIP3   OH2 3605   2.100   5.049   1.388 -0.4345 -0.0289  0.4432
 1200TIP3    H1 3606   2.151   4.975   1.420 -0.4322 -0.0781  0.3286
 1200TIP3    H2 3607   2.082   5.027   1.296 -1.1812 -0.2908  0.6519
 1201TIP3   OH2 3608   1.136   2.003   1.525  0.0458  0.3710  0.2872
 1201TIP3    H1 3609   1.138   1.922   1.576  0.6316  1.4166  2.0328
 1201TIP3    H2 3610   1.043   2.020   1.513 -0.0860 -0.5569 -0.1188
 1202TIP3   OH2 3611   4.403   2.844   2.726 -0.2569  0.2700 -0.2672
 1202TIP3    H1 3612   4.441   2.817   2.810  0.8835  2.1738 -0.1368
 1202TIP3    H2 3613   4.427   2.773   2.666 -0.3054 -0.6757  0.7796
 1203TIP3   OH2 3614   4.106   4.174   0.482  0.4322  0.9046 -0.7727
 1203TIP3    H1 3615   4.201   4.167   0.478  0.5846  0.8226  1.6621
 1203TIP3    H2 3616   4.089   4.227   0.560 -1.5493 -1.2715  0.3960
 1204TIP3   OH2 3617   2.826   0.542   3.350  0.4496 -0.4690 -0.1356
 1204TIP3    H1 3618   2.796   0.529   3.440  0.9314 -1.0180 -0.0483
 1204TIP3    H2 3619   2.866   0.458   3.326 -1.1508 -0.9114 -1.4438
 1205TIP3   OH2 3620   1.001   0.953   0.913 -0.0512 -0.1715 -0.1307
 1205TIP3    H1 3621   0.919   0.921   0.951 -0.5306  0.1640 -0.8536
 1205TIP3    H2 3622   0.998   0.923   0.822  0.4021  0.2614 -0.2883
 1206TIP3   OH2 3623   4.274   2.265   3.449 -0.2106  0.0668 -0.2389
 1206TIP3    H1 3624   4.324   2.343   3.424  1.0897 -0.9089 -0.7512
 1206TIP3    H2 3625   4.187   2.279   3.411 -0.3401  1.7449  0.5830
 1207TIP3   OH2 3626   2.820   1.239   1.171 -0.0237 -0.3273  0.5660
 1207TIP3    H1 3627   2.905   1.284   1.173 -0.8240  1.2317  0.9305
 1207TIP3    H2 3628   2.799   1.224   1.263 -0.1483 -0.7059  0.4738
 1208TIP3   OH2 3629   1.509   5.401   2.847 -0.2823 -0.3747  0.2506
 1208TIP3    H1 3630   1.475   5.470   2.790 -0.0661 -0.7267 -0.3127
 1208TIP3    H2 3631   1.574   5.356   2.793  0.1647 -0.5023  0.8927
 1209TIP3   OH2 3632   4.471   2.430   1.731 -0.5688  0.5103  0.7610
 1209TIP3    H1 3633   4.412   2.474   1.792 -0.9272 -1.2167  1.7252
 1209TIP3    H2 3634   4.541   2.395   1.786 -1.2568 -1.6717  0.3402
 1210TIP3   OH2 3635   2.989   2.953   3.530  0.1316 -0.4945  0.5090
 1210TIP3    H1 3636   2.990   2.867   3.488 -0.9953 -0.6252  0.7180
 1210TIP3    H2 3637   3.059   2.949   3.595 -0.0165 -1.3042  0.6290
 1211TIP3   OH2 3638   5.782   2.488   3.404 -0.6648  0.2975  0.0821
 1211TIP3    H1 3639   5.774   2.568   3.351 -0.1606  0.2840 -0.0193
 1211TIP3    H2 3640   5.691   2.463   3.423 -0.8249  0.9331  0.1730
 1212TIP3   OH2 3641   4.274   3.882   4.758 -0.4346  0.4380 -0.1440
 1212TIP3    H1 3642   4.261   3.823   4.684 -2.2775  0.6347 -0.0233
 1212TIP3    H2 3643   4.199   3.866   4.815 -0.0842  1.6883  0.7165
 1213TIP3   OH2 3644   1.759   0.196   3.708 -0.0410 -0.1426  0.2971
 1213TIP3    H1 3645   1.762   0.274   3.653 -0.8462 -0.8619 -0.8076
 1213TIP3    H2 3646   1.738   0.229   3.795  2.1237  1.1029  0.4160
 1214TIP3   OH2 3647   2.406   1.820   1.841 -0.2744  0.2773 -0.2074
 1214TIP3    H1 3648   2.430   1.911   1.859  0.5029  0.0071  0.1631
 1214TIP3    H2 3649   2.329   1.805   1.896  1.3779 -0.1773  2.1181
 1215TIP3   OH2 3650   0.056   0.547   2.255 -0.0713  0.6982  0.6658
 1215TIP3    H1 3651   0.058   0.590   2.169 -0.3087  2.7763  1.6535
 1215TIP3    H2 3652  -0.025   0.496   2.255 -0.1729  0.8492 -0.2456
 1216TIP3   OH2 3653   4.092   0.414   2.699  0.7241 -0.3072  0.3312
 1216TIP3    H1 3654   4.089   0.432   2.605  1.5966  1.5674  0.6160
 1216TIP3    H2 3655   4.174   0.367   2.712  1.3211  0.7014  0.3180
 1217TIP3   OH2 3656   5.541   3.167   4.239  0.2600 -0.0612 -0.0151
 1217TIP3    H1 3657   5.533   3.073   4.252 -2.9474  0.0356 -0.4475
 1217TIP3    H2 3658   5.500   3.205   4.317  0.3480  0.9696 -0.4631
 1218TIP3   OH2 3659   1.664   4.161   4.736 -0.1058 -0.0791 -0.2603
 1218TIP3    H1 3660   1.667   4.239   4.682  0.3066  0.1433  0.0817
 1218TIP3    H2 3661   1.755   4.145   4.762  0.1021 -1.7572 -1.8508
 1219TIP3   OH2 3662   1.566   3.435   4.440  0.1600 -0.6031  0.5400
 1219TIP3    H1 3663   1.648   3.481   4.422  0.2651 -0.9913  0.0071
 1219TIP3    H2 3664   1.507   3.504   4.470 -1.1290  0.9258 -4.4190
 1220TIP3   OH2 3665   3.244   3.133   2.498 -1.2024  0.3892  0.0666
 1220TIP3    H1 3666   3.300   3.179   2.560 -0.0257 -0.2934 -0.4531
 1220TIP3    H2 3667   3.237   3.193   2.423  0.8927 -0.4754 -0.9019
 1221TIP3   OH2 3668   4.452   3.487   3.197  0.4599 -0.9393 -0.1841
 1221TIP3    H1 3669   4.366   3.491   3.155  0.0161  1.5538  0.7875
 1221TIP3    H2 3670   4.432   3.482   3.291  1.3064  0.8110  0.1322
 1222TIP3   OH2 3671   0.066   3.360   3.217  0.4707  0.4003 -0.5827
 1222TIP3    H1 3672   0.029   3.274   3.200  2.8807 -0.9129  0.3584
 1222TIP3    H2 3673   0.134   3.345   3.282  1.2372  2.9707 -0.6586
 1223TIP3   OH2 3674   4.083   0.879   0.274  0.1321  0.8395 -0.1406
 1223TIP3    H1 3675   4.032   0.861   0.354 -2.0140  0.0820 -1.5899
 1223TIP3    H2 3676   4.073   0.973   0.261  1.8570  1.2775  1.2966
 1224TIP3   OH2 3677   5.542   3.196   0.977  0.0914 -0.3389 -0.2766
 1224TIP3    H1 3678   5.449   3.176   0.966 -0.0119 -0.8749  1.3037
 1224TIP3    H2 3679   5.544   3.269   1.039  0.6614  1.6163 -2.4411
 1225TIP3   OH2 3680   6.260   3.629   1.948  1.1303 -0.0093  0.0499
 1225TIP3    H1 3681   6.220   3.560   2.000  0.0931  2.3416  2.6024
 1225TIP3    H2 3682   6.188   3.663   1.895  0.9533  0.8551  0.8269
 1226TIP3   OH2 3683   0.608   1.052   1.517  0.2202 -0.0367 -0.1646
 1226TIP3    H1 3684   0.587   0.962   1.491  2.6719 -0.4823 -0.8032
 1226TIP3    H2 3685   0.580   1.105   1.442 -1.0154 -0.2693  0.1142
 1227TIP3   OH2 3686   2.354   2.868   1.152  0.2137  0.4334  0.3346
 1227TIP3    H1 3687   2.274   2.816   1.144 -0.0679  0.8392  0.4723
 1227TIP3    H2 3688   2.403   2.848   1.072 -0.7754  1.4278 -0.5530
 1228TIP3   OH2 3689   3.582   2.230   1.323 -0.1035  0.0477 -0.3939
 1228TIP3    H1 3690   3.564   2.323   1.311  1.9442  0.7171  1.0545
 1228TIP3    H2 3691   3.668   2.217   1.282  0.8914 -0.5293  1.7167
 1229TIP3   OH2 3692   3.364   3.871   3.855 -0.1323  0.4209  0.2360
 1229TIP3    H1 3693   3.399   3.950   3.814  0.7665 -0.3799 -0.5788
 1229TIP3    H2 3694   3.431   3.804   3.840 -1.5225 -0.8873 -0.4453
 1230TIP3   OH2 3695   0.736   2.586   2.143 -0.9009  0.3524 -0.1915
 1230TIP3    H1 3696   0.760   2.588   2.050 -0.4238 -0.5165 -0.0948
 1230TIP3    H2 3697   0.784   2.659   2.182  0.4337 -0.4461 -0.2798
 1231TIP3   OH2 3698   1.956   3.276   3.273  1.1164  0.1837  0.1060
 1231TIP3    H1 3699   1.910   3.349   3.231 -1.5439 -0.2512  2.0090
 1231TIP3    H2 3700   1.995   3.228   3.200 -2.8637 -0.2840 -1.9793
 1232TIP3   OH2 3701   6.328   3.262   2.365 -0.0266  0.5540  0.3622
 1232TIP3    H1 3702   6.280   3.198   2.417  1.2947 -1.0021 -0.2393
 1232TIP3    H2 3703   6.388   3.209   2.311  0.9781  2.2893 -0.3120
 1233TIP3   OH2 3704   0.902   0.932   3.308 -0.1537  0.0659 -0.1445
 1233TIP3    H1 3705   0.987   0.917   3.350 -1.0642 -0.5567  1.5794
 1233TIP3    H2 3706   0.924   0.963   3.220  1.8699  1.2663  0.6966
 1234TIP3   OH2 3707   3.566   0.715   2.857 -0.3858  0.0801  0.0708
 1234TIP3    H1 3708   3.584   0.730   2.950  0.0132 -1.5665  0.3015
 1234TIP3    H2 3709   3.651   0.723   2.815 -0.2101 -1.1514  0.1642
 1235TIP3   OH2 3710   2.844   0.652   1.216  0.1574  0.2831  0.1096
 1235TIP3    H1 3711   2.931   0.617   1.236  2.0403  2.6890 -2.9495
 1235TIP3    H2 3712   2.815   0.601   1.140 -0.8513 -0.1158  0.7572
 1236TIP3   OH2 3713   3.686   3.098   2.336  0.5206 -0.2873 -0.5613
 1236TIP3    H1 3714   3.774   3.129   2.355  0.3480  0.9779 -1.6980
 1236TIP3    H2 3715   3.682   3.091   2.241 -0.4808 -0.7476 -0.5069
 1237TIP3   OH2 3716   4.011   5.895   2.013  0.1667 -0.3502  0.5977
 1237TIP3    H1 3717   3.920   5.880   2.041  1.0221 -1.7876  2.9275
 1237TIP3    H2 3718   4.010   5.878   1.919 -1.8637 -0.9210  0.6673
 1238TIP3   OH2 3719   5.023   1.431   0.511  0.3937  0.2330 -0.2497
 1238TIP3    H1 3720   4.950   1.459   0.454  0.2157 -1.9615 -1.2053
 1238TIP3    H2 3721   5.073   1.370   0.457  1.0074 -0.8891  1.5072
 1239TIP3   OH2 3722   2.915   5.754   2.525  0.0577 -0.6718  0.3766
 1239TIP3    H1 3723   2.928   5.825   2.463  0.3221 -0.4762  0.6505
 1239TIP3    H2 3724   2.820   5.748   2.537  0.0183 -0.5886  0.0963
 1240TIP3   OH2 3725   5.612   2.635   0.514  0.0362 -0.3909 -0.0291
 1240TIP3    H1 3726   5.552   2.561   0.514  0.2035 -0.5564  1.4143
 1240TIP3    H2 3727   5.676   2.614   0.445 -0.2170 -1.3429  0.0127
 1241TIP3   OH2 3728   5.941   0.608   1.173 -0.3711  0.5975  0.4073
 1241TIP3    H1 3729   5.947   0.615   1.269 -0.0532 -0.3206  0.4760
 1241TIP3    H2 3730   5.991   0.682   1.140 -0.8572  1.1721  0.9556
 1242TIP3   OH2 3731   0.677   3.652   3.888 -0.0930  0.3140  0.1956
 1242TIP3    H1 3732   0.611   3.583   3.895 -0.4032  0.4772 -0.9463
 1242TIP3    H2 3733   0.686   3.687   3.977 -0.8685 -0.3287  0.5286
 1243TIP3   OH2 3734   0.527   0.779   1.767 -0.5073  0.5552 -0.1867
 1243TIP3    H1 3735   0.537   0.811   1.677 -1.0674 -0.3500 -0.5932
 1243TIP3    H2 3736   0.616   0.774   1.801 -0.3896  2.3735 -0.1467
 1244TIP3   OH2 3737   4.459   5.961   0.078  0.1017  0.0845  0.0232
 1244TIP3    H1 3738   4.538   6.010   0.056  0.5374  0.0531  1.4032
 1244TIP3    H2 3739   4.456   5.963   0.173 -0.9430 -0.8997  0.0297
 1245TIP3   OH2 3740   1.928   5.443   2.403 -0.5130  0.1830 -0.4469
 1245TIP3    H1 3741   1.923   5.357   2.362  0.3322  0.5211 -1.3206
 1245TIP3    H2 3742   2.022   5.463   2.406 -0.4538 -0.1070  2.3431
 1246TIP3   OH2 3743   0.762   0.237   2.700 -0.1322 -0.6103  0.6241
 1246TIP3    H1 3744   0.750   0.150   2.738  0.5319 -0.7097  0.6176
 1246TIP3    H2 3745   0.728   0.229   2.611 -0.9319 -0.6033  0.9195
 1247TIP3   OH2 3746   2.196   3.284   0.413 -0.4554 -0.1622 -0.0319
 1247TIP3    H1 3747   2.255   3.352   0.446  0.0314 -0.6053  0.0320
 1247TIP3    H2 3748   2.212   3.281   0.319 -1.8417  1.0987 -0.3347
 1248TIP3   OH2 3749   4.165   1.092   2.988 -0.1361  0.2166  0.7109
 1248TIP3    H1 3750   4.127   1.005   2.976 -2.0620  1.0928  0.0192
 1248TIP3    H2 3751   4.242   1.077   3.043 -0.1241 -1.9689  0.1844
 1249TIP3   OH2 3752   5.285   0.659   3.535  0.0073  0.3286  0.4104
 1249TIP3    H1 3753   5.304   0.730   3.596 -0.9904  0.1762  0.9141
 1249TIP3    H2 3754   5.266   0.703   3.452  0.5635  0.5821  0.4143
 1250TIP3   OH2 3755   4.126   2.888   4.684 -0.4056 -0.4487 -0.7954
 1250TIP3    H1 3756   4.183   2.909   4.758  0.2690 -0.3689 -1.3305
 1250TIP3    H2 3757   4.064   2.960   4.679 -1.1429 -0.9807  0.3601
 1251TIP3   OH2 3758   2.510   1.796   2.776 -0.2857  0.3000  0.3189
 1251TIP3    H1 3759   2.594   1.842   2.778 -0.8589  1.3607  1.4824
 1251TIP3    H2 3760   2.445   1.866   2.769 -1.2234 -0.2323  2.7864
 1252TIP3   OH2 3761   0.274   0.795   2.696 -0.2470  0.0223 -0.2148
 1252TIP3    H1 3762   0.350   0.740   2.718 -1.5573 -1.7026  0.2229
 1252TIP3    H2 3763   0.215   0.784   2.771 -1.3761  0.4847 -1.0246
 1253TIP3   OH2 3764   5.725   3.491   2.479 -0.4128  0.1905  0.0985
 1253TIP3    H1 3765   5.755   3.439   2.404 -0.4329 -0.4260  0.5108
 1253TIP3    H2 3766   5.800   3.495   2.537 -0.9205 -0.8635  0.8655
 1254TIP3   OH2 3767   0.207   0.623   2.471  0.1323 -0.5322 -0.3403
 1254TIP3    H1 3768   0.148   0.605   2.397  0.0900 -1.4543 -0.0904
 1254TIP3    H2 3769   0.190   0.552   2.532 -0.7083  0.8550  1.1194
 1255TIP3   OH2 3770   0.024   5.048   0.072  0.5487  0.2091 -0.2360
 1255TIP3    H1 3771   0.023   5.117   0.138  1.6027  0.2319 -0.2253
 1255TIP3    H2 3772   0.114   5.049   0.037 -0.3855  1.3614 -2.8896
 1256TIP3   OH2 3773   5.746   2.456   1.953  0.4518  0.2617 -0.2535
 1256TIP3    H1 3774   5.744   2.531   2.013 -2.7181  0.7346 -0.7298
 1256TIP3    H2 3775   5.814   2.399   1.988  2.3898  2.9053  0.6634
 1257TIP3   OH2 3776   4.301   1.167   3.741  0.1540  0.3056  0.4051
 1257TIP3    H1 3777   4.271   1.178   3.651 -1.0873  1.7482  0.9537
 1257TIP3    H2 3778   4.324   1.256   3.770  2.5411 -0.3864  0.8776
 1258TIP3   OH2 3779   1.943   3.323   0.471  0.4760  0.4502  0.2569
 1258TIP3    H1 3780   2.022   3.270   0.460  0.7116  0.4498  1.7722
 1258TIP3    H2 3781   1.963   3.405   0.425  0.6240 -0.2338 -0.9402
 1259TIP3   OH2 3782   1.568   2.338   4.207 -0.2956  0.6365 -0.2542
 1259TIP3    H1 3783   1.492   2.324   4.264 -0.7225 -0.6308 -1.0998
 1259TIP3    H2 3784   1.638   2.366   4.267 -0.2486 -2.2191  1.2074
 1260TIP3   OH2 3785   3.601   0.423   3.373  0.0614 -0.0383 -0.3557
 1260TIP3    H1 3786   3.566   0.493   3.317  0.6804 -0.3315 -1.1380
 1260TIP3    H2 3787   3.596   0.458   3.461  1.7565  1.6466 -0.8596
 1261TIP3   OH2 3788   3.407   0.901   2.768  0.1740 -0.4482 -0.7496
 1261TIP3    H1 3789   3.391   0.947   2.850 -2.1245  0.2728 -1.5281
 1261TIP3    H2 3790   3.451   0.820   2.794 -2.3077 -1.2400  1.4574
 1262TIP3   OH2 3791   0.503   5.273   2.995 -0.1291  0.0168 -0.1011
 1262TIP3    H1 3792   0.462   5.224   2.923 -1.7391  0.1940  0.6402
 1262TIP3    H2 3793   0.553   5.206   3.043  0.1712 -0.2876 -0.8163
 1263TIP3   OH2 3794   2.492   0.342   1.776 -0.0946  0.4835  0.0800
 1263TIP3    H1 3795   2.429   0.400   1.818  0.4596 -0.1589  1.9218
 1263TIP3    H2 3796   2.439   0.270   1.742 -0.8108  2.0753 -2.4109
 1264TIP3   OH2 3797   4.008   5.416   3.696 -0.3690  0.1252 -0.5544
 1264TIP3    H1 3798   3.950   5.455   3.761 -1.2289 -0.8665 -0.6990
 1264TIP3    H2 3799   3.968   5.331   3.677  1.2079 -0.6576 -0.5310
 1265TIP3   OH2 3800   2.591   3.002   2.918  0.3463 -0.0701 -0.6509
 1265TIP3    H1 3801   2.649   3.064   2.962  2.1703 -0.9750 -1.6566
 1265TIP3    H2 3802   2.621   3.002   2.827  0.5914 -2.5733 -0.6419
 1266TIP3   OH2 3803   0.862   3.201   4.269  0.5085 -0.9294  0.3975
 1266TIP3    H1 3804   0.811   3.260   4.212  1.1307 -0.4016  0.3728
 1266TIP3    H2 3805   0.823   3.213   4.355  0.4711 -0.6660  0.3461
 1267TIP3   OH2 3806   6.183   3.972   2.265  0.2133 -0.2100  0.1129
 1267TIP3    H1 3807   6.166   4.064   2.242  1.6713  0.3807  1.2355
 1267TIP3    H2 3808   6.119   3.922   2.214 -0.7313  1.4384 -0.3826
 1268TIP3   OH2 3809   0.995   0.567   1.748 -0.3004 -0.3118 -0.2170
 1268TIP3    H1 3810   1.055   0.624   1.797  0.2235 -0.3051 -0.8443
 1268TIP3    H2 3811   0.967   0.620   1.673 -0.5616 -0.5498 -0.2910
 1269TIP3   OH2 3812   0.665   4.556   2.377 -0.1725  0.3102 -0.2158
 1269TIP3    H1 3813   0.752   4.532   2.408 -1.0486 -0.5360  1.7619
 1269TIP3    H2 3814   0.605   4.517   2.441 -1.9757  1.6256 -1.0139
 1270TIP3   OH2 3815   1.633   3.457   3.671  0.0062  0.1190 -0.7880
 1270TIP3    H1 3816   1.729   3.458   3.676 -0.0092 -1.2444  2.0382
 1270TIP3    H2 3817   1.606   3.544   3.699  0.4500 -0.3599  1.2725
 1271TIP3   OH2 3818   0.575   2.159   2.269 -0.1564  0.2578  0.6621
 1271TIP3    H1 3819   0.526   2.086   2.231  0.2903  0.3385 -0.1096
 1271TIP3    H2 3820   0.665   2.127   2.276  0.1941  0.9314 -0.3440
 1272TIP3   OH2 3821   1.040   4.461   4.732  0.1956  0.2049  0.5718
 1272TIP3    H1 3822   0.984   4.495   4.662 -2.3949 -0.4444  2.1677
 1272TIP3    H2 3823   1.086   4.387   4.693 -2.5821 -1.3395 -0.0737
 1273TIP3   OH2 3824   2.957   1.930   2.540 -0.0184 -0.6882  0.1331
 1273TIP3    H1 3825   3.018   2.003   2.529  0.2329 -1.0440 -1.0374
 1273TIP3    H2 3826   2.997   1.875   2.606 -0.0100  0.0264  0.7368
 1274TIP3   OH2 3827   5.955   4.373   3.646  1.0475  0.2336 -0.0477
 1274TIP3    H1 3828   5.908   4.418   3.717  1.9995 -0.3475  0.9882
 1274TIP3    H2 3829   5.918   4.410   3.566 -1.6848 -0.6860  0.6711
 1275TIP3   OH2 3830   1.116   0.188   3.374 -0.1396  0.2192 -0.0465
 1275TIP3    H1 3831   1.154   0.111   3.332 -0.0570  0.6361 -0.7457
 1275TIP3    H2 3832   1.090   0.158   3.461 -2.8053 -1.3845 -1.2777
 1276TIP3   OH2 3833   2.530   3.524   2.042 -0.2854  0.2720  0.5403
 1276TIP3    H1 3834   2.503   3.588   1.977  2.0797 -0.0741 -0.9290
 1276TIP3    H2 3835   2.519   3.569   2.126 -1.6245  1.4236 -0.2088
 1277TIP3   OH2 3836   4.513   1.894   3.489  0.0035  0.0303  0.2204
 1277TIP3    H1 3837   4.546   1.819   3.439  0.1986 -1.1090  1.9833
 1277TIP3    H2 3838   4.534   1.970   3.435  2.1571 -0.9595 -0.4504
 1278TIP3   OH2 3839   2.731   5.138   4.849  0.7174  0.4008 -0.0515
 1278TIP3    H1 3840   2.774   5.168   4.770  0.8586  1.0309  0.2578
 1278TIP3    H2 3841   2.688   5.056   4.824  0.2471  0.9036 -0.9416
 1279TIP3   OH2 3842   0.542   5.823   0.796 -0.0609  0.3230  0.5262
 1279TIP3    H1 3843   0.629   5.783   0.801 -0.1165  0.3476  2.2999
 1279TIP3    H2 3844   0.558   5.910   0.759  0.4365 -0.2688 -0.6935
 1280TIP3   OH2 3845   2.364   5.723   4.421  0.4330  0.1429  0.1937
 1280TIP3    H1 3846   2.333   5.805   4.460 -0.9307 -0.2954  0.1132
 1280TIP3    H2 3847   2.322   5.655   4.473  0.4429 -0.4827 -0.5966
 1281TIP3   OH2 3848   5.442   0.394   1.866  0.0659  0.3589  0.2608
 1281TIP3    H1 3849   5.510   0.354   1.811  0.3846  0.5238  0.5288
 1281TIP3    H2 3850   5.401   0.321   1.911  0.4958  0.3114  0.5790
 1282TIP3   OH2 3851   3.039   1.750   0.988 -0.0378 -0.3327 -0.4148
 1282TIP3    H1 3852   3.084   1.679   1.033 -0.8583  0.5057  1.8905
 1282TIP3    H2 3853   2.946   1.735   1.005 -0.1831  2.0109  1.4634
 1283TIP3   OH2 3854   1.503   2.773   3.031 -0.5552  1.0150  0.0973
 1283TIP3    H1 3855   1.526   2.734   3.115 -1.1131  1.7562  0.6077
 1283TIP3    H2 3856   1.575   2.750   2.973 -0.8179 -0.6957  0.3913
 1284TIP3   OH2 3857   1.673   0.257   1.022  0.2457  1.0401  0.0323
 1284TIP3    H1 3858   1.745   0.233   1.080  0.3237 -0.9575 -0.8087
 1284TIP3    H2 3859   1.701   0.340   0.982  1.4201  1.0285  0.7869
 1285TIP3   OH2 3860   4.619   1.898   4.708  0.1562 -0.1132 -0.0081
 1285TIP3    H1 3861   4.635   1.831   4.774  1.2836 -0.1955 -0.3387
 1285TIP3    H2 3862   4.524   1.902   4.700  0.0057 -0.4053  1.3016
 1286TIP3   OH2 3863   4.296   3.400   0.422  0.0664  0.1911 -0.0673
 1286TIP3    H1 3864   4.232   3.395   0.494  0.6141  0.8447  0.4805
 1286TIP3    H2 3865   4.282   3.319   0.372 -1.8534  0.7599 -0.5431
 1287TIP3   OH2 3866   1.931   5.105   4.920  0.2442 -0.7495  0.3839
 1287TIP3    H1 3867   1.846   5.061   4.923 -0.0688 -0.1210  1.0473
 1287TIP3    H2 3868   1.921   5.172   4.852 -0.0816 -0.1058  1.0577
 1288TIP3   OH2 3869   3.790   1.883   1.028 -0.1597  0.2849  0.2980
 1288TIP3    H1 3870   3.844   1.903   0.951  0.0632 -2.2304 -0.2912
 1288TIP3    H2 3871   3.849   1.896   1.102  0.9458 -1.2068 -0.2573
 1289TIP3   OH2 3872   5.567   3.606   3.695  0.0402  0.2727 -0.2700
 1289TIP3    H1 3873   5.627   3.561   3.635  0.8200  2.3099 -1.1067
 1289TIP3    H2 3874   5.512   3.660   3.637 -1.0353  0.2166  0.6680
 1290TIP3   OH2 3875   2.297   4.023   0.795 -0.2335  0.1439  0.6085
 1290TIP3    H1 3876   2.290   4.115   0.822  0.4103  0.8982 -1.5721
 1290TIP3    H2 3877   2.384   3.997   0.822 -0.3937  0.1922  1.1801
 1291TIP3   OH2 3878   1.581   4.000   4.951 -0.2363 -0.7797  0.2378
 1291TIP3    H1 3879   1.607   4.059   4.881 -0.7532  0.2316  0.8850
 1291TIP3    H2 3880   1.576   3.914   4.909 -1.3562 -0.0610 -1.1652
 1292TIP3   OH2 3881   1.104   2.392   2.328 -0.5018 -0.1962 -0.2247
 1292TIP3    H1 3882   1.121   2.410   2.236 -1.3835 -0.2745 -0.4079
 1292TIP3    H2 3883   1.190   2.371   2.365  0.1015  1.3669 -0.6744
 1293TIP3   OH2 3884   4.585   2.639   2.852  0.3433  0.3474 -0.3482
 1293TIP3    H1 3885   4.567   2.548   2.829 -0.1499  0.0669  1.0275
 1293TIP3    H2 3886   4.679   2.649   2.838  0.3877 -0.3519 -0.5780
 1294TIP3   OH2 3887   5.984   2.967   4.508  0.0456  0.2142 -0.0196
 1294TIP3    H1 3888   5.924   2.900   4.540 -1.2491  0.9661 -0.7802
 1294TIP3    H2 3889   5.928   3.033   4.468  1.1391  2.4651  1.8641
 1295TIP3   OH2 3890   5.068   4.483   2.781 -0.1409 -0.1792  0.0666
 1295TIP3    H1 3891   5.042   4.395   2.805 -1.7513  0.5237  1.0776
 1295TIP3    H2 3892   5.097   4.523   2.863  0.6879  0.2170 -0.4014
 1296TIP3   OH2 3893   0.696   2.837   0.970 -0.7519 -0.0508 -0.3282
 1296TIP3    H1 3894   0.693   2.932   0.982 -1.1434 -0.1733  0.6117
 1296TIP3    H2 3895   0.675   2.801   1.056 -0.7388 -0.9919 -0.7053
 1297TIP3   OH2 3896   6.063   1.015   3.238  0.3327 -0.4704  0.5664
 1297TIP3    H1 3897   5.976   0.999   3.201  0.8694 -2.4958  0.0501
 1297TIP3    H2 3898   6.060   1.106   3.269 -1.5831 -0.1396 -0.4488
 1298TIP3   OH2 3899   4.186   2.370   5.019  0.2268  0.5888  0.1851
 1298TIP3    H1 3900   4.217   2.292   4.974 -0.3468  0.2841  0.3033
 1298TIP3    H2 3901   4.257   2.394   5.078  0.5774  0.4071 -0.1627
 1299TIP3   OH2 3902   0.722   0.564   5.126 -0.1065  0.7882  0.2726
 1299TIP3    H1 3903   0.645   0.568   5.069 -0.1502  0.7827  0.3316
 1299TIP3    H2 3904   0.713   0.481   5.173  2.1872 -1.5463 -2.9262
 1300TIP3   OH2 3905   5.749   2.942   2.160  0.1693  0.3079  0.5189
 1300TIP3    H1 3906   5.672   2.961   2.213  0.0207  0.6589  0.1794
 1300TIP3    H2 3907   5.821   2.983   2.207 -0.1916  2.0577 -0.3686
 1301TIP3   OH2 3908   2.160   5.621   2.074 -0.1584  0.1460  0.2383
 1301TIP3    H1 3909   2.131   5.712   2.080 -0.1141  0.2108 -0.4290
 1301TIP3    H2 3910   2.247   5.627   2.034  0.2376 -0.1281  1.0423
 1302TIP3   OH2 3911   2.361   1.127   4.868  0.2261 -0.2002 -0.1900
 1302TIP3    H1 3912   2.442   1.095   4.831  0.4203 -1.0760  0.9311
 1302TIP3    H2 3913   2.298   1.055   4.855  0.1130 -0.2366  0.5030
 1303TIP3   OH2 3914   2.861   4.333   1.252  0.4061  0.0577 -0.1020
 1303TIP3    H1 3915   2.929   4.295   1.308 -0.0404  0.9516  1.0948
 1303TIP3    H2 3916   2.793   4.361   1.313  0.1552  1.5849 -1.0350
 1304TIP3   OH2 3917   0.390   1.077   4.171 -0.1149  0.0237  0.2075
 1304TIP3    H1 3918   0.415   1.168   4.162  0.0564  0.1063  1.3313
 1304TIP3    H2 3919   0.345   1.073   4.256  0.8164 -1.1208  0.6814
 1305TIP3   OH2 3920   0.236   0.601   0.663 -0.0115  0.4008  0.1297
 1305TIP3    H1 3921   0.211   0.634   0.576 -0.4673  2.7246  1.0558
 1305TIP3    H2 3922   0.161   0.549   0.690  0.5893 -1.2926 -1.2698
 1306TIP3   OH2 3923   4.762   5.100   3.622 -0.1232  0.4223  0.3914
 1306TIP3    H1 3924   4.688   5.043   3.642 -0.0398  0.6686  1.4721
 1306TIP3    H2 3925   4.810   5.054   3.554 -1.7061  0.6443 -0.9384
 1307TIP3   OH2 3926   1.153   0.442   3.425  0.1426  0.0847 -0.1918
 1307TIP3    H1 3927   1.129   0.350   3.409  1.4193 -0.2263 -0.4587
 1307TIP3    H2 3928   1.140   0.454   3.519  2.3675 -1.1748  0.3634
 1308TIP3   OH2 3929   4.090   1.187   4.359 -0.4629 -0.3867  0.1340
 1308TIP3    H1 3930   4.182   1.213   4.360 -0.8522  1.5266 -2.4995
 1308TIP3    H2 3931   4.089   1.106   4.307 -0.5203  1.7329 -3.5262
 1309TIP3   OH2 3932   0.036   1.487   0.322  0.2116  0.5066 -0.8360
 1309TIP3    H1 3933  -0.008   1.425   0.380 -0.7271  2.0065  0.1129
 1309TIP3    H2 3934   0.120   1.504   0.365 -0.8118  2.2506  0.6275
 1310TIP3   OH2 3935   5.395   5.326   2.502 -0.0307  0.1976 -0.0260
 1310TIP3    H1 3936   5.391   5.346   2.595  0.1858 -0.1980  0.0677
 1310TIP3    H2 3937   5.329   5.258   2.488  1.0151 -0.8816  0.1353
 1311TIP3   OH2 3938   0.409   1.642   1.909 -0.7012  1.0034 -0.0051
 1311TIP3    H1 3939   0.466   1.711   1.941 -0.4797  0.6228  0.4370
 1311TIP3    H2 3940   0.468   1.573   1.880 -0.9251  0.4703  0.7604
 1312TIP3   OH2 3941   3.382   5.812   4.047  0.5384 -0.7935 -0.2366
 1312TIP3    H1 3942   3.457   5.768   4.086  1.0400  0.7166  0.6006
 1312TIP3    H2 3943   3.373   5.893   4.098 -1.2433 -0.6256 -0.7511
 1313TIP3   OH2 3944   3.652   0.183   3.266 -0.2733 -0.4699  0.1097
 1313TIP3    H1 3945   3.633   0.277   3.255 -0.2196 -0.5629 -0.8873
 1313TIP3    H2 3946   3.601   0.158   3.343 -0.5767  0.3002  0.1760
 1314TIP3   OH2 3947   2.299   3.323   2.039  0.4361 -0.2485  0.1330
 1314TIP3    H1 3948   2.383   3.363   2.061  0.4199 -0.7589  1.1949
 1314TIP3    H2 3949   2.312   3.284   1.953  1.2366 -0.1602  0.2125
 1315TIP3   OH2 3950   1.284   4.763   3.948 -0.5534 -0.1943 -0.3253
 1315TIP3    H1 3951   1.362   4.749   4.001 -1.6739  0.6104  1.6065
 1315TIP3    H2 3952   1.226   4.814   4.003 -2.9123 -1.6939 -1.2939
 1316TIP3   OH2 3953   5.003   4.511   3.081  0.0839 -0.3275  0.1293
 1316TIP3    H1 3954   4.945   4.572   3.035 -0.7335 -1.3204 -0.1979
 1316TIP3    H2 3955   5.055   4.567   3.139 -1.3066  0.5979  0.5451
 1317TIP3   OH2 3956   1.331   1.195   1.833 -0.1727 -0.0930  0.0076
 1317TIP3    H1 3957   1.312   1.195   1.927 -0.7657 -1.5840 -0.0865
 1317TIP3    H2 3958   1.289   1.116   1.800  0.4691  0.1363 -1.4320
 1318TIP3   OH2 3959   1.293   1.655   0.419  0.0791 -0.2848 -0.5790
 1318TIP3    H1 3960   1.246   1.723   0.371 -1.6066 -1.1124 -0.1963
 1318TIP3    H2 3961   1.309   1.693   0.505 -3.1697 -1.1274  0.5501
 1319TIP3   OH2 3962   2.308   1.479   3.901 -0.6048  0.7933 -0.4441
 1319TIP3    H1 3963   2.350   1.465   3.986 -2.9224  0.5682  0.7371
 1319TIP3    H2 3964   2.282   1.571   3.902 -1.8551  0.4593 -0.2804
 1320TIP3   OH2 3965   6.167   0.265   2.108 -0.1169 -0.0818 -0.4659
 1320TIP3    H1 3966   6.158   0.320   2.186  1.2025 -0.9522  0.3451
 1320TIP3    H2 3967   6.108   0.305   2.044  0.1732  1.7813  0.3476
 1321TIP3   OH2 3968   1.104   5.951   1.297  0.5009 -0.0681  0.5075
 1321TIP3    H1 3969   1.046   5.995   1.360 -0.3868  1.2890 -1.1469
 1321TIP3    H2 3970   1.050   5.881   1.261  0.0938  0.7334 -0.5006
 1322TIP3   OH2 3971   0.350   2.822   3.661 -0.0907  0.0548 -0.0882
 1322TIP3    H1 3972   0.358   2.738   3.708 -1.8162 -0.6257 -0.9396
 1322TIP3    H2 3973   0.301   2.878   3.720 -2.4065 -0.8536 -1.0198
 1323TIP3   OH2 3974   1.423   5.664   1.431  0.1613  0.5788  0.2239
 1323TIP3    H1 3975   1.503   5.632   1.474  0.1195 -1.6409 -1.2018
 1323TIP3    H2 3976   1.356   5.660   1.499 -0.2611 -4.2844 -0.1212
 1324TIP3   OH2 3977   3.778   5.711   1.578  0.0899 -0.1032 -0.0693
 1324TIP3    H1 3978   3.772   5.789   1.523  1.3256 -1.1956 -1.8425
 1324TIP3    H2 3979   3.766   5.638   1.518 -0.7987 -1.3116  1.5174
 1325TIP3   OH2 3980   5.465   5.805   2.691 -0.3236  0.1288  0.1603
 1325TIP3    H1 3981   5.512   5.868   2.635  0.4141  1.4074  2.1182
 1325TIP3    H2 3982   5.373   5.831   2.684 -0.0852  1.0976  0.5223
 1326TIP3   OH2 3983   0.307   3.899   2.499  0.2140 -0.1930 -0.0090
 1326TIP3    H1 3984   0.351   3.912   2.583  0.6180  0.2683 -0.2890
 1326TIP3    H2 3985   0.291   3.805   2.495 -1.4999 -0.0243  1.4231
 1327TIP3   OH2 3986   0.643   0.784   2.991  0.4070  0.2220 -0.3714
 1327TIP3    H1 3987   0.588   0.736   2.930  0.2658  2.1035 -1.8186
 1327TIP3    H2 3988   0.583   0.844   3.036  0.9525  0.8967 -0.5233
 1328TIP3   OH2 3989   1.440   0.432   0.417 -0.4173  0.1509 -0.2696
 1328TIP3    H1 3990   1.352   0.395   0.415 -0.1297 -0.6824  0.9624
 1328TIP3    H2 3991   1.428   0.525   0.399 -1.9392  0.6250  2.6389
 1329TIP3   OH2 3992   3.289   4.473   4.910  0.0652 -0.2904 -0.4915
 1329TIP3    H1 3993   3.302   4.548   4.968 -0.1720  0.0751 -0.9032
 1329TIP3    H2 3994   3.229   4.416   4.957  0.7645 -0.5463  0.1117
 1330TIP3   OH2 3995   0.508   2.507   2.528  0.1126 -0.4077 -0.2044
 1330TIP3    H1 3996   0.502   2.460   2.445  0.3126 -0.0848 -0.4037
 1330TIP3    H2 3997   0.547   2.444   2.588  2.0409  0.0484 -0.9117
 1331TIP3   OH2 3998   0.462   4.085   3.866 -0.1405 -0.2020 -0.1118
 1331TIP3    H1 3999   0.545   4.038   3.854  1.1086  2.3100 -2.4102
 1331TIP3    H2 4000   0.436   4.110   3.777 -1.8922  1.4625  0.7931
 1332TIP3   OH2 4001   2.455   0.288   3.012  0.7491  0.8164  0.3669
 1332TIP3    H1 4002   2.516   0.283   3.086 -0.4763  0.7734  1.4044
 1332TIP3    H2 4003   2.480   0.368   2.966  2.1580  0.3318  0.2271
 1333TIP3   OH2 4004   3.200   3.512   0.774 -0.0621 -0.5033  0.2632
 1333TIP3    H1 4005   3.290   3.542   0.773 -0.8069  1.9229 -0.4563
 1333TIP3    H2 4006   3.182   3.489   0.683 -0.5322  0.2616  0.1565
 1334TIP3   OH2 4007   3.724   3.629   2.911  0.3071  0.1009 -0.0994
 1334TIP3    H1 4008   3.722   3.611   2.817  0.7699 -1.7788  0.2263
 1334TIP3    H2 4009   3.767   3.553   2.950 -0.4521  0.5408  1.7113
 1335TIP3   OH2 4010   3.872   4.026   2.418 -0.0416  0.2165  0.1673
 1335TIP3    H1 4011   3.896   4.041   2.509 -0.6026  0.4108  0.2858
 1335TIP3    H2 4012   3.901   3.937   2.400  0.5477  0.3606  0.3764
 1336TIP3   OH2 4013   3.662   4.943   0.724 -0.0501  0.1957 -0.2711
 1336TIP3    H1 4014   3.663   4.997   0.645 -1.3379  0.6156 -0.0159
 1336TIP3    H2 4015   3.712   4.865   0.700  0.8623  0.9783 -1.0110
 1337TIP3   OH2 4016   5.945   5.766   3.847 -0.7170 -0.0179  0.1519
 1337TIP3    H1 4017   5.967   5.690   3.793  0.7144 -0.9344  1.9128
 1337TIP3    H2 4018   5.855   5.752   3.874  0.2546 -2.5541  2.5602
 1338TIP3   OH2 4019   3.812   2.721   2.111 -0.1289  0.3319 -0.4783
 1338TIP3    H1 4020   3.888   2.745   2.058 -1.1461 -0.3462 -2.3519
 1338TIP3    H2 4021   3.753   2.676   2.049 -1.7776  0.2914  1.0411
 1339TIP3   OH2 4022   4.715   3.016   3.862  0.0504 -0.1022 -0.1724
 1339TIP3    H1 4023   4.641   3.020   3.922  0.4944 -0.0121  0.3768
 1339TIP3    H2 4024   4.789   2.989   3.917  0.2098 -1.2741 -0.9235
 1340TIP3   OH2 4025   5.166   3.030   2.885 -0.4982  0.4251  0.0913
 1340TIP3    H1 4026   5.184   2.995   2.797  1.1944  2.6963 -0.5660
 1340TIP3    H2 4027   5.071   3.021   2.895 -0.8497  0.7423 -2.2921
 1341TIP3   OH2 4028   1.846   3.213   2.498 -0.1868 -0.4553 -0.6699
 1341TIP3    H1 4029   1.869   3.178   2.412 -4.2590 -1.7984 -1.4332
 1341TIP3    H2 4030   1.826   3.305   2.481  2.1554  0.1613 -0.4005
 1342TIP3   OH2 4031   1.464   2.713   1.078  0.7169  0.2111  0.2432
 1342TIP3    H1 4032   1.403   2.751   1.015  0.5138  0.2280  0.4499
 1342TIP3    H2 4033   1.469   2.621   1.054  1.0325  0.3157 -0.1140
 1343TIP3   OH2 4034   1.986   5.836   0.690  0.2595 -0.0493  0.4410
 1343TIP3    H1 4035   2.043   5.768   0.655  0.9829 -1.2469  3.6295
 1343TIP3    H2 4036   2.043   5.912   0.703  0.3382 -0.1212  0.5072
 1344TIP3   OH2 4037   0.206   5.065   3.121  0.2551 -0.4435  0.4783
 1344TIP3    H1 4038   0.161   4.982   3.136  0.1349 -0.5907 -0.5673
 1344TIP3    H2 4039   0.145   5.114   3.065  1.4038 -0.6616 -1.0087
 1345TIP3   OH2 4040   0.539   2.244   1.537  0.3931  0.1777  0.5323
 1345TIP3    H1 4041   0.595   2.204   1.470 -0.9710  0.1130 -0.5994
 1345TIP3    H2 4042   0.548   2.338   1.521 -0.6041  0.1465 -0.3535
 1346TIP3   OH2 4043   3.815   5.767   2.383 -0.1172  0.0549 -0.0390
 1346TIP3    H1 4044   3.812   5.857   2.351  0.4570 -0.3479 -1.2672
 1346TIP3    H2 4045   3.909   5.749   2.394 -0.1574 -0.8252 -1.0822
 1347TIP3   OH2 4046   5.158   5.706   0.612  0.0454 -0.9421  0.1085
 1347TIP3    H1 4047   5.218   5.644   0.572  2.0242  1.5834 -1.1353
 1347TIP3    H2 4048   5.213   5.755   0.674 -0.8223  1.0343 -0.6123
 1348TIP3   OH2 4049   1.253   0.504   0.702 -0.1533  0.0454 -0.6711
 1348TIP3    H1 4050   1.237   0.597   0.716 -3.3175 -0.4659 -0.0417
 1348TIP3    H2 4051   1.214   0.486   0.616 -0.8401 -0.8974 -0.1894
 1349TIP3   OH2 4052   1.151   2.790   2.408  0.2832  0.2678 -0.0552
 1349TIP3    H1 4053   1.235   2.827   2.436  1.4123 -2.2613  0.2094
 1349TIP3    H2 4054   1.086   2.840   2.456  1.8190  0.4632  1.9625
 1350TIP3   OH2 4055   4.013   0.507   0.841  0.3287 -0.6180  0.0035
 1350TIP3    H1 4056   3.933   0.536   0.796 -0.4564 -1.8498  0.5537
 1350TIP3    H2 4057   4.050   0.441   0.784  1.7985  0.9705 -0.9625
 1351TIP3   OH2 4058   0.961   4.721   3.282  0.2368 -0.1049 -0.2360
 1351TIP3    H1 4059   0.935   4.753   3.369 -2.6870  0.5614 -1.2396
 1351TIP3    H2 4060   1.007   4.795   3.243  0.1625  0.1753  0.1984
 1352TIP3   OH2 4061   1.597   1.937   3.426 -0.7284  0.0394 -0.5000
 1352TIP3    H1 4062   1.627   1.870   3.364  0.1898  0.6103 -0.6910
 1352TIP3    H2 4063   1.594   1.891   3.510  1.0855  0.0402 -0.4004
 1353TIP3   OH2 4064   2.834   1.811   1.252 -0.0016 -0.0527 -0.0310
 1353TIP3    H1 4065   2.806   1.761   1.175 -0.6723 -1.9919  1.3977
 1353TIP3    H2 4066   2.754   1.851   1.286  0.0382 -0.4096  0.4901
 1354TIP3   OH2 4067   5.425   4.317   0.362 -0.2612 -0.2394  0.4579
 1354TIP3    H1 4068   5.406   4.248   0.426  0.1116  0.3488  1.2233
 1354TIP3    H2 4069   5.349   4.374   0.364 -0.1100 -0.0434  0.6127
 1355TIP3   OH2 4070   2.562   4.654   3.005 -0.2779 -0.6099  0.0157
 1355TIP3    H1 4071   2.543   4.697   2.922 -0.4159  2.0301  1.3187
 1355TIP3    H2 4072   2.652   4.622   2.995 -0.5090 -0.9045 -1.3377
 1356TIP3   OH2 4073   0.072   4.299   2.971  0.5506  0.9918 -0.0241
 1356TIP3    H1 4074   0.063   4.212   3.008  0.4561  1.5294  1.2576
 1356TIP3    H2 4075  -0.016   4.322   2.941  0.8733  0.0340 -1.8723
 1357TIP3   OH2 4076   4.455   2.828   4.448  0.0698 -0.0646  0.1854
 1357TIP3    H1 4077   4.548   2.837   4.429  0.3591 -1.8303  0.5544
 1357TIP3    H2 4078   4.429   2.914   4.482  1.7305  0.2552  0.7542
 1358TIP3   OH2 4079   3.821   5.791   4.014  0.1712  0.5530 -0.3291
 1358TIP3    H1 4080   3.851   5.876   4.046 -2.3328  1.1615  0.6873
 1358TIP3    H2 4081   3.758   5.812   3.946 -1.4217 -0.3620  0.7814
 1359TIP3   OH2 4082   1.533   4.998   4.167 -0.1365 -0.1601 -0.4093
 1359TIP3    H1 4083   1.541   4.906   4.193 -0.2020 -0.4653 -1.4247
 1359TIP3    H2 4084   1.502   4.995   4.077 -1.1947  0.8875 -0.0972
 1360TIP3   OH2 4085   1.288   5.995   3.043 -0.3769 -0.8556  0.0544
 1360TIP3    H1 4086   1.202   5.954   3.036 -1.0991  0.0868  2.3762
 1360TIP3    H2 4087   1.339   5.934   3.097 -0.3016 -0.3941  0.5086
 1361TIP3   OH2 4088   6.126   1.922   3.117 -0.3523 -0.1856 -0.1214
 1361TIP3    H1 4089   6.169   1.852   3.068 -0.3482  0.3472 -0.9072
 1361TIP3    H2 4090   6.174   1.928   3.199 -0.6214 -1.3826  0.1408
 1362TIP3   OH2 4091   6.099   2.913   0.085  0.1262  0.2769  0.4404
 1362TIP3    H1 4092   6.144   2.832   0.060 -3.7150 -1.3938 -2.0913
 1362TIP3    H2 4093   6.065   2.895   0.172  0.4875 -0.2615  0.4820
 1363TIP3   OH2 4094   4.016   2.815   2.816  0.5380  0.3425 -0.3208
 1363TIP3    H1 4095   4.050   2.834   2.903 -0.1233  1.4354 -0.2869
 1363TIP3    H2 4096   4.048   2.887   2.761 -2.2616  1.8542 -0.1343
 1364TIP3   OH2 4097   4.591   5.791   4.023 -0.6998  0.1769 -0.3006
 1364TIP3    H1 4098   4.581   5.752   4.109  2.3011  0.2346  0.1618
 1364TIP3    H2 4099   4.542   5.873   4.028 -2.9167 -1.1126  0.3474
 1365TIP3   OH2 4100   0.998   5.491   2.774 -0.7893 -0.4038  0.2485
 1365TIP3    H1 4101   0.999   5.551   2.848  0.9617  1.8840 -1.4741
 1365TIP3    H2 4102   1.079   5.441   2.783  0.0989  0.8015 -0.7505
 1366TIP3   OH2 4103   3.123   5.040   3.158  0.6609  0.0106 -0.1246
 1366TIP3    H1 4104   3.168   5.085   3.086  0.3741 -0.4140 -0.5748
 1366TIP3    H2 4105   3.157   5.082   3.237 -0.1537  1.5485 -0.5418
 1367TIP3   OH2 4106   1.330   1.764   0.664 -0.3196  0.1775  0.7205
 1367TIP3    H1 4107   1.241   1.798   0.667 -0.0264  1.1482 -0.7717
 1367TIP3    H2 4108   1.369   1.791   0.747 -1.1633  0.4612  1.0311
 1368TIP3   OH2 4109   2.650   5.804   2.563 -0.0823  0.2147  0.7527
 1368TIP3    H1 4110   2.631   5.891   2.600  1.9590  1.8356 -1.6626
 1368TIP3    H2 4111   2.576   5.785   2.506  0.4759  1.5076 -0.4664
 1369TIP3   OH2 4112   0.818   3.867   4.739  0.0656  0.1554 -0.2492
 1369TIP3    H1 4113   0.791   3.957   4.723  1.3520  0.5245 -0.5196
 1369TIP3    H2 4114   0.909   3.864   4.708 -0.4512 -1.6601 -1.7403
 1370TIP3   OH2 4115   6.104   3.034   0.964 -0.0834  0.1640  0.4611
 1370TIP3    H1 4116   6.153   3.085   0.899  0.9235 -0.8623  0.3801
 1370TIP3    H2 4117   6.049   2.976   0.912 -0.1707  0.1811  0.5345
 1371TIP3   OH2 4118   1.202   5.927   4.897 -0.5759  1.0670 -0.4110
 1371TIP3    H1 4119   1.257   5.996   4.860  1.5321  1.8060  3.5004
 1371TIP3    H2 4120   1.130   5.974   4.940 -0.1002  0.7615  0.7723
 1372TIP3   OH2 4121   2.120   3.143   1.322  0.2946 -0.7260  0.2691
 1372TIP3    H1 4122   2.122   3.189   1.239  2.4485 -1.7178 -0.2947
 1372TIP3    H2 4123   2.067   3.066   1.306 -0.6722 -0.0906  0.3206
 1373TIP3   OH2 4124   4.834   5.192   1.416 -0.2883  0.6205 -0.2150
 1373TIP3    H1 4125   4.765   5.126   1.423 -0.2809  0.3783 -1.9156
 1373TIP3    H2 4126   4.908   5.146   1.375  0.0199  1.4595 -0.6476
 1374TIP3   OH2 4127   2.531   1.444   4.660  0.4490 -0.3029 -0.1388
 1374TIP3    H1 4128   2.527   1.535   4.690 -0.3601 -0.1033 -0.8132
 1374TIP3    H2 4129   2.620   1.416   4.682 -0.1608 -0.2730  2.6772
 1375TIP3   OH2 4130   0.877   3.718   5.151  0.1975  0.4287  0.3876
 1375TIP3    H1 4131   0.856   3.632   5.188  0.8286 -0.3359 -0.9490
 1375TIP3    H2 4132   0.813   3.730   5.081  1.8829 -0.3589 -1.4150
 1376TIP3   OH2 4133   5.218   5.473   5.182 -0.4245 -0.0983 -0.0748
 1376TIP3    H1 4134   5.170   5.411   5.238  1.3530 -0.7342  0.8142
 1376TIP3    H2 4135   5.176   5.465   5.097 -0.5194 -2.2562  0.1127
 1377TIP3   OH2 4136   2.932   4.734   2.531 -0.0412 -0.5712  0.5964
 1377TIP3    H1 4137   2.939   4.828   2.513 -2.1604 -0.7158 -1.4497
 1377TIP3    H2 4138   2.927   4.728   2.627  0.8317  1.3215  0.7985
 1378TIP3   OH2 4139   5.250   4.435   5.146 -0.9187  0.0778  0.5422
 1378TIP3    H1 4140   5.318   4.393   5.093  1.2702 -0.3947  3.4408
 1378TIP3    H2 4141   5.239   4.522   5.107  1.1344  0.0394 -0.2526
 1379TIP3   OH2 4142   5.592   0.701   0.661 -0.3513 -0.3555 -0.2364
 1379TIP3    H1 4143   5.618   0.792   0.649  1.1386 -0.8064 -0.6474
 1379TIP3    H2 4144   5.655   0.666   0.723 -0.5771 -1.2434 -0.4972
 1380TIP3   OH2 4145   0.515   5.348   0.581  0.3978 -0.2791  0.0192
 1380TIP3    H1 4146   0.497   5.375   0.491  1.3191  0.5326  0.0585
 1380TIP3    H2 4147   0.442   5.383   0.632  0.1538 -0.2654 -0.3374
 1381TIP3   OH2 4148   3.926   0.452   2.388  0.2175  0.3123 -1.1109
 1381TIP3    H1 4149   3.933   0.532   2.336  0.5842  1.5258  0.6960
 1381TIP3    H2 4150   3.844   0.461   2.436 -0.2100 -0.8620 -1.5857
 1382TIP3   OH2 4151   3.324   5.842   1.243  0.4471 -0.5367  0.2286
 1382TIP3    H1 4152   3.390   5.823   1.176 -0.6353  1.1374 -1.4119
 1382TIP3    H2 4153   3.243   5.805   1.208 -0.5491  2.0767 -0.4123
 1383TIP3   OH2 4154   5.509   5.903   1.485 -0.0717 -0.1046 -0.6641
 1383TIP3    H1 4155   5.591   5.898   1.435 -0.0679 -0.6000 -0.6133
 1383TIP3    H2 4156   5.447   5.944   1.425 -0.1840 -1.0975 -1.2359
 1384TIP3   OH2 4157   3.110   1.129   3.936 -0.5083  0.1802 -0.5540
 1384TIP3    H1 4158   3.065   1.063   3.989 -0.3467 -0.4008 -1.1264
 1384TIP3    H2 4159   3.092   1.212   3.980 -0.4130 -0.2850  0.3899
 1385TIP3   OH2 4160   5.280   1.009   4.301  0.3231 -0.2021 -0.1862
 1385TIP3    H1 4161   5.339   0.954   4.352  1.1704 -0.3020 -1.2343
 1385TIP3    H2 4162   5.338   1.061   4.244 -0.4840  1.3049  0.3009
 1386TIP3   OH2 4163   3.950   1.816   3.439  0.4697  0.2280  0.1576
 1386TIP3    H1 4164   3.967   1.909   3.453 -0.1839  0.3629  0.0661
 1386TIP3    H2 4165   4.034   1.781   3.408  0.1798  1.1940 -1.8247
 1387TIP3   OH2 4166   2.411   3.765   2.794  0.1915 -0.3869 -0.4960
 1387TIP3    H1 4167   2.413   3.829   2.723  1.1702 -0.3534 -0.4554
 1387TIP3    H2 4168   2.318   3.744   2.805 -0.2516  1.5995  0.0073
 1388TIP3   OH2 4169   5.716   4.424   0.737  0.3181 -0.2617  0.0865
 1388TIP3    H1 4170   5.710   4.495   0.801  1.9323  0.9044 -1.0019
 1388TIP3    H2 4171   5.665   4.353   0.777  2.0228  0.0521  3.1574
 1389TIP3   OH2 4172   4.578   2.047   1.317  0.5414  0.3252 -0.4595
 1389TIP3    H1 4173   4.504   2.071   1.262  0.1586  2.4797  0.8604
 1389TIP3    H2 4174   4.656   2.070   1.265  0.1947  2.0180 -0.2898
 1390TIP3   OH2 4175   3.774   3.399   1.074  0.2853  0.2618 -0.4262
 1390TIP3    H1 4176   3.799   3.369   1.162  2.5957 -0.2501 -1.1745
 1390TIP3    H2 4177   3.734   3.485   1.088  1.8316  0.8038  1.0495
 1391TIP3   OH2 4178   0.610   2.961   4.736 -0.2903  0.8375  0.1849
 1391TIP3    H1 4179   0.532   2.921   4.698  0.3324 -0.1839 -0.0908
 1391TIP3    H2 4180   0.679   2.944   4.672  0.4070  0.6437  0.9666
 1392TIP3   OH2 4181   3.429   0.726   0.891 -0.4309 -0.4869  0.0335
 1392TIP3    H1 4182   3.401   0.817   0.908  2.2894  0.4571 -0.1521
 1392TIP3    H2 4183   3.461   0.728   0.801  2.1716 -0.9155  0.8960
 1393TIP3   OH2 4184   6.181   4.419   4.845  0.5501 -0.5270  0.2278
 1393TIP3    H1 4185   6.101   4.456   4.808  1.0483 -0.2585 -0.5960
 1393TIP3    H2 4186   6.229   4.494   4.878  0.8539 -0.5979 -0.0514
 1394TIP3   OH2 4187   4.034   3.911   0.482  0.1126 -0.5733  0.7314
 1394TIP3    H1 4188   4.110   3.853   0.480  0.2844 -0.4416  2.2914
 1394TIP3    H2 4189   4.070   3.999   0.486 -0.1503 -0.3563 -0.9686
 1395TIP3   OH2 4190   2.074   3.286   3.510  0.2274 -0.4299  0.3245
 1395TIP3    H1 4191   2.033   3.281   3.424 -1.0919 -0.2711  0.9146
 1395TIP3    H2 4192   2.151   3.229   3.504  1.1786  0.9394 -1.4806
 1396TIP3   OH2 4193   5.489   5.888   4.054 -0.5954  0.1462 -0.1608
 1396TIP3    H1 4194   5.470   5.932   4.137  0.5730  1.2766 -0.4628
 1396TIP3    H2 4195   5.527   5.956   3.999  2.8717 -1.5524 -0.0936
 1397TIP3   OH2 4196   2.039   5.009   2.070 -0.1498  0.2565  0.2447
 1397TIP3    H1 4197   1.960   5.034   2.022 -0.5040  0.9029  1.1280
 1397TIP3    H2 4198   2.069   4.929   2.027 -0.1179  1.1233 -1.4084
 1398TIP3   OH2 4199   2.135   0.650   1.284  0.5489  0.5511 -0.4922
 1398TIP3    H1 4200   2.143   0.569   1.232  1.7470 -0.4381  1.1382
 1398TIP3    H2 4201   2.181   0.716   1.232 -0.2966  0.1713 -1.7716
 1399TIP3   OH2 4202   0.143   2.795   2.454  0.0075 -0.1548  0.2316
 1399TIP3    H1 4203   0.183   2.749   2.528  1.6602  0.4846 -0.2184
 1399TIP3    H2 4204   0.216   2.839   2.411 -0.6472 -1.6184 -2.6390
 1400TIP3   OH2 4205   0.354   3.937   0.021  0.7489  0.7631 -0.3480
 1400TIP3    H1 4206   0.323   3.880   0.091  0.7903 -0.3917 -1.2476
 1400TIP3    H2 4207   0.277   3.989  -0.003 -0.3139 -1.3041 -1.7966
 1401TIP3   OH2 4208   0.095   3.757   1.093  0.0466  0.5691 -0.2203
 1401TIP3    H1 4209   0.029   3.688   1.079  1.2161 -0.7468  0.5134
 1401TIP3    H2 4210   0.045   3.831   1.127 -0.9765 -0.6343  1.0153
 1402TIP3   OH2 4211   5.411   2.773   2.000  0.0263 -0.8833 -0.3785
 1402TIP3    H1 4212   5.431   2.828   2.075  1.1296 -1.3089 -0.3335
 1402TIP3    H2 4213   5.372   2.694   2.038 -1.1532 -0.3452 -0.4130
 1403TIP3   OH2 4214   5.810   4.253   3.890  0.0655  0.8122 -1.1082
 1403TIP3    H1 4215   5.738   4.209   3.844 -1.8423  2.0269  0.5577
 1403TIP3    H2 4216   5.811   4.341   3.854  0.9280  0.7236 -1.3107
 1404TIP3   OH2 4217   2.968   5.081   3.534 -0.0676 -0.3690  0.2836
 1404TIP3    H1 4218   2.925   5.152   3.487  0.9426 -0.5754 -0.9940
 1404TIP3    H2 4219   3.058   5.112   3.547  0.6978 -1.7911 -1.2393
 1405TIP3   OH2 4220   4.894   5.509   4.301 -0.6424 -0.1520 -0.0318
 1405TIP3    H1 4221   4.900   5.534   4.208 -0.2432 -0.5694 -0.1218
 1405TIP3    H2 4222   4.947   5.430   4.308  0.3381  0.5609  0.8078
 1406TIP3   OH2 4223   1.348   3.990   5.089  0.7784 -0.0831  0.3011
 1406TIP3    H1 4224   1.426   3.988   5.033  0.0223 -1.1091 -0.7796
 1406TIP3    H2 4225   1.288   3.929   5.047 -0.1227 -0.2876  1.8391
 1407TIP3   OH2 4226   1.366   4.427   3.037 -0.7486  0.2988  0.2984
 1407TIP3    H1 4227   1.368   4.521   3.055  1.0677  0.8661 -2.2885
 1407TIP3    H2 4228   1.407   4.388   3.114 -0.4945  1.7379  0.9271
 1408TIP3   OH2 4229   1.242   5.135   2.509 -0.5952  0.2830 -0.6414
 1408TIP3    H1 4230   1.189   5.167   2.582 -0.4107 -0.4945 -0.1519
 1408TIP3    H2 4231   1.214   5.187   2.434 -1.5187  0.3857 -0.2361
 1409TIP3   OH2 4232   3.189   3.869   1.000 -0.3035 -0.4841  0.1852
 1409TIP3    H1 4233   3.097   3.841   1.001 -0.8683  1.2435  0.3097
 1409TIP3    H2 4234   3.217   3.863   1.091  0.0167 -1.8925  0.0130
 1410TIP3   OH2 4235   5.938   3.657   4.393 -0.1986  0.6544 -0.7082
 1410TIP3    H1 4236   5.893   3.582   4.355  0.8293  1.2171 -3.1969
 1410TIP3    H2 4237   5.877   3.730   4.382 -0.4688  0.5513  0.0591
 1411TIP3   OH2 4238   4.875   3.903   2.354  0.0148 -0.2203  0.1310
 1411TIP3    H1 4239   4.968   3.883   2.355  0.3608  1.3107  0.0984
 1411TIP3    H2 4240   4.858   3.948   2.437 -0.3535  0.8750 -0.5141
 1412TIP3   OH2 4241   3.871   2.347   3.056  0.3987 -0.2317 -0.1213
 1412TIP3    H1 4242   3.821   2.355   2.975 -0.1384  0.5295  0.2728
 1412TIP3    H2 4243   3.829   2.276   3.104 -0.1241  0.2075  0.0768
 1413TIP3   OH2 4244   2.449   2.171   0.875  0.3695 -0.2997 -0.4484
 1413TIP3    H1 4245   2.425   2.169   0.967 -0.7923 -1.9072 -0.7363
 1413TIP3    H2 4246   2.457   2.264   0.853 -0.1170  0.1196  1.0691
 1414TIP3   OH2 4247   1.042   5.833   3.134 -0.4099 -0.4900  0.0772
 1414TIP3    H1 4248   1.096   5.758   3.159 -1.1256 -1.6440 -1.6262
 1414TIP3    H2 4249   0.993   5.802   3.058 -1.7131  1.2939  0.1368
 1415TIP3   OH2 4250   4.547   3.236   1.101 -0.9161 -0.0693 -0.3159
 1415TIP3    H1 4251   4.641   3.241   1.120 -1.0920  1.6550  0.2564
 1415TIP3    H2 4252   4.541   3.177   1.026  0.4020 -2.0053  0.9914
 1416TIP3   OH2 4253   3.900   2.053   4.215 -0.9405 -0.2733 -0.5440
 1416TIP3    H1 4254   3.905   2.008   4.131 -2.0487  0.8506 -1.2428
 1416TIP3    H2 4255   3.989   2.087   4.229 -0.9921  0.4656 -1.8154
 1417TIP3   OH2 4256   6.120   3.486   3.366 -0.5084  0.0731  0.0253
 1417TIP3    H1 4257   6.079   3.471   3.281 -0.6046 -1.9703  0.3741
 1417TIP3    H2 4258   6.049   3.475   3.429 -0.6530  2.5051  0.3949
 1418TIP3   OH2 4259   0.295   5.810   0.905 -0.0242 -0.1883  0.7944
 1418TIP3    H1 4260   0.381   5.821   0.865 -0.5152 -1.7016 -0.7896
 1418TIP3    H2 4261   0.307   5.836   0.996  1.9283  0.2952  0.4348
 1419TIP3   OH2 4262   1.341   1.199   0.139  0.7964  0.0893 -0.0751
 1419TIP3    H1 4263   1.367   1.270   0.081  3.0995 -1.4938 -1.1605
 1419TIP3    H2 4264   1.342   1.239   0.227 -2.9369  2.5637 -0.9548
 1420TIP3   OH2 4265   0.107   4.360   4.778  0.6695  0.0013  0.2967
 1420TIP3    H1 4266   0.012   4.369   4.790  0.6674  0.9670 -0.2694
 1420TIP3    H2 4267   0.117   4.280   4.726  0.1840 -0.2724  0.6187
 1421TIP3   OH2 4268   3.493   4.261   4.781 -0.5306 -0.3177 -0.0485
 1421TIP3    H1 4269   3.498   4.183   4.725  0.8222 -0.6134  0.4538
 1421TIP3    H2 4270   3.442   4.232   4.857 -1.5961 -0.1695 -0.6817
 1422TIP3   OH2 4271   1.174   2.916   4.999 -0.7710  0.7624 -0.1949
 1422TIP3    H1 4272   1.109   2.862   4.955 -0.7147  0.3408  0.2302
 1422TIP3    H2 4273   1.241   2.854   5.027 -1.1749  0.9086  1.1433
 1423TIP3   OH2 4274   3.590   0.398   2.352  0.0287  0.0337 -0.4519
 1423TIP3    H1 4275   3.517   0.457   2.330  0.2546  0.0827 -1.0812
 1423TIP3    H2 4276   3.606   0.414   2.445 -1.1136 -0.3640 -0.1710
 1424TIP3   OH2 4277   4.896   5.145   4.638 -0.2319 -0.2576 -0.3311
 1424TIP3    H1 4278   4.865   5.059   4.610  1.7696 -0.6435 -1.5127
 1424TIP3    H2 4279   4.969   5.127   4.697  0.9289  0.5872 -1.4554
 1425TIP3   OH2 4280   6.017   2.851   3.457  0.2742  0.2659  0.6413
 1425TIP3    H1 4281   6.059   2.830   3.540  0.3748 -0.5185  0.4044
 1425TIP3    H2 4282   6.069   2.804   3.391  0.1061  0.7529  0.1505
 1426TIP3   OH2 4283   6.038   2.577   4.603 -0.5489 -0.7263 -0.6133
 1426TIP3    H1 4284   6.113   2.605   4.550  1.1266 -0.4169  1.7455
 1426TIP3    H2 4285   5.976   2.650   4.597  1.4217  1.2491  1.0582
 1427TIP3   OH2 4286   5.351   4.546   1.405 -0.3668 -0.3213  0.4682
 1427TIP3    H1 4287   5.380   4.508   1.322  0.9812 -0.0491  0.7981
 1427TIP3    H2 4288   5.426   4.537   1.463 -2.3312 -3.6269  2.7902
 1428TIP3   OH2 4289   6.350   4.938   0.786  0.2022  0.5857  0.3527
 1428TIP3    H1 4290   6.258   4.962   0.770  1.3699  3.9811 -2.5654
 1428TIP3    H2 4291   6.382   5.004   0.847  0.6334 -0.9504  1.8478
 1429TIP3   OH2 4292   0.807   1.158   3.508  0.1507 -0.2186  0.0545
 1429TIP3    H1 4293   0.747   1.201   3.448 -0.8101 -1.1532  0.3004
 1429TIP3    H2 4294   0.846   1.087   3.457  0.9597  0.3082 -0.0674
 1430TIP3   OH2 4295   2.008   1.099   0.226 -0.6489  0.3542 -0.0890
 1430TIP3    H1 4296   2.006   1.136   0.138  0.8421  3.0236  0.8956
 1430TIP3    H2 4297   1.956   1.019   0.220 -0.8323  0.6084 -3.2954
 1431TIP3   OH2 4298   0.885   0.510   0.960 -0.3145 -0.4029 -1.0217
 1431TIP3    H1 4299   0.906   0.452   1.033 -0.2446  0.6169 -0.2136
 1431TIP3    H2 4300   0.902   0.457   0.882  0.6186 -1.1679 -0.3236
 1432TIP3   OH2 4301   4.109   1.335   2.010  0.1755  0.1364  0.5993
 1432TIP3    H1 4302   4.183   1.279   2.034  0.1572  0.2158  0.8422
 1432TIP3    H2 4303   4.070   1.360   2.094  1.1033  1.7676  0.5933
 1433TIP3   OH2 4304   1.724   3.675   1.908 -0.3085  0.0445 -0.4488
 1433TIP3    H1 4305   1.817   3.650   1.910 -0.3847 -0.2188  1.4461
 1433TIP3    H2 4306   1.682   3.615   1.970 -1.1224  2.5119  1.5218
 1434TIP3   OH2 4307   0.952   3.561   3.788  0.4139 -0.5583  0.5122
 1434TIP3    H1 4308   0.995   3.541   3.706  1.1827 -1.3427  1.0886
 1434TIP3    H2 4309   0.880   3.498   3.794  0.1202 -0.2478  0.2632
 1435TIP3   OH2 4310   0.775   4.189   3.300 -0.4839  0.1994  0.0110
 1435TIP3    H1 4311   0.747   4.147   3.218  1.5893  0.4711 -0.9030
 1435TIP3    H2 4312   0.793   4.280   3.276  0.3998  0.2197  0.6794
 1436TIP3   OH2 4313   5.052   2.995   3.711 -0.0576  0.0252  0.0612
 1436TIP3    H1 4314   5.002   3.022   3.788 -1.4646 -3.0120  0.3416
 1436TIP3    H2 4315   4.987   2.985   3.642  0.8964  0.6958 -0.9654
 1437TIP3   OH2 4316   2.555   0.659   3.315 -0.5563 -0.1557 -1.1444
 1437TIP3    H1 4317   2.650   0.662   3.307 -0.4435  0.1943  0.1134
 1437TIP3    H2 4318   2.537   0.576   3.360 -0.6919  0.6278  0.2961
 1438TIP3   OH2 4319   0.146   3.792   4.519 -0.3671  0.2569  0.2311
 1438TIP3    H1 4320   0.119   3.706   4.489  0.2652  0.3633 -0.6854
 1438TIP3    H2 4321   0.235   3.780   4.552 -1.0759  0.1186  2.2588
 1439TIP3   OH2 4322   1.798   4.126   2.246  0.1302 -0.1265  0.0899
 1439TIP3    H1 4323   1.809   4.033   2.226 -0.0799 -0.0038 -0.6021
 1439TIP3    H2 4324   1.714   4.149   2.207  1.5238  1.0618 -2.3850
 1440TIP3   OH2 4325   5.813   1.837   1.527  0.2291 -0.1431  0.2174
 1440TIP3    H1 4326   5.741   1.847   1.465 -0.2532  0.4985  0.8746
 1440TIP3    H2 4327   5.795   1.900   1.596  0.4668 -1.2356  1.2972
 1441TIP3   OH2 4328   6.029   1.919   3.460 -0.2173  0.3410 -0.0213
 1441TIP3    H1 4329   6.035   1.999   3.512  0.5058  0.3837 -0.1570
 1441TIP3    H2 4330   6.116   1.908   3.422 -0.7967  0.4719 -1.4759
 1442TIP3   OH2 4331   1.985   4.711   0.805  0.4866 -0.1564 -0.0886
 1442TIP3    H1 4332   1.954   4.735   0.892  0.8225  3.1352 -0.7433
 1442TIP3    H2 4333   2.054   4.646   0.821 -0.9474 -1.2836  1.8811
 1443TIP3   OH2 4334   3.835   5.597   4.251 -0.4373 -0.1476 -0.5619
 1443TIP3    H1 4335   3.897   5.650   4.202  0.8821  0.0950  1.2341
 1443TIP3    H2 4336   3.810   5.652   4.326 -2.2953 -0.5166 -0.8573
 1444TIP3   OH2 4337   0.352   1.968   1.147  0.0168  0.3986  0.1321
 1444TIP3    H1 4338   0.385   1.913   1.219 -1.4373 -0.8717 -0.1019
 1444TIP3    H2 4339   0.292   1.910   1.099  0.8217  1.2548 -2.0368
 1445TIP3   OH2 4340   3.191   2.259   3.961  0.3445 -0.3093  0.5188
 1445TIP3    H1 4341   3.123   2.276   3.896 -1.3401 -0.8350  2.0574
 1445TIP3    H2 4342   3.256   2.207   3.914 -0.5733 -0.2553 -0.8787
 1446TIP3   OH2 4343   2.365   5.620   4.952 -0.4803  0.1602 -0.1665
 1446TIP3    H1 4344   2.301   5.550   4.938 -0.0314 -1.1958  3.3969
 1446TIP3    H2 4345   2.450   5.576   4.953  0.2494  1.4365 -1.6431
 1447TIP3   OH2 4346   3.196   2.343   1.387 -0.0938  0.0777  0.1567
 1447TIP3    H1 4347   3.191   2.437   1.371  0.7172  0.1364  0.2054
 1447TIP3    H2 4348   3.164   2.304   1.305  0.3583  0.3947 -0.1778
 1448TIP3   OH2 4349   2.708   4.883   0.636 -0.4193 -0.7754  0.4902
 1448TIP3    H1 4350   2.739   4.935   0.562  0.7941 -2.2997 -0.1387
 1448TIP3    H2 4351   2.766   4.906   0.708  1.4182 -2.6021 -0.3127
 1449TIP3   OH2 4352   5.379   0.594   1.695 -0.6425 -0.3129  0.3455
 1449TIP3    H1 4353   5.416   0.544   1.769  1.8128 -0.6896 -1.0166
 1449TIP3    H2 4354   5.356   0.527   1.630  0.6337  0.1410 -0.6232
 1450TIP3   OH2 4355   3.810   5.613   0.145 -0.2048 -0.3497  0.1021
 1450TIP3    H1 4356   3.726   5.651   0.170 -0.5497 -1.5248  0.8138
 1450TIP3    H2 4357   3.829   5.550   0.214  0.8994 -0.6525 -0.4546
 1451TIP3   OH2 4358   3.206   5.179   3.602 -0.0507 -0.5144 -0.0161
 1451TIP3    H1 4359   3.176   5.262   3.638 -1.2299 -1.6129  1.7366
 1451TIP3    H2 4360   3.254   5.138   3.674 -0.8455 -1.9908 -0.2886
 1452TIP3   OH2 4361   5.117   5.861   3.426 -0.1052  0.3525 -0.3695
 1452TIP3    H1 4362   5.106   5.926   3.496  1.8489 -0.3710  0.6889
 1452TIP3    H2 4363   5.054   5.793   3.446  0.4224  0.1609  0.7210
 1453TIP3   OH2 4364   1.338   4.346   3.563 -0.1275  0.3044  0.0661
 1453TIP3    H1 4365   1.360   4.254   3.549  1.3466  0.4616  1.1175
 1453TIP3    H2 4366   1.251   4.344   3.601 -0.4007 -0.6079 -0.5637
 1454TIP3   OH2 4367   1.489   0.469   1.400 -0.0664  0.1336 -0.5234
 1454TIP3    H1 4368   1.552   0.471   1.327  1.5459  0.6046  0.8295
 1454TIP3    H2 4369   1.536   0.425   1.471 -1.0572  1.0182  0.7227
 1455TIP3   OH2 4370   2.563   1.857   2.191 -0.2583 -0.0116  0.2686
 1455TIP3    H1 4371   2.491   1.796   2.202 -0.0830 -0.2652  0.0200
 1455TIP3    H2 4372   2.590   1.846   2.100  0.1321  0.0393  0.3777
 1456TIP3   OH2 4373   6.077   2.106   3.635  0.0476  0.3659  0.5262
 1456TIP3    H1 4374   6.165   2.128   3.668  0.5202 -1.4425  0.5632
 1456TIP3    H2 4375   6.029   2.188   3.641  1.8176  1.4872  0.2250
 1457TIP3   OH2 4376   4.590   0.719   1.903  0.1423  0.3264 -0.1110
 1457TIP3    H1 4377   4.635   0.686   1.825  2.0450  3.5982 -0.5933
 1457TIP3    H2 4378   4.602   0.650   1.968 -0.0154 -1.7667 -2.1443
 1458TIP3   OH2 4379   5.977   0.173   3.801  0.0202  0.0085  0.2878
 1458TIP3    H1 4380   5.909   0.113   3.831  0.1920  0.1454  0.9642
 1458TIP3    H2 4381   5.989   0.151   3.709  0.4539 -1.3579  0.6403
 1459TIP3   OH2 4382   0.903   4.208   0.896  0.3956 -0.4953 -0.2939
 1459TIP3    H1 4383   0.913   4.129   0.843 -1.1827  0.1637 -1.6439
 1459TIP3    H2 4384   0.846   4.264   0.844  1.7606  1.7052  0.4519
 1460TIP3   OH2 4385   4.521   4.000   2.389  0.2491  0.1119 -0.0835
 1460TIP3    H1 4386   4.441   4.051   2.377  1.8915  2.3661 -2.5375
 1460TIP3    H2 4387   4.584   4.063   2.424  1.4814 -1.1554  0.0485
 1461TIP3   OH2 4388   0.760   1.450   3.851  0.3043  0.2490 -0.4002
 1461TIP3    H1 4389   0.827   1.498   3.802  1.0225  0.6089  0.8936
 1461TIP3    H2 4390   0.808   1.383   3.899 -0.4016 -0.1860 -0.2785
 1462TIP3   OH2 4391   3.990   5.857   1.736 -0.1138 -0.0980 -0.3067
 1462TIP3    H1 4392   3.945   5.941   1.745 -1.9823 -1.1776  1.3395
 1462TIP3    H2 4393   3.932   5.805   1.680 -0.4670 -1.2104  1.0592
 1463TIP3   OH2 4394   5.777   0.721   2.374  0.6220  0.2452  0.9247
 1463TIP3    H1 4395   5.709   0.654   2.368  0.1656  0.7028  0.9938
 1463TIP3    H2 4396   5.735   0.801   2.343  1.3141  0.3981  0.3571
 1464TIP3   OH2 4397   5.716   3.206   0.757  0.5922  0.3114 -0.1034
 1464TIP3    H1 4398   5.667   3.216   0.839 -0.1871 -2.7899 -0.0687
 1464TIP3    H2 4399   5.808   3.213   0.784  0.3308 -0.1944  0.9794
 1465TIP3   OH2 4400   5.625   2.386   4.884  0.3452  0.1974  0.2335
 1465TIP3    H1 4401   5.714   2.415   4.906  0.6132  0.2107 -0.8310
 1465TIP3    H2 4402   5.592   2.346   4.964  1.2606  0.3201  0.6791
 1466TIP3   OH2 4403   5.232   3.386   0.865  0.4587 -0.8081 -0.3058
 1466TIP3    H1 4404   5.219   3.292   0.873 -2.2589 -0.5499 -0.5699
 1466TIP3    H2 4405   5.311   3.395   0.811  1.5753 -2.8535  0.8537
 1467TIP3   OH2 4406   1.715   4.431   4.631  0.1573  0.3469  0.0155
 1467TIP3    H1 4407   1.809   4.447   4.625  0.1089  0.3394 -1.0850
 1467TIP3    H2 4408   1.680   4.504   4.681  0.8185  0.0486  0.9285
 1468TIP3   OH2 4409   3.425   4.570   0.110 -0.4568  0.1231  0.3851
 1468TIP3    H1 4410   3.442   4.485   0.069 -2.8694 -0.9009  1.3641
 1468TIP3    H2 4411   3.428   4.553   0.204 -0.2573  1.3175  0.6206
 1469TIP3   OH2 4412   3.258   5.038   0.458 -0.3477  0.2161 -0.0882
 1469TIP3    H1 4413   3.323   4.975   0.429  0.6542  1.0764  0.2336
 1469TIP3    H2 4414   3.184   4.985   0.488  1.8916 -1.1031  3.8441
 1470TIP3   OH2 4415   2.002   4.452   3.916 -0.1108 -0.1287 -0.2314
 1470TIP3    H1 4416   2.021   4.527   3.860  0.1210 -0.1321 -0.1606
 1470TIP3    H2 4417   2.017   4.376   3.860  1.0312 -0.1626  0.0846
 1471TIP3   OH2 4418   3.776   1.974   4.642  0.0292 -0.2467 -0.4262
 1471TIP3    H1 4419   3.815   1.923   4.712  1.4694  0.9894 -0.2758
 1471TIP3    H2 4420   3.684   1.982   4.666  0.4582 -0.0167  1.2190
 1472TIP3   OH2 4421   5.673   1.257   1.989 -0.1781 -1.0671 -0.3192
 1472TIP3    H1 4422   5.654   1.291   1.902  1.3151 -0.5147 -0.4533
 1472TIP3    H2 4423   5.633   1.321   2.048 -1.2719 -1.4909 -0.5663
 1473TIP3   OH2 4424   2.972   5.556   3.797  0.0762 -0.2899  0.6726
 1473TIP3    H1 4425   3.039   5.495   3.829  0.7762 -1.2702 -2.2935
 1473TIP3    H2 4426   3.022   5.623   3.750 -0.9322 -0.6027 -0.9295
 1474TIP3   OH2 4427   0.180   0.169   3.221 -0.2684 -0.1291 -0.6400
 1474TIP3    H1 4428   0.190   0.205   3.310 -0.7332 -0.2418 -0.5387
 1474TIP3    H2 4429   0.096   0.203   3.191  0.0076  0.1221 -1.1452
 1475TIP3   OH2 4430   3.057   5.544   2.619 -0.4837 -0.4545  0.0887
 1475TIP3    H1 4431   3.007   5.618   2.585  0.3634  1.5451  2.8521
 1475TIP3    H2 4432   3.148   5.565   2.597 -0.3522 -1.4191 -0.3210
 1476TIP3   OH2 4433   3.021   3.284   1.404 -0.6134 -0.2447 -0.2594
 1476TIP3    H1 4434   3.100   3.237   1.431  0.0638  1.4963  0.9639
 1476TIP3    H2 4435   2.949   3.239   1.449 -0.2143 -1.1387 -0.4905
 1477TIP3   OH2 4436   4.338   4.793   2.340 -0.4141  0.0530  0.3551
 1477TIP3    H1 4437   4.430   4.806   2.363 -0.4409 -0.8543  1.0619
 1477TIP3    H2 4438   4.302   4.744   2.414 -1.1949 -0.5551 -0.4042
 1478TIP3   OH2 4439  -0.017   3.226   4.761  0.2129 -0.2670  0.3810
 1478TIP3    H1 4440   0.066   3.230   4.809 -0.0093  0.3017  0.7287
 1478TIP3    H2 4441  -0.035   3.132   4.753  0.7633 -0.3925  0.5153
 1479TIP3   OH2 4442   5.478   2.494   1.467  0.1493  0.3904  0.0918
 1479TIP3    H1 4443   5.440   2.581   1.464  1.0423  0.8324  0.9650
 1479TIP3    H2 4444   5.572   2.509   1.483  1.0669 -0.5751 -3.5412
 1480TIP3   OH2 4445   5.610   5.251   1.449  0.1178  0.1104  0.3608
 1480TIP3    H1 4446   5.578   5.330   1.493 -0.6011  0.9270 -1.5416
 1480TIP3    H2 4447   5.693   5.277   1.410 -0.6907  0.3313 -1.2896
 1481TIP3   OH2 4448   3.834   3.671   4.356  0.3870  0.3941  0.6062
 1481TIP3    H1 4449   3.758   3.613   4.358  0.4898  0.2600  0.6128
 1481TIP3    H2 4450   3.895   3.634   4.420  0.2133  0.8364  1.0334
 1482TIP3   OH2 4451   3.730   0.067   1.151  0.6275  0.1145  0.2831
 1482TIP3    H1 4452   3.685   0.148   1.127  2.4990  1.4143  0.9543
 1482TIP3    H2 4453   3.755   0.028   1.068 -1.9318 -0.8367 -0.1343
 1483TIP3   OH2 4454   2.005   4.351   0.086  0.4172  0.2589 -0.0109
 1483TIP3    H1 4455   2.092   4.315   0.103 -0.5611 -1.2541  2.1192
 1483TIP3    H2 4456   1.976   4.306   0.006  0.5873 -1.1840  0.7124
 1484TIP3   OH2 4457   1.742   4.359   2.529 -0.3471  0.0291  0.1605
 1484TIP3    H1 4458   1.687   4.437   2.542 -0.2943  0.1985 -0.5877
 1484TIP3    H2 4459   1.821   4.377   2.580 -1.4936 -0.8116  2.4207
 1485TIP3   OH2 4460   6.249   4.749   2.139 -0.0669  0.0426 -0.7184
 1485TIP3    H1 4461   6.287   4.668   2.175  0.2526  0.3121 -0.4443
 1485TIP3    H2 4462   6.162   4.754   2.178  0.1939  0.2170 -0.1588
 1486TIP3   OH2 4463   5.512   1.616   2.738 -0.6178 -0.0704  0.3277
 1486TIP3    H1 4464   5.605   1.639   2.743 -0.6342  0.1984 -0.5609
 1486TIP3    H2 4465   5.510   1.536   2.685 -0.8713 -0.2276  0.5727
 1487TIP3   OH2 4466   3.868   0.432   3.255 -0.4695  0.8246 -0.1644
 1487TIP3    H1 4467   3.783   0.417   3.297 -0.2800  0.1260 -0.0185
 1487TIP3    H2 4468   3.915   0.490   3.316  0.2910 -1.1875  1.2627
 1488TIP3   OH2 4469   1.903   1.199   2.038 -0.2472  0.2962 -0.1760
 1488TIP3    H1 4470   1.927   1.217   1.947  2.6226 -1.8460  0.0011
 1488TIP3    H2 4471   1.916   1.283   2.083  0.5921  0.8327 -1.3531
 1489TIP3   OH2 4472   4.139   2.161   4.821  0.1347  0.1665 -0.1081
 1489TIP3    H1 4473   4.105   2.126   4.904  0.3253 -0.9666 -0.4943
 1489TIP3    H2 4474   4.061   2.188   4.773  0.0993  3.2063  1.3963
 1490TIP3   OH2 4475   6.096   2.890   1.730 -0.6105 -0.2986  0.1685
 1490TIP3    H1 4476   6.066   2.858   1.645 -1.9022  0.8983  0.1388
 1490TIP3    H2 4477   6.020   2.880   1.788 -0.6167  1.3525  0.4949
 1491TIP3   OH2 4478   5.240   3.364   4.439 -0.0929 -0.0153 -0.4034
 1491TIP3    H1 4479   5.147   3.344   4.442  0.0437 -0.8252 -1.4209
 1491TIP3    H2 4480   5.265   3.371   4.532 -1.4477  1.6749 -0.1186
 1492TIP3   OH2 4481   1.837   1.355   2.303  0.0033  0.4390 -0.0835
 1492TIP3    H1 4482   1.918   1.331   2.348  0.6112  0.0246 -1.3564
 1492TIP3    H2 4483   1.796   1.272   2.280  0.0789  0.6292 -0.9342
 1493TIP3   OH2 4484   3.624   2.727   2.333 -0.3789  0.6100  0.1695
 1493TIP3    H1 4485   3.539   2.702   2.295  0.1726 -0.1588 -0.5889
 1493TIP3    H2 4486   3.681   2.741   2.258  1.6279 -3.8989  0.5165
 1494TIP3   OH2 4487   1.329   4.440   3.929 -0.3178 -0.0441  0.2068
 1494TIP3    H1 4488   1.400   4.497   3.899 -0.2999 -0.0497  0.2391
 1494TIP3    H2 4489   1.358   4.407   4.014 -0.3752 -0.0172  0.2370
 1495TIP3   OH2 4490   3.492   5.846   2.205 -0.5159  0.5492  0.0805
 1495TIP3    H1 4491   3.414   5.820   2.157  0.7095 -1.4251 -0.9585
 1495TIP3    H2 4492   3.478   5.812   2.294 -0.6759 -0.1312 -0.2021
 1496TIP3   OH2 4493   4.802   3.029   1.111  0.1790  0.3994 -0.0074
 1496TIP3    H1 4494   4.865   3.082   1.062  0.6423  0.2265  0.3889
 1496TIP3    H2 4495   4.829   2.938   1.094  0.1860  0.3311  0.3577
 1497TIP3   OH2 4496   3.654   4.828   0.416  0.4433 -0.1858  0.0983
 1497TIP3    H1 4497   3.677   4.735   0.415 -0.5132 -0.4391  0.6808
 1497TIP3    H2 4498   3.693   4.863   0.336 -0.6954 -1.4671 -1.0537
 1498TIP3   OH2 4499   3.082   1.358   0.907 -0.7105 -0.1908  0.4144
 1498TIP3    H1 4500   3.102   1.311   0.987  0.6753 -2.4913 -1.1670
 1498TIP3    H2 4501   3.156   1.418   0.894 -0.1962 -0.8854  0.1135
 1499TIP3   OH2 4502   4.965   0.590   2.375 -0.2200  0.0259  0.5633
 1499TIP3    H1 4503   4.918   0.543   2.444  1.4375 -2.2096  0.2615
 1499TIP3    H2 4504   4.900   0.649   2.338 -1.8207 -0.4894  2.3899
 1500TIP3   OH2 4505   1.708   2.898   4.282 -0.2199 -0.3023 -0.1040
 1500TIP3    H1 4506   1.637   2.913   4.344  0.3756 -0.3876  0.6075
 1500TIP3    H2 4507   1.779   2.954   4.312 -0.0867  0.0423 -1.0102
 1501TIP3   OH2 4508   0.073   3.915   1.437  0.4200  0.0967 -0.2028
 1501TIP3    H1 4509  -0.005   3.899   1.491 -0.6222  2.3994 -0.9180
 1501TIP3    H2 4510   0.145   3.884   1.491 -0.8521 -0.6035  1.1761
 1502TIP3   OH2 4511   3.478   3.428   2.303  0.6694  0.1950 -0.1774
 1502TIP3    H1 4512   3.484   3.521   2.323 -1.6255  0.0802  1.3923
 1502TIP3    H2 4513   3.534   3.386   2.369  3.1641  0.4669 -1.9848
 1503TIP3   OH2 4514   4.567   2.699   0.481 -0.2203 -0.0490 -0.0098
 1503TIP3    H1 4515   4.656   2.725   0.458  0.0625 -0.8821  0.1028
 1503TIP3    H2 4516   4.572   2.672   0.572  0.0198 -2.6170 -0.7142
 1504TIP3   OH2 4517   1.002   0.989   2.023 -0.1523 -0.0521  0.0039
 1504TIP3    H1 4518   1.037   1.059   2.077  0.3895 -1.1874  1.1696
 1504TIP3    H2 4519   1.063   0.984   1.949 -0.2034  0.6906 -0.0992
 1505TIP3   OH2 4520   6.054   5.063   0.759 -0.0488  0.0368 -0.3955
 1505TIP3    H1 4521   6.054   5.087   0.666 -0.5695 -2.5337 -1.1512
 1505TIP3    H2 4522   5.962   5.052   0.781  0.0713  0.6478  0.4419
 1506TIP3   OH2 4523   5.919   5.225   4.504 -0.0913 -0.1894  0.0535
 1506TIP3    H1 4524   5.952   5.170   4.433  3.2954 -1.5831  2.3839
 1506TIP3    H2 4525   5.991   5.286   4.522 -1.1901  0.7087  1.6519
 1507TIP3   OH2 4526   1.067   0.812   2.300 -0.0775 -0.5787 -0.2044
 1507TIP3    H1 4527   1.121   0.888   2.321 -0.4145 -0.4624  0.2644
 1507TIP3    H2 4528   0.978   0.846   2.292 -0.1984 -0.8886 -0.2007
 1508TIP3   OH2 4529   4.557   5.194   2.221 -0.2634 -0.0269 -0.4868
 1508TIP3    H1 4530   4.493   5.188   2.292 -0.6518 -1.4924 -0.9375
 1508TIP3    H2 4531   4.515   5.152   2.147  1.5175 -1.7634 -0.5808
 1509TIP3   OH2 4532   5.852   3.393   4.336  0.0258  0.7567 -0.2296
 1509TIP3    H1 4533   5.856   3.327   4.267  1.1141  1.3595 -0.7703
 1509TIP3    H2 4534   5.820   3.346   4.412  0.2576 -0.2664 -0.7461
 1510TIP3   OH2 4535   5.633   3.994   0.882 -0.5090 -0.6871  0.2341
 1510TIP3    H1 4536   5.598   4.080   0.905  0.9888 -0.3954  1.6159
 1510TIP3    H2 4537   5.626   3.943   0.963 -0.8115 -1.6794 -0.4002
 1511TIP3   OH2 4538   4.041   4.662   2.306 -0.1395 -0.0888  0.3005
 1511TIP3    H1 4539   4.060   4.716   2.230 -0.4147 -0.1656  0.1758
 1511TIP3    H2 4540   3.951   4.633   2.293  0.2190 -1.1159  0.0385
 1512TIP3   OH2 4541   0.814   2.825   4.525  0.0198  0.1655 -0.6257
 1512TIP3    H1 4542   0.909   2.826   4.525  0.0567 -1.1713  0.6812
 1512TIP3    H2 4543   0.789   2.915   4.503  1.5556  0.4522 -1.2950
 1513TIP3   OH2 4544   0.138   3.770   2.182 -0.2762 -0.2329  0.2778
 1513TIP3    H1 4545   0.201   3.721   2.236 -1.1969 -1.8634 -0.0489
 1513TIP3    H2 4546   0.086   3.820   2.245 -1.9888 -2.8553  1.1295
 1514TIP3   OH2 4547   2.053   2.047   3.427 -0.2835  0.1992  0.0575
 1514TIP3    H1 4548   2.013   2.103   3.360 -1.6521  1.3890  1.7900
 1514TIP3    H2 4549   1.989   1.977   3.441  1.6140 -2.2951 -2.4388
 1515TIP3   OH2 4550   1.737   2.054   1.282  0.1566 -0.0653  0.1254
 1515TIP3    H1 4551   1.691   2.137   1.296 -0.1324 -0.3226  0.7071
 1515TIP3    H2 4552   1.829   2.076   1.296  0.3437  0.6411 -1.8666
 1516TIP3   OH2 4553   1.005   5.027   1.396  0.1170 -0.0200 -0.1557
 1516TIP3    H1 4554   1.063   4.951   1.390 -0.5821 -0.5641 -0.1317
 1516TIP3    H2 4555   0.943   5.004   1.465 -0.4697  0.3191 -0.5613
 1517TIP3   OH2 4556   0.579   3.454   4.862 -0.0426  0.2941  0.0730
 1517TIP3    H1 4557   0.490   3.439   4.831  0.1691  0.6537 -0.7514
 1517TIP3    H2 4558   0.607   3.369   4.897 -0.6902  0.1706  0.2904
 1518TIP3   OH2 4559   0.930   0.392   1.201  0.1149  0.0990 -0.0673
 1518TIP3    H1 4560   1.016   0.410   1.241 -0.4721  0.6931  0.9995
 1518TIP3    H2 4561   0.927   0.297   1.193  0.7473  0.0467  0.1951
 1519TIP3   OH2 4562   0.913   1.230   3.978  0.7401 -0.4879 -0.1086
 1519TIP3    H1 4563   0.938   1.143   4.008  1.4167 -0.4399 -0.4963
 1519TIP3    H2 4564   0.990   1.284   3.995 -0.5754  0.6870  2.6239
 1520TIP3   OH2 4565   1.981   2.504   0.820 -0.1588 -0.3362  0.3983
 1520TIP3    H1 4566   2.016   2.543   0.740 -1.8061  0.7869  0.1541
 1520TIP3    H2 4567   1.907   2.451   0.790 -0.5375 -0.2361  1.1277
 1521TIP3   OH2 4568   1.466   0.974   3.384 -0.5176 -0.1618 -0.4375
 1521TIP3    H1 4569   1.481   0.943   3.473  0.4984  1.1346 -0.1371
 1521TIP3    H2 4570   1.549   0.959   3.339 -0.9589 -0.6164 -1.1234
 1522TIP3   OH2 4571   1.729   5.410   4.769 -0.0690  0.1495  0.1575
 1522TIP3    H1 4572   1.665   5.445   4.707  0.4274 -0.4541 -0.7057
 1522TIP3    H2 4573   1.676   5.367   4.836 -0.6014  0.3742 -0.1153
 1523TIP3   OH2 4574   3.280   3.155   4.658 -0.4036 -0.3691  0.8868
 1523TIP3    H1 4575   3.296   3.249   4.658  1.2376 -0.6040 -0.2068
 1523TIP3    H2 4576   3.337   3.121   4.727  1.8598 -0.9116 -1.1345
 1524TIP3   OH2 4577   1.109   0.125   1.083  0.2295  0.0282  0.0611
 1524TIP3    H1 4578   1.164   0.105   1.159 -0.0388 -2.2996 -0.2732
 1524TIP3    H2 4579   1.164   0.181   1.027  1.3840 -0.3246  0.8106
 1525TIP3   OH2 4580   0.140   3.625   4.254 -0.1989  0.2102 -0.5516
 1525TIP3    H1 4581   0.143   3.548   4.197 -1.1436  0.5245 -1.0479
 1525TIP3    H2 4582   0.198   3.688   4.212 -0.4606  0.2382 -0.8828
 1526TIP3   OH2 4583   1.598   1.188   1.800  0.1622  0.0692  0.0790
 1526TIP3    H1 4584   1.608   1.263   1.741 -0.8818 -1.1196 -1.6927
 1526TIP3    H2 4585   1.508   1.193   1.831  0.4341  0.1663  0.8785
 1527TIP3   OH2 4586   4.777   5.581   2.482  0.3972  0.2243  0.4338
 1527TIP3    H1 4587   4.800   5.524   2.409 -0.1504  0.8340 -0.2372
 1527TIP3    H2 4588   4.682   5.590   2.476  0.5127  1.5345  0.2475
 1528TIP3   OH2 4589   2.490   1.329   4.392  0.0977  0.3977 -0.1646
 1528TIP3    H1 4590   2.583   1.307   4.388 -0.4191 -2.4490  1.1337
 1528TIP3    H2 4591   2.473   1.346   4.485 -0.6795  1.0046 -0.4004
 1529TIP3   OH2 4592   2.667   3.253   4.543  0.8505  0.6946 -0.7288
 1529TIP3    H1 4593   2.712   3.170   4.561 -0.1100 -0.1077 -1.8181
 1529TIP3    H2 4594   2.711   3.288   4.466  1.4371  1.3554 -0.1022
 1530TIP3   OH2 4595   1.640   0.877   2.195 -0.1865  0.0690 -0.8384
 1530TIP3    H1 4596   1.602   0.941   2.135  0.7423 -1.6591 -3.4941
 1530TIP3    H2 4597   1.705   0.926   2.245  0.3834  1.2589 -2.6652
 1531TIP3   OH2 4598   2.592   0.514   2.323  0.0184 -0.0341 -0.6266
 1531TIP3    H1 4599   2.659   0.572   2.286  1.4920 -0.3390  1.3901
 1531TIP3    H2 4600   2.559   0.561   2.399 -0.4510 -0.8645 -0.3056
 1532TIP3   OH2 4601   0.347   0.998   1.767 -0.2483  0.0576 -0.3655
 1532TIP3    H1 4602   0.297   0.996   1.685 -0.6568  2.2543 -0.2093
 1532TIP3    H2 4603   0.403   0.920   1.762 -1.1258 -0.5220 -2.1571
 1533TIP3   OH2 4604   6.334   4.523   2.248 -0.0242  0.0818  0.7516
 1533TIP3    H1 4605   6.299   4.477   2.324  1.3210 -1.6480  0.3967
 1533TIP3    H2 4606   6.292   4.481   2.173  1.1911 -0.5884  0.4199
 1534TIP3   OH2 4607   4.671   3.911   3.799 -0.0626  0.1102 -0.0241
 1534TIP3    H1 4608   4.606   3.853   3.759  1.1740  0.2014 -2.3344
 1534TIP3    H2 4609   4.689   3.978   3.733  1.9225  0.4412  0.7478
 1535TIP3   OH2 4610   1.407   1.887   1.242  0.1845 -0.0305 -0.0100
 1535TIP3    H1 4611   1.379   1.889   1.151 -1.0208  1.9988  0.3324
 1535TIP3    H2 4612   1.359   1.960   1.283  0.6431 -0.9179  2.2503
 1536TIP3   OH2 4613   2.655   1.866   4.534  0.7801 -0.2404 -0.0871
 1536TIP3    H1 4614   2.662   1.852   4.440  0.8753  1.4644 -0.3755
 1536TIP3    H2 4615   2.743   1.890   4.562  0.5022  0.5471  0.1670
 1537TIP3   OH2 4616   4.490   2.271   3.952 -0.1451  0.0772  0.2973
 1537TIP3    H1 4617   4.457   2.230   3.872 -0.0036  0.3284  0.1118
 1537TIP3    H2 4618   4.438   2.351   3.962  1.4078  1.2849 -0.8217
 1538TIP3   OH2 4619   2.410   3.250   3.277 -0.1856  0.7074  0.7988
 1538TIP3    H1 4620   2.504   3.236   3.285 -0.0225  0.6416 -0.8334
 1538TIP3    H2 4621   2.372   3.162   3.285  0.0321  0.5291 -0.0634
 1539TIP3   OH2 4622   6.098   4.323   0.045  0.3866 -0.1642  0.1681
 1539TIP3    H1 4623   6.121   4.375  -0.032  1.0653  0.3327  0.6951
 1539TIP3    H2 4624   6.027   4.267   0.015 -1.2070  1.8654 -0.1348
 1540TIP3   OH2 4625  -0.017   2.645   4.866 -0.5095  1.0204 -0.0832
 1540TIP3    H1 4626  -0.013   2.665   4.772 -1.5155 -0.2610 -0.4390
 1540TIP3    H2 4627   0.074   2.641   4.894  0.0789 -2.3936 -1.9316
 1541TIP3   OH2 4628   6.354   3.619   3.314  0.2169  0.0680  0.0045
 1541TIP3    H1 4629   6.270   3.588   3.347 -0.7710  0.9313 -1.5280
 1541TIP3    H2 4630   6.404   3.539   3.296 -0.8026 -0.5262 -0.2914
 1542TIP3   OH2 4631   4.931   4.624   4.118  0.1129 -0.0592 -0.3796
 1542TIP3    H1 4632   4.955   4.659   4.204 -2.4556 -1.5631  1.0753
 1542TIP3    H2 4633   4.950   4.530   4.124  0.5209 -0.0809 -1.7195
 1543TIP3   OH2 4634   1.541   0.988   1.118  0.0313  0.4387 -0.1750
 1543TIP3    H1 4635   1.475   0.950   1.176  1.3144 -1.0073  0.4076
 1543TIP3    H2 4636   1.582   1.057   1.171 -0.4896  0.8219 -0.2664
 1544TIP3   OH2 4637   3.334   3.150   1.313  0.2107  0.1051  0.2209
 1544TIP3    H1 4638   3.372   3.205   1.245  2.4308 -3.0958 -1.3473
 1544TIP3    H2 4639   3.298   3.075   1.267  0.5302 -1.5378  2.4600
 1545TIP3   OH2 4640   5.098   4.920   4.098  0.0536 -0.3819  0.9427
 1545TIP3    H1 4641   5.138   4.987   4.042  1.0247 -2.0471 -0.4260
 1545TIP3    H2 4642   5.004   4.932   4.086  0.1857  0.9260  0.9969
 1546TIP3   OH2 4643   5.194   4.889   3.762  0.3259 -0.1868 -0.0374
 1546TIP3    H1 4644   5.138   4.964   3.780  0.3020  0.0817 -1.1541
 1546TIP3    H2 4645   5.171   4.824   3.829 -0.4578  0.3723  0.2413
 1547TIP3   OH2 4646   4.620   1.180   1.006 -0.0872 -0.0288  0.1208
 1547TIP3    H1 4647   4.680   1.127   0.954  0.4005  0.2264  0.4198
 1547TIP3    H2 4648   4.627   1.146   1.095  1.0838  1.2449  0.5495
 1548TIP3   OH2 4649   4.942   2.129   4.791  0.3767 -1.0214 -0.9952
 1548TIP3    H1 4650   4.880   2.120   4.719  2.4720  1.1170 -3.2286
 1548TIP3    H2 4651   4.920   2.214   4.831  2.0934  0.0488 -2.1854
 1549TIP3   OH2 4652   3.959   2.921   0.477  0.0715  0.0953  0.1019
 1549TIP3    H1 4653   4.053   2.919   0.499  0.1860 -0.0100 -0.3866
 1549TIP3    H2 4654   3.927   2.835   0.504  0.1820  0.0142 -0.0276
 1550TIP3   OH2 4655   2.415   5.025   2.033  0.7342  0.3543  0.0737
 1550TIP3    H1 4656   2.438   5.095   2.093 -2.7112  0.0146  2.0584
 1550TIP3    H2 4657   2.380   4.956   2.088  0.2311 -1.2604 -2.1206
 1551TIP3   OH2 4658   3.991   2.084   3.507  0.4007 -0.1960 -0.0942
 1551TIP3    H1 4659   3.987   2.140   3.584  1.1306 -0.0609 -0.1489
 1551TIP3    H2 4660   4.030   2.139   3.439 -0.7859 -0.1147 -0.7435
 1552TIP3   OH2 4661   6.036   5.957   3.434 -0.1712 -0.1218 -0.2950
 1552TIP3    H1 4662   6.034   6.052   3.449 -0.3599 -0.3036  1.0046
 1552TIP3    H2 4663   5.951   5.938   3.395 -1.7886 -0.2139  2.9495
 1553TIP3   OH2 4664   4.729   4.398   1.573 -0.0207 -0.0750  0.0936
 1553TIP3    H1 4665   4.660   4.463   1.559 -0.5732 -0.6984 -0.1801
 1553TIP3    H2 4666   4.719   4.337   1.500  2.2911  1.0314 -1.2680
 1554TIP3   OH2 4667   2.405   5.640   1.774 -0.1556  0.2946 -0.1124
 1554TIP3    H1 4668   2.360   5.603   1.698 -0.4914  0.7073 -0.1164
 1554TIP3    H2 4669   2.392   5.735   1.766  0.5674  0.4077 -0.0249
 1555TIP3   OH2 4670   3.442   0.363   1.240  0.1739 -0.9422  0.4518
 1555TIP3    H1 4671   3.376   0.351   1.308 -0.3893 -0.4870 -0.0048
 1555TIP3    H2 4672   3.469   0.454   1.248 -1.8134 -0.0714 -1.5849
 1556TIP3   OH2 4673   2.083   3.572   1.287  0.2393 -0.0873 -0.9010
 1556TIP3    H1 4674   2.170   3.556   1.251  0.9186 -0.5134  0.8089
 1556TIP3    H2 4675   2.024   3.523   1.231  1.2594 -0.8760 -1.3113
 1557TIP3   OH2 4676   3.900   1.814   2.687  0.1467  0.0140 -0.7257
 1557TIP3    H1 4677   3.980   1.761   2.684 -0.3390 -0.6947 -2.0607
 1557TIP3    H2 4678   3.881   1.823   2.781  0.4548 -1.8511 -0.4514
 1558TIP3   OH2 4679   5.241   0.931   0.608 -0.3482 -0.2175  0.2079
 1558TIP3    H1 4680   5.273   0.933   0.698  0.0880  1.0588  0.0499
 1558TIP3    H2 4681   5.160   0.981   0.610 -0.6269 -0.6550 -0.0123
 1559TIP3   OH2 4682   5.894   0.786   4.986 -0.2110 -0.2808  0.2201
 1559TIP3    H1 4683   5.873   0.705   5.032 -5.3229  0.5247 -0.1208
 1559TIP3    H2 4684   5.880   0.766   4.894 -0.1658  0.6387  0.0055
 1560TIP3   OH2 4685   4.542   3.319   2.124 -0.1986 -0.0235  0.5718
 1560TIP3    H1 4686   4.580   3.234   2.100  2.1154  0.7101  1.3365
 1560TIP3    H2 4687   4.520   3.309   2.217  0.9002  0.4425  0.9005
 1561TIP3   OH2 4688   0.518   3.934   1.129  0.0386 -0.7526  0.2368
 1561TIP3    H1 4689   0.432   3.970   1.153  0.7427  1.8056 -0.7071
 1561TIP3    H2 4690   0.580   3.983   1.185  1.2883  1.8078 -3.0414
 1562TIP3   OH2 4691   1.710   1.174   3.330  0.6888  0.0731  0.3307
 1562TIP3    H1 4692   1.652   1.250   3.339  0.5915 -0.1227  1.6135
 1562TIP3    H2 4693   1.748   1.162   3.418 -0.5367 -2.3322  0.6219
 1563TIP3   OH2 4694   1.931   4.622   1.990 -0.6199  0.2560  0.2158
 1563TIP3    H1 4695   1.944   4.529   2.009  0.7041 -0.0590 -1.9155
 1563TIP3    H2 4696   2.015   4.663   2.013 -0.3368  0.4821 -1.1341
 1564TIP3   OH2 4697   1.164   2.298   4.981 -0.4923  0.0875 -0.0800
 1564TIP3    H1 4698   1.244   2.347   4.965  0.7701 -1.2974  1.5284
 1564TIP3    H2 4699   1.104   2.361   5.021  0.6097  0.6294  0.7554
 1565TIP3   OH2 4700   3.581   1.127   4.830 -0.3881 -0.0564  0.9814
 1565TIP3    H1 4701   3.663   1.174   4.844  1.1640 -2.6452  1.2224
 1565TIP3    H2 4702   3.562   1.140   4.737  0.3402  0.4651  0.8970
 1566TIP3   OH2 4703   1.444   0.803   0.629  0.0216 -0.4435 -0.0810
 1566TIP3    H1 4704   1.372   0.804   0.692  0.0131  1.7955 -0.0602
 1566TIP3    H2 4705   1.499   0.877   0.654  0.9767 -0.5791 -1.6442
 1567TIP3   OH2 4706   3.059   2.873   2.312 -0.2012  0.3716 -0.2788
 1567TIP3    H1 4707   3.110   2.808   2.264  0.5091  0.7059  0.0061
 1567TIP3    H2 4708   3.022   2.929   2.245 -0.5112 -0.0962 -0.5069
 1568TIP3   OH2 4709   3.977   3.488   2.504 -0.3890 -0.2368 -0.7723
 1568TIP3    H1 4710   4.055   3.448   2.466 -1.7740 -2.5025 -1.4074
 1568TIP3    H2 4711   3.999   3.501   2.596  1.5313  1.4058 -1.4080
 1569TIP3   OH2 4712   4.413   2.115   0.384  0.2880 -0.1148 -0.8799
 1569TIP3    H1 4713   4.403   2.025   0.415 -1.0580  0.8664  1.8795
 1569TIP3    H2 4714   4.503   2.138   0.407 -0.0003 -0.1301  0.3202
 1570TIP3   OH2 4715   5.631   2.378   3.812  0.6527  0.0960 -0.3640
 1570TIP3    H1 4716   5.571   2.308   3.834 -0.4150  1.4134  1.1440
 1570TIP3    H2 4717   5.713   2.354   3.855  0.9771 -1.2817 -1.7033
 1571TIP3   OH2 4718   1.851   0.711   2.036 -0.0655  0.6946  0.2145
 1571TIP3    H1 4719   1.901   0.791   2.028 -0.5488  1.0305  0.4919
 1571TIP3    H2 4720   1.784   0.730   2.102 -0.4391  0.2018 -0.0079
 1572TIP3   OH2 4721   5.311   2.586   2.187 -0.1685  0.4487  0.1066
 1572TIP3    H1 4722   5.312   2.497   2.154  0.5300 -0.3411  2.1076
 1572TIP3    H2 4723   5.378   2.587   2.255 -1.4931  1.9396  1.4798
 1573TIP3   OH2 4724   2.857   5.006   5.132 -0.0912 -0.3906  0.7041
 1573TIP3    H1 4725   2.891   4.979   5.046  0.0537  0.3637  0.5149
 1573TIP3    H2 4726   2.849   5.101   5.125  0.7803 -0.2124  1.8254
 1574TIP3   OH2 4727   2.285   2.967   2.335  0.6578 -0.0804  0.2243
 1574TIP3    H1 4728   2.228   2.949   2.410  1.0410  0.1225  0.5669
 1574TIP3    H2 4729   2.368   2.926   2.357  1.1912  1.1131  0.5148
 1575TIP3   OH2 4730   5.827   2.022   4.164  0.3007  0.0357 -0.0168
 1575TIP3    H1 4731   5.738   2.019   4.199 -0.1155 -0.3893 -1.0642
 1575TIP3    H2 4732   5.832   1.946   4.105  1.4264 -0.0689  0.1952
 1576TIP3   OH2 4733   0.874   1.227   1.919 -0.0687 -0.2557 -0.0990
 1576TIP3    H1 4734   0.837   1.151   1.964  0.3678 -0.7157 -0.4970
 1576TIP3    H2 4735   0.947   1.191   1.868  0.9424  0.6202  0.6750
 1577TIP3   OH2 4736   3.743   0.032   5.166  0.1215  0.1840 -0.0033
 1577TIP3    H1 4737   3.828   0.015   5.207  0.3534 -2.0228 -1.2270
 1577TIP3    H2 4738   3.763   0.042   5.073 -0.7920  1.3755 -0.0917
 1578TIP3   OH2 4739   5.790   4.065   4.512 -0.3836  1.0262 -0.2698
 1578TIP3    H1 4740   5.818   4.067   4.603 -1.2624  0.0238  0.0507
 1578TIP3    H2 4741   5.869   4.039   4.464  0.3808  2.6623  0.0456
 1579TIP3   OH2 4742   5.145   2.241   2.801  0.7515  0.3195 -0.1058
 1579TIP3    H1 4743   5.140   2.318   2.744 -0.8193  0.6143  0.3849
 1579TIP3    H2 4744   5.155   2.277   2.889 -1.9302  0.0894  0.3584
 1580TIP3   OH2 4745   0.397   1.749   4.917  0.0614 -0.3456 -0.5178
 1580TIP3    H1 4746   0.446   1.825   4.887  1.6462  0.1233  2.9133
 1580TIP3    H2 4747   0.456   1.675   4.903  1.3322  0.0320  2.2563
 1581TIP3   OH2 4748   2.221   5.213   2.164 -0.0724 -0.1391  0.0973
 1581TIP3    H1 4749   2.147   5.189   2.219 -1.2270  2.1581 -0.2910
 1581TIP3    H2 4750   2.193   5.192   2.075 -1.0313  2.1616 -0.2290
 1582TIP3   OH2 4751   2.622   4.802   2.219 -0.3142  0.0493 -0.1084
 1582TIP3    H1 4752   2.667   4.808   2.303 -0.6934 -0.6988  0.1598
 1582TIP3    H2 4753   2.530   4.793   2.242 -0.5324  0.8454 -0.6343
 1583TIP3   OH2 4754   4.746   2.237   3.380  0.5252 -0.2254  0.0271
 1583TIP3    H1 4755   4.677   2.172   3.393 -0.0258  0.4577  0.5846
 1583TIP3    H2 4756   4.730   2.273   3.293  1.3485 -1.4281 -0.6451
 1584TIP3   OH2 4757   0.476   1.687   4.560  0.1419 -0.2132 -0.1031
 1584TIP3    H1 4758   0.481   1.717   4.651 -1.0426 -0.3688  0.0320
 1584TIP3    H2 4759   0.469   1.592   4.567 -0.5461 -0.1838 -0.3241
 1585TIP3   OH2 4760   6.334   1.301   0.061 -0.0354  0.0194  0.0592
 1585TIP3    H1 4761   6.282   1.232   0.103  0.4307 -1.1405 -1.1861
 1585TIP3    H2 4762   6.344   1.368   0.128 -1.6638 -0.5083  0.8838
 1586TIP3   OH2 4763   4.000   3.165   0.085  0.7872  0.4045 -0.3921
 1586TIP3    H1 4764   3.995   3.215   0.166 -3.0274 -0.1875 -0.0648
 1586TIP3    H2 4765   3.942   3.212   0.025 -0.1405 -1.6421 -1.1969
 1587TIP3   OH2 4766   2.424   1.209   3.134  0.4447  0.5783  0.1419
 1587TIP3    H1 4767   2.341   1.163   3.146  0.6998 -0.0315 -0.3382
 1587TIP3    H2 4768   2.424   1.278   3.200 -1.4218  2.0235 -1.2896
 1588TIP3   OH2 4769   6.356   3.524   0.120  0.3517  0.1487 -0.1646
 1588TIP3    H1 4770   6.320   3.513   0.208 -1.9350 -2.0359 -1.2226
 1588TIP3    H2 4771   6.287   3.572   0.072  0.5940 -0.5728 -1.2709
 1589TIP3   OH2 4772   5.887   3.599   0.242  0.1889 -0.1299 -1.0773
 1589TIP3    H1 4773   5.981   3.614   0.254  0.3485 -1.8736  0.2624
 1589TIP3    H2 4774   5.869   3.520   0.293 -2.4600  1.4150  0.5979
 1590TIP3   OH2 4775   4.764   0.420   0.654  0.0861  0.0976 -0.0010
 1590TIP3    H1 4776   4.828   0.492   0.656 -0.3649  0.5095 -0.1358
 1590TIP3    H2 4777   4.733   0.413   0.745  0.0166  0.1782 -0.0182
 1591TIP3   OH2 4778   5.618   2.548   4.474 -0.0921 -0.2326 -0.4264
 1591TIP3    H1 4779   5.537   2.573   4.430 -0.4103 -1.9907 -0.9428
 1591TIP3    H2 4780   5.614   2.452   4.478  0.4955 -0.2288  2.3476
 1592TIP3   OH2 4781   0.548   5.797   3.962 -0.3090 -0.1013  0.1576
 1592TIP3    H1 4782   0.616   5.864   3.959  0.3846 -0.6983  1.6818
 1592TIP3    H2 4783   0.483   5.830   4.024 -1.3435  0.3634 -1.1201
 1593TIP3   OH2 4784   4.924   1.884   1.157  0.3218  0.1861 -0.1528
 1593TIP3    H1 4785   4.839   1.844   1.136  0.6423 -0.0227 -1.1279
 1593TIP3    H2 4786   4.908   1.934   1.237 -1.9898  4.0006 -2.6597
 1594TIP3   OH2 4787   3.553   1.813   3.531 -0.0924  0.6786  0.0437
 1594TIP3    H1 4788   3.493   1.745   3.563  0.1257 -0.2642 -1.4629
 1594TIP3    H2 4789   3.634   1.798   3.578  1.1331 -2.4447 -2.6366
 1595TIP3   OH2 4790   3.202   5.957   2.604  0.1691 -0.0863 -0.1670
 1595TIP3    H1 4791   3.203   5.862   2.619  1.3836 -0.1087 -0.2894
 1595TIP3    H2 4792   3.183   5.966   2.511 -1.5157 -0.1383  0.1425
 1596TIP3   OH2 4793   6.173   5.908   4.806  0.7629 -0.0982  0.0276
 1596TIP3    H1 4794   6.115   5.977   4.775  2.4535  1.6569  0.6117
 1596TIP3    H2 4795   6.228   5.887   4.730  1.4504  0.5127  0.3446
 1597TIP3   OH2 4796   3.856   3.196   1.685  0.1675  0.1978  0.1893
 1597TIP3    H1 4797   3.852   3.252   1.762 -0.3516  0.7106 -0.2026
 1597TIP3    H2 4798   3.779   3.219   1.634  0.8419  0.3294 -0.8006
 1598TIP3   OH2 4799   0.678   0.917   2.705  0.2492 -0.3055 -0.3622
 1598TIP3    H1 4800   0.708   0.829   2.730 -0.3323 -1.0866 -2.2113
 1598TIP3    H2 4801   0.755   0.958   2.666  0.4469 -0.1082  0.2392
 1599TIP3   OH2 4802   0.259   4.872   4.095  0.8184  0.4400  0.1429
 1599TIP3    H1 4803   0.269   4.881   4.190 -1.4037  1.7554  0.3325
 1599TIP3    H2 4804   0.178   4.920   4.075  0.5443 -0.8591 -2.2452
 1600TIP3   OH2 4805   3.910   1.634   3.172 -0.3014 -0.1177  0.0956
 1600TIP3    H1 4806   3.927   1.696   3.243 -0.5307 -1.6985  1.6249
 1600TIP3    H2 4807   3.907   1.549   3.216 -0.2488 -1.1915 -1.8706
 1601TIP3   OH2 4808   0.038   3.449   1.711  0.3650  0.3291 -0.9320
 1601TIP3    H1 4809  -0.043   3.499   1.703  0.4253  0.9915  1.7336
 1601TIP3    H2 4810   0.107   3.516   1.717  0.7147 -0.1050  0.1871
 1602TIP3   OH2 4811   4.345   3.162   3.979 -0.3863 -0.5315 -0.2921
 1602TIP3    H1 4812   4.317   3.246   3.943 -0.3271 -0.4996 -0.2629
 1602TIP3    H2 4813   4.407   3.184   4.048 -0.8325 -0.5754  0.1316
 1603TIP3   OH2 4814   3.222   5.810   4.986 -0.1634 -0.7093  0.3219
 1603TIP3    H1 4815   3.215   5.811   5.081 -1.0889  0.7099  0.2792
 1603TIP3    H2 4816   3.223   5.718   4.963 -4.2059 -1.2339  1.4866
 1604TIP3   OH2 4817   2.810   2.414   5.105  0.4623 -0.7602  0.0898
 1604TIP3    H1 4818   2.750   2.487   5.120  0.4928 -0.4653 -1.1289
 1604TIP3    H2 4819   2.870   2.417   5.180 -1.3308 -1.3978  1.6132
 1605TIP3   OH2 4820   4.922   3.301   1.875  0.1713  0.9163  0.5368
 1605TIP3    H1 4821   4.895   3.295   1.966  3.0854 -0.4875  1.4402
 1605TIP3    H2 4822   5.009   3.262   1.873  0.0441  0.4701 -2.9697
 1606TIP3   OH2 4823   3.899   5.290   1.809 -0.2970  0.3955 -0.1796
 1606TIP3    H1 4824   3.840   5.262   1.739 -1.9229  1.4282  0.7255
 1606TIP3    H2 4825   3.907   5.385   1.797  1.5858  0.2366 -0.5496
 1607TIP3   OH2 4826   0.741   5.892   0.519  0.1507  0.1730  0.0249
 1607TIP3    H1 4827   0.797   5.876   0.595  0.3476  1.4040  0.1546
 1607TIP3    H2 4828   0.801   5.884   0.444 -0.0795 -1.2114 -0.0262
 1608TIP3   OH2 4829   5.374   1.176   4.115 -0.0804  0.4782  0.6927
 1608TIP3    H1 4830   5.295   1.158   4.064 -0.3986  0.3548  1.2158
 1608TIP3    H2 4831   5.438   1.207   4.051 -0.7209  1.0894  0.3379
 1609TIP3   OH2 4832   4.643   3.017   3.591  0.5290  0.0115 -0.3336
 1609TIP3    H1 4833   4.671   2.929   3.566 -0.8132 -0.8469  1.0307
 1609TIP3    H2 4834   4.622   3.011   3.684 -1.8921  1.1180 -0.7094
 1610TIP3   OH2 4835   2.733   2.181   2.926  1.2014 -0.4047 -0.0627
 1610TIP3    H1 4836   2.673   2.204   2.997  1.0766 -2.0905  0.4213
 1610TIP3    H2 4837   2.811   2.232   2.943  0.4074  0.8037  0.0703
 1611TIP3   OH2 4838   3.166   2.299   0.387 -0.1907 -0.3960 -0.2094
 1611TIP3    H1 4839   3.256   2.280   0.363  0.8319  1.6048  1.6921
 1611TIP3    H2 4840   3.157   2.266   0.477 -0.9396  0.5341  0.0757
 1612TIP3   OH2 4841   4.947   2.992   2.575 -0.3461 -0.0787  0.0560
 1612TIP3    H1 4842   4.979   3.079   2.596  1.3185 -0.1863 -1.8057
 1612TIP3    H2 4843   4.852   2.998   2.587 -0.0675  1.2530  2.3073
 1613TIP3   OH2 4844   4.362   0.798   2.453  0.1338  0.1714 -0.5353
 1613TIP3    H1 4845   4.333   0.763   2.537  0.6027  0.3464 -0.2964
 1613TIP3    H2 4846   4.292   0.776   2.392 -0.4841  0.5817  0.0224
 1614TIP3   OH2 4847   0.110   5.511   0.911  0.0781  0.0290 -0.1311
 1614TIP3    H1 4848   0.156   5.584   0.868  0.3987 -0.0227  0.1187
 1614TIP3    H2 4849   0.157   5.433   0.880 -1.3070 -0.2282 -1.7493
 1615TIP3   OH2 4850   3.195   2.178   0.660 -0.2011  0.4746  0.1321
 1615TIP3    H1 4851   3.206   2.092   0.698  0.9624  0.7881  0.5426
 1615TIP3    H2 4852   3.254   2.235   0.709  0.4257  1.1404 -1.3147
 1616TIP3   OH2 4853   3.475   5.296   0.157  0.1132  0.3379  0.2519
 1616TIP3    H1 4854   3.476   5.363   0.226  0.8434  2.1150 -1.4128
 1616TIP3    H2 4855   3.386   5.298   0.123 -0.0573 -0.0583  0.6583
 1617TIP3   OH2 4856   2.762   2.352   1.796  0.3050 -0.0843  0.2345
 1617TIP3    H1 4857   2.813   2.276   1.770  0.2868  0.1190 -0.4043
 1617TIP3    H2 4858   2.675   2.336   1.760  0.4252  0.4533 -0.2989
 1618TIP3   OH2 4859   3.174   4.612   1.531 -0.3599 -0.2237  0.0938
 1618TIP3    H1 4860   3.243   4.548   1.550 -0.7369 -0.7252 -0.2024
 1618TIP3    H2 4861   3.118   4.611   1.610 -0.7477 -0.7684 -0.1792
 1619TIP3   OH2 4862   2.135   1.578   2.393  0.1823  0.0346  0.8804
 1619TIP3    H1 4863   2.149   1.614   2.481 -1.7792  2.9895  0.1031
 1619TIP3    H2 4864   2.099   1.650   2.342  0.7574 -1.7215 -2.2808
 1620TIP3   OH2 4865   4.623   2.846   1.973  0.1088  0.0257  0.4289
 1620TIP3    H1 4866   4.602   2.858   1.881  0.4169  0.5665  0.4223
 1620TIP3    H2 4867   4.718   2.833   1.976  0.7693  3.7177  0.9210
 1621TIP3   OH2 4868   2.574   5.493   1.931 -0.6349  0.6836  0.3614
 1621TIP3    H1 4869   2.528   5.468   2.011  1.8074  1.3175  2.0440
 1621TIP3    H2 4870   2.509   5.543   1.881 -3.1239 -2.1190  0.5212
 1622TIP3   OH2 4871   4.189   3.955   2.965  0.3923  0.8124  0.3668
 1622TIP3    H1 4872   4.156   3.880   3.015 -0.9173  0.2957 -1.1892
 1622TIP3    H2 4873   4.283   3.957   2.983  0.2671 -0.5041  1.3160
 1623TIP3   OH2 4874   4.737   1.206   2.226  0.6506 -0.4159 -0.9716
 1623TIP3    H1 4875   4.695   1.291   2.242  0.1343 -0.7000 -0.7742
 1623TIP3    H2 4876   4.664   1.149   2.200  0.9903 -0.8016 -1.0805
 1624TIP3   OH2 4877   0.711   5.189   3.258 -0.1328  0.2484  0.4579
 1624TIP3    H1 4878   0.749   5.109   3.295 -0.6644 -0.7531 -1.0320
 1624TIP3    H2 4879   0.617   5.171   3.254  0.0226 -0.4855 -2.9097
 1625TIP3   OH2 4880   5.397   0.628   1.007  0.0119  0.3749  0.3153
 1625TIP3    H1 4881   5.435   0.629   1.095  0.8934 -0.2954 -0.0380
 1625TIP3    H2 4882   5.390   0.720   0.983 -0.6117  0.5868  1.2268
 1626TIP3   OH2 4883   1.309   2.292   3.551  0.2088 -0.1289 -0.2323
 1626TIP3    H1 4884   1.308   2.301   3.646  1.8727  0.4897 -0.2440
 1626TIP3    H2 4885   1.240   2.351   3.520  0.2511  0.3320  0.5381
 1627TIP3   OH2 4886   1.472   3.827   1.380  0.1026 -0.1817  0.2025
 1627TIP3    H1 4887   1.482   3.764   1.309  0.4671  1.0359 -0.8643
 1627TIP3    H2 4888   1.562   3.850   1.404 -0.0055 -0.8259  1.3099
 1628TIP3   OH2 4889   6.237   0.114   2.333 -0.3384 -0.4107  0.5098
 1628TIP3    H1 4890   6.227   0.163   2.251 -0.3087 -0.5759  0.4066
 1628TIP3    H2 4891   6.180   0.159   2.395 -0.2055 -0.1625  0.4521
 1629TIP3   OH2 4892   3.719   1.555   0.809  0.2655 -0.3843 -0.5073
 1629TIP3    H1 4893   3.650   1.621   0.804  0.9589  0.6295  1.9634
 1629TIP3    H2 4894   3.672   1.471   0.803 -0.9942  0.2951 -0.3838
 1630TIP3   OH2 4895   4.226   3.371   3.832 -0.6162  0.1465 -0.1167
 1630TIP3    H1 4896   4.182   3.367   3.747 -1.3004 -0.3514  0.2508
 1630TIP3    H2 4897   4.265   3.458   3.835 -1.9895  0.7871 -0.2458
 1631TIP3   OH2 4898   1.480   1.024   2.051 -0.3607 -0.1928 -0.4720
 1631TIP3    H1 4899   1.446   0.938   2.025 -0.3907 -0.1828 -0.4655
 1631TIP3    H2 4900   1.403   1.081   2.053 -0.5954 -0.5019  0.9540
 1632TIP3   OH2 4901   1.793   3.776   4.700  0.1652 -0.0132  0.3952
 1632TIP3    H1 4902   1.840   3.846   4.746 -2.3660  0.6507  2.1636
 1632TIP3    H2 4903   1.703   3.783   4.731 -0.5718 -2.9399 -0.7704
 1633TIP3   OH2 4904   3.314   5.095   3.843 -0.1798 -0.0976  0.0507
 1633TIP3    H1 4905   3.266   5.114   3.923 -0.2798  0.5040 -0.1518
 1633TIP3    H2 4906   3.370   5.020   3.866 -0.2397  0.0420  0.6630
 1634TIP3   OH2 4907   5.517   4.795   1.973  0.5666  0.0898  0.2513
 1634TIP3    H1 4908   5.582   4.736   1.933  1.9900  1.2769  0.7229
 1634TIP3    H2 4909   5.473   4.835   1.898  1.4781  0.4277 -0.1198
 1635TIP3   OH2 4910   0.423   0.883   0.976  0.1846 -0.1022  0.6885
 1635TIP3    H1 4911   0.368   0.841   0.910  0.5577 -0.4357  0.5882
 1635TIP3    H2 4912   0.462   0.810   1.024  0.7441  0.1267  0.5877
 1636TIP3   OH2 4913   5.125   0.607   1.334 -0.0866 -0.2966  0.4849
 1636TIP3    H1 4914   5.091   0.657   1.260 -4.0284 -3.2152  0.0020
 1636TIP3    H2 4915   5.163   0.529   1.295 -1.0039 -1.2457  1.4358
 1637TIP3   OH2 4916   5.966   4.996   4.325  0.0770 -0.1345 -0.0209
 1637TIP3    H1 4917   6.061   5.010   4.326  0.1824 -0.6920  2.0966
 1637TIP3    H2 4918   5.952   4.929   4.257  1.2821 -0.4839  0.0551
 1638TIP3   OH2 4919   5.301   1.835   1.778  0.7433 -0.8094  0.2001
 1638TIP3    H1 4920   5.347   1.833   1.694  0.0223  2.6047 -0.4379
 1638TIP3    H2 4921   5.222   1.885   1.761  0.0385 -0.9205  2.7201
 1639TIP3   OH2 4922   1.373   1.819   2.033  0.2913 -0.6330 -0.2706
 1639TIP3    H1 4923   1.410   1.778   2.112  2.4228 -1.8097 -1.7788
 1639TIP3    H2 4924   1.304   1.758   2.005  0.5806 -1.0134 -0.1681
 1640TIP3   OH2 4925   6.200   3.927   1.618  0.1988  0.1030  0.1895
 1640TIP3    H1 4926   6.126   3.983   1.594 -0.0450 -0.2016  0.2152
 1640TIP3    H2 4927   6.231   3.963   1.701 -0.7357 -0.5317  0.8430
 1641TIP3   OH2 4928   2.006   2.195   4.659 -0.2434  0.0290  0.5061
 1641TIP3    H1 4929   1.930   2.253   4.656 -0.1889  0.3381  3.0378
 1641TIP3    H2 4930   1.970   2.107   4.659 -0.6140  0.1733  1.5929
 1642TIP3   OH2 4931   5.641   3.714   0.205  0.1084 -0.3795  0.1181
 1642TIP3    H1 4932   5.661   3.797   0.249 -1.5285 -0.7024  1.5787
 1642TIP3    H2 4933   5.694   3.649   0.251  0.6662 -0.3016 -0.3992
 1643TIP3   OH2 4934   4.884   4.907   0.493 -0.3639  0.0513  0.2229
 1643TIP3    H1 4935   4.842   4.841   0.548  0.8081 -0.3174  0.7246
 1643TIP3    H2 4936   4.906   4.861   0.412 -1.1572  0.3149 -0.1455
 1644TIP3   OH2 4937   5.984   1.455   5.105 -0.3148  0.6778  0.6363
 1644TIP3    H1 4938   5.944   1.402   5.175 -1.2119 -4.1805 -3.0074
 1644TIP3    H2 4939   5.913   1.510   5.073 -0.8131  0.5497  1.4890
 1645TIP3   OH2 4940   2.557   3.770   1.916  0.1082  0.1703 -0.2105
 1645TIP3    H1 4941   2.617   3.732   1.853 -0.3303  1.8759 -1.7459
 1645TIP3    H2 4942   2.530   3.853   1.877 -1.6041  0.4516  1.3969
 1646TIP3   OH2 4943   4.777   3.717   2.920 -0.4414 -0.2204  0.0712
 1646TIP3    H1 4944   4.858   3.672   2.944 -0.9219 -0.6366  0.9711
 1646TIP3    H2 4945   4.718   3.701   2.994 -0.8079  1.4400  0.1649
 1647TIP3   OH2 4946   5.514   5.942   4.901 -0.0786 -0.2310  0.1294
 1647TIP3    H1 4947   5.576   5.914   4.969  1.3382  1.4936 -0.3892
 1647TIP3    H2 4948   5.548   5.903   4.820 -1.1589 -1.3931  0.2077
 1648TIP3   OH2 4949   3.278   0.333   1.460 -0.0244  0.3523  0.2451
 1648TIP3    H1 4950   3.199   0.286   1.487 -0.9596  1.8929  0.3337
 1648TIP3    H2 4951   3.350   0.285   1.501 -0.7925 -1.6843 -0.6536
 1649TIP3   OH2 4952   0.853   4.154   3.845  0.4130  0.1978 -0.2080
 1649TIP3    H1 4953   0.851   4.207   3.766 -1.3042  2.3420  1.1364
 1649TIP3    H2 4954   0.801   4.077   3.824 -1.4281  1.5071 -0.7579
 1650TIP3   OH2 4955   2.152   1.051   2.396  0.0067 -0.1564  0.0045
 1650TIP3    H1 4956   2.121   1.139   2.416 -1.9023 -0.7597 -0.0817
 1650TIP3    H2 4957   2.136   1.001   2.476 -0.1010 -0.7229 -0.3653
 1651TIP3   OH2 4958   5.400   3.599   1.707 -0.1688 -0.0246 -0.0317
 1651TIP3    H1 4959   5.361   3.656   1.640  1.0945  1.1204  0.1541
 1651TIP3    H2 4960   5.334   3.594   1.776 -0.7502  0.2876 -0.5575
 1652TIP3   OH2 4961   3.378   0.065   4.483 -0.8263  0.4602  0.5193
 1652TIP3    H1 4962   3.319   0.112   4.425 -1.4638 -0.7953  0.0983
 1652TIP3    H2 4963   3.371   0.110   4.567  0.4219  2.5537 -0.4462
 1653TIP3   OH2 4964   6.035   0.247   2.537  0.3538 -0.7331  0.0453
 1653TIP3    H1 4965   5.957   0.286   2.576 -0.7379 -0.0585 -2.5524
 1653TIP3    H2 4966   6.104   0.312   2.549 -0.1139 -0.2763  0.2888
 1654TIP3   OH2 4967   3.606   2.069   3.404  0.0504  0.1552  0.8609
 1654TIP3    H1 4968   3.522   2.073   3.359 -0.4738  0.8864  1.8706
 1654TIP3    H2 4969   3.602   1.988   3.455 -0.1312  0.2839  1.0556
 1655TIP3   OH2 4970   0.530   3.621   2.551  0.0218  0.1654  0.2456
 1655TIP3    H1 4971   0.600   3.560   2.572 -0.3400  0.2949  1.9810
 1655TIP3    H2 4972   0.519   3.673   2.630 -0.9486  1.2259 -0.5526
 1656TIP3   OH2 4973   2.463   4.658   1.626  0.0380  0.0039  0.0231
 1656TIP3    H1 4974   2.553   4.627   1.639  0.2688  0.0823 -1.2669
 1656TIP3    H2 4975   2.467   4.752   1.645  0.4730  0.2127 -1.0485
 1657TIP3   OH2 4976   4.350   1.017   4.419  0.0095  0.2187 -0.4040
 1657TIP3    H1 4977   4.347   1.112   4.406  1.4309  0.8901  2.8856
 1657TIP3    H2 4978   4.427   0.988   4.369  0.2922  1.0309 -0.4514
 1658TIP3   OH2 4979   0.827   0.337   0.088  0.5405 -0.1063  0.0916
 1658TIP3    H1 4980   0.894   0.322   0.021  1.6607  2.6252  0.4667
 1658TIP3    H2 4981   0.836   0.262   0.147  0.5194 -1.8291 -1.9434
 1659TIP3   OH2 4982   1.066   3.224   3.743  0.0240  0.0123 -0.5809
 1659TIP3    H1 4983   1.158   3.250   3.750 -0.5493  1.6836  2.4286
 1659TIP3    H2 4984   1.069   3.129   3.730  2.1517  0.1048 -1.1506
 1660TIP3   OH2 4985   4.352   4.074   0.562 -0.0064 -0.4609 -0.5201
 1660TIP3    H1 4986   4.376   3.982   0.554 -0.3626 -0.6364  0.3064
 1660TIP3    H2 4987   4.430   4.117   0.596  0.8237 -0.0797 -2.7458
 1661TIP3   OH2 4988   4.951   5.136   0.920  0.1382 -0.0127 -0.1737
 1661TIP3    H1 4989   4.893   5.211   0.914 -0.1472 -0.0951  1.1613
 1661TIP3    H2 4990   4.894   5.062   0.942  0.8110  0.1533  2.5469
 1662TIP3   OH2 4991   3.929   1.089   2.104  0.0228 -0.0868 -0.9412
 1662TIP3    H1 4992   3.976   1.146   2.164 -1.2134  1.2570 -1.1840
 1662TIP3    H2 4993   3.881   1.028   2.160  0.1191  0.1297 -0.6247
 1663TIP3   OH2 4994   0.545   3.638   2.254 -0.1390 -0.0948  0.1904
 1663TIP3    H1 4995   0.568   3.728   2.228  0.4550 -0.2918  0.0135
 1663TIP3    H2 4996   0.568   3.634   2.347 -0.0073 -0.1129  0.1573
 1664TIP3   OH2 4997   0.486   2.315   3.645 -0.0704 -1.1398  0.4914
 1664TIP3    H1 4998   0.514   2.346   3.731  0.9569 -1.9792  0.4810
 1664TIP3    H2 4999   0.506   2.221   3.646 -0.0933 -1.1663 -0.6407
 1665TIP3   OH2 5000   4.263   2.488   1.869  1.0018  0.4511  0.3005
 1665TIP3    H1 5001   4.298   2.494   1.958 -0.1185  2.8096  0.6772
 1665TIP3    H2 5002   4.173   2.458   1.880  0.3112  2.3460  0.1854
 1666TIP3   OH2 5003   1.537   4.654   3.884  0.3195  0.1197  0.4490
 1666TIP3    H1 5004   1.569   4.737   3.918 -1.9142  1.0642  0.4208
 1666TIP3    H2 5005   1.523   4.669   3.790 -1.5164  0.2715  0.6972
 1667TIP3   OH2 5006   3.218   0.520   4.455  0.0081 -0.1322  0.1066
 1667TIP3    H1 5007   3.174   0.586   4.401  1.6052  1.3239  0.4611
 1667TIP3    H2 5008   3.199   0.437   4.412 -2.1410  0.5234 -0.3255
 1668TIP3   OH2 5009   5.247   1.285   2.978  0.0084 -0.3143 -0.3088
 1668TIP3    H1 5010   5.175   1.341   3.008  0.2445  0.1250 -0.5613
 1668TIP3    H2 5011   5.208   1.197   2.973 -0.0324 -0.4331  1.3338
 1669TIP3   OH2 5012   5.042   3.663   0.396  0.2433 -0.0862 -0.0571
 1669TIP3    H1 5013   5.030   3.725   0.324  1.5698  0.5486  0.2374
 1669TIP3    H2 5014   5.005   3.707   0.473  0.0625 -0.1873 -0.0859
 1670TIP3   OH2 5015   1.124   3.028   1.656 -0.2974  0.6377  0.2953
 1670TIP3    H1 5016   1.165   3.061   1.736 -0.0219 -0.6476  0.7073
 1670TIP3    H2 5017   1.065   2.960   1.686 -0.0512  0.0118 -0.6093
 1671TIP3   OH2 5018   2.542   0.087   1.481  1.0179 -0.1562  0.7608
 1671TIP3    H1 5019   2.484   0.026   1.435 -0.4744  0.8413  1.2240
 1671TIP3    H2 5020   2.553   0.160   1.420  0.2371  0.5015  1.3824
 1672TIP3   OH2 5021   2.230   4.775   3.272  0.0928  0.5064 -0.4378
 1672TIP3    H1 5022   2.305   4.726   3.239  0.2724 -0.9952  1.9897
 1672TIP3    H2 5023   2.154   4.728   3.236  0.2775  0.4403 -0.7508
 1673TIP3   OH2 5024   5.634   4.572   1.505  0.3706  0.2104  0.0718
 1673TIP3    H1 5025   5.709   4.619   1.468  2.4933 -1.6109  1.7523
 1673TIP3    H2 5026   5.652   4.569   1.599 -0.1157 -3.0194  0.1722
 1674TIP3   OH2 5027   4.809   0.916   4.113  0.1597  0.2204  0.1420
 1674TIP3    H1 5028   4.788   0.838   4.061  0.6284  0.0718  0.1729
 1674TIP3    H2 5029   4.724   0.960   4.125  0.2099  0.9731 -1.8618
 1675TIP3   OH2 5030   1.553   1.804   0.202 -0.3746 -0.0510 -0.2761
 1675TIP3    H1 5031   1.460   1.811   0.182 -0.2701  1.2670 -0.3805
 1675TIP3    H2 5032   1.556   1.794   0.297 -0.6005  1.3800 -0.0883
 1676TIP3   OH2 5033   2.554   0.657   2.526  0.0983  0.5624  0.1086
 1676TIP3    H1 5034   2.481   0.642   2.586  0.4554 -1.5735  0.0802
 1676TIP3    H2 5035   2.603   0.729   2.566 -0.2040 -0.1736  1.9120
 1677TIP3   OH2 5036   5.051   2.010   1.719  0.1834  0.2491  0.0970
 1677TIP3    H1 5037   5.050   2.105   1.734  0.4531  0.0428  1.5827
 1677TIP3    H2 5038   4.995   1.975   1.789  1.8910 -0.8432  0.9834
 1678TIP3   OH2 5039   4.159   0.463   4.597 -0.0036  0.2203  0.3871
 1678TIP3    H1 5040   4.241   0.420   4.573 -0.1299  0.0454  0.2678
 1678TIP3    H2 5041   4.176   0.501   4.683  0.6277  1.3143 -0.2088
 1679TIP3   OH2 5042   1.824   5.456   2.876 -0.0649 -0.3308  0.4072
 1679TIP3    H1 5043   1.760   5.492   2.815  1.7974  0.8089 -0.9950
 1679TIP3    H2 5044   1.829   5.521   2.946  0.8034  0.4900 -0.3884
 1680TIP3   OH2 5045   3.149   4.615   3.372 -0.6214 -0.3417  0.6037
 1680TIP3    H1 5046   3.131   4.695   3.324 -1.7475 -0.6695  0.4536
 1680TIP3    H2 5047   3.075   4.557   3.352 -0.8370 -0.6941  2.2652
 1681TIP3   OH2 5048   3.880   1.897   3.985  0.0261 -0.2539 -0.1462
 1681TIP3    H1 5049   3.862   1.937   3.900  2.8040  1.0891 -0.1884
 1681TIP3    H2 5050   3.793   1.878   4.021 -1.2512 -0.0708 -2.8732
 1682TIP3   OH2 5051   2.856   3.651   3.834 -0.3151 -0.5562  0.2616
 1682TIP3    H1 5052   2.774   3.685   3.871 -0.7488 -0.9348 -0.3355
 1682TIP3    H2 5053   2.882   3.582   3.895  0.3595  0.5521  1.2618
 1683TIP3   OH2 5054   3.296   0.346   3.477 -0.0597 -0.2949  0.0095
 1683TIP3    H1 5055   3.367   0.284   3.494 -0.8172 -1.5383 -1.0995
 1683TIP3    H2 5056   3.225   0.317   3.534 -0.5044 -0.6502 -0.6997
 1684TIP3   OH2 5057   0.182   4.139   3.851  0.4018 -0.2090 -0.4280
 1684TIP3    H1 5058   0.151   4.157   3.762 -0.2559 -0.2340 -0.2097
 1684TIP3    H2 5059   0.164   4.045   3.864  0.4332 -0.1899 -0.2463
 1685TIP3   OH2 5060   1.580   3.548   0.226 -0.4966  0.0149 -0.5910
 1685TIP3    H1 5061   1.620   3.475   0.274 -2.0343 -0.2124  0.4152
 1685TIP3    H2 5062   1.653   3.607   0.208  0.6322 -1.3339 -0.6283
 1686TIP3   OH2 5063   0.816   2.537   0.127 -0.0664 -0.3413  0.1785
 1686TIP3    H1 5064   0.858   2.620   0.151 -1.9414  1.5240 -2.4416
 1686TIP3    H2 5065   0.738   2.532   0.182  0.1162 -0.4525  0.4293
 1687TIP3   OH2 5066   4.042   1.477   1.807  0.3640 -0.7274  0.0947
 1687TIP3    H1 5067   3.997   1.550   1.850  0.0287 -1.1197  0.4181
 1687TIP3    H2 5068   4.056   1.413   1.877  1.3574 -0.6480 -0.0220
 1688TIP3   OH2 5069   1.638   3.171   1.809 -0.3161  0.0863  0.0332
 1688TIP3    H1 5070   1.557   3.216   1.786  0.0060  0.6720  0.0309
 1688TIP3    H2 5071   1.698   3.241   1.836 -0.0770 -0.4121  0.8408
 1689TIP3   OH2 5072   0.125   1.443   5.094 -0.6200  0.0260  0.0512
 1689TIP3    H1 5073   0.128   1.533   5.124 -0.7676  0.2688 -0.6364
 1689TIP3    H2 5074   0.136   1.390   5.173  0.0602  0.6444  0.3747
 1690TIP3   OH2 5075   1.149   5.683   2.478  0.2378 -0.4364  0.4160
 1690TIP3    H1 5076   1.142   5.692   2.573  0.6340  1.4048  0.3167
 1690TIP3    H2 5077   1.243   5.689   2.460  0.0963  0.1612 -0.1550
 1691TIP3   OH2 5078   3.821   4.819   1.836 -0.1287 -0.2911 -0.2943
 1691TIP3    H1 5079   3.805   4.725   1.821  0.3354 -1.1372  3.4988
 1691TIP3    H2 5080   3.759   4.843   1.904  0.9124  1.7470  0.0020
 1692TIP3   OH2 5081   2.307   2.745   4.956  0.4221  0.2249 -0.9393
 1692TIP3    H1 5082   2.276   2.704   4.876  2.1439 -0.0299 -1.5310
 1692TIP3    H2 5083   2.299   2.839   4.941 -1.4101  0.1830 -0.4670
 1693TIP3   OH2 5084   4.955   2.162   3.151  0.3197 -0.5131  0.6082
 1693TIP3    H1 5085   4.925   2.150   3.241 -1.0464  0.8124  0.3587
 1693TIP3    H2 5086   5.010   2.241   3.154 -0.6066  0.1714  0.1153
 1694TIP3   OH2 5087   5.551   5.544   4.883  0.3474 -0.5329 -0.2212
 1694TIP3    H1 5088   5.626   5.545   4.823  0.0100  1.6182 -0.6907
 1694TIP3    H2 5089   5.523   5.635   4.888 -2.8769 -1.3406 -0.8485
 1695TIP3   OH2 5090   6.186   5.092   1.609  0.4248 -0.3855 -0.0605
 1695TIP3    H1 5091   6.191   5.086   1.704 -1.4620  2.0900  0.3326
 1695TIP3    H2 5092   6.250   5.159   1.586 -0.8998  0.9083 -0.1413
 1696TIP3   OH2 5093   3.115   4.382   3.098 -0.2984  0.2874 -0.2164
 1696TIP3    H1 5094   3.165   4.464   3.101  1.0343 -0.4913 -0.2469
 1696TIP3    H2 5095   3.057   4.391   3.023 -0.1348  1.1822 -0.2418
 1697TIP3   OH2 5096   0.363   5.498   0.817 -0.5178 -0.1737  0.2495
 1697TIP3    H1 5097   0.357   5.591   0.838  0.0986 -0.4718  1.9031
 1697TIP3    H2 5098   0.445   5.470   0.858  0.9932 -0.8064 -2.8975
 1698TIP3   OH2 5099   4.816   3.010   0.524 -0.4257  1.0284 -0.3920
 1698TIP3    H1 5100   4.872   3.064   0.469 -1.0515  1.5488 -0.5309
 1698TIP3    H2 5101   4.781   3.071   0.590  0.8637  0.2859  1.0342
 1699TIP3   OH2 5102   1.499   2.269   4.880  0.0441 -0.4298  0.0560
 1699TIP3    H1 5103   1.584   2.280   4.837 -1.1326  2.0604 -1.8444
 1699TIP3    H2 5104   1.512   2.305   4.968  0.8798  0.1914 -0.3107
 1700TIP3   OH2 5105   0.944   4.799   3.554 -0.2706 -0.2560 -0.0912
 1700TIP3    H1 5106   0.950   4.866   3.623  0.7999  0.2133 -0.6224
 1700TIP3    H2 5107   1.034   4.770   3.541 -0.2748  0.4902 -2.0990
 1701TIP3   OH2 5108   1.616   3.198   4.610  0.1754 -0.0419  0.1347
 1701TIP3    H1 5109   1.616   3.242   4.525 -4.0011 -0.2956 -0.1628
 1701TIP3    H2 5110   1.577   3.261   4.670 -1.3957 -1.5175  0.7371
 1702TIP3   OH2 5111   0.914   1.415   5.140  0.0647  0.1271  0.1247
 1702TIP3    H1 5112   0.900   1.365   5.220  1.2781  0.3823  0.5190
 1702TIP3    H2 5113   0.896   1.352   5.070  1.2511 -0.8086  0.6088
 1703TIP3   OH2 5114   5.934   5.737   4.339  0.4562 -0.1456 -0.1718
 1703TIP3    H1 5115   5.934   5.658   4.285 -1.2955 -0.7117  0.5945
 1703TIP3    H2 5116   5.936   5.705   4.429  1.5241  0.7483  0.1549
 1704TIP3   OH2 5117   5.851   1.342   4.685 -0.4885  0.2672 -0.0763
 1704TIP3    H1 5118   5.783   1.409   4.688 -1.7814 -0.9958  0.0408
 1704TIP3    H2 5119   5.905   1.359   4.762 -0.7433  1.2128 -0.0989
 1705TIP3   OH2 5120   1.167   2.567   4.854 -0.3624  0.3093  0.3907
 1705TIP3    H1 5121   1.114   2.634   4.898 -3.0801 -1.5389  0.1956
 1705TIP3    H2 5122   1.115   2.543   4.777  1.6090 -0.4966 -0.7641
 1706TIP3   OH2 5123   2.209   1.700   5.033  0.3607  0.2925 -0.0371
 1706TIP3    H1 5124   2.195   1.669   4.944 -1.4124  0.3871  0.1730
 1706TIP3    H2 5125   2.163   1.784   5.037  1.2559  0.7739  0.7003
 1707TIP3   OH2 5126   1.421   4.765   1.026 -0.0942  0.7034 -0.1169
 1707TIP3    H1 5127   1.365   4.689   1.012  0.2755  0.3361  0.3299
 1707TIP3    H2 5128   1.412   4.785   1.120 -0.7320  1.6532 -0.3687
 1708TIP3   OH2 5129   4.378   3.734   4.037  0.1429  0.4811 -0.0137
 1708TIP3    H1 5130   4.393   3.644   4.008 -0.4583  0.8700 -1.6405
 1708TIP3    H2 5131   4.465   3.773   4.044  0.3541  0.0483 -0.2404
 1709TIP3   OH2 5132   3.330   0.242   5.125  0.0866  0.5717 -0.0569
 1709TIP3    H1 5133   3.249   0.205   5.091  0.1299  0.6344 -0.2300
 1709TIP3    H2 5134   3.371   0.170   5.173  0.1802  0.3893 -0.4075
 1710TIP3   OH2 5135   0.235   2.969   4.281 -0.4310  0.0315 -0.0904
 1710TIP3    H1 5136   0.188   3.035   4.229  0.7698 -0.2221 -1.5424
 1710TIP3    H2 5137   0.307   3.018   4.321 -0.0618 -0.2077 -0.4561
 1711TIP3   OH2 5138   4.912   0.855   1.615 -0.0895  0.1747 -1.1928
 1711TIP3    H1 5139   4.933   0.866   1.708 -1.2501 -1.3764 -0.7132
 1711TIP3    H2 5140   4.997   0.850   1.572  0.4930 -0.9510  0.0285
 1712TIP3   OH2 5141   5.516   5.519   5.166 -0.9520  0.2795 -0.2945
 1712TIP3    H1 5142   5.507   5.549   5.076 -1.9236  0.9038  0.0010
 1712TIP3    H2 5143   5.426   5.509   5.197 -0.6352 -0.5064  0.4256
 1713TIP3   OH2 5144   2.417   1.891   4.937 -0.3720 -0.6387  0.2512
 1713TIP3    H1 5145   2.323   1.899   4.950 -0.8849 -0.0969 -2.8890
 1713TIP3    H2 5146   2.450   1.981   4.942 -0.3446 -0.6051 -0.3899
 1714TIP3   OH2 5147   4.245   1.749   2.915 -0.0768  0.2050 -0.0687
 1714TIP3    H1 5148   4.203   1.835   2.918 -0.6324 -0.0260 -0.7717
 1714TIP3    H2 5149   4.228   1.711   3.001 -1.3474  0.1201 -0.3243
 1715TIP3   OH2 5150   2.195   5.143   2.960 -0.0487  0.4598  0.2084
 1715TIP3    H1 5151   2.239   5.059   2.950  0.3686  0.7433 -0.3666
 1715TIP3    H2 5152   2.254   5.206   2.920 -0.0327  1.1270  1.2571
 1716TIP3   OH2 5153   5.913   0.400   0.025 -0.2737 -0.5792  0.3290
 1716TIP3    H1 5154   6.002   0.392   0.061 -0.3097  0.2382  0.6144
 1716TIP3    H2 5155   5.872   0.468   0.077 -0.6986 -0.1482 -0.5480
 1717TIP3   OH2 5156   2.644   0.954   0.024  0.6913  0.1936  0.2768
 1717TIP3    H1 5157   2.586   1.029   0.032  0.2516  0.0833 -1.4484
 1717TIP3    H2 5158   2.730   0.987   0.051  0.1130  0.7176  1.5588
 1718TIP3   OH2 5159   0.558   0.567   3.223 -0.2207 -0.5346  0.6359
 1718TIP3    H1 5160   0.636   0.611   3.189 -1.2080 -0.3183 -1.5012
 1718TIP3    H2 5161   0.495   0.637   3.237 -0.3410 -0.8069  1.5157
 1719TIP3   OH2 5162   4.230   3.100   1.323 -0.1693 -0.0715 -0.7470
 1719TIP3    H1 5163   4.263   3.059   1.244  0.8358  0.5132 -0.6373
 1719TIP3    H2 5164   4.308   3.120   1.375 -0.7959 -0.2565  0.2984
 1720TIP3   OH2 5165   1.369   2.889   0.587  0.3592  0.1828  0.3563
 1720TIP3    H1 5166   1.432   2.840   0.641  0.0999  1.1910  1.6244
 1720TIP3    H2 5167   1.393   2.981   0.600 -1.4782  0.6099  1.0528
 1721TIP3   OH2 5168   0.984   2.179   1.073 -0.0806  0.2304 -0.1980
 1721TIP3    H1 5169   0.998   2.140   0.987 -1.2970  2.4554 -1.5251
 1721TIP3    H2 5170   1.066   2.164   1.120 -0.0001 -2.5421 -1.0723
 1722TIP3   OH2 5171   0.453   4.063   4.432 -0.3787  0.1875  0.1044
 1722TIP3    H1 5172   0.396   3.988   4.415 -0.3961  0.0498  0.7362
 1722TIP3    H2 5173   0.449   4.115   4.352  0.4576 -1.0017 -0.7295
 1723TIP3   OH2 5174   5.659   5.089   4.410 -0.5357 -0.2028  0.1864
 1723TIP3    H1 5175   5.640   5.012   4.464 -1.8100 -0.0733 -0.0529
 1723TIP3    H2 5176   5.701   5.150   4.471  0.0913 -0.9074  0.4796
 1724TIP3   OH2 5177   1.461   5.027   2.865 -0.0656  0.2976  0.3879
 1724TIP3    H1 5178   1.513   4.947   2.867 -0.0351  0.3300  0.9240
 1724TIP3    H2 5179   1.491   5.073   2.786  1.5362  0.8544  1.2794
 1725TIP3   OH2 5180   3.931   2.409   2.438  0.5987  0.2964  0.2007
 1725TIP3    H1 5181   3.845   2.410   2.397  0.7438  0.9676 -0.1084
 1725TIP3    H2 5182   3.931   2.331   2.493 -0.1462  0.2053  0.0792
 1726TIP3   OH2 5183   0.821   0.660   2.736 -0.1527 -0.2341 -0.1853
 1726TIP3    H1 5184   0.860   0.594   2.679  0.8092  1.6020 -1.7801
 1726TIP3    H2 5185   0.735   0.624   2.758 -0.4642 -1.2118 -2.6028
 1727TIP3   OH2 5186   2.542   1.890   0.883 -0.4595  0.3656  0.3692
 1727TIP3    H1 5187   2.477   1.838   0.930 -0.0096  0.8904  1.6240
 1727TIP3    H2 5188   2.496   1.971   0.861 -0.8946 -0.1669 -0.8113
 1728TIP3   OH2 5189   5.754   3.655   3.341  0.4419 -0.4900 -0.3271
 1728TIP3    H1 5190   5.832   3.710   3.332  0.5568 -0.4402  0.7866
 1728TIP3    H2 5191   5.705   3.670   3.260  1.7988 -0.8763 -1.2516
 1729TIP3   OH2 5192   5.638   5.447   2.937  0.5802  0.2306  0.0247
 1729TIP3    H1 5193   5.726   5.447   2.976  0.3288  2.5191  0.7476
 1729TIP3    H2 5194   5.640   5.520   2.875 -1.0536  0.8782  0.6759
 1730TIP3   OH2 5195   5.804   0.915   4.308  0.7646 -0.5009  0.5357
 1730TIP3    H1 5196   5.773   0.825   4.322  1.1060 -0.7402 -0.1716
 1730TIP3    H2 5197   5.899   0.907   4.304  0.7642 -0.2325 -0.3103
 1731TIP3   OH2 5198   5.598   0.180   3.294 -0.1261 -0.0661  0.2762
 1731TIP3    H1 5199   5.544   0.210   3.367  0.2888  0.8492  0.2243
 1731TIP3    H2 5200   5.544   0.116   3.248 -0.1881 -1.1022  1.7066
 1732TIP3   OH2 5201   3.453   0.764   4.889 -0.3741 -0.3623  0.2315
 1732TIP3    H1 5202   3.358   0.775   4.878 -0.3869 -0.5137  0.1807
 1732TIP3    H2 5203   3.477   0.825   4.958  0.0904  2.3186 -2.1372
 1733TIP3   OH2 5204   2.360   1.935   3.032  0.3520  0.3664  0.3533
 1733TIP3    H1 5205   2.270   1.907   3.051 -0.0120  1.4962  0.3379
 1733TIP3    H2 5206   2.405   1.854   3.010 -0.4934 -0.3129  1.0159
 1734TIP3   OH2 5207   0.951   5.072   4.400  0.4917  0.2757 -0.1879
 1734TIP3    H1 5208   0.949   5.134   4.327  0.0163  1.9038  1.1594
 1734TIP3    H2 5209   0.891   5.002   4.373  0.0223  1.0392 -1.1879
 1735TIP3   OH2 5210   3.748   0.117   4.884 -0.0910 -0.1144  0.0457
 1735TIP3    H1 5211   3.791   0.085   4.806  1.7425 -1.9479  1.7059
 1735TIP3    H2 5212   3.655   0.103   4.868  0.1816  0.2095 -2.0294
 1736TIP3   OH2 5213   5.872   1.148   0.641 -0.0256  0.4362  0.3554
 1736TIP3    H1 5214   5.805   1.096   0.598  0.2609 -0.0418  0.4697
 1736TIP3    H2 5215   5.824   1.205   0.701 -0.3575  0.4198  0.1062
 1737TIP3   OH2 5216   4.515   4.305   2.435  0.3944 -0.3615  0.0408
 1737TIP3    H1 5217   4.569   4.369   2.390 -0.0772 -1.0496 -1.5728
 1737TIP3    H2 5218   4.567   4.279   2.511  1.8061 -0.1146 -0.8043
 1738TIP3   OH2 5219   1.445   0.851   4.721  0.4819  0.5586 -0.5115
 1738TIP3    H1 5220   1.476   0.761   4.713 -1.7116 -0.5176  1.6274
 1738TIP3    H2 5221   1.475   0.879   4.808  0.1794  1.4831 -0.6911
 1739TIP3   OH2 5222   4.501   5.921   1.520 -0.2941  0.0767  0.2549
 1739TIP3    H1 5223   4.409   5.904   1.537 -0.8395  0.2939 -2.1073
 1739TIP3    H2 5224   4.528   5.981   1.589 -2.4691  1.6038 -0.1378
 1740TIP3   OH2 5225   0.682   5.879   2.102  0.0731  0.1699  0.2515
 1740TIP3    H1 5226   0.770   5.879   2.064 -0.1656  0.3633 -0.3269
 1740TIP3    H2 5227   0.654   5.971   2.098 -1.4244 -0.2804 -2.6727
 1741TIP3   OH2 5228   0.040   0.519   0.946 -0.0776 -0.1034  0.4234
 1741TIP3    H1 5229   0.095   0.508   1.024  0.3642 -0.9673  0.0052
 1741TIP3    H2 5230   0.018   0.430   0.919  0.4000  0.1379 -0.8619
 1742TIP3   OH2 5231   1.322   2.449   3.239  0.1442  0.2915  0.0518
 1742TIP3    H1 5232   1.249   2.455   3.300 -0.0296 -1.1736  0.0313
 1742TIP3    H2 5233   1.282   2.430   3.154  0.5446 -2.2682  0.3404
 1743TIP3   OH2 5234   6.302   2.471   0.276  0.7632 -0.0484 -0.4894
 1743TIP3    H1 5235   6.261   2.423   0.348  0.1649  0.9135 -0.1661
 1743TIP3    H2 5236   6.269   2.428   0.197 -0.8469  0.6215 -0.2423
 1744TIP3   OH2 5237   2.764   2.248   4.761 -0.2433  0.0517  0.1556
 1744TIP3    H1 5238   2.846   2.208   4.791 -0.5084 -1.9707 -1.5571
 1744TIP3    H2 5239   2.772   2.249   4.666 -0.5574  3.7015  0.0197
 1745TIP3   OH2 5240   4.720   1.665   1.186  0.3955  0.4722 -0.4433
 1745TIP3    H1 5241   4.719   1.621   1.100 -0.0651 -0.0982 -0.1579
 1745TIP3    H2 5242   4.777   1.610   1.240  0.5420  0.7312 -0.3345
 1746TIP3   OH2 5243   0.069   2.075   0.234 -0.3815  0.1337 -0.3665
 1746TIP3    H1 5244   0.057   1.985   0.265 -1.3910 -0.1690 -1.5118
 1746TIP3    H2 5245   0.133   2.113   0.293 -0.2405 -1.2176  0.3948
 1747TIP3   OH2 5246   5.419   4.873   3.954  0.5155  0.1757  0.1594
 1747TIP3    H1 5247   5.378   4.894   3.869  0.3037 -1.0312 -0.0521
 1747TIP3    H2 5248   5.442   4.958   3.991 -0.7331  0.8067 -0.4466
 1748TIP3   OH2 5249   2.072   2.844   3.361  0.2719  0.6093  0.5964
 1748TIP3    H1 5250   2.135   2.808   3.424  0.0018 -0.4768  0.2795
 1748TIP3    H2 5251   2.006   2.887   3.415 -0.1389 -0.5985  1.0953
 1749TIP3   OH2 5252   1.929   0.422   1.763 -0.6905 -0.2878 -1.0162
 1749TIP3    H1 5253   1.845   0.465   1.779 -0.0256  0.2280  1.5746
 1749TIP3    H2 5254   1.914   0.330   1.785  0.3278  0.4835  3.9370
 1750TIP3   OH2 5255   3.388   2.035   1.232  0.0469  0.4740 -0.9349
 1750TIP3    H1 5256   3.301   2.074   1.242 -0.3937 -0.8914  1.0496
 1750TIP3    H2 5257   3.449   2.109   1.240 -0.8759  1.3785 -1.9163
 1751TIP3   OH2 5258   2.860   0.181   2.082 -0.7841 -0.1233 -0.2762
 1751TIP3    H1 5259   2.831   0.241   2.014 -0.2687 -0.3692 -0.7215
 1751TIP3    H2 5260   2.836   0.224   2.164 -0.5589  0.6084 -0.5882
 1752TIP3   OH2 5261   0.791   0.151   1.276  0.3117 -0.6241  0.0182
 1752TIP3    H1 5262   0.728   0.183   1.211  0.3758  0.1980  0.3451
 1752TIP3    H2 5263   0.777   0.208   1.352  0.4054 -1.4190  0.6329
 1753TIP3   OH2 5264   4.032   0.866   2.909 -0.1988  0.1082  0.5527
 1753TIP3    H1 5265   4.029   0.771   2.907  1.7624  0.0080  0.7622
 1753TIP3    H2 5266   4.045   0.891   2.818 -1.9074  0.2882  0.3118
 1754TIP3   OH2 5267   4.010   0.809   2.484  0.3762 -0.2110  0.2461
 1754TIP3    H1 5268   4.079   0.757   2.443  1.2378  0.2991  1.0062
 1754TIP3    H2 5269   4.057   0.876   2.533 -0.6756  1.3782 -0.7957
 1755TIP3   OH2 5270   0.052   4.229   4.383 -0.0209 -0.1231  0.1664
 1755TIP3    H1 5271   0.085   4.179   4.458 -1.1917  1.1892  1.6130
 1755TIP3    H2 5272  -0.025   4.179   4.354  0.3846 -0.5901 -0.1199
 1756TIP3   OH2 5273   1.885   5.501   3.821  0.0011  0.0531  0.6064
 1756TIP3    H1 5274   1.926   5.419   3.795 -0.5203  0.5401 -2.0218
 1756TIP3    H2 5275   1.937   5.569   3.778 -0.9609  0.9495  0.8174
 1757TIP3   OH2 5276   1.209   4.148   0.447 -0.0184  0.2972 -0.2650
 1757TIP3    H1 5277   1.216   4.137   0.541  0.9999  0.3222 -0.3277
 1757TIP3    H2 5278   1.179   4.238   0.435 -0.1559  0.2903  0.0308
 1758TIP3   OH2 5279   1.894   5.785   3.737 -0.2074  0.3283 -0.0824
 1758TIP3    H1 5280   1.815   5.796   3.685  0.1294  0.5089 -0.5664
 1758TIP3    H2 5281   1.965   5.812   3.679  0.0881  1.7539  0.8665
 1759TIP3   OH2 5282   0.906   1.909   4.217 -0.2926  0.2827  0.3910
 1759TIP3    H1 5283   0.999   1.897   4.198  0.3366  1.8022  2.1694
 1759TIP3    H2 5284   0.880   1.982   4.161 -0.4299 -0.1238 -0.0856
 1760TIP3   OH2 5285   0.711   3.526   3.359  0.5604 -0.3019 -0.5515
 1760TIP3    H1 5286   0.704   3.541   3.453  1.5596 -0.8014 -0.3847
 1760TIP3    H2 5287   0.642   3.464   3.339  0.2779 -0.1132 -0.1673
 1761TIP3   OH2 5288   1.690   5.678   1.519  0.2420 -0.8311 -0.1671
 1761TIP3    H1 5289   1.714   5.723   1.600  0.0506 -1.8552  0.4761
 1761TIP3    H2 5290   1.698   5.745   1.451 -3.4605  1.2393  1.1733
 1762TIP3   OH2 5291   3.841   5.387   0.854  0.3979 -0.5889 -0.4084
 1762TIP3    H1 5292   3.761   5.359   0.809 -0.2821 -0.1065  0.4692
 1762TIP3    H2 5293   3.871   5.309   0.901  1.3432 -1.2154 -1.9746
 1763TIP3   OH2 5294   1.705   4.641   2.650 -0.2414 -0.0270  0.2855
 1763TIP3    H1 5295   1.779   4.701   2.646 -1.0410  0.9208 -0.7272
 1763TIP3    H2 5296   1.658   4.666   2.728  0.1474 -0.2184  0.5864
 1764TIP3   OH2 5297   4.592   2.767   4.957  0.7487 -0.2486 -0.0975
 1764TIP3    H1 5298   4.565   2.675   4.956 -0.0986 -0.0192  0.7882
 1764TIP3    H2 5299   4.684   2.765   4.984  0.0678 -0.7012  2.4015
 1765TIP3   OH2 5300   5.843   2.263   3.578 -0.0311  0.4780  0.0126
 1765TIP3    H1 5301   5.815   2.354   3.562 -0.9792  0.0672 -0.7626
 1765TIP3    H2 5302   5.762   2.217   3.601 -0.1661 -0.8878 -2.8429
 1766TIP3   OH2 5303   3.701   5.322  -0.012  0.3415 -0.0424  0.1495
 1766TIP3    H1 5304   3.780   5.322   0.041  1.0069 -1.1826 -0.8020
 1766TIP3    H2 5305   3.635   5.281   0.043  0.7991 -0.4374  0.4092
 1767TIP3   OH2 5306   3.106   2.566   0.360  0.4295  0.2598 -0.0002
 1767TIP3    H1 5307   3.117   2.472   0.375  2.1063  0.3694 -0.3894
 1767TIP3    H2 5308   3.194   2.602   0.365 -0.2464  1.9048  0.6389
 1768TIP3   OH2 5309   3.631   5.897   2.907  0.1204  0.1036  0.3474
 1768TIP3    H1 5310   3.645   5.990   2.890 -2.7844  0.4791 -0.5567
 1768TIP3    H2 5311   3.617   5.892   3.002 -2.0092  1.0191  0.1274
 1769TIP3   OH2 5312   0.288   4.427   4.496  0.2849  0.6052 -0.2454
 1769TIP3    H1 5313   0.214   4.463   4.545 -1.0049  1.1186 -2.4565
 1769TIP3    H2 5314   0.310   4.346   4.543 -0.9765  0.9919  1.0759
 1770TIP3   OH2 5315   2.695   1.962   1.836  0.7138 -0.4878 -0.1942
 1770TIP3    H1 5316   2.718   2.023   1.906  0.1702 -1.9430  1.3139
 1770TIP3    H2 5317   2.738   1.998   1.758  2.1287  0.6731  1.0637
 1771TIP3   OH2 5318   5.783   2.174   3.935 -0.5382 -0.4680  0.0679
 1771TIP3    H1 5319   5.823   2.138   4.014  1.1655 -1.9708 -1.4088
 1771TIP3    H2 5320   5.840   2.246   3.909 -1.1630  0.1030  0.2284
 1772TIP3   OH2 5321   1.827   0.150   1.822  0.0883 -0.4683 -0.2862
 1772TIP3    H1 5322   1.905   0.094   1.823  0.2629 -0.2305 -0.4358
 1772TIP3    H2 5323   1.788   0.136   1.736  0.7890  0.5303 -0.7817
 1773TIP3   OH2 5324   3.740   2.303   4.143  0.0599  0.3863 -0.0136
 1773TIP3    H1 5325   3.657   2.317   4.190 -0.8479 -0.7650 -1.2050
 1773TIP3    H2 5326   3.761   2.211   4.159  0.9731  0.5970  0.0300
 1774TIP3   OH2 5327   0.504   1.954   4.780 -0.6892  0.1790 -0.5168
 1774TIP3    H1 5328   0.475   2.038   4.745 -1.0333  0.7597  1.0618
 1774TIP3    H2 5329   0.590   1.973   4.819  0.0568 -0.6327 -1.7030
 1775TIP3   OH2 5330   1.254   3.381   3.476  0.0223  0.0901  0.7444
 1775TIP3    H1 5331   1.308   3.340   3.544 -1.9076 -2.7402  0.7328
 1775TIP3    H2 5332   1.179   3.417   3.523 -2.5571 -3.9484  0.1937
 1776TIP3   OH2 5333   0.634   5.000   4.546  0.5850  0.6758  0.6063
 1776TIP3    H1 5334   0.595   5.082   4.518 -1.1183 -0.7739 -1.5536
 1776TIP3    H2 5335   0.679   4.966   4.468  0.7342 -0.7147  1.2532
 1777TIP3   OH2 5336   0.624   5.393   2.739  0.1363 -0.7243  0.5376
 1777TIP3    H1 5337   0.557   5.462   2.744  0.5850 -0.2150 -0.2511
 1777TIP3    H2 5338   0.645   5.373   2.830 -2.0219 -1.8319  0.8644
 1778TIP3   OH2 5339   4.522   3.391   2.459  0.2422  0.4088  0.6145
 1778TIP3    H1 5340   4.520   3.430   2.546 -1.4983 -0.8744  1.2050
 1778TIP3    H2 5341   4.433   3.360   2.444  1.0377 -1.4242 -0.6948
 1779TIP3   OH2 5342   5.083   4.649   3.878 -0.4981 -0.0427 -0.4598
 1779TIP3    H1 5343   5.042   4.653   3.964  0.6819  0.6427  0.1048
 1779TIP3    H2 5344   5.163   4.598   3.893  1.1162  2.3319 -0.4997
 1780TIP3   OH2 5345   4.251   1.554   2.382  0.1264 -0.0697  0.4895
 1780TIP3    H1 5346   4.259   1.597   2.297  1.4418 -1.0336  0.0940
 1780TIP3    H2 5347   4.310   1.603   2.440  0.8828 -0.7318  0.2864
 1781TIP3   OH2 5348   3.106   0.152   2.188  0.3217  0.0784 -0.1509
 1781TIP3    H1 5349   3.084   0.071   2.233  1.0701  0.0648  0.2199
 1781TIP3    H2 5350   3.023   0.187   2.157 -0.2712  0.2406  1.5214
 1782TIP3   OH2 5351   1.733   0.032   3.965 -0.6677  0.1439 -0.9338
 1782TIP3    H1 5352   1.713  -0.056   3.932 -0.6737 -0.8764  1.5721
 1782TIP3    H2 5353   1.819   0.024   4.005 -0.1654  1.6025 -1.6522
 1783TIP3   OH2 5354   6.029   1.643   3.482 -0.5171  0.2602 -0.1554
 1783TIP3    H1 5355   6.009   1.621   3.391 -1.1705 -0.2961  0.1224
 1783TIP3    H2 5356   6.024   1.739   3.485 -1.1380  0.2455 -0.5589
 1784TIP3   OH2 5357   3.564   2.096   0.837  0.3135  0.2942 -0.0480
 1784TIP3    H1 5358   3.545   2.183   0.872  0.3572  0.1336  0.3813
 1784TIP3    H2 5359   3.659   2.085   0.850  0.1409 -0.2291  0.8588
 1785TIP3   OH2 5360   3.693   5.186   1.647  0.0088  0.3468 -0.1956
 1785TIP3    H1 5361   3.606   5.225   1.637 -0.0364  0.5546  0.8672
 1785TIP3    H2 5362   3.684   5.096   1.616 -1.0413 -0.1641  1.4663
 1786TIP3   OH2 5363   4.843   4.991   3.069  0.2284  0.3006  0.3938
 1786TIP3    H1 5364   4.861   5.012   2.978 -2.4049  0.5267 -0.1629
 1786TIP3    H2 5365   4.926   5.008   3.115  1.5505  0.3683 -1.8918
 1787TIP3   OH2 5366   2.080   1.131   1.537 -0.0430 -0.5499  0.0262
 1787TIP3    H1 5367   2.048   1.077   1.609 -1.3236  0.4395  0.2474
 1787TIP3    H2 5368   2.137   1.073   1.487 -0.8118 -1.8922  0.6399
 1788TIP3   OH2 5369   2.373   5.505   4.221  0.6742  0.1198  0.3368
 1788TIP3    H1 5370   2.415   5.588   4.197 -1.9511  1.7943  1.0839
 1788TIP3    H2 5371   2.350   5.516   4.313 -0.4723 -1.0957  0.2249
 1789TIP3   OH2 5372   6.216   0.054   4.482 -0.2290 -0.7727 -0.3062
 1789TIP3    H1 5373   6.283   0.060   4.414 -0.4613 -1.0348 -0.5651
 1789TIP3    H2 5374   6.264   0.043   4.564  0.1176  1.0844 -0.2172
 1790TIP3   OH2 5375   3.087   3.133   2.098  0.3564  0.1137 -0.2699
 1790TIP3    H1 5376   3.142   3.190   2.152 -0.3998  0.0091  0.6423
 1790TIP3    H2 5377   3.142   3.111   2.023  0.6757  2.0135 -0.6447
 1791TIP3   OH2 5378   3.244   1.387   5.172 -0.2751  0.6322  0.0443
 1791TIP3    H1 5379   3.255   1.437   5.091 -0.3595 -3.2949 -2.6376
 1791TIP3    H2 5380   3.151   1.395   5.193 -0.5275  0.6135 -1.0411
 1792TIP3   OH2 5381   0.339   4.184   4.650 -0.2209 -0.1338 -0.0065
 1792TIP3    H1 5382   0.373   4.144   4.570  0.8589  2.3844 -0.9054
 1792TIP3    H2 5383   0.414   4.186   4.710 -1.0743 -2.2000  1.2418
 1793TIP3   OH2 5384   2.454   0.261   0.481  0.1841 -0.5170 -0.2703
 1793TIP3    H1 5385   2.513   0.319   0.529  1.8615 -2.2731 -0.0881
 1793TIP3    H2 5386   2.405   0.319   0.422  1.2045  1.1436  0.4627
 1794TIP3   OH2 5387   3.142   2.978   0.697  0.3378  0.2195  0.3067
 1794TIP3    H1 5388   3.121   2.894   0.656 -0.1466 -0.6584  2.2496
 1794TIP3    H2 5389   3.073   2.991   0.762  1.0957  1.5330  0.8852
 1795TIP3   OH2 5390   2.059   1.702   1.728  0.1569  0.3962 -0.0405
 1795TIP3    H1 5391   1.967   1.707   1.757  0.8996  1.1274  2.4848
 1795TIP3    H2 5392   2.094   1.789   1.748  1.4572  0.0551 -0.7803
 1796TIP3   OH2 5393   3.176   4.499   2.823 -0.3258 -0.3050  0.3785
 1796TIP3    H1 5394   3.153   4.499   2.730 -0.5122 -1.1752  0.4167
 1796TIP3    H2 5395   3.236   4.426   2.833 -1.1020 -0.8702  1.1209
 1797TIP3   OH2 5396   2.909   2.073   4.913  0.1503  0.0335 -0.2854
 1797TIP3    H1 5397   2.876   2.003   4.857  1.3678 -0.9141  0.1194
 1797TIP3    H2 5398   3.004   2.073   4.898  0.2543  1.1293  0.2568
 1798TIP3   OH2 5399   3.248   5.727   1.696 -0.3326  0.2461  0.4155
 1798TIP3    H1 5400   3.186   5.737   1.768 -0.7748 -1.5452  0.3229
 1798TIP3    H2 5401   3.242   5.635   1.671  0.6430  0.5674 -1.1683
 1799TIP3   OH2 5402   1.883   1.487   0.047  0.0344 -0.1380 -0.9174
 1799TIP3    H1 5403   1.963   1.523   0.008 -0.0022  0.0776 -0.7993
 1799TIP3    H2 5404   1.862   1.410  -0.006  1.0850 -1.0122 -0.0991
 1800TIP3   OH2 5405   4.399   3.055   0.376 -0.6700 -0.1655 -0.6010
 1800TIP3    H1 5406   4.430   3.111   0.447  0.6465 -0.8025 -0.6603
 1800TIP3    H2 5407   4.373   3.117   0.307  2.8274  0.4784 -1.5512
 1801TIP3   OH2 5408   4.322   3.336   0.784  0.4582  0.0207 -0.0386
 1801TIP3    H1 5409   4.226   3.340   0.786  0.4437 -0.4823  0.8774
 1801TIP3    H2 5410   4.349   3.401   0.849  0.8089  1.4490 -1.5383
 1802TIP3   OH2 5411   5.366   0.183   2.135  0.9721  0.2307  0.4312
 1802TIP3    H1 5412   5.385   0.272   2.163  3.0349 -0.0835  0.2429
 1802TIP3    H2 5413   5.316   0.145   2.207 -0.1500  1.5718  0.4095
 1803TIP3   OH2 5414   5.987   4.515   4.523  0.8155  0.0883  0.1903
 1803TIP3    H1 5415   6.006   4.489   4.432  2.7059  0.2346  0.5094
 1803TIP3    H2 5416   5.935   4.595   4.515 -0.2668 -0.6769 -0.7576
 1804TIP3   OH2 5417   2.630   3.835   4.283  0.4284  0.7433  0.2630
 1804TIP3    H1 5418   2.628   3.840   4.187 -0.1619 -0.6630  0.1884
 1804TIP3    H2 5419   2.545   3.868   4.311  0.1642  0.0926  0.2389
 1805TIP3   OH2 5420   2.993   0.033   4.742  0.4022 -0.1918 -0.4343
 1805TIP3    H1 5421   2.929  -0.035   4.758 -1.5327  1.7975  0.8247
 1805TIP3    H2 5422   2.992   0.046   4.647  0.0768 -1.2176 -0.5759
 1806TIP3   OH2 5423   3.854   4.922   3.978 -0.5596 -0.4183 -0.3306
 1806TIP3    H1 5424   3.882   4.918   4.069  1.2666  1.4953 -0.7270
 1806TIP3    H2 5425   3.931   4.891   3.928 -0.8954  0.2418 -1.2831
 1807TIP3   OH2 5426   6.007   3.787   3.737 -0.6792  0.4590 -0.3687
 1807TIP3    H1 5427   5.936   3.843   3.706 -1.9867 -2.1833 -2.6456
 1807TIP3    H2 5428   5.987   3.770   3.829 -1.7838  1.4534 -0.4125
 1808TIP3   OH2 5429   2.352   0.108   4.169  0.2369  0.2778  0.4483
 1808TIP3    H1 5430   2.303   0.188   4.151  0.0430  0.2940  1.0088
 1808TIP3    H2 5431   2.333   0.089   4.261  1.5567  0.4735  0.7761
 1809TIP3   OH2 5432   1.901   0.052   2.163  0.0118 -0.6913  0.4783
 1809TIP3    H1 5433   1.813   0.089   2.175  0.0566  0.7292 -2.6365
 1809TIP3    H2 5434   1.959   0.128   2.165  0.6008 -1.0009 -1.9593
 1810TIP3   OH2 5435   4.370   1.170   1.947  0.5100  0.1295  0.0833
 1810TIP3    H1 5436   4.449   1.222   1.932  2.0280 -1.0052  3.1553
 1810TIP3    H2 5437   4.354   1.178   2.042 -0.4343 -3.1801  0.3299
 1811TIP3   OH2 5438   4.121   5.161   2.794 -0.1613 -0.0104  0.1649
 1811TIP3    H1 5439   4.158   5.152   2.881 -1.4637 -1.1664  0.6358
 1811TIP3    H2 5440   4.175   5.105   2.738  0.7752  0.8618  0.1817
 1812TIP3   OH2 5441   1.447   5.661   3.960 -0.3396  0.3923  0.1981
 1812TIP3    H1 5442   1.422   5.752   3.941  1.1475  0.7902 -0.0066
 1812TIP3    H2 5443   1.537   5.667   3.991 -0.3826 -0.9809  0.6508
 1813TIP3   OH2 5444   6.165   1.196   1.667 -0.1626 -0.5308  0.1970
 1813TIP3    H1 5445   6.238   1.134   1.659 -0.1917 -0.6124  0.5496
 1813TIP3    H2 5446   6.102   1.166   1.602 -0.3875 -1.1740  0.7015
 1814TIP3   OH2 5447   3.901   1.893   1.784  0.2009 -0.0574 -0.6210
 1814TIP3    H1 5448   3.825   1.930   1.740 -1.7051 -2.5375  0.3038
 1814TIP3    H2 5449   3.968   1.885   1.716 -0.9741  0.5796 -1.8847
 1815TIP3   OH2 5450   4.379   4.501   1.203 -0.1989  0.2845  0.5325
 1815TIP3    H1 5451   4.400   4.412   1.176  0.1439  0.7751 -0.9133
 1815TIP3    H2 5452   4.395   4.502   1.298  1.9935 -0.5943  0.2267
 1816TIP3   OH2 5453   5.508   2.663   2.362 -0.5498 -0.0417 -0.3759
 1816TIP3    H1 5454   5.573   2.730   2.382 -0.5641 -0.1838  0.1494
 1816TIP3    H2 5455   5.443   2.671   2.432 -1.7863  0.9691 -1.5684
 1817TIP3   OH2 5456   2.354   3.189   1.793  0.1574  0.0114  0.0316
 1817TIP3    H1 5457   2.308   3.170   1.711  2.6258 -0.1444 -1.3990
 1817TIP3    H2 5458   2.413   3.261   1.771  0.0392  0.7828  2.0301
 1818TIP3   OH2 5459   4.951   2.159   2.059  0.5999  0.1570  0.9709
 1818TIP3    H1 5460   4.944   2.079   2.008  0.3972  0.3764  0.6450
 1818TIP3    H2 5461   4.863   2.171   2.096 -0.0944  1.5006 -0.9461
 1819TIP3   OH2 5462   2.177   0.274   3.571 -0.4140 -0.4795 -0.2083
 1819TIP3    H1 5463   2.215   0.206   3.515  0.0014 -0.0901 -0.4055
 1819TIP3    H2 5464   2.162   0.348   3.513  0.3588  0.0534  0.2565
 1820TIP3   OH2 5465   1.310   4.662   0.547  0.6832  0.0040  0.6650
 1820TIP3    H1 5466   1.354   4.615   0.618 -0.9198  1.0680  2.4357
 1820TIP3    H2 5467   1.372   4.732   0.524  1.7452 -1.0712  0.1118
 1821TIP3   OH2 5468   0.129   5.596   0.621  0.1976 -0.3165 -0.5473
 1821TIP3    H1 5469   0.065   5.659   0.588 -0.6641 -0.9922 -0.2254
 1821TIP3    H2 5470   0.076   5.524   0.656  1.1528 -1.5787 -1.5722
 1822TIP3   OH2 5471   4.772   3.508   0.764  0.4163  0.7809 -0.1517
 1822TIP3    H1 5472   4.734   3.577   0.709 -0.8777 -0.3403 -0.7176
 1822TIP3    H2 5473   4.847   3.476   0.713  0.3741  1.0419 -0.3824
 1823TIP3   OH2 5474   1.691   1.866   1.660  0.0441  0.1699  0.2822
 1823TIP3    H1 5475   1.679   1.788   1.605 -0.6239  0.8887 -0.6426
 1823TIP3    H2 5476   1.639   1.934   1.616  0.0995  0.9735  1.4120
 1824TIP3   OH2 5477   4.976   2.847   0.957  0.2001  0.9585  0.5929
 1824TIP3    H1 5478   5.043   2.883   1.015  1.4873  1.6629 -1.2309
 1824TIP3    H2 5479   5.001   2.878   0.870 -0.1522 -2.1327 -0.7458
 1825TIP3   OH2 5480   6.102   2.112   1.122 -0.3375  0.0116  0.3337
 1825TIP3    H1 5481   6.070   2.201   1.115  0.2596  0.3238  1.3926
 1825TIP3    H2 5482   6.043   2.069   1.183  0.4745  0.2293  1.2993
 1826TIP3   OH2 5483   1.021   3.495   1.402  0.0790 -0.3538 -0.1008
 1826TIP3    H1 5484   1.091   3.439   1.435  0.2087 -0.6461 -0.8618
 1826TIP3    H2 5485   1.007   3.559   1.472  2.4750  0.9605 -0.7176
 1827TIP3   OH2 5486   5.795   0.085   2.019  0.5086  0.0571 -0.1868
 1827TIP3    H1 5487   5.815   0.166   1.972  1.7602 -0.5766 -0.8057
 1827TIP3    H2 5488   5.718   0.050   1.976  0.4997  0.4656 -0.5067
 1828TIP3   OH2 5489   0.982   4.906   0.468  0.0249  0.5696  0.2951
 1828TIP3    H1 5490   0.931   4.942   0.395 -1.1415 -0.9313  0.3190
 1828TIP3    H2 5491   1.073   4.907   0.437 -0.5919 -1.4092 -1.8302
 1829TIP3   OH2 5492   2.884   5.213   2.046  0.0147 -0.6193  0.1628
 1829TIP3    H1 5493   2.823   5.188   2.116  0.4991 -1.0858  0.4287
 1829TIP3    H2 5494   2.886   5.308   2.049  0.6790 -0.6524  1.3590
 1830TIP3   OH2 5495   0.413   3.769   4.562 -0.5093 -0.3610  0.1797
 1830TIP3    H1 5496   0.447   3.778   4.473 -0.9036 -0.0143  0.0594
 1830TIP3    H2 5497   0.480   3.719   4.609 -0.7340 -1.3849 -0.5612
 1831TIP3   OH2 5498   5.033   1.866   0.022 -0.1697  0.0801 -0.0707
 1831TIP3    H1 5499   4.990   1.782   0.005  0.3590 -0.4383  1.0611
 1831TIP3    H2 5500   5.119   1.842   0.057  0.2393  1.1005 -0.3388
 1832TIP3   OH2 5501   2.017   1.346   4.629  0.1340  0.3225  0.0029
 1832TIP3    H1 5502   1.942   1.293   4.657 -0.2346  1.1376  0.6229
 1832TIP3    H2 5503   2.093   1.301   4.666 -0.1909  0.3117  0.6837
 1833TIP3   OH2 5504   0.116   3.565   4.738  0.2687 -0.5317 -0.1879
 1833TIP3    H1 5505   0.119   3.524   4.652 -0.2243 -0.9150 -0.0313
 1833TIP3    H2 5506   0.024   3.585   4.752  0.6018  1.5607 -0.6679
 1834TIP3   OH2 5507   4.118   0.276   3.737 -0.0264 -0.1213 -0.3114
 1834TIP3    H1 5508   4.076   0.248   3.656 -0.0229 -0.1434 -0.3054
 1834TIP3    H2 5509   4.123   0.196   3.790  0.0384 -0.1223 -0.3187
 1835TIP3   OH2 5510   2.080   2.086   2.581 -0.3062 -0.1068  0.1500
 1835TIP3    H1 5511   2.012   2.073   2.515 -1.5198  0.1761  1.3072
 1835TIP3    H2 5512   2.136   2.155   2.544  0.3763 -1.4771 -1.5522
 1836TIP3   OH2 5513   0.446   3.511   3.178  0.2608  0.0314 -0.0488
 1836TIP3    H1 5514   0.501   3.460   3.119  1.3168  0.6462  0.3710
 1836TIP3    H2 5515   0.429   3.593   3.130  0.8105  0.3775  0.3326
 1837TIP3   OH2 5516   3.531   0.893   0.666 -0.0337  0.3959  0.2850
 1837TIP3    H1 5517   3.456   0.936   0.625 -0.1801  0.5398  0.6989
 1837TIP3    H2 5518   3.607   0.932   0.623 -0.1930  0.1316 -0.2535
 1838TIP3   OH2 5519   3.910   5.823   0.010 -0.5444 -0.1138  0.4142
 1838TIP3    H1 5520   3.878   5.785   0.091 -0.7871 -1.7177 -0.3868
 1838TIP3    H2 5521   3.980   5.883   0.036 -0.3840 -0.8680  1.7730
 1839TIP3   OH2 5522   0.364   4.666   4.655 -0.9671  0.6036  0.1437
 1839TIP3    H1 5523   0.427   4.636   4.590 -0.0747 -0.2784  1.3875
 1839TIP3    H2 5524   0.412   4.732   4.706 -1.6820  1.3390 -0.1102
 1840TIP3   OH2 5525   0.306   1.641   4.343 -0.0202 -0.2503 -0.5778
 1840TIP3    H1 5526   0.372   1.693   4.390 -1.0253  0.1029  0.5173
 1840TIP3    H2 5527   0.338   1.637   4.253  2.0802 -1.0961  0.1508
 1841TIP3   OH2 5528   3.100   1.975   3.932 -0.3151 -0.1390 -0.2374
 1841TIP3    H1 5529   3.128   1.961   3.841 -0.3054  1.5258 -0.5085
 1841TIP3    H2 5530   3.179   1.962   3.984 -0.3910 -1.4394 -0.3958
 1842TIP3   OH2 5531   0.220   2.321   3.690 -0.3250 -0.1818  0.1812
 1842TIP3    H1 5532   0.221   2.296   3.782  1.2092 -1.1536 -0.0648
 1842TIP3    H2 5533   0.311   2.311   3.661 -0.4386  1.7471 -1.0142
 1843TIP3   OH2 5534   2.981   1.229   4.291 -0.5599 -0.0435  0.4621
 1843TIP3    H1 5535   3.007   1.168   4.222  1.1370 -0.6528  1.5659
 1843TIP3    H2 5536   3.025   1.311   4.269  0.4470 -0.3966  1.0637
 1844TIP3   OH2 5537   5.782   2.172   3.323 -0.2524 -0.2532  0.1519
 1844TIP3    H1 5538   5.787   2.077   3.315  1.3610 -0.2998  1.1392
 1844TIP3    H2 5539   5.757   2.187   3.415  0.3343  0.2733  0.2323
 1845TIP3   OH2 5540   1.917   2.095   0.990 -0.3012 -0.5498  1.1895
 1845TIP3    H1 5541   1.933   2.007   1.026 -0.1842 -0.3229  1.6924
 1845TIP3    H2 5542   2.000   2.141   1.000  0.5348 -1.2416 -1.6251
 1846TIP3   OH2 5543   4.054   3.455   2.787  0.6852 -0.1322 -0.0468
 1846TIP3    H1 5544   4.047   3.360   2.781 -0.3688  0.0160 -3.4301
 1846TIP3    H2 5545   3.983   3.481   2.844 -0.0827 -1.3078 -0.4293
 1847TIP3   OH2 5546   5.084   4.899   2.862  1.1418 -0.6000 -0.0047
 1847TIP3    H1 5547   5.005   4.934   2.820  0.3978 -3.0980 -0.8753
 1847TIP3    H2 5548   5.156   4.949   2.824  0.3240 -1.4214 -2.8623
 1848TIP3   OH2 5549   2.997   0.148   4.168 -0.2529  0.2608 -0.4989
 1848TIP3    H1 5550   2.948   0.066   4.180  2.0222 -1.2004 -0.4908
 1848TIP3    H2 5551   3.046   0.135   4.087 -0.7948  2.1762 -1.1772
 1849TIP3   OH2 5552   2.791   2.987   4.637 -0.8309  0.0960  0.0113
 1849TIP3    H1 5553   2.863   2.940   4.679 -0.7435 -0.8052 -1.0909
 1849TIP3    H2 5554   2.712   2.939   4.664 -0.7421 -0.7362 -1.1069
 1850TIP3   OH2 5555   4.824   0.733   0.156  1.1351  0.5481  0.0875
 1850TIP3    H1 5556   4.912   0.712   0.187  1.3597  1.1636 -0.1106
 1850TIP3    H2 5557   4.811   0.678   0.079  1.1167  0.0333  0.4557
 1851TIP3   OH2 5558   2.365   3.603   4.551 -0.7430  0.3873 -0.2987
 1851TIP3    H1 5559   2.347   3.662   4.624 -0.8735  0.4144 -0.3521
 1851TIP3    H2 5560   2.444   3.637   4.511 -0.0675 -0.2377  0.4693
 1852TIP3   OH2 5561   1.310   1.869   0.053  0.0650 -0.3722 -0.3095
 1852TIP3    H1 5562   1.332   1.890  -0.037 -0.4030  0.7444 -0.1791
 1852TIP3    H2 5563   1.223   1.907   0.066  0.5509  0.3751  0.9032
 1853TIP3   OH2 5564   6.079   0.215   5.109  0.3082  0.2807 -0.1291
 1853TIP3    H1 5565   6.160   0.193   5.063  1.0431  0.3520  1.0794
 1853TIP3    H2 5566   6.028   0.265   5.045  0.2108 -1.6772 -1.6727
 1854TIP3   OH2 5567   1.081   1.113   4.244 -0.1718  0.5614  0.1820
 1854TIP3    H1 5568   1.132   1.073   4.315  1.1782  1.6785 -0.0983
 1854TIP3    H2 5569   0.991   1.113   4.276  0.4337  1.2917  2.0667
 1855TIP3   OH2 5570   5.648   0.153   2.258 -0.9038  0.4724 -0.3526
 1855TIP3    H1 5571   5.575   0.092   2.270 -0.4532 -0.0177 -0.0800
 1855TIP3    H2 5572   5.695   0.120   2.182 -1.2177  1.0478 -0.8036
 1856TIP3   OH2 5573   3.813   4.269   2.275  0.3387 -0.1768 -0.0684
 1856TIP3    H1 5574   3.838   4.187   2.318  2.2724  0.6329  0.4761
 1856TIP3    H2 5575   3.832   4.337   2.340  1.4188  0.9190 -1.4382
 1857TIP3   OH2 5576   4.401   1.559   1.711 -0.1913 -0.1484  0.3936
 1857TIP3    H1 5577   4.366   1.598   1.632 -0.2357 -0.2501  0.3625
 1857TIP3    H2 5578   4.410   1.466   1.690 -1.8899 -0.4941  1.0826
 1858TIP3   OH2 5579   0.546   4.386   1.835 -0.1582 -0.8243  0.1392
 1858TIP3    H1 5580   0.584   4.449   1.896 -0.3406  0.5297 -1.1087
 1858TIP3    H2 5581   0.572   4.417   1.748 -4.2503  0.4312 -0.8774
 1859TIP3   OH2 5582   1.977   4.216   4.981 -0.3523  0.0859 -0.3080
 1859TIP3    H1 5583   2.042   4.244   5.045  1.2785 -3.2574 -0.2728
 1859TIP3    H2 5584   1.898   4.267   5.003  1.3653  2.1631  1.5193
 1860TIP3   OH2 5585   4.077   5.175   1.446 -0.0021 -0.3969  0.0354
 1860TIP3    H1 5586   4.088   5.115   1.373 -1.5750 -0.4175 -0.2226
 1860TIP3    H2 5587   4.166   5.199   1.471  0.5968  0.7217 -2.7997
 1861TIP3   OH2 5588   3.537   5.797   0.779  0.5245  0.6204 -0.1407
 1861TIP3    H1 5589   3.629   5.802   0.805  0.6935 -1.5632 -0.0753
 1861TIP3    H2 5590   3.539   5.788   0.683  0.2638  2.0636 -0.3047
 1862TIP3   OH2 5591   5.934   1.195   2.795  0.2252 -0.5568 -0.0733
 1862TIP3    H1 5592   5.928   1.261   2.864  0.9519 -0.0483 -0.4806
 1862TIP3    H2 5593   6.016   1.216   2.749 -1.4529  0.7326 -2.7213
 1863TIP3   OH2 5594   1.849   3.071   2.258 -0.1068  0.4321 -0.6901
 1863TIP3    H1 5595   1.849   2.980   2.287  0.5908  1.0165  1.3098
 1863TIP3    H2 5596   1.941   3.089   2.236  0.3276  1.3779  1.5996
 1864TIP3   OH2 5597   5.567   2.317   1.099 -0.0467  0.6033 -0.2504
 1864TIP3    H1 5598   5.560   2.407   1.132  0.6684  0.5915 -0.0557
 1864TIP3    H2 5599   5.659   2.294   1.111 -0.5345 -0.7538  1.2566
 1865TIP3   OH2 5600   6.197   5.350   2.620  0.4411  0.0260 -0.3810
 1865TIP3    H1 5601   6.175   5.290   2.549  2.4044  1.3354 -2.2300
 1865TIP3    H2 5602   6.113   5.383   2.652 -0.5487 -1.7723 -0.9947
 1866TIP3   OH2 5603   4.671   0.527   5.120 -0.2391 -0.0430  0.3101
 1866TIP3    H1 5604   4.681   0.571   5.204 -0.9473 -1.7925  1.3605
 1866TIP3    H2 5605   4.760   0.520   5.085 -0.0194  1.3258  0.5588
 1867TIP3   OH2 5606   2.141   3.762   4.402  0.6271  0.1118 -0.0219
 1867TIP3    H1 5607   2.154   3.707   4.480  2.0050  2.3526  1.4392
 1867TIP3    H2 5608   2.069   3.820   4.424 -0.7775 -0.9453 -1.5361
 1868TIP3   OH2 5609   0.312   3.851   0.728 -0.4085  0.4527 -0.3040
 1868TIP3    H1 5610   0.258   3.776   0.703 -1.7377  1.4525 -0.6116
 1868TIP3    H2 5611   0.380   3.855   0.661 -0.7035 -0.1037 -0.6462
 1869TIP3   OH2 5612   0.741   0.013   2.871  0.4392  0.5915  0.2360
 1869TIP3    H1 5613   0.650  -0.016   2.869  0.5609  0.2176 -1.3396
 1869TIP3    H2 5614   0.761   0.025   2.964 -0.8095 -0.6058  0.6870
 1870TIP3   OH2 5615   4.637   2.448   3.126  0.0236  0.3743  0.1866
 1870TIP3    H1 5616   4.655   2.413   3.039  1.2157  0.5384  0.3555
 1870TIP3    H2 5617   4.543   2.433   3.138 -0.1811  0.4168 -1.1508
 1871TIP3   OH2 5618   2.073   1.962   1.665 -0.4384  0.3012 -0.0954
 1871TIP3    H1 5619   2.107   2.026   1.728 -0.4227  1.1786 -0.9702
 1871TIP3    H2 5620   2.000   2.007   1.622 -1.5317 -0.8869  0.4345
 1872TIP3   OH2 5621   1.537   5.407   1.295  0.9033  0.4827 -0.0980
 1872TIP3    H1 5622   1.577   5.484   1.254  2.3852  0.0496  0.4587
 1872TIP3    H2 5623   1.599   5.383   1.365  0.4386 -1.1753 -0.2283
 1873TIP3   OH2 5624   4.004   3.803   2.351  0.1130  0.5071  0.6334
 1873TIP3    H1 5625   4.053   3.773   2.427 -1.5530 -2.1265  0.7870
 1873TIP3    H2 5626   4.058   3.777   2.276 -0.4296 -1.3221  0.8317
 1874TIP3   OH2 5627   2.851   1.221   3.634  0.2897  0.3388 -0.2780
 1874TIP3    H1 5628   2.899   1.303   3.637  2.6123 -0.9303  2.5219
 1874TIP3    H2 5629   2.911   1.158   3.594 -0.3629 -0.5441  0.0727
 1875TIP3   OH2 5630   0.164   3.458   3.996  0.2199 -0.0342 -0.1045
 1875TIP3    H1 5631   0.143   3.372   3.958  0.4610  0.3693 -1.1925
 1875TIP3    H2 5632   0.121   3.521   3.938  0.9504  0.6200  0.0512
 1876TIP3   OH2 5633   3.299   1.072   0.572 -0.1145 -0.5767  0.3574
 1876TIP3    H1 5634   3.280   1.028   0.489 -3.0991 -0.1444  0.7024
 1876TIP3    H2 5635   3.299   1.165   0.550  1.5213 -0.5095  0.4799
 1877TIP3   OH2 5636   4.301   2.060   2.774 -0.6572 -0.0202  0.3682
 1877TIP3    H1 5637   4.235   2.107   2.825 -0.5034  1.0694 -0.4151
 1877TIP3    H2 5638   4.384   2.078   2.820 -0.8250 -1.0380  1.1051
 1878TIP3   OH2 5639   5.504   1.571   5.070  0.1309 -0.4269 -0.1204
 1878TIP3    H1 5640   5.454   1.637   5.022 -0.7713 -2.7468 -2.6258
 1878TIP3    H2 5641   5.467   1.573   5.158  0.7535  2.9006  0.1790
 1879TIP3   OH2 5642   2.835   4.364   4.214 -0.2444  0.0065 -0.1564
 1879TIP3    H1 5643   2.844   4.300   4.144 -0.4499  1.8739 -2.0033
 1879TIP3    H2 5644   2.751   4.406   4.197  0.2333  1.2857  0.5122
 1880TIP3   OH2 5645   5.742   1.750   1.840  0.0728 -0.0869 -0.0152
 1880TIP3    H1 5646   5.673   1.785   1.784 -0.6221 -2.8529 -1.0861
 1880TIP3    H2 5647   5.702   1.745   1.927 -0.1592  0.7295 -0.0669
 1881TIP3   OH2 5648   2.138   1.166   3.143 -0.1864  0.4590  0.1879
 1881TIP3    H1 5649   2.122   1.237   3.081  1.4403  0.7250  0.0527
 1881TIP3    H2 5650   2.142   1.087   3.089  1.8625  0.7678 -0.1639
 1882TIP3   OH2 5651   2.911   4.473   0.650 -0.3826 -0.8828  0.1216
 1882TIP3    H1 5652   2.901   4.482   0.555 -0.8962 -3.5188 -0.1528
 1882TIP3    H2 5653   2.879   4.556   0.685 -1.2684 -0.2652 -1.9459
 1883TIP3   OH2 5654   3.086   1.119   2.102 -0.0397  0.2074  0.1273
 1883TIP3    H1 5655   3.052   1.178   2.169  0.5812  0.1898  0.4726
 1883TIP3    H2 5656   3.092   1.034   2.146 -1.8178 -0.3603 -0.6414
 1884TIP3   OH2 5657   3.150   4.263   3.669  0.6896  0.0874  0.6850
 1884TIP3    H1 5658   3.135   4.198   3.600 -1.4464 -0.6569  1.7550
 1884TIP3    H2 5659   3.122   4.219   3.750 -2.3973  2.7384  1.2621
 1885TIP3   OH2 5660   2.409   5.485   1.026 -0.4180  0.9536  0.1680
 1885TIP3    H1 5661   2.411   5.437   0.943 -0.7763  0.1501  0.6079
 1885TIP3    H2 5662   2.329   5.455   1.069 -0.3882  1.5780  0.6839
 1886TIP3   OH2 5663   0.611   0.767   2.180 -0.0312  0.5475  0.6001
 1886TIP3    H1 5664   0.640   0.745   2.092 -0.3947 -0.4312  0.7129
 1886TIP3    H2 5665   0.529   0.815   2.168 -0.2511  0.1291  0.4157
 1887TIP3   OH2 5666   4.422   5.749   0.300  0.5148 -0.3555 -0.4381
 1887TIP3    H1 5667   4.372   5.695   0.239  1.6614 -1.7021 -0.2278
 1887TIP3    H2 5668   4.359   5.775   0.367 -0.2660 -0.6602 -1.0451
 1888TIP3   OH2 5669   0.693   5.450   3.800  0.2463  0.2133 -0.2241
 1888TIP3    H1 5670   0.678   5.440   3.705  0.3675  1.3147 -0.3730
 1888TIP3    H2 5671   0.661   5.368   3.838 -1.5390  0.4691 -1.0333
 1889TIP3   OH2 5672   4.961   0.240   4.901 -0.3482  0.0029  0.3054
 1889TIP3    H1 5673   4.937   0.303   4.968 -0.6706 -0.2592  0.4406
 1889TIP3    H2 5674   4.883   0.186   4.890  0.4853 -1.5380  1.5017
 1890TIP3   OH2 5675   5.650   5.553   2.169  0.0615  0.3466 -0.1205
 1890TIP3    H1 5676   5.574   5.498   2.153 -1.0031  2.4657 -3.3831
 1890TIP3    H2 5677   5.718   5.517   2.112  0.5414  0.2640  0.4949
 1891TIP3   OH2 5678   3.485   4.361   3.522 -0.0592 -0.5586 -0.6188
 1891TIP3    H1 5679   3.437   4.306   3.459  1.0272 -1.7187 -0.4633
 1891TIP3    H2 5680   3.476   4.450   3.487 -2.4254 -0.6927 -0.5175
 1892TIP3   OH2 5681   2.779   1.358   4.429  0.3481  0.0407  0.0102
 1892TIP3    H1 5682   2.789   1.353   4.524  1.4400  1.8387  0.0426
 1892TIP3    H2 5683   2.852   1.306   4.395  1.4695  1.4166  0.2097
 1893TIP3   OH2 5684   2.319   2.795   3.506 -0.0198  0.0387  0.5627
 1893TIP3    H1 5685   2.388   2.734   3.533 -0.3068 -0.8755 -0.7208
 1893TIP3    H2 5686   2.358   2.844   3.433 -0.2904  0.4148  0.6680
 1894TIP3   OH2 5687   4.975   3.522   4.036  0.3456 -0.6047 -0.3456
 1894TIP3    H1 5688   4.974   3.613   4.008 -1.3966 -0.7360 -0.8482
 1894TIP3    H2 5689   5.062   3.509   4.074  0.6447  1.2378 -0.3093
 1895TIP3   OH2 5690   3.281   3.558   4.831 -0.5542  0.5406 -0.6654
 1895TIP3    H1 5691   3.275   3.503   4.753  1.1824 -0.7391  0.0498
 1895TIP3    H2 5692   3.328   3.505   4.895 -1.9562  1.5531  1.2943
 1896TIP3   OH2 5693   1.315   5.092   4.413  0.2069  0.7140 -0.6128
 1896TIP3    H1 5694   1.338   5.092   4.320  1.4094  2.0673 -0.3571
 1896TIP3    H2 5695   1.275   5.178   4.428 -1.2169 -0.0110 -0.1408
 1897TIP3   OH2 5696   1.517   1.851   2.666 -0.2263 -0.0568 -0.0999
 1897TIP3    H1 5697   1.556   1.766   2.688 -0.3587 -0.3916 -1.1012
 1897TIP3    H2 5698   1.433   1.830   2.628 -0.2775  0.5334 -0.3276
 1898TIP3   OH2 5699   2.013   0.457   0.782  0.4021  0.5256  0.8243
 1898TIP3    H1 5700   2.095   0.409   0.769 -0.4885 -1.3401  1.7632
 1898TIP3    H2 5701   1.945   0.398   0.751 -0.6208  2.1914 -0.2909
 1899TIP3   OH2 5702   4.255   5.655   5.078 -0.1323 -0.0948 -0.7104
 1899TIP3    H1 5703   4.198   5.654   5.001  0.1643  1.8989 -1.0142
 1899TIP3    H2 5704   4.308   5.576   5.069 -2.8180 -2.0769 -0.3689
 1900TIP3   OH2 5705   3.820   4.629   0.296  0.1105  0.1051  0.1945
 1900TIP3    H1 5706   3.854   4.551   0.251 -0.2577 -0.3026  0.6140
 1900TIP3    H2 5707   3.845   4.702   0.239 -0.8061 -0.4435 -0.9584
 1901TIP3   OH2 5708   3.567   1.704   3.234 -0.3350 -0.4499  0.4948
 1901TIP3    H1 5709   3.603   1.641   3.296 -0.8399  0.3713  1.6534
 1901TIP3    H2 5710   3.525   1.770   3.289  0.0762  0.8348 -0.6959
 1902TIP3   OH2 5711   1.706   2.416   0.694  0.4745  0.1913  0.5264
 1902TIP3    H1 5712   1.706   2.377   0.782  0.4592  1.2391  1.0104
 1902TIP3    H2 5713   1.615   2.409   0.666  0.2259  0.9246  1.1052
 1903TIP3   OH2 5714   3.667   0.654   1.815 -0.0013 -0.0141  0.2432
 1903TIP3    H1 5715   3.682   0.749   1.821 -2.4294  0.4583 -0.2810
 1903TIP3    H2 5716   3.686   0.632   1.724 -0.9210  0.2920 -0.0344
 1904TIP3   OH2 5717   2.759   3.300   2.518  0.3587 -0.2689  0.5276
 1904TIP3    H1 5718   2.670   3.325   2.492  0.7218  0.5169 -0.0005
 1904TIP3    H2 5719   2.795   3.257   2.441 -0.0070 -1.8343  1.1880
 1905TIP3   OH2 5720   4.310   3.099   4.432  0.1044 -0.3326 -0.9382
 1905TIP3    H1 5721   4.380   3.134   4.376  0.6401 -0.5465 -0.4170
 1905TIP3    H2 5722   4.230   3.137   4.397  0.5158  0.1700 -1.3510
 1906TIP3   OH2 5723   0.154   1.796   2.159  0.7629  0.0404  0.2864
 1906TIP3    H1 5724   0.183   1.713   2.196  0.2724  0.1629  0.9525
 1906TIP3    H2 5725   0.236   1.844   2.143  0.9755  0.2721  1.8824
 1907TIP3   OH2 5726   5.676   2.956   1.021 -0.1504 -0.8286 -0.4125
 1907TIP3    H1 5727   5.628   3.034   0.990  0.1583 -1.0204 -1.3983
 1907TIP3    H2 5728   5.714   2.983   1.104 -0.2623 -0.0008 -0.6211
 1908TIP3   OH2 5729   5.486   2.931   4.362  0.1367 -0.3649  0.0890
 1908TIP3    H1 5730   5.481   2.895   4.451  2.7832  0.2918  0.5811
 1908TIP3    H2 5731   5.491   2.853   4.306 -0.4663 -0.7787  0.5865
 1909TIP3   OH2 5732   1.145   3.573   4.569  0.1642 -0.4298  0.0462
 1909TIP3    H1 5733   1.125   3.626   4.492 -0.2437  1.2142  1.2305
 1909TIP3    H2 5734   1.059   3.542   4.600  0.3648 -1.4867 -0.3999
 1910TIP3   OH2 5735   0.702   3.243   3.246  0.0672 -0.0831  0.3811
 1910TIP3    H1 5736   0.729   3.156   3.217 -0.0844 -0.7795  2.1935
 1910TIP3    H2 5737   0.674   3.287   3.166  1.0162 -1.3645 -0.7118
 1911TIP3   OH2 5738   4.294   0.223   0.084 -0.2566  0.6094 -0.4725
 1911TIP3    H1 5739   4.367   0.230   0.021 -0.5986 -0.8850 -1.0758
 1911TIP3    H2 5740   4.298   0.305   0.133  2.4738  0.1742  0.2289
 1912TIP3   OH2 5741   2.285   4.124   4.727 -0.3483  0.4127  0.5146
 1912TIP3    H1 5742   2.314   4.198   4.780  1.2904 -0.9630  1.6395
 1912TIP3    H2 5743   2.265   4.056   4.791  1.9092 -1.3818 -0.5580
 1913TIP3   OH2 5744   5.995   4.319   1.801 -0.2768  0.1470 -0.7553
 1913TIP3    H1 5745   5.987   4.397   1.855 -0.7321 -0.8114  0.6025
 1913TIP3    H2 5746   6.086   4.321   1.769  0.2063  0.3907  0.5894
 1914TIP3   OH2 5747   2.668   5.428   3.240  0.3902  0.2732 -0.0351
 1914TIP3    H1 5748   2.588   5.383   3.212 -0.7641  2.3836 -0.3988
 1914TIP3    H2 5749   2.726   5.425   3.164  0.4307 -0.7348  0.0204
 1915TIP3   OH2 5750   0.116   5.396   0.032  0.3477 -0.2789  0.4432
 1915TIP3    H1 5751   0.210   5.409   0.043  0.3458 -0.0562  0.2036
 1915TIP3    H2 5752   0.076   5.457   0.094  0.3461  0.5590 -0.3565
 1916TIP3   OH2 5753   3.993   2.780   4.060 -0.2456  0.0948 -0.7640
 1916TIP3    H1 5754   4.058   2.799   4.127 -0.9105  0.7120 -0.2684
 1916TIP3    H2 5755   3.929   2.723   4.104  0.0710 -0.7029 -1.3112
 1917TIP3   OH2 5756   1.215   1.006   4.692 -0.3842 -0.1264 -0.0204
 1917TIP3    H1 5757   1.198   1.044   4.779  0.7068 -1.3423  0.7742
 1917TIP3    H2 5758   1.292   0.951   4.706 -0.5165 -0.7630 -1.6635
 1918TIP3   OH2 5759   4.762   0.309   0.418  0.5607 -0.5666  0.3769
 1918TIP3    H1 5760   4.671   0.280   0.424  0.0157  0.2888 -2.2762
 1918TIP3    H2 5761   4.778   0.356   0.500 -1.8452  0.4129  0.3632
 1919TIP3   OH2 5762   5.232   1.480   1.552  0.1848 -0.0507 -0.2287
 1919TIP3    H1 5763   5.161   1.534   1.587  0.2107 -1.1840  1.7142
 1919TIP3    H2 5764   5.296   1.474   1.623  1.6207 -0.1358 -1.4810
 1920TIP3   OH2 5765   2.148   5.540   0.344 -0.0594  0.3927 -0.2433
 1920TIP3    H1 5766   2.127   5.461   0.295  0.8617  0.4018 -0.6737
 1920TIP3    H2 5767   2.200   5.509   0.419 -0.0109  0.5522 -0.2091
 1921TIP3   OH2 5768   5.946   0.915   2.845 -0.0038  0.3959  0.7252
 1921TIP3    H1 5769   5.854   0.898   2.865 -0.1886 -0.9571 -1.0229
 1921TIP3    H2 5770   5.951   1.010   2.836 -1.1598  0.5151  1.1601
 1922TIP3   OH2 5771   0.806   5.480   0.618 -0.0249 -0.6598  0.1437
 1922TIP3    H1 5772   0.809   5.514   0.529  0.1676  0.6760  0.6371
 1922TIP3    H2 5773   0.715   5.455   0.631 -0.4860  0.9444  0.1989
 1923TIP3   OH2 5774   2.320   2.216   2.995  0.0625  0.4396  0.0598
 1923TIP3    H1 5775   2.326   2.235   2.901 -0.4722 -0.5633 -0.1856
 1923TIP3    H2 5776   2.354   2.127   3.004 -2.0652 -0.3824  0.4696
 1924TIP3   OH2 5777   4.098   0.669   4.426 -0.3504  0.6941 -0.2892
 1924TIP3    H1 5778   4.102   0.755   4.469 -0.1309 -0.0440  1.2150
 1924TIP3    H2 5779   4.143   0.610   4.486 -1.2717 -0.6571 -0.8834
 1925TIP3   OH2 5780   1.158   1.437   2.163  0.3132 -0.2061  0.1706
 1925TIP3    H1 5781   1.063   1.449   2.158  0.1364 -1.3872  0.4692
 1925TIP3    H2 5782   1.175   1.421   2.256  1.2742  3.4844  0.7738
 1926TIP3   OH2 5783   5.120   4.297   4.591  0.2987 -0.1173  0.2960
 1926TIP3    H1 5784   5.069   4.294   4.672  0.4873  0.1035  0.4262
 1926TIP3    H2 5785   5.199   4.345   4.615  0.2354  0.1824 -0.0921
 1927TIP3   OH2 5786   1.681   3.714   3.038  0.5497 -0.1167  0.2927
 1927TIP3    H1 5787   1.612   3.768   3.075 -0.6001 -0.9407 -0.5654
 1927TIP3    H2 5788   1.700   3.754   2.953 -1.1103 -1.6143 -0.8626
 1928TIP3   OH2 5789   5.017   5.115   3.751  0.0315  0.8109 -0.2339
 1928TIP3    H1 5790   4.933   5.087   3.714  0.0845 -0.2279  0.3792
 1928TIP3    H2 5791   5.016   5.210   3.746 -0.4848  0.7440 -1.7560
 1929TIP3   OH2 5792   2.578   0.711   0.787  0.2768  0.1594  0.0376
 1929TIP3    H1 5793   2.522   0.765   0.731  0.0912  0.6369  0.6653
 1929TIP3    H2 5794   2.652   0.767   0.807  0.6521 -0.2339 -0.2339
 1930TIP3   OH2 5795   2.557   2.820   0.927 -0.0305  0.3069 -0.1383
 1930TIP3    H1 5796   2.616   2.748   0.950 -2.1307 -0.9745  1.5309
 1930TIP3    H2 5797   2.575   2.836   0.834 -0.0071 -2.9002 -0.8076
 1931TIP3   OH2 5798   5.881   1.600   0.969  0.4837 -0.3278  0.0162
 1931TIP3    H1 5799   5.860   1.546   0.893  0.9397 -1.8546  0.9327
 1931TIP3    H2 5800   5.835   1.558   1.042 -1.4938  2.1681  0.3428
 1932TIP3   OH2 5801   4.679   5.739   0.173 -0.5255 -0.0718 -0.0563
 1932TIP3    H1 5802   4.590   5.767   0.198  0.2032  0.9782  1.5896
 1932TIP3    H2 5803   4.670   5.645   0.156 -2.0499  0.1127 -0.4866
 1933TIP3   OH2 5804   4.585   4.807   2.724 -0.0175 -0.0159  0.2367
 1933TIP3    H1 5805   4.537   4.729   2.694 -1.0078  0.7317 -0.1765
 1933TIP3    H2 5806   4.671   4.799   2.683 -0.6588 -0.0752 -1.1576
 1934TIP3   OH2 5807   1.898   1.103   4.697  0.3281  0.2402 -0.2768
 1934TIP3    H1 5808   1.930   1.020   4.663 -1.2938 -1.5213  2.1236
 1934TIP3    H2 5809   1.809   1.111   4.662  0.3765  0.8278 -0.2790
 1935TIP3   OH2 5810   1.196   5.182   0.226  0.0759 -0.3254 -0.2361
 1935TIP3    H1 5811   1.197   5.095   0.265  2.0154 -0.8522 -1.3348
 1935TIP3    H2 5812   1.103   5.205   0.220 -0.3891 -1.0172  2.7703
 1936TIP3   OH2 5813   0.308   3.810   1.561 -0.2022  0.1111 -0.2522
 1936TIP3    H1 5814   0.349   3.773   1.640 -0.6866 -0.4981 -0.2763
 1936TIP3    H2 5815   0.379   3.814   1.497 -0.3326 -1.8041 -0.5983
 1937TIP3   OH2 5816   2.847   3.864   1.980  0.4748  0.1918  0.6351
 1937TIP3    H1 5817   2.778   3.930   1.990 -0.9242 -0.8596 -1.3234
 1937TIP3    H2 5818   2.820   3.792   2.037  2.4587  1.4976  3.4681
 1938TIP3   OH2 5819   6.319   5.828   0.978 -0.0628 -0.7069 -0.1314
 1938TIP3    H1 5820   6.305   5.734   0.995  1.5532 -0.9840 -0.1553
 1938TIP3    H2 5821   6.414   5.836   0.968 -0.2835  0.7662 -1.2475
 1939TIP3   OH2 5822   4.094   4.123   3.198 -0.9276  0.2124  0.5330
 1939TIP3    H1 5823   4.132   4.108   3.112 -1.3070 -0.2366  0.4433
 1939TIP3    H2 5824   4.105   4.217   3.213  0.7629  0.0100  0.7625
 1940TIP3   OH2 5825   2.566   2.954   1.529  0.2495  0.1937 -0.4182
 1940TIP3    H1 5826   2.557   2.957   1.624  0.6766 -0.4889 -0.3559
 1940TIP3    H2 5827   2.522   3.034   1.499 -1.4837 -0.4770  0.2246
 1941TIP3   OH2 5828   5.235   2.789   3.723  0.1276 -0.0191 -0.3777
 1941TIP3    H1 5829   5.174   2.862   3.722 -0.7821 -0.7494 -0.1266
 1941TIP3    H2 5830   5.243   2.766   3.816 -0.6101 -1.0252 -0.5379
 1942TIP3   OH2 5831   3.565   1.495   1.472  0.0554  0.2192  0.2792
 1942TIP3    H1 5832   3.601   1.407   1.483  2.1538  0.7660 -1.5015
 1942TIP3    H2 5833   3.512   1.490   1.393 -0.1439  0.4661  0.3958
 1943TIP3   OH2 5834   6.153   0.251   1.444  0.0901  0.0806  0.2728
 1943TIP3    H1 5835   6.159   0.282   1.534 -0.0346  3.3988 -0.7377
 1943TIP3    H2 5836   6.158   0.330   1.391  1.1245 -1.8321 -2.7182
 1944TIP3   OH2 5837   4.470   1.542   0.933 -0.4232 -0.0479  0.1480
 1944TIP3    H1 5838   4.564   1.526   0.932 -0.5647 -1.1085  1.6351
 1944TIP3    H2 5839   4.435   1.490   0.861 -0.0133 -0.6126  0.3590
 1945TIP3   OH2 5840   0.151   2.631   1.692 -0.0248 -0.4673  0.4622
 1945TIP3    H1 5841   0.091   2.592   1.628 -1.5661 -1.3235  2.3297
 1945TIP3    H2 5842   0.158   2.723   1.665 -0.2156 -0.9075 -1.1924
 1946TIP3   OH2 5843   3.179   5.643   2.304 -0.2908 -0.0056 -0.3373
 1946TIP3    H1 5844   3.269   5.651   2.335 -0.2466 -0.3236 -0.3756
 1946TIP3    H2 5845   3.139   5.728   2.322 -0.0141  0.1004 -0.2217
 1947TIP3   OH2 5846   5.501   3.606   0.943  1.0187 -0.1977 -0.2478
 1947TIP3    H1 5847   5.592   3.627   0.923  1.1175 -0.5675 -0.1838
 1947TIP3    H2 5848   5.470   3.556   0.868  0.6371  0.5741 -0.6226
 1948TIP3   OH2 5849   2.820   0.884   2.015  0.4036 -0.0407  0.7878
 1948TIP3    H1 5850   2.747   0.836   2.054  0.9225 -0.8306  0.8085
 1948TIP3    H2 5851   2.788   0.974   2.006 -2.3760 -1.1623 -3.5097
 1949TIP3   OH2 5852   2.405   2.758   2.615  0.2038  0.3710 -0.5855
 1949TIP3    H1 5853   2.330   2.733   2.669 -0.5484  0.9829 -1.3121
 1949TIP3    H2 5854   2.465   2.802   2.676 -0.2739  0.3601 -0.0992
 1950TIP3   OH2 5855   0.035   0.233   0.930 -0.1286 -0.2640  0.2741
 1950TIP3    H1 5856   0.083   0.166   0.881  0.2590  1.0956 -1.2828
 1950TIP3    H2 5857   0.002   0.187   1.007  1.2280 -1.9251 -0.0767
 1951TIP3   OH2 5858   6.292   1.454   2.866  0.2282 -0.0285  0.0030
 1951TIP3    H1 5859   6.252   1.393   2.804  0.8385 -0.2981 -0.1374
 1951TIP3    H2 5860   6.374   1.412   2.892  0.3564  0.4441  0.3944
 1952TIP3   OH2 5861   1.581   4.110   2.746 -0.2220 -0.0877 -0.0655
 1952TIP3    H1 5862   1.548   4.200   2.749  1.9768  0.7604  1.1500
 1952TIP3    H2 5863   1.632   4.105   2.665  0.1487 -0.0329  0.1606
 1953TIP3   OH2 5864   5.352   1.555   3.316 -0.2522  0.1761  0.0767
 1953TIP3    H1 5865   5.282   1.620   3.303  0.0073  0.6720  1.0517
 1953TIP3    H2 5866   5.398   1.552   3.232 -1.4742 -0.2186 -0.6204
 1954TIP3   OH2 5867   0.251   0.611   1.781  0.3675 -0.1789  0.0231
 1954TIP3    H1 5868   0.206   0.634   1.699  0.6778 -3.6134 -1.2841
 1954TIP3    H2 5869   0.330   0.665   1.781  0.0908  0.2922 -1.6749
 1955TIP3   OH2 5870   0.930   5.916   2.395  0.1432  0.1400  0.5406
 1955TIP3    H1 5871   0.983   5.837   2.386  0.8144  0.7581 -1.5682
 1955TIP3    H2 5872   0.846   5.894   2.355  1.0038  1.0159 -1.9325
 1956TIP3   OH2 5873   5.173   1.011   4.595 -0.0833 -0.4588  0.3264
 1956TIP3    H1 5874   5.248   1.067   4.577 -0.4869  0.0044  0.0324
 1956TIP3    H2 5875   5.210   0.925   4.612  0.4516 -0.4292 -0.6269
 1957TIP3   OH2 5876   5.075   1.564   0.230  0.1896 -0.0103 -0.0622
 1957TIP3    H1 5877   4.991   1.537   0.192  1.0114 -1.9732 -0.5865
 1957TIP3    H2 5878   5.139   1.551   0.159  1.1031  0.4976  0.6393
 1958TIP3   OH2 5879   1.974   3.001   0.511 -0.6775 -0.6386 -0.1213
 1958TIP3    H1 5880   2.011   3.070   0.566 -1.0119 -1.4472  1.1440
 1958TIP3    H2 5881   2.049   2.947   0.486 -0.8311 -1.7645  1.7112
 1959TIP3   OH2 5882   0.879   3.468   4.964  0.0865 -1.3368 -0.7136
 1959TIP3    H1 5883   0.863   3.497   4.874  0.7963  1.8787  0.0391
 1959TIP3    H2 5884   0.974   3.475   4.975 -0.1389  0.2054  0.7606
 1960TIP3   OH2 5885   6.297   2.480   3.300 -0.0973 -0.0645  0.5309
 1960TIP3    H1 5886   6.376   2.530   3.322  0.2197 -0.0680 -0.5305
 1960TIP3    H2 5887   6.304   2.400   3.352 -0.3109  0.7062  1.7990
 1961TIP3   OH2 5888   0.168   5.059   4.598  0.1119 -0.5941 -0.5458
 1961TIP3    H1 5889   0.161   4.963   4.595  1.6297 -0.8775  2.3602
 1961TIP3    H2 5890   0.095   5.086   4.653  0.9295 -0.3115  0.4238
 1962TIP3   OH2 5891   5.778   2.293   0.783  0.3135  0.6627 -0.1499
 1962TIP3    H1 5892   5.696   2.337   0.759 -0.5354 -0.6825  0.1541
 1962TIP3    H2 5893   5.836   2.364   0.812 -0.2274  1.8098 -1.7235
 1963TIP3   OH2 5894   5.933   4.157   3.402 -0.2690 -0.1634  0.0879
 1963TIP3    H1 5895   5.914   4.249   3.418 -1.0591 -0.3892  0.5138
 1963TIP3    H2 5896   5.861   4.127   3.346 -0.2677 -0.6334  0.3304
 1964TIP3   OH2 5897   0.130  -0.020   4.061 -0.0354 -0.0579  0.0817
 1964TIP3    H1 5898   0.079   0.026   3.995 -1.5894 -1.4606  0.2355
 1964TIP3    H2 5899   0.103   0.019   4.144 -2.9031 -2.3896  0.4232
 1965TIP3   OH2 5900   1.758   0.524   0.894  0.0809  0.1411  0.0390
 1965TIP3    H1 5901   1.833   0.491   0.845 -0.0723 -1.0315  0.5686
 1965TIP3    H2 5902   1.715   0.585   0.834  2.6406  2.6174  0.4463
 1966TIP3   OH2 5903   1.883   5.499   4.283  0.0149  0.2884 -0.4583
 1966TIP3    H1 5904   1.959   5.557   4.284 -0.4005  0.8495  0.9539
 1966TIP3    H2 5905   1.837   5.521   4.203  1.5525 -0.3836 -1.5828
 1967TIP3   OH2 5906   0.137   4.627   2.692 -0.2589 -0.0827 -0.5068
 1967TIP3    H1 5907   0.134   4.686   2.768  0.3365  1.9063 -1.9417
 1967TIP3    H2 5908   0.057   4.648   2.643  0.2901  0.0297 -1.3761
 1968TIP3   OH2 5909   1.240   2.090   1.296  0.1324 -0.1519 -0.0451
 1968TIP3    H1 5910   1.220   2.182   1.313  0.0644  0.1598 -1.6418
 1968TIP3    H2 5911   1.203   2.043   1.371 -0.1866  1.0791  0.5948
 1969TIP3   OH2 5912   3.389   2.839   0.941  0.1853 -0.3068 -0.0281
 1969TIP3    H1 5913   3.414   2.767   1.000 -1.4860 -0.3024  0.7549
 1969TIP3    H2 5914   3.383   2.798   0.855 -0.2292 -1.0037  0.3212
 1970TIP3   OH2 5915   1.578   1.487   4.859  0.6677 -0.6301  0.0252
 1970TIP3    H1 5916   1.633   1.512   4.933  1.2359 -2.5252  0.2861
 1970TIP3    H2 5917   1.570   1.392   4.865 -0.7463 -0.6457 -1.3416
 1971TIP3   OH2 5918   1.581   5.380   4.990  0.2478  0.4207 -1.1366
 1971TIP3    H1 5919   1.507   5.436   4.967  0.6291  0.5771 -1.9886
 1971TIP3    H2 5920   1.606   5.410   5.078  0.8668  2.0633 -1.8218
 1972TIP3   OH2 5921   2.357   3.381   3.043  0.2542  0.5717 -0.6910
 1972TIP3    H1 5922   2.294   3.452   3.058 -0.2863  0.5310 -2.5237
 1972TIP3    H2 5923   2.364   3.337   3.128 -0.0183  2.3110  0.2736
 1973TIP3   OH2 5924   2.548   5.698   3.162  0.0825 -0.4558 -0.0939
 1973TIP3    H1 5925   2.504   5.631   3.109  0.6093 -0.4624 -0.5379
 1973TIP3    H2 5926   2.497   5.702   3.243  1.2189 -2.9018  0.8485
 1974TIP3   OH2 5927   4.285   4.159   4.765 -0.2754 -0.1306  0.3048
 1974TIP3    H1 5928   4.282   4.067   4.737 -0.8565 -0.1866  0.5414
 1974TIP3    H2 5929   4.340   4.158   4.843  0.0202 -0.2204  0.0975
 1975TIP3   OH2 5930   2.631   4.416   1.412 -0.2784 -0.2172  0.2590
 1975TIP3    H1 5931   2.543   4.445   1.386 -0.0449  1.6309  1.4115
 1975TIP3    H2 5932   2.615   4.344   1.473 -1.1289  1.6796  2.3927
 1976TIP3   OH2 5933   2.427   4.096   4.306  0.5663  0.1164 -0.2304
 1976TIP3    H1 5934   2.403   4.024   4.247 -2.5980  2.3351 -1.9695
 1976TIP3    H2 5935   2.360   4.093   4.375 -0.3375  1.9552 -0.9630
 1977TIP3   OH2 5936   6.202   3.812   3.535 -0.4793 -0.1831  0.0393
 1977TIP3    H1 5937   6.133   3.774   3.589 -0.4847  0.5038  0.5282
 1977TIP3    H2 5938   6.206   3.756   3.458  0.0630 -1.6713  1.0961
 1978TIP3   OH2 5939   4.666   1.224   1.848  0.1492 -0.4959  0.0235
 1978TIP3    H1 5940   4.637   1.182   1.768  0.6606 -0.9139  0.0508
 1978TIP3    H2 5941   4.739   1.280   1.821 -1.3486  1.4517 -0.2472
 1979TIP3   OH2 5942   3.088   1.802   0.561  0.4320  0.5823  0.1279
 1979TIP3    H1 5943   3.093   1.728   0.622  1.0178  0.0942 -0.4937
 1979TIP3    H2 5944   3.008   1.849   0.586 -1.6993 -1.9818 -1.3852
 1980TIP3   OH2 5945   1.508   0.146   3.534  0.2101  0.2864 -0.4017
 1980TIP3    H1 5946   1.584   0.141   3.593  1.3664 -0.1282 -1.8695
 1980TIP3    H2 5947   1.444   0.087   3.573  0.6881  0.4937  0.7703
 1981TIP3   OH2 5948   4.806   0.085   4.224 -0.6837 -0.1606  0.4137
 1981TIP3    H1 5949   4.748   0.105   4.151 -0.9933  1.2062  0.9979
 1981TIP3    H2 5950   4.757   0.111   4.302  0.2996  0.0421  0.9897
 1982TIP3   OH2 5951   2.459   4.820   0.324  0.3042  0.0459 -0.4471
 1982TIP3    H1 5952   2.511   4.747   0.358  2.1766  1.2015 -0.6744
 1982TIP3    H2 5953   2.421   4.861   0.402  2.6633  1.2808  0.1488
 1983TIP3   OH2 5954   2.197   0.297   0.650  0.0933 -0.0302 -0.2459
 1983TIP3    H1 5955   2.211   0.235   0.721  0.9341  0.3156 -0.1012
 1983TIP3    H2 5956   2.257   0.269   0.581  0.1335  0.3371 -0.3641
 1984TIP3   OH2 5957   4.069   1.160   0.533  0.3968  0.1065 -0.6116
 1984TIP3    H1 5958   4.046   1.199   0.618  0.2697 -1.4762  0.1239
 1984TIP3    H2 5959   4.022   1.213   0.469 -0.0813  0.8980  0.3629
 1985TIP3   OH2 5960   5.331   2.829   5.135 -0.1545  0.1367 -0.1945
 1985TIP3    H1 5961   5.391   2.834   5.209 -0.7043 -1.4252  0.3982
 1985TIP3    H2 5962   5.369   2.763   5.077 -0.6022  0.1301 -0.4882
 1986TIP3   OH2 5963   4.597   3.087   2.939  0.4557 -0.1990 -0.2665
 1986TIP3    H1 5964   4.549   3.007   2.958 -1.6018  0.6530 -1.4612
 1986TIP3    H2 5965   4.558   3.153   2.997  0.9369  0.2986 -0.4971
 1987TIP3   OH2 5966   2.114   0.565   0.022 -0.1929  0.2397  0.6035
 1987TIP3    H1 5967   2.168   0.568   0.101  3.0178 -1.6171 -1.2980
 1987TIP3    H2 5968   2.110   0.656  -0.008 -2.1565  1.1153  3.1514
 1988TIP3   OH2 5969   4.132   1.844   1.615  0.5908 -0.4975 -0.0388
 1988TIP3    H1 5970   4.138   1.749   1.600 -0.4954 -0.6344  0.3145
 1988TIP3    H2 5971   4.165   1.883   1.534  0.7651 -1.1842 -0.3043
 1989TIP3   OH2 5972   4.298   1.056   0.882 -0.0426  0.0990 -0.0583
 1989TIP3    H1 5973   4.232   0.997   0.845  1.2278 -1.2236 -0.3241
 1989TIP3    H2 5974   4.290   1.136   0.831 -1.4178 -0.0434 -0.1006
 1990TIP3   OH2 5975   0.398   2.265   1.958  0.6708  0.2835 -0.1185
 1990TIP3    H1 5976   0.357   2.338   1.913  1.3155 -0.3413 -1.8139
 1990TIP3    H2 5977   0.445   2.305   2.032 -1.2951  1.2077  0.6860
 1991TIP3   OH2 5978   3.963   0.720   4.728  0.2895 -0.4520 -0.1626
 1991TIP3    H1 5979   4.017   0.770   4.666 -1.3361 -0.5246 -1.7121
 1991TIP3    H2 5980   3.933   0.785   4.792  0.3405  0.0393 -0.6296
 1992TIP3   OH2 5981   2.117   1.905   1.157  0.3611  0.3017 -0.0134
 1992TIP3    H1 5982   2.100   1.999   1.148  1.9203  0.5590 -0.6285
 1992TIP3    H2 5983   2.110   1.888   1.251 -0.4882  0.9077  0.0418
 1993TIP3   OH2 5984   1.849   0.629   2.389 -0.6583  0.5293  0.3579
 1993TIP3    H1 5985   1.775   0.617   2.330 -1.0966 -0.7351  1.1181
 1993TIP3    H2 5986   1.810   0.631   2.477 -0.2163  4.0668  0.6090
 1994TIP3   OH2 5987   4.646   0.107   0.773  0.5074  0.4736  0.4846
 1994TIP3    H1 5988   4.654   0.177   0.838  1.2532  0.6203  0.2493
 1994TIP3    H2 5989   4.624   0.029   0.825 -2.2637  1.2008  0.5667
 1995TIP3   OH2 5990   0.093   1.400   4.266  0.7250 -0.4058  0.0895
 1995TIP3    H1 5991   0.129   1.471   4.214  2.7675  0.3722  2.4415
 1995TIP3    H2 5992   0.017   1.438   4.310  2.0128  0.5185  1.6139
 1996TIP3   OH2 5993   1.304   5.701   4.629 -0.0187 -0.5755 -1.1191
 1996TIP3    H1 5994   1.334   5.732   4.543 -1.1799  0.1493 -1.2851
 1996TIP3    H2 5995   1.379   5.713   4.686  0.4160  0.0031 -1.7932
 1997TIP3   OH2 5996   3.874   2.283   3.715 -0.2983  0.0266 -0.0930
 1997TIP3    H1 5997   3.781   2.266   3.726 -0.0274 -2.0932 -0.6995
 1997TIP3    H2 5998   3.902   2.323   3.798 -1.5520 -0.1059  0.4071
 1998TIP3   OH2 5999   3.818   0.372   3.905 -0.0981 -0.2157  0.1572
 1998TIP3    H1 6000   3.746   0.397   3.963 -0.4714  0.6512 -0.6580
 1998TIP3    H2 6001   3.871   0.312   3.958 -1.0499 -0.3509  0.9976
 1999TIP3   OH2 6002   0.357   0.848   0.698 -0.0800  0.0747 -1.0593
 1999TIP3    H1 6003   0.324   0.761   0.677  0.7777 -0.4871 -0.1325
 1999TIP3    H2 6004   0.449   0.834   0.718 -0.2741  0.9702  0.5664
 2000TIP3   OH2 6005   4.262   2.458   3.768  0.0538  0.6324 -0.1802
 2000TIP3    H1 6006   4.315   2.395   3.719 -0.7761  0.4261 -0.8287
 2000TIP3    H2 6007   4.176   2.455   3.727 -1.0618 -0.4827  2.0489
 2001TIP3   OH2 6008   3.166   0.517   3.317 -0.5845 -0.6755  0.3819
 2001TIP3    H1 6009   3.097   0.457   3.285 -1.1075  0.9843 -1.8380
 2001TIP3    H2 6010   3.213   0.466   3.383 -4.5607 -1.5897  2.8744
 2002TIP3   OH2 6011   5.346   5.877   3.256  0.0143 -0.8736  0.4050
 2002TIP3    H1 6012   5.276   5.857   3.319  0.7046 -2.0606  0.8274
 2002TIP3    H2 6013   5.300   5.912   3.180 -0.9865 -1.0223  0.9222
 2003TIP3   OH2 6014   4.290   0.699   2.690  0.0708  0.5501  0.0317
 2003TIP3    H1 6015   4.315   0.618   2.646 -1.6965 -0.2179  0.3853
 2003TIP3    H2 6016   4.260   0.672   2.776  1.0227  1.7784  0.7934
 2004TIP3   OH2 6017   2.271   5.126   0.757 -0.1371  0.5165 -0.0713
 2004TIP3    H1 6018   2.189   5.084   0.783 -0.5379  0.7214 -0.9776
 2004TIP3    H2 6019   2.328   5.116   0.834 -0.6465 -0.5675  0.1947
 2005TIP3   OH2 6020   3.462   4.247   4.017 -0.8356 -0.6399  0.0178
 2005TIP3    H1 6021   3.475   4.169   4.070 -1.1481 -1.0053 -0.4304
 2005TIP3    H2 6022   3.547   4.291   4.017 -1.3674  0.5473  2.6189
 2006TIP3   OH2 6023   3.190   4.383   4.023 -0.6370  0.3242 -0.1253
 2006TIP3    H1 6024   3.108   4.427   4.044 -1.1497  0.1492 -1.6481
 2006TIP3    H2 6025   3.164   4.295   3.994  0.0437  0.3611 -0.9018
 2007TIP3   OH2 6026   5.700   1.019   1.382 -1.0907 -0.6703 -0.3511
 2007TIP3    H1 6027   5.696   0.991   1.291 -1.3095  0.4500 -0.7049
 2007TIP3    H2 6028   5.735   1.108   1.378 -1.6454 -0.3952  0.6121
 2008TIP3   OH2 6029   3.460   4.015   1.334 -0.4796  0.3125 -0.2202
 2008TIP3    H1 6030   3.411   4.054   1.406  0.4040 -1.4569  1.4251
 2008TIP3    H2 6031   3.396   3.963   1.285 -1.3185  2.3880 -1.4712
 2009TIP3   OH2 6032   1.690   4.392   4.985 -0.0775 -0.4409  0.4336
 2009TIP3    H1 6033   1.626   4.447   5.030 -0.7700 -2.4885  2.1429
 2009TIP3    H2 6034   1.638   4.322   4.945  0.9853 -2.4420  2.2930
 2010TIP3   OH2 6035   3.103   4.377   5.120  0.0105  0.0964  0.3104
 2010TIP3    H1 6036   3.148   4.386   5.204 -0.6968  0.3916  0.6670
 2010TIP3    H2 6037   3.027   4.434   5.127 -0.8897 -1.0279  0.0523
 2011TIP3   OH2 6038   4.504   2.221   0.887 -0.1142  0.2855  0.0978
 2011TIP3    H1 6039   4.545   2.294   0.841 -1.3831  0.6282 -0.5475
 2011TIP3    H2 6040   4.415   2.251   0.906 -0.6060 -1.0197 -0.0182
 2012TIP3   OH2 6041   4.112   5.307   0.783 -0.2603 -0.2630 -0.5094
 2012TIP3    H1 6042   4.099   5.359   0.863  0.1491 -0.0611 -0.5712
 2012TIP3    H2 6043   4.029   5.261   0.771 -0.0292 -0.9882  0.5232
 2013TIP3   OH2 6044   6.217   1.745   2.867  0.3550  0.5914 -0.7418
 2013TIP3    H1 6045   6.198   1.780   2.780 -0.6255 -0.1743 -0.8618
 2013TIP3    H2 6046   6.251   1.657   2.851  1.2569  0.8611 -0.3814
 2014TIP3   OH2 6047   6.253   4.978   3.801 -0.1565  0.4417  0.2217
 2014TIP3    H1 6048   6.309   4.915   3.756  0.7217  1.1835  0.2496
 2014TIP3    H2 6049   6.246   5.053   3.741 -1.1948  0.3324  0.1836
 2015TIP3   OH2 6050   6.230   1.844   1.232  0.3802  0.2223  0.6074
 2015TIP3    H1 6051   6.292   1.913   1.256  2.6817 -1.4614 -0.1292
 2015TIP3    H2 6052   6.144   1.883   1.248  1.5577  3.0617  0.7006
 2016TIP3   OH2 6053   5.994   5.130   1.997  0.1111 -0.1687 -0.0607
 2016TIP3    H1 6054   6.086   5.105   1.982  0.5528  2.0603 -1.4811
 2016TIP3    H2 6055   5.944   5.068   1.944  0.5878 -2.4747  2.0031
 2017TIP3   OH2 6056   1.675   3.940   0.050  0.0783 -0.3316  0.3786
 2017TIP3    H1 6057   1.603   4.003   0.060  2.3929  2.6826 -0.5647
 2017TIP3    H2 6058   1.660   3.900  -0.036 -0.3082  0.5090  0.0442
 2018TIP3   OH2 6059   1.615   4.077   0.662  0.2368 -0.1003 -0.6496
 2018TIP3    H1 6060   1.580   4.051   0.577  0.5002 -1.0431 -0.4759
 2018TIP3    H2 6061   1.675   4.149   0.641 -0.6999  0.5711 -1.0994
 2019TIP3   OH2 6062   1.612   5.277   2.626 -0.0327 -0.5737 -0.1923
 2019TIP3    H1 6063   1.638   5.187   2.645 -0.3967 -1.0303 -1.7657
 2019TIP3    H2 6064   1.623   5.287   2.532  2.2877  1.7867  0.2137
 2020TIP3   OH2 6065   5.233   4.544   1.737 -0.2263  0.2573 -0.1390
 2020TIP3    H1 6066   5.140   4.526   1.727 -0.4601  0.6404  1.0519
 2020TIP3    H2 6067   5.256   4.503   1.820  0.9105 -0.6717 -0.8931
 2021TIP3   OH2 6068   0.189   1.001   4.738  0.2446 -0.2325 -0.0847
 2021TIP3    H1 6069   0.181   1.002   4.833 -0.7022  0.8910 -0.1481
 2021TIP3    H2 6070   0.161   0.913   4.712 -0.3592 -0.2543  0.6102
 2022TIP3   OH2 6071   1.491   0.966   0.087 -0.2838  0.4766  0.0655
 2022TIP3    H1 6072   1.436   1.044   0.086  0.1062  0.7570 -1.1161
 2022TIP3    H2 6073   1.445   0.903   0.032 -0.5052 -0.0899  0.8663
 2023TIP3   OH2 6074   2.308   1.964   3.492  0.0927  0.1722 -0.3463
 2023TIP3    H1 6075   2.287   1.882   3.448  0.9803 -0.0698 -0.3476
 2023TIP3    H2 6076   2.226   2.013   3.493 -0.2722 -0.4107 -1.0042
 2024TIP3   OH2 6077   3.465   0.032   0.408  0.0981  0.4562 -0.6881
 2024TIP3    H1 6078   3.439  -0.008   0.492 -0.2398 -0.1450 -1.0678
 2024TIP3    H2 6079   3.556   0.059   0.421 -0.0998  0.7926  0.0226
 2025TIP3   OH2 6080   2.324   5.861   4.881  0.0139 -0.5913  0.1177
 2025TIP3    H1 6081   2.353   5.772   4.861 -1.1206 -0.7671 -0.8677
 2025TIP3    H2 6082   2.297   5.857   4.973  0.3170 -1.1541  0.1916
 2026TIP3   OH2 6083   4.545   2.427   2.365  0.1282 -0.0381 -0.6798
 2026TIP3    H1 6084   4.456   2.461   2.373  0.7647  1.4301  0.6162
 2026TIP3    H2 6085   4.553   2.365   2.438  0.3998  0.4052 -0.3286
 2027TIP3   OH2 6086   6.287   5.590   4.691 -0.3237 -0.3118  0.2834
 2027TIP3    H1 6087   6.307   5.521   4.755  0.4375  0.8553  1.3437
 2027TIP3    H2 6088   6.364   5.646   4.691 -0.4721 -0.0597 -1.3998
 2028TIP3   OH2 6089   6.142   1.311   4.120 -0.3120 -0.0779 -0.1963
 2028TIP3    H1 6090   6.056   1.297   4.159  0.8350  1.6636  3.3494
 2028TIP3    H2 6091   6.198   1.247   4.162  0.8691  1.4351  0.6097
 2029TIP3   OH2 6092   5.194   5.419   4.641 -0.0900 -0.1815  0.0490
 2029TIP3    H1 6093   5.144   5.338   4.653  1.2609 -0.7667  2.4841
 2029TIP3    H2 6094   5.248   5.403   4.564  0.9455 -2.1032  1.0892
 2030TIP3   OH2 6095   1.477   4.593   4.498  0.2077  0.3854 -0.2956
 2030TIP3    H1 6096   1.502   4.564   4.586  1.2140 -0.3424 -0.8048
 2030TIP3    H2 6097   1.452   4.685   4.509 -1.2504 -0.1116  1.0296
 2031TIP3   OH2 6098   5.052   3.575   0.889 -0.3590  0.6284  0.0625
 2031TIP3    H1 6099   5.107   3.500   0.867 -0.0142  0.7069  0.6381
 2031TIP3    H2 6100   4.963   3.545   0.870 -0.2850 -0.1386  0.8234
 2032TIP3   OH2 6101   2.761   0.908   2.754  0.1291  0.3951  0.0683
 2032TIP3    H1 6102   2.780   0.814   2.757 -0.5001  0.2269 -0.8566
 2032TIP3    H2 6103   2.730   0.929   2.842 -1.8526 -0.7248 -0.3190
 2033TIP3   OH2 6104   2.182   5.284   1.188  0.2963  0.1796  0.6736
 2033TIP3    H1 6105   2.134   5.213   1.145 -0.4308  0.2583  1.3441
 2033TIP3    H2 6106   2.116   5.351   1.206  0.5412  0.0881  2.0361
 2034TIP3   OH2 6107   4.067   0.045   4.508  0.3927  0.6877  0.1743
 2034TIP3    H1 6108   4.056   0.140   4.509  0.4364  0.6912  0.6355
 2034TIP3    H2 6109   4.060   0.019   4.600  1.0292  0.3210  0.1266
 2035TIP3   OH2 6110   2.666   3.073   0.101  0.1801 -0.1202 -0.0733
 2035TIP3    H1 6111   2.737   3.075   0.166 -0.6121  1.3773  0.8186
 2035TIP3    H2 6112   2.633   2.983   0.104  2.7509 -1.1919 -1.3711
 2036TIP3   OH2 6113   0.423   3.355   2.638  0.5154  0.2628 -0.3240
 2036TIP3    H1 6114   0.477   3.424   2.599  0.2554  0.4352 -0.3804
 2036TIP3    H2 6115   0.342   3.356   2.587  0.0593  0.6792  0.3828
 2037TIP3   OH2 6116   1.953   1.746   0.593 -0.3923  0.3432 -0.4543
 2037TIP3    H1 6117   1.983   1.837   0.594  0.6618  0.0189  1.0160
 2037TIP3    H2 6118   2.011   1.701   0.655 -0.4215 -1.4856 -1.6835
 2038TIP3   OH2 6119   4.791   2.560   1.744  0.0812  0.0047 -0.1743
 2038TIP3    H1 6120   4.769   2.652   1.757 -1.4103 -0.3482  0.0458
 2038TIP3    H2 6121   4.782   2.546   1.649 -1.6041 -0.3217 -0.0039
 2039TIP3   OH2 6122   4.496   5.046   2.853  0.3168 -0.1626  0.0020
 2039TIP3    H1 6123   4.543   4.966   2.878  0.9136  0.0501 -0.4250
 2039TIP3    H2 6124   4.475   5.089   2.937 -1.8162 -1.7450  0.3881
 2040TIP3   OH2 6125   1.663   3.512   4.078  0.4693 -0.1869 -0.0347
 2040TIP3    H1 6126   1.679   3.595   4.033  0.7364 -0.9295 -1.3818
 2040TIP3    H2 6127   1.666   3.534   4.171 -1.0050  1.5817 -0.3564
 2041TIP3   OH2 6128   5.611   5.871   4.380 -0.2762  0.2074 -0.0980
 2041TIP3    H1 6129   5.668   5.948   4.388 -1.3470  1.0189  0.0372
 2041TIP3    H2 6130   5.527   5.907   4.352 -0.6879 -0.9784 -0.4447
 2042TIP3   OH2 6131   2.886   4.808   3.524  0.4967  0.1188 -0.1802
 2042TIP3    H1 6132   2.908   4.901   3.527  1.0740 -0.0294  0.4260
 2042TIP3    H2 6133   2.810   4.799   3.580 -1.2449  0.6395 -2.3083
 2043TIP3   OH2 6134   0.556   2.130   3.881  0.4988 -0.6706  0.4828
 2043TIP3    H1 6135   0.591   2.066   3.943  1.8907  0.3129  0.7451
 2043TIP3    H2 6136   0.613   2.206   3.889  0.6114 -0.4204 -1.8462
 2044TIP3   OH2 6137   4.602   3.493   3.533 -0.1240 -0.2457  0.3041
 2044TIP3    H1 6138   4.678   3.464   3.585 -0.3456  0.1208  0.8414
 2044TIP3    H2 6139   4.619   3.585   3.517 -0.8972  0.0639  1.2134
 2045TIP3   OH2 6140   3.780   2.905   2.865  0.1936  0.5564  0.6615
 2045TIP3    H1 6141   3.855   2.861   2.824 -0.3844 -1.0476  1.2393
 2045TIP3    H2 6142   3.801   2.906   2.958 -0.5233  0.0007  0.8399
 2046TIP3   OH2 6143   6.213   2.533   2.484 -0.0051  0.8356  0.5938
 2046TIP3    H1 6144   6.273   2.538   2.410  1.2359  1.7036  1.6284
 2046TIP3    H2 6145   6.126   2.533   2.444  0.5972  2.5407 -0.8294
 2047TIP3   OH2 6146   1.837   0.777   1.761 -0.0983  0.1840  0.2959
 2047TIP3    H1 6147   1.842   0.748   1.852 -0.3387  1.0657  0.6048
 2047TIP3    H2 6148   1.925   0.764   1.726 -0.2162 -0.9590  0.3928
 2048TIP3   OH2 6149   5.644   1.343   2.754 -0.0578 -0.7187  0.3752
 2048TIP3    H1 6150   5.735   1.361   2.776 -0.3758  0.7331  0.6507
 2048TIP3    H2 6151   5.596   1.358   2.836 -1.1137  3.5667 -0.7385
 2049TIP3   OH2 6152   0.449   3.916   0.475  0.2038 -0.0689  0.7647
 2049TIP3    H1 6153   0.388   3.879   0.411  2.9337 -1.0302 -1.4805
 2049TIP3    H2 6154   0.471   4.003   0.440  1.1284 -0.2872  0.7744
 2050TIP3   OH2 6155   2.704   4.374   5.121 -0.5784 -0.4134  0.6382
 2050TIP3    H1 6156   2.699   4.360   5.215  1.2741 -0.7510  0.7326
 2050TIP3    H2 6157   2.780   4.431   5.109 -0.6114 -0.6066 -0.6617
 2051TIP3   OH2 6158   2.610   3.407   4.144  0.2316  0.5489  0.0083
 2051TIP3    H1 6159   2.585   3.441   4.230 -2.5495 -0.1613 -0.4338
 2051TIP3    H2 6160   2.591   3.314   4.148 -0.9772  0.6829 -1.6875
 2052TIP3   OH2 6161   5.075   0.896   2.569  1.0568  0.0556 -0.2371
 2052TIP3    H1 6162   5.103   0.846   2.493 -1.3191 -0.2700 -0.9841
 2052TIP3    H2 6163   5.039   0.830   2.629 -0.3456  0.6037 -0.4183
 2053TIP3   OH2 6164   0.852   0.747   1.540  0.4247  0.0975 -0.4738
 2053TIP3    H1 6165   0.854   0.826   1.486  0.9968  0.0547 -0.5249
 2053TIP3    H2 6166   0.834   0.677   1.479  2.3548 -0.1204 -0.8514
 2054TIP3   OH2 6167   4.365   2.587   4.548  0.5210 -0.4433 -0.8671
 2054TIP3    H1 6168   4.430   2.522   4.571  0.6792  0.1922  0.5901
 2054TIP3    H2 6169   4.409   2.671   4.561 -1.1574  0.0915  2.3327
 2055TIP3   OH2 6170   5.909   1.267   2.274 -0.3455 -0.2017 -0.1750
 2055TIP3    H1 6171   5.852   1.190   2.275  2.0166 -2.0552 -0.2996
 2055TIP3    H2 6172   5.906   1.300   2.363 -1.5428 -0.2800 -0.1680
 2056TIP3   OH2 6173   3.749   5.831   1.338  0.0238 -0.4224 -0.0240
 2056TIP3    H1 6174   3.669   5.835   1.391  0.5063 -0.3025  0.7049
 2056TIP3    H2 6175   3.727   5.772   1.266 -0.8207 -0.1517  0.0018
 2057TIP3   OH2 6176   5.045   3.166   4.286  0.5166 -0.1662 -0.0616
 2057TIP3    H1 6177   5.092   3.120   4.217  1.8221  0.8381  0.1246
 2057TIP3    H2 6178   5.073   3.123   4.367  1.0047  0.3401  0.0394
 2058TIP3   OH2 6179   0.624   2.328   0.393 -0.0583  0.0173  0.0539
 2058TIP3    H1 6180   0.616   2.420   0.420 -1.9788 -0.3764  1.0333
 2058TIP3    H2 6181   0.718   2.310   0.395  0.2482  1.5451  1.3414
 2059TIP3   OH2 6182   2.974   0.716   4.448 -0.1676 -0.3476 -0.1997
 2059TIP3    H1 6183   3.040   0.697   4.381  3.0210 -0.5650  2.7119
 2059TIP3    H2 6184   2.990   0.808   4.472  0.0312 -0.7939  1.4756
 2060TIP3   OH2 6185   3.419   3.964   4.676  0.0115  0.0034 -0.2321
 2060TIP3    H1 6186   3.368   3.883   4.678 -0.2353  0.1261 -0.9834
 2060TIP3    H2 6187   3.415   3.991   4.584 -0.5643  1.2816  0.1520
 2061TIP3   OH2 6188   5.587   0.848   1.995  0.4191 -0.1004  0.3593
 2061TIP3    H1 6189   5.606   0.808   1.910  2.3006 -1.4828  1.3470
 2061TIP3    H2 6190   5.628   0.934   1.992 -0.5845  0.3681 -0.5279
 2062TIP3   OH2 6191   3.634   3.514   2.629 -0.0936 -0.0964  0.0586
 2062TIP3    H1 6192   3.639   3.418   2.632  0.6681 -0.0643  0.1554
 2062TIP3    H2 6193   3.677   3.537   2.547  0.9449  0.2206  0.6775
 2063TIP3   OH2 6194   3.108   1.525   4.272 -0.4211  0.0894  0.2839
 2063TIP3    H1 6195   3.121   1.576   4.193 -0.9319 -0.6960 -0.3156
 2063TIP3    H2 6196   3.020   1.547   4.302 -0.4244  0.0016  0.3414
 2064TIP3   OH2 6197   2.715   4.347   4.563 -0.1372  0.1994 -0.1010
 2064TIP3    H1 6198   2.739   4.285   4.494  0.9372  0.3206  0.1544
 2064TIP3    H2 6199   2.622   4.364   4.548 -0.3851 -1.2421 -0.3559
 2065TIP3   OH2 6200   2.388   5.843   2.130  0.1530 -0.5748 -0.1307
 2065TIP3    H1 6201   2.413   5.917   2.075  0.6695 -2.2318 -2.2742
 2065TIP3    H2 6202   2.468   5.792   2.140 -0.5952 -1.8278 -0.3253
 2066TIP3   OH2 6203   2.118   2.170   0.486  0.2910 -0.1533 -0.6420
 2066TIP3    H1 6204   2.107   2.130   0.400 -1.1228  0.9901 -1.0388
 2066TIP3    H2 6205   2.056   2.124   0.542 -0.0321  0.2523 -0.6616
 2067TIP3   OH2 6206   2.771   1.355   3.006  0.0600  0.0813 -0.1512
 2067TIP3    H1 6207   2.689   1.393   2.976  0.1827 -0.0286 -0.6361
 2067TIP3    H2 6208   2.792   1.288   2.941  1.1525  0.9341 -0.7129
 2068TIP3   OH2 6209   2.550   4.243   4.940  0.6428 -0.5217  0.8783
 2068TIP3    H1 6210   2.472   4.298   4.949  0.0127 -0.4947 -2.8177
 2068TIP3    H2 6211   2.615   4.282   4.998 -1.5636  0.4103  2.8808
 2069TIP3   OH2 6212   6.158   3.173   5.139 -0.4561  0.6012 -0.5260
 2069TIP3    H1 6213   6.169   3.261   5.102  2.6222 -0.2433 -1.9530
 2069TIP3    H2 6214   6.242   3.154   5.180 -1.7376 -0.9653  1.5319
 2070TIP3   OH2 6215   3.466   3.483   3.785  0.6384  0.1043 -0.4055
 2070TIP3    H1 6216   3.506   3.400   3.811 -2.2640 -1.4727 -0.5472
 2070TIP3    H2 6217   3.493   3.496   3.694 -1.3196 -2.4475 -1.4849
 2071TIP3   OH2 6218   0.228   4.935   0.532 -0.0179 -0.2466  0.2196
 2071TIP3    H1 6219   0.196   5.011   0.580 -0.4303  0.7564 -1.5487
 2071TIP3    H2 6220   0.174   4.862   0.563 -0.0230  0.2841  1.4966
 2072TIP3   OH2 6221   4.260   0.641   0.571 -0.5590 -0.1047  0.0434
 2072TIP3    H1 6222   4.289   0.682   0.489 -0.3407 -0.1999  0.0728
 2072TIP3    H2 6223   4.331   0.658   0.633 -1.1533  0.8289  0.4932
 2073TIP3   OH2 6224   3.242   1.522   2.161 -0.4592  0.3232 -0.3318
 2073TIP3    H1 6225   3.300   1.449   2.142 -1.3857 -0.3375 -0.7178
 2073TIP3    H2 6226   3.296   1.600   2.148  0.6550 -0.2880  0.4712
 2074TIP3   OH2 6227   4.982   3.057   3.414  0.3547  0.2131 -0.0317
 2074TIP3    H1 6228   4.958   3.150   3.421 -1.6611 -0.2620 -0.0418
 2074TIP3    H2 6229   4.935   3.026   3.337  0.0999 -1.0782  0.6175
 2075TIP3   OH2 6230   1.933   0.889   1.402  0.7612 -0.3776  0.3732
 2075TIP3    H1 6231   2.028   0.900   1.395  0.6359 -0.0147 -0.8551
 2075TIP3    H2 6232   1.902   0.974   1.434  0.7200 -0.0709 -0.4718
 2076TIP3   OH2 6233   0.870   2.844   2.523 -0.0008 -0.0658  0.0119
 2076TIP3    H1 6234   0.943   2.838   2.585 -0.6314 -1.5485  0.6751
 2076TIP3    H2 6235   0.796   2.805   2.570 -0.6119 -0.7817 -1.4992
 2077TIP3   OH2 6236   4.135   1.567   1.558 -0.8816  0.4041 -0.0932
 2077TIP3    H1 6237   4.112   1.506   1.627  1.5825  0.9692  1.3603
 2077TIP3    H2 6238   4.164   1.512   1.485 -0.8153 -0.1798  0.3707
 2078TIP3   OH2 6239   1.867   1.755   3.946 -0.1545 -0.1452 -0.0185
 2078TIP3    H1 6240   1.891   1.667   3.915 -2.5515  0.4400 -4.4090
 2078TIP3    H2 6241   1.810   1.740   4.020  0.7827 -2.1808  0.3692
 2079TIP3   OH2 6242   2.988   1.783   1.826  0.7572 -0.2406  0.1900
 2079TIP3    H1 6243   2.948   1.778   1.739 -2.0840 -0.4613  1.3880
 2079TIP3    H2 6244   3.078   1.753   1.813  0.2276 -0.9283 -2.5393
 2080TIP3   OH2 6245   1.248   5.486   1.124  0.1579 -0.1052  0.5497
 2080TIP3    H1 6246   1.192   5.426   1.074  0.4287 -0.5772  0.8140
 2080TIP3    H2 6247   1.249   5.566   1.071  1.0397 -0.8334 -0.5855
 2081TIP3   OH2 6248   0.254   2.169   4.451 -0.6113  0.0036 -0.0848
 2081TIP3    H1 6249   0.327   2.212   4.495  1.0604 -0.5818 -2.1067
 2081TIP3    H2 6250   0.207   2.240   4.408  1.0124  0.1154 -1.8214
 2082TIP3   OH2 6251   4.787   4.978   0.136 -0.2505  0.1343 -0.0378
 2082TIP3    H1 6252   4.706   5.000   0.182  0.3379  0.6656  0.7569
 2082TIP3    H2 6253   4.787   5.035   0.059 -0.1843  0.7795  0.4427
 2083TIP3   OH2 6254   5.364   4.361   3.689 -0.2207 -0.4877  0.0148
 2083TIP3    H1 6255   5.415   4.284   3.715 -3.9864 -3.0913  0.4673
 2083TIP3    H2 6256   5.360   4.356   3.593  0.9844  0.2395 -0.0943
 2084TIP3   OH2 6257   6.048   4.692   0.865 -0.5427 -0.6114 -0.4914
 2084TIP3    H1 6258   6.013   4.613   0.824 -0.7444 -0.1163 -1.3145
 2084TIP3    H2 6259   6.140   4.694   0.840 -0.0454 -1.5879  1.1552
 2085TIP3   OH2 6260   0.134   2.785   3.978 -0.3053  0.6600 -0.9180
 2085TIP3    H1 6261   0.174   2.870   3.993 -1.5091  1.2686 -1.0605
 2085TIP3    H2 6262   0.086   2.794   3.896 -3.7215  1.1571  0.9581
 2086TIP3   OH2 6263   3.578   0.618   2.058 -0.3888  0.4269 -0.0612
 2086TIP3    H1 6264   3.505   0.572   2.017  0.0636 -1.1986  0.8890
 2086TIP3    H2 6265   3.630   0.652   1.985 -1.2690  0.3202 -0.7605
 2087TIP3   OH2 6266   3.332   1.925   4.052 -0.3407  0.3835 -0.3200
 2087TIP3    H1 6267   3.421   1.891   4.048 -0.2183  0.5419  0.7332
 2087TIP3    H2 6268   3.307   1.916   4.144 -1.1739  0.9389 -0.4795
 2088TIP3   OH2 6269   2.225   1.074   4.464  0.0004  0.1203 -0.2872
 2088TIP3    H1 6270   2.234   1.152   4.518 -2.1715  0.1392  0.1059
 2088TIP3    H2 6271   2.306   1.025   4.479 -0.0169  0.7208  2.0204
 2089TIP3   OH2 6272   0.861   1.809   4.725  0.5517 -0.3179  0.4149
 2089TIP3    H1 6273   0.871   1.715   4.741  0.0260 -0.7807 -1.6170
 2089TIP3    H2 6274   0.852   1.816   4.630  0.9729  1.8433  0.4799
 2090TIP3   OH2 6275   1.102   5.524   1.365  0.0117  0.4707 -0.0123
 2090TIP3    H1 6276   1.112   5.572   1.447 -1.3203 -0.6829  0.8674
 2090TIP3    H2 6277   1.081   5.592   1.300  0.6864  1.3482  0.6509
 2091TIP3   OH2 6278   1.708   5.751   3.517 -0.4606  0.1632 -0.0522
 2091TIP3    H1 6279   1.656   5.679   3.483 -0.4348 -0.0598  0.3800
 2091TIP3    H2 6280   1.747   5.791   3.439 -1.3244  0.3793 -0.3918
 2092TIP3   OH2 6281   5.604   1.550   1.428 -0.1530 -0.3245 -0.3533
 2092TIP3    H1 6282   5.660   1.505   1.491 -0.1363 -0.3935 -0.4179
 2092TIP3    H2 6283   5.549   1.482   1.391  0.2533 -0.3860 -0.8516
 2093TIP3   OH2 6284   2.149   2.212   1.821  0.2586  0.0672 -0.4743
 2093TIP3    H1 6285   2.080   2.278   1.827  0.1278 -0.1105  0.0470
 2093TIP3    H2 6286   2.208   2.245   1.753  0.4053  0.9125  0.0495
 2094TIP3   OH2 6287   2.238   1.912   2.756 -0.4270  0.4970  0.2777
 2094TIP3    H1 6288   2.198   1.968   2.690 -0.8488  1.7132  1.5105
 2094TIP3    H2 6289   2.177   1.915   2.830 -0.3994 -1.5105  0.4461
 2095TIP3   OH2 6290   5.108   3.813   2.801 -0.0730 -0.4155 -0.2509
 2095TIP3    H1 6291   5.095   3.900   2.763  0.5319  0.1286  0.7589
 2095TIP3    H2 6292   5.179   3.775   2.749 -0.0718 -0.1515 -0.4439
 2096TIP3   OH2 6293   5.956   4.079   2.564 -0.0051  0.5946  0.3921
 2096TIP3    H1 6294   5.891   4.057   2.497 -1.7401  1.8485  1.5943
 2096TIP3    H2 6295   5.980   3.995   2.602  1.1268 -0.1743 -1.8346
 2097TIP3   OH2 6296   0.098   3.835   1.906  0.0801 -0.0785 -0.0619
 2097TIP3    H1 6297   0.139   3.806   1.987 -0.6608  0.3772  0.4949
 2097TIP3    H2 6298   0.044   3.761   1.879  0.4368 -0.2826 -0.2131
 2098TIP3   OH2 6299   0.079   2.472   4.472  0.1038 -0.3233 -0.1421
 2098TIP3    H1 6300   0.031   2.549   4.443 -0.8238 -0.3256  1.3013
 2098TIP3    H2 6301   0.056   2.404   4.409 -1.9413 -0.3601  0.5796
 2099TIP3   OH2 6302   5.989   3.195   4.186 -0.4025  0.3313 -0.5418
 2099TIP3    H1 6303   6.033   3.280   4.185  0.0801  0.2412  2.5042
 2099TIP3    H2 6304   6.047   3.140   4.239 -1.5944 -1.3654 -0.9358
 2100TIP3   OH2 6305   2.926   1.623   3.798 -0.3165 -0.4138  0.3086
 2100TIP3    H1 6306   2.978   1.570   3.738  0.2843  0.6748 -0.1480
 2100TIP3    H2 6307   2.985   1.639   3.872 -0.4619 -0.3085  0.4015
 2101TIP3   OH2 6308   0.496   3.915   3.136 -0.3799 -0.1111 -0.4516
 2101TIP3    H1 6309   0.424   3.975   3.115  0.5020  1.0009 -0.4533
 2101TIP3    H2 6310   0.469   3.831   3.102 -0.8337  0.7187 -2.2328
 2102TIP3   OH2 6311   0.872   2.864   2.014 -0.0204  0.5904 -0.1364
 2102TIP3    H1 6312   0.960   2.829   2.003  1.1636  2.4786  2.2581
 2102TIP3    H2 6313   0.858   2.864   2.109 -2.7781  0.0258 -0.4716
 2103TIP3   OH2 6314   0.067   4.129   0.379 -0.4486 -0.0180  0.0206
 2103TIP3    H1 6315   0.106   4.201   0.428 -2.1841  0.5935  0.5782
 2103TIP3    H2 6316   0.030   4.169   0.300 -0.1699 -0.5341 -0.3815
 2104TIP3   OH2 6317   2.641   1.275   0.149  1.1640 -0.2908 -0.2542
 2104TIP3    H1 6318   2.735   1.286   0.131  1.3710 -1.1438  0.2121
 2104TIP3    H2 6319   2.622   1.340   0.216  1.3603  0.0733 -0.5485
 2105TIP3   OH2 6320   4.850   5.428   4.660  0.3655  0.1013  0.7533
 2105TIP3    H1 6321   4.803   5.415   4.743 -1.0954 -0.9419 -0.1993
 2105TIP3    H2 6322   4.868   5.340   4.628 -3.6508  0.1654 -2.4769
 2106TIP3   OH2 6323   0.847   5.299   4.537 -0.0765  0.0093  0.1406
 2106TIP3    H1 6324   0.766   5.311   4.486 -1.2673 -1.6659  1.5149
 2106TIP3    H2 6325   0.888   5.221   4.500 -0.0929 -0.2574  0.6746
 2107TIP3   OH2 6326   4.728   0.710   3.923  0.4568 -0.4025 -0.0485
 2107TIP3    H1 6327   4.712   0.618   3.903  0.0492 -0.5482  0.9048
 2107TIP3    H2 6328   4.681   0.758   3.855  1.3809 -0.8950 -1.0560
 2108TIP3   OH2 6329   6.002   1.865   1.844 -0.5957 -0.1186  0.4684
 2108TIP3    H1 6330   5.909   1.850   1.828 -0.3035 -1.3520 -0.1983
 2108TIP3    H2 6331   6.045   1.787   1.811  0.7079  0.5225  0.5804
 2109TIP3   OH2 6332   4.716   4.380   2.966  0.1600  0.4008  0.0690
 2109TIP3    H1 6333   4.623   4.390   2.989  0.1075 -1.5325  0.9085
 2109TIP3    H2 6334   4.763   4.406   3.045  0.3696  1.7107 -0.4714
 2110TIP3   OH2 6335   5.728   5.267   2.709  0.0830  0.0315 -0.3246
 2110TIP3    H1 6336   5.673   5.308   2.642 -0.0901 -0.7094 -0.6503
 2110TIP3    H2 6337   5.667   5.244   2.779  0.0784 -0.2207 -0.4109
 2111TIP3   OH2 6338   0.108   2.848   3.446 -0.3094  0.0437 -0.3831
 2111TIP3    H1 6339   0.133   2.931   3.487 -0.4501 -0.3565  0.5582
 2111TIP3    H2 6340   0.014   2.855   3.434 -0.5778 -0.5334  1.0945
 2112TIP3   OH2 6341   4.232   2.049   0.715 -0.6402  0.1843  0.4448
 2112TIP3    H1 6342   4.225   2.141   0.687 -0.0653 -0.0444 -0.4879
 2112TIP3    H2 6343   4.260   2.002   0.636 -3.4808 -1.2353  0.1271
 2113TIP3   OH2 6344   2.395   2.325   3.374  0.0040 -0.3563 -0.4341
 2113TIP3    H1 6345   2.406   2.361   3.286  0.6178 -2.3917 -1.2539
 2113TIP3    H2 6346   2.404   2.231   3.362  0.1784 -0.6766  1.8354
 2114TIP3   OH2 6347   3.322   3.940   0.753  0.5123 -0.3548 -0.3329
 2114TIP3    H1 6348   3.315   4.020   0.700 -1.7252 -0.2391  0.0194
 2114TIP3    H2 6349   3.257   3.953   0.823  2.1801 -1.2329  1.4766
 2115TIP3   OH2 6350   5.905   1.773   4.045 -0.1068  0.1625  0.2637
 2115TIP3    H1 6351   5.912   1.684   4.010 -3.6088 -0.5015  0.8857
 2115TIP3    H2 6352   5.945   1.829   3.978  0.1020 -1.6837 -1.2240
 2116TIP3   OH2 6353   6.211   0.868   2.913  0.3360 -0.1998 -0.5387
 2116TIP3    H1 6354   6.122   0.901   2.930 -0.0742 -1.0367 -1.0084
 2116TIP3    H2 6355   6.262   0.897   2.988 -0.2190  0.7176 -0.4923
 2117TIP3   OH2 6356   1.045   1.334   0.474  0.1153 -0.8133 -0.4985
 2117TIP3    H1 6357   1.056   1.420   0.513  0.7045 -0.5596 -1.1913
 2117TIP3    H2 6358   0.981   1.289   0.529  0.4926 -0.2589  0.3947
 2118TIP3   OH2 6359   4.912   0.960   3.816  0.2562 -0.1470  0.0801
 2118TIP3    H1 6360   4.837   0.949   3.874 -0.2146 -0.2948 -0.5371
 2118TIP3    H2 6361   4.910   1.053   3.792 -2.5115 -0.8727 -3.4858
 2119TIP3   OH2 6362   5.485   2.631   3.768 -0.1237 -0.3788 -0.4759
 2119TIP3    H1 6363   5.580   2.640   3.759  0.2240 -1.9928  1.0740
 2119TIP3    H2 6364   5.450   2.661   3.684  1.6113  1.8746 -0.5009
 2120TIP3   OH2 6365   5.778   2.018   0.591  0.6943 -0.1649 -0.0096
 2120TIP3    H1 6366   5.786   2.111   0.612 -0.2759  0.2899 -1.5223
 2120TIP3    H2 6367   5.724   2.016   0.512  1.8825 -1.9280 -0.8384
 2121TIP3   OH2 6368   3.518   1.506   2.034 -0.4994  0.5721  0.1579
 2121TIP3    H1 6369   3.479   1.424   2.066 -1.0594  0.7131 -0.1471
 2121TIP3    H2 6370   3.604   1.480   2.002  0.6329  0.6174  2.8625
 2122TIP3   OH2 6371   5.496   5.263   4.819 -0.1179 -0.1474  0.3103
 2122TIP3    H1 6372   5.509   5.358   4.818 -1.9884  0.1403 -0.5511
 2122TIP3    H2 6373   5.578   5.227   4.785  0.3551  1.1867 -0.0100
 2123TIP3   OH2 6374   1.958   1.954   0.311 -0.1603  0.2190 -0.0070
 2123TIP3    H1 6375   1.930   1.863   0.303  0.3711  0.0784 -0.3751
 2123TIP3    H2 6376   1.889   1.997   0.361  0.0412 -0.6054  1.0081
 2124TIP3   OH2 6377   3.786   5.518   0.579 -0.3632  0.2640  0.2995
 2124TIP3    H1 6378   3.829   5.604   0.581 -0.2474  0.1926  0.9515
 2124TIP3    H2 6379   3.771   5.502   0.486 -1.7398  1.6752  0.2237
 2125TIP3   OH2 6380   5.465   3.239   1.361 -0.1016 -0.2898  0.5532
 2125TIP3    H1 6381   5.477   3.279   1.275 -0.0253 -0.4207  0.5022
 2125TIP3    H2 6382   5.414   3.160   1.344 -0.5444 -0.0363  0.6960
 2126TIP3   OH2 6383   0.959   2.325   3.475 -0.7462 -0.3993 -0.3945
 2126TIP3    H1 6384   0.965   2.269   3.552 -1.3070 -0.6347 -0.5186
 2126TIP3    H2 6385   0.948   2.265   3.401 -0.7553 -0.1539 -0.5957
 2127TIP3   OH2 6386   4.536   4.729   3.011  0.2531 -0.6559 -0.2944
 2127TIP3    H1 6387   4.503   4.642   3.031 -0.5010 -0.2387  0.3359
 2127TIP3    H2 6388   4.507   4.747   2.922 -1.3526 -0.2569  0.2815
 2128TIP3   OH2 6389   0.244   5.218   0.806  0.2555  0.0749  0.3300
 2128TIP3    H1 6390   0.299   5.294   0.783  0.3614  0.1466  0.8218
 2128TIP3    H2 6391   0.304   5.157   0.847 -0.0568  0.2028  0.9774
 2129TIP3   OH2 6392   4.366   4.335   4.079  0.1053 -0.4824  0.3605
 2129TIP3    H1 6393   4.331   4.251   4.050  0.6624 -0.4861 -0.3277
 2129TIP3    H2 6394   4.446   4.346   4.028 -1.0850  1.5099 -1.2722
 2130TIP3   OH2 6395   2.300   2.036   3.762 -0.2057  0.9060 -0.0169
 2130TIP3    H1 6396   2.208   2.063   3.760 -0.1727  1.0203  0.0097
 2130TIP3    H2 6397   2.326   2.033   3.670 -0.8600 -1.2669 -0.1816
 2131TIP3   OH2 6398   1.109   2.488   3.049  0.5143  0.2937 -0.3722
 2131TIP3    H1 6399   1.142   2.563   2.999  2.0915 -0.5137 -0.6039
 2131TIP3    H2 6400   1.095   2.523   3.138  0.8241  0.9521 -0.5763
 2132TIP3   OH2 6401   1.385   3.862   3.688 -0.3619  0.2563 -0.2313
 2132TIP3    H1 6402   1.325   3.812   3.632 -1.6612  1.0574  0.3929
 2132TIP3    H2 6403   1.389   3.948   3.647 -0.3831  0.4911  0.2648
 2133TIP3   OH2 6404   1.435   4.054   3.521  0.0068 -0.1307  0.3011
 2133TIP3    H1 6405   1.504   4.004   3.477  0.4959  0.2226  0.6585
 2133TIP3    H2 6406   1.359   4.044   3.464  0.4146 -0.3270 -0.2246
 2134TIP3   OH2 6407   2.034   3.429   2.906  0.9466  0.2232  0.1823
 2134TIP3    H1 6408   2.034   3.339   2.939  1.7495  0.3983  0.6803
 2134TIP3    H2 6409   1.948   3.464   2.932 -0.2433 -1.0175 -1.8087
 2135TIP3   OH2 6410   2.655   1.487   0.327  0.5172  0.0346 -0.3666
 2135TIP3    H1 6411   2.567   1.524   0.323 -0.4515 -2.2002 -0.7217
 2135TIP3    H2 6412   2.662   1.451   0.415  2.1859  2.5737  0.6823
 2136TIP3   OH2 6413   4.079   4.119   3.590  0.4963 -0.1583 -0.0045
 2136TIP3    H1 6414   4.031   4.183   3.536  0.1698  0.7161  1.2748
 2136TIP3    H2 6415   4.011   4.077   3.643  1.1103  1.5362  2.2862
 2137TIP3   OH2 6416   6.275   0.544   4.420 -0.1248  0.6712  0.2984
 2137TIP3    H1 6417   6.187   0.578   4.435 -0.1961  0.8418 -0.5145
 2137TIP3    H2 6418   6.325   0.617   4.385 -0.4556 -0.1702 -2.0914
 2138TIP3   OH2 6419   6.119   3.289   0.288  0.5085 -0.3914 -0.0504
 2138TIP3    H1 6420   6.138   3.287   0.195  2.8364 -0.7055  0.3740
 2138TIP3    H2 6421   6.174   3.359   0.323  1.7720 -2.0210  1.4338
 2139TIP3   OH2 6422   1.534   1.982   1.880  0.6792  0.5759  0.5468
 2139TIP3    H1 6423   1.473   1.933   1.936  0.3839  0.6807  0.3169
 2139TIP3    H2 6424   1.596   1.916   1.849  0.5956  0.4430  0.6589
 2140TIP3   OH2 6425   5.921   2.422   3.862 -0.1202 -0.0741  0.5622
 2140TIP3    H1 6426   6.002   2.387   3.828 -0.3184 -1.5643  1.5171
 2140TIP3    H2 6427   5.944   2.458   3.948 -0.6382 -1.7312  1.4641
 2141TIP3   OH2 6428   4.840   4.719   5.079 -0.5854  0.7813  0.2224
 2141TIP3    H1 6429   4.762   4.746   5.031  0.7850  2.6498 -1.0660
 2141TIP3    H2 6430   4.852   4.788   5.145 -0.5775 -0.0585  1.1329
 2142TIP3   OH2 6431   5.599   0.220   4.655 -0.2472 -0.1499 -0.1696
 2142TIP3    H1 6432   5.664   0.190   4.592 -0.3923 -2.9493  0.8697
 2142TIP3    H2 6433   5.523   0.243   4.601  0.6389  0.5128 -1.1850
 2143TIP3   OH2 6434   1.530   3.644   2.128 -0.4780 -0.3748 -0.1840
 2143TIP3    H1 6435   1.455   3.701   2.145  0.2318  0.5894 -0.1620
 2143TIP3    H2 6436   1.567   3.626   2.214  0.0874  0.2601 -0.2815
 2144TIP3   OH2 6437   6.001   4.536   3.034  0.2381  0.0831 -0.1804
 2144TIP3    H1 6438   6.061   4.491   2.975  1.1296  1.2150 -0.1906
 2144TIP3    H2 6439   6.011   4.629   3.012  0.9843  0.6126  2.0167
 2145TIP3   OH2 6440   1.745   5.132   5.184  0.5006  0.5851  0.4478
 2145TIP3    H1 6441   1.795   5.066   5.135  1.0226 -0.4758  2.2854
 2145TIP3    H2 6442   1.788   5.215   5.164  0.0273  0.3752 -1.6695
 2146TIP3   OH2 6443   0.392   5.501   3.124  0.2792 -0.0215  0.0795
 2146TIP3    H1 6444   0.312   5.463   3.089 -0.2595 -0.7001  1.9133
 2146TIP3    H2 6445   0.459   5.435   3.110  0.0280 -0.3637  0.4586
 2147TIP3   OH2 6446   4.773   5.736   3.257  0.1778  0.3363  0.7558
 2147TIP3    H1 6447   4.715   5.795   3.306 -0.0765  1.6251 -0.9937
 2147TIP3    H2 6448   4.742   5.742   3.166  2.3273  0.1578 -0.0439
 2148TIP3   OH2 6449   4.229   5.990   4.729  0.4005  0.2846 -0.6311
 2148TIP3    H1 6450   4.268   5.914   4.773 -0.3956  0.8265  1.1110
 2148TIP3    H2 6451   4.302   6.051   4.718  0.3302  0.9335  1.8139
 2149TIP3   OH2 6452   0.149   0.675   0.431 -0.0162 -0.6951  0.1293
 2149TIP3    H1 6453   0.235   0.698   0.395 -0.1337 -1.8593 -0.9809
 2149TIP3    H2 6454   0.129   0.589   0.392 -1.7799 -0.3442  0.1712
 2150TIP3   OH2 6455   1.531   4.528   3.570  0.2008 -0.1170 -0.0196
 2150TIP3    H1 6456   1.589   4.465   3.612 -0.3403 -0.3845  0.3441
 2150TIP3    H2 6457   1.443   4.491   3.583 -0.0755  0.4490 -0.2617
 2151TIP3   OH2 6458   5.742   4.591   3.138 -0.0070 -0.2509 -0.5004
 2151TIP3    H1 6459   5.789   4.512   3.164 -0.7260  0.1994  2.4739
 2151TIP3    H2 6460   5.808   4.647   3.097  0.8282 -1.7369 -1.2490
 2152TIP3   OH2 6461   1.245   2.061   0.997 -0.6466 -0.4338  0.3998
 2152TIP3    H1 6462   1.266   2.097   0.911 -0.3865  0.4220  0.8088
 2152TIP3    H2 6463   1.277   2.127   1.059 -0.6531 -1.1310  1.1568
 2153TIP3   OH2 6464   6.187   3.581   2.316 -0.0841  0.5769 -0.4340
 2153TIP3    H1 6465   6.280   3.560   2.305  0.0184 -1.1217  2.7082
 2153TIP3    H2 6466   6.141   3.508   2.275  0.0899 -0.3666  0.9839
 2154TIP3   OH2 6467   1.514   3.641   1.156 -0.2554 -0.2904  0.0769
 2154TIP3    H1 6468   1.590   3.614   1.208 -1.0419 -2.1352  0.3702
 2154TIP3    H2 6469   1.488   3.562   1.108 -1.0850  0.7033 -1.1846
 2155TIP3   OH2 6470   1.023   1.943   0.047 -0.3435  0.2176 -0.1595
 2155TIP3    H1 6471   0.983   2.030   0.038  0.3337  0.3720 -2.4245
 2155TIP3    H2 6472   0.986   1.893  -0.025  1.0931 -0.6040 -0.3665
 2156TIP3   OH2 6473   1.814   0.662   1.151 -0.0512  0.2228  0.2377
 2156TIP3    H1 6474   1.820   0.751   1.116 -1.1272  0.8749  1.6127
 2156TIP3    H2 6475   1.844   0.606   1.080  0.5709  1.6764 -0.6843
 2157TIP3   OH2 6476   4.552   0.622   0.950 -0.1658 -0.0636  0.3370
 2157TIP3    H1 6477   4.549   0.713   0.977  0.9390 -0.7051  2.8584
 2157TIP3    H2 6478   4.566   0.626   0.855  3.0195  2.4391  0.7392
 2158TIP3   OH2 6479   1.350   0.368   2.855 -0.3529 -0.6458 -0.3086
 2158TIP3    H1 6480   1.364   0.388   2.948  0.9822 -0.4347 -0.5352
 2158TIP3    H2 6481   1.255   0.356   2.847 -0.5304 -0.2753  1.0007
 2159TIP3   OH2 6482   4.562   4.357   1.942 -0.3272 -0.0847  0.2823
 2159TIP3    H1 6483   4.587   4.367   2.034  0.5773 -0.6113  0.1078
 2159TIP3    H2 6484   4.528   4.443   1.917  1.0073  0.5866  0.6553
 2160TIP3   OH2 6485   0.700   5.718   3.699 -0.7396 -0.1413  0.0211
 2160TIP3    H1 6486   0.739   5.746   3.782  2.2012 -1.1514 -0.8763
 2160TIP3    H2 6487   0.653   5.637   3.721 -2.0603  0.8749  1.0782
 2161TIP3   OH2 6488   4.738   5.247   1.678  0.6450  0.0277  0.0423
 2161TIP3    H1 6489   4.726   5.154   1.698  0.3140  0.4059  1.7906
 2161TIP3    H2 6490   4.770   5.249   1.588 -1.2468 -1.6701 -0.7361
 2162TIP3   OH2 6491   5.800   2.937   4.972 -0.4345  0.8077 -0.1327
 2162TIP3    H1 6492   5.893   2.952   4.955 -0.1428 -1.1641 -0.4329
 2162TIP3    H2 6493   5.792   2.945   5.067  0.2673 -0.0696  0.0123
 2163TIP3   OH2 6494   5.671   0.926   0.159  0.8120 -0.0262  0.0738
 2163TIP3    H1 6495   5.621   0.962   0.086  1.5748  1.8774  0.4481
 2163TIP3    H2 6496   5.662   0.990   0.229 -0.6960 -2.2487  2.0792
 2164TIP3   OH2 6497   1.962   5.780   0.327 -0.4630  0.3924  0.0017
 2164TIP3    H1 6498   1.930   5.740   0.246 -1.1777  0.3859  0.2798
 2164TIP3    H2 6499   2.052   5.748   0.335 -0.5357  0.0201 -0.5429
 2165TIP3   OH2 6500   2.351   5.639   1.506 -0.2538  0.2216  0.5124
 2165TIP3    H1 6501   2.311   5.647   1.419 -0.5763 -0.0238  0.6352
 2165TIP3    H2 6502   2.391   5.724   1.523 -0.2325  0.2855  0.1452
 2166TIP3   OH2 6503   0.826   3.757   1.391 -0.7189  0.6383 -0.5978
 2166TIP3    H1 6504   0.805   3.733   1.301  0.6584 -0.9098 -0.5509
 2166TIP3    H2 6505   0.775   3.696   1.445 -0.3882  0.5590 -0.3691
 2167TIP3   OH2 6506   4.673   3.057   1.366  0.2641 -0.2131 -0.2760
 2167TIP3    H1 6507   4.708   3.031   1.280 -1.5748 -1.3288 -0.7430
 2167TIP3    H2 6508   4.653   2.975   1.410 -1.2633  0.3512  0.1500
 2168TIP3   OH2 6509   0.041   2.158   1.106  0.1072 -0.6976 -0.1556
 2168TIP3    H1 6510   0.055   2.174   1.012 -0.3536  1.7237  0.1176
 2168TIP3    H2 6511  -0.045   2.117   1.111 -0.0445 -0.4727 -0.7868
 2169TIP3   OH2 6512   1.333   5.377   0.079 -0.0525  0.9474  0.4347
 2169TIP3    H1 6513   1.356   5.294   0.038 -1.4542  1.5515 -1.7557
 2169TIP3    H2 6514   1.296   5.352   0.164 -1.6472 -0.8341 -0.6844
 2170TIP3   OH2 6515   5.574   2.241   0.167 -1.1472 -0.3229 -0.0109
 2170TIP3    H1 6516   5.636   2.189   0.116 -1.0220 -0.8423  0.6589
 2170TIP3    H2 6517   5.496   2.187   0.172 -0.9261 -0.5711  0.9129
 2171TIP3   OH2 6518   0.398   5.747   3.747  0.1317 -0.1621  0.1600
 2171TIP3    H1 6519   0.470   5.752   3.809  0.5687 -0.0329 -0.3558
 2171TIP3    H2 6520   0.351   5.829   3.758 -0.8970 -0.8965  1.6376
 2172TIP3   OH2 6521   6.277   1.886   2.294 -0.3054  0.5837  0.5271
 2172TIP3    H1 6522   6.200   1.888   2.238  0.0530 -1.2114 -0.1020
 2172TIP3    H2 6523   6.347   1.853   2.237  0.1385 -1.0098  1.9094
 2173TIP3   OH2 6524   6.047   0.492   3.523 -0.1900  0.1083 -0.3713
 2173TIP3    H1 6525   5.981   0.469   3.457 -0.2748  0.5622 -0.4478
 2173TIP3    H2 6526   6.049   0.588   3.522 -0.6236  0.1420  0.7039
 2174TIP3   OH2 6527   1.378   3.254   2.895 -0.1834 -0.1280  0.3670
 2174TIP3    H1 6528   1.292   3.257   2.936 -0.0272 -0.5598  0.7271
 2174TIP3    H2 6529   1.362   3.214   2.809 -0.2601 -0.6920  0.6436
 2175TIP3   OH2 6530   0.365   3.144   0.323 -0.1996  0.1352  0.0478
 2175TIP3    H1 6531   0.288   3.195   0.301  0.6086  0.7880 -1.4304
 2175TIP3    H2 6532   0.331   3.065   0.365 -1.5832  0.9146  0.4347
 2176TIP3   OH2 6533   2.513   1.577   4.974 -0.3827  0.0443 -0.7632
 2176TIP3    H1 6534   2.431   1.529   4.966 -0.5308  0.4169 -1.6947
 2176TIP3    H2 6535   2.505   1.649   4.911  0.4572  0.3765 -0.5120
 2177TIP3   OH2 6536   3.198   5.950   4.731  0.1896 -0.1871  0.1600
 2177TIP3    H1 6537   3.114   5.993   4.742  0.7024  0.4670  1.7785
 2177TIP3    H2 6538   3.206   5.892   4.807  1.0095 -0.5884 -0.2140
 2178TIP3   OH2 6539   1.384   1.336   0.725  0.4594  0.2615  0.0334
 2178TIP3    H1 6540   1.351   1.351   0.813 -0.3851  2.6628 -0.6320
 2178TIP3    H2 6541   1.319   1.280   0.684  0.5002 -0.2826  0.6885
 2179TIP3   OH2 6542   4.379   0.325   4.564  0.0401  0.4995  0.0012
 2179TIP3    H1 6543   4.363   0.248   4.617 -0.4901  0.6049  0.0010
 2179TIP3    H2 6544   4.467   0.354   4.588 -0.1310  0.4485  0.6911
 2180TIP3   OH2 6545   2.318   0.710   2.091  0.4698  0.5944 -0.2563
 2180TIP3    H1 6546   2.370   0.670   2.021 -0.9378 -0.1340 -0.9265
 2180TIP3    H2 6547   2.314   0.644   2.159 -1.0822 -0.0985 -0.9786
 2181TIP3   OH2 6548   5.700   1.549   4.779 -0.2021 -0.2717 -0.2076
 2181TIP3    H1 6549   5.676   1.596   4.699  0.4172 -1.7227 -1.2859
 2181TIP3    H2 6550   5.622   1.498   4.801 -0.4197  0.2324  0.2070
 2182TIP3   OH2 6551   5.287   3.428   4.183  0.5793 -0.2858 -0.3133
 2182TIP3    H1 6552   5.260   3.392   4.267  1.4100 -0.0806  0.0568
 2182TIP3    H2 6553   5.295   3.352   4.126 -0.8552 -0.3383 -0.4710
 2183TIP3   OH2 6554   3.603   4.291   2.709  0.0667  0.3944 -0.4461
 2183TIP3    H1 6555   3.657   4.367   2.730  1.0590 -0.3290 -0.3231
 2183TIP3    H2 6556   3.661   4.233   2.660 -0.7474 -0.1929 -0.7359
 2184TIP3   OH2 6557   5.083   0.443   1.844 -0.3687 -0.3433 -0.6760
 2184TIP3    H1 6558   5.102   0.455   1.751  4.2945  1.0646  0.1907
 2184TIP3    H2 6559   5.135   0.367   1.870 -1.6527 -0.7689  0.8653
 2185TIP3   OH2 6560   1.086   4.571   3.902  0.0752  0.1627  0.2946
 2185TIP3    H1 6561   1.171   4.526   3.901  0.9654  1.7542  0.4210
 2185TIP3    H2 6562   1.109   4.664   3.902 -1.6919  0.6624 -1.5207
 2186TIP3   OH2 6563   2.634   4.172   1.069 -0.3569  0.7692 -0.3646
 2186TIP3    H1 6564   2.579   4.115   1.015 -0.4569  1.3639 -0.9049
 2186TIP3    H2 6565   2.723   4.141   1.054 -0.3567  1.1062 -1.0956
 2187TIP3   OH2 6566   3.773   0.885   0.892  0.0711 -0.1015 -0.0241
 2187TIP3    H1 6567   3.816   0.962   0.856  2.2940 -0.2184  2.0512
 2187TIP3    H2 6568   3.810   0.811   0.843  0.0819 -0.0085 -0.1542
 2188TIP3   OH2 6569   5.251   2.692   1.222 -0.1451 -0.5409  0.1051
 2188TIP3    H1 6570   5.209   2.606   1.220 -0.1596 -0.5280 -0.1998
 2188TIP3    H2 6571   5.202   2.741   1.288  0.1408 -0.9064  0.5995
 2189TIP3   OH2 6572   2.599   0.737   3.992  0.5587 -0.2972  0.1375
 2189TIP3    H1 6573   2.658   0.796   3.944 -0.2647  0.1041 -0.3925
 2189TIP3    H2 6574   2.608   0.764   4.084 -0.3787  1.1956 -0.1696
 2190TIP3   OH2 6575   4.990   2.527   3.345 -0.3404  0.0471  0.2639
 2190TIP3    H1 6576   5.042   2.467   3.291  0.9558  0.3201  1.1764
 2190TIP3    H2 6577   4.987   2.608   3.294 -1.5834 -0.5529 -0.6919
 2191TIP3   OH2 6578  -0.029   4.070   0.825 -0.1628 -0.2493  0.7429
 2191TIP3    H1 6579   0.041   4.030   0.876 -0.4297 -2.1211 -0.2410
 2191TIP3    H2 6580   0.015   4.123   0.759  0.3209 -0.9772  0.4742
 2192TIP3   OH2 6581   3.414   2.797   0.149  0.8380 -0.1376  0.3111
 2192TIP3    H1 6582   3.462   2.865   0.196 -0.6308  1.1764  0.0035
 2192TIP3    H2 6583   3.456   2.794   0.063 -0.5046  2.1036 -0.5034
 2193TIP3   OH2 6584   4.392   0.708   4.318  0.7923 -1.4954 -0.6493
 2193TIP3    H1 6585   4.395   0.749   4.404  0.3048  0.4111 -1.4915
 2193TIP3    H2 6586   4.436   0.624   4.330 -1.1313 -2.2692  1.9547
 2194TIP3   OH2 6587   3.795   5.175   4.692  0.0964  0.5069 -0.1904
 2194TIP3    H1 6588   3.711   5.189   4.735  0.4445  1.4461  0.2086
 2194TIP3    H2 6589   3.787   5.089   4.651 -0.3879 -0.2586  1.4326
 2195TIP3   OH2 6590   0.772   2.105   2.030 -0.0058  0.0235  0.3794
 2195TIP3    H1 6591   0.842   2.131   2.090 -0.2867  0.7930  0.3730
 2195TIP3    H2 6592   0.765   2.177   1.968  0.9524 -1.1926 -1.2133
 2196TIP3   OH2 6593   6.245   2.400   1.725  0.3563 -0.5617  0.6748
 2196TIP3    H1 6594   6.174   2.458   1.752 -1.4294 -1.9842 -0.6744
 2196TIP3    H2 6595   6.261   2.344   1.802  2.2696  1.7389  2.0730
 2197TIP3   OH2 6596   5.469   1.831   4.198  0.2589 -0.0166 -0.3576
 2197TIP3    H1 6597   5.523   1.907   4.218 -0.1237  0.0717  0.3744
 2197TIP3    H2 6598   5.420   1.814   4.278  0.0445 -0.7944 -0.6411
 2198TIP3   OH2 6599   4.054   5.844   2.475 -0.3894  0.5908  0.1474
 2198TIP3    H1 6600   4.118   5.773   2.478  1.0372  1.8358  0.1615
 2198TIP3    H2 6601   4.072   5.888   2.392 -3.2978 -0.8340 -1.3901
 2199TIP3   OH2 6602   0.745   4.706  -0.001 -0.2836 -0.2508 -0.2969
 2199TIP3    H1 6603   0.653   4.683  -0.012 -0.6145 -0.6653  2.5064
 2199TIP3    H2 6604   0.780   4.636   0.054  0.9079  1.4316  1.1960
 2200TIP3   OH2 6605   2.605   0.221   1.187  0.1011  0.0620  0.3167
 2200TIP3    H1 6606   2.661   0.163   1.136 -0.0143 -0.9677  1.3189
 2200TIP3    H2 6607   2.532   0.241   1.129  0.5186 -0.1803 -0.3072
 2201TIP3   OH2 6608   5.159   2.227   3.653 -0.1093  0.3924 -0.1028
 2201TIP3    H1 6609   5.075   2.262   3.624 -1.6087  0.1688  3.4393
 2201TIP3    H2 6610   5.194   2.295   3.711  0.4689 -0.9318  1.1510
 2202TIP3   OH2 6611   1.762   3.421   3.088 -0.3464  0.1060  0.0861
 2202TIP3    H1 6612   1.709   3.501   3.087 -1.7648 -0.7529  1.2548
 2202TIP3    H2 6613   1.722   3.366   3.020 -2.1371 -1.1839  2.0396
 2203TIP3   OH2 6614   2.600   3.443   1.139  0.4185  0.6994 -0.1552
 2203TIP3    H1 6615   2.610   3.349   1.122 -0.4799  0.7823 -1.2383
 2203TIP3    H2 6616   2.688   3.479   1.128  0.2046  0.5035 -3.3344
 2204TIP3   OH2 6617   2.476   0.160   0.159  0.2461 -0.0926  0.5160
 2204TIP3    H1 6618   2.542   0.131   0.222  0.8219  0.4344  0.1716
 2204TIP3    H2 6619   2.508   0.128   0.075  0.8340  1.3543  0.1408
 2205TIP3   OH2 6620   3.901   2.224   4.688  0.1820  0.2241 -0.0883
 2205TIP3    H1 6621   3.850   2.146   4.667  0.8011  0.1587 -1.4661
 2205TIP3    H2 6622   3.839   2.296   4.680  0.0950  0.0658 -0.9230
 2206TIP3   OH2 6623   1.228   5.365   2.863 -1.3593 -1.1855  0.1196
 2206TIP3    H1 6624   1.320   5.388   2.848 -1.2703 -0.2501  1.8659
 2206TIP3    H2 6625   1.231   5.275   2.895 -1.1305 -1.3729 -0.4023
 2207TIP3   OH2 6626   5.537   5.020   2.749 -0.2211 -0.0070 -0.0113
 2207TIP3    H1 6627   5.569   5.033   2.660  0.7108  3.3328  0.6533
 2207TIP3    H2 6628   5.595   4.953   2.786  0.1001 -0.6188 -1.5537
 2208TIP3   OH2 6629   3.260   3.190   5.065 -0.6893 -0.1691 -0.2249
 2208TIP3    H1 6630   3.309   3.221   5.142  1.0254  2.6149 -2.2277
 2208TIP3    H2 6631   3.325   3.144   5.013 -1.0948  0.4000 -1.2572
 2209TIP3   OH2 6632   2.835   4.157   0.279  0.0988  0.4689 -0.5498
 2209TIP3    H1 6633   2.782   4.094   0.230 -0.4587 -0.8362  1.6058
 2209TIP3    H2 6634   2.789   4.240   0.268 -0.3133  0.1097 -1.7366
 2210TIP3   OH2 6635   5.169   5.924   2.291  0.0540 -0.0545 -0.3027
 2210TIP3    H1 6636   5.239   5.983   2.263  1.1362 -0.2780  1.7365
 2210TIP3    H2 6637   5.093   5.980   2.302  0.3230  0.4711 -1.0547
 2211TIP3   OH2 6638   5.688   0.987   0.495  0.7476 -0.4216  0.1944
 2211TIP3    H1 6639   5.636   1.055   0.454  0.7132  0.4268  1.5987
 2211TIP3    H2 6640   5.630   0.910   0.498  0.0285  0.1270  0.5535
 2212TIP3   OH2 6641   4.179   4.118   2.631  0.3130  0.0167  0.4124
 2212TIP3    H1 6642   4.201   4.093   2.541 -0.1076 -0.0740  0.3336
 2212TIP3    H2 6643   4.260   4.102   2.680  1.1573  1.8883 -0.2908
 2213TIP3   OH2 6644   5.680   5.867   2.281 -0.2353  0.0386 -0.6162
 2213TIP3    H1 6645   5.743   5.932   2.248  0.6113  0.2250  1.2681
 2213TIP3    H2 6646   5.616   5.859   2.210  1.0110  1.0535 -1.9328
 2214TIP3   OH2 6647   2.466   2.244   3.783 -0.2330 -0.1376 -0.2289
 2214TIP3    H1 6648   2.412   2.165   3.788 -0.1185 -0.2487 -0.7079
 2214TIP3    H2 6649   2.540   2.219   3.728  1.0162 -0.4083  1.4647
 2215TIP3   OH2 6650   1.375   3.336   3.713  0.4671  0.2478 -0.1875
 2215TIP3    H1 6651   1.361   3.324   3.807  1.0595 -1.5547 -0.2864
 2215TIP3    H2 6652   1.455   3.389   3.707 -0.0306  1.0795  0.3013
 2216TIP3   OH2 6653   0.721   5.050   3.024  0.1452 -0.8689  0.3233
 2216TIP3    H1 6654   0.738   5.105   3.101 -1.7115  1.8375 -1.0228
 2216TIP3    H2 6655   0.787   5.077   2.960  1.1946 -2.5473  0.6532
 2217TIP3   OH2 6656   2.783   2.445   3.233  0.3319 -0.3455  0.9371
 2217TIP3    H1 6657   2.756   2.460   3.324  0.4387  3.5921  0.5225
 2217TIP3    H2 6658   2.700   2.443   3.184  0.3562  0.6445  0.8356
 2218TIP3   OH2 6659   4.699   3.705   2.341  0.5554  0.1935  0.0468
 2218TIP3    H1 6660   4.635   3.732   2.275 -0.7947  0.3673  1.3779
 2218TIP3    H2 6661   4.755   3.781   2.353  1.8002 -0.3221 -1.9445
 2219TIP3   OH2 6662   0.118   1.396   1.598  0.0913  0.0328  0.5569
 2219TIP3    H1 6663   0.169   1.326   1.556 -0.1068  0.5128 -0.5038
 2219TIP3    H2 6664   0.154   1.477   1.561  0.7731  0.5653  2.2556
 2220TIP3   OH2 6665   2.654   2.116   2.282  0.1941  0.2466 -0.1265
 2220TIP3    H1 6666   2.628   2.025   2.271  1.4486 -0.2191  0.4601
 2220TIP3    H2 6667   2.722   2.130   2.216 -0.4197  0.9502 -0.6220
 2221TIP3   OH2 6668   6.292   5.315   3.979  0.2381  0.2583 -0.6876
 2221TIP3    H1 6669   6.198   5.306   3.999 -0.4578  0.0983 -3.6455
 2221TIP3    H2 6670   6.294   5.361   3.895  2.7441 -1.3715 -1.6070
 2222TIP3   OH2 6671   3.008   1.381   4.001 -0.5999 -0.3728  0.0777
 2222TIP3    H1 6672   3.026   1.473   4.019 -0.7327 -0.1969 -0.6246
 2222TIP3    H2 6673   2.917   1.381   3.972 -0.7505 -0.7972  0.5459
 2223TIP3   OH2 6674   1.125   3.636   0.684  0.0985  0.4793  0.1447
 2223TIP3    H1 6675   1.096   3.669   0.599  1.5464 -0.9135 -0.9509
 2223TIP3    H2 6676   1.045   3.628   0.736 -1.0415 -0.1494 -1.6297
 2224TIP3   OH2 6677   2.895   2.810   1.871  0.1048  0.8783 -0.0548
 2224TIP3    H1 6678   2.918   2.863   1.795  1.7627  0.2311 -0.0553
 2224TIP3    H2 6679   2.820   2.758   1.842  1.3759 -0.1616 -1.6917
 2225TIP3   OH2 6680   4.706   4.380   0.920  0.1290 -0.1422  0.0784
 2225TIP3    H1 6681   4.741   4.402   0.833 -0.0941 -0.7550 -0.1755
 2225TIP3    H2 6682   4.760   4.429   0.981  0.6994 -0.1973 -0.3766
 2226TIP3   OH2 6683   6.234   0.474   2.597  0.2372  0.1629 -0.1099
 2226TIP3    H1 6684   6.186   0.551   2.626  0.1025 -0.1504  0.5166
 2226TIP3    H2 6685   6.297   0.457   2.666  0.3660 -0.2017 -0.3131
 2227TIP3   OH2 6686   1.060   2.051   3.137 -0.0081  0.8269  0.4863
 2227TIP3    H1 6687   1.058   2.113   3.065  0.4474 -2.0372 -2.2254
 2227TIP3    H2 6688   1.143   2.069   3.183 -0.1627  2.5037  0.1395
 2228TIP3   OH2 6689   4.885   3.308   2.870  0.0776 -0.4320 -0.1674
 2228TIP3    H1 6690   4.827   3.354   2.809 -1.0389 -0.1450  1.0609
 2228TIP3    H2 6691   4.927   3.378   2.920 -0.5130 -0.6990  0.7188
 2229TIP3   OH2 6692   3.335   0.159   1.082 -0.1792 -0.4336 -0.1009
 2229TIP3    H1 6693   3.374   0.231   1.131 -0.2770 -0.5138  0.0936
 2229TIP3    H2 6694   3.297   0.102   1.149  0.4688 -1.0037 -0.1961
 2230TIP3   OH2 6695   3.342   4.567   1.816  0.1361  0.0710 -0.1465
 2230TIP3    H1 6696   3.422   4.599   1.776 -0.0969  0.2836 -0.4418
 2230TIP3    H2 6697   3.321   4.632   1.883  0.1043  0.1122 -0.1969
 2231TIP3   OH2 6698   4.139   4.684   3.245  0.4958 -0.0121  0.4383
 2231TIP3    H1 6699   4.143   4.667   3.151 -0.8494 -3.4158  0.8638
 2231TIP3    H2 6700   4.048   4.709   3.262  0.5834  0.0096  0.9026
 2232TIP3   OH2 6701   1.338   3.225   0.563  0.0949  0.4804  0.1719
 2232TIP3    H1 6702   1.253   3.224   0.520  0.3765 -0.3572 -0.3929
 2232TIP3    H2 6703   1.328   3.287   0.636 -0.7267  1.0607 -0.4166
 2233TIP3   OH2 6704   6.146   0.915   3.955  0.3307  0.3510  0.0712
 2233TIP3    H1 6705   6.066   0.930   4.005  1.8362  1.2337  2.3908
 2233TIP3    H2 6706   6.166   1.001   3.916  1.3359  0.7600  1.4308
 2234TIP3   OH2 6707   2.828   4.138   3.357 -0.0243  0.1064  0.0088
 2234TIP3    H1 6708   2.880   4.216   3.381 -0.3667  0.0490  0.9932
 2234TIP3    H2 6709   2.794   4.158   3.270  0.5780  0.7006 -0.1036
 2235TIP3   OH2 6710   3.984   3.555   0.841 -0.1390 -0.6131 -0.3146
 2235TIP3    H1 6711   3.904   3.604   0.823 -1.5543 -1.3408  3.2050
 2235TIP3    H2 6712   4.029   3.606   0.909  1.0642 -1.5243 -0.3905
 2236TIP3   OH2 6713   0.313   3.389   4.783 -0.0729 -0.6869 -0.5239
 2236TIP3    H1 6714   0.249   3.415   4.717 -0.5895 -3.0858 -1.0692
 2236TIP3    H2 6715   0.282   3.304   4.814  1.9092 -1.0946  0.4971
 2237TIP3   OH2 6716   0.196   2.587   4.154 -0.1921  0.6958  0.2111
 2237TIP3    H1 6717   0.261   2.538   4.103  0.6266  1.0115  0.9247
 2237TIP3    H2 6718   0.165   2.655   4.094 -0.6933 -0.1400 -0.5007
 2238TIP3   OH2 6719   0.986   3.767   2.775 -0.3098  0.6854  0.3980
 2238TIP3    H1 6720   0.922   3.837   2.762 -0.8744  0.3955  1.4720
 2238TIP3    H2 6721   1.071   3.810   2.765 -0.6554  1.1844 -0.5300
 2239TIP3   OH2 6722   5.230   3.491   2.732  0.2820  0.6933  0.0570
 2239TIP3    H1 6723   5.255   3.412   2.780 -0.5607 -0.6772 -1.6413
 2239TIP3    H2 6724   5.246   3.562   2.793  1.5521 -0.7359  1.4891
 2240TIP3   OH2 6725   5.607   1.392   2.224 -0.2791  0.3855  0.2990
 2240TIP3    H1 6726   5.623   1.333   2.298  0.9791 -0.8877 -0.9249
 2240TIP3    H2 6727   5.690   1.440   2.214  0.0073 -0.3540 -1.0331
 2241TIP3   OH2 6728   5.973   4.506   0.640  0.7333  0.1609  0.0372
 2241TIP3    H1 6729   5.889   4.466   0.660  0.1292  2.6352  3.5044
 2241TIP3    H2 6730   6.034   4.466   0.703  1.0763  1.4514  0.5649
 2242TIP3   OH2 6731   5.629   2.282   4.474  0.2309 -0.0087  0.6766
 2242TIP3    H1 6732   5.707   2.300   4.526 -0.2827  0.2739  1.3695
 2242TIP3    H2 6733   5.589   2.206   4.516  2.2244 -2.8050 -2.0459
 2243TIP3   OH2 6734   2.915   3.461   4.564 -0.0058  0.2897  0.4011
 2243TIP3    H1 6735   2.885   3.507   4.642  1.7331 -1.5733  2.2671
 2243TIP3    H2 6736   2.952   3.379   4.596  0.5472 -0.6805 -2.4144
 2244TIP3   OH2 6737   1.658   5.995   0.331 -0.4457 -0.1317  0.3257
 2244TIP3    H1 6738   1.674   5.930   0.400  0.4466 -0.3710 -0.0967
 2244TIP3    H2 6739   1.727   5.980   0.267 -1.3083  0.0302 -0.6751
 2245TIP3   OH2 6740   4.427   0.322   3.651  0.1368 -0.2740  0.1033
 2245TIP3    H1 6741   4.495   0.262   3.620 -0.9107 -2.2318  1.3909
 2245TIP3    H2 6742   4.403   0.288   3.738 -1.4453  1.2301  0.3051
 2246TIP3   OH2 6743   2.296   5.655   1.237  0.8009  0.1031 -0.1957
 2246TIP3    H1 6744   2.307   5.615   1.151 -0.9649 -2.0781  0.4708
 2246TIP3    H2 6745   2.274   5.746   1.220 -0.9276 -0.6059 -2.1626
 2247TIP3   OH2 6746   0.761   2.671   1.553  0.4322 -0.3188  0.7058
 2247TIP3    H1 6747   0.770   2.763   1.527  1.6632 -0.9750 -1.3687
 2247TIP3    H2 6748   0.679   2.669   1.603  0.6442  1.9748  1.2868
 2248TIP3   OH2 6749   6.201   5.336   4.964 -0.1970 -0.1430 -0.5965
 2248TIP3    H1 6750   6.280   5.282   4.971  0.0008  0.2180  0.1166
 2248TIP3    H2 6751   6.231   5.425   4.985 -0.7527  0.0354 -0.5342
 2249TIP3   OH2 6752   5.132   4.822   4.698 -0.2238  0.4709  0.3368
 2249TIP3    H1 6753   5.145   4.901   4.646 -3.8234 -0.3813 -2.2824
 2249TIP3    H2 6754   5.161   4.751   4.642  0.2083 -0.2659  1.4590
 2250TIP3   OH2 6755   1.045   3.618   0.412  0.0259 -0.3951  0.3834
 2250TIP3    H1 6756   0.991   3.637   0.336  0.0274 -1.2163  0.1709
 2250TIP3    H2 6757   1.131   3.595   0.376 -0.0463 -1.0389  0.6121
 2251TIP3   OH2 6758   2.816   3.641   0.265 -0.3315  0.2464  0.4289
 2251TIP3    H1 6759   2.876   3.624   0.193 -0.9423 -0.5018  0.0792
 2251TIP3    H2 6760   2.821   3.563   0.321 -1.7334 -0.3150 -0.1679
 2252TIP3   OH2 6761   4.858   3.855   4.551  0.8326  0.0886  0.1185
 2252TIP3    H1 6762   4.808   3.828   4.474 -0.4374  0.5030  0.7709
 2252TIP3    H2 6763   4.845   3.784   4.614  0.9257  0.2789  0.3547
 2253TIP3   OH2 6764   0.613   5.156   0.834  0.2506  0.2312  0.1898
 2253TIP3    H1 6765   0.531   5.126   0.794 -0.1555  0.4633  0.8381
 2253TIP3    H2 6766   0.634   5.090   0.899  0.1773  0.5577  0.5467
 2254TIP3   OH2 6767   0.777   3.457   1.237 -0.2043 -0.1654 -0.1902
 2254TIP3    H1 6768   0.870   3.441   1.251 -0.6051 -2.0326  0.7073
 2254TIP3    H2 6769   0.744   3.484   1.323 -0.6081 -0.2776 -0.3043
 2255TIP3   OH2 6770   5.653   5.161   3.271 -0.5322  0.5831 -0.2553
 2255TIP3    H1 6771   5.565   5.141   3.238  0.2308 -1.4563 -1.2581
 2255TIP3    H2 6772   5.676   5.085   3.324  0.9572  0.6492 -0.7507
 2256TIP3   OH2 6773   0.593   2.871   1.909 -0.8037  0.5657  0.0266
 2256TIP3    H1 6774   0.679   2.902   1.937 -0.5089  0.6437 -0.9499
 2256TIP3    H2 6775   0.561   2.820   1.984  0.1050  0.5068  0.3886
 2257TIP3   OH2 6776   3.443   3.012   1.699 -0.3025  0.5640 -0.1648
 2257TIP3    H1 6777   3.501   3.017   1.776 -0.3790  0.3748 -0.0942
 2257TIP3    H2 6778   3.482   2.944   1.644 -2.1575 -1.9152  1.3370
 2258TIP3   OH2 6779   3.797   4.264   4.151  0.4334 -0.2086 -0.1377
 2258TIP3    H1 6780   3.873   4.225   4.194  0.8640 -0.1829 -0.8530
 2258TIP3    H2 6781   3.814   4.358   4.151  1.2435 -0.3224 -1.8166
 2259TIP3   OH2 6782   3.267   2.528   2.751 -0.4953  0.1395 -0.6967
 2259TIP3    H1 6783   3.205   2.534   2.679 -0.2354  1.1008 -0.8515
 2259TIP3    H2 6784   3.335   2.593   2.730  1.5169 -2.0673 -1.4277
 2260TIP3   OH2 6785   6.086   3.082   0.466  0.1271  0.5373 -0.2352
 2260TIP3    H1 6786   6.045   3.015   0.411  1.4795 -0.4321 -0.1213
 2260TIP3    H2 6787   6.115   3.149   0.404 -0.6848  0.7241 -0.4202
 2261TIP3   OH2 6788   6.210   5.849   3.068  0.2405  0.1786 -0.0549
 2261TIP3    H1 6789   6.142   5.799   3.113  1.2787  0.7602  2.3876
 2261TIP3    H2 6790   6.262   5.783   3.022 -0.0377 -0.6717  0.8141
 2262TIP3   OH2 6791   2.221   2.959   4.787  0.1977  0.0291 -0.1239
 2262TIP3    H1 6792   2.305   2.966   4.742 -0.3059  2.1269 -0.8563
 2262TIP3    H2 6793   2.158   2.944   4.716 -0.3812  1.4965  0.0594
 2263TIP3   OH2 6794   1.411   0.744   0.370 -0.0662  0.3709  0.5421
 2263TIP3    H1 6795   1.339   0.799   0.339 -1.0784  0.2604  2.5612
 2263TIP3    H2 6796   1.407   0.751   0.465  2.3084 -0.0465  0.7185
 2264TIP3   OH2 6797   5.151   1.345   4.642  0.2215  0.3451 -0.4821
 2264TIP3    H1 6798   5.146   1.439   4.623  1.0457  0.0877 -2.1851
 2264TIP3    H2 6799   5.191   1.307   4.563 -0.3770 -1.4785  0.0483
 2265TIP3   OH2 6800   2.627   3.621   1.382  0.0348  0.5362  0.1177
 2265TIP3    H1 6801   2.543   3.620   1.429 -0.6340  1.4923 -0.9798
 2265TIP3    H2 6802   2.604   3.594   1.293  0.7587  1.5156 -0.3826
 2266TIP3   OH2 6803   2.012   2.683   0.245 -0.4537 -0.2806 -0.3748
 2266TIP3    H1 6804   1.960   2.727   0.178 -1.3806 -1.1723 -0.2677
 2266TIP3    H2 6805   2.055   2.754   0.292 -1.9230  0.5433 -0.1910
 2267TIP3   OH2 6806   1.138   0.885   3.488 -0.1102  0.1450 -0.5630
 2267TIP3    H1 6807   1.221   0.856   3.526  0.8348  1.0749 -1.8151
 2267TIP3    H2 6808   1.088   0.918   3.562  0.3155 -1.1359  0.3249
 2268TIP3   OH2 6809   1.541   2.060   1.535  0.0514 -0.0279 -0.0788
 2268TIP3    H1 6810   1.516   2.083   1.624 -1.1440 -0.9921 -0.1472
 2268TIP3    H2 6811   1.531   2.142   1.486  0.6174  0.4821  0.6333
 2269TIP3   OH2 6812   2.936   5.796   0.990  0.0529  0.0077  0.4838
 2269TIP3    H1 6813   2.880   5.729   0.951 -0.8439  1.9458 -1.7621
 2269TIP3    H2 6814   2.881   5.838   1.057 -0.7350  0.9576 -0.7253
 2270TIP3   OH2 6815   0.878   3.175   1.427 -0.3209  0.0738  0.3339
 2270TIP3    H1 6816   0.855   3.247   1.369 -0.7938  0.4090  0.9202
 2270TIP3    H2 6817   0.928   3.216   1.498 -0.5988 -0.1639  0.6735
 2271TIP3   OH2 6818   2.092   3.296   0.119  0.4598  0.0424  0.3498
 2271TIP3    H1 6819   2.007   3.257   0.099  0.3338  0.1437  0.6710
 2271TIP3    H2 6820   2.070   3.379   0.163  0.7228  0.2408  0.1104
 2272TIP3   OH2 6821   3.865   2.231   1.278 -0.5896  0.2399 -0.2103
 2272TIP3    H1 6822   3.893   2.141   1.297  1.3399  0.3751 -2.0687
 2272TIP3    H2 6823   3.885   2.280   1.358  2.9215 -0.0973 -0.7317
 2273TIP3   OH2 6824   5.628   5.744   0.529  0.2559  0.4375 -0.1927
 2273TIP3    H1 6825   5.674   5.774   0.608  1.5311  0.5711 -0.9481
 2273TIP3    H2 6826   5.598   5.825   0.487 -1.7398  0.2988  0.8818
 2274TIP3   OH2 6827   0.018   1.033   2.741  0.3626 -0.0599 -0.0782
 2274TIP3    H1 6828   0.111   1.035   2.763 -0.0198  0.2234  1.6830
 2274TIP3    H2 6829  -0.017   0.961   2.793 -0.3487 -0.4052 -1.0120
 2275TIP3   OH2 6830   0.048   1.176   3.419  0.5178 -0.3508 -0.1889
 2275TIP3    H1 6831   0.043   1.181   3.515  1.9316  0.2183 -0.1153
 2275TIP3    H2 6832   0.072   1.085   3.401 -0.8647 -0.7541 -0.0839
 2276TIP3   OH2 6833   1.332   1.898   3.117 -0.0016 -0.1248 -0.1109
 2276TIP3    H1 6834   1.291   1.913   3.032  0.3476 -2.2045 -0.6906
 2276TIP3    H2 6835   1.283   1.826   3.156  1.5570 -1.0618  0.2081
 2277TIP3   OH2 6836   6.203   1.927   5.101  0.0174 -0.2044  0.0591
 2277TIP3    H1 6837   6.296   1.904   5.097 -0.1874 -1.1639  0.4987
 2277TIP3    H2 6838   6.159   1.844   5.123 -0.7940  0.5326  1.3078
 2278TIP3   OH2 6839   5.898   2.534   0.833  0.1074 -0.2454  0.1583
 2278TIP3    H1 6840   5.818   2.586   0.839  0.6681  0.7493 -0.7767
 2278TIP3    H2 6841   5.937   2.558   0.749  1.8418 -0.0603  0.9764
 2279TIP3   OH2 6842   2.483   1.736   3.601 -0.3788  0.1990 -0.3289
 2279TIP3    H1 6843   2.415   1.802   3.615  1.3683  2.2361 -0.9469
 2279TIP3    H2 6844   2.447   1.679   3.533 -2.2726 -0.0609  0.8241
 2280TIP3   OH2 6845   2.307   2.582   2.409 -0.3431 -0.1348  0.4683
 2280TIP3    H1 6846   2.212   2.593   2.410 -0.5370 -1.5251  2.1348
 2280TIP3    H2 6847   2.341   2.655   2.460 -0.3176  1.3282 -1.5056
 2281TIP3   OH2 6848   0.595   5.280   4.951  0.1061  0.5847  0.5568
 2281TIP3    H1 6849   0.616   5.329   4.871 -0.4168  1.2335  0.8073
 2281TIP3    H2 6850   0.672   5.291   5.007 -0.4856  2.2104  1.1206
 2282TIP3   OH2 6851   2.943   5.507   2.208  0.3891 -0.5992 -0.3036
 2282TIP3    H1 6852   3.013   5.531   2.269  1.3370 -1.5899 -0.9675
 2282TIP3    H2 6853   2.897   5.589   2.191  1.0039 -0.0441  0.6253
 2283TIP3   OH2 6854   2.323   0.412   3.778 -0.0755  0.6928 -0.0370
 2283TIP3    H1 6855   2.301   0.351   3.708  1.7889 -0.4072  0.2498
 2283TIP3    H2 6856   2.282   0.375   3.856  1.3190 -0.4317  0.1980
 2284TIP3   OH2 6857   0.452   2.514   5.022  0.2221 -0.5183 -0.3274
 2284TIP3    H1 6858   0.490   2.429   5.042  1.1098 -0.4383 -1.5316
 2284TIP3    H2 6859   0.412   2.503   4.935 -1.0680 -0.1346  0.1864
 2285TIP3   OH2 6860   3.217   1.687   2.405  0.0745  0.7220  0.0854
 2285TIP3    H1 6861   3.225   1.765   2.350  1.5532 -0.2588 -1.2192
 2285TIP3    H2 6862   3.147   1.707   2.466 -0.0982  2.7669 -0.7001
 2286TIP3   OH2 6863   2.423   4.020   5.103  0.2426  0.2777  0.2379
 2286TIP3    H1 6864   2.401   3.979   5.020  0.7212  0.2923  0.1003
 2286TIP3    H2 6865   2.425   4.114   5.084 -0.5594  0.3544  0.4839
 2287TIP3   OH2 6866   4.626   5.246   5.127  0.4444 -0.7353 -0.2761
 2287TIP3    H1 6867   4.557   5.282   5.182 -0.1703 -0.7938 -1.0033
 2287TIP3    H2 6868   4.703   5.242   5.184  0.5958  1.8590 -0.1784
 2288TIP3   OH2 6869   4.302   4.014   3.745  0.1228 -0.7071  0.0564
 2288TIP3    H1 6870   4.248   4.064   3.685 -2.1864  0.5419  2.9086
 2288TIP3    H2 6871   4.266   3.925   3.741 -1.6287 -0.1002  1.2147
 2289TIP3   OH2 6872   4.406   0.680   3.887  0.2927 -0.2353  0.0881
 2289TIP3    H1 6873   4.457   0.760   3.873 -0.4132  0.4880  1.3706
 2289TIP3    H2 6874   4.360   0.666   3.805  1.7958 -0.3645 -0.7677
 2290TIP3   OH2 6875   5.188   0.089   1.012  0.0100  0.1771  0.2712
 2290TIP3    H1 6876   5.174  -0.001   0.983 -0.6741 -0.6794  2.9503
 2290TIP3    H2 6877   5.282   0.102   1.009  0.0208 -0.1284 -1.4097
 2291TIP3   OH2 6878   4.023   0.079   2.878  0.1976 -0.1977 -0.7234
 2291TIP3    H1 6879   4.098   0.020   2.886  0.5481  0.3350  0.0636
 2291TIP3    H2 6880   4.004   0.105   2.969  0.1204  0.9794 -1.0645
 2292TIP3   OH2 6881   0.590   3.067   5.144 -0.3656  0.4319 -0.1478
 2292TIP3    H1 6882   0.626   3.103   5.225 -0.9054  2.4727 -0.7827
 2292TIP3    H2 6883   0.657   3.004   5.115  0.8278  1.2345  0.7578
 2293TIP3   OH2 6884   3.411   2.250   0.081 -0.0102  0.0117  0.4126
 2293TIP3    H1 6885   3.439   2.341   0.087 -1.5057  0.4122  2.5530
 2293TIP3    H2 6886   3.426   2.214   0.168 -0.3570 -1.5266 -0.1154
 2294TIP3   OH2 6887   1.633   1.762   1.342 -0.1725 -0.2828 -0.0541
 2294TIP3    H1 6888   1.685   1.840   1.323 -0.3124 -0.1514  0.0994
 2294TIP3    H2 6889   1.543   1.788   1.325 -0.3029 -0.1462  0.8169
 2295TIP3   OH2 6890   0.127   1.839   4.154 -0.3602 -0.6678 -0.1218
 2295TIP3    H1 6891   0.134   1.865   4.246 -1.8381  1.5777 -0.5700
 2295TIP3    H2 6892   0.209   1.793   4.136  0.7057  0.3139  1.8606
 2296TIP3   OH2 6893   2.682   5.785   4.870 -0.0665  0.1248 -0.0390
 2296TIP3    H1 6894   2.637   5.704   4.846 -0.7699  0.8134 -1.1467
 2296TIP3    H2 6895   2.768   5.757   4.899  1.0318 -0.8576 -3.7029
 2297TIP3   OH2 6896   3.424   4.136   3.776 -0.2745 -0.1415  0.0231
 2297TIP3    H1 6897   3.372   4.209   3.743  1.5768  0.6797 -1.2937
 2297TIP3    H2 6898   3.454   4.165   3.862  0.8685  0.9512 -0.6985
 2298TIP3   OH2 6899   6.147   3.378   4.942 -0.4691  0.2234 -0.6716
 2298TIP3    H1 6900   6.186   3.312   4.885  1.5366  0.7492  0.0080
 2298TIP3    H2 6901   6.074   3.414   4.891  0.5176 -0.1407 -2.4149
 2299TIP3   OH2 6902   4.852   2.670   3.903  0.0017 -0.6589 -0.7316
 2299TIP3    H1 6903   4.758   2.669   3.882  0.1583  1.0386 -1.6495
 2299TIP3    H2 6904   4.895   2.667   3.817  0.7694  0.1053 -0.3786
 2300TIP3   OH2 6905   5.711   1.526   4.134 -0.4320  0.2362  0.0328
 2300TIP3    H1 6906   5.763   1.534   4.054 -0.9287 -0.6667 -0.3900
 2300TIP3    H2 6907   5.773   1.493   4.199 -0.4794 -0.9775 -0.5052
 2301TIP3   OH2 6908   4.125   0.848   0.001  0.0052 -0.1733  0.0387
 2301TIP3    H1 6909   4.132   0.753  -0.009  1.2715 -0.0645 -0.3248
 2301TIP3    H2 6910   4.087   0.860   0.088 -1.1042 -1.0094 -0.2970
 2302TIP3   OH2 6911   3.195   3.039   1.852  0.4240 -0.0895 -0.0893
 2302TIP3    H1 6912   3.273   2.997   1.816 -0.3300  0.4017 -2.4397
 2302TIP3    H2 6913   3.126   2.973   1.842 -0.0015  0.4097 -0.4677
 2303TIP3   OH2 6914   6.306   5.740   1.310  0.3333  0.1626  0.1861
 2303TIP3    H1 6915   6.255   5.819   1.292  0.1023  0.1852  0.8945
 2303TIP3    H2 6916   6.296   5.686   1.232  0.2132  0.6926 -0.1652
 2304TIP3   OH2 6917   5.670   5.779   3.840  0.2964  0.0519  0.5636
 2304TIP3    H1 6918   5.627   5.733   3.768  1.6571  0.1491 -0.3479
 2304TIP3    H2 6919   5.677   5.869   3.810  0.0017  0.3021  1.2386
 2305TIP3   OH2 6920   2.819   3.224   1.098 -0.5802  0.1334  0.2860
 2305TIP3    H1 6921   2.910   3.243   1.074 -0.3414 -0.5682  0.5808
 2305TIP3    H2 6922   2.813   3.128   1.091 -0.9765  0.0718  1.3770
 2306TIP3   OH2 6923   0.174   5.364   1.962  0.3755 -0.2377  0.8778
 2306TIP3    H1 6924   0.084   5.396   1.964  0.9223  1.4305  0.8075
 2306TIP3    H2 6925   0.227   5.444   1.956  1.8284 -1.2250 -0.0037
 2307TIP3   OH2 6926   4.964   2.787   2.379 -0.3335  0.1493  0.2378
 2307TIP3    H1 6927   4.936   2.836   2.456 -1.3441 -0.6899  0.4299
 2307TIP3    H2 6928   4.889   2.731   2.357 -0.0807  0.3695 -1.3570
 2308TIP3   OH2 6929   2.872   3.496   4.054  0.2781  0.0444 -0.0369
 2308TIP3    H1 6930   2.907   3.537   4.133  0.4270 -0.7761  0.3394
 2308TIP3    H2 6931   2.786   3.463   4.080 -0.7282  1.8364 -0.8931
 2309TIP3   OH2 6932   3.960   2.795   3.376  0.4622 -0.5620  0.6343
 2309TIP3    H1 6933   3.875   2.796   3.420 -0.7099  2.0232 -1.4232
 2309TIP3    H2 6934   3.958   2.715   3.322 -1.4256  0.2634 -0.6210
 2310TIP3   OH2 6935   0.867   0.686   3.134 -0.3400 -0.2270 -0.2112
 2310TIP3    H1 6936   0.795   0.710   3.076  0.0571  0.6516 -0.3517
 2310TIP3    H2 6937   0.942   0.735   3.101  0.2957 -1.0107  0.0255
 2311TIP3   OH2 6938   3.302   2.628   0.731 -0.2715  0.3610  0.1742
 2311TIP3    H1 6939   3.382   2.622   0.679 -1.0576  0.6409 -1.1015
 2311TIP3    H2 6940   3.274   2.538   0.741  0.6784  0.1783  1.4256
 2312TIP3   OH2 6941   1.035   2.825   2.728 -0.1715 -0.1399 -0.0264
 2312TIP3    H1 6942   1.096   2.762   2.767  0.0062 -0.1858 -0.3706
 2312TIP3    H2 6943   0.980   2.854   2.801  0.6227  0.3265  0.4012
 2313TIP3   OH2 6944   0.500   3.719   4.284 -0.0266  0.4041 -0.2007
 2313TIP3    H1 6945   0.457   3.720   4.198 -0.9329  0.9479  0.2439
 2313TIP3    H2 6946   0.585   3.759   4.268  0.5180 -1.0535 -1.1813
 2314TIP3   OH2 6947   3.303   1.606   0.582 -0.2163  0.6131  0.1795
 2314TIP3    H1 6948   3.275   1.516   0.568  2.2697 -0.2387  0.1820
 2314TIP3    H2 6949   3.321   1.640   0.494  0.9665  0.3081  0.2753
 2315TIP3   OH2 6950   1.774   0.625   4.639  0.4658  0.0491 -0.4875
 2315TIP3    H1 6951   1.846   0.578   4.680 -0.6541 -2.0895 -0.8265
 2315TIP3    H2 6952   1.707   0.631   4.707  0.3533  0.6004 -0.6407
 2316TIP3   OH2 6953   0.464   4.710   3.971  0.8373 -0.0826 -0.0771
 2316TIP3    H1 6954   0.395   4.686   3.909  1.8350  1.1728 -1.7704
 2316TIP3    H2 6955   0.421   4.768   4.035  0.4062  1.2740 -1.5244
 2317TIP3   OH2 6956   5.357   4.224   4.300 -0.0531  0.4715 -0.0053
 2317TIP3    H1 6957   5.360   4.197   4.392  2.1426 -0.6762 -0.3229
 2317TIP3    H2 6958   5.343   4.318   4.303 -0.7359  0.3573  1.4709
 2318TIP3   OH2 6959   4.511   2.545   1.483 -0.7824  0.4813 -0.3736
 2318TIP3    H1 6960   4.438   2.501   1.440 -2.0301  1.8047  0.2868
 2318TIP3    H2 6961   4.510   2.511   1.572  1.3431 -1.7164 -1.1006
 2319TIP3   OH2 6962   5.485   5.450   1.144 -0.8997 -0.1043  0.5231
 2319TIP3    H1 6963   5.528   5.519   1.195  1.8664 -1.4763  0.2048
 2319TIP3    H2 6964   5.533   5.447   1.062 -2.0136 -1.3491 -0.1272
 2320TIP3   OH2 6965   3.958   1.355   2.255 -0.1124 -0.5060  0.2843
 2320TIP3    H1 6966   3.882   1.406   2.226  1.0527  0.0950 -1.9530
 2320TIP3    H2 6967   3.976   1.387   2.343 -1.6551  0.2698  0.3562
 2321TIP3   OH2 6968   4.996   2.322   1.760  0.5417  0.4112  0.4016
 2321TIP3    H1 6969   4.933   2.258   1.793 -0.6170 -0.4017 -3.0754
 2321TIP3    H2 6970   4.949   2.405   1.760 -0.9753 -0.3153 -2.8616
 2322TIP3   OH2 6971   1.600   3.300   3.404 -0.3798 -0.8110  0.0597
 2322TIP3    H1 6972   1.615   3.219   3.452 -0.4605 -1.1206 -0.4307
 2322TIP3    H2 6973   1.581   3.365   3.472 -0.6995 -1.2857  0.4344
 2323TIP3   OH2 6974   5.458   4.877   0.671 -0.3715 -0.4403  0.1430
 2323TIP3    H1 6975   5.430   4.946   0.612  0.9440 -0.1801 -0.2202
 2323TIP3    H2 6976   5.497   4.923   0.745 -1.7545 -0.7685  1.1100
 2324TIP3   OH2 6977   5.520   4.577   0.151  0.1620  0.0543  0.0515
 2324TIP3    H1 6978   5.549   4.644   0.089 -0.8259  1.4748  1.0533
 2324TIP3    H2 6979   5.461   4.521   0.100  0.1486  0.6012 -0.5445
 2325TIP3   OH2 6980   5.971   1.297   2.021  0.2863 -0.5217  0.1857
 2325TIP3    H1 6981   5.898   1.271   1.963 -0.0045  0.8952 -0.1218
 2325TIP3    H2 6982   5.937   1.281   2.109 -0.4853  0.2731  0.0534
 2326TIP3   OH2 6983   2.161   5.002   1.129 -0.0317 -0.7667  0.4850
 2326TIP3    H1 6984   2.241   5.015   1.078  0.9175 -0.2751  2.0362
 2326TIP3    H2 6985   2.112   4.937   1.079  1.3035 -1.0432 -0.5459
 2327TIP3   OH2 6986   3.392   2.417   2.048 -0.1269  0.1499  0.6031
 2327TIP3    H1 6987   3.321   2.372   2.002  0.3640  1.0536 -1.1163
 2327TIP3    H2 6988   3.470   2.366   2.026  0.2530  1.1214 -0.4048
 2328TIP3   OH2 6989   2.165   4.297   2.444  0.2924  0.6862  0.1490
 2328TIP3    H1 6990   2.120   4.350   2.511  0.2684  1.4969 -0.4965
 2328TIP3    H2 6991   2.254   4.331   2.443  0.7541 -0.4369  0.9126
 2329TIP3   OH2 6992   1.318   4.851   0.160  0.1786  0.2461  0.1535
 2329TIP3    H1 6993   1.279   4.874   0.076 -0.6764  0.3293  0.5626
 2329TIP3    H2 6994   1.397   4.905   0.165  0.9128 -0.6564 -1.1252
 2330TIP3   OH2 6995   3.166   5.473   1.650  0.1114  0.3219  0.4900
 2330TIP3    H1 6996   3.207   5.388   1.663 -0.3840  0.1375  0.9029
 2330TIP3    H2 6997   3.091   5.454   1.594  0.0270  0.4897  0.5456
 2331TIP3   OH2 6998   5.671   1.083   4.504 -0.5384  0.2971 -0.2122
 2331TIP3    H1 6999   5.726   1.106   4.579 -2.8355 -0.1502  1.7039
 2331TIP3    H2 7000   5.731   1.037   4.444  0.7917 -2.0691  2.7044
 2332TIP3   OH2 7001   1.564   4.715   2.885  0.2783 -0.1300 -0.0517
 2332TIP3    H1 7002   1.481   4.702   2.932  1.4242 -2.1112  1.6083
 2332TIP3    H2 7003   1.628   4.728   2.955  1.6057 -0.2368 -1.2230
 2333TIP3   OH2 7004  -0.017   3.407   2.716  0.1430 -0.0790 -0.6447
 2333TIP3    H1 7005   0.015   3.442   2.800 -1.5990  0.7310 -0.2828
 2333TIP3    H2 7006   0.062   3.400   2.662  1.3428 -0.8417  1.1184
 2334TIP3   OH2 7007   6.052   4.021   0.913 -0.5458  0.3772 -0.2389
 2334TIP3    H1 7008   6.127   4.067   0.877  0.5975 -1.4888 -0.3829
 2334TIP3    H2 7009   5.992   4.010   0.839  0.5861 -1.0729 -0.9913
 2335TIP3   OH2 7010   0.986   5.732   1.203  0.4671 -0.1507 -0.2596
 2335TIP3    H1 7011   0.899   5.717   1.241  0.9511 -0.0422  0.9288
 2335TIP3    H2 7012   0.973   5.720   1.109 -0.4760 -1.8546  0.0474
 2336TIP3   OH2 7013   1.241   1.239   4.542 -0.3995  0.6296  0.7788
 2336TIP3    H1 7014   1.254   1.160   4.595 -2.5483  0.1404  0.6778
 2336TIP3    H2 7015   1.308   1.299   4.572  1.5895 -1.3582  0.5693
 2337TIP3   OH2 7016   2.912   4.576   4.630  0.2861  0.3226  0.1863
 2337TIP3    H1 7017   2.882   4.486   4.617 -1.0905  0.4556  2.0109
 2337TIP3    H2 7018   2.862   4.627   4.567 -0.1859 -0.0040  0.2855
 2338TIP3   OH2 7019   6.098   5.892   2.499 -0.2063 -0.1864 -0.2164
 2338TIP3    H1 7020   6.143   5.964   2.543  0.7070 -0.4756 -0.6544
 2338TIP3    H2 7021   6.106   5.912   2.406 -2.8830  0.8857 -0.3075
 2339TIP3   OH2 7022   4.945   5.435   0.260 -0.1910  0.5039  0.8674
 2339TIP3    H1 7023   4.947   5.509   0.321  1.2644  1.2345  0.0045
 2339TIP3    H2 7024   4.945   5.357   0.316  1.2963  1.1536  1.8297
 2340TIP3   OH2 7025   1.081   1.720   2.659  0.8803  0.2649 -0.4399
 2340TIP3    H1 7026   1.045   1.672   2.733  2.3881  0.4728  0.4822
 2340TIP3    H2 7027   1.044   1.677   2.582  0.3943 -0.8865  0.3996
 2341TIP3   OH2 7028   0.786   1.817   2.250 -0.0220 -0.1107 -0.2256
 2341TIP3    H1 7029   0.856   1.759   2.222  0.9170 -2.7642  5.9963
 2341TIP3    H2 7030   0.829   1.901   2.266  0.3480  0.0593 -1.9645
 2342TIP3   OH2 7031   4.191   1.214   1.463 -0.4676  0.4452 -0.2411
 2342TIP3    H1 7032   4.274   1.246   1.499 -1.2419  0.9714  1.1859
 2342TIP3    H2 7033   4.160   1.286   1.408 -1.8555  2.0489  2.3959
 2343TIP3   OH2 7034   2.674   4.665   5.130 -0.1788 -0.4384  0.2040
 2343TIP3    H1 7035   2.660   4.577   5.096  1.1811  0.1471 -2.0787
 2343TIP3    H2 7036   2.762   4.663   5.168  0.4494  0.2531 -1.1487
 2344TIP3   OH2 7037   0.853   4.308   4.557 -0.2046 -0.4853  0.7365
 2344TIP3    H1 7038   0.941   4.273   4.571  0.0643  0.3103  1.0824
 2344TIP3    H2 7039   0.863   4.369   4.484 -0.8165 -1.6234 -0.3588
 2345TIP3   OH2 7040   4.203   5.049   1.226 -0.2377 -0.2369 -0.6114
 2345TIP3    H1 7041   4.242   5.137   1.227  0.3558 -0.4854  1.0108
 2345TIP3    H2 7042   4.206   5.024   1.134  0.4070  1.0900 -0.9935
 2346TIP3   OH2 7043   4.470   0.358   0.447 -0.1005  0.2083 -0.3242
 2346TIP3    H1 7044   4.496   0.377   0.357 -1.5260 -2.0532 -1.2906
 2346TIP3    H2 7045   4.385   0.400   0.457  0.9232  2.2048  0.7388
 2347TIP3   OH2 7046   0.650   2.457   0.680 -0.5221  0.1180  0.3518
 2347TIP3    H1 7047   0.682   2.401   0.751 -0.0683 -0.2103 -0.1026
 2347TIP3    H2 7048   0.701   2.538   0.688  0.5927 -0.4734 -0.4842
 2348TIP3   OH2 7049   4.978   0.229   0.941 -0.1284 -0.2205  0.4916
 2348TIP3    H1 7050   5.056   0.177   0.961  0.7228  0.5369 -0.7221
 2348TIP3    H2 7051   5.012   0.315   0.916 -1.4532  0.6643  1.5616
 2349TIP3   OH2 7052   6.193   3.032   4.333 -0.3779  0.2170 -0.1731
 2349TIP3    H1 7053   6.248   3.098   4.373  0.9035 -0.8417 -0.1220
 2349TIP3    H2 7054   6.147   2.990   4.406  0.3374 -0.2804  0.0013
 2350TIP3   OH2 7055   5.072   1.880   4.852  0.3984  0.7215 -0.3113
 2350TIP3    H1 7056   5.028   1.964   4.851 -1.3288 -0.1413 -0.7797
 2350TIP3    H2 7057   5.075   1.853   4.760  0.8905  0.2451 -0.1628
 2351TIP3   OH2 7058   4.579   0.141   5.015 -0.4256  0.8004 -0.0716
 2351TIP3    H1 7059   4.509   0.084   5.047  0.8954  0.2290  2.0023
 2351TIP3    H2 7060   4.654   0.121   5.071  0.2189  4.3385  0.5444
 2352TIP3   OH2 7061   0.337   0.185   4.867  0.3372 -0.3207 -0.5197
 2352TIP3    H1 7062   0.313   0.194   4.775 -0.6515 -0.6772 -0.3085
 2352TIP3    H2 7063   0.391   0.107   4.871 -1.1470 -1.3933 -0.5469
 2353TIP3   OH2 7064   0.837   3.682   0.205 -0.0217  0.4001  0.3713
 2353TIP3    H1 7065   0.848   3.765   0.159 -1.3040  0.8379  0.8088
 2353TIP3    H2 7066   0.789   3.705   0.285  0.0847 -0.6870  0.7679
 2354TIP3   OH2 7067   4.683   0.323   0.948  0.0864 -0.0955 -0.3134
 2354TIP3    H1 7068   4.774   0.302   0.968 -0.4778 -2.1796  0.1885
 2354TIP3    H2 7069   4.666   0.404   0.997  1.3968 -0.1306  0.2423
 2355TIP3   OH2 7070   4.368   1.478   1.980 -0.0812  0.0122  0.1141
 2355TIP3    H1 7071   4.385   1.479   1.886 -0.3460 -2.3234 -0.0286
 2355TIP3    H2 7072   4.295   1.417   1.990 -1.2490  1.5859  1.7008
 2356TIP3   OH2 7073   5.291   3.543   1.428 -0.1141  0.4558  0.8488
 2356TIP3    H1 7074   5.265   3.506   1.343 -1.2002  0.1091  1.3179
 2356TIP3    H2 7075   5.217   3.598   1.453  1.6729  3.5808 -0.1240
 2357TIP3   OH2 7076   5.688   3.486   1.676  0.5301  0.6396 -0.2261
 2357TIP3    H1 7077   5.694   3.545   1.752  0.1115 -0.6215  0.8112
 2357TIP3    H2 7078   5.597   3.494   1.648  0.2070 -0.2119  0.5221
 2358TIP3   OH2 7079   6.159   0.457   2.311  1.0138 -0.2483  0.4904
 2358TIP3    H1 7080   6.197   0.461   2.398  4.1937  1.3558 -0.7849
 2358TIP3    H2 7081   6.124   0.545   2.297 -0.9914 -0.9781  0.6918
 2359TIP3   OH2 7082   4.035   4.972   2.256  0.2846  0.2391 -0.1321
 2359TIP3    H1 7083   4.071   5.060   2.245 -1.5223  1.0271 -0.0493
 2359TIP3    H2 7084   4.037   4.933   2.169  2.2928 -0.1674  0.0514
 2360TIP3   OH2 7085   4.796   3.289   3.118  0.6015 -0.2904  0.2271
 2360TIP3    H1 7086   4.790   3.301   3.024  2.8494 -1.5656 -0.1557
 2360TIP3    H2 7087   4.733   3.220   3.138  1.0347 -0.9409 -0.5930
 2361TIP3   OH2 7088   2.081   3.328   1.682  0.0834 -0.2551 -0.0350
 2361TIP3    H1 7089   2.046   3.242   1.659  0.4408 -0.1877 -0.8749
 2361TIP3    H2 7090   2.011   3.389   1.659 -0.4572 -0.3587  1.2372
 2362TIP3   OH2 7091   2.589   5.448   2.797 -0.4854 -0.6306  0.1281
 2362TIP3    H1 7092   2.633   5.442   2.882 -0.5318 -0.6870  0.1484
 2362TIP3    H2 7093   2.642   5.393   2.739 -0.1268 -0.1279 -0.0186
 2363TIP3   OH2 7094   0.915   4.738   1.626 -0.5197 -0.4401  0.1670
 2363TIP3    H1 7095   0.877   4.746   1.539  1.5116  1.2215 -0.6158
 2363TIP3    H2 7096   0.839   4.721   1.683 -1.9606 -0.9277 -1.7894
 2364TIP3   OH2 7097   1.879   1.016   4.182  0.4801 -0.1207  0.3545
 2364TIP3    H1 7098   1.791   0.990   4.153  0.2243  1.4008 -0.3285
 2364TIP3    H2 7099   1.935   0.997   4.107  0.0676  2.3921 -0.7002
 2365TIP3   OH2 7100   2.255   3.343   5.175 -0.1406  0.0925 -0.4827
 2365TIP3    H1 7101   2.239   3.259   5.132  1.1774 -0.2224 -0.3720
 2365TIP3    H2 7102   2.306   3.394   5.112  0.5098  0.1828  0.1038
 2366TIP3   OH2 7103   1.620   1.808   4.429  0.1114  0.1465  0.0578
 2366TIP3    H1 7104   1.645   1.889   4.474 -0.1098  0.5243 -0.4872
 2366TIP3    H2 7105   1.612   1.743   4.499  1.1753  0.3708  0.4016
 2367TIP3   OH2 7106   5.355   3.086   1.608  0.2624 -0.2743  0.2698
 2367TIP3    H1 7107   5.379   3.178   1.596 -0.3277 -0.2364 -0.7943
 2367TIP3    H2 7108   5.439   3.042   1.622  0.7568  0.1756 -1.0888
 2368TIP3   OH2 7109   3.724   2.005   2.018  0.1588 -0.4392  0.4555
 2368TIP3    H1 7110   3.785   1.991   1.945  2.1748 -0.8821  2.1447
 2368TIP3    H2 7111   3.680   1.920   2.029 -0.5924 -0.2017 -0.5864
 2369TIP3   OH2 7112   0.995   3.972   0.336  0.6657 -0.2260  0.3886
 2369TIP3    H1 7113   1.003   3.948   0.243 -0.9738 -1.1897  0.4446
 2369TIP3    H2 7114   1.074   4.021   0.355  0.1051  1.8807 -2.0938
 2370TIP3   OH2 7115   5.079   4.685   2.212 -0.7088 -0.4502 -0.1383
 2370TIP3    H1 7116   5.022   4.691   2.136 -0.3635 -0.7789 -0.4283
 2370TIP3    H2 7117   5.163   4.719   2.181 -0.6486 -0.3010  0.1836
 2371TIP3   OH2 7118   0.580   4.780   2.545  0.2520 -0.0595 -0.6261
 2371TIP3    H1 7119   0.512   4.724   2.581 -1.0534  0.7931 -1.6925
 2371TIP3    H2 7120   0.614   4.733   2.470 -0.3096  0.2318 -1.0653
 2372TIP3   OH2 7121   5.215   4.698   5.062  0.0142  0.2963 -0.4974
 2372TIP3    H1 7122   5.137   4.739   5.100  0.1536  0.1642 -0.0692
 2372TIP3    H2 7123   5.261   4.770   5.019  0.3352  0.6303  0.3797
 2373TIP3   OH2 7124   5.748   4.486   3.773 -0.2031 -0.1687  0.4062
 2373TIP3    H1 7125   5.688   4.482   3.699  0.1591  0.1965  0.0852
 2373TIP3    H2 7126   5.703   4.541   3.838 -0.2372  0.0621  0.1879
 2374TIP3   OH2 7127   3.202   3.025   0.210  0.0151 -0.1631  0.1665
 2374TIP3    H1 7128   3.285   3.049   0.251 -0.6946  2.3512  0.3082
 2374TIP3    H2 7129   3.227   2.996   0.122  1.1925 -1.6816  0.9562
 2375TIP3   OH2 7130   3.673   3.618   1.955  0.9320  0.2868 -0.0319
 2375TIP3    H1 7131   3.716   3.671   1.888 -0.5871  1.0507 -0.4281
 2375TIP3    H2 7132   3.681   3.670   2.035 -0.7052  1.2588 -0.4536
 2376TIP3   OH2 7133   2.308   5.486   0.574  0.0292 -0.2442  0.1573
 2376TIP3    H1 7134   2.379   5.513   0.517  0.6833 -0.4721  0.8374
 2376TIP3    H2 7135   2.351   5.460   0.655 -0.8492 -0.1805  0.6648
 2377TIP3   OH2 7136   1.232   5.645   3.169  0.2369 -0.0953 -0.0803
 2377TIP3    H1 7137   1.288   5.700   3.224  0.1151  0.2571 -0.3088
 2377TIP3    H2 7138   1.266   5.657   3.081 -0.2081  0.1367 -0.2232
 2378TIP3   OH2 7139   3.164   2.024   4.791  0.3297 -0.1454 -0.1516
 2378TIP3    H1 7140   3.255   2.052   4.781  0.1621  1.9804  2.9128
 2378TIP3    H2 7141   3.121   2.050   4.709  2.1719  0.0011 -1.1161
 2379TIP3   OH2 7142   5.245   1.193   1.160  0.1763 -0.0034 -0.9190
 2379TIP3    H1 7143   5.157   1.222   1.139  0.0058 -1.0380 -1.6954
 2379TIP3    H2 7144   5.266   1.127   1.094  0.2703 -2.1608  1.1138
 2380TIP3   OH2 7145   4.736   4.602   2.400  0.5234 -0.2079  0.5591
 2380TIP3    H1 7146   4.686   4.680   2.422 -1.6653 -1.3862  0.0290
 2380TIP3    H2 7147   4.827   4.625   2.421 -0.2925  1.7741  2.2286
 2381TIP3   OH2 7148   0.361   3.477   2.132  0.2314  0.0156  0.0551
 2381TIP3    H1 7149   0.379   3.458   2.039 -0.0892  1.1242 -0.2394
 2381TIP3    H2 7150   0.426   3.541   2.157 -1.6014  2.1359 -0.3099
 2382TIP3   OH2 7151   4.464   4.331   3.398  0.4004 -0.2451 -0.2905
 2382TIP3    H1 7152   4.459   4.425   3.381 -1.3936 -0.5066 -1.4813
 2382TIP3    H2 7153   4.437   4.321   3.490 -0.2004  0.3648 -0.3923
 2383TIP3   OH2 7154   6.096   0.950   4.788  0.1961  0.3198  0.3060
 2383TIP3    H1 7155   6.150   0.981   4.715  1.2102  0.7691  1.2270
 2383TIP3    H2 7156   6.108   0.855   4.787  3.6535  0.5628  2.4004
 2384TIP3   OH2 7157   0.541   3.167   4.895 -0.1732  0.3272 -0.1583
 2384TIP3    H1 7158   0.549   3.078   4.859  1.0397  0.1667  0.4690
 2384TIP3    H2 7159   0.543   3.154   4.990  2.8242  1.2150 -0.0275
 2385TIP3   OH2 7160   5.590   4.482   3.563 -0.1630 -0.0778  0.5731
 2385TIP3    H1 7161   5.649   4.471   3.489  0.6869  0.4395  1.1571
 2385TIP3    H2 7162   5.504   4.454   3.530  0.0736  0.7228 -0.7837
 2386TIP3   OH2 7163   4.592   0.483   4.655  0.1670 -0.2753 -0.1219
 2386TIP3    H1 7164   4.544   0.475   4.737 -1.7599  0.3863 -1.1065
 2386TIP3    H2 7165   4.684   0.480   4.680 -0.3394  0.9110  2.1634
 2387TIP3   OH2 7166   3.689   0.426   3.033  0.0556 -0.2454 -0.1168
 2387TIP3    H1 7167   3.744   0.448   3.108 -1.5230  0.0209  1.0204
 2387TIP3    H2 7168   3.618   0.490   3.035 -1.0575 -1.4094 -0.6948
 2388TIP3   OH2 7169   4.249   3.750   3.482 -0.7747 -0.7578 -0.0582
 2388TIP3    H1 7170   4.270   3.664   3.446 -1.5054 -1.8593  1.9906
 2388TIP3    H2 7171   4.179   3.783   3.426  0.0452 -1.1161 -1.3384
 2389TIP3   OH2 7172   3.995   3.529   4.534 -0.0211  0.2135  0.8345
 2389TIP3    H1 7173   4.011   3.460   4.599  0.0241  0.1641  0.7716
 2389TIP3    H2 7174   4.083   3.558   4.508 -0.0356  0.1561  0.7148
 2390TIP3   OH2 7175   5.485   1.191   3.335  0.2897 -0.1172  0.0815
 2390TIP3    H1 7176   5.391   1.174   3.335  0.4773 -1.3097 -1.5202
 2390TIP3    H2 7177   5.492   1.286   3.347 -1.2056  0.2901 -1.7819
 2391TIP3   OH2 7178   1.303   1.367   0.356  0.1552  0.3953 -0.3734
 2391TIP3    H1 7179   1.252   1.328   0.427  1.3204 -0.4258  0.0497
 2391TIP3    H2 7180   1.298   1.462   0.373  0.4070  0.2149  0.8211
 2392TIP3   OH2 7181   3.448   5.350   0.972  0.2963 -0.3352  0.6155
 2392TIP3    H1 7182   3.463   5.316   1.060 -0.2305 -0.9079  0.4952
 2392TIP3    H2 7183   3.452   5.445   0.981  0.1408 -0.3903  1.2772
 2393TIP3   OH2 7184   0.913   1.304   4.815  0.3388 -0.1164 -0.1069
 2393TIP3    H1 7185   0.924   1.228   4.872  0.1776  1.1591  1.7217
 2393TIP3    H2 7186   0.970   1.287   4.741  2.1989 -0.9457  1.4209
 2394TIP3   OH2 7187   1.617   5.486   3.804 -0.1742  0.4123 -0.2339
 2394TIP3    H1 7188   1.707   5.486   3.837 -0.3496 -2.0767  0.4188
 2394TIP3    H2 7189   1.569   5.541   3.867  0.9735  2.5114 -1.0873
 2395TIP3   OH2 7190   1.570   5.263   4.094 -0.2764  0.2771 -0.0671
 2395TIP3    H1 7191   1.589   5.193   4.157  0.0164 -0.9121 -1.4182
 2395TIP3    H2 7192   1.624   5.242   4.018 -1.0350  1.3421 -0.9374
 2396TIP3   OH2 7193   2.421   0.758   2.754 -0.1563  0.7715 -0.1386
 2396TIP3    H1 7194   2.427   0.850   2.729  0.2542  0.8029  0.0669
 2396TIP3    H2 7195   2.347   0.754   2.815 -0.4916  0.8752 -0.5344
 2397TIP3   OH2 7196   2.655   2.090   3.701  0.8050 -0.3092  0.5652
 2397TIP3    H1 7197   2.678   2.049   3.618  0.7621 -0.5705  0.6812
 2397TIP3    H2 7198   2.705   2.042   3.767  1.4966  0.4466  0.6116
 2398TIP3   OH2 7199   2.599   5.101   3.424  0.1724 -0.4014  0.0045
 2398TIP3    H1 7200   2.541   5.174   3.445  0.4959 -0.1109 -0.1016
 2398TIP3    H2 7201   2.580   5.081   3.332  1.3518  0.7350 -0.5140
 2399TIP3   OH2 7202   3.310   2.560   3.771  0.3837  0.7140  0.3189
 2399TIP3    H1 7203   3.264   2.580   3.689  0.7894  0.8056  0.1136
 2399TIP3    H2 7204   3.241   2.561   3.837  0.1259  1.1060  0.0503
 2400TIP3   OH2 7205   1.411   1.455   4.343  0.1494  0.4086 -0.9682
 2400TIP3    H1 7206   1.378   1.542   4.366 -0.8436 -0.1406 -0.2437
 2400TIP3    H2 7207   1.425   1.412   4.428 -1.1773 -0.7897 -1.3308
 2401TIP3   OH2 7208   1.526   2.270   3.324 -0.4132  0.1121 -0.4330
 2401TIP3    H1 7209   1.468   2.346   3.333 -1.9561 -0.8500 -1.6208
 2401TIP3    H2 7210   1.535   2.258   3.229  1.5950  0.0886 -0.2788
 2402TIP3   OH2 7211   0.103   5.539   3.430 -0.0764 -0.9148 -0.5366
 2402TIP3    H1 7212   0.190   5.565   3.400  0.3738 -1.3871  0.3397
 2402TIP3    H2 7213   0.091   5.587   3.512 -1.0538 -0.0965 -1.1231
 2403TIP3   OH2 7214   3.547   4.633   1.649  0.5072 -0.3179 -0.0391
 2403TIP3    H1 7215   3.632   4.591   1.663  0.4211 -0.2232  0.8353
 2403TIP3    H2 7216   3.532   4.626   1.555  1.4728 -0.3536 -0.2019
 2404TIP3   OH2 7217   4.730   4.772   0.769 -0.1208  0.0043  0.0022
 2404TIP3    H1 7218   4.764   4.813   0.849 -1.0729 -0.1771  0.5161
 2404TIP3    H2 7219   4.804   4.723   0.734  0.5020  0.6460  0.3977
 2405TIP3   OH2 7220   5.524   5.045   0.970  0.1753  0.3261 -0.3398
 2405TIP3    H1 7221   5.504   5.054   1.064  1.6286  1.6461 -0.1276
 2405TIP3    H2 7222   5.441   5.015   0.932 -1.4993  2.9831  0.8858
 2406TIP3   OH2 7223   4.482   1.042   1.636 -0.1122 -0.0105 -0.4309
 2406TIP3    H1 7224   4.573   1.039   1.605 -0.4736 -0.2468 -1.5530
 2406TIP3    H2 7225   4.456   0.950   1.640 -0.2379  0.0482  0.0870
 2407TIP3   OH2 7226   0.958   3.288   2.447  0.0127  0.0631 -0.0491
 2407TIP3    H1 7227   1.021   3.333   2.503  0.7844 -1.5293  0.4124
 2407TIP3    H2 7228   0.922   3.358   2.392  0.2546  1.4379  1.4456
 2408TIP3   OH2 7229   0.087   0.751   1.068 -0.2978 -0.2230  0.3935
 2408TIP3    H1 7230   0.126   0.790   0.990  0.3788 -0.8721  0.4006
 2408TIP3    H2 7231   0.063   0.663   1.042  1.5668 -1.0920  1.3744
 2409TIP3   OH2 7232   2.837   1.583   4.280 -0.3360 -0.1856  0.0964
 2409TIP3    H1 7233   2.797   1.501   4.308 -2.6524  1.4593  2.0633
 2409TIP3    H2 7234   2.810   1.593   4.189  1.5362 -2.3725 -0.8081
 2410TIP3   OH2 7235   0.617   4.190   1.287 -0.6151  0.5793  0.1981
 2410TIP3    H1 7236   0.705   4.196   1.249 -0.8166 -0.6789 -0.5377
 2410TIP3    H2 7237   0.631   4.201   1.381  0.5273 -0.8721  0.2363
 2411TIP3   OH2 7238   4.746   5.657   1.850 -0.1659 -0.8752 -0.0481
 2411TIP3    H1 7239   4.796   5.583   1.815 -0.8244 -1.7437  0.7557
 2411TIP3    H2 7240   4.660   5.650   1.807 -0.2635 -0.6426  0.1081
 2412TIP3   OH2 7241   4.646   2.828   0.902  0.7378  0.0357  0.2031
 2412TIP3    H1 7242   4.614   2.915   0.878 -0.5794 -0.9302 -1.7964
 2412TIP3    H2 7243   4.738   2.842   0.924  1.0781  1.6731 -1.9445
 2413TIP3   OH2 7244   6.061   2.188   4.121 -0.2312  0.1181 -0.0670
 2413TIP3    H1 7245   5.979   2.147   4.149  0.1187  0.6086  1.8258
 2413TIP3    H2 7246   6.128   2.120   4.137 -0.1036  0.1946 -0.2816
 2414TIP3   OH2 7247   0.246   3.999   2.830  0.2192  0.1993  0.4620
 2414TIP3    H1 7248   0.220   3.907   2.822  0.0422  0.3459 -0.8205
 2414TIP3    H2 7249   0.192   4.045   2.766  0.4462  1.1758  0.9528
 2415TIP3   OH2 7250   1.406   4.751   1.343  0.4749 -0.4384  0.2897
 2415TIP3    H1 7251   1.484   4.699   1.324  0.9573  0.5375 -0.4919
 2415TIP3    H2 7252   1.390   4.736   1.436  0.5208 -2.0670  0.0681
 2416TIP3   OH2 7253   5.134   4.330   1.245 -0.0801  0.3093  0.0632
 2416TIP3    H1 7254   5.096   4.270   1.181 -1.2864 -0.2408  1.2679
 2416TIP3    H2 7255   5.082   4.410   1.237  0.5269  0.6701 -0.4398
 2417TIP3   OH2 7256   4.904   0.566   3.215  0.5116  0.1514  0.5657
 2417TIP3    H1 7257   4.882   0.659   3.219 -3.1180 -0.5055 -0.6714
 2417TIP3    H2 7258   4.856   0.527   3.288  0.7337 -0.9652  0.1295
 2418TIP3   OH2 7259   0.608   5.776   2.591 -0.1776  0.2907  0.4122
 2418TIP3    H1 7260   0.644   5.772   2.502  0.2804  1.0738  0.5556
 2418TIP3    H2 7261   0.673   5.824   2.641 -0.0676 -0.8105  1.3674
 2419TIP3   OH2 7262   5.215   1.835   0.709 -0.0040  0.1649 -0.3861
 2419TIP3    H1 7263   5.282   1.893   0.672 -0.2854  1.1508  0.6154
 2419TIP3    H2 7264   5.196   1.871   0.795  0.5274 -1.9920  0.7096
 2420TIP3   OH2 7265   5.037   0.204   2.480 -0.0999  0.0113  0.0394
 2420TIP3    H1 7266   5.088   0.126   2.460 -0.8446 -0.4587 -0.0639
 2420TIP3    H2 7267   5.079   0.274   2.430  2.7150  0.4727  2.7032
 2421TIP3   OH2 7268   2.404   5.320   0.110 -0.0874 -0.4405  0.3440
 2421TIP3    H1 7269   2.370   5.232   0.126  0.0408 -0.8582 -1.4267
 2421TIP3    H2 7270   2.454   5.312   0.029  0.8105  1.0501  0.7108
 2422TIP3   OH2 7271   2.406   5.276   3.536  0.0605 -0.9969 -0.3315
 2422TIP3    H1 7272   2.381   5.323   3.615  0.7632  2.7187 -2.0802
 2422TIP3    H2 7273   2.323   5.259   3.491 -0.2638 -2.2820  0.6864
 2423TIP3   OH2 7274   3.533   5.449   5.127  0.2929  0.4711 -0.6619
 2423TIP3    H1 7275   3.593   5.440   5.201 -0.3460 -0.7262 -0.2767
 2423TIP3    H2 7276   3.572   5.396   5.058 -0.8269 -1.1843 -0.0694
 2424TIP3   OH2 7277   5.061   5.040   0.664  0.3794 -0.1641  1.1822
 2424TIP3    H1 7278   5.025   5.052   0.752 -0.3990  0.3146  0.8080
 2424TIP3    H2 7279   5.003   4.976   0.623 -0.3333  0.9281  0.4316
 2425TIP3   OH2 7280   2.839   2.876   0.514  0.1627 -0.5352  0.4396
 2425TIP3    H1 7281   2.765   2.823   0.541 -0.3942  0.6318  1.3294
 2425TIP3    H2 7282   2.916   2.830   0.547 -0.2431 -1.1964  0.4646
 2426TIP3   OH2 7283   0.306   4.485   0.566 -0.1916  0.2951 -0.3273
 2426TIP3    H1 7284   0.272   4.571   0.592 -0.2369  0.4095 -0.7593
 2426TIP3    H2 7285   0.356   4.455   0.642  1.7859  1.7181 -0.9972
 2427TIP3   OH2 7286   4.376   2.523   3.988  0.3048  0.3781  0.2956
 2427TIP3    H1 7287   4.308   2.502   4.052 -0.9114 -0.3570 -1.1646
 2427TIP3    H2 7288   4.331   2.518   3.904  2.4229 -1.2847 -0.8286
 2428TIP3   OH2 7289   2.090   2.318   3.109 -0.7624 -0.1907 -0.4040
 2428TIP3    H1 7290   2.101   2.412   3.102 -1.3476 -0.2093 -2.2300
 2428TIP3    H2 7291   2.178   2.282   3.097 -0.4130  0.1180  1.0720
 2429TIP3   OH2 7292   1.181   2.846   1.878 -0.4901 -0.1160 -0.4055
 2429TIP3    H1 7293   1.264   2.798   1.871  0.3058  1.2401 -0.5402
 2429TIP3    H2 7294   1.181   2.882   1.966 -1.3949 -0.8745 -0.0755
 2430TIP3   OH2 7295   2.769   4.058   2.348  0.6881  0.0624  0.4241
 2430TIP3    H1 7296   2.852   4.045   2.302  0.9004 -0.1768  0.8700
 2430TIP3    H2 7297   2.726   3.973   2.345 -0.7389  0.7425 -2.0606
 2431TIP3   OH2 7298   3.366   0.514   1.817 -0.1795  0.2356  0.4821
 2431TIP3    H1 7299   3.295   0.477   1.764 -0.3414  0.3002  0.6548
 2431TIP3    H2 7300   3.372   0.605   1.789 -0.6826  0.4396  1.0135
 2432TIP3   OH2 7301   0.953   2.319   1.867  0.1867 -0.1674  0.0283
 2432TIP3    H1 7302   0.961   2.314   1.772  0.8113  1.6355 -0.0550
 2432TIP3    H2 7303   1.002   2.244   1.900 -0.5604 -1.1754 -1.0666
 2433TIP3   OH2 7304   1.374   0.411   4.901 -0.1008 -0.1040 -0.4148
 2433TIP3    H1 7305   1.408   0.359   4.974 -0.5446  0.7247  0.4006
 2433TIP3    H2 7306   1.290   0.370   4.880 -0.3606  0.1677  0.0953
 2434TIP3   OH2 7307   5.167   4.035   3.998  0.0531  0.2627 -0.0886
 2434TIP3    H1 7308   5.126   4.075   3.921 -0.0500  0.0058 -0.1686
 2434TIP3    H2 7309   5.149   3.941   3.989 -1.3981  0.4024  1.1335
 2435TIP3   OH2 7310   3.065   1.005   1.792 -0.3355  0.2423 -0.0155
 2435TIP3    H1 7311   3.067   1.004   1.696  0.0243  0.2118 -0.0086
 2435TIP3    H2 7312   3.071   0.913   1.818  1.3636  0.3433  0.0606
 2436TIP3   OH2 7313   2.124   1.834   1.421 -0.0096  0.4481 -1.0481
 2436TIP3    H1 7314   2.210   1.793   1.421  0.3230  0.9861 -3.1100
 2436TIP3    H2 7315   2.118   1.877   1.506  1.1903 -0.6933 -0.3441
 2437TIP3   OH2 7316   5.335   3.997   3.493 -0.1103  0.2053  0.3581
 2437TIP3    H1 7317   5.259   3.980   3.438 -1.0013 -0.4450  1.7498
 2437TIP3    H2 7318   5.381   4.068   3.448 -1.2153  0.2215 -0.8086
 2438TIP3   OH2 7319   2.754   5.587   0.884  0.3249  0.6082  0.2560
 2438TIP3    H1 7320   2.736   5.630   0.801  1.1438 -0.1190 -0.3284
 2438TIP3    H2 7321   2.762   5.494   0.862 -1.2355  0.1458  1.4501
 2439TIP3   OH2 7322   4.793   0.073   1.820  0.6219 -0.5584 -0.0839
 2439TIP3    H1 7323   4.790  -0.022   1.806 -0.1642 -0.6803  0.8592
 2439TIP3    H2 7324   4.712   0.093   1.866  0.3591  0.7125 -1.0368
 2440TIP3   OH2 7325   0.446   0.502   2.145  0.0434  0.6387 -0.1123
 2440TIP3    H1 7326   0.522   0.524   2.091 -0.1578  1.3046 -0.1360
 2440TIP3    H2 7327   0.382   0.571   2.126  0.1673  1.2086  1.3810
 2441TIP3   OH2 7328   2.361   5.803   0.044 -0.0442  0.1814  0.1002
 2441TIP3    H1 7329   2.324   5.715   0.055  1.2421 -0.3319  0.5921
 2441TIP3    H2 7330   2.338   5.850   0.123  0.9390 -0.3748  0.7412
 2442TIP3   OH2 7331   1.457   4.200   3.798 -0.0992 -0.5321 -0.0182
 2442TIP3    H1 7332   1.430   4.279   3.845  1.2041  0.2191 -0.4895
 2442TIP3    H2 7333   1.515   4.231   3.729 -0.3763 -1.8172 -0.8643
 2443TIP3   OH2 7334   0.483   0.807   1.483  0.2847 -0.8035 -0.5753
 2443TIP3    H1 7335   0.495   0.796   1.389  0.9809 -0.9245 -0.4802
 2443TIP3    H2 7336   0.402   0.759   1.503 -0.9773  0.8642 -1.4081
 2444TIP3   OH2 7337   3.765   3.736   2.196 -0.2534 -0.1071 -0.5443
 2444TIP3    H1 7338   3.700   3.804   2.212 -0.5832 -0.5276 -0.0636
 2444TIP3    H2 7339   3.836   3.755   2.258 -0.2724 -0.1049 -0.5235
 2445TIP3   OH2 7340   4.595   4.871   3.236 -0.5061 -0.1410  0.2649
 2445TIP3    H1 7341   4.607   4.958   3.199  0.4234  0.2886  1.5077
 2445TIP3    H2 7342   4.580   4.815   3.161 -1.6319  1.1549 -0.5296
 2446TIP3   OH2 7343   5.351   5.850   0.761  0.6109  0.2449  0.0228
 2446TIP3    H1 7344   5.427   5.863   0.818 -1.4051  1.6406  2.5871
 2446TIP3    H2 7345   5.346   5.930   0.709  0.8313  0.1851 -0.0944
 2447TIP3   OH2 7346   5.306   0.970   1.804  0.4812  0.0835 -0.2651
 2447TIP3    H1 7347   5.298   0.979   1.709 -0.6635  1.6357 -0.0629
 2447TIP3    H2 7348   5.275   0.882   1.822 -2.5301  0.8697 -1.0578
 2448TIP3   OH2 7349   3.524   1.370   0.701 -0.6598 -0.0952 -0.0910
 2448TIP3    H1 7350   3.494   1.287   0.738  1.2496 -1.0938 -0.6154
 2448TIP3    H2 7351   3.565   1.345   0.618  0.7249  1.2488  0.1542
 2449TIP3   OH2 7352   4.448   1.586   4.458 -0.2414  0.0906  0.5634
 2449TIP3    H1 7353   4.528   1.542   4.486 -0.2684 -0.8437 -0.7178
 2449TIP3    H2 7354   4.477   1.656   4.400 -0.3308 -0.0666  0.3259
 2450TIP3   OH2 7355   4.291   3.640   1.696 -0.3107  0.4712 -0.4979
 2450TIP3    H1 7356   4.210   3.673   1.657  0.0603  0.2249 -1.5068
 2450TIP3    H2 7357   4.354   3.639   1.624  0.6973  0.9668  0.3446
 2451TIP3   OH2 7358   1.754   0.219   3.001  0.1156 -0.1352  0.4029
 2451TIP3    H1 7359   1.693   0.235   3.074 -0.6122 -1.0107  0.0113
 2451TIP3    H2 7360   1.814   0.153   3.035 -0.3115 -0.6500  0.1818
 2452TIP3   OH2 7361   0.209   2.978   0.000 -0.7447  0.0638  0.3671
 2452TIP3    H1 7362   0.257   2.918   0.058  1.1574  0.3856 -0.7893
 2452TIP3    H2 7363   0.151   3.027   0.059  1.4410  0.6989  2.1290
 2453TIP3   OH2 7364   3.267   3.966   2.002  0.4265 -0.2033 -0.3214
 2453TIP3    H1 7365   3.313   3.992   2.082  3.1784 -0.1631 -1.8004
 2453TIP3    H2 7366   3.249   3.873   2.014 -0.7711  0.1487  0.9878
 2454TIP3   OH2 7367   2.128   2.392   1.596 -0.5151 -0.4981  0.2449
 2454TIP3    H1 7368   2.123   2.487   1.597 -0.3585 -0.4854 -0.0009
 2454TIP3    H2 7369   2.214   2.373   1.560 -0.4886 -0.7322  0.4298
 2455TIP3   OH2 7370   0.781   1.881   1.685 -0.2126  0.2436 -0.2152
 2455TIP3    H1 7371   0.733   1.800   1.672  0.5465 -0.0174 -1.5692
 2455TIP3    H2 7372   0.723   1.936   1.739 -1.7227 -0.2944 -1.2413
 2456TIP3   OH2 7373   2.610   5.098   3.724 -0.2193  0.7772  0.4920
 2456TIP3    H1 7374   2.662   5.124   3.648  0.9687 -1.7136  0.3395
 2456TIP3    H2 7375   2.521   5.093   3.691 -0.0232  1.6116 -0.2118
 2457TIP3   OH2 7376   2.497   4.212   0.293 -0.1653 -0.6809 -0.0645
 2457TIP3    H1 7377   2.509   4.238   0.385 -0.4427  0.7615 -0.4078
 2457TIP3    H2 7378   2.550   4.274   0.244 -2.3773  0.5623 -1.0603
 2458TIP3   OH2 7379   5.359   1.240   2.137 -0.1449  0.0883 -0.6355
 2458TIP3    H1 7380   5.358   1.190   2.218 -0.3065  1.7802  0.4614
 2458TIP3    H2 7381   5.422   1.310   2.153  0.7842 -0.2782 -2.4648
 2459TIP3   OH2 7382   3.764   1.633   5.125 -0.3073  0.1850 -0.5797
 2459TIP3    H1 7383   3.802   1.707   5.173  1.6381 -1.1597  0.1150
 2459TIP3    H2 7384   3.768   1.560   5.188 -1.4166 -0.7175 -1.5082
 2460TIP3   OH2 7385   4.315   1.988   4.666  0.0302  0.7417 -0.1069
 2460TIP3    H1 7386   4.309   1.925   4.738  2.2221  1.8821  1.1574
 2460TIP3    H2 7387   4.270   2.066   4.699  1.0003  1.2511  0.0541
 2461TIP3   OH2 7388   4.431   5.596   3.177  0.0154  0.1947 -0.3569
 2461TIP3    H1 7389   4.467   5.656   3.112 -0.0696  0.3312 -0.2768
 2461TIP3    H2 7390   4.508   5.554   3.216  0.2333  1.9203  1.2154
 2462TIP3   OH2 7391   3.176   5.686   0.494  0.0475  0.1092  0.8712
 2462TIP3    H1 7392   3.104   5.713   0.437  1.0991 -1.3595 -1.2928
 2462TIP3    H2 7393   3.146   5.707   0.583 -3.0369 -0.4391  0.0835
 2463TIP3   OH2 7394   0.543   4.085   1.825  0.1788 -0.5380  0.0907
 2463TIP3    H1 7395   0.552   4.174   1.860  1.4951 -0.6038 -0.0455
 2463TIP3    H2 7396   0.528   4.098   1.731  1.0857 -0.4590 -0.0543
 2464TIP3   OH2 7397   3.780   0.469   1.355 -0.1269 -0.3734 -0.5486
 2464TIP3    H1 7398   3.804   0.539   1.415 -0.4217  0.2519 -1.1447
 2464TIP3    H2 7399   3.776   0.391   1.409 -0.6573  0.2281  0.3024
 2465TIP3   OH2 7400   3.097   4.509   2.550  0.4390 -0.4759 -0.3081
 2465TIP3    H1 7401   3.031   4.574   2.523  0.0960 -0.9098 -0.5335
 2465TIP3    H2 7402   3.054   4.425   2.536  0.1358 -0.7374  1.8766
 2466TIP3   OH2 7403   1.869   3.972   4.902  0.5319  0.0488 -0.2109
 2466TIP3    H1 7404   1.826   3.923   4.972 -1.3489  1.1804 -0.5083
 2466TIP3    H2 7405   1.893   4.055   4.943 -0.4228  0.6476 -0.8287
 2467TIP3   OH2 7406   0.152   0.462   1.457  0.0261 -0.0901 -0.2180
 2467TIP3    H1 7407   0.121   0.390   1.512 -1.0445  0.4465 -0.0870
 2467TIP3    H2 7408   0.141   0.541   1.511  0.8529  0.2193 -0.4825
 2468TIP3   OH2 7409   0.598   3.467   0.344  0.1262  0.3136 -0.1224
 2468TIP3    H1 7410   0.599   3.406   0.417 -1.1873  0.2873 -0.0958
 2468TIP3    H2 7411   0.632   3.418   0.270 -0.0026 -0.1532  0.1276
 2469TIP3   OH2 7412   4.318   2.526   3.321  0.2167 -0.1989 -0.8724
 2469TIP3    H1 7413   4.290   2.614   3.343 -0.0289 -0.2226 -1.0831
 2469TIP3    H2 7414   4.399   2.513   3.370 -0.9963 -0.7509  1.0764
 2470TIP3   OH2 7415   0.348   1.241   2.353 -0.0712 -0.3164  0.1929
 2470TIP3    H1 7416   0.415   1.308   2.347 -0.4363  0.0192 -0.2489
 2470TIP3    H2 7417   0.293   1.269   2.427 -0.0150 -0.3249  0.2384
 2471TIP3   OH2 7418   5.269   1.626   0.406  0.4061  0.8917  0.4565
 2471TIP3    H1 7419   5.199   1.590   0.351 -0.4563 -1.1184  2.7168
 2471TIP3    H2 7420   5.336   1.654   0.344 -1.7015  1.4628 -1.7248
 2472TIP3   OH2 7421   1.445   4.954   2.451 -0.6530 -0.1126  0.1784
 2472TIP3    H1 7422   1.382   4.910   2.393 -0.6388 -1.0553  0.8426
 2472TIP3    H2 7423   1.397   5.029   2.487 -0.5943  0.5996 -1.1846
 2473TIP3   OH2 7424   3.431   3.431   3.346 -0.2032 -1.0074 -0.0885
 2473TIP3    H1 7425   3.446   3.338   3.331 -1.7234 -1.2884 -0.0310
 2473TIP3    H2 7426   3.341   3.436   3.377  0.6162  0.2220  2.3854
 2474TIP3   OH2 7427   1.730   0.664   1.515  0.1475  0.3974 -0.2039
 2474TIP3    H1 7428   1.754   0.716   1.592 -0.1665  0.3830 -0.0964
 2474TIP3    H2 7429   1.701   0.580   1.550  1.3022 -0.1052 -0.4170
 2475TIP3   OH2 7430   4.054   4.799   3.832  0.4698  0.2753 -0.0392
 2475TIP3    H1 7431   4.015   4.794   3.745  0.3393  1.0735 -0.0367
 2475TIP3    H2 7432   4.072   4.708   3.856 -0.3691 -0.0197 -0.4985
 2476TIP3   OH2 7433   5.850   4.439   3.391  0.0234  0.4917  0.2391
 2476TIP3    H1 7434   5.865   4.529   3.362  0.2865  0.1432 -0.7594
 2476TIP3    H2 7435   5.848   4.388   3.310  0.6166 -0.5091  0.8306
 2477TIP3   OH2 7436   0.371   2.926   2.286  0.0820  0.3412 -0.1267
 2477TIP3    H1 7437   0.397   2.871   2.213  0.8477 -0.3703  0.6562
 2477TIP3    H2 7438   0.433   2.999   2.285 -0.1737  0.5564 -0.4352
 2478TIP3   OH2 7439   2.087   1.623   0.259  0.0160  0.2293  0.1511
 2478TIP3    H1 7440   2.007   1.652   0.304 -0.1708 -0.0728  0.0151
 2478TIP3    H2 7441   2.096   1.531   0.283 -2.0267 -1.0038 -3.1261
 2479TIP3   OH2 7442   5.871   3.851   1.499 -0.9087 -0.1938  0.1757
 2479TIP3    H1 7443   5.921   3.914   1.552 -0.1380 -0.4869 -0.1787
 2479TIP3    H2 7444   5.780   3.866   1.523 -0.6436  0.2865  0.9280
 2480TIP3   OH2 7445   1.103   0.194   3.640  0.2757  0.4553  0.4255
 2480TIP3    H1 7446   1.077   0.166   3.728  0.1904  1.4524  0.7374
 2480TIP3    H2 7447   1.178   0.253   3.656  1.8017 -1.1925 -0.3433
 2481TIP3   OH2 7448   2.598   0.623   0.406  0.3224  0.5142 -0.1883
 2481TIP3    H1 7449   2.505   0.624   0.387  0.1759  0.0864  0.4799
 2481TIP3    H2 7450   2.637   0.682   0.341 -0.5144  1.3537  0.0610
 2482TIP3   OH2 7451   1.897   5.869   1.796 -0.4937  0.2249  0.0391
 2482TIP3    H1 7452   1.891   5.773   1.801 -0.0818  0.2620  2.2179
 2482TIP3    H2 7453   1.950   5.885   1.718 -0.0164 -1.3661 -0.0090
 2483TIP3   OH2 7454   6.200   5.811   5.068 -0.4235  0.0809  0.0020
 2483TIP3    H1 7455   6.195   5.853   4.982 -1.3229  2.4451  1.1120
 2483TIP3    H2 7456   6.264   5.863   5.116 -0.8605 -0.4105  1.1530
 2484TIP3   OH2 7457   1.350   2.472   2.562  0.3910  0.6269 -0.0581
 2484TIP3    H1 7458   1.310   2.558   2.570  1.6022  1.1683  0.3939
 2484TIP3    H2 7459   1.418   2.470   2.629  1.6713  0.0715 -1.3022
 2485TIP3   OH2 7460   5.881   2.308   4.644  0.5205 -0.8439 -0.3471
 2485TIP3    H1 7461   5.925   2.357   4.715 -1.1988 -0.5457  0.5694
 2485TIP3    H2 7462   5.924   2.223   4.644  2.0908 -0.0997 -0.4983
 2486TIP3   OH2 7463   0.763   4.667   4.848  0.2516  0.6612 -0.3726
 2486TIP3    H1 7464   0.745   4.760   4.833 -0.0322  0.8814  1.2342
 2486TIP3    H2 7465   0.682   4.632   4.884  0.0913 -0.4136 -1.7018
 2487TIP3   OH2 7466   3.393   0.267   4.108  0.2264 -0.1050  0.6372
 2487TIP3    H1 7467   3.358   0.347   4.069 -1.0212 -0.4175  1.0521
 2487TIP3    H2 7468   3.486   0.285   4.123  0.5327  0.3533 -1.5646
 2488TIP3   OH2 7469   2.385   0.421   0.224 -0.0050 -0.5045  0.1218
 2488TIP3    H1 7470   2.443   0.477   0.174  1.8841 -2.2854  0.1760
 2488TIP3    H2 7471   2.408   0.332   0.198 -1.5101 -1.3536  1.4532
 2489TIP3   OH2 7472   0.741   3.907   2.986 -0.6158 -0.3863  0.4289
 2489TIP3    H1 7473   0.757   3.836   3.048 -1.9798  0.7058  2.1055
 2489TIP3    H2 7474   0.650   3.933   3.002 -0.4784  1.0444 -0.8802
 2490TIP3   OH2 7475   0.872   4.476   3.207 -0.4574  0.0313  0.5050
 2490TIP3    H1 7476   0.952   4.441   3.167 -0.1639  0.9590  0.2655
 2490TIP3    H2 7477   0.895   4.565   3.234 -1.1435 -0.0062  1.2669
 2491TIP3   OH2 7478   4.305   4.483   0.021  0.2380  0.1213  0.5207
 2491TIP3    H1 7479   4.321   4.511   0.111 -1.4434 -1.0055  1.2305
 2491TIP3    H2 7480   4.292   4.564  -0.028  0.8455  0.7349  1.3512
 2492TIP3   OH2 7481   3.996   4.445   3.326 -0.2534  0.5277  0.4213
 2492TIP3    H1 7482   4.022   4.412   3.412  1.2013  0.2972 -0.0853
 2492TIP3    H2 7483   4.054   4.520   3.311  1.7378 -1.2700 -1.6585
 2493TIP3   OH2 7484   4.078   4.500   1.478 -0.4681  0.4317 -0.4152
 2493TIP3    H1 7485   4.163   4.458   1.467 -0.4739  0.8714 -2.5598
 2493TIP3    H2 7486   4.024   4.434   1.520  0.7820 -0.0194  0.5617
 2494TIP3   OH2 7487   1.288   5.505   3.792  0.3561 -0.2175  0.0277
 2494TIP3    H1 7488   1.366   5.553   3.818  0.1481  1.5937 -2.3822
 2494TIP3    H2 7489   1.244   5.485   3.874  1.8698  1.2884  1.2849
 2495TIP3   OH2 7490   3.642   5.098   0.505  0.1829  0.5122 -0.0802
 2495TIP3    H1 7491   3.622   5.009   0.476  0.9541  0.1476  0.4720
 2495TIP3    H2 7492   3.736   5.107   0.492  0.0793  1.3183 -0.3114
 2496TIP3   OH2 7493   1.672   0.362   4.792  0.2016 -0.9888 -0.0351
 2496TIP3    H1 7494   1.578   0.342   4.794  0.3272 -1.7863  3.1742
 2496TIP3    H2 7495   1.700   0.337   4.704 -2.3040 -2.2001 -0.5799
 2497TIP3   OH2 7496   4.397   0.717   1.469 -0.2412 -0.5226  0.1304
 2497TIP3    H1 7497   4.344   0.791   1.439 -0.2470 -0.3112  0.6413
 2497TIP3    H2 7498   4.487   0.744   1.451 -0.3068 -0.9105 -0.7993
 2498TIP3   OH2 7499   0.251   2.250   0.438  0.3212  0.2606  0.2175
 2498TIP3    H1 7500   0.307   2.272   0.513  1.3165 -2.0872  0.2570
 2498TIP3    H2 7501   0.312   2.238   0.365 -0.1186 -1.6944  0.1028
 2499TIP3   OH2 7502   0.216   3.956   0.971 -0.8636 -0.2153  0.7271
 2499TIP3    H1 7503   0.163   3.878   0.987 -0.4675 -0.4450  0.9285
 2499TIP3    H2 7504   0.283   3.928   0.908 -0.5579 -0.1121  0.9998
 2500TIP3   OH2 7505   3.487   3.845   3.325 -0.1952  0.1275 -0.3308
 2500TIP3    H1 7506   3.455   3.804   3.405  1.7072 -0.9255 -0.0465
 2500TIP3    H2 7507   3.490   3.774   3.261  0.8540  0.3404 -0.5346
 2501TIP3   OH2 7508   2.281   3.083   0.597  0.3432 -0.7280 -0.2081
 2501TIP3    H1 7509   2.273   3.164   0.546  0.1662 -0.4477  0.2542
 2501TIP3    H2 7510   2.215   3.093   0.666  0.3283 -1.2653 -0.1442
 2502TIP3   OH2 7511   1.890   1.184   3.539 -0.1138 -0.4619 -0.1848
 2502TIP3    H1 7512   1.860   1.254   3.597 -1.1715 -1.5621  0.6578
 2502TIP3    H2 7513   1.977   1.212   3.511 -1.1168  1.9560 -1.1935
 2503TIP3   OH2 7514   4.242   0.512   3.697  0.3863  0.5287  0.1346
 2503TIP3    H1 7515   4.175   0.468   3.748 -1.2599  0.5056 -1.9358
 2503TIP3    H2 7516   4.312   0.448   3.688  1.1296  0.7991  2.9432
 2504TIP3   OH2 7517   1.487   5.030   2.158 -0.2480  0.0290 -0.1638
 2504TIP3    H1 7518   1.518   5.034   2.248  0.2753 -0.3778 -0.3230
 2504TIP3    H2 7519   1.553   4.978   2.112 -0.2177  0.6986 -0.9003
 2505TIP3   OH2 7520   0.807   4.270   2.992 -0.8304 -0.0359 -0.1494
 2505TIP3    H1 7521   0.741   4.340   2.983 -0.5948  0.0933 -1.0068
 2505TIP3    H2 7522   0.887   4.316   3.017 -1.1455 -0.2387  1.3033
 2506TIP3   OH2 7523   4.345   5.672   3.546 -0.0831 -0.2180  0.1172
 2506TIP3    H1 7524   4.302   5.591   3.517  0.1393  0.1714 -1.3865
 2506TIP3    H2 7525   4.392   5.647   3.626  0.8628 -1.8698 -0.8898
 2507TIP3   OH2 7526   4.749   1.057   3.060  0.4795  0.2207  0.2131
 2507TIP3    H1 7527   4.829   1.106   3.078  0.0655  1.0462 -0.1673
 2507TIP3    H2 7528   4.780   0.970   3.035  1.2498  0.4739  0.2609
 2508TIP3   OH2 7529   2.470   1.066   1.577 -0.7859  0.0298  0.2221
 2508TIP3    H1 7530   2.559   1.100   1.572 -1.1392  0.8056 -1.3993
 2508TIP3    H2 7531   2.421   1.135   1.622 -0.5828 -0.4168  1.1556
 2509TIP3   OH2 7532   4.099   3.913   5.007 -0.7023  0.5261 -0.9523
 2509TIP3    H1 7533   4.033   3.925   5.075  0.8612  1.8097  0.4493
 2509TIP3    H2 7534   4.050   3.904   4.926 -2.6157 -0.1436  0.2208
 2510TIP3   OH2 7535   6.181   5.782   1.602  0.8319  0.0133 -0.1251
 2510TIP3    H1 7536   6.269   5.821   1.598  0.8888 -0.2243 -1.8145
 2510TIP3    H2 7537   6.133   5.824   1.532  0.1590 -1.1914 -0.4191
 2511TIP3   OH2 7538   6.292   1.956   3.352 -0.3690 -0.2894  0.2537
 2511TIP3    H1 7539   6.368   1.902   3.373 -0.5597 -0.4925  0.4334
 2511TIP3    H2 7540   6.304   2.036   3.403  1.1372  0.9110 -1.8055
 2512TIP3   OH2 7541   4.552   4.592   1.535 -0.7686  0.0974 -0.4810
 2512TIP3    H1 7542   4.466   4.630   1.556 -0.1968  1.1664  0.0088
 2512TIP3    H2 7543   4.585   4.647   1.464  0.1462  0.6499  0.3515
 2513TIP3   OH2 7544   1.965   0.328   4.514 -0.0844 -0.4403  0.7689
 2513TIP3    H1 7545   1.954   0.352   4.606 -1.0348 -1.6411  0.9843
 2513TIP3    H2 7546   1.901   0.382   4.467  1.9907  1.9506  0.4569
 2514TIP3   OH2 7547   1.096   4.919   4.068 -0.0790  0.0403  0.0037
 2514TIP3    H1 7548   1.142   4.998   4.041 -1.2867  0.6650 -0.2474
 2514TIP3    H2 7549   1.006   4.947   4.084 -0.3610 -1.1444  0.5873
 2515TIP3   OH2 7550   2.094   5.529   1.510  0.0815 -0.3160 -0.0449
 2515TIP3    H1 7551   2.182   5.563   1.528 -1.0224  1.1898  3.2322
 2515TIP3    H2 7552   2.048   5.602   1.468  0.0980 -0.8145 -0.9668
 2516TIP3   OH2 7553   4.995   1.042   0.977 -0.6627  0.2429 -0.1421
 2516TIP3    H1 7554   4.963   0.988   1.050  0.7442  1.4834  1.4593
 2516TIP3    H2 7555   5.082   1.007   0.957 -0.1430  1.2941  0.2505
 2517TIP3   OH2 7556   2.098   1.947   5.002 -0.5850  0.4539 -0.3342
 2517TIP3    H1 7557   2.048   1.955   5.083  0.8676  1.0855  0.5228
 2517TIP3    H2 7558   2.033   1.920   4.937 -1.8082  0.0888  0.9878
 2518TIP3   OH2 7559   3.766   2.608   4.109 -0.0180  0.6625  0.4732
 2518TIP3    H1 7560   3.773   2.613   4.204  0.1277  0.2006  0.4876
 2518TIP3    H2 7561   3.751   2.515   4.091  0.6581  0.6453 -0.0026
 2519TIP3   OH2 7562   1.177   0.146   1.808 -0.2080  0.1594 -0.9963
 2519TIP3    H1 7563   1.155   0.206   1.737  0.3400  0.1963 -1.1453
 2519TIP3    H2 7564   1.154   0.059   1.774 -0.4362  0.2286 -1.0168
 2520TIP3   OH2 7565   0.258   1.651   1.611  0.2317 -0.1258  0.1627
 2520TIP3    H1 7566   0.183   1.711   1.623 -0.1480 -0.5970  0.1805
 2520TIP3    H2 7567   0.326   1.687   1.668 -0.4752 -0.5183  1.3012
 2521TIP3   OH2 7568   1.083   4.369   3.074  0.0395 -0.0655 -0.6032
 2521TIP3    H1 7569   1.083   4.413   2.989 -0.5523  1.0467 -0.0446
 2521TIP3    H2 7570   1.176   4.350   3.091  0.4275  1.7535 -0.4867
 2522TIP3   OH2 7571   5.685   1.227   4.071 -0.2550 -0.3150  0.2284
 2522TIP3    H1 7572   5.737   1.245   4.150  0.4117 -0.2087 -0.2234
 2522TIP3    H2 7573   5.750   1.223   4.000 -0.9488  0.7252 -0.5035
 2523TIP3   OH2 7574   2.315   1.257   2.051  0.1990  0.2378 -0.6613
 2523TIP3    H1 7575   2.296   1.182   2.107  1.3435  1.3338  1.3295
 2523TIP3    H2 7576   2.259   1.327   2.084  1.0168  0.9512 -0.7372
 2524TIP3   OH2 7577   4.214   0.101   2.165 -0.3901 -0.3900 -0.0743
 2524TIP3    H1 7578   4.269   0.158   2.218  0.2406  0.2393 -1.3506
 2524TIP3    H2 7579   4.184   0.033   2.226  1.3110 -0.4144  0.8090
 2525TIP3   OH2 7580   0.512   0.678   4.234  0.5402  0.4834  0.4066
 2525TIP3    H1 7581   0.588   0.724   4.199  1.3448  1.2334  2.9329
 2525TIP3    H2 7582   0.441   0.700   4.174  2.3362 -0.7070 -2.3600
 2526TIP3   OH2 7583   5.370   0.372   1.548  0.1388  0.1464 -0.2862
 2526TIP3    H1 7584   5.441   0.334   1.600  1.3960  2.1613 -0.4284
 2526TIP3    H2 7585   5.397   0.358   1.457  1.1024  2.1286 -0.3451
 2527TIP3   OH2 7586   2.395   2.174   1.181 -0.4981 -0.3289  0.5851
 2527TIP3    H1 7587   2.452   2.232   1.232 -0.3922 -0.5718  0.7460
 2527TIP3    H2 7588   2.420   2.086   1.208  1.9213 -0.6805 -2.2484
 2528TIP3   OH2 7589   0.298   1.305   2.107 -0.5610 -0.1044 -0.1706
 2528TIP3    H1 7590   0.325   1.274   2.193 -1.8004 -1.6453 -0.2832
 2528TIP3    H2 7591   0.322   1.235   2.047 -1.5371  0.0445 -0.7660
 2529TIP3   OH2 7592   5.732   2.065   1.984 -0.7267 -0.3800 -0.2045
 2529TIP3    H1 7593   5.654   2.117   2.001 -1.5311 -1.8568  0.7727
 2529TIP3    H2 7594   5.743   2.068   1.888 -1.7991  0.0717 -0.3193
 2530TIP3   OH2 7595   1.450   4.486   1.745 -0.4717  0.0376 -0.4630
 2530TIP3    H1 7596   1.493   4.515   1.826  1.5791 -2.9158 -0.3154
 2530TIP3    H2 7597   1.383   4.424   1.774 -0.8764  0.2412 -0.9557
 2531TIP3   OH2 7598   4.162   4.859   0.676 -0.0414 -0.5521 -0.0391
 2531TIP3    H1 7599   4.103   4.931   0.697  0.1444 -0.2831 -0.4382
 2531TIP3    H2 7600   4.104   4.785   0.659 -0.3197 -0.0536 -1.3601
 2532TIP3   OH2 7601   5.145   2.998   1.102  0.2486  0.0437 -0.0004
 2532TIP3    H1 7602   5.236   2.978   1.122 -0.3030 -0.7839  1.8779
 2532TIP3    H2 7603   5.137   3.092   1.121  0.8403  0.2567 -0.7650
 2533TIP3   OH2 7604   5.698   4.448   2.343 -0.4604 -0.5305  0.4145
 2533TIP3    H1 7605   5.746   4.531   2.339  1.9834 -1.9032 -0.3092
 2533TIP3    H2 7606   5.674   4.430   2.252 -2.1647 -0.0481  0.7191
 2534TIP3   OH2 7607   4.280   1.328   0.801  0.3403 -0.1839 -0.6900
 2534TIP3    H1 7608   4.197   1.341   0.848  0.4914  0.0773 -0.4946
 2534TIP3    H2 7609   4.286   1.403   0.743  1.0741  0.4906  0.2316
 2535TIP3   OH2 7610   5.724   4.931   3.417  0.0132  0.0314  0.5442
 2535TIP3    H1 7611   5.812   4.898   3.433 -0.5512 -1.7299  0.2904
 2535TIP3    H2 7612   5.679   4.923   3.502  0.0005  0.5807  0.5891
 2536TIP3   OH2 7613   5.853   2.780   4.117  0.3677  0.0510  0.1873
 2536TIP3    H1 7614   5.849   2.851   4.181 -0.5113  1.1488 -1.0462
 2536TIP3    H2 7615   5.775   2.792   4.063 -0.6750 -2.7882  0.8817
 2537TIP3   OH2 7616   3.479   2.469   1.251  0.3348  0.5446 -0.4440
 2537TIP3    H1 7617   3.407   2.532   1.253  0.3674  0.5705  0.0240
 2537TIP3    H2 7618   3.558   2.523   1.243  0.2266  0.4549 -2.6422
 2538TIP3   OH2 7619   2.396   1.631   2.957  0.0068 -0.0420 -0.3951
 2538TIP3    H1 7620   2.440   1.686   2.893 -1.6638  0.5099 -1.1135
 2538TIP3    H2 7621   2.450   1.640   3.036  0.7884  1.1553 -1.0211
 2539TIP3   OH2 7622   4.488   5.911   3.743 -0.3233  0.0700  0.2687
 2539TIP3    H1 7623   4.397   5.935   3.727 -0.8531 -1.2303  1.1775
 2539TIP3    H2 7624   4.486   5.816   3.754  1.2545 -0.0667 -0.3720
 2540TIP3   OH2 7625   3.072   0.311   0.989 -0.3527 -0.3211 -0.4344
 2540TIP3    H1 7626   3.100   0.221   1.008 -0.4763 -0.3266 -0.2794
 2540TIP3    H2 7627   3.146   0.349   0.942  0.2290 -0.0961  0.6523
 2541TIP3   OH2 7628   3.692   2.132   5.080 -0.2809 -0.2017  0.0497
 2541TIP3    H1 7629   3.769   2.139   5.136 -0.9304  1.5978  0.8166
 2541TIP3    H2 7630   3.727   2.105   4.995  0.7863 -2.4292  1.1301
 2542TIP3   OH2 7631   1.518   0.435   3.242  0.6880 -0.1151 -0.3394
 2542TIP3    H1 7632   1.431   0.430   3.203  1.2799  1.3539 -1.9365
 2542TIP3    H2 7633   1.569   0.369   3.196  1.4746  1.8389 -2.4451
 2543TIP3   OH2 7634   0.979   4.576   4.982 -0.8600  0.1921 -0.3084
 2543TIP3    H1 7635   0.900   4.629   4.971 -1.0174 -0.3424 -2.2062
 2543TIP3    H2 7636   0.990   4.532   4.897  0.2906 -1.3927  0.6106
 2544TIP3   OH2 7637   3.832   3.991   3.702 -0.0642 -0.0373 -0.1025
 2544TIP3    H1 7638   3.821   3.979   3.796  0.1695  2.5198  0.3083
 2544TIP3    H2 7639   3.755   4.040   3.674  1.3966  2.1599 -0.5452
 2545TIP3   OH2 7640   4.633   5.769   3.012  0.4076 -0.1797 -0.4903
 2545TIP3    H1 7641   4.570   5.840   3.025 -0.1252 -0.8257  0.5998
 2545TIP3    H2 7642   4.649   5.768   2.917  1.1885  2.0097 -0.4193
 2546TIP3   OH2 7643   3.272   5.252   3.340 -0.3857  0.2651  0.0469
 2546TIP3    H1 7644   3.275   5.233   3.434 -0.0831  0.8625  0.1626
 2546TIP3    H2 7645   3.350   5.305   3.324 -1.1487  1.3406 -0.2695
 2547TIP3   OH2 7646   4.532   0.087   0.488  0.2897  0.3027  0.2139
 2547TIP3    H1 7647   4.511   0.173   0.451  2.1622  0.2954 -0.9663
 2547TIP3    H2 7648   4.550   0.104   0.580  1.4437  1.3342 -0.1813
 2548TIP3   OH2 7649   2.527   5.898   1.477 -0.0057  0.7717  0.4457
 2548TIP3    H1 7650   2.595   5.952   1.518 -0.0133  1.2711 -0.1783
 2548TIP3    H2 7651   2.543   5.906   1.383  1.8777 -2.7447  0.3064
 2549TIP3   OH2 7652   1.997   4.421   2.637  0.0884  0.5900 -0.0669
 2549TIP3    H1 7653   1.991   4.516   2.636 -0.4032  0.5768 -1.6061
 2549TIP3    H2 7654   2.033   4.399   2.723 -1.5501  2.0417  1.0544
 2550TIP3   OH2 7655   2.746   4.700   1.733  0.1193 -0.2386  0.0268
 2550TIP3    H1 7656   2.830   4.709   1.779  0.4304  0.5251 -0.6653
 2550TIP3    H2 7657   2.698   4.779   1.755 -0.5431 -0.7971  0.6358
 2551TIP3   OH2 7658   4.297   4.653   4.164  0.6127  0.0341 -0.6076
 2551TIP3    H1 7659   4.337   4.714   4.225 -1.4488  0.9240 -0.0612
 2551TIP3    H2 7660   4.343   4.570   4.180  1.7122  0.8119  0.4612
 2552TIP3   OH2 7661   4.480   1.421   2.984  0.4843 -0.0800  0.4452
 2552TIP3    H1 7662   4.475   1.327   2.967  2.0048 -0.3761  1.4570
 2552TIP3    H2 7663   4.539   1.430   3.059  2.0625  1.7731 -0.8834
 2553TIP3   OH2 7664   1.721   3.872   2.149 -0.6291 -0.0477 -0.0625
 2553TIP3    H1 7665   1.700   3.791   2.102 -1.2385  0.2714 -0.3509
 2553TIP3    H2 7666   1.649   3.882   2.212 -1.6442  1.2881 -1.3497
 2554TIP3   OH2 7667   1.168   2.076   2.684 -0.1894  0.1133  0.0211
 2554TIP3    H1 7668   1.223   2.040   2.753  0.5713  0.8377 -0.2024
 2554TIP3    H2 7669   1.132   2.156   2.721 -1.0829 -0.3364  0.1543
 2555TIP3   OH2 7670   5.249   5.168   4.051 -0.7089  0.2627 -0.9574
 2555TIP3    H1 7671   5.215   5.210   4.130  2.6239  1.6402 -0.1092
 2555TIP3    H2 7672   5.256   5.239   3.987  2.8666  0.7610 -0.2181
 2556TIP3   OH2 7673   4.830   1.423   0.108  0.8463  0.2898 -0.4473
 2556TIP3    H1 7674   4.893   1.363   0.068  0.9659  1.1087 -1.5585
 2556TIP3    H2 7675   4.745   1.393   0.076  0.7244 -0.3718  0.4642
 2557TIP3   OH2 7676   3.084   3.114   3.326 -0.5009 -0.4013  0.1174
 2557TIP3    H1 7677   3.042   3.066   3.254 -0.5960 -0.4669  0.2152
 2557TIP3    H2 7678   3.061   3.064   3.404 -1.6080  0.4545  0.3681
 2558TIP3   OH2 7679   3.150   1.216   0.268 -0.4654  0.1534  0.6561
 2558TIP3    H1 7680   3.169   1.193   0.177 -0.4187  0.1735  0.6606
 2558TIP3    H2 7681   3.163   1.310   0.273  0.3057  0.0470  0.8653
 2559TIP3   OH2 7682   3.004   2.714   3.369  0.8100 -0.2658 -0.3300
 2559TIP3    H1 7683   2.949   2.645   3.331 -0.0207  0.5245 -0.5916
 2559TIP3    H2 7684   3.091   2.675   3.371  0.5381 -1.0036 -1.3553
 2560TIP3   OH2 7685   2.742   3.351   2.791  0.3801  0.2029  1.0417
 2560TIP3    H1 7686   2.746   3.317   2.701  2.2488  0.1004  1.1206
 2560TIP3    H2 7687   2.656   3.394   2.796  0.5673  0.9804 -1.0904
 2561TIP3   OH2 7688   3.931   0.351   4.921 -0.0397 -0.3097  0.2816
 2561TIP3    H1 7689   3.971   0.344   4.835  1.8978 -0.8110  1.1653
 2561TIP3    H2 7690   3.885   0.268   4.933 -1.0464  0.1049 -0.5810
 2562TIP3   OH2 7691   4.511   5.869   4.382  0.0288  0.5396  0.1209
 2562TIP3    H1 7692   4.599   5.861   4.420  0.4989  1.7663 -0.6563
 2562TIP3    H2 7693   4.517   5.824   4.298  0.6756  2.7258 -1.0748
 2563TIP3   OH2 7694   2.454   1.258   3.778 -0.5231 -0.0025 -0.0919
 2563TIP3    H1 7695   2.393   1.332   3.777 -1.1792 -0.5087  0.7541
 2563TIP3    H2 7696   2.447   1.220   3.690 -0.4270  0.7252 -0.4267
 2564TIP3   OH2 7697   0.780   2.380   4.290  0.0772 -0.7234 -0.4134
 2564TIP3    H1 7698   0.851   2.327   4.328  0.2037  0.7297  1.5398
 2564TIP3    H2 7699   0.701   2.329   4.306  0.2271 -0.5218  1.2131
 2565TIP3   OH2 7700   2.896   1.580   0.212 -0.3395  0.3582 -0.4131
 2565TIP3    H1 7701   2.825   1.536   0.259  0.3100 -1.7810 -1.2887
 2565TIP3    H2 7702   2.926   1.515   0.148  2.4471  1.1384 -0.0342
 2566TIP3   OH2 7703   3.541   3.047   2.852  0.0604 -0.2565 -0.2182
 2566TIP3    H1 7704   3.548   3.021   2.760  1.4631  0.7230 -0.4290
 2566TIP3    H2 7705   3.618   3.009   2.893  1.2204  1.9807 -0.1752
 2567TIP3   OH2 7706   1.921   5.625   0.985  0.2461 -0.6292 -0.5530
 2567TIP3    H1 7707   1.940   5.701   0.930 -0.9253  1.3845  1.6619
 2567TIP3    H2 7708   1.875   5.565   0.926 -0.7136  1.3015 -1.8878
 2568TIP3   OH2 7709   4.796   5.372   0.951  0.3500  0.4635 -0.5091
 2568TIP3    H1 7710   4.782   5.403   1.041  1.3531  3.2689 -1.1997
 2568TIP3    H2 7711   4.712   5.384   0.907 -0.3069 -1.4559  0.1225
 2569TIP3   OH2 7712   1.916   4.173   4.474  0.2820  0.2786 -0.8170
 2569TIP3    H1 7713   1.928   4.266   4.494 -3.5408  0.9937 -1.1140
 2569TIP3    H2 7714   1.900   4.171   4.380  1.5647 -0.9103 -1.0404
 2570TIP3   OH2 7715   3.633   1.355   0.428 -0.1804 -0.3055  0.2477
 2570TIP3    H1 7716   3.570   1.327   0.361  0.9481  0.0995 -1.0270
 2570TIP3    H2 7717   3.664   1.440   0.397  0.8582 -0.4204  0.9362
 2571TIP3   OH2 7718   0.680   4.916   0.936 -0.3128  0.3260 -0.2044
 2571TIP3    H1 7719   0.698   4.877   1.022  1.9311  0.4008 -0.5907
 2571TIP3    H2 7720   0.733   4.865   0.875 -1.0265  0.9861 -1.4122
 2572TIP3   OH2 7721   5.397   0.463   2.193  0.6983 -0.4010 -0.0787
 2572TIP3    H1 7722   5.311   0.454   2.233 -0.0835  0.2826 -1.5260
 2572TIP3    H2 7723   5.392   0.546   2.145  1.8254 -0.8333 -0.9830
 2573TIP3   OH2 7724   6.055   4.391   4.302  0.0844 -0.1701 -0.0913
 2573TIP3    H1 7725   6.082   4.350   4.220 -0.6943 -1.2583  0.1671
 2573TIP3    H2 7726   6.000   4.325   4.345 -1.0885  1.0879  0.4282
 2574TIP3   OH2 7727   5.975   5.215   2.470  0.2303  0.5645 -0.0236
 2574TIP3    H1 7728   5.902   5.265   2.505  0.3192 -0.2733  1.4330
 2574TIP3    H2 7729   5.938   5.166   2.396 -1.2224 -1.3303  1.8597
 2575TIP3   OH2 7730   1.119   3.801   4.743 -0.4744  0.1466  0.1357
 2575TIP3    H1 7731   1.141   3.720   4.698  1.6592  0.8356 -0.1975
 2575TIP3    H2 7732   1.138   3.784   4.835 -0.9157 -0.0124  0.1978
 2576TIP3   OH2 7733   3.774   3.749   1.742  0.1799 -0.0859  0.0518
 2576TIP3    H1 7734   3.702   3.790   1.694  0.2394 -0.9023 -0.7709
 2576TIP3    H2 7735   3.814   3.821   1.792 -0.9825  0.4408  0.2558
 2577TIP3   OH2 7736   0.319   1.995   3.838 -0.0834  0.1080 -0.3251
 2577TIP3    H1 7737   0.292   1.982   3.929 -0.6939 -2.0409 -0.7444
 2577TIP3    H2 7738   0.404   2.038   3.844  1.2088 -2.4032  1.4273
 2578TIP3   OH2 7739   1.617   0.364   2.435  0.1215  0.1096 -0.1661
 2578TIP3    H1 7740   1.526   0.369   2.464 -0.0552 -0.4754 -0.6253
 2578TIP3    H2 7741   1.666   0.347   2.515  0.0161  1.9874  0.3588
 2579TIP3   OH2 7742   3.627   3.089   0.804 -0.3128  0.1065 -0.5320
 2579TIP3    H1 7743   3.540   3.077   0.841 -0.6405  2.1334 -0.5151
 2579TIP3    H2 7744   3.680   3.120   0.878  0.1629 -0.1313 -0.7699
 2580TIP3   OH2 7745   4.481   2.950   2.412 -0.5449 -0.5814 -0.4345
 2580TIP3    H1 7746   4.388   2.936   2.432 -0.2180 -0.3490  1.3781
 2580TIP3    H2 7747   4.482   2.973   2.319 -2.5894  1.9412  0.0682
 2581TIP3   OH2 7748   5.766   2.803   0.178  0.3374  0.4763  0.6162
 2581TIP3    H1 7749   5.780   2.857   0.100 -1.1369  1.1462  0.7855
 2581TIP3    H2 7750   5.829   2.836   0.242  1.6220 -0.1351 -0.2839
 2582TIP3   OH2 7751   2.514   4.196   2.776 -0.1636  0.0697  0.1023
 2582TIP3    H1 7752   2.587   4.155   2.823 -0.4363 -0.7663 -0.1782
 2582TIP3    H2 7753   2.556   4.260   2.718  0.3246 -0.2226  0.1263
 2583TIP3   OH2 7754   5.623   3.916   1.569  0.4704  0.3619 -0.1747
 2583TIP3    H1 7755   5.601   3.974   1.642  0.0116  0.4696 -0.3912
 2583TIP3    H2 7756   5.574   3.952   1.495  0.8036  0.1561 -0.4966
 2584TIP3   OH2 7757   1.568   3.391   4.800  0.1089 -0.7518 -0.1655
 2584TIP3    H1 7758   1.521   3.458   4.849  0.3539 -1.0296  0.4520
 2584TIP3    H2 7759   1.660   3.414   4.809  0.1875 -1.1091 -0.0382
 2585TIP3   OH2 7760   1.295   1.984   4.446 -0.4653 -0.1450  0.6258
 2585TIP3    H1 7761   1.377   1.991   4.494 -0.4352  0.6410  0.4688
 2585TIP3    H2 7762   1.227   1.986   4.514 -0.3551 -0.9288  0.7643
 2586TIP3   OH2 7763   3.136   1.261   3.146 -1.0667  0.4789  0.2892
 2586TIP3    H1 7764   3.162   1.191   3.206  4.2457  0.5249 -1.4590
 2586TIP3    H2 7765   3.091   1.216   3.074 -0.5544 -0.6509  0.6584
 2587TIP3   OH2 7766   4.778   1.182   0.518 -0.0427  0.4532 -0.0435
 2587TIP3    H1 7767   4.696   1.203   0.562 -0.1067  0.3732 -0.1248
 2587TIP3    H2 7768   4.753   1.160   0.429  0.0305  0.1089  0.0181
 2588TIP3   OH2 7769   0.390   0.772   0.368 -0.1963  0.4617  0.1915
 2588TIP3    H1 7770   0.399   0.809   0.280  1.7092  0.3488  0.3028
 2588TIP3    H2 7771   0.451   0.823   0.422 -0.5592 -0.1687  1.2243
 2589TIP3   OH2 7772   0.744   4.965   3.395  0.0731 -0.0070  0.1406
 2589TIP3    H1 7773   0.655   4.980   3.425 -0.0297 -0.8433  0.2846
 2589TIP3    H2 7774   0.768   4.880   3.433  0.4609 -0.4035 -0.9450
 2590TIP3   OH2 7775   1.622   2.988   1.572 -0.6421  0.1499  0.2868
 2590TIP3    H1 7776   1.607   3.052   1.502 -0.1845  0.3671  0.3827
 2590TIP3    H2 7777   1.611   3.037   1.653 -1.5150 -0.1814  0.3801
 2591TIP3   OH2 7778   2.791   0.828   0.301 -0.2135 -0.6561  0.2606
 2591TIP3    H1 7779   2.706   0.871   0.291 -0.8358 -2.0723 -0.8873
 2591TIP3    H2 7780   2.851   0.899   0.324 -1.3995  0.6325 -0.4506
 2592TIP3   OH2 7781   3.279   2.242   2.895 -0.3274 -0.6676 -0.2623
 2592TIP3    H1 7782   3.365   2.208   2.870 -0.1164 -1.0577  0.9559
 2592TIP3    H2 7783   3.261   2.312   2.831  1.8796  0.9448  0.7695
 2593TIP3   OH2 7784   0.924   2.645   1.320 -0.5933 -0.2122 -0.0856
 2593TIP3    H1 7785   0.884   2.732   1.330 -2.8354 -1.1546 -0.2618
 2593TIP3    H2 7786   0.940   2.616   1.410 -0.8510 -0.0461  0.0156
 2594TIP3   OH2 7787   6.309   2.848   0.409  0.1115  0.2211 -0.0942
 2594TIP3    H1 7788   6.273   2.919   0.462 -1.7064 -1.7093  1.4605
 2594TIP3    H2 7789   6.394   2.830   0.448  0.5641  1.4751 -0.4677
 2595TIP3   OH2 7790   5.995   1.613   3.219  0.3867  0.2539  1.0118
 2595TIP3    H1 7791   6.078   1.569   3.204 -0.8922 -2.8035  2.1362
 2595TIP3    H2 7792   5.967   1.642   3.133  1.7744 -0.2546  0.3581
 2596TIP3   OH2 7793   1.266   3.504   2.290 -0.1634 -0.1318 -0.5416
 2596TIP3    H1 7794   1.326   3.457   2.232 -2.7187 -2.3040 -1.6152
 2596TIP3    H2 7795   1.258   3.448   2.367  0.6346  1.1064  0.4798
 2597TIP3   OH2 7796   2.663   2.572   1.122 -0.6205  0.3586 -0.7934
 2597TIP3    H1 7797   2.713   2.525   1.055  0.4271 -0.2287  0.3627
 2597TIP3    H2 7798   2.727   2.588   1.192 -2.2857 -1.4741  1.2825
 2598TIP3   OH2 7799   1.191   4.009   3.416  0.5251  0.3399  0.0941
 2598TIP3    H1 7800   1.204   3.918   3.444  0.5489 -0.2570 -1.7420
 2598TIP3    H2 7801   1.096   4.019   3.414  0.4791 -0.1505 -1.1362
 2599TIP3   OH2 7802   1.142   4.615   1.945 -0.1870 -0.6155  0.9687
 2599TIP3    H1 7803   1.113   4.566   1.867  1.2986 -0.0445  0.0043
 2599TIP3    H2 7804   1.078   4.685   1.954  0.1740 -0.0743 -0.3933
 2600TIP3   OH2 7805   5.145   5.393   2.112 -0.6010  0.2122 -0.0926
 2600TIP3    H1 7806   5.097   5.325   2.064 -0.7487  1.7156 -2.1832
 2600TIP3    H2 7807   5.106   5.475   2.083  3.4887  1.6271 -2.4318
 2601TIP3   OH2 7808   6.194   0.404   3.775 -0.5080  0.1590  0.4990
 2601TIP3    H1 7809   6.166   0.494   3.794  1.1118  0.6078  0.9368
 2601TIP3    H2 7810   6.122   0.367   3.724 -1.1547  1.7422  0.1931
 2602TIP3   OH2 7811   1.627   1.642   4.639 -0.6824  0.0461 -0.3430
 2602TIP3    H1 7812   1.567   1.706   4.675 -0.5646 -0.6991  1.2396
 2602TIP3    H2 7813   1.650   1.585   4.712 -0.2769 -1.4160 -1.5389
 2603TIP3   OH2 7814   4.588   4.957   4.260  0.1017 -0.2646 -0.0300
 2603TIP3    H1 7815   4.541   4.886   4.305  0.1051 -0.0059  0.3779
 2603TIP3    H2 7816   4.519   5.019   4.235  0.4341  1.3894  2.8009
 2604TIP3   OH2 7817   4.063   2.832   1.995  0.4260  0.4288  0.5300
 2604TIP3    H1 7818   4.130   2.872   1.939 -0.2450 -0.3633 -0.8939
 2604TIP3    H2 7819   4.102   2.749   2.022 -0.1404 -0.2720 -0.7227
 2605TIP3   OH2 7820   5.094   1.521   1.941  0.1339 -0.3088 -0.1757
 2605TIP3    H1 7821   5.065   1.430   1.950  1.9285 -1.1232 -1.9688
 2605TIP3    H2 7822   5.119   1.546   2.030 -0.4217 -1.5468  0.3586
 2606TIP3   OH2 7823   5.907   3.433   4.854  0.3681 -0.3365  0.0992
 2606TIP3    H1 7824   5.847   3.408   4.925 -0.5161  0.5873 -0.3006
 2606TIP3    H2 7825   5.861   3.503   4.807  1.3179 -0.3305 -0.8593
 2607TIP3   OH2 7826   4.326   4.516   3.779  0.0997  0.4406 -0.5632
 2607TIP3    H1 7827   4.253   4.500   3.839 -1.7337  2.0847 -2.2203
 2607TIP3    H2 7828   4.380   4.581   3.823 -0.4969  0.6542 -0.1335
 2608TIP3   OH2 7829   3.072   2.780   2.806 -0.7358  0.3490 -0.1003
 2608TIP3    H1 7830   3.124   2.808   2.731  2.0203 -1.2889  1.0297
 2608TIP3    H2 7831   3.082   2.851   2.869  0.5686 -0.1222  0.2592
 2609TIP3   OH2 7832   2.252   4.291   2.871  0.0280 -0.4825  0.1165
 2609TIP3    H1 7833   2.335   4.266   2.830  0.4218 -0.9994  1.1966
 2609TIP3    H2 7834   2.202   4.210   2.874 -0.3989 -0.2321 -0.2631
 2610TIP3   OH2 7835   2.273   3.075   3.566 -0.1819  0.1785  0.1368
 2610TIP3    H1 7836   2.279   2.994   3.517 -0.9845 -0.0762  0.4272
 2610TIP3    H2 7837   2.274   3.047   3.658 -0.7338  0.4619  0.2351
 2611TIP3   OH2 7838   4.707   5.714   1.479  0.2970  0.3354 -0.1589
 2611TIP3    H1 7839   4.619   5.748   1.495  0.0441 -0.3680 -0.0224
 2611TIP3    H2 7840   4.754   5.788   1.440 -0.9307  0.1411 -2.1354
 2612TIP3   OH2 7841   1.455   4.517   4.774  0.3850 -0.2081  0.5052
 2612TIP3    H1 7842   1.387   4.454   4.751 -0.5588  0.7309  0.6314
 2612TIP3    H2 7843   1.422   4.559   4.853  0.1469  1.6176 -0.5100
 2613TIP3   OH2 7844   2.072   0.446   2.427 -0.1992  0.0788  0.2196
 2613TIP3    H1 7845   2.140   0.462   2.362  1.5024  2.2925  2.3762
 2613TIP3    H2 7846   1.994   0.489   2.391  0.2604 -0.0796 -1.0265
 2614TIP3   OH2 7847   4.684   1.189   3.572  0.1106 -0.3745 -0.2515
 2614TIP3    H1 7848   4.630   1.132   3.627  0.0288  0.7247  0.8528
 2614TIP3    H2 7849   4.661   1.164   3.483 -2.8355  0.5471  0.1361
 2615TIP3   OH2 7850   5.418   0.491   4.786  0.0145 -0.0474  0.3683
 2615TIP3    H1 7851   5.364   0.413   4.802 -0.4564 -0.1448 -1.4693
 2615TIP3    H2 7852   5.358   0.564   4.796 -0.4336 -0.1376 -1.3085
 2616TIP3   OH2 7853   0.075   1.375   3.609 -0.3832 -0.3644 -0.1779
 2616TIP3    H1 7854   0.126   1.438   3.559  1.1968 -1.7203 -0.3773
 2616TIP3    H2 7855   0.140   1.312   3.641 -1.6000 -0.6529  1.9097
 2617TIP3   OH2 7856   5.173   2.180   3.385 -0.2294  0.0525  0.2320
 2617TIP3    H1 7857   5.237   2.230   3.335  1.0340 -1.8771 -0.1664
 2617TIP3    H2 7858   5.176   2.218   3.473 -0.6609  1.8439 -0.4805
 2618TIP3   OH2 7859   0.039   3.083   0.515  0.3314  0.0912  0.0078
 2618TIP3    H1 7860   0.044   3.163   0.464 -0.3379 -0.0041 -0.2107
 2618TIP3    H2 7861   0.104   3.025   0.475  0.2079  0.2164 -0.3711
 2619TIP3   OH2 7862   3.104   4.130   3.905  0.5109 -0.0812 -0.2659
 2619TIP3    H1 7863   3.147   4.062   3.957  0.1007 -0.5780 -0.5592
 2619TIP3    H2 7864   3.043   4.082   3.849 -1.2277  0.6739  0.8998
 2620TIP3   OH2 7865   5.079   0.257   4.254 -0.3436 -0.4077 -0.8748
 2620TIP3    H1 7866   5.030   0.180   4.226 -2.1583 -0.1222  1.2459
 2620TIP3    H2 7867   5.049   0.327   4.195 -0.9397 -0.7005 -0.9259
 2621TIP3   OH2 7868   0.300   3.069   5.108 -0.0416 -0.0897  0.0473
 2621TIP3    H1 7869   0.394   3.053   5.114  0.1097  0.7877  0.1241
 2621TIP3    H2 7870   0.260   2.985   5.131  0.7034 -0.1634  1.1328
 2622TIP3   OH2 7871   5.674   3.845   3.788 -0.7835 -0.1019 -0.0079
 2622TIP3    H1 7872   5.630   3.760   3.793 -0.2459 -0.3811  0.0364
 2622TIP3    H2 7873   5.684   3.862   3.695 -0.1220 -0.4913 -0.0095
 2623TIP3   OH2 7874   4.661   0.419   2.781  0.0159 -0.0856 -0.3303
 2623TIP3    H1 7875   4.670   0.331   2.743  0.8140  0.6341 -1.8785
 2623TIP3    H2 7876   4.570   0.443   2.763  0.3006  0.1226 -1.5391
 2624TIP3   OH2 7877   6.322   3.986   4.628 -0.2973 -0.2838 -0.6194
 2624TIP3    H1 7878   6.306   3.960   4.718  1.3477 -1.8429 -0.7362
 2624TIP3    H2 7879   6.387   3.924   4.595 -0.4934  0.5319 -2.7385
 2625TIP3   OH2 7880   5.641   1.389   3.721 -0.0425 -0.0942  0.2778
 2625TIP3    H1 7881   5.700   1.464   3.732  0.1722 -0.2137 -0.0233
 2625TIP3    H2 7882   5.684   1.335   3.654  0.4893 -1.1697  1.4552
 2626TIP3   OH2 7883   6.231   3.692   2.728  0.8112  0.3093  0.1024
 2626TIP3    H1 7884   6.192   3.723   2.647 -0.0506  0.3962  0.5293
 2626TIP3    H2 7885   6.234   3.597   2.719  2.1701  0.4022 -0.6471
 2627TIP3   OH2 7886   4.553   3.828   0.826  0.1737  0.3529  0.0088
 2627TIP3    H1 7887   4.635   3.818   0.875  0.8988  0.1720 -1.2076
 2627TIP3    H2 7888   4.561   3.913   0.783 -1.1649  1.2647  1.4500
 2628TIP3   OH2 7889   4.193   0.105   0.356  0.9318  0.0076 -0.3529
 2628TIP3    H1 7890   4.252   0.100   0.281  0.6741 -0.1202 -0.5453
 2628TIP3    H2 7891   4.120   0.048   0.334  0.1255  1.1257 -0.6500
 2629TIP3   OH2 7892   2.659   3.729   0.972  0.7999  0.3429  0.4252
 2629TIP3    H1 7893   2.594   3.756   1.037 -0.3153 -0.7568 -0.1976
 2629TIP3    H2 7894   2.710   3.662   1.017  0.3487 -0.0614  0.3464
 2630TIP3   OH2 7895   3.764   2.719   3.580 -0.1866  0.5728 -0.0459
 2630TIP3    H1 7896   3.682   2.765   3.563 -0.0983 -0.0719 -2.5242
 2630TIP3    H2 7897   3.738   2.628   3.597 -0.0496  0.5865  0.2488
 2631TIP3   OH2 7898   6.124   5.607   3.473  0.5104 -0.0130 -0.0213
 2631TIP3    H1 7899   6.060   5.641   3.411  1.2480  1.7531  0.1180
 2631TIP3    H2 7900   6.209   5.625   3.431  0.9598 -0.7647  0.5414
 2632TIP3   OH2 7901   1.968   1.849   2.315 -0.4078 -0.2216 -0.1461
 2632TIP3    H1 7902   1.918   1.928   2.331 -1.1764 -0.8564  0.6438
 2632TIP3    H2 7903   1.903   1.783   2.291  0.1205 -0.8688  0.1669
 2633TIP3   OH2 7904   5.286   3.890   0.230  0.2216 -1.4306 -0.0545
 2633TIP3    H1 7905   5.325   3.943   0.161 -0.8024 -1.5227 -0.7267
 2633TIP3    H2 7906   5.325   3.922   0.311  0.7193 -0.6650 -0.5943
 2634TIP3   OH2 7907   5.329   4.914   1.321  0.0380 -0.2065 -0.6257
 2634TIP3    H1 7908   5.322   4.907   1.416 -0.2589  0.2551 -0.6074
 2634TIP3    H2 7909   5.299   5.003   1.301  0.6282 -0.1048 -1.0989
 2635TIP3   OH2 7910   0.859   0.756   3.558  0.3421 -0.3618  0.0107
 2635TIP3    H1 7911   0.862   0.672   3.512 -1.2956 -0.7387  0.5087
 2635TIP3    H2 7912   0.893   0.819   3.494  2.0903 -1.4398 -0.1892
 2636TIP3   OH2 7913   3.278   0.775   1.228  0.2663  0.0514 -0.6200
 2636TIP3    H1 7914   3.236   0.699   1.189  0.8202  0.1026 -1.3461
 2636TIP3    H2 7915   3.365   0.743   1.255  0.2335  0.2503 -0.2628
 2637TIP3   OH2 7916   4.839   0.490   4.305  0.3144  0.5430  0.0680
 2637TIP3    H1 7917   4.905   0.485   4.236  0.3095  1.3567 -0.0023
 2637TIP3    H2 7918   4.849   0.578   4.342 -0.0073  0.2907  0.7778
 2638TIP3   OH2 7919   5.732   0.614   5.117  0.3054 -0.3042 -0.1646
 2638TIP3    H1 7920   5.746   0.594   5.209 -1.4581 -1.6761 -0.1414
 2638TIP3    H2 7921   5.714   0.529   5.077 -0.9142  0.5072 -1.3901
 2639TIP3   OH2 7922   5.962   4.590   1.644 -0.0376 -0.3569 -0.3079
 2639TIP3    H1 7923   5.880   4.605   1.690 -1.0006 -4.3783 -0.3059
 2639TIP3    H2 7924   5.939   4.593   1.551  0.2523  0.4407 -0.3555
 2640TIP3   OH2 7925   3.040   2.022   0.130 -0.2921 -0.0127  0.2671
 2640TIP3    H1 7926   3.133   2.005   0.114 -0.6839  0.1690 -2.7306
 2640TIP3    H2 7927   3.016   1.960   0.200  1.8424 -0.6962  0.4600
 2641TIP3   OH2 7928   4.813   4.918   1.001 -0.0577 -0.0269  0.1180
 2641TIP3    H1 7929   4.851   4.869   1.074  0.4491 -0.6146 -0.5267
 2641TIP3    H2 7930   4.722   4.934   1.028  0.4838  1.0324  1.4960
 2642TIP3   OH2 7931   6.181   0.335   0.155 -0.0771  0.3410  0.0019
 2642TIP3    H1 7932   6.153   0.247   0.177  0.9771 -0.2943 -1.0410
 2642TIP3    H2 7933   6.252   0.322   0.092  0.9359  1.9066  0.7615
 2643TIP3   OH2 7934   0.460   1.471   5.110  0.9330 -0.2623 -0.1142
 2643TIP3    H1 7935   0.386   1.410   5.104  0.1629  0.6019  0.3386
 2643TIP3    H2 7936   0.485   1.487   5.019 -0.6891  0.8874 -0.4094
 2644TIP3   OH2 7937   3.368   3.223   2.731 -0.3452  0.2618  0.2829
 2644TIP3    H1 7938   3.414   3.157   2.784  0.4328 -0.9234 -1.7331
 2644TIP3    H2 7939   3.388   3.306   2.773  2.0497 -0.4153  0.6570
 2645TIP3   OH2 7940   0.033   0.062   0.381 -0.5250  0.0387 -0.0277
 2645TIP3    H1 7941  -0.046   0.061   0.327 -0.6465  1.1008  0.0978
 2645TIP3    H2 7942   0.049  -0.029   0.403 -0.4010 -0.4378 -1.9563
 2646TIP3   OH2 7943   5.865   1.386   2.985 -0.1972  0.5951 -0.3842
 2646TIP3    H1 7944   5.886   1.479   2.991  1.8304  0.1089  1.0485
 2646TIP3    H2 7945   5.795   1.373   3.049  1.3127  0.7306  1.3770
 2647TIP3   OH2 7946   3.233   1.495   2.668  0.0184  0.6057 -0.3215
 2647TIP3    H1 7947   3.284   1.497   2.587  0.0952 -0.7690 -0.3254
 2647TIP3    H2 7948   3.261   1.573   2.716  2.0210 -0.0366 -0.3761
 2648TIP3   OH2 7949   4.121   1.653   3.714  0.2267  0.3475 -0.1042
 2648TIP3    H1 7950   4.165   1.686   3.636 -0.6321 -1.3334 -1.3854
 2648TIP3    H2 7951   4.186   1.659   3.784  2.0579 -0.7834 -1.6200
 2649TIP3   OH2 7952   0.430   3.449   1.339  0.1892 -0.6954  0.8911
 2649TIP3    H1 7953   0.509   3.448   1.286  0.1609  0.5562  0.8021
 2649TIP3    H2 7954   0.373   3.384   1.298  0.6675 -0.6736  0.1756
 2650TIP3   OH2 7955   1.858   2.094   2.387  0.4060  0.0764 -0.0344
 2650TIP3    H1 7956   1.767   2.086   2.414  0.8237  1.0438  1.8247
 2650TIP3    H2 7957   1.866   2.184   2.356 -0.3570 -1.2492 -5.0404
 2651TIP3   OH2 7958   6.154   0.904   0.711 -0.0899  0.2896 -0.6229
 2651TIP3    H1 7959   6.172   0.991   0.747 -1.1460 -0.0985  0.9404
 2651TIP3    H2 7960   6.075   0.916   0.658 -0.2866  0.2845 -0.3366
 2652TIP3   OH2 7961   4.853   4.633   4.464 -0.2562 -0.4892 -0.6177
 2652TIP3    H1 7962   4.866   4.622   4.558  0.7309  0.8088 -0.5800
 2652TIP3    H2 7963   4.778   4.577   4.444 -0.2936 -1.0236  0.8753
 2653TIP3   OH2 7964   4.140   4.309   1.862  0.1146 -0.4751 -0.0537
 2653TIP3    H1 7965   4.153   4.402   1.844 -0.7003 -0.5250 -0.9749
 2653TIP3    H2 7966   4.221   4.267   1.832  0.2745 -0.1253 -0.1107
 2654TIP3   OH2 7967   6.256   4.434   3.531  0.3349  0.4512 -0.9522
 2654TIP3    H1 7968   6.221   4.346   3.537  2.5702 -0.4268  0.5000
 2654TIP3    H2 7969   6.227   4.466   3.445  0.1349 -1.9786 -1.8663
 2655TIP3   OH2 7970   2.776   1.071   4.418 -0.7061  0.2794 -0.2427
 2655TIP3    H1 7971   2.703   1.102   4.365  0.0843  2.2158 -0.2555
 2655TIP3    H2 7972   2.854   1.105   4.375 -0.0045  1.3853  1.7498
 2656TIP3   OH2 7973   4.764   3.871   0.341 -0.5009  0.0635 -0.0412
 2656TIP3    H1 7974   4.838   3.906   0.292  0.8761 -0.7750  1.3206
 2656TIP3    H2 7975   4.762   3.778   0.318 -0.1078 -0.2465  1.0842
 2657TIP3   OH2 7976   5.231   2.417   5.125  0.3087  0.3937 -0.3254
 2657TIP3    H1 7977   5.137   2.427   5.137  0.5408  1.0933  1.0302
 2657TIP3    H2 7978   5.265   2.398   5.212  1.3361 -0.7562 -0.9360
 2658TIP3   OH2 7979   5.137   2.192   4.576 -0.3377  0.0319  0.2368
 2658TIP3    H1 7980   5.139   2.099   4.555  0.6580  0.1529 -0.2684
 2658TIP3    H2 7981   5.081   2.199   4.653 -0.1556 -1.0225  0.4682
 2659TIP3   OH2 7982   2.016   4.713   1.713  0.0955  0.3427 -0.0854
 2659TIP3    H1 7983   1.978   4.671   1.790  0.7758  1.4538  0.8887
 2659TIP3    H2 7984   1.942   4.752   1.667 -0.3874 -0.8282 -0.3320
 2660TIP3   OH2 7985   2.969   1.405   5.161  0.0623 -0.0139 -0.3327
 2660TIP3    H1 7986   2.979   1.489   5.207  2.5510 -0.0118 -0.7203
 2660TIP3    H2 7987   2.937   1.429   5.074 -0.6177  0.3730  0.0121
 2661TIP3   OH2 7988   0.799   2.261   1.276 -0.0886 -0.3139 -0.5443
 2661TIP3    H1 7989   0.857   2.225   1.344  0.2095  0.9847 -0.0780
 2661TIP3    H2 7990   0.829   2.220   1.195  1.5201  0.3315 -0.3226
 2662TIP3   OH2 7991   5.766   3.186   4.526 -0.0032 -0.2943 -0.0513
 2662TIP3    H1 7992   5.686   3.227   4.494 -0.4962  0.0511  1.5027
 2662TIP3    H2 7993   5.752   3.178   4.621  1.6200 -0.6237  0.1920
 2663TIP3   OH2 7994   3.877   0.772   1.208 -0.0677  0.0007  0.3300
 2663TIP3    H1 7995   3.849   0.690   1.248  0.6174 -0.4296 -0.0417
 2663TIP3    H2 7996   3.829   0.775   1.125  1.1753 -0.8959 -0.4566
 2664TIP3   OH2 7997   3.700   3.037   0.444  0.4482  0.0901 -0.7120
 2664TIP3    H1 7998   3.791   3.012   0.460 -0.2035 -2.1979 -0.3284
 2664TIP3    H2 7999   3.674   3.084   0.524  1.1754  0.4730 -0.6902
 2665TIP3   OH2 8000   2.021   5.722   0.039 -0.3692 -0.4091  0.5064
 2665TIP3    H1 8001   1.969   5.680  -0.029  0.0142 -2.8652  1.6068
 2665TIP3    H2 8002   2.112   5.704   0.014 -0.1513  0.4591  0.6302
 2666TIP3   OH2 8003   4.846   0.528   1.171  0.0961 -0.3909 -0.1745
 2666TIP3    H1 8004   4.865   0.562   1.084 -0.3595 -2.2156 -1.0342
 2666TIP3    H2 8005   4.925   0.481   1.197  0.0463 -0.2859  0.1784
 2667TIP3   OH2 8006   0.076   1.123   1.018 -0.0850 -0.6580 -0.0043
 2667TIP3    H1 8007   0.114   1.185   0.956  1.9660 -1.0580  0.7710
 2667TIP3    H2 8008   0.043   1.052   0.964 -0.9247  0.3073 -0.7929
 2668TIP3   OH2 8009   1.966   2.470   3.450  0.1658 -0.1692  0.2701
 2668TIP3    H1 8010   2.018   2.516   3.517  2.9013 -2.1969 -0.2609
 2668TIP3    H2 8011   2.016   2.480   3.370 -0.0086 -2.5138 -0.2169
 2669TIP3   OH2 8012   4.626   4.501   3.690  0.5457  0.4904  0.1213
 2669TIP3    H1 8013   4.592   4.446   3.761  0.9790 -0.3333 -0.2933
 2669TIP3    H2 8014   4.628   4.589   3.727 -3.6404  0.9759 -0.3469
 2670TIP3   OH2 8015   2.843   4.909   2.848  0.0370 -0.3816 -0.2804
 2670TIP3    H1 8016   2.881   4.821   2.847 -0.0535 -0.4165 -0.5888
 2670TIP3    H2 8017   2.754   4.897   2.816  0.0599 -0.1577 -0.4269
 2671TIP3   OH2 8018   3.108   4.913   3.824 -0.6315  0.7180  0.1303
 2671TIP3    H1 8019   3.109   4.850   3.752 -0.8494  0.9440 -0.0722
 2671TIP3    H2 8020   3.186   4.967   3.809 -0.2753  0.3028  0.4789
 2672TIP3   OH2 8021   5.354   2.768   0.831 -0.2902  0.0012 -0.3116
 2672TIP3    H1 8022   5.371   2.832   0.762  0.9899 -0.4458 -0.4245
 2672TIP3    H2 8023   5.350   2.820   0.911 -0.1357  0.3207 -0.5098
 2673TIP3   OH2 8024   1.389   5.927   3.837 -0.2100 -0.0496  0.2922
 2673TIP3    H1 8025   1.418   5.883   3.757 -1.1193  1.7967 -1.1188
 2673TIP3    H2 8026   1.445   6.005   3.843 -0.8434  0.3686  0.8929
 2674TIP3   OH2 8027   3.020   1.351   1.700 -0.0745  0.0262  0.5301
 2674TIP3    H1 8028   2.954   1.412   1.733  1.5265  1.8016  0.6115
 2674TIP3    H2 8029   3.034   1.378   1.609 -0.9554 -1.7268 -0.1760
 2675TIP3   OH2 8030   4.541   2.271   2.588 -0.2343 -0.0565 -0.3358
 2675TIP3    H1 8031   4.518   2.335   2.655 -1.6066 -1.0025  0.1514
 2675TIP3    H2 8032   4.624   2.233   2.617 -0.7028 -0.2976  0.7377
 2676TIP3   OH2 8033   6.292   1.163   3.927  0.2566  0.0433  0.0582
 2676TIP3    H1 8034   6.250   1.212   3.997  0.7586 -0.5383  0.7911
 2676TIP3    H2 8035   6.385   1.186   3.934  0.2760  0.1768 -0.5835
 2677TIP3   OH2 8036   0.565   5.220   4.402 -0.2863 -0.0481 -0.2320
 2677TIP3    H1 8037   0.540   5.220   4.309 -1.4985  0.6881  0.0660
 2677TIP3    H2 8038   0.483   5.235   4.448  0.4058  0.2453  0.9289
 2678TIP3   OH2 8039   0.903   2.075   3.846  0.1766  0.2918 -0.1791
 2678TIP3    H1 8040   0.992   2.065   3.812  0.4088  1.4856  0.0202
 2678TIP3    H2 8041   0.857   2.126   3.779  0.1122  1.0543  0.4205
 2679TIP3   OH2 8042   2.750   1.136   0.906  0.5080  0.0350 -0.2768
 2679TIP3    H1 8043   2.775   1.166   0.993 -0.2410  1.0703 -0.4027
 2679TIP3    H2 8044   2.783   1.204   0.847  0.3753 -0.2952 -0.7359
 2680TIP3   OH2 8045   4.310   1.496   0.595 -0.3808  0.2372  0.0080
 2680TIP3    H1 8046   4.386   1.542   0.559 -0.5724  0.7990  0.3134
 2680TIP3    H2 8047   4.326   1.404   0.575  1.0882  0.1604  1.2801
 2681TIP3   OH2 8048   5.434   5.363   2.213 -0.1734  0.8314 -0.8131
 2681TIP3    H1 8049   5.349   5.377   2.171 -0.7445  2.3004  0.7355
 2681TIP3    H2 8050   5.413   5.349   2.306  1.1974 -0.1189 -0.6213
 2682TIP3   OH2 8051   0.303   2.245   1.174  0.0459 -0.2213 -0.7385
 2682TIP3    H1 8052   0.347   2.166   1.142 -0.3368 -0.6355 -0.2628
 2682TIP3    H2 8053   0.210   2.229   1.157  0.1265  1.0414 -2.5933
 2683TIP3   OH2 8054   4.438   4.080   2.754 -0.1199 -0.1717 -0.5505
 2683TIP3    H1 8055   4.464   4.067   2.845 -1.7297  0.2204 -0.0011
 2683TIP3    H2 8056   4.471   4.003   2.708  0.7303 -0.3572  0.3521
 2684TIP3   OH2 8057   3.742   0.922   1.784  0.4182  0.4255 -0.2128
 2684TIP3    H1 8058   3.757   1.009   1.819  0.6291 -0.0653  0.9580
 2684TIP3    H2 8059   3.829   0.889   1.762  0.4257  0.1762  0.1824
 2685TIP3   OH2 8060   1.900   4.651   3.569 -0.1082 -0.3330  0.3020
 2685TIP3    H1 8061   1.982   4.693   3.543 -0.1165  0.3300  1.3185
 2685TIP3    H2 8062   1.839   4.675   3.499  0.6354 -1.1682 -0.6825
 2686TIP3   OH2 8063   0.481   0.269   5.112  0.1258 -0.2846  0.4935
 2686TIP3    H1 8064   0.487   0.193   5.169  1.2293 -0.4288  0.1988
 2686TIP3    H2 8065   0.387   0.285   5.104 -0.1750 -2.2317 -0.2778
 2687TIP3   OH2 8066   1.544   2.473   2.279  0.3516  0.3770 -0.0502
 2687TIP3    H1 8067   1.469   2.469   2.338  0.8568 -0.5398  0.5660
 2687TIP3    H2 8068   1.507   2.496   2.194 -0.8280 -1.4067 -0.0621
 2688TIP3   OH2 8069   5.164   2.075   5.106 -0.0176  0.4053 -0.0007
 2688TIP3    H1 8070   5.139   2.128   5.182  2.0614  0.8508  0.4516
 2688TIP3    H2 8071   5.086   2.024   5.085 -0.3756 -0.6354  3.2254
 2689TIP3   OH2 8072   0.283   5.422   4.109  0.2551 -0.5405 -0.2521
 2689TIP3    H1 8073   0.267   5.516   4.115  1.6681 -0.2976  0.0557
 2689TIP3    H2 8074   0.342   5.403   4.182 -1.4065 -2.0066  0.7703
 2690TIP3   OH2 8075   5.181   4.610   4.537  0.6134 -0.4376 -0.1186
 2690TIP3    H1 8076   5.234   4.539   4.574  0.2692 -0.8905 -0.4908
 2690TIP3    H2 8077   5.105   4.566   4.499  1.0977 -0.0082 -1.6262
 2691TIP3   OH2 8078   2.193   2.903   0.014 -0.2547 -0.5112 -0.0933
 2691TIP3    H1 8079   2.103   2.937   0.017 -0.5587 -1.2949 -0.1535
 2691TIP3    H2 8080   2.185   2.819  -0.029  0.3845 -0.9953  0.7093
 2692TIP3   OH2 8081   4.884   1.578   3.389  0.1140 -0.2926 -0.3451
 2692TIP3    H1 8082   4.809   1.561   3.333 -1.0779 -0.6214  1.2877
 2692TIP3    H2 8083   4.911   1.492   3.420  1.8331 -0.2911 -1.6613
 2693TIP3   OH2 8084   5.745   3.378   5.081 -0.1938  0.0486 -0.3923
 2693TIP3    H1 8085   5.650   3.367   5.076 -0.2153  0.0245 -0.0045
 2693TIP3    H2 8086   5.772   3.320   5.152  0.2155 -0.5241 -1.0009
 2694TIP3   OH2 8087   3.474   3.752   5.125  0.0631  0.6936  0.6710
 2694TIP3    H1 8088   3.420   3.683   5.166  0.5218 -0.4830 -0.6462
 2694TIP3    H2 8089   3.411   3.804   5.075 -0.1613  0.7027  0.9547
 2695TIP3   OH2 8090   4.404   1.653   3.591  0.2705  0.2291  0.2291
 2695TIP3    H1 8091   4.447   1.738   3.599  0.6577 -0.0795  1.7148
 2695TIP3    H2 8092   4.461   1.603   3.532  0.6668  0.6013  0.2919
 2696TIP3   OH2 8093   2.217   1.437   4.400  0.3932 -0.1769 -0.0122
 2696TIP3    H1 8094   2.309   1.422   4.379  0.9859 -0.2933  2.3963
 2696TIP3    H2 8095   2.201   1.384   4.477 -1.3253  0.8770  0.4137
 2697TIP3   OH2 8096   4.113   4.784   0.066 -0.1035 -0.1937 -0.2089
 2697TIP3    H1 8097   4.044   4.846   0.090 -0.6790 -0.2263 -1.7011
 2697TIP3    H2 8098   4.093   4.706   0.118 -1.7957 -0.5424 -1.2855
 2698TIP3   OH2 8099   2.375   5.911   1.733  0.3087 -0.1269  0.5863
 2698TIP3    H1 8100   2.406   5.972   1.666  0.9187  0.2902  1.2395
 2698TIP3    H2 8101   2.298   5.954   1.771  0.3018 -0.1066  0.5491
 2699TIP3   OH2 8102   4.023   2.530   4.624 -0.9575  0.0979 -0.1254
 2699TIP3    H1 8103   4.075   2.538   4.544  0.1053 -2.2755  0.2148
 2699TIP3    H2 8104   4.084   2.551   4.694 -1.7899  1.8227  0.1181
 2700TIP3   OH2 8105   0.090   3.608   0.813 -0.3896  0.3802  0.1423
 2700TIP3    H1 8106   0.105   3.641   0.901  1.3445  2.5444 -0.8600
 2700TIP3    H2 8107   0.051   3.682   0.766  0.2708 -0.1573 -1.3044
 2701TIP3   OH2 8108   1.991   5.919   4.249  0.0967 -0.1290 -0.4217
 2701TIP3    H1 8109   1.950   5.911   4.335 -0.3854  0.2890 -0.6065
 2701TIP3    H2 8110   2.059   5.985   4.260 -0.2908  0.2784 -0.4793
 2702TIP3   OH2 8111   2.129   5.195   3.405  0.0495  0.5115  0.2879
 2702TIP3    H1 8112   2.153   5.191   3.312  0.9945  1.1219  0.4865
 2702TIP3    H2 8113   2.033   5.191   3.405  0.0484  0.1706 -0.6913
 2703TIP3   OH2 8114   3.825   1.721   0.060 -0.1938  0.3755  0.1875
 2703TIP3    H1 8115   3.875   1.801   0.078 -0.0599  0.1659  0.7701
 2703TIP3    H2 8116   3.752   1.749   0.006  0.1635  0.8024 -0.0805
 2704TIP3   OH2 8117   2.528   4.817   3.425 -0.1651  0.3030 -0.7252
 2704TIP3    H1 8118   2.585   4.804   3.349  0.4298 -0.1707 -0.2120
 2704TIP3    H2 8119   2.543   4.908   3.451 -0.2928  0.4346 -1.1094
 2705TIP3   OH2 8120   4.883   5.735   2.229 -0.5196 -0.0382  0.0071
 2705TIP3    H1 8121   4.846   5.662   2.279  0.4451 -1.1086 -0.8119
 2705TIP3    H2 8122   4.951   5.696   2.175 -1.2685  1.1363 -1.8945
 2706TIP3   OH2 8123   4.710   4.642   0.462  0.3243  0.1016 -0.1480
 2706TIP3    H1 8124   4.651   4.695   0.408  1.0446  1.5252  0.3889
 2706TIP3    H2 8125   4.741   4.573   0.403 -1.1891 -0.1663 -0.6783
 2707TIP3   OH2 8126   6.251   5.057   3.273  0.1532  0.4181 -0.3152
 2707TIP3    H1 8127   6.191   5.075   3.200  0.0082  3.2889  0.3855
 2707TIP3    H2 8128   6.287   5.143   3.296  4.2796 -1.0770 -0.3945
 2708TIP3   OH2 8129   3.631   4.746   3.491 -0.0988  0.0916  0.3628
 2708TIP3    H1 8130   3.637   4.709   3.579 -0.3538  2.0045  1.2212
 2708TIP3    H2 8131   3.701   4.811   3.486  1.0762 -1.2002 -1.5205
 2709TIP3   OH2 8132   2.207   4.368   2.020 -0.2051  0.2487  0.3086
 2709TIP3    H1 8133   2.201   4.389   1.927 -1.7397  0.8283  0.5140
 2709TIP3    H2 8134   2.149   4.293   2.031 -1.2457  1.1477  1.0665
 2710TIP3   OH2 8135   4.726   4.034   3.089 -0.3622  0.1427  0.9115
 2710TIP3    H1 8136   4.809   4.077   3.110 -0.1919  0.4932 -0.3946
 2710TIP3    H2 8137   4.665   4.066   3.156  0.0736  1.4290  0.7328
 2711TIP3   OH2 8138   0.934   1.005   1.505 -0.3851  0.0879  0.3359
 2711TIP3    H1 8139   0.963   0.962   1.425 -0.3991 -1.9218  1.3601
 2711TIP3    H2 8140   0.907   1.093   1.476  2.4023  0.5018 -1.3611
 2712TIP3   OH2 8141   5.496   1.734   3.603  0.5523 -0.3854  0.0600
 2712TIP3    H1 8142   5.400   1.726   3.604  0.5739 -0.7738  1.5927
 2712TIP3    H2 8143   5.515   1.775   3.519 -0.9331 -0.6249 -0.4340
 2713TIP3   OH2 8144   6.180   2.345   0.544  0.1777  0.6930  0.1909
 2713TIP3    H1 8145   6.154   2.293   0.620  0.4755 -0.8972 -0.7445
 2713TIP3    H2 8146   6.188   2.281   0.473 -0.8888  2.2247 -1.3888
 2714TIP3   OH2 8147   4.578   0.044   4.043  0.0691 -0.2237  0.1430
 2714TIP3    H1 8148   4.517   0.016   3.975  2.5368 -3.3189 -1.0237
 2714TIP3    H2 8149   4.611   0.128   4.012 -3.8202  1.9271  1.1388
 2715TIP3   OH2 8150   3.263   4.901   4.776 -0.0016  0.0647 -0.0407
 2715TIP3    H1 8151   3.312   4.860   4.848 -0.9511 -3.2433 -1.1039
 2715TIP3    H2 8152   3.320   4.892   4.700 -0.2075  0.8529 -0.2956
 2716TIP3   OH2 8153   3.353   5.265   2.446  0.0184  0.4026  0.2856
 2716TIP3    H1 8154   3.416   5.338   2.448 -0.4031  0.9313 -2.3728
 2716TIP3    H2 8155   3.407   5.188   2.430  0.3627  0.1935  2.1698
 2717TIP3   OH2 8156   0.388   4.974   0.813  0.2549 -0.5437 -0.2970
 2717TIP3    H1 8157   0.353   4.926   0.888 -0.7809 -0.4210 -0.6781
 2717TIP3    H2 8158   0.410   4.907   0.749  1.6541 -0.6840  0.3105
 2718TIP3   OH2 8159   5.404   1.100   2.396  0.1303 -0.2109  0.2798
 2718TIP3    H1 8160   5.364   1.013   2.394 -0.7609  0.1881  0.2882
 2718TIP3    H2 8161   5.350   1.150   2.457 -0.7732  1.0051 -1.4175
 2719TIP3   OH2 8162   5.112   1.241   0.340 -0.1412  0.3090 -0.0128
 2719TIP3    H1 8163   5.080   1.251   0.251 -1.1778  0.4299  0.3611
 2719TIP3    H2 8164   5.193   1.190   0.331 -1.2433 -1.3795 -0.8558
 2720TIP3   OH2 8165   5.172   1.952   0.320 -0.1317 -0.0735  0.3169
 2720TIP3    H1 8166   5.217   1.961   0.404 -1.1963 -1.0110  1.0248
 2720TIP3    H2 8167   5.200   1.867   0.286 -0.8150 -0.3624  0.4477
 2721TIP3   OH2 8168   4.715   2.244   4.132  0.2019  0.4763  0.7413
 2721TIP3    H1 8169   4.644   2.253   4.070  0.6766  1.4068  0.3048
 2721TIP3    H2 8170   4.790   2.286   4.089  0.0441  3.0833  2.7082
 2722TIP3   OH2 8171   2.037   5.871   2.328 -0.4814 -0.0628  0.4494
 2722TIP3    H1 8172   1.997   5.919   2.400 -1.4545  0.8127 -0.6405
 2722TIP3    H2 8173   1.963   5.832   2.281  0.0418  0.3392 -0.7361
 2723TIP3   OH2 8174   0.776   0.073   4.678 -0.4015 -0.4640  0.1064
 2723TIP3    H1 8175   0.836   0.008   4.713  0.1000 -0.6621 -1.1181
 2723TIP3    H2 8176   0.724   0.100   4.755 -1.4616 -3.1462  0.4644
 2724TIP3   OH2 8177   1.425   0.116   1.638  0.5382  0.3460 -0.0838
 2724TIP3    H1 8178   1.361   0.187   1.642 -0.6639 -0.6245 -1.1279
 2724TIP3    H2 8179   1.374   0.039   1.615  1.6529 -1.1058  1.9660
 2725TIP3   OH2 8180   5.171   0.734   1.872  0.4361  0.0053  0.5655
 2725TIP3    H1 8181   5.187   0.672   1.801 -1.9514  1.1955 -1.1721
 2725TIP3    H2 8182   5.098   0.696   1.921 -3.0507  2.4431 -2.2112
 2726TIP3   OH2 8183   1.835   1.378   2.787  0.3253 -0.2761 -0.0602
 2726TIP3    H1 8184   1.914   1.328   2.808 -0.2368 -1.0279  0.2953
 2726TIP3    H2 8185   1.781   1.372   2.865  0.0457  0.5172 -0.1794
 2727TIP3   OH2 8186   0.671   3.938   0.745 -0.0100  0.6064  0.2521
 2727TIP3    H1 8187   0.700   3.867   0.689  0.8049  0.0055  1.3804
 2727TIP3    H2 8188   0.723   4.013   0.717 -0.8284  0.7673 -0.9003
 2728TIP3   OH2 8189   1.568   5.583   2.131 -0.3169 -0.0772  0.3114
 2728TIP3    H1 8190   1.608   5.606   2.047  0.1340 -0.6901  0.3480
 2728TIP3    H2 8191   1.580   5.660   2.186  0.8402 -0.2425  0.3254
 2729TIP3   OH2 8192   1.187   2.009   4.213  0.5273 -0.5062  0.2310
 2729TIP3    H1 8193   1.260   2.006   4.150 -0.9393  0.0729 -1.6108
 2729TIP3    H2 8194   1.228   2.003   4.299  2.6467 -1.3091 -0.7776
 2730TIP3   OH2 8195   0.167   0.428   3.024 -0.6289  0.3795  0.1298
 2730TIP3    H1 8196   0.159   0.456   3.115  0.6136  1.1623  0.0281
 2730TIP3    H2 8197   0.100   0.360   3.013 -2.1302  1.6490  1.0653
 2731TIP3   OH2 8198   5.803   5.836   0.718 -0.1115 -0.1417 -0.3322
 2731TIP3    H1 8199   5.802   5.782   0.797  0.6083 -0.3192 -0.4384
 2731TIP3    H2 8200   5.869   5.903   0.735  2.0539 -1.7750 -1.7944
 2732TIP3   OH2 8201   0.599   3.336   2.392  0.0879 -0.0571 -0.4604
 2732TIP3    H1 8202   0.645   3.352   2.475  0.9383 -1.2365 -0.6898
 2732TIP3    H2 8203   0.636   3.400   2.332 -0.6891  0.9562  0.1056
 2733TIP3   OH2 8204   5.366   1.723   2.050  0.1793  0.1523  0.2814
 2733TIP3    H1 8205   5.380   1.744   1.957 -0.4639  0.9388  0.3442
 2733TIP3    H2 8206   5.288   1.668   2.050 -0.0191  0.4297  0.3747
 2734TIP3   OH2 8207   3.014   0.969   1.007  0.5135 -0.0240  0.3857
 2734TIP3    H1 8208   2.998   0.991   0.916 -0.3814  0.8748  0.7480
 2734TIP3    H2 8209   3.093   1.017   1.030 -0.9607  2.2885  0.9329
 2735TIP3   OH2 8210   0.282   5.819   1.183 -0.5200  0.7939  0.0494
 2735TIP3    H1 8211   0.268   5.740   1.236 -2.7880  0.2723 -1.2211
 2735TIP3    H2 8212   0.222   5.884   1.220 -1.2529  0.7972 -1.1107
 2736TIP3   OH2 8213   0.911   2.507   3.757 -0.5552 -0.2138  0.2445
 2736TIP3    H1 8214   0.916   2.587   3.705  2.1501 -0.4177  0.0368
 2736TIP3    H2 8215   0.953   2.531   3.840  0.3302 -1.3995  0.1619
 2737TIP3   OH2 8216   2.601   1.391   3.552 -0.3766  0.1782  0.1012
 2737TIP3    H1 8217   2.659   1.317   3.574 -0.1868  0.6713  1.3403
 2737TIP3    H2 8218   2.622   1.458   3.618 -1.4165  0.8709 -0.2552
 2738TIP3   OH2 8219   1.234   2.681   2.916  0.1166  0.2223  0.0375
 2738TIP3    H1 8220   1.183   2.754   2.952 -0.5195  0.1982 -0.7960
 2738TIP3    H2 8221   1.319   2.687   2.961  0.6010  2.3562 -1.0433
 2739TIP3   OH2 8222   2.629   0.467  -0.020  0.3016  0.0449 -0.3837
 2739TIP3    H1 8223   2.595   0.556  -0.010 -1.1707 -0.5909  0.6438
 2739TIP3    H2 8224   2.663   0.444   0.066 -0.4049 -0.7852 -0.3083
 2740TIP3   OH2 8225   3.362   1.451   2.425 -0.1283  0.2459  0.0254
 2740TIP3    H1 8226   3.318   1.526   2.385  0.2292 -0.6805 -2.3178
 2740TIP3    H2 8227   3.324   1.375   2.381  0.1034 -0.9173  1.7510
 2741TIP3   OH2 8228   2.722   3.017   5.055 -0.5311 -0.1085  0.1064
 2741TIP3    H1 8229   2.788   2.952   5.079 -0.7970  0.0186  1.2531
 2741TIP3    H2 8230   2.761   3.065   4.982  0.0182 -1.0040 -0.1975
 2742TIP3   OH2 8231   2.193   3.027   1.621 -0.5040  0.3397 -0.1618
 2742TIP3    H1 8232   2.255   2.967   1.580  1.6359  1.7989  0.7314
 2742TIP3    H2 8233   2.151   3.072   1.548  0.8385  0.5876 -0.8067
 2743TIP3   OH2 8234   2.390   2.658   0.353 -0.2239 -0.2193 -0.0937
 2743TIP3    H1 8235   2.387   2.651   0.257 -0.3578 -0.1550 -0.0948
 2743TIP3    H2 8236   2.424   2.574   0.382  1.2557  0.2866 -0.2832
 2744TIP3   OH2 8237   3.813   5.872   3.354  0.0880 -0.3590 -0.4322
 2744TIP3    H1 8238   3.892   5.884   3.303 -0.6087 -0.2793 -1.5266
 2744TIP3    H2 8239   3.746   5.849   3.290 -0.8700 -0.0241  0.4142
 2745TIP3   OH2 8240   3.256   1.113   3.338 -0.7160  0.4339 -0.0917
 2745TIP3    H1 8241   3.309   1.034   3.346 -1.1274  0.1661  0.0355
 2745TIP3    H2 8242   3.259   1.154   3.424 -0.4615  0.5850 -0.1717
 2746TIP3   OH2 8243   2.343   2.325   5.072  0.1167 -0.2092  0.4428
 2746TIP3    H1 8244   2.346   2.271   4.993 -0.1294 -1.4393  1.2502
 2746TIP3    H2 8245   2.427   2.372   5.071  1.6447 -2.7204  1.1238
 2747TIP3   OH2 8246   5.083   5.182   3.248  0.1688  0.2779  0.3700
 2747TIP3    H1 8247   5.060   5.106   3.194  2.6777  1.0990 -2.0655
 2747TIP3    H2 8248   5.063   5.154   3.338  0.6955 -3.1609 -0.4469
 2748TIP3   OH2 8249   1.851   1.834   4.923  0.3098 -0.5094  0.3629
 2748TIP3    H1 8250   1.780   1.881   4.966  0.7061  0.7573 -0.2935
 2748TIP3    H2 8251   1.836   1.742   4.943  0.2507 -0.0257  2.8582
 2749TIP3   OH2 8252   1.716   4.375   2.916 -0.4333 -0.1524 -0.3413
 2749TIP3    H1 8253   1.755   4.288   2.905 -1.0205 -0.5909  0.8077
 2749TIP3    H2 8254   1.642   4.376   2.856  0.7129  0.3072 -1.7927
 2750TIP3   OH2 8255   6.010   4.304   5.151 -0.0928  0.3286  0.7754
 2750TIP3    H1 8256   5.955   4.364   5.101  0.1977  0.4621  0.6218
 2750TIP3    H2 8257   6.089   4.353   5.170  0.1268  0.0110  0.6880
 2751TIP3   OH2 8258   1.480   2.544   3.959  0.9243  0.0649  0.0122
 2751TIP3    H1 8259   1.409   2.528   4.021 -0.2382  0.1219 -1.2509
 2751TIP3    H2 8260   1.560   2.545   4.013  0.0635 -0.7999  1.3604
 2752TIP3   OH2 8261   1.173   2.043   5.085 -0.7474 -0.0055  0.2766
 2752TIP3    H1 8262   1.166   2.138   5.071  0.0363  0.1705  1.0214
 2752TIP3    H2 8263   1.162   2.032   5.179 -0.7791 -0.6536  0.1975
 2753TIP3   OH2 8264   2.050   4.492   2.925  0.0013 -0.4700 -0.2160
 2753TIP3    H1 8265   2.125   4.434   2.911  0.6182  0.3422 -0.3644
 2753TIP3    H2 8266   2.062   4.525   3.014  0.1165  0.0613 -0.4224
 2754TIP3   OH2 8267   0.174   5.947   2.676  0.3029  0.2091 -0.4058
 2754TIP3    H1 8268   0.179   6.018   2.740  0.3232 -0.2065  0.0620
 2754TIP3    H2 8269   0.090   5.905   2.693  1.0029 -0.9237  0.4696
 2755TIP3   OH2 8270   4.543   1.426   3.509 -0.0944 -0.0446 -0.2803
 2755TIP3    H1 8271   4.588   1.351   3.548  0.9992  0.1583 -1.1027
 2755TIP3    H2 8272   4.580   1.432   3.421 -0.2757  1.3646 -0.2738
 2756TIP3   OH2 8273   2.384   5.000   3.199 -0.0689  0.0148  0.0642
 2756TIP3    H1 8274   2.351   4.936   3.263  0.9323 -0.1910  0.3843
 2756TIP3    H2 8275   2.328   4.987   3.122  0.4352 -1.6242 -0.0682
 2757TIP3   OH2 8276   4.974   1.502   2.410  0.1750 -0.7564 -0.3049
 2757TIP3    H1 8277   4.972   1.435   2.342  0.1438 -0.7403 -0.3194
 2757TIP3    H2 8278   4.884   1.506   2.442  0.1918 -0.7730 -0.2540
 2758TIP3   OH2 8279   5.628   0.166   0.629 -0.0896 -0.2609 -0.3777
 2758TIP3    H1 8280   5.703   0.119   0.665 -0.9328 -0.2195  1.5334
 2758TIP3    H2 8281   5.566   0.097   0.606 -0.4092 -0.1943  0.2758
 2759TIP3   OH2 8282   5.759   3.072   1.279 -0.4068  0.1776 -0.5549
 2759TIP3    H1 8283   5.745   3.164   1.257  0.7320  0.4461 -0.2164
 2759TIP3    H2 8284   5.770   3.071   1.374  1.4057 -0.0268 -0.7291
 2760TIP3   OH2 8285   5.405   4.209   0.610  0.1633 -0.2028 -0.1237
 2760TIP3    H1 8286   5.467   4.138   0.592  1.7424  1.3147 -0.9632
 2760TIP3    H2 8287   5.423   4.235   0.700  2.2098  1.5006 -0.9368
 2761TIP3   OH2 8288   5.448   1.801   4.491  0.2918 -0.2986  0.1022
 2761TIP3    H1 8289   5.529   1.754   4.471  0.2812 -0.3006  0.0638
 2761TIP3    H2 8290   5.468   1.850   4.571  0.5419  0.2082 -0.2637
 2762TIP3   OH2 8291   6.082   0.860   4.280  0.0336  0.1322 -0.1763
 2762TIP3    H1 8292   6.166   0.853   4.235 -0.7706 -0.8377 -1.5594
 2762TIP3    H2 8293   6.074   0.778   4.328 -0.3821 -0.0078 -0.4894
 2763TIP3   OH2 8294   4.038   2.701   3.689  0.1446  0.1612  0.8541
 2763TIP3    H1 8295   3.958   2.730   3.734 -0.4736  0.2525 -0.2729
 2763TIP3    H2 8296   4.013   2.620   3.645  0.7541  0.0511  0.7049
 2764TIP3   OH2 8297   4.857   0.119   0.602  0.1142  0.1620  0.2533
 2764TIP3    H1 8298   4.792   0.128   0.672 -0.6822  0.8054 -0.5483
 2764TIP3    H2 8299   4.859   0.204   0.560  1.1177 -0.0076 -0.0585
 2765TIP3   OH2 8300   5.254   4.861   0.290  0.0366 -0.0909  0.0916
 2765TIP3    H1 8301   5.303   4.845   0.371  1.4319  1.5114 -0.3766
 2765TIP3    H2 8302   5.202   4.939   0.309 -1.3075 -0.9593  0.1084
 2766TIP3   OH2 8303   5.244   2.815   3.428 -0.3428  0.7993  0.3954
 2766TIP3    H1 8304   5.327   2.863   3.421 -0.1347  0.2950 -0.8468
 2766TIP3    H2 8305   5.215   2.831   3.518  1.2877  0.6701  0.9821
 2767TIP3   OH2 8306   5.167   3.608   3.514  0.5204  0.1358  0.1098
 2767TIP3    H1 8307   5.169   3.551   3.591 -1.4776 -0.8030 -0.4776
 2767TIP3    H2 8308   5.248   3.659   3.520  1.7961 -1.9010  1.3112
 2768TIP3   OH2 8309   2.241   3.524   1.787  0.2715  0.0377  0.1436
 2768TIP3    H1 8310   2.335   3.509   1.792  0.5667  1.7615  0.3996
 2768TIP3    H2 8311   2.209   3.455   1.729  1.7371 -0.3607 -0.2394
 2769TIP3   OH2 8312   4.463   3.974   3.019  0.2600 -0.1162 -0.2218
 2769TIP3    H1 8313   4.440   3.985   3.112  0.4116 -0.1522 -0.1804
 2769TIP3    H2 8314   4.558   3.979   3.017  0.1910  1.6086 -0.6019
 2770TIP3   OH2 8315   2.884   4.886   2.108  0.3530 -0.1953 -0.0411
 2770TIP3    H1 8316   2.946   4.924   2.044  0.1800 -0.1970 -0.2112
 2770TIP3    H2 8317   2.838   4.962   2.144 -0.8961 -0.3180 -1.3134
 2771TIP3   OH2 8318   3.458   3.459   5.035  0.1583  0.3343 -0.5588
 2771TIP3    H1 8319   3.530   3.511   5.070  0.9560 -0.8837 -0.3274
 2771TIP3    H2 8320   3.434   3.399   5.106 -0.4565  0.1042 -0.9527
 2772TIP3   OH2 8321   3.442   4.593   3.358 -0.4922  0.0596 -0.2232
 2772TIP3    H1 8322   3.348   4.606   3.369 -0.8275  0.7077 -2.9258
 2772TIP3    H2 8323   3.483   4.658   3.415 -1.6813  0.0464  0.6713
 2773TIP3   OH2 8324   1.476   5.110   5.066 -0.3414 -0.1674 -0.2706
 2773TIP3    H1 8325   1.545   5.090   5.130 -0.7238  2.3249  1.0739
 2773TIP3    H2 8326   1.517   5.171   5.005 -1.2458  1.2069  0.4424
 2774TIP3   OH2 8327   3.733   1.279   1.482  0.3194 -0.4006  0.0423
 2774TIP3    H1 8328   3.736   1.189   1.450 -1.1696 -0.1839 -0.8063
 2774TIP3    H2 8329   3.737   1.333   1.403 -3.3089  0.1470  0.0767
 2775TIP3   OH2 8330   1.736   2.252   2.026 -0.3107  0.4268  0.1682
 2775TIP3    H1 8331   1.762   2.261   2.118  0.6003  0.7233 -0.1098
 2775TIP3    H2 8332   1.650   2.211   2.030 -0.0039 -0.1638  1.1407
 2776TIP3   OH2 8333   3.940   0.186   2.381  0.9375  0.0338 -0.1410
 2776TIP3    H1 8334   3.957   0.161   2.471  2.2345  2.8105  0.4983
 2776TIP3    H2 8335   3.961   0.280   2.377  2.7719 -0.3150 -3.7209
 2777TIP3   OH2 8336   2.696   4.859   1.392  0.4399  0.1161  0.1883
 2777TIP3    H1 8337   2.732   4.777   1.426  0.2112 -0.2397 -0.4337
 2777TIP3    H2 8338   2.737   4.927   1.446 -0.1168 -0.4535  1.3642
 2778TIP3   OH2 8339   2.778   4.643   0.800  0.2754 -0.8337 -0.3333
 2778TIP3    H1 8340   2.795   4.619   0.891  0.8977 -0.7783 -0.4329
 2778TIP3    H2 8341   2.725   4.723   0.806  2.3113  0.5763  0.0072
 2779TIP3   OH2 8342   6.203   0.914   0.411 -0.3037  0.2255  0.5964
 2779TIP3    H1 8343   6.210   0.820   0.394 -0.3667  0.5751 -1.8292
 2779TIP3    H2 8344   6.109   0.928   0.428 -0.1639 -0.2385  1.8370
 2780TIP3   OH2 8345   4.579   5.417   2.056 -0.2016  0.1081 -0.3394
 2780TIP3    H1 8346   4.668   5.427   2.022  0.0645  1.2391  0.6267
 2780TIP3    H2 8347   4.587   5.352   2.125  0.3403  1.7348  1.2118
 2781TIP3   OH2 8348   2.768   1.303   3.899 -0.0441  0.5205 -0.3071
 2781TIP3    H1 8349   2.808   1.282   3.814 -0.8540 -1.2113 -0.3017
 2781TIP3    H2 8350   2.674   1.300   3.882 -0.2089  0.5144  0.5762
 2782TIP3   OH2 8351   4.746   1.069   1.567 -0.1855 -0.1881 -0.7760
 2782TIP3    H1 8352   4.811   1.007   1.599 -1.9540 -1.2673  0.9329
 2782TIP3    H2 8353   4.789   1.154   1.570  0.6262 -0.6097  2.0164
 2783TIP3   OH2 8354   2.081   0.663   3.709 -0.4338  0.0241 -0.6477
 2783TIP3    H1 8355   2.151   0.720   3.678 -0.1027 -0.0753 -0.1034
 2783TIP3    H2 8356   2.026   0.647   3.632  2.1343 -2.9414 -2.0947
 2784TIP3   OH2 8357   4.189   5.201   3.995  0.0954 -0.3425  0.1771
 2784TIP3    H1 8358   4.098   5.208   4.022  0.1909  1.0447  0.1861
 2784TIP3    H2 8359   4.201   5.108   3.977 -0.8878 -0.8089  1.6769
 2785TIP3   OH2 8360   2.638   2.786   0.179 -0.2743 -0.0838 -0.0320
 2785TIP3    H1 8361   2.575   2.714   0.170 -0.4927 -0.0926  1.4111
 2785TIP3    H2 8362   2.724   2.743   0.178 -0.4004 -0.3689  0.7301
 2786TIP3   OH2 8363   3.767   0.310   0.752  0.3288  0.2439 -0.3778
 2786TIP3    H1 8364   3.747   0.219   0.732  2.0324 -0.1840 -0.2784
 2786TIP3    H2 8365   3.859   0.321   0.728  0.5560  1.5395  0.8889
 2787TIP3   OH2 8366   1.124   4.402   0.401  0.0125  0.5715  0.0369
 2787TIP3    H1 8367   1.063   4.352   0.347  1.4666 -0.4683 -0.7186
 2787TIP3    H2 8368   1.111   4.493   0.374 -0.6148  0.2714 -0.7064
 2788TIP3   OH2 8369   0.656   0.199   1.006 -0.2312 -0.4484 -0.0104
 2788TIP3    H1 8370   0.691   0.110   1.015  1.5113  0.1051 -0.8294
 2788TIP3    H2 8371   0.685   0.228   0.919  0.3834  1.3690  0.7396
 2789TIP3   OH2 8372   3.986   3.821   4.751 -0.6622 -0.1735 -0.4003
 2789TIP3    H1 8373   3.895   3.794   4.760 -0.2247 -2.1463 -1.2969
 2789TIP3    H2 8374   4.016   3.778   4.671  0.8696  1.0365 -0.5354
 2790TIP3   OH2 8375   4.175   3.006   2.681  0.0240  0.1305  0.1523
 2790TIP3    H1 8376   4.169   2.971   2.592  0.0080 -1.2907  0.6843
 2790TIP3    H2 8377   4.256   2.968   2.716 -0.5417 -0.2232  1.1081
 2791TIP3   OH2 8378   4.043   3.880   0.154 -0.2526  0.4374 -0.2531
 2791TIP3    H1 8379   4.088   3.807   0.198 -1.9693  0.3403  1.4738
 2791TIP3    H2 8380   4.111   3.920   0.099  0.9653 -1.8900 -0.5718
 2792TIP3   OH2 8381   6.277   1.572   2.416 -0.2385  0.4269 -0.6301
 2792TIP3    H1 8382   6.349   1.569   2.354  0.2496 -1.5661 -0.0309
 2792TIP3    H2 8383   6.319   1.576   2.502 -0.8955  1.9005 -0.3346
 2793TIP3   OH2 8384   4.192   4.709   1.157 -0.6629  0.2325 -0.2027
 2793TIP3    H1 8385   4.115   4.695   1.212 -1.6714 -1.0199 -1.8462
 2793TIP3    H2 8386   4.259   4.653   1.195 -1.0096  0.1792  0.3459
 2794TIP3   OH2 8387   1.573   1.527   1.825 -0.0271  0.0900  0.0868
 2794TIP3    H1 8388   1.547   1.611   1.789  0.4209 -0.1001 -0.6944
 2794TIP3    H2 8389   1.634   1.491   1.762 -0.6136 -1.0628  0.1385
 2795TIP3   OH2 8390   5.363   1.798   4.934 -0.8241  0.3482 -0.3033
 2795TIP3    H1 8391   5.388   1.840   4.851 -2.2719  1.5456 -0.1832
 2795TIP3    H2 8392   5.270   1.818   4.944 -0.5451  0.8829  1.9583
 2796TIP3   OH2 8393   2.462   5.811   0.856  0.1537  0.2904  0.6974
 2796TIP3    H1 8394   2.462   5.734   0.912 -0.2276 -0.7157 -0.6450
 2796TIP3    H2 8395   2.370   5.836   0.849  0.0989 -0.1177 -0.1621
 2797TIP3   OH2 8396   0.257   3.615   2.377  0.3627  0.6523 -0.2649
 2797TIP3    H1 8397   0.200   3.564   2.320 -0.5682 -0.3837  1.4817
 2797TIP3    H2 8398   0.345   3.580   2.361  0.0284 -0.0397 -0.6283
 2798TIP3   OH2 8399   0.562   5.874   1.254 -0.1957  0.2843 -0.3825
 2798TIP3    H1 8400   0.626   5.828   1.200 -0.9394 -3.0860  1.3691
 2798TIP3    H2 8401   0.477   5.841   1.224 -0.6767 -0.7376  1.9142
 2799TIP3   OH2 8402   4.474   3.563   3.803  0.3893 -0.3098 -0.3668
 2799TIP3    H1 8403   4.476   3.480   3.756 -1.5848 -0.6553  0.0889
 2799TIP3    H2 8404   4.509   3.627   3.740 -0.0242 -1.1415 -1.4809
 2800TIP3   OH2 8405   0.943   5.859   2.017  0.2762  0.0524 -0.1081
 2800TIP3    H1 8406   1.023   5.815   2.047  0.3131  0.0681 -0.1821
 2800TIP3    H2 8407   0.974   5.941   1.979  0.0884  0.8112  1.3038
 2801TIP3   OH2 8408   3.971   3.912   4.416 -0.1826 -0.2356  0.2040
 2801TIP3    H1 8409   3.948   3.969   4.489 -0.5172  0.2769 -0.2974
 2801TIP3    H2 8410   3.907   3.841   4.419 -0.5980  0.1295  0.0190
 2802TIP3   OH2 8411   6.067   5.416   0.988 -0.2985  0.3928  0.1358
 2802TIP3    H1 8412   6.023   5.498   0.966  0.5083  0.1127 -2.9364
 2802TIP3    H2 8413   5.995   5.354   1.006 -0.9284  1.3859  1.2065
 2803TIP3   OH2 8414   5.592   0.770   1.704  0.2950  0.3933 -0.7174
 2803TIP3    H1 8415   5.566   0.856   1.672 -0.6353  0.1575 -0.6205
 2803TIP3    H2 8416   5.511   0.718   1.703  0.0870  0.4835  2.4487
 2804TIP3   OH2 8417   5.593   0.260   1.658 -0.1687  0.8020 -0.3097
 2804TIP3    H1 8418   5.683   0.292   1.655  0.0405  0.2643  0.1520
 2804TIP3    H2 8419   5.600   0.165   1.648 -0.6902  0.7593 -0.3272
 2805TIP3   OH2 8420   5.878   5.818   1.657 -0.0059 -0.2850 -0.3020
 2805TIP3    H1 8421   5.891   5.811   1.562 -0.1123  0.8541 -0.4174
 2805TIP3    H2 8422   5.965   5.801   1.694 -0.1013 -1.3816 -0.5564
 2806TIP3   OH2 8423   1.471   0.812   4.452 -0.2353 -0.1944 -0.0491
 2806TIP3    H1 8424   1.447   0.830   4.543 -1.7006  0.2929 -0.4952
 2806TIP3    H2 8425   1.515   0.892   4.423 -0.0706 -0.2196  0.1270
 2807TIP3   OH2 8426   3.538   0.137   3.536 -0.0716  0.7969 -0.2590
 2807TIP3    H1 8427   3.548   0.163   3.628  1.4150  0.0690 -0.1933
 2807TIP3    H2 8428   3.503   0.048   3.540  2.4834 -0.2839 -0.2939
 2808TIP3   OH2 8429   6.179   4.127   4.269 -0.0298  0.8473  0.2576
 2808TIP3    H1 8430   6.214   4.039   4.281 -1.7755  0.4120  3.1028
 2808TIP3    H2 8431   6.109   4.117   4.204  0.8326  0.4917 -0.6385
 2809TIP3   OH2 8432   5.309   1.535   0.056 -0.3811  0.0325 -0.1262
 2809TIP3    H1 8433   5.377   1.469   0.043  0.7838  0.9850  0.8849
 2809TIP3    H2 8434   5.252   1.526  -0.020  0.7569 -0.9324 -0.8985
 2810TIP3   OH2 8435   2.294   1.387   4.931  0.1262 -0.3007 -0.0656
 2810TIP3    H1 8436   2.333   1.300   4.930 -0.3900 -0.5354 -0.8768
 2810TIP3    H2 8437   2.239   1.388   5.009  2.9992  0.6457  2.1470
 2811TIP3   OH2 8438   1.240   3.711   0.918 -0.0991  0.2990 -0.4684
 2811TIP3    H1 8439   1.335   3.714   0.927 -0.0821 -0.7228 -0.2960
 2811TIP3    H2 8440   1.225   3.707   0.823  0.0847 -0.9707 -0.4596
 2812TIP3   OH2 8441   3.233   5.087   4.490 -0.3797  0.0623 -0.5926
 2812TIP3    H1 8442   3.237   5.148   4.564 -1.2796 -1.1288  0.5059
 2812TIP3    H2 8443   3.275   5.133   4.418  0.5711  1.2611  0.6749
 2813TIP3   OH2 8444   3.683   5.578   3.081 -0.2057 -0.0899  0.2744
 2813TIP3    H1 8445   3.613   5.515   3.063 -1.1505  1.2826 -1.0163
 2813TIP3    H2 8446   3.740   5.532   3.143 -1.1486 -2.0003 -0.1901
 2814TIP3   OH2 8447   1.163   2.504   3.431  0.0078 -0.2791  0.0243
 2814TIP3    H1 8448   1.122   2.578   3.386 -1.1018 -1.2785 -0.6920
 2814TIP3    H2 8449   1.089   2.448   3.456  0.7885 -0.8896  1.0149
 2815TIP3   OH2 8450   1.362   0.375   3.779 -0.2651 -0.3949 -0.0969
 2815TIP3    H1 8451   1.456   0.361   3.782 -0.0901  0.7803  0.7836
 2815TIP3    H2 8452   1.352   0.466   3.750 -1.0334  0.1442  1.6883
 2816TIP3   OH2 8453   2.830   1.384   0.759 -0.1494  0.0293  0.0957
 2816TIP3    H1 8454   2.906   1.381   0.817  1.1982 -1.1842 -1.6582
 2816TIP3    H2 8455   2.800   1.475   0.765  2.0561  0.8271  0.0591
 2817TIP3   OH2 8456   2.889   5.612   0.049  0.8473 -0.9291 -0.4778
 2817TIP3    H1 8457   2.795   5.610   0.028  0.2964 -1.5154  1.8308
 2817TIP3    H2 8458   2.906   5.704   0.071  0.6437 -0.9514 -0.2193
 2818TIP3   OH2 8459   6.267   1.321   2.246 -0.7800 -0.3187 -0.0388
 2818TIP3    H1 8460   6.313   1.267   2.311 -0.7706 -0.7265 -0.3777
 2818TIP3    H2 8461   6.259   1.407   2.288  1.3510  0.1195 -0.4256
 2819TIP3   OH2 8462   0.754   3.782   4.127  0.0140 -0.4768  0.1045
 2819TIP3    H1 8463   0.781   3.857   4.180 -1.1635 -0.0189  0.0917
 2819TIP3    H2 8464   0.836   3.744   4.096  0.6889 -0.0577  1.2935
 2820TIP3   OH2 8465   5.174   4.826   1.981  0.5969 -0.4018 -0.0928
 2820TIP3    H1 8466   5.171   4.917   1.952 -1.0844 -0.2122  0.5788
 2820TIP3    H2 8467   5.195   4.776   1.902  0.1068  0.4371 -0.7703
 2821TIP3   OH2 8468   4.600   5.827   2.363  0.2865  0.2997  0.2453
 2821TIP3    H1 8469   4.631   5.907   2.406  0.5559  0.1800  0.2766
 2821TIP3    H2 8470   4.514   5.811   2.401  0.3287  0.4500  0.4067
 2822TIP3   OH2 8471   1.691   5.795   2.918  0.1109 -0.0500 -0.3586
 2822TIP3    H1 8472   1.689   5.890   2.917 -1.4488  0.0909  2.8578
 2822TIP3    H2 8473   1.766   5.772   2.973 -0.3053 -0.6041 -0.0022
 2823TIP3   OH2 8474   1.746   4.326   0.617  0.4091 -0.0706 -0.7116
 2823TIP3    H1 8475   1.711   4.409   0.586  1.0136  0.7927  0.8422
 2823TIP3    H2 8476   1.787   4.346   0.701 -1.4401 -2.3623  0.8848
 2824TIP3   OH2 8477   3.898   2.413   2.006 -0.1926 -0.0212 -0.1652
 2824TIP3    H1 8478   3.864   2.362   2.079 -0.7974  0.8145  0.1397
 2824TIP3    H2 8479   3.935   2.492   2.046 -0.6457  0.5038 -0.7692
 2825TIP3   OH2 8480   5.944   1.820   5.201 -0.2831 -0.2411  0.0631
 2825TIP3    H1 8481   5.905   1.901   5.167  0.6349 -0.9976 -3.1565
 2825TIP3    H2 8482   5.887   1.751   5.168  1.5672 -1.1159 -1.5184
 2826TIP3   OH2 8483   2.988   3.889   3.814  0.7059  0.1847 -0.3041
 2826TIP3    H1 8484   2.917   3.827   3.796  0.1442  1.1053 -1.4219
 2826TIP3    H2 8485   3.067   3.835   3.817  0.1795 -0.6459 -0.8842
 2827TIP3   OH2 8486   0.248   1.864   4.672 -0.3320 -0.2359 -0.1172
 2827TIP3    H1 8487   0.334   1.847   4.709 -0.2154  0.5749  0.0111
 2827TIP3    H2 8488   0.236   1.958   4.682 -0.8417 -0.1942 -0.9774
 2828TIP3   OH2 8489   6.193   3.466   3.056  0.0861  0.2664  0.4098
 2828TIP3    H1 8490   6.181   3.377   3.024  2.6623  0.5300 -1.6484
 2828TIP3    H2 8491   6.267   3.460   3.117  0.1225  0.9716  0.4442
 2829TIP3   OH2 8492   4.718   3.336   3.873  0.2923 -0.1830  0.5143
 2829TIP3    H1 8493   4.753   3.309   3.958 -0.7018 -0.0008  0.9953
 2829TIP3    H2 8494   4.719   3.256   3.820  0.4503 -0.4139  0.8608
 2830TIP3   OH2 8495   3.603   5.632   2.794 -0.2514 -0.0165  0.0926
 2830TIP3    H1 8496   3.604   5.718   2.835 -1.0730 -0.4726  1.1216
 2830TIP3    H2 8497   3.555   5.576   2.856 -1.0007 -0.8798 -1.2009
 2831TIP3   OH2 8498   3.758   4.564   1.927  0.1070 -0.3110 -0.7748
 2831TIP3    H1 8499   3.731   4.487   1.977  0.8830 -0.2056 -0.1898
 2831TIP3    H2 8500   3.710   4.637   1.967  0.8640 -0.1991 -0.0528
 2832TIP3   OH2 8501   0.568   3.653   0.127  0.1179 -0.1322 -0.5592
 2832TIP3    H1 8502   0.563   3.608   0.211 -0.1575 -0.7737 -0.9125
 2832TIP3    H2 8503   0.657   3.688   0.124  0.1920 -0.2753 -0.0812
 2833TIP3   OH2 8504   1.448   3.255   4.258 -0.0234  0.0137  0.2889
 2833TIP3    H1 8505   1.370   3.257   4.313 -0.5858  1.0533 -0.5185
 2833TIP3    H2 8506   1.504   3.323   4.295 -0.2507  0.4678 -0.1889
 2834TIP3   OH2 8507   4.036   1.450   2.526  0.2712 -0.0418 -0.0837
 2834TIP3    H1 8508   4.022   1.537   2.564  0.3454 -0.1096  0.0963
 2834TIP3    H2 8509   4.102   1.465   2.457  1.1562 -0.1523  0.7184
 2835TIP3   OH2 8510   4.213   5.974   3.731  0.5214  0.5343 -0.5024
 2835TIP3    H1 8511   4.212   6.054   3.783  2.0445 -1.0415  2.1501
 2835TIP3    H2 8512   4.190   5.904   3.793 -0.2395 -1.1823 -2.5853
 2836TIP3   OH2 8513   5.309   5.205   5.035 -0.2782 -0.2997  0.4037
 2836TIP3    H1 8514   5.373   5.234   4.969 -1.2514  0.9931 -0.0047
 2836TIP3    H2 8515   5.326   5.262   5.110 -0.0559 -0.8742  0.7919
 2837TIP3   OH2 8516   4.840   2.487   2.782  0.5292 -0.0502 -0.2876
 2837TIP3    H1 8517   4.868   2.454   2.697  1.3716 -1.1967  0.3877
 2837TIP3    H2 8518   4.829   2.408   2.836 -1.8658  0.5181  0.1533
 2838TIP3   OH2 8519   4.867   1.667   0.023  0.1537  0.2086 -0.3813
 2838TIP3    H1 8520   4.836   1.584   0.060 -0.9391  0.4739 -0.6681
 2838TIP3    H2 8521   4.816   1.679  -0.057 -0.0731  1.3928 -0.0878
 2839TIP3   OH2 8522  -0.025   1.635   1.992  0.0052 -0.5404  0.0626
 2839TIP3    H1 8523   0.031   1.708   2.021 -0.3639  0.1405 -0.8879
 2839TIP3    H2 8524   0.036   1.572   1.953  0.3803 -0.9705  1.2929
 2840TIP3   OH2 8525   2.940   0.573   4.851 -0.7217  0.1809  0.0966
 2840TIP3    H1 8526   2.885   0.615   4.917 -0.7989  0.7356 -0.3154
 2840TIP3    H2 8527   2.884   0.570   4.773 -0.6124 -0.4195  0.0352
 2841TIP3   OH2 8528   2.327   0.461   2.231 -0.2294 -0.2691 -0.3938
 2841TIP3    H1 8529   2.325   0.391   2.166 -1.3684 -0.2753 -0.3712
 2841TIP3    H2 8530   2.420   0.479   2.244  0.0319 -0.3077 -1.9871
 2842TIP3   OH2 8531   3.255   4.656   2.194  0.0659  0.3315 -0.1899
 2842TIP3    H1 8532   3.212   4.695   2.270 -0.7036  0.2417 -0.5621
 2842TIP3    H2 8533   3.202   4.578   2.174  0.0557  0.5329 -1.0016
 2843TIP3   OH2 8534   2.633   0.778   4.860 -0.1413  0.0075  0.2733
 2843TIP3    H1 8535   2.564   0.715   4.842  1.1866 -1.2445 -0.6056
 2843TIP3    H2 8536   2.624   0.844   4.791  0.1524 -0.6756 -0.4203
 2844TIP3   OH2 8537   2.687   1.621   0.726  0.1577  0.5853  0.0904
 2844TIP3    H1 8538   2.701   1.711   0.694  0.5312  0.5864  0.2418
 2844TIP3    H2 8539   2.594   1.617   0.746  0.3145  1.2842  1.0762
 2845TIP3   OH2 8540   3.041   3.889   0.118 -0.2121  0.1482 -0.3992
 2845TIP3    H1 8541   3.134   3.892   0.094 -0.3123  0.8018 -0.7368
 2845TIP3    H2 8542   3.040   3.858   0.208  0.2807 -0.7290 -0.6878
 2846TIP3   OH2 8543   4.478   4.560   0.640 -0.2958  0.4631  0.1242
 2846TIP3    H1 8544   4.542   4.599   0.580 -0.0576 -0.4295 -0.2063
 2846TIP3    H2 8545   4.525   4.488   0.682 -0.9617  0.0499  0.1666
 2847TIP3   OH2 8546   3.041   0.531   3.594 -0.4982  0.6757 -0.1890
 2847TIP3    H1 8547   3.019   0.555   3.504  0.8474  0.9002 -0.4887
 2847TIP3    H2 8548   2.974   0.468   3.620 -0.7949  0.4632 -1.4142
 2848TIP3   OH2 8549   3.826   3.414   0.503 -0.3541  1.0993 -0.0004
 2848TIP3    H1 8550   3.758   3.459   0.554 -1.4001  1.2765 -1.4797
 2848TIP3    H2 8551   3.777   3.358   0.443  0.8424  0.6451 -0.5878
 2849TIP3   OH2 8552   2.210   1.433   3.025 -0.0953 -0.1555 -0.1501
 2849TIP3    H1 8553   2.172   1.482   3.098 -3.0335  3.0391 -3.4042
 2849TIP3    H2 8554   2.282   1.488   2.994  0.1218 -0.6800 -0.5953
 2850TIP3   OH2 8555   5.487   3.035   2.713 -0.4981  0.0293  0.6083
 2850TIP3    H1 8556   5.405   3.008   2.671  0.8244  1.3366 -3.2460
 2850TIP3    H2 8557   5.467   3.119   2.754 -0.9772  0.6912 -0.9218
 2851TIP3   OH2 8558   6.340   5.183   2.982  0.1053 -0.0431  0.7362
 2851TIP3    H1 8559   6.345   5.148   2.893  1.8350  0.3488  0.6625
 2851TIP3    H2 8560   6.246   5.200   2.995 -0.2980 -1.0259 -0.6310
 2852TIP3   OH2 8561   0.022   5.552   2.678  0.3370 -0.0408  0.0132
 2852TIP3    H1 8562  -0.036   5.476   2.666 -0.9989  0.8166  0.8915
 2852TIP3    H2 8563   0.110   5.516   2.663 -0.3223 -1.5667 -0.4727
 2853TIP3   OH2 8564   0.584   1.117   0.870 -0.1038  0.3876  0.4712
 2853TIP3    H1 8565   0.549   1.030   0.887  0.3972 -0.0259 -0.4991
 2853TIP3    H2 8566   0.536   1.148   0.793  0.7447  0.3449 -0.0880
 2854TIP3   OH2 8567   3.535   0.982   1.262  0.4582 -0.2902  0.6014
 2854TIP3    H1 8568   3.449   0.942   1.248 -0.3476  1.4667  0.1172
 2854TIP3    H2 8569   3.542   0.992   1.357  0.2980 -0.7858  0.6668
 2855TIP3   OH2 8570   4.587   4.124   0.715  0.1667  0.4974  0.6197
 2855TIP3    H1 8571   4.618   4.199   0.664  2.1349  0.0218  1.0523
 2855TIP3    H2 8572   4.636   4.128   0.797 -0.5717 -0.5857  1.1381
 2856TIP3   OH2 8573   4.179   4.862   3.482 -0.2033  0.1987  0.2111
 2856TIP3    H1 8574   4.183   4.841   3.389  2.2649 -0.5885  0.4042
 2856TIP3    H2 8575   4.270   4.852   3.512 -1.0221 -0.0828  2.8065
 2857TIP3   OH2 8576   4.237   5.986   2.803  0.2073  0.5635 -0.3783
 2857TIP3    H1 8577   4.213   5.896   2.780 -0.4506  0.0378  2.1371
 2857TIP3    H2 8578   4.154   6.033   2.808  0.4884  1.1366 -0.8707
 2858TIP3   OH2 8579   2.177   1.211   3.416 -0.4886  0.2009  0.1806
 2858TIP3    H1 8580   2.194   1.121   3.445  0.5455  0.1354 -0.6030
 2858TIP3    H2 8581   2.172   1.205   3.321  0.8145  1.1569  0.0309
 2859TIP3   OH2 8582   1.085   3.545   2.098  0.5835 -0.1292  0.0985
 2859TIP3    H1 8583   1.137   3.560   2.177  0.4202 -0.0856  0.1992
 2859TIP3    H2 8584   1.108   3.618   2.040  0.7909 -0.2254  0.0595
 2860TIP3   OH2 8585   3.445   0.991   5.065  0.0343 -0.4470  0.3338
 2860TIP3    H1 8586   3.513   1.013   5.002 -0.1878 -1.2911 -0.2155
 2860TIP3    H2 8587   3.479   1.022   5.149  0.0742  1.2635 -0.2594
 2861TIP3   OH2 8588   2.101   1.820   3.026  0.1594  0.4356  0.0395
 2861TIP3    H1 8589   2.053   1.899   3.000 -0.4700  0.3347  0.8442
 2861TIP3    H2 8590   2.078   1.756   2.959  0.4238  0.8434 -0.4465
 2862TIP3   OH2 8591   0.750   5.941   2.761 -0.1482  1.0058  0.0739
 2862TIP3    H1 8592   0.808   6.004   2.718 -0.6706  1.3092 -0.2006
 2862TIP3    H2 8593   0.689   5.995   2.812 -0.0422  0.6820  0.5445
 2863TIP3   OH2 8594   4.112   4.502   0.915 -0.0818  0.1385  0.3537
 2863TIP3    H1 8595   4.169   4.530   0.986 -0.0297 -0.3182  0.4957
 2863TIP3    H2 8596   4.024   4.524   0.943  0.1221  2.4447 -0.5970
 2864TIP3   OH2 8597   2.849   5.454   4.835 -0.7523 -0.1333 -0.3536
 2864TIP3    H1 8598   2.927   5.487   4.790  0.9190 -3.1177  0.0333
 2864TIP3    H2 8599   2.841   5.509   4.912  1.1959  0.1034 -0.2589
 2865TIP3   OH2 8600   1.008   0.541   2.259 -0.4736 -0.1487  0.1061
 2865TIP3    H1 8601   1.048   0.480   2.321  0.6930  1.6117  1.1886
 2865TIP3    H2 8602   1.051   0.625   2.277 -2.3960  1.1372 -0.9104
 2866TIP3   OH2 8603   1.217   3.017   3.975  0.7802  0.0764  0.0289
 2866TIP3    H1 8604   1.307   3.044   3.962  1.7828 -2.6667  0.6172
 2866TIP3    H2 8605   1.196   3.048   4.064  0.7371  1.6324 -0.4999
 2867TIP3   OH2 8606   0.649   4.272   4.743 -0.7810  0.3974 -0.0638
 2867TIP3    H1 8607   0.700   4.204   4.788 -2.2419 -2.2978 -2.1287
 2867TIP3    H2 8608   0.715   4.327   4.701  0.4880 -0.6598  0.4444
 2868TIP3   OH2 8609   1.404   4.304   5.070 -0.3172  0.4379 -0.0069
 2868TIP3    H1 8610   1.374   4.242   5.137 -0.3884 -0.8790 -1.2069
 2868TIP3    H2 8611   1.380   4.263   4.987 -0.3048  2.0679 -0.8560
 2869TIP3   OH2 8612   0.963   2.258   0.110 -0.4076 -0.4582 -0.2813
 2869TIP3    H1 8613   1.053   2.283   0.134  0.1638 -1.8633 -0.8379
 2869TIP3    H2 8614   0.913   2.339   0.119  0.3950 -0.1588  2.4218
 2870TIP3   OH2 8615   1.900   2.150   2.785  0.4704  0.1414 -0.0457
 2870TIP3    H1 8616   1.960   2.106   2.724  0.5763  0.5603 -0.2490
 2870TIP3    H2 8617   1.931   2.124   2.871  1.4282  0.9420 -0.1217
 2871TIP3   OH2 8618   2.231   0.483   3.388 -0.1846  0.1721 -0.6286
 2871TIP3    H1 8619   2.213   0.440   3.304  0.7025  1.7957 -1.7201
 2871TIP3    H2 8620   2.148   0.523   3.413 -1.0560 -2.1709  0.4730
 2872TIP3   OH2 8621   3.011   4.765   3.146 -0.5015  0.2981 -0.2718
 2872TIP3    H1 8622   3.056   4.849   3.149  0.3755 -0.1570 -0.1959
 2872TIP3    H2 8623   3.072   4.707   3.099 -0.7923 -0.4671  0.2702
 2873TIP3   OH2 8624   4.060   5.019   5.111  0.1970  0.0467  0.2214
 2873TIP3    H1 8625   4.030   5.073   5.037  1.0553  1.7136  1.0344
 2873TIP3    H2 8626   3.981   5.008   5.165 -0.3433 -0.8510 -0.7069
 2874TIP3   OH2 8627   1.855   3.810   3.452 -0.3843  0.3399 -0.0831
 2874TIP3    H1 8628   1.920   3.871   3.416 -0.8201  1.0195  0.2611
 2874TIP3    H2 8629   1.884   3.793   3.541 -0.8494  0.9197  0.1900
 2875TIP3   OH2 8630   6.150   4.341   2.894 -0.3709 -0.5966  0.0581
 2875TIP3    H1 8631   6.062   4.304   2.899 -0.0829 -1.5130 -1.3022
 2875TIP3    H2 8632   6.182   4.317   2.807  0.4540  1.4693 -0.2853
 2876TIP3   OH2 8633   0.907   1.864   1.274 -0.1410 -0.3347  0.2737
 2876TIP3    H1 8634   0.826   1.817   1.296 -0.6770  0.9389  1.1080
 2876TIP3    H2 8635   0.977   1.802   1.295 -0.8643 -1.1711  0.2677
 2877TIP3   OH2 8636   1.269   3.621   3.964 -0.4991 -0.0677  0.0156
 2877TIP3    H1 8637   1.214   3.544   3.952  1.6132 -1.6633 -0.0099
 2877TIP3    H2 8638   1.292   3.621   4.057  1.4016 -0.8995 -0.4037
 2878TIP3   OH2 8639   6.309   1.125   1.275  0.0416  0.0793  0.0501
 2878TIP3    H1 8640   6.356   1.202   1.304 -0.3837  0.6378 -0.7099
 2878TIP3    H2 8641   6.338   1.111   1.185 -1.1959  0.4101 -0.4225
 2879TIP3   OH2 8642   0.874   3.538   2.843 -0.1673 -0.4883 -0.0502
 2879TIP3    H1 8643   0.930   3.489   2.902  0.2857  0.7721  0.6119
 2879TIP3    H2 8644   0.927   3.614   2.817 -0.8462 -0.3155 -1.0056
 2880TIP3   OH2 8645   3.223   1.371   4.480 -0.2668 -0.0190 -0.4909
 2880TIP3    H1 8646   3.187   1.297   4.431 -0.4199 -0.0246 -0.3699
 2880TIP3    H2 8647   3.209   1.446   4.422 -1.5543  0.1802  0.0341
 2881TIP3   OH2 8648   1.866   5.970   0.138  0.7822  0.1906 -0.0454
 2881TIP3    H1 8649   1.847   5.993   0.048  0.8316  0.3335 -0.0192
 2881TIP3    H2 8650   1.889   5.877   0.135  0.9315  0.2319 -0.2023
 2882TIP3   OH2 8651   5.615   2.685   2.765  0.0182  0.4908  0.3443
 2882TIP3    H1 8652   5.617   2.595   2.799 -0.0928  0.9299  1.5672
 2882TIP3    H2 8653   5.539   2.688   2.708 -0.7063  0.1341  1.2696
 2883TIP3   OH2 8654   4.073   5.864   0.713  0.9512 -0.3348 -0.7080
 2883TIP3    H1 8655   4.030   5.928   0.769 -2.3987 -1.7504 -1.4720
 2883TIP3    H2 8656   4.152   5.839   0.762 -1.7357 -1.5183  3.5095
 2884TIP3   OH2 8657   3.732   4.360   3.671 -0.0174 -0.1455  0.4007
 2884TIP3    H1 8658   3.783   4.319   3.601 -0.4466 -0.0529  0.0349
 2884TIP3    H2 8659   3.645   4.374   3.633 -0.2765 -0.1788  0.9836
 2885TIP3   OH2 8660   2.611   2.688   4.214  0.3385 -0.0687 -0.5275
 2885TIP3    H1 8661   2.597   2.770   4.261 -2.2185 -0.7791  0.1165
 2885TIP3    H2 8662   2.632   2.624   4.282  2.9982  0.1012 -1.0925
 2886TIP3   OH2 8663   2.411   3.869   4.673  0.2128 -0.0218 -0.3707
 2886TIP3    H1 8664   2.486   3.910   4.716  0.6567 -0.4172 -0.7560
 2886TIP3    H2 8665   2.341   3.934   4.680  0.2330 -0.1337  1.0698
 2887TIP3   OH2 8666   2.173   0.129   4.685 -0.1094 -0.4746 -0.2047
 2887TIP3    H1 8667   2.267   0.120   4.667  0.0969  1.1955 -0.1048
 2887TIP3    H2 8668   2.134   0.052   4.644  1.1768 -0.6001 -1.2857
 2888TIP3   OH2 8669   4.470   4.167   4.987  0.1498  0.0626  0.1434
 2888TIP3    H1 8670   4.564   4.175   4.971  0.6670 -0.8207  2.3693
 2888TIP3    H2 8671   4.462   4.165   5.082 -1.9910 -1.2238  0.0049
 2889TIP3   OH2 8672   4.238   0.678   1.676  0.0436  0.2999  0.4972
 2889TIP3    H1 8673   4.177   0.613   1.642 -0.2761 -0.0142  1.6254
 2889TIP3    H2 8674   4.292   0.702   1.600 -1.0259  0.0884 -0.3640
 2890TIP3   OH2 8675   0.268   5.105   0.264 -0.1606 -0.1984  0.0698
 2890TIP3    H1 8676   0.305   5.185   0.300 -0.5945 -0.5716  1.3976
 2890TIP3    H2 8677   0.267   5.043   0.338 -0.6518 -1.1381 -0.6983
 2891TIP3   OH2 8678   2.697   0.032   0.313  0.0275  0.5469  0.3645
 2891TIP3    H1 8679   2.725  -0.014   0.392 -0.2340 -0.0639  0.1111
 2891TIP3    H2 8680   2.770   0.090   0.292 -0.6364  2.1419  2.1149
 2892TIP3   OH2 8681   6.080   2.971   4.965 -1.0670  0.0699 -0.2144
 2892TIP3    H1 8682   6.098   2.995   4.874  0.7836  0.2116  0.1473
 2892TIP3    H2 8683   6.105   3.048   5.015  0.7850 -1.0253  0.6286
 2893TIP3   OH2 8684   4.082   3.266   3.639  0.3475  0.1467 -0.1205
 2893TIP3    H1 8685   4.098   3.210   3.563 -0.8001 -0.8166  0.3069
 2893TIP3    H2 8686   4.060   3.205   3.709  0.2871  1.0759  0.6908
 2894TIP3   OH2 8687   1.543   3.983   1.010  0.3461  0.7360  0.0261
 2894TIP3    H1 8688   1.517   3.946   0.926  0.9161 -0.0005  0.1629
 2894TIP3    H2 8689   1.527   3.914   1.074  1.4959  0.6690  0.2719
 2895TIP3   OH2 8690   3.318   4.801   1.996 -0.0164  0.4314  0.1621
 2895TIP3    H1 8691   3.255   4.871   1.976 -0.2326  0.8656  2.2084
 2895TIP3    H2 8692   3.280   4.755   2.071  0.2174 -1.8114 -1.0079
 2896TIP3   OH2 8693   2.826   5.288   5.090  0.0212  0.3113 -0.1975
 2896TIP3    H1 8694   2.823   5.378   5.056  0.1952  0.2731 -0.3133
 2896TIP3    H2 8695   2.803   5.233   5.015  0.0051  0.2513 -0.1490
 2897TIP3   OH2 8696   1.804   3.050   0.294 -0.1538  0.1417  0.0953
 2897TIP3    H1 8697   1.750   3.113   0.341 -1.5778 -1.7220  1.0908
 2897TIP3    H2 8698   1.865   3.016   0.359 -0.1517 -0.3186 -0.1390
 2898TIP3   OH2 8699   4.108   5.723   4.202  0.4261  0.6901  0.2387
 2898TIP3    H1 8700   4.067   5.791   4.254 -0.8754 -0.1568  0.3596
 2898TIP3    H2 8701   4.159   5.672   4.265 -1.4632 -0.5776  0.8465
 2899TIP3   OH2 8702   6.215   4.648   1.749  0.3009 -0.4611  0.0809
 2899TIP3    H1 8703   6.156   4.636   1.674  0.6609  0.1858 -0.3130
 2899TIP3    H2 8704   6.299   4.615   1.720  1.1892  2.3321 -0.8583
 2900TIP3   OH2 8705   3.058   1.423   3.621 -0.0788 -0.3346 -0.0886
 2900TIP3    H1 8706   3.097   1.424   3.533 -1.0854 -0.5739 -0.5534
 2900TIP3    H2 8707   3.132   1.416   3.680  0.5806 -0.7579 -0.9449
 2901TIP3   OH2 8708   4.817   3.192   0.104 -0.0597  0.3302  0.3682
 2901TIP3    H1 8709   4.893   3.174   0.160  0.4039 -0.5603 -0.5237
 2901TIP3    H2 8710   4.790   3.107   0.071 -0.2468  0.8447 -0.8579
 2902TIP3   OH2 8711   1.939   5.055   0.479 -0.4121  0.0827  0.3773
 2902TIP3    H1 8712   1.935   5.070   0.384 -0.9353  0.7050  0.4890
 2902TIP3    H2 8713   1.923   4.961   0.489  2.2724 -0.5172 -0.3048
 2903TIP3   OH2 8714   1.720   5.081   4.666 -0.4754  0.0026 -0.4476
 2903TIP3    H1 8715   1.660   5.127   4.607 -0.5402 -1.5659 -1.6665
 2903TIP3    H2 8716   1.670   5.006   4.697  0.2297 -0.2780  0.0361
 2904TIP3   OH2 8717   3.093   3.194   1.105  0.0202 -0.2938  0.5433
 2904TIP3    H1 8718   3.117   3.103   1.087 -0.2804 -0.6677  1.9347
 2904TIP3    H2 8719   3.077   3.196   1.199 -0.9576  0.9823  0.3671
 2905TIP3   OH2 8720   1.582   1.528   2.110  0.0650 -0.0934  0.3227
 2905TIP3    H1 8721   1.549   1.439   2.124  0.4072 -0.3346 -0.3564
 2905TIP3    H2 8722   1.570   1.543   2.016  1.8594 -0.1963  0.0359
 2906TIP3   OH2 8723   4.181   4.155   0.990 -0.1305  0.1351  0.2166
 2906TIP3    H1 8724   4.214   4.072   0.956  0.6592  0.3882  0.3616
 2906TIP3    H2 8725   4.258   4.199   1.025 -0.7402  0.4023  1.2421
 2907TIP3   OH2 8726   4.852   5.919   4.187  0.1883  0.0462 -0.2630
 2907TIP3    H1 8727   4.830   5.928   4.094 -1.7400 -0.6021  0.0712
 2907TIP3    H2 8728   4.790   5.853   4.219 -1.8448  2.9179  2.2961
 2908TIP3   OH2 8729   3.386   3.641   0.610  0.5417 -0.3790  0.0672
 2908TIP3    H1 8730   3.327   3.706   0.648  0.8479 -0.3855  0.5512
 2908TIP3    H2 8731   3.379   3.655   0.515  0.3240  0.1100  0.1553
 2909TIP3   OH2 8732   4.600   1.095   0.036  0.2366 -0.0174  0.6029
 2909TIP3    H1 8733   4.508   1.119   0.027  0.2250 -0.0474  0.6371
 2909TIP3    H2 8734   4.604   1.005   0.002  0.1811 -0.1544  0.9423
 2910TIP3   OH2 8735   3.619   2.187   3.754  0.1280 -0.7050 -0.1638
 2910TIP3    H1 8736   3.556   2.214   3.687  0.8338  1.0677 -0.1726
 2910TIP3    H2 8737   3.566   2.168   3.832 -0.6044 -1.7767 -0.8934
 2911TIP3   OH2 8738   3.772   1.911   4.920 -0.0224  0.1517  0.1403
 2911TIP3    H1 8739   3.685   1.876   4.900 -0.4985  1.7158 -0.6483
 2911TIP3    H2 8740   3.784   1.893   5.014 -2.1637  1.8373  0.8284
 2912TIP3   OH2 8741   4.970   2.956   2.143 -0.0188 -0.0706  0.4074
 2912TIP3    H1 8742   4.941   2.901   2.070 -2.3902  1.4185  0.1154
 2912TIP3    H2 8743   4.944   2.907   2.222 -0.5517 -0.1646  0.1780
 2913TIP3   OH2 8744   3.984   3.016   1.501  0.0518  0.0792 -0.2572
 2913TIP3    H1 8745   3.942   3.094   1.539  0.9588 -0.2145  1.3926
 2913TIP3    H2 8746   4.031   3.050   1.424  0.5189  1.1913  0.4923
 2914TIP3   OH2 8747   0.495   4.694   4.961  0.2506 -0.2542  0.3707
 2914TIP3    H1 8748   0.499   4.770   4.903  0.8168 -0.7020 -0.1874
 2914TIP3    H2 8749   0.402   4.670   4.963  0.0665  0.4378  0.5491
 2915TIP3   OH2 8750   0.726   0.981   3.856  0.2807  0.0107 -0.0880
 2915TIP3    H1 8751   0.749   1.074   3.858  1.0268 -0.1748  0.5073
 2915TIP3    H2 8752   0.810   0.935   3.853 -0.0123 -0.6355 -4.4571
 2916TIP3   OH2 8753   0.111   0.943   0.806  0.2225 -0.0941  0.4500
 2916TIP3    H1 8754   0.197   0.914   0.776  0.3238 -0.1256  0.7683
 2916TIP3    H2 8755   0.054   0.931   0.730  0.6591  0.6755 -0.0263
 2917TIP3   OH2 8756   0.434   2.159   0.238  0.1690 -0.1601  0.7782
 2917TIP3    H1 8757   0.446   2.071   0.274  2.3220  0.2583  1.2082
 2917TIP3    H2 8758   0.510   2.208   0.268 -0.1539  1.4145 -0.8031
 2918TIP3   OH2 8759   5.951   3.848   4.974 -0.1912 -0.4957  0.0054
 2918TIP3    H1 8760   5.914   3.760   4.984 -0.2988 -0.4164  0.3345
 2918TIP3    H2 8761   6.045   3.836   4.989 -0.0152 -0.7614 -1.2133
 2919TIP3   OH2 8762   1.937   1.200   4.984 -0.0067 -0.1934 -0.5425
 2919TIP3    H1 8763   1.855   1.150   4.979 -0.2381  0.1009  0.2741
 2919TIP3    H2 8764   1.983   1.177   4.903 -0.1435 -1.6725 -0.2263
 2920TIP3   OH2 8765   0.878   2.155   4.463 -0.8191 -0.1260 -0.0119
 2920TIP3    H1 8766   0.855   2.195   4.547 -0.2138  1.9375 -0.7474
 2920TIP3    H2 8767   0.878   2.061   4.480 -2.8044  0.1110  1.7449
 2921TIP3   OH2 8768   4.489   5.380   1.797  0.2006 -0.7370  0.4471
 2921TIP3    H1 8769   4.568   5.338   1.762  1.3489  0.6186  1.2808
 2921TIP3    H2 8770   4.502   5.380   1.892 -0.6842 -0.2664  0.5821
 2922TIP3   OH2 8771   5.566   0.907   1.164 -0.6813 -0.2554 -0.6028
 2922TIP3    H1 8772   5.611   0.905   1.079 -0.0582 -1.1519 -0.2590
 2922TIP3    H2 8773   5.480   0.943   1.143 -0.1024  0.7300 -1.4038
 2923TIP3   OH2 8774   4.414   0.900   4.795  0.3658  0.1002 -0.1158
 2923TIP3    H1 8775   4.466   0.871   4.870 -0.2948 -0.7073  0.0436
 2923TIP3    H2 8776   4.417   0.826   4.734 -1.8120 -0.6018  0.5371
 2924TIP3   OH2 8777   2.997   4.608   4.023  0.2917  0.2500  0.3312
 2924TIP3    H1 8778   2.923   4.593   3.964  1.0860  0.8202 -0.8393
 2924TIP3    H2 8779   3.011   4.702   4.022  1.9476  0.0192 -0.6223
 2925TIP3   OH2 8780   0.955   0.355   0.735  0.0252  0.3685 -0.0992
 2925TIP3    H1 8781   0.959   0.274   0.785  0.5884  1.9641  2.6277
 2925TIP3    H2 8782   1.012   0.340   0.660  0.2455 -1.6785  0.4281
 2926TIP3   OH2 8783   4.201   1.702   3.339  0.3592 -0.5636  0.3170
 2926TIP3    H1 8784   4.292   1.707   3.367  0.5438  0.3952 -0.4043
 2926TIP3    H2 8785   4.196   1.623   3.287  0.0608 -2.2744  2.7775
 2927TIP3   OH2 8786   2.019   3.764   3.690  0.1194 -0.8049 -0.3246
 2927TIP3    H1 8787   2.053   3.844   3.731 -0.0943  0.1171 -1.8827
 2927TIP3    H2 8788   2.095   3.706   3.683  0.6133 -0.1309 -0.6035
 2928TIP3   OH2 8789   4.932   3.269   0.958  0.3344 -0.1423  0.4696
 2928TIP3    H1 8790   5.009   3.265   1.015  0.4723  0.1127  0.3018
 2928TIP3    H2 8791   4.874   3.332   1.000  0.5035  0.1640  0.2484
 2929TIP3   OH2 8792   2.560   0.513   1.569 -0.3014  0.3981  0.4564
 2929TIP3    H1 8793   2.536   0.456   1.642  0.3735  1.0365  1.1988
 2929TIP3    H2 8794   2.634   0.470   1.527 -0.6056  0.0954  0.2296
 2930TIP3   OH2 8795   0.261   3.173   3.028  0.5139  0.2074 -0.3938
 2930TIP3    H1 8796   0.260   3.201   3.119  1.3425 -0.6443 -0.1011
 2930TIP3    H2 8797   0.354   3.160   3.007  0.3105  0.0148 -1.2290
 2931TIP3   OH2 8798   5.199   0.021   3.969 -0.0487 -0.2388  0.4510
 2931TIP3    H1 8799   5.168   0.108   3.994 -0.5634 -0.4565  0.5873
 2931TIP3    H2 8800   5.293   0.032   3.955 -0.2018  0.4679 -0.1106
 2932TIP3   OH2 8801   3.477   4.650   4.743  0.2695  0.1856 -0.0400
 2932TIP3    H1 8802   3.504   4.732   4.701  1.7982  0.1362  0.7814
 2932TIP3    H2 8803   3.556   4.618   4.787 -0.8644 -0.5191  1.6053
 2933TIP3   OH2 8804   3.599   4.062   0.188 -0.1964 -0.3848  0.1230
 2933TIP3    H1 8805   3.644   4.116   0.254  1.8895  0.4257 -1.8517
 2933TIP3    H2 8806   3.577   4.124   0.118 -3.1277 -1.0631  0.2938
 2934TIP3   OH2 8807   1.940   4.175   3.083 -0.0143  0.2563  0.0221
 2934TIP3    H1 8808   1.974   4.228   3.156 -2.0211 -0.4342  1.5510
 2934TIP3    H2 8809   1.999   4.100   3.079 -0.2124 -0.0082  1.4010
 2935TIP3   OH2 8810   0.231   3.538   5.005  0.0933 -0.2166 -0.0298
 2935TIP3    H1 8811   0.156   3.596   5.019  0.0217 -0.2338 -0.3534
 2935TIP3    H2 8812   0.236   3.527   4.911  1.2955  0.8422 -0.1251
 2936TIP3   OH2 8813   1.788   2.327   2.282  0.6391 -0.2535 -0.0243
 2936TIP3    H1 8814   1.700   2.363   2.271  1.9397  2.4778 -3.0142
 2936TIP3    H2 8815   1.837   2.396   2.327  1.5771 -1.2597  0.5594
 2937TIP3   OH2 8816   2.515   4.368   0.539 -0.2251 -0.2031 -0.1812
 2937TIP3    H1 8817   2.542   4.388   0.629  0.4956  1.4894 -0.7403
 2937TIP3    H2 8818   2.557   4.436   0.486 -3.0504  0.6676 -1.4793
 2938TIP3   OH2 8819   0.621   3.616   4.640 -0.5173 -0.4090  0.3666
 2938TIP3    H1 8820   0.704   3.663   4.642 -0.7431  0.0015  0.2081
 2938TIP3    H2 8821   0.615   3.572   4.725 -0.9392  0.9632  1.0721
 2939TIP3   OH2 8822   0.074   5.072   4.015 -0.4434  0.7322 -0.1075
 2939TIP3    H1 8823   0.005   5.010   3.994  0.4663  0.0330 -1.1611
 2939TIP3    H2 8824   0.044   5.155   3.978 -0.0967  0.1156 -1.8519
 2940TIP3   OH2 8825   1.941   0.922   3.457  0.0921  0.0001  0.4913
 2940TIP3    H1 8826   2.035   0.906   3.443  0.1690  0.4151  0.5113
 2940TIP3    H2 8827   1.936   1.015   3.482 -0.2737 -0.1556  1.0011
 2941TIP3   OH2 8828   0.719   0.959   1.996 -0.2261 -0.1153  0.0980
 2941TIP3    H1 8829   0.744   0.913   1.916 -1.4939 -0.2121 -0.2557
 2941TIP3    H2 8830   0.793   0.945   2.056  1.0356  0.4929 -1.2476
 2942TIP3   OH2 8831   5.882   2.591   0.028 -0.0502 -0.5355  0.2757
 2942TIP3    H1 8832   5.821   2.635   0.086  0.9281  0.2896  0.7147
 2942TIP3    H2 8833   5.889   2.649  -0.048  1.7027  0.4719  1.1168
 2943TIP3   OH2 8834   0.933   0.111   0.864 -0.0483  0.8711 -0.2774
 2943TIP3    H1 8835   0.954   0.030   0.817 -1.0447  1.2259 -1.4064
 2943TIP3    H2 8836   0.957   0.093   0.955 -0.3412 -0.7327 -0.4813
 2944TIP3   OH2 8837   1.933   4.850   2.403 -0.2638  0.3825  0.0197
 2944TIP3    H1 8838   2.020   4.883   2.379  0.5513 -1.8506 -0.3344
 2944TIP3    H2 8839   1.887   4.843   2.319  0.2823 -1.1988 -0.1805
 2945TIP3   OH2 8840   1.630   3.083   3.190  0.1120  0.0381 -0.9325
 2945TIP3    H1 8841   1.555   3.035   3.224 -0.5993  0.6039 -1.6587
 2945TIP3    H2 8842   1.663   3.133   3.265 -0.4962  0.1032 -0.7034
 2946TIP3   OH2 8843   1.352   5.107   0.618 -0.0513 -0.2020  0.2435
 2946TIP3    H1 8844   1.313   5.055   0.689 -0.5950  1.4688  1.2425
 2946TIP3    H2 8845   1.439   5.131   0.651 -0.4547  0.9085  0.5512
 2947TIP3   OH2 8846   2.571   2.577   2.367 -0.1585  0.0149  0.6069
 2947TIP3    H1 8847   2.590   2.669   2.347 -0.8848  0.1245  0.3901
 2947TIP3    H2 8848   2.475   2.573   2.372 -0.1881 -0.9145 -0.3343
 2948TIP3   OH2 8849   6.321   1.731   0.713 -0.3191 -0.5955  0.3430
 2948TIP3    H1 8850   6.298   1.717   0.805 -1.5487 -0.8473  0.0095
 2948TIP3    H2 8851   6.248   1.694   0.664  0.3499 -0.5143 -0.7452
 2949TIP3   OH2 8852   3.461   0.914   4.381 -0.0356 -0.2336 -0.2015
 2949TIP3    H1 8853   3.377   0.943   4.345  0.2286  1.1208  0.2093
 2949TIP3    H2 8854   3.438   0.843   4.440 -0.8871  0.0499 -0.1756
 2950TIP3   OH2 8855   5.104   5.624   1.311 -0.0681 -0.2766  0.2704
 2950TIP3    H1 8856   5.113   5.720   1.305  0.4686 -0.2771  0.8831
 2950TIP3    H2 8857   5.132   5.604   1.400  2.5623 -1.2817 -0.6864
 2951TIP3   OH2 8858   2.886   2.614   1.319  0.0282 -0.0476  0.7516
 2951TIP3    H1 8859   2.974   2.612   1.281  0.9258 -1.9715  2.7101
 2951TIP3    H2 8860   2.896   2.663   1.401 -1.1445  1.1875  0.1993
 2952TIP3   OH2 8861   1.118   1.806   4.934 -0.2405  0.1021 -0.1462
 2952TIP3    H1 8862   1.135   1.881   4.991 -2.7689  1.5715 -1.1695
 2952TIP3    H2 8863   1.114   1.731   4.993 -1.0279  1.2919  1.3909
 2953TIP3   OH2 8864   1.733   5.924   4.121 -0.6497  0.0623  0.7273
 2953TIP3    H1 8865   1.686   5.912   4.204  0.1821 -1.5622  1.0164
 2953TIP3    H2 8866   1.824   5.935   4.148 -0.2843 -1.1228  0.0162
 2954TIP3   OH2 8867   1.447   5.263   0.379  0.2806  0.1539 -0.4410
 2954TIP3    H1 8868   1.358   5.242   0.407  0.6236 -0.3481  0.3072
 2954TIP3    H2 8869   1.503   5.210   0.435  1.0782  0.8699 -0.5408
 2955TIP3   OH2 8870   3.791   2.041   0.528  0.0409 -0.1546 -0.1732
 2955TIP3    H1 8871   3.769   2.031   0.436  0.3595  1.1506 -0.4043
 2955TIP3    H2 8872   3.852   2.115   0.531 -2.8084  2.3672  1.4624
 2956TIP3   OH2 8873   3.340   4.511   4.207 -0.1532 -0.2373  0.1630
 2956TIP3    H1 8874   3.303   4.463   4.133 -0.8417  0.6088 -0.0453
 2956TIP3    H2 8875   3.269   4.564   4.240  0.4414  0.1957  0.7760
 2957TIP3   OH2 8876   4.770   5.599   3.644  0.1845 -0.5962 -0.0251
 2957TIP3    H1 8877   4.825   5.644   3.708 -1.8814  2.3754 -0.1397
 2957TIP3    H2 8878   4.688   5.581   3.690 -0.6969 -0.0188 -1.3045
 2958TIP3   OH2 8879   4.690   4.808   3.675  0.5565 -0.0298  0.0662
 2958TIP3    H1 8880   4.680   4.841   3.765  0.2469 -0.8554  0.3448
 2958TIP3    H2 8881   4.783   4.786   3.668  0.2258 -1.8928  0.8984
 2959TIP3   OH2 8882   3.338   0.293   2.130 -0.1839 -0.3152  0.0763
 2959TIP3    H1 8883   3.260   0.245   2.158 -0.6376  0.2854 -0.1497
 2959TIP3    H2 8884   3.377   0.325   2.211 -0.1211 -0.6961  0.1963
 2960TIP3   OH2 8885   5.192   5.733   4.186 -0.0952  0.3917  0.0229
 2960TIP3    H1 8886   5.229   5.698   4.267  1.6976  0.6295 -0.6663
 2960TIP3    H2 8887   5.173   5.825   4.207  2.1561  0.9843 -0.3502
 2961TIP3   OH2 8888   4.436   5.808   4.856 -0.5531 -0.2782 -0.1447
 2961TIP3    H1 8889   4.417   5.717   4.834  0.8263 -1.0995  1.7194
 2961TIP3    H2 8890   4.427   5.811   4.951 -1.8979  1.9076 -0.2915
 2962TIP3   OH2 8891   4.993   0.721   3.956  0.6810  0.2328  0.1607
 2962TIP3    H1 8892   5.024   0.767   3.877  0.9679  1.7792  1.1370
 2962TIP3    H2 8893   4.903   0.695   3.935  1.4940 -1.5126 -1.5332
 2963TIP3   OH2 8894   0.568   3.335   2.994 -0.0488 -0.2738  0.2287
 2963TIP3    H1 8895   0.625   3.382   2.933  0.3446 -0.5302  0.3920
 2963TIP3    H2 8896   0.556   3.249   2.954 -1.0247  0.0661 -0.2247
 2964TIP3   OH2 8897   5.197   3.181   3.513  0.0048  0.2776 -0.9627
 2964TIP3    H1 8898   5.131   3.135   3.462 -0.7612  1.0378 -0.6770
 2964TIP3    H2 8899   5.148   3.230   3.578  0.8795  0.5302 -0.4712
 2965TIP3   OH2 8900   1.974   0.364   0.516  0.0131  0.1681 -0.2570
 2965TIP3    H1 8901   1.904   0.344   0.578 -1.1953 -0.1611 -1.6744
 2965TIP3    H2 8902   2.055   0.342   0.563 -0.9359 -1.5921  0.6388
 2966TIP3   OH2 8903   3.350   3.172   3.611 -0.2818  0.1577 -0.3875
 2966TIP3    H1 8904   3.280   3.237   3.616 -0.2542  0.2988 -1.5309
 2966TIP3    H2 8905   3.352   3.146   3.519  2.4306  1.6028 -0.8525
 2967TIP3   OH2 8906   1.174   1.420   3.829  0.7173  0.0896 -0.0959
 2967TIP3    H1 8907   1.268   1.438   3.824  0.4089  2.9024  2.0653
 2967TIP3    H2 8908   1.154   1.423   3.923 -1.2380 -2.6178 -0.2977
 2968TIP3   OH2 8909   3.195   4.867   0.657 -0.0441 -0.0529 -0.5618
 2968TIP3    H1 8910   3.114   4.867   0.605  0.2424 -0.0024 -1.0199
 2968TIP3    H2 8911   3.183   4.798   0.721 -0.6268  0.2415 -0.3517
 2969TIP3   OH2 8912   4.912   2.354   0.201 -0.0611 -0.2243 -0.6268
 2969TIP3    H1 8913   4.863   2.359   0.119 -0.1209 -0.0708 -0.5812
 2969TIP3    H2 8914   4.993   2.309   0.177 -0.1096 -0.2445 -0.7550
 2970TIP3   OH2 8915   0.772   0.001   3.156  0.2555  0.0707  0.5046
 2970TIP3    H1 8916   0.678  -0.017   3.161  0.3359 -0.9725 -0.8897
 2970TIP3    H2 8917   0.790   0.057   3.231 -1.4655  0.2347  0.8448
 2971TIP3   OH2 8918   0.548   2.837   3.878 -0.6315  0.1759 -0.3886
 2971TIP3    H1 8919   0.501   2.775   3.821  0.5219  0.0427 -1.2470
 2971TIP3    H2 8920   0.483   2.865   3.942 -1.0007 -2.6024  0.6129
 2972TIP3   OH2 8921   5.139   1.024   3.091  0.6947 -0.3962  0.5166
 2972TIP3    H1 8922   5.059   1.058   3.130 -0.1027 -1.2629 -0.2843
 2972TIP3    H2 8923   5.108   0.967   3.020  2.0374 -0.1412 -0.3112
 2973TIP3   OH2 8924   0.294   2.881   4.737 -0.3160  0.4367 -0.2609
 2973TIP3    H1 8925   0.260   2.826   4.807 -2.0471  1.4226 -0.2599
 2973TIP3    H2 8926   0.358   2.826   4.692  0.1736 -0.5238  1.5117
 2974TIP3   OH2 8927   6.363   1.010   2.067  0.1249  0.1368  0.0790
 2974TIP3    H1 8928   6.270   1.031   2.078 -0.0792 -0.2083 -0.9160
 2974TIP3    H2 8929   6.377   0.933   2.123 -0.5629 -0.7594 -0.9519
 2975TIP3   OH2 8930   5.817   2.621   2.474  0.1575 -0.4688 -0.0298
 2975TIP3    H1 8931   5.877   2.675   2.423  0.1689 -0.3165  0.1444
 2975TIP3    H2 8932   5.747   2.681   2.501 -0.4894 -0.8094 -0.8976
 2976TIP3   OH2 8933   5.914   1.468   4.307 -0.5825  0.0972 -0.3723
 2976TIP3    H1 8934   5.934   1.561   4.297  0.3157 -0.1562 -1.0397
 2976TIP3    H2 8935   5.980   1.435   4.368 -0.3460 -0.2759 -0.8200
 2977TIP3   OH2 8936   2.515   1.083   3.990 -0.0331 -0.2820 -0.3448
 2977TIP3    H1 8937   2.490   1.159   3.938 -0.4766 -0.5141 -0.4752
 2977TIP3    H2 8938   2.557   1.024   3.926  0.3753 -0.1208 -0.2303
 2978TIP3   OH2 8939   3.905   5.144   3.756 -0.1891  0.0785  0.1999
 2978TIP3    H1 8940   3.999   5.126   3.764 -0.1059  0.9332  1.4469
 2978TIP3    H2 8941   3.872   5.138   3.846 -1.2964  0.0242 -0.1914
 2979TIP3   OH2 8942   1.993   4.714   1.419  0.5692  0.1242 -0.2526
 2979TIP3    H1 8943   2.009   4.733   1.326 -0.2039  2.9443  0.1125
 2979TIP3    H2 8944   2.067   4.754   1.465 -0.8682  2.0413  0.5350
 2980TIP3   OH2 8945   5.820   1.604   3.674  0.0916  0.2243 -1.0652
 2980TIP3    H1 8946   5.883   1.615   3.603 -1.3776  3.2774 -2.0747
 2980TIP3    H2 8947   5.792   1.693   3.696 -0.2926 -0.6691  2.7163
 2981TIP3   OH2 8948   3.937   1.162   3.168  0.5032  0.4114  0.1502
 2981TIP3    H1 8949   3.889   1.153   3.086  1.7606 -1.3030 -0.4642
 2981TIP3    H2 8950   4.022   1.120   3.151  0.6505 -0.3630  2.4234
 2982TIP3   OH2 8951   1.228   3.716   3.517  0.4078 -0.4945 -0.0712
 2982TIP3    H1 8952   1.242   3.667   3.436 -1.2435  2.3501 -2.2491
 2982TIP3    H2 8953   1.153   3.674   3.558 -0.1260 -0.6472 -1.1826
 2983TIP3   OH2 8954   4.249   4.981   0.978 -0.6603 -0.3728  0.1216
 2983TIP3    H1 8955   4.277   5.051   0.918 -0.3833 -0.0238  0.6477
 2983TIP3    H2 8956   4.230   4.907   0.921 -0.5379 -0.0014 -0.4128
 2984TIP3   OH2 8957   2.382   2.470   1.491  0.0498  0.2295  0.0767
 2984TIP3    H1 8958   2.408   2.547   1.542  0.1634  0.0832  0.2402
 2984TIP3    H2 8959   2.393   2.497   1.400  0.4915  0.2705  0.1368
 2985TIP3   OH2 8960   6.025   3.542   2.557 -0.1627 -0.3214 -0.0369
 2985TIP3    H1 8961   6.044   3.450   2.576 -1.2823 -0.7965 -1.1171
 2985TIP3    H2 8962   6.058   3.556   2.469  1.4620  0.7830  0.7211
 2986TIP3   OH2 8963   5.932   3.288   3.201  0.1561  0.0753  0.7610
 2986TIP3    H1 8964   5.975   3.233   3.267  0.2746 -1.0657 -0.2214
 2986TIP3    H2 8965   5.926   3.231   3.124  0.1006  1.4027 -0.2360
 2987TIP3   OH2 8966   0.125   1.182   4.529  0.2629 -0.1181 -0.7862
 2987TIP3    H1 8967   0.049   1.239   4.539  1.1603  1.2109 -1.2018
 2987TIP3    H2 8968   0.137   1.141   4.615  0.1354  1.0403 -0.2008
 2988TIP3   OH2 8969   1.079   1.488   0.178  0.1094  0.1555  0.0899
 2988TIP3    H1 8970   1.023   1.518   0.249 -2.0966  0.0150 -1.4737
 2988TIP3    H2 8971   1.143   1.430   0.219 -1.0775  0.0896  1.9231
 2989TIP3   OH2 8972   0.127   2.741   4.375  0.2381  0.5139 -0.6183
 2989TIP3    H1 8973   0.161   2.671   4.318  1.3035  0.3349  0.2032
 2989TIP3    H2 8974   0.162   2.822   4.337 -0.0459  0.5047 -0.9048
 2990TIP3   OH2 8975   1.373   4.341   4.193  0.7423 -0.3889 -0.7015
 2990TIP3    H1 8976   1.319   4.329   4.271  0.2368 -0.2566 -1.0186
 2990TIP3    H2 8977   1.382   4.253   4.157  1.2575 -0.4958 -0.3135
 2991TIP3   OH2 8978   2.302   2.491   1.833  0.0901 -0.7843 -0.3962
 2991TIP3    H1 8979   2.300   2.533   1.919  1.3069  0.8431 -1.1082
 2991TIP3    H2 8980   2.264   2.556   1.774  3.7964  0.3545 -1.8607
 2992TIP3   OH2 8981   6.013   4.089   0.639  0.2267  0.0565 -0.2919
 2992TIP3    H1 8982   6.033   4.136   0.557 -0.5423  0.6422 -0.1601
 2992TIP3    H2 8983   6.025   3.997   0.617  1.4164  0.2813 -0.6637
 2993TIP3   OH2 8984   0.972   1.266   4.553  0.4972  0.5323 -0.5215
 2993TIP3    H1 8985   1.066   1.279   4.542  0.8301 -1.4900 -0.4936
 2993TIP3    H2 8986   0.945   1.222   4.472 -0.3033  0.5430 -0.2665
 2994TIP3   OH2 8987   4.773   0.142   2.459 -0.3040 -0.5321  0.4271
 2994TIP3    H1 8988   4.868   0.146   2.447 -0.2424  0.8931  1.1165
 2994TIP3    H2 8989   4.759   0.157   2.553 -1.2003 -0.8425  0.3565
 2995TIP3   OH2 8990   2.970   0.445   0.635  0.6433  0.4998  0.2590
 2995TIP3    H1 8991   2.923   0.524   0.610  1.0717  0.4252 -0.8223
 2995TIP3    H2 8992   3.062   0.471   0.637  0.9096 -0.2235 -1.2362
 2996TIP3   OH2 8993   3.032   1.157   2.360 -0.4704 -0.0717 -0.1898
 2996TIP3    H1 8994   2.963   1.105   2.401  0.7182 -0.8047  0.9767
 2996TIP3    H2 8995   3.054   1.224   2.425  1.7223 -1.5028  0.6727
 2997TIP3   OH2 8996   3.912   0.148   3.194  0.1755 -0.2065 -0.1634
 2997TIP3    H1 8997   3.817   0.156   3.190  0.3859  2.4720 -1.9543
 2997TIP3    H2 8998   3.944   0.237   3.212  2.3599 -1.2040  1.5043
 2998TIP3   OH2 8999   2.844   3.179   3.629 -0.3193 -0.0782  0.4681
 2998TIP3    H1 9000   2.903   3.190   3.703  0.3000  1.0317 -0.1670
 2998TIP3    H2 9001   2.872   3.096   3.590  1.4063  0.7933 -0.2857
 2999TIP3   OH2 9002   2.399   5.941   2.653  0.3142 -0.0174 -0.3269
 2999TIP3    H1 9003   2.396   5.861   2.706  1.1889 -0.6462 -1.1902
 2999TIP3    H2 9004   2.371   5.913   2.566 -0.4284  0.8614 -0.3844
 3000TIP3   OH2 9005   1.095   3.739   1.317 -0.4745  0.1327  0.4079
 3000TIP3    H1 9006   1.095   3.648   1.289 -1.4210 -0.4042  1.9974
 3000TIP3    H2 9007   1.007   3.753   1.353 -0.4221  1.7507 -0.0069
 3001TIP3   OH2 9008   5.163   5.564   1.581 -0.3207  0.0109 -0.2315
 3001TIP3    H1 9009   5.191   5.577   1.672 -1.4919 -1.4922  0.3738
 3001TIP3    H2 9010   5.071   5.541   1.587 -0.8056  1.3269 -1.9354
 3002TIP3   OH2 9011   5.345   5.266   3.335  0.3280  0.2078  0.9293
 3002TIP3    H1 9012   5.318   5.195   3.394  0.0569 -1.8782 -1.5487
 3002TIP3    H2 9013   5.263   5.301   3.300  0.5238 -0.4668 -0.2625
 3003TIP3   OH2 9014   4.248   2.003   1.820  0.1187  0.3407 -0.2480
 3003TIP3    H1 9015   4.208   1.990   1.734 -0.6938  1.8708 -0.1395
 3003TIP3    H2 9016   4.317   2.068   1.805  0.1574  0.4021  0.1882
 3004TIP3   OH2 9017   2.081   1.638   3.214  0.2853 -0.2228 -0.5431
 3004TIP3    H1 9018   2.087   1.713   3.155 -0.6187 -0.4184 -0.9084
 3004TIP3    H2 9019   1.996   1.649   3.256  0.4483 -0.6800 -0.0934
 3005TIP3   OH2 9020   5.298   0.845   3.750  0.0826  0.3426 -0.0707
 3005TIP3    H1 9021   5.299   0.822   3.843 -1.3488  1.2002  0.2034
 3005TIP3    H2 9022   5.321   0.938   3.748 -3.0547  1.2329 -0.1755
 3006TIP3   OH2 9023   0.442   5.688   2.810 -0.3124  0.1822 -0.3400
 3006TIP3    H1 9024   0.488   5.698   2.894  0.0444 -1.0291 -0.3840
 3006TIP3    H2 9025   0.497   5.734   2.747 -0.2055  0.4718 -0.0385
 3007TIP3   OH2 9026   0.129   4.477   1.937 -0.5062 -0.5473 -0.2502
 3007TIP3    H1 9027   0.196   4.491   2.003 -1.2429 -1.9256  0.8471
 3007TIP3    H2 9028   0.176   4.443   1.861  0.5491  2.3733 -1.0191
 3008TIP3   OH2 9029   1.785   2.638   1.796  0.1442  0.2043  0.3936
 3008TIP3    H1 9030   1.778   2.704   1.865 -1.4707 -0.1374  0.6051
 3008TIP3    H2 9031   1.818   2.560   1.840 -1.8707 -0.3273  1.0542
 3009TIP3   OH2 9032   3.534   3.392   2.009  0.1110 -0.3058 -0.1808
 3009TIP3    H1 9033   3.593   3.462   1.980  1.5778 -1.5014 -0.2502
 3009TIP3    H2 9034   3.513   3.414   2.099  1.4756 -0.3348  0.1720
 3010TIP3   OH2 9035   0.890   4.430   4.322 -0.2360  0.1608 -0.3061
 3010TIP3    H1 9036   0.911   4.523   4.335  0.1171  0.0360  0.0212
 3010TIP3    H2 9037   0.807   4.431   4.274 -1.9225  0.6698  2.4203
 3011TIP3   OH2 9038   0.819   1.818   5.055 -0.2479  0.5405 -0.1906
 3011TIP3    H1 9039   0.874   1.770   5.117 -0.2384  0.7653 -0.0238
 3011TIP3    H2 9040   0.872   1.822   4.975 -0.2214  0.3314 -0.1850
 3012TIP3   OH2 9041   4.292   0.113   1.867 -0.0944  0.3451  0.0649
 3012TIP3    H1 9042   4.222   0.164   1.826  0.0286  1.2711  0.9803
 3012TIP3    H2 9043   4.266   0.104   1.958 -0.5278 -1.9991 -0.2344
 3013TIP3   OH2 9044   0.233   3.216   2.223 -0.0359 -0.2213  0.2329
 3013TIP3    H1 9045   0.285   3.277   2.170  0.0143 -0.7863 -0.3701
 3013TIP3    H2 9046   0.297   3.169   2.276 -0.1273  0.7741  1.2840
 3014TIP3   OH2 9047   3.766   4.326   4.790 -0.0053  0.1106 -0.7546
 3014TIP3    H1 9048   3.672   4.308   4.787  0.2757 -1.8452  0.2428
 3014TIP3    H2 9049   3.807   4.251   4.748  1.1861 -0.2265  0.8825
 3015TIP3   OH2 9050   5.276   5.572   0.889  0.0700 -0.0279  0.1702
 3015TIP3    H1 9051   5.192   5.616   0.880  0.4190  0.9980  1.6773
 3015TIP3    H2 9052   5.254   5.479   0.891 -0.9457  0.1913 -0.1493
 3016TIP3   OH2 9053   1.390   3.328   0.240  0.3133  0.0020  0.0924
 3016TIP3    H1 9054   1.326   3.275   0.286 -0.2357 -0.3684 -1.0669
 3016TIP3    H2 9055   1.410   3.400   0.300 -1.0846  0.0517  0.5205
 3017TIP3   OH2 9056   2.828   1.854   4.758  0.1649  0.1173 -0.2641
 3017TIP3    H1 9057   2.869   1.783   4.707  1.0640 -0.2322  0.9113
 3017TIP3    H2 9058   2.752   1.813   4.800  1.0697 -0.3458  0.9540
 3018TIP3   OH2 9059   3.367   5.265   4.842 -0.0522 -0.0475  0.5827
 3018TIP3    H1 9060   3.296   5.249   4.903 -0.5493 -0.2274 -0.0327
 3018TIP3    H2 9061   3.324   5.295   4.762  0.5025 -0.9439 -0.0696
 3019TIP3   OH2 9062   5.031   5.382   3.043 -0.4006 -0.2106  0.1647
 3019TIP3    H1 9063   4.944   5.378   3.081 -0.0854 -0.0414  0.9126
 3019TIP3    H2 9064   5.089   5.402   3.116  0.2344 -0.0337 -0.3716
 3020TIP3   OH2 9065   1.221   5.705   0.964 -0.1196 -0.4121  0.3948
 3020TIP3    H1 9066   1.284   5.741   1.026 -0.1142 -0.1254  0.2247
 3020TIP3    H2 9067   1.146   5.765   0.969 -1.0203 -1.5943  1.7277
 3021TIP3   OH2 9068   5.374   2.574   2.605 -0.4038 -0.2137 -0.0786
 3021TIP3    H1 9069   5.282   2.563   2.629 -0.0270 -1.2398  0.9814
 3021TIP3    H2 9070   5.401   2.487   2.575  0.7625 -0.4949  1.6474
 3022TIP3   OH2 9071   2.515   5.163   0.361 -0.3585 -0.2074 -0.6909
 3022TIP3    H1 9072   2.453   5.235   0.352  0.4868  1.0531  2.2924
 3022TIP3    H2 9073   2.465   5.092   0.400 -0.2339  0.4523  0.7451
 3023TIP3   OH2 9074   1.459   3.771   1.824 -0.2408 -0.3278  0.1357
 3023TIP3    H1 9075   1.422   3.685   1.843 -0.3050 -0.6338 -1.2596
 3023TIP3    H2 9076   1.550   3.765   1.852 -0.4824 -0.5250  0.9085
 3024TIP3   OH2 9077   2.434   2.461   1.199 -0.2456  0.3864 -0.6799
 3024TIP3    H1 9078   2.394   2.424   1.119 -1.3798  0.7516 -0.3051
 3024TIP3    H2 9079   2.501   2.521   1.166  0.4876 -0.7549 -1.3221
 3025TIP3   OH2 9080   5.455   0.015   3.122  0.2832  0.1642  0.0701
 3025TIP3    H1 9081   5.415  -0.072   3.119  0.1837  0.1884  0.5890
 3025TIP3    H2 9082   5.407   0.066   3.056  0.5282 -0.2491 -0.4323
 3026TIP3   OH2 9083   0.307   3.093   2.581  0.2975 -0.8400  0.0906
 3026TIP3    H1 9084   0.379   3.035   2.555 -0.9089 -1.4226 -2.1071
 3026TIP3    H2 9085   0.351   3.167   2.623  2.1159 -1.5850 -0.4011
 3027TIP3   OH2 9086   4.284   3.042   4.855  0.3176 -0.3450  0.1751
 3027TIP3    H1 9087   4.338   3.122   4.855  0.5930 -0.3920  3.7383
 3027TIP3    H2 9088   4.210   3.063   4.912  0.7929 -2.8052  1.8618
 3028TIP3   OH2 9089   0.700   0.922   0.584  0.4319 -0.5371  0.6015
 3028TIP3    H1 9090   0.718   0.840   0.539  2.8677  1.1577 -1.8556
 3028TIP3    H2 9091   0.756   0.920   0.662  1.7708 -0.5728 -0.3310
 3029TIP3   OH2 9092   4.579   4.005   1.372 -0.4452 -0.4905  0.2737
 3029TIP3    H1 9093   4.645   3.969   1.313  1.0584 -0.0526  1.6130
 3029TIP3    H2 9094   4.579   3.945   1.447  2.4029  2.2379  2.7500
 3030TIP3   OH2 9095   5.408   0.166   3.852 -0.1644 -0.2806 -0.3597
 3030TIP3    H1 9096   5.469   0.238   3.862 -0.4672  0.3203 -2.3149
 3030TIP3    H2 9097   5.321   0.207   3.855 -0.3244 -0.3034 -2.6046
 3031TIP3   OH2 9098   4.574   5.800   3.451 -0.2747  0.2648  0.0051
 3031TIP3    H1 9099   4.604   5.880   3.495 -0.2683  1.6233 -2.3323
 3031TIP3    H2 9100   4.490   5.779   3.492 -0.1796  1.3617  0.7813
 3032TIP3   OH2 9101   4.942   4.201   3.212  0.4263  0.0638  0.1663
 3032TIP3    H1 9102   5.015   4.262   3.204  1.0200 -0.6031  0.4356
 3032TIP3    H2 9103   4.866   4.257   3.230  1.2297  0.6355  1.9512
 3033TIP3   OH2 9104   1.580   2.900   0.056  0.4340 -0.3836 -0.2555
 3033TIP3    H1 9105   1.559   2.874   0.145  2.3319 -2.0182 -0.2314
 3033TIP3    H2 9106   1.575   2.996   0.057 -0.9194 -0.4360  1.2123
 3034TIP3   OH2 9107   1.139   1.916   4.687  0.3158  0.4568  0.2966
 3034TIP3    H1 9108   1.117   1.872   4.768  1.9526 -1.0535  0.0084
 3034TIP3    H2 9109   1.145   1.845   4.622 -1.7482  1.6932 -1.3751
 3035TIP3   OH2 9110   2.065   4.980   0.841 -0.0490 -0.0563 -0.4377
 3035TIP3    H1 9111   2.052   4.890   0.812 -0.3214  0.0268 -0.5818
 3035TIP3    H2 9112   1.980   5.023   0.826 -0.7272 -0.4021  1.9998
 3036TIP3   OH2 9113   5.243   1.129   3.557 -0.4707 -0.2812  0.3490
 3036TIP3    H1 9114   5.206   1.196   3.615 -1.5284 -0.9712  0.5106
 3036TIP3    H2 9115   5.261   1.176   3.475 -0.5794  0.3410  0.6722
 3037TIP3   OH2 9116   2.516   5.537   0.419  0.0288  0.6108 -0.1272
 3037TIP3    H1 9117   2.541   5.594   0.347  1.3705  0.8945  0.5298
 3037TIP3    H2 9118   2.599   5.505   0.455 -0.3985  2.3011  2.7339
 3038TIP3   OH2 9119   1.905   1.513   3.483  0.0591  0.5375  0.7593
 3038TIP3    H1 9120   1.843   1.492   3.413  0.4295 -1.5317  1.0181
 3038TIP3    H2 9121   1.857   1.494   3.564  0.1750  1.4144  1.0476
 3039TIP3   OH2 9122   1.775   4.216   1.761 -0.0897  0.5414 -0.2945
 3039TIP3    H1 9123   1.769   4.164   1.841  1.3901 -1.0984 -1.1802
 3039TIP3    H2 9124   1.694   4.196   1.713  0.8486 -1.8463 -1.0613
 3040TIP3   OH2 9125   2.030   5.361   3.064  0.1874  0.0120 -0.2793
 3040TIP3    H1 9126   1.970   5.379   2.992 -0.1067 -0.9063 -0.2742
 3040TIP3    H2 9127   2.088   5.292   3.031 -0.8164 -1.4248  0.7923
 3041TIP3   OH2 9128   2.002   0.821   4.630 -0.2573 -0.5063 -0.2248
 3041TIP3    H1 9129   1.931   0.818   4.695  0.6393  1.2212  0.9218
 3041TIP3    H2 9130   1.957   0.811   4.546 -1.6399 -1.2645  0.5525
 3042TIP3   OH2 9131   2.756   5.650   3.420 -0.1612  0.0291  0.2081
 3042TIP3    H1 9132   2.725   5.596   3.347 -0.5217 -1.4304  1.3971
 3042TIP3    H2 9133   2.680   5.661   3.476  0.6752 -0.9552  1.5920
 3043TIP3   OH2 9134   6.292   0.437   0.666  0.3927 -0.0673  0.3263
 3043TIP3    H1 9135   6.315   0.350   0.635 -1.1854  0.0326 -1.2560
 3043TIP3    H2 9136   6.213   0.425   0.718 -0.2677  0.4984 -0.5274
 3044TIP3   OH2 9137   3.014   5.020   4.362 -0.0893 -0.3967  0.2978
 3044TIP3    H1 9138   3.107   5.023   4.388  0.6821  0.6331 -2.2424
 3044TIP3    H2 9139   3.010   5.072   4.281 -2.8125 -0.8340  0.0545
 3045TIP3   OH2 9140   5.545   5.117   3.658  0.1087 -0.3225  0.2669
 3045TIP3    H1 9141   5.526   5.129   3.751 -0.9455 -1.0849  0.1691
 3045TIP3    H2 9142   5.626   5.067   3.656  0.1353 -0.3021  0.7738
 3046TIP3   OH2 9143   5.208   5.682   4.723 -0.0662 -0.2594 -0.0087
 3046TIP3    H1 9144   5.129   5.694   4.671  0.0357  0.9319  0.0819
 3046TIP3    H2 9145   5.211   5.588   4.742 -1.7157 -0.2411  0.4124
 3047TIP3   OH2 9146   0.488   3.911   2.709 -0.3348 -0.2427  0.1172
 3047TIP3    H1 9147   0.576   3.947   2.699 -1.1074  1.4392 -1.1940
 3047TIP3    H2 9148   0.453   3.953   2.787 -0.9030  1.2585 -0.8942
 3048TIP3   OH2 9149   2.492   2.563   0.093  0.3944  0.2077 -0.0843
 3048TIP3    H1 9150   2.556   2.571   0.022 -2.2824  1.1560 -2.5642
 3048TIP3    H2 9151   2.466   2.471   0.091 -0.8065  0.5366 -1.4974
 3049TIP3   OH2 9152   4.278   0.468   1.037  0.1598  0.6884  0.2776
 3049TIP3    H1 9153   4.298   0.554   1.000 -0.3587  2.0703  2.9671
 3049TIP3    H2 9154   4.194   0.480   1.082 -0.8750 -1.7714 -0.8055
 3050TIP3   OH2 9155   0.642   0.465   3.919  0.7742  0.8948 -0.3010
 3050TIP3    H1 9156   0.724   0.448   3.873  0.2909  1.6856 -1.5034
 3050TIP3    H2 9157   0.603   0.538   3.872 -1.4781 -0.5802 -0.8917
 3051TIP3   OH2 9158   3.022   0.491   1.396  0.0904  0.1252  0.7630
 3051TIP3    H1 9159   3.037   0.569   1.449  0.5583 -0.9914  2.3623
 3051TIP3    H2 9160   3.109   0.465   1.366 -0.0964  0.3760 -0.0003
 3052TIP3   OH2 9161   3.234   3.172   4.028  0.7960  0.4089 -0.4105
 3052TIP3    H1 9162   3.255   3.263   4.048  2.7068  0.1492 -0.9978
 3052TIP3    H2 9163   3.161   3.177   3.967  0.3467  1.4993  0.1910
 3053TIP3   OH2 9164   4.452   4.818   0.072 -0.0939  0.6581  0.3765
 3053TIP3    H1 9165   4.469   4.906   0.036 -0.9316  0.0925 -1.5320
 3053TIP3    H2 9166   4.410   4.771  -0.000 -1.0712 -0.8483  1.8744
 3054TIP3   OH2 9167   3.920   1.165   4.602 -0.1341  0.2052  0.3108
 3054TIP3    H1 9168   3.842   1.172   4.547 -0.2342 -0.5072  0.3609
 3054TIP3    H2 9169   3.993   1.160   4.540 -0.1856  0.1492  0.2547
 3055TIP3   OH2 9170   4.571   5.769   2.702  0.1585  0.3155 -0.3104
 3055TIP3    H1 9171   4.518   5.689   2.692 -0.1672  0.1432  2.1594
 3055TIP3    H2 9172   4.508   5.837   2.724  0.6717  0.8112 -0.3437
 3056TIP3   OH2 9173   3.289   5.702   2.726 -0.4147 -0.5894 -0.6270
 3056TIP3    H1 9174   3.375   5.709   2.766 -0.2208  2.1826 -1.3081
 3056TIP3    H2 9175   3.228   5.707   2.799 -0.0301  3.0841 -0.3373
 3057TIP3   OH2 9176   4.949   4.237   0.158  0.9731  0.4261  0.0867
 3057TIP3    H1 9177   4.890   4.205   0.090  1.3606  0.5259 -0.3004
 3057TIP3    H2 9178   5.007   4.298   0.113  0.7053  1.1260  0.6737
 3058TIP3   OH2 9179   5.107   3.999   3.013 -0.4765  0.5106 -0.4502
 3058TIP3    H1 9180   5.199   4.024   3.021 -0.6830  0.9678  0.5538
 3058TIP3    H2 9181   5.109   3.904   3.002 -0.0438 -0.2870  4.4939
 3059TIP3   OH2 9182   0.550   0.299   3.121 -0.3234  0.0520 -0.6288
 3059TIP3    H1 9183   0.564   0.367   3.187 -3.0052  0.4796 -0.3819
 3059TIP3    H2 9184   0.545   0.218   3.171  1.8297 -0.2614 -0.8190
 3060TIP3   OH2 9185   5.645   2.931   3.175 -0.9003 -0.2098  0.3329
 3060TIP3    H1 9186   5.561   2.891   3.196 -0.3687 -2.0520 -0.8472
 3060TIP3    H2 9187   5.651   2.927   3.080 -0.1781  1.4660  0.2608
 3061TIP3   OH2 9188   2.178   5.622   3.450 -0.2800  0.2401  0.0099
 3061TIP3    H1 9189   2.107   5.570   3.488 -0.2170 -0.0658 -0.2835
 3061TIP3    H2 9190   2.161   5.621   3.355 -0.5490  1.1582  0.0321
 3062TIP3   OH2 9191   5.120   4.722   1.429  0.1424 -0.5039 -0.1639
 3062TIP3    H1 9192   5.152   4.747   1.516 -1.9796 -0.3669  0.6404
 3062TIP3    H2 9193   5.183   4.657   1.398  0.6731 -0.9470  1.7138
 3063TIP3   OH2 9194   1.866   0.736   3.106 -0.9232 -0.1834 -0.6848
 3063TIP3    H1 9195   1.926   0.691   3.046 -0.5493 -0.0096 -0.4475
 3063TIP3    H2 9196   1.906   0.822   3.118  0.0488 -0.8540  1.3118
 3064TIP3   OH2 9197   6.233   4.850   1.499  0.3923  0.4914 -0.0025
 3064TIP3    H1 9198   6.296   4.828   1.569  0.5868  2.8587  0.6402
 3064TIP3    H2 9199   6.201   4.937   1.522 -1.8252  0.0972 -1.2930
 3065TIP3   OH2 9200   5.799   5.175   3.919  0.1721 -0.7660  0.1401
 3065TIP3    H1 9201   5.747   5.096   3.907 -0.7957 -0.2971  1.0866
 3065TIP3    H2 9202   5.738   5.247   3.905  1.0119 -0.1616 -0.5855
 3066TIP3   OH2 9203   1.253   0.426   4.193  0.1672  0.3016 -0.2071
 3066TIP3    H1 9204   1.301   0.502   4.226  0.0662  0.7732 -1.1211
 3066TIP3    H2 9205   1.178   0.417   4.252  1.7105 -0.9087  1.7332
 3067TIP3   OH2 9206   4.066   4.076   4.208 -0.3371 -0.3349  0.2603
 3067TIP3    H1 9207   4.027   4.008   4.263  0.1991 -1.1168 -0.2877
 3067TIP3    H2 9208   4.074   4.035   4.121 -1.0297  0.8205 -0.3665
 3068TIP3   OH2 9209   1.412   1.359   4.098  0.1507  0.1443  0.0031
 3068TIP3    H1 9210   1.406   1.386   4.190  0.6124 -0.9031  0.3563
 3068TIP3    H2 9211   1.446   1.436   4.053 -2.1326  1.4469  0.2964
 3069TIP3   OH2 9212   3.007   3.285   1.761 -0.3752 -0.4103  0.0130
 3069TIP3    H1 9213   3.022   3.355   1.697  1.7050 -2.8736 -2.4678
 3069TIP3    H2 9214   3.091   3.277   1.807 -0.0110 -2.2265 -0.8799
 3070TIP3   OH2 9215   3.714   3.737   4.908  0.1323 -0.4285 -0.1505
 3070TIP3    H1 9216   3.783   3.715   4.971 -0.8518  0.7334  1.3873
 3070TIP3    H2 9217   3.636   3.748   4.961 -1.1085 -0.9903 -1.7859
 3071TIP3   OH2 9218   2.194   5.753   0.879 -0.5282 -0.0525  0.0052
 3071TIP3    H1 9219   2.140   5.821   0.920  0.6898  0.3991  0.9141
 3071TIP3    H2 9220   2.158   5.671   0.911 -0.9875  0.2179  0.1918
 3072TIP3   OH2 9221   5.877   5.029   0.309  0.0383  0.4244 -0.3872
 3072TIP3    H1 9222   5.831   5.112   0.327 -0.2441 -0.0991  1.5340
 3072TIP3    H2 9223   5.830   4.991   0.236 -0.0024  1.8231 -1.1274
 3073TIP3   OH2 9224   0.441   3.054   1.641  0.4643  0.2909  0.6387
 3073TIP3    H1 9225   0.383   3.116   1.686  1.4809  1.7222  0.0680
 3073TIP3    H2 9226   0.528   3.074   1.676  0.7920 -1.0116  0.6197
 3074TIP3   OH2 9227   5.127   2.590   2.720 -0.5646  0.2119 -0.3812
 3074TIP3    H1 9228   5.052   2.560   2.668  0.4326 -0.2627 -1.5970
 3074TIP3    H2 9229   5.087   2.640   2.792 -2.1429 -1.7284  0.1974
 3075TIP3   OH2 9230   4.294   2.636   2.390 -0.2321 -0.4549 -0.4392
 3075TIP3    H1 9231   4.350   2.677   2.324 -0.5372  1.0114  0.1878
 3075TIP3    H2 9232   4.213   2.687   2.389 -0.0225 -0.0160  1.4665
 3076TIP3   OH2 9233   4.441   4.760   4.394 -0.0204 -0.3269 -0.5791
 3076TIP3    H1 9234   4.449   4.670   4.426 -0.5730 -0.4664 -0.8234
 3076TIP3    H2 9235   4.366   4.796   4.441  0.6138  0.2279  0.0158
 3077TIP3   OH2 9236   5.501   3.747   3.230  0.7132  0.3556  0.2704
 3077TIP3    H1 9237   5.469   3.814   3.171 -1.1450  0.0018  0.8263
 3077TIP3    H2 9238   5.493   3.665   3.181 -0.8282  0.0621  0.9653
 3078TIP3   OH2 9239   3.665   5.131   4.003 -0.3337 -0.4516  0.3412
 3078TIP3    H1 9240   3.737   5.067   4.013 -0.5399 -0.3611  3.3514
 3078TIP3    H2 9241   3.663   5.178   4.087 -2.1561  1.4577 -0.6849
 3079TIP3   OH2 9242   4.525   1.429   2.207  0.9989 -0.2919 -0.1865
 3079TIP3    H1 9243   4.463   1.407   2.276  1.4488  0.7204  0.5572
 3079TIP3    H2 9244   4.470   1.452   2.132  0.5073 -1.0363 -0.0649
 3080TIP3   OH2 9245   2.226   3.642   4.902 -0.4761  0.1027 -0.1437
 3080TIP3    H1 9246   2.190   3.718   4.856 -0.3320 -0.4844 -1.2491
 3080TIP3    H2 9247   2.162   3.623   4.971 -0.3399  1.4276  0.3781
 3081TIP3   OH2 9248   3.310   5.542   4.991 -0.1212 -0.1667 -0.2585
 3081TIP3    H1 9249   3.246   5.476   5.018 -0.7423  1.4104  2.4474
 3081TIP3    H2 9250   3.392   5.513   5.031  0.0257 -0.2260 -0.5970
 3082TIP3   OH2 9251   5.272   4.425   1.980 -0.6619  0.3293  0.1479
 3082TIP3    H1 9252   5.319   4.342   1.987 -1.3920 -0.1448 -0.3651
 3082TIP3    H2 9253   5.242   4.443   2.069  0.6315  0.7430  0.5201
 3083TIP3   OH2 9254   4.671   4.130   0.406  0.3116 -0.5488 -0.6812
 3083TIP3    H1 9255   4.695   4.039   0.388 -0.0915 -0.9171  0.5396
 3083TIP3    H2 9256   4.580   4.137   0.378  0.1923 -0.6636 -0.3280
 3084TIP3   OH2 9257   4.306   0.407   3.256  0.2183  0.2524  0.3378
 3084TIP3    H1 9258   4.400   0.424   3.258  0.1192  0.8272  2.4769
 3084TIP3    H2 9259   4.294   0.330   3.311 -0.5802  0.2689  0.2017
 3085TIP3   OH2 9260   0.819   5.727   0.785 -0.0711  0.2152  0.2393
 3085TIP3    H1 9261   0.827   5.679   0.868  1.4283  0.0872  0.0484
 3085TIP3    H2 9262   0.812   5.659   0.718 -3.5752  0.2744  0.3455
 3086TIP3   OH2 9263   2.866   2.713   3.002 -0.1009  0.1164 -0.2570
 3086TIP3    H1 9264   2.803   2.646   2.973  0.9736 -1.3523  0.6356
 3086TIP3    H2 9265   2.918   2.732   2.924 -0.2833 -0.2556 -0.4732
 3087TIP3   OH2 9266   4.046   2.678   0.918  0.2721 -0.0838  0.2325
 3087TIP3    H1 9267   4.080   2.719   0.997 -0.2673  0.5478  0.1450
 3087TIP3    H2 9268   3.953   2.666   0.935  0.0761  0.4203 -0.4507
 3088TIP3   OH2 9269   4.966   0.576   2.053 -0.5494 -0.4471 -0.1816
 3088TIP3    H1 9270   5.013   0.544   2.131  0.2645  1.1456  0.0230
 3088TIP3    H2 9271   4.991   0.515   1.984  0.1696 -0.8430  0.4033
 3089TIP3   OH2 9272   4.634   1.427   1.516 -0.3252 -0.3790 -0.2572
 3089TIP3    H1 9273   4.702   1.390   1.459 -0.2536 -0.3668 -0.1788
 3089TIP3    H2 9274   4.652   1.521   1.518  1.0854 -0.6333  1.6454
 3090TIP3   OH2 9275   3.707   5.021   3.246  0.0055  0.2126 -0.2339
 3090TIP3    H1 9276   3.710   4.990   3.155  1.7368 -0.3282 -0.0259
 3090TIP3    H2 9277   3.615   5.044   3.260 -0.8262 -2.1328 -1.2924
 3091TIP3   OH2 9278   5.653   0.369   5.064  0.1246 -0.1039 -0.5400
 3091TIP3    H1 9279   5.564   0.395   5.040  0.4534  0.5949 -1.0065
 3091TIP3    H2 9280   5.640   0.295   5.124 -0.8651  1.7794  1.7091
 3092TIP3   OH2 9281   5.101   0.923   4.914 -0.3478 -0.1593  0.0313
 3092TIP3    H1 9282   5.011   0.892   4.905  0.0498 -1.3089 -0.1179
 3092TIP3    H2 9283   5.100   1.010   4.875 -1.4231 -0.1008  0.1518
 3093TIP3   OH2 9284   3.890   5.569   1.836  0.0978 -0.4242  0.2487
 3093TIP3    H1 9285   3.828   5.639   1.856  0.8287  0.7468 -1.4238
 3093TIP3    H2 9286   3.920   5.586   1.747  1.1202 -2.2614  0.1720
 3094TIP3   OH2 9287   2.329   3.055   2.960  0.0932 -0.5248  0.1349
 3094TIP3    H1 9288   2.345   3.148   2.972 -1.1245  0.5669 -4.6041
 3094TIP3    H2 9289   2.414   3.018   2.938  0.3819 -0.3642  0.9319
 3095TIP3   OH2 9290   6.220   0.481   1.328  0.5656  0.9584 -0.6864
 3095TIP3    H1 9291   6.243   0.523   1.411  0.0108 -2.6902  1.5340
 3095TIP3    H2 9292   6.302   0.479   1.279  1.5990  0.8159  0.9581
 3096TIP3   OH2 9293   0.677   4.759   3.772 -0.7377 -0.8087  0.0251
 3096TIP3    H1 9294   0.595   4.746   3.821 -0.5936 -1.6889  0.0561
 3096TIP3    H2 9295   0.730   4.682   3.795 -0.3896 -0.8680 -0.9499
 3097TIP3   OH2 9296   4.647   0.293   1.385  0.1541 -0.2961  0.1428
 3097TIP3    H1 9297   4.580   0.265   1.447 -0.0612  2.0028  1.0657
 3097TIP3    H2 9298   4.600   0.305   1.302 -0.0663 -1.0138  0.1625
 3098TIP3   OH2 9299   4.892   1.301   1.639 -0.0311 -0.0089  0.2604
 3098TIP3    H1 9300   4.944   1.279   1.717  0.4235  0.5702  0.1281
 3098TIP3    H2 9301   4.874   1.395   1.648 -1.7809 -0.3571  0.7248
 3099TIP3   OH2 9302   3.825   0.634   1.583  0.0646  0.1585 -0.0178
 3099TIP3    H1 9303   3.871   0.704   1.537 -0.5661 -0.4959 -1.7774
 3099TIP3    H2 9304   3.894   0.580   1.621  0.7731 -0.2208 -1.7185
 3100TIP3   OH2 9305   6.284   5.132   2.378  0.0521 -0.1224  0.1823
 3100TIP3    H1 9306   6.374   5.115   2.406  1.8868  0.4193 -4.4514
 3100TIP3    H2 9307   6.278   5.227   2.374 -0.6969 -0.1588  0.2775
 3101TIP3   OH2 9308   5.982   5.545   3.700  0.2953 -0.3601  0.2610
 3101TIP3    H1 9309   5.906   5.489   3.685  1.6826 -2.1445 -0.4457
 3101TIP3    H2 9310   6.003   5.581   3.614  1.2636 -1.3026  0.0703
 3102TIP3   OH2 9311   1.891   3.414   1.149  0.1576  0.1198  0.3170
 3102TIP3    H1 9312   1.954   3.346   1.129  0.1208  0.1969 -0.0826
 3102TIP3    H2 9313   1.848   3.432   1.065  0.1202  0.5839  0.4291
 3103TIP3   OH2 9314   5.418   4.647   0.508 -0.3262  0.0602 -0.6091
 3103TIP3    H1 9315   5.427   4.728   0.559  2.1388 -0.1878 -0.5272
 3103TIP3    H2 9316   5.359   4.592   0.561  0.3871  0.6598  0.8761
 3104TIP3   OH2 9317   4.519   4.816   0.351 -0.3870 -0.1263 -0.4067
 3104TIP3    H1 9318   4.520   4.907   0.378 -0.1864 -0.5679  1.1504
 3104TIP3    H2 9319   4.491   4.818   0.259  0.4918  1.5515 -0.6682
 3105TIP3   OH2 9320   1.258   5.064   1.019 -0.3490  0.3535 -0.3141
 3105TIP3    H1 9321   1.190   4.998   1.031 -0.3044  0.2880 -0.4227
 3105TIP3    H2 9322   1.317   5.027   0.953  1.3817 -0.8757  1.7909
 3106TIP3   OH2 9323   4.448   5.286   0.266  0.7100 -0.1820  0.4295
 3106TIP3    H1 9324   4.443   5.356   0.331  0.7801 -1.2579  1.6238
 3106TIP3    H2 9325   4.381   5.308   0.202 -0.4857  0.0670  1.7212
 3107TIP3   OH2 9326   2.097   3.246   1.081  0.3522  0.1716 -0.3999
 3107TIP3    H1 9327   2.059   3.172   1.034  1.0672 -0.9153  0.6545
 3107TIP3    H2 9328   2.176   3.268   1.032 -0.3848  0.9157 -1.2813
 3108TIP3   OH2 9329   3.441   2.079   2.015  0.3378  0.0593 -0.5718
 3108TIP3    H1 9330   3.436   2.027   1.935 -2.2287  1.0466 -1.1704
 3108TIP3    H2 9331   3.507   2.146   1.997 -0.0242  0.1117 -1.7812
 3109TIP3   OH2 9332   2.556   5.739   3.619 -0.7030 -0.0376  0.1496
 3109TIP3    H1 9333   2.589   5.813   3.670 -0.3225  0.1264 -0.3262
 3109TIP3    H2 9334   2.583   5.662   3.670  1.2199  0.0453 -0.6366
 3110TIP3   OH2 9335   5.608  -0.011   0.243  0.2644 -0.4017 -0.0221
 3110TIP3    H1 9336   5.663   0.066   0.232 -1.0594  0.3412 -1.8587
 3110TIP3    H2 9337   5.562  -0.021   0.160 -0.3268 -2.6159  0.4951
 3111TIP3   OH2 9338  -0.022   1.497   4.844 -0.6196 -0.1246  0.5076
 3111TIP3    H1 9339  -0.018   1.590   4.822  0.7506 -0.0367  0.9947
 3111TIP3    H2 9340   0.051   1.485   4.906 -1.1689 -1.3900  0.9282
 3112TIP3   OH2 9341   0.081   4.887   3.627  0.0912  0.0510  0.8420
 3112TIP3    H1 9342   0.118   4.969   3.594  0.5256 -0.7994 -0.9075
 3112TIP3    H2 9343   0.070   4.832   3.549 -0.8172 -1.3215  1.8758
 3113TIP3   OH2 9344   1.946   2.926   1.307  0.0075 -0.0538 -0.2271
 3113TIP3    H1 9345   1.922   2.896   1.395 -1.6592 -0.6748 -0.8378
 3113TIP3    H2 9346   1.866   2.968   1.274  1.2187  1.9456 -0.7313
 3114TIP3   OH2 9347   3.712   5.166   2.670  0.1238  0.0358  0.5340
 3114TIP3    H1 9348   3.746   5.093   2.721  1.0285 -0.6100 -0.9051
 3114TIP3    H2 9349   3.771   5.239   2.690 -0.6518  0.3409  1.8083
 3115TIP3   OH2 9350   5.406   5.095   0.449  0.0852  0.0418  0.4939
 3115TIP3    H1 9351   5.322   5.113   0.406  0.9125  0.6913 -0.9204
 3115TIP3    H2 9352   5.442   5.182   0.467  0.9237 -0.2200  0.1243
 3116TIP3   OH2 9353   3.430   5.275   4.369  0.2575  0.2789 -0.4692
 3116TIP3    H1 9354   3.424   5.336   4.442 -1.7409 -0.2811 -0.1054
 3116TIP3    H2 9355   3.424   5.329   4.291 -1.3227  0.5977 -0.1534
 3117TIP3   OH2 9356   1.628   4.600   0.484 -0.1582  0.2443 -1.0613
 3117TIP3    H1 9357   1.621   4.601   0.388 -0.5384 -2.4597 -1.1632
 3117TIP3    H2 9358   1.552   4.549   0.512  2.0316 -2.5422  0.3007
 3118TIP3   OH2 9359   2.874   5.809   4.656 -0.6355  0.0862 -0.2509
 3118TIP3    H1 9360   2.901   5.900   4.644 -0.4011  0.1472  0.6696
 3118TIP3    H2 9361   2.781   5.815   4.680 -0.4085  0.1589  0.6722
 3119TIP3   OH2 9362   5.954   5.708   5.054  0.4697  0.0585  0.0003
 3119TIP3    H1 9363   5.925   5.712   4.963  1.2237  1.3566 -0.1946
 3119TIP3    H2 9364   6.048   5.724   5.050  0.7577 -1.2023  0.9029
 3120TIP3   OH2 9365   2.161   3.555   2.165  0.4352 -0.2529  0.4869
 3120TIP3    H1 9366   2.210   3.482   2.126 -0.4527  0.0703 -1.3783
 3120TIP3    H2 9367   2.124   3.520   2.245  2.6350 -0.8789  1.2827
 3121TIP3   OH2 9368   1.088   5.637   0.420  0.1109  0.2514  0.1102
 3121TIP3    H1 9369   1.125   5.672   0.501 -0.2423  1.1470 -0.0986
 3121TIP3    H2 9370   1.160   5.640   0.357 -0.2132  1.8012 -0.2410
 3122TIP3   OH2 9371   1.392   2.562   1.679  0.3019  0.4629 -0.2129
 3122TIP3    H1 9372   1.420   2.631   1.619  0.5559  0.9858  0.4981
 3122TIP3    H2 9373   1.405   2.598   1.766  1.9148 -1.0368  0.2305
 3123TIP3   OH2 9374   1.278   3.639   3.245  0.0643  0.7782  0.1039
 3123TIP3    H1 9375   1.332   3.561   3.238 -0.3870  0.0563  3.1731
 3123TIP3    H2 9376   1.338   3.712   3.226  1.1329 -0.1730 -0.2530
 3124TIP3   OH2 9377   2.985   2.087   3.463  0.8489  0.3021  0.4852
 3124TIP3    H1 9378   2.924   2.102   3.390  2.2233  2.0870 -0.3550
 3124TIP3    H2 9379   2.985   1.992   3.475  0.3743 -0.0082 -1.6541
 3125TIP3   OH2 9380   1.448   1.673   2.884 -0.4165  0.2549  0.3194
 3125TIP3    H1 9381   1.542   1.670   2.864 -0.4498  0.2737  0.1568
 3125TIP3    H2 9382   1.428   1.585   2.917 -0.3254  0.2753  0.4273
 3126TIP3   OH2 9383   1.696   5.682   0.077 -0.0812  0.0831 -0.1311
 3126TIP3    H1 9384   1.755   5.681   0.001 -0.8123 -3.5946 -0.8028
 3126TIP3    H2 9385   1.748   5.643   0.147  0.0427  1.9937  0.9149
 3127TIP3   OH2 9386   0.151   5.403   3.009 -0.0289 -0.1343 -0.2053
 3127TIP3    H1 9387   0.195   5.417   2.926  2.7423 -0.8027  1.0551
 3127TIP3    H2 9388   0.093   5.329   2.994  0.2104 -0.0588 -1.5914
 3128TIP3   OH2 9389   6.344   5.572   5.048  0.0663  0.2130 -0.4141
 3128TIP3    H1 9390   6.394   5.587   5.128  0.1455 -0.1152 -0.4013
 3128TIP3    H2 9391   6.294   5.652   5.036  0.3023  0.3915 -0.2150
 3129TIP3   OH2 9392   0.463   1.152   0.271 -0.6479  0.0953  0.4237
 3129TIP3    H1 9393   0.399   1.200   0.218 -2.4318 -0.5419  1.8873
 3129TIP3    H2 9394   0.450   1.060   0.248  0.6117  0.0403 -0.1338
 3130TIP3   OH2 9395   4.626   1.762   4.316  0.2705  0.2696  0.3209
 3130TIP3    H1 9396   4.692   1.792   4.378 -0.1554 -0.9743  1.4261
 3130TIP3    H2 9397   4.632   1.824   4.243  1.8805  0.8266  0.8793
 3131TIP3   OH2 9398   4.479   3.194   1.455 -0.0553 -0.1697 -0.0147
 3131TIP3    H1 9399   4.552   3.156   1.405  0.1570  0.2366 -0.0176
 3131TIP3    H2 9400   4.509   3.191   1.546  0.1055  0.3069 -0.0508
 3132TIP3   OH2 9401   2.962   4.679   2.801 -0.2920  0.2607 -0.0751
 3132TIP3    H1 9402   2.903   4.624   2.852 -0.9607 -0.1504 -1.2437
 3132TIP3    H2 9403   3.049   4.644   2.819 -0.2966  1.2850  2.1728
 3133TIP3   OH2 9404   5.435   0.846   4.456  0.0964  0.7254 -0.0420
 3133TIP3    H1 9405   5.506   0.782   4.457 -0.3594  0.2083  0.1621
 3133TIP3    H2 9406   5.380   0.822   4.531 -0.7613  0.5615 -0.6971
 3134TIP3   OH2 9407   4.302   2.392   1.395 -0.2437 -0.5371  0.3101
 3134TIP3    H1 9408   4.332   2.429   1.312 -1.0374  0.6283  0.5178
 3134TIP3    H2 9409   4.258   2.310   1.370  0.5574 -0.8021 -0.2809
 3135TIP3   OH2 9410   0.518   1.233   3.483  0.5803  0.1289  0.0020
 3135TIP3    H1 9411   0.545   1.209   3.394 -3.8007 -0.6044 -1.3275
 3135TIP3    H2 9412   0.444   1.292   3.471 -0.5148 -0.4133  3.1875
 3136TIP3   OH2 9413   4.923   2.819   4.312 -0.0724  0.0089 -0.0305
 3136TIP3    H1 9414   5.000   2.765   4.330 -0.6027 -0.9032 -0.3974
 3136TIP3    H2 9415   4.912   2.873   4.390 -0.1820 -1.2305  0.8401
 3137TIP3   OH2 9416   0.238   4.316   4.192  0.1380  0.2115 -0.0908
 3137TIP3    H1 9417   0.217   4.409   4.191 -1.4009 -0.1108 -0.0622
 3137TIP3    H2 9418   0.193   4.282   4.269 -0.6236 -0.8131 -0.9533
 3138TIP3   OH2 9419   0.396   1.947   2.168  0.2961  0.5247  0.1992
 3138TIP3    H1 9420   0.439   1.930   2.084  0.2577  1.6294 -0.0512
 3138TIP3    H2 9421   0.446   1.895   2.231  0.1159 -0.5913 -0.5360
 3139TIP3   OH2 9422   1.397   2.014   4.893 -0.0385 -0.1670 -0.1003
 3139TIP3    H1 9423   1.326   2.020   4.958 -0.1014  0.4443 -0.2197
 3139TIP3    H2 9424   1.428   2.104   4.883  0.7094 -0.4196 -0.1043
 3140TIP3   OH2 9425   3.211   4.140   3.202  0.1048 -0.5742 -0.0110
 3140TIP3    H1 9426   3.193   4.222   3.158  1.6160  0.2794  0.8449
 3140TIP3    H2 9427   3.178   4.072   3.143 -2.6262  0.6492 -0.0181
 3141TIP3   OH2 9428   4.263   1.887   2.569  0.7164 -0.4668  0.2135
 3141TIP3    H1 9429   4.344   1.866   2.523  0.3368  1.4663 -1.4778
 3141TIP3    H2 9430   4.292   1.927   2.651  1.4771 -0.3523 -0.1002
 3142TIP3   OH2 9431   4.278   5.415   2.926  0.4080  0.2407  0.9060
 3142TIP3    H1 9432   4.317   5.475   2.990  1.7837 -0.9280  1.2189
 3142TIP3    H2 9433   4.344   5.407   2.858  0.2211 -0.8737  0.8495
 3143TIP3   OH2 9434   6.045   0.052   4.114  0.0173 -0.3540 -0.3266
 3143TIP3    H1 9435   6.135   0.035   4.144 -0.7105  0.3714  2.6515
 3143TIP3    H2 9436   6.053   0.130   4.059  1.1449  0.3419  0.7445
 3144TIP3   OH2 9437   5.480   1.597   0.693  0.4854 -0.2298 -0.0918
 3144TIP3    H1 9438   5.554   1.659   0.692  0.6256 -0.4012 -1.4410
 3144TIP3    H2 9439   5.468   1.572   0.602 -3.6660  2.6589 -0.6072
 3145TIP3   OH2 9440   0.762   4.055   4.941 -0.2977 -0.6039 -0.1143
 3145TIP3    H1 9441   0.737   3.972   4.981  2.1939  0.4438  4.2590
 3145TIP3    H2 9442   0.700   4.119   4.979  1.0315  0.2009  0.7699
 3146TIP3   OH2 9443   2.849   0.551   2.144 -0.0889  0.5292 -0.2057
 3146TIP3    H1 9444   2.798   0.470   2.137 -0.4283  0.7141  0.1037
 3146TIP3    H2 9445   2.910   0.547   2.071  2.2471 -1.6427  1.6689
 3147TIP3   OH2 9446   3.978   2.327   3.973  0.9649 -0.4497  0.4589
 3147TIP3    H1 9447   4.041   2.343   4.043  0.1245  0.7799  0.9767
 3147TIP3    H2 9448   3.895   2.309   4.018  0.5628 -0.3225 -0.2013
 3148TIP3   OH2 9449   1.963   1.286   0.550  0.8781 -0.5963  0.1499
 3148TIP3    H1 9450   1.909   1.363   0.530 -0.2788 -1.6122 -0.7966
 3148TIP3    H2 9451   1.944   1.267   0.642 -0.5844 -1.0434 -0.2111
 3149TIP3   OH2 9452   4.811   3.593   3.736  0.1275  0.2894 -0.3217
 3149TIP3    H1 9453   4.791   3.671   3.787 -0.0525 -0.1994  0.3840
 3149TIP3    H2 9454   4.804   3.521   3.799 -1.3672 -0.4840 -1.2928
 3150TIP3   OH2 9455   2.627   0.925   1.103  0.3107  0.1826 -0.0699
 3150TIP3    H1 9456   2.650   0.939   1.011  0.2505  0.7460 -0.0009
 3150TIP3    H2 9457   2.711   0.928   1.149  0.4067 -0.6768 -0.1700
 3151TIP3   OH2 9458   6.253   3.241   4.506  0.4365  0.4122  0.0369
 3151TIP3    H1 9459   6.287   3.264   4.592 -1.5131  2.9056  0.2757
 3151TIP3    H2 9460   6.206   3.320   4.477 -2.1221 -1.5546 -1.6696
 3152TIP3   OH2 9461   3.778   3.474   4.819  0.1341  0.3630 -0.0086
 3152TIP3    H1 9462   3.695   3.436   4.790 -0.0822 -0.1188  1.2042
 3152TIP3    H2 9463   3.758   3.567   4.830 -0.3552  0.1916  0.6209
 3153TIP3   OH2 9464   0.346   2.469   1.320  0.2014  0.3296 -0.0422
 3153TIP3    H1 9465   0.321   2.381   1.292  0.2700  0.1374  0.4938
 3153TIP3    H2 9466   0.441   2.470   1.318  0.1854  0.8152 -1.3220
 3154TIP3   OH2 9467   3.126   0.051   0.092 -0.3628 -0.2120 -0.3860
 3154TIP3    H1 9468   3.173   0.064   0.174 -1.5631  1.1760  0.1156
 3154TIP3    H2 9469   3.128  -0.044   0.078  0.7531 -0.3763  0.6867
 3155TIP3   OH2 9470   4.407   4.982   4.660  0.0876 -0.3219  0.0651
 3155TIP3    H1 9471   4.442   4.939   4.738  1.3362  3.0623  1.5424
 3155TIP3    H2 9472   4.312   4.972   4.668  0.0663  1.2620  2.9643
 3156TIP3   OH2 9473   6.020   2.394   1.074  0.3104 -0.4286 -0.7390
 3156TIP3    H1 9474   5.979   2.420   0.992 -0.7195  2.1675  0.4565
 3156TIP3    H2 9475   6.055   2.476   1.110 -0.3541 -1.2103  1.9452
 3157TIP3   OH2 9476   0.109   0.512   4.731  0.7473  0.1309  0.4046
 3157TIP3    H1 9477   0.194   0.544   4.762  1.1779  1.5171 -1.9011
 3157TIP3    H2 9478   0.065   0.591   4.699 -0.8218 -0.7791  0.2338
 3158TIP3   OH2 9479   0.385   2.622   3.829  0.4903  0.4898  0.1706
 3158TIP3    H1 9480   0.295   2.627   3.861  0.1077  0.7815 -0.8998
 3158TIP3    H2 9481   0.425   2.552   3.881 -1.0227 -1.2417 -0.8667
 3159TIP3   OH2 9482   1.014   2.785   4.848  0.1780  0.7521  0.1551
 3159TIP3    H1 9483   0.922   2.809   4.858 -0.1502  0.4062 -1.6949
 3159TIP3    H2 9484   1.035   2.806   4.757  1.7647  0.2706  0.3761
 3160TIP3   OH2 9485   5.091   0.650   0.277  0.1901 -0.2795  0.4085
 3160TIP3    H1 9486   5.152   0.711   0.318 -0.3797  0.4297  0.2197
 3160TIP3    H2 9487   5.125   0.563   0.298 -0.4679  0.0163  3.0229
 3161TIP3   OH2 9488   5.570   2.978   3.637  1.0279 -0.3334  0.0158
 3161TIP3    H1 9489   5.615   2.989   3.554  2.5880 -1.6767  0.6379
 3161TIP3    H2 9490   5.502   2.914   3.619 -0.0808  0.9821 -0.6960
 3162TIP3   OH2 9491   5.546   5.895   0.953  0.0526 -0.9677 -0.0836
 3162TIP3    H1 9492   5.602   5.951   1.007 -1.2216  0.7838 -0.4774
 3162TIP3    H2 9493   5.485   5.856   1.014 -0.0804 -0.6228  0.0065
 3163TIP3   OH2 9494   0.165   2.769   0.638  0.2462 -0.2453 -0.1379
 3163TIP3    H1 9495   0.122   2.683   0.643  0.7063 -0.5192 -0.8037
 3163TIP3    H2 9496   0.142   2.811   0.721 -1.7610 -0.1541 -0.7104
 3164TIP3   OH2 9497   0.279   2.337   2.696  0.5987  0.4497 -0.5022
 3164TIP3    H1 9498   0.366   2.355   2.659  0.6413  0.4630 -0.3977
 3164TIP3    H2 9499   0.280   2.243   2.714  1.0280  0.6500  0.5994
 3165TIP3   OH2 9500   5.653   1.836   1.303  0.3654 -0.5214 -0.1056
 3165TIP3    H1 9501   5.692   1.870   1.223  0.8922 -1.2291 -0.1628
 3165TIP3    H2 9502   5.593   1.768   1.274  0.2252 -0.4788  0.0779
 3166TIP3   OH2 9503   0.406   5.725   4.916  0.2235 -0.5616 -0.2705
 3166TIP3    H1 9504   0.410   5.759   4.827  0.7056  1.2964  0.4089
 3166TIP3    H2 9505   0.498   5.719   4.943  0.0632 -0.6454  0.2722
 3167TIP3   OH2 9506   5.511   2.309   0.691  0.1758 -0.0837 -0.8609
 3167TIP3    H1 9507   5.518   2.342   0.601  1.4000  2.1575 -0.0387
 3167TIP3    H2 9508   5.460   2.376   0.736  2.4047  0.5903  0.8226
 3168TIP3   OH2 9509   6.192   4.283   3.805  0.3252 -0.2623  0.0608
 3168TIP3    H1 9510   6.216   4.195   3.775  2.0811 -0.0235  0.6353
 3168TIP3    H2 9511   6.137   4.318   3.735 -0.6197 -1.8866 -0.0742
 3169TIP3   OH2 9512   4.406   5.126   2.475  0.0015  0.1238 -0.6838
 3169TIP3    H1 9513   4.334   5.175   2.433 -1.7508 -0.7976  1.0876
 3169TIP3    H2 9514   4.362   5.053   2.519  2.0143 -0.2516  0.7953
 3170TIP3   OH2 9515   2.240   3.068   4.127  0.0284 -0.0158  0.2910
 3170TIP3    H1 9516   2.241   3.005   4.199  0.0926 -1.7030 -1.1402
 3170TIP3    H2 9517   2.152   3.060   4.090  0.2534  0.2714 -0.3137
 3171TIP3   OH2 9518   3.854   2.385   1.042  0.5220  0.4271 -0.1661
 3171TIP3    H1 9519   3.872   2.351   1.129 -0.9323 -2.2734 -0.8233
 3171TIP3    H2 9520   3.841   2.307   0.988  1.8726  1.9798 -2.9569
 3172TIP3   OH2 9521   3.243   1.808   1.612 -0.7000  0.0481  0.1376
 3172TIP3    H1 9522   3.149   1.799   1.595 -0.5921  1.6382 -1.7621
 3172TIP3    H2 9523   3.281   1.821   1.525  1.1177  0.6420  0.9821
 3173TIP3   OH2 9524   2.223   1.677   4.239  0.0782 -0.1672  0.2745
 3173TIP3    H1 9525   2.200   1.599   4.289 -0.0747 -0.2316  0.1086
 3173TIP3    H2 9526   2.316   1.666   4.219  0.7736  1.0344  2.6054
 3174TIP3   OH2 9527   5.472   3.832   2.235 -0.1829 -0.2407 -0.3534
 3174TIP3    H1 9528   5.449   3.925   2.225 -1.2531 -0.2914  1.2976
 3174TIP3    H2 9529   5.544   3.831   2.297 -1.3797 -0.5874  1.0827
 3175TIP3   OH2 9530   3.520   4.322   1.759  0.2388 -0.1900 -0.0132
 3175TIP3    H1 9531   3.513   4.345   1.851 -0.0458 -1.2706  0.2545
 3175TIP3    H2 9532   3.466   4.386   1.713  1.1134  0.9196  0.4621
 3176TIP3   OH2 9533   4.160   1.651   4.276  0.2217  0.9969 -0.5068
 3176TIP3    H1 9534   4.184   1.733   4.232  0.0285  2.2954  1.6815
 3176TIP3    H2 9535   4.151   1.588   4.204 -0.4656  3.0716 -2.3770
 3177TIP3   OH2 9536   1.646   3.329   2.879  0.5503  0.8064  0.4586
 3177TIP3    H1 9537   1.557   3.297   2.871  1.1054 -0.8381  0.4008
 3177TIP3    H2 9538   1.699   3.250   2.891  2.0289  1.7058  0.1685
 3178TIP3   OH2 9539   2.095   4.051   3.485  0.0791 -0.2825 -0.0387
 3178TIP3    H1 9540   2.185   4.033   3.510 -0.1272  1.0656  1.8850
 3178TIP3    H2 9541   2.096   4.052   3.389  2.1178 -0.2269 -0.0487
 3179TIP3   OH2 9542   4.289   1.257   2.195 -0.5926 -0.2197  0.2053
 3179TIP3    H1 9543   4.239   1.303   2.263 -3.3915 -3.1673  0.4028
 3179TIP3    H2 9544   4.341   1.192   2.244  0.4094  0.1843 -0.2899
 3180TIP3   OH2 9545   0.565   1.438   0.490 -0.1327 -0.0279  0.2568
 3180TIP3    H1 9546   0.610   1.354   0.497  0.0853  0.0112 -0.5273
 3180TIP3    H2 9547   0.585   1.483   0.572  1.2155 -0.0434 -0.0326
 3181TIP3   OH2 9548   1.431   1.795   4.701 -0.3293  0.4029 -0.4331
 3181TIP3    H1 9549   1.401   1.858   4.767 -1.8127 -1.8448  1.1662
 3181TIP3    H2 9550   1.350   1.758   4.666  0.4968 -1.1886 -0.7129
 3182TIP3   OH2 9551   3.677   0.675   1.033  0.1060 -0.1788 -0.6216
 3182TIP3    H1 9552   3.677   0.748   0.972 -1.8994  0.7059  0.3433
 3182TIP3    H2 9553   3.624   0.607   0.991  2.0608 -1.1933 -1.5674
 3183TIP3   OH2 9554   3.768   3.320   3.558 -0.3809  0.1069 -0.3184
 3183TIP3    H1 9555   3.770   3.311   3.653 -0.2735 -0.7950 -0.3955
 3183TIP3    H2 9556   3.754   3.230   3.525 -1.3829  0.5227 -1.1220
 3184TIP3   OH2 9557   5.535   1.492   0.279 -0.0796 -0.0768 -0.3947
 3184TIP3    H1 9558   5.562   1.574   0.320  1.2676 -0.9768  0.5968
 3184TIP3    H2 9559   5.564   1.500   0.188  0.9472  0.1767 -0.0637
 3185TIP3   OH2 9560   0.596   3.984   0.179 -0.3669 -0.7701 -0.0284
 3185TIP3    H1 9561   0.536   3.953   0.111  0.1540  0.6847 -1.1999
 3185TIP3    H2 9562   0.541   4.037   0.237 -0.4028 -0.1322 -0.6274
 3186TIP3   OH2 9563   5.355   5.767   1.109  0.5053  0.6503  0.0030
 3186TIP3    H1 9564   5.274   5.816   1.126  0.0201 -0.6699  1.8774
 3186TIP3    H2 9565   5.325   5.681   1.077  1.1731  0.3542  0.1478
 3187TIP3   OH2 9566   5.422   0.407   4.243  0.0265 -0.3308 -0.2990
 3187TIP3    H1 9567   5.517   0.397   4.235  0.0288 -2.5694  1.3832
 3187TIP3    H2 9568   5.400   0.361   4.324 -2.5148  0.0839 -0.6680
 3188TIP3   OH2 9569   0.464   3.395   3.895  0.7863 -0.4894 -0.4994
 3188TIP3    H1 9570   0.454   3.330   3.826  0.4098  1.8969 -2.8440
 3188TIP3    H2 9571   0.428   3.475   3.858 -0.0160  0.7947  2.7499
 3189TIP3   OH2 9572   3.825   4.878   1.300  0.3528 -0.1844 -0.6318
 3189TIP3    H1 9573   3.855   4.789   1.316  0.3271 -0.6604 -2.8390
 3189TIP3    H2 9574   3.880   4.909   1.228  1.1521  2.0590  0.8311
 3190TIP3   OH2 9575   1.298   1.971   3.382 -0.2221 -0.1414  0.6002
 3190TIP3    H1 9576   1.294   1.960   3.287 -1.5522 -1.1061  0.7379
 3190TIP3    H2 9577   1.292   1.882   3.417 -0.1226  0.2332  1.5990
 3191TIP3   OH2 9578   3.209   2.301   1.885  0.0098  0.0540 -0.1287
 3191TIP3    H1 9579   3.155   2.224   1.902 -0.2466 -0.1659 -1.7726
 3191TIP3    H2 9580   3.173   2.338   1.804 -0.7960  2.7482  1.3598
 3192TIP3   OH2 9581   6.224   0.750   5.175 -0.2005 -0.0218 -0.3552
 3192TIP3    H1 9582   6.229   0.783   5.085 -3.2722  0.8838 -0.3158
 3192TIP3    H2 9583   6.281   0.808   5.225  0.0341  0.7104 -1.4310
 3193TIP3   OH2 9584   1.106   0.122   0.245  0.3912  0.1135  0.5787
 3193TIP3    H1 9585   1.013   0.119   0.222  0.9079 -2.4635 -1.7307
 3193TIP3    H2 9586   1.120   0.212   0.275 -2.1012  1.7990 -2.5918
 3194TIP3   OH2 9587   5.785   1.873   2.152  0.2180 -0.3735 -0.3145
 3194TIP3    H1 9588   5.703   1.876   2.201  0.6999 -0.2612  0.4974
 3194TIP3    H2 9589   5.771   1.933   2.079  0.0835  0.8079  0.6396
 3195TIP3   OH2 9590   4.447   4.841   0.778  0.8604 -0.1264  0.6491
 3195TIP3    H1 9591   4.392   4.790   0.718  1.2090  0.6778 -0.3985
 3195TIP3    H2 9592   4.535   4.805   0.767  0.7843 -0.5124  1.2950
 3196TIP3   OH2 9593   3.661   3.221   4.599  0.4828 -0.2149 -0.4351
 3196TIP3    H1 9594   3.639   3.204   4.508 -1.0941  1.8424 -0.5000
 3196TIP3    H2 9595   3.751   3.253   4.596  0.0675  0.9090 -1.4185
 3197TIP3   OH2 9596   4.032   4.711   0.451  0.8039 -0.0826  0.4317
 3197TIP3    H1 9597   3.954   4.683   0.403  0.9565 -1.1604  0.7883
 3197TIP3    H2 9598   4.090   4.635   0.448  1.2011  0.1700  1.4835
 3198TIP3   OH2 9599   5.588   5.889   3.126  0.7606 -0.1916  0.2552
 3198TIP3    H1 9600   5.519   5.852   3.181  0.9993  0.4750  1.0309
 3198TIP3    H2 9601   5.556   5.977   3.103  1.4851  0.2562  0.9002
 3199TIP3   OH2 9602   2.997   0.303   3.269 -0.4293 -0.7223 -0.5138
 3199TIP3    H1 9603   2.962   0.284   3.182 -0.6188 -0.1666 -0.5604
 3199TIP3    H2 9604   2.996   0.219   3.314  0.0929 -1.1025 -1.1988
 3200TIP3   OH2 9605   2.810   1.727   5.078 -0.0516  0.2194  0.3429
 3200TIP3    H1 9606   2.722   1.740   5.115 -0.4880  0.4681 -0.7396
 3200TIP3    H2 9607   2.869   1.768   5.141 -0.8557  1.5080  0.2953
 3201TIP3   OH2 9608   5.861   4.848   3.088 -0.0413 -0.0072  0.4747
 3201TIP3    H1 9609   5.769   4.873   3.076  0.0390  1.3058  2.1928
 3201TIP3    H2 9610   5.911   4.926   3.065  0.6340 -0.5225  0.1301
 3202TIP3   OH2 9611   6.238   5.471   0.664  0.0699  0.7093 -0.5571
 3202TIP3    H1 9612   6.203   5.510   0.744  0.0467  0.1387 -0.2859
 3202TIP3    H2 9613   6.175   5.495   0.596 -1.4602 -1.1645  0.1036
 3203TIP3   OH2 9614   4.174   3.829   1.946  0.0502  0.0155 -0.0070
 3203TIP3    H1 9615   4.263   3.849   1.918 -0.3369  0.7097 -0.7894
 3203TIP3    H2 9616   4.129   3.802   1.866 -0.0886 -1.7383  0.6171
 3204TIP3   OH2 9617   4.504   1.787   2.778 -0.1359 -1.1391 -0.0423
 3204TIP3    H1 9618   4.561   1.713   2.798 -1.0481 -1.7911  0.2095
 3204TIP3    H2 9619   4.434   1.782   2.843 -0.0746  0.1013  0.1436
 3205TIP3   OH2 9620   0.464   5.045   4.931 -0.0218  0.1118 -0.0121
 3205TIP3    H1 9621   0.496   5.134   4.940  0.5207 -0.0960  0.1274
 3205TIP3    H2 9622   0.493   5.000   5.010 -0.6623 -0.0812  0.1230
 3206TIP3   OH2 9623   2.564   3.949   0.792 -0.3984  0.3183 -0.5469
 3206TIP3    H1 9624   2.618   3.875   0.819 -1.0561  0.4607  1.2914
 3206TIP3    H2 9625   2.624   4.024   0.794 -0.4735  0.3555  0.7729
 3207TIP3   OH2 9626   1.150   5.971   3.566 -0.2962  0.7917  0.1291
 3207TIP3    H1 9627   1.123   5.915   3.639 -1.0223 -1.7251 -1.9320
 3207TIP3    H2 9628   1.098   6.051   3.578 -2.2234 -0.5093  1.0726
 3208TIP3   OH2 9629   4.035   5.662   4.585 -0.1244  0.3260  0.2646
 3208TIP3    H1 9630   3.973   5.731   4.609  0.6103  0.0064  3.6007
 3208TIP3    H2 9631   3.982   5.582   4.583 -0.5588  0.6216 -1.3460
 3209TIP3   OH2 9632   0.308   5.596   1.341 -0.0138  0.5087 -0.2260
 3209TIP3    H1 9633   0.401   5.578   1.349 -0.2499 -0.4678  0.5029
 3209TIP3    H2 9634   0.270   5.514   1.308 -0.9230  0.0817  1.7450
 3210TIP3   OH2 9635   0.647   1.178   2.444  0.2162  0.2786  0.2567
 3210TIP3    H1 9636   0.598   1.217   2.516 -1.1965 -1.3644  0.2417
 3210TIP3    H2 9637   0.613   1.088   2.437  3.4179 -1.1056  0.4548
 3211TIP3   OH2 9638   2.361   1.704   1.604  1.1506 -0.1096 -0.2748
 3211TIP3    H1 9639   2.345   1.753   1.684 -0.8190 -0.1815 -0.5700
 3211TIP3    H2 9640   2.449   1.731   1.576  1.6847  0.2397  1.6425
 3212TIP3   OH2 9641   3.352   5.229   1.723 -0.1801  0.4747  0.1186
 3212TIP3    H1 9642   3.441   5.236   1.759 -0.0090 -0.4520 -0.0918
 3212TIP3    H2 9643   3.295   5.250   1.797  0.2190  1.6606  0.0963
 3213TIP3   OH2 9644   3.748   4.318   0.241 -0.5388  0.1174 -0.4641
 3213TIP3    H1 9645   3.757   4.364   0.157 -0.6003 -0.8816 -1.0320
 3213TIP3    H2 9646   3.830   4.270   0.251 -1.3867 -1.5600 -1.0866
 3214TIP3   OH2 9647   5.616   2.281   3.158  0.2864  0.0929 -0.3219
 3214TIP3    H1 9648   5.675   2.236   3.218  1.1721  0.1045 -1.1441
 3214TIP3    H2 9649   5.673   2.341   3.109 -0.4819  0.4117 -0.8505
 3215TIP3   OH2 9650   0.935   4.785   2.005  0.4327 -0.7773  0.1182
 3215TIP3    H1 9651   0.935   4.802   2.099 -2.5074 -0.6906  0.1992
 3215TIP3    H2 9652   0.877   4.851   1.969  1.0486 -1.1740 -1.7020
 3216TIP3   OH2 9653   0.795   5.764   4.715 -0.0453 -0.3624  0.0202
 3216TIP3    H1 9654   0.890   5.764   4.700 -0.2146  0.7894 -1.2635
 3216TIP3    H2 9655   0.759   5.721   4.636 -0.5351 -2.3943  1.2678
 3217TIP3   OH2 9656   1.308   0.704   1.092 -0.0225 -0.3626 -0.7024
 3217TIP3    H1 9657   1.390   0.655   1.090  0.4667  0.2269  1.8397
 3217TIP3    H2 9658   1.329   0.785   1.139 -2.4848 -1.2204  2.2582
 3218TIP3   OH2 9659   0.917   0.580   3.370  0.0547 -0.1881  0.0553
 3218TIP3    H1 9660   0.902   0.616   3.282  0.3264  1.6256  0.7157
 3218TIP3    H2 9661   1.008   0.552   3.369  0.6025  1.4622  0.2595
 3219TIP3   OH2 9662   4.350   1.989   1.166  0.0180 -0.1905  0.4379
 3219TIP3    H1 9663   4.302   2.037   1.098  0.7295 -0.1968 -0.0879
 3219TIP3    H2 9664   4.334   1.897   1.145  1.0172 -0.2069 -0.3169
 3220TIP3   OH2 9665   5.134   4.422   2.242  0.1951  0.1851 -0.1186
 3220TIP3    H1 9666   5.046   4.392   2.263 -0.1927  0.3015 -1.5309
 3220TIP3    H2 9667   5.129   4.517   2.249  0.2697  0.1811 -0.0016
 3221TIP3   OH2 9668   1.705   0.597   4.371  0.4043 -0.5121  0.6826
 3221TIP3    H1 9669   1.770   0.580   4.303  0.9203 -0.4641  1.1602
 3221TIP3    H2 9670   1.741   0.557   4.450 -0.4212 -0.9991  0.8265
 3222TIP3   OH2 9671   2.701   5.192   4.439  0.2906 -0.2565 -0.0670
 3222TIP3    H1 9672   2.785   5.235   4.457  1.0070 -0.5131 -2.4243
 3222TIP3    H2 9673   2.656   5.251   4.379  0.0748 -1.4327 -1.1185
 3223TIP3   OH2 9674   5.489   4.874   4.762 -0.2875 -0.0498  0.3974
 3223TIP3    H1 9675   5.434   4.883   4.840 -0.3268  0.9429  0.2600
 3223TIP3    H2 9676   5.454   4.938   4.700 -1.2120 -1.8364 -1.0250
 3224TIP3   OH2 9677   3.821   1.665   3.630 -0.0724  0.3897 -0.3684
 3224TIP3    H1 9678   3.859   1.723   3.564  0.1286 -1.8335 -2.3233
 3224TIP3    H2 9679   3.894   1.641   3.686 -0.0834  1.6620  0.2367
 3225TIP3   OH2 9680   4.127   2.415   1.030  0.3448 -0.1138  0.6467
 3225TIP3    H1 9681   4.141   2.503   0.995  0.6467 -0.9001 -1.3296
 3225TIP3    H2 9682   4.032   2.402   1.026  0.2430  0.3066  1.4752
 3226TIP3   OH2 9683   1.838   5.020   0.240 -0.1961  0.1531 -0.3173
 3226TIP3    H1 9684   1.818   5.056   0.154 -0.6275 -0.1399 -0.3455
 3226TIP3    H2 9685   1.766   4.959   0.257  0.0955 -0.0825  0.0785
 3227TIP3   OH2 9686   0.687   0.826   1.202  0.1068  0.1218 -0.0215
 3227TIP3    H1 9687   0.671   0.766   1.129  0.0361  0.9151 -0.6636
 3227TIP3    H2 9688   0.702   0.768   1.277  1.1817 -0.7205 -0.8626
 3228TIP3   OH2 9689   0.867   5.983   3.285  0.7116  0.8741 -0.5957
 3228TIP3    H1 9690   0.874   5.932   3.366 -1.3275  1.3311 -0.0651
 3228TIP3    H2 9691   0.939   5.952   3.231  1.5570 -0.1325  1.0230
 3229TIP3   OH2 9692   4.572   2.604   0.725  0.4036 -0.1831 -0.3264
 3229TIP3    H1 9693   4.627   2.529   0.749 -0.7317 -1.0365 -0.3138
 3229TIP3    H2 9694   4.592   2.670   0.790  1.6304 -0.3543 -0.4913
 3230TIP3   OH2 9695   2.996   0.326   4.545 -0.1042 -0.8809  0.0050
 3230TIP3    H1 9696   3.080   0.367   4.568  0.8401 -1.2213 -2.5023
 3230TIP3    H2 9697   3.020   0.237   4.518 -1.1800 -0.8180 -1.2258
 3231TIP3   OH2 9698   1.862   1.062   3.122  0.5812  0.7929 -0.1782
 3231TIP3    H1 9699   1.794   1.064   3.189 -0.7680  0.3682 -1.4778
 3231TIP3    H2 9700   1.942   1.088   3.168 -0.0322 -0.6762  1.8656
 3232TIP3   OH2 9701   5.041   1.254   1.866 -0.1781  0.2452  0.0139
 3232TIP3    H1 9702   5.135   1.256   1.849 -0.2357 -0.6774 -0.5015
 3232TIP3    H2 9703   5.024   1.165   1.897 -0.8695  0.4303  0.1866
 3233TIP3   OH2 9704   1.848   2.351   3.681  0.0143 -0.1968 -0.0644
 3233TIP3    H1 9705   1.792   2.429   3.685 -0.2007 -0.2763 -1.2628
 3233TIP3    H2 9706   1.900   2.363   3.602  0.0359 -1.2286 -0.2171
 3234TIP3   OH2 9707   3.117   4.157   1.016 -0.3443  0.0416  0.0457
 3234TIP3    H1 9708   3.116   4.157   1.112 -0.7751  2.3994  0.1077
 3234TIP3    H2 9709   3.078   4.073   0.991  0.2488 -0.8398  1.9076
 3235TIP3   OH2 9710   5.350   2.475   0.109  0.1218 -0.0323  0.0841
 3235TIP3    H1 9711   5.352   2.440   0.020 -1.1183 -0.4339  0.1996
 3235TIP3    H2 9712   5.270   2.526   0.112  1.5214  2.3112  0.1366
 3236TIP3   OH2 9713   4.565   0.184   1.642  0.3917  0.2848 -0.1087
 3236TIP3    H1 9714   4.652   0.200   1.677  0.4875  0.1195 -0.2703
 3236TIP3    H2 9715   4.507   0.189   1.719  1.0449 -4.2971  0.9425
 3237TIP3   OH2 9716   5.135   2.347   4.334  0.0252 -0.7831 -0.2567
 3237TIP3    H1 9717   5.042   2.329   4.322  0.0685 -0.5871 -0.9579
 3237TIP3    H2 9718   5.158   2.304   4.416 -1.3918  1.6856  1.5863
 3238TIP3   OH2 9719   2.440   3.634   2.280 -0.2510 -0.7963 -0.3300
 3238TIP3    H1 9720   2.346   3.650   2.281 -0.0051  1.1961  2.1983
 3238TIP3    H2 9721   2.458   3.592   2.365  1.2908  0.1129 -0.1745
 3239TIP3   OH2 9722   5.664   5.486   0.933  0.0233 -0.3620 -0.5997
 3239TIP3    H1 9723   5.669   5.462   0.840  0.1296  1.2608 -1.0367
 3239TIP3    H2 9724   5.679   5.580   0.934 -1.2900 -0.1433  0.9512
 3240TIP3   OH2 9725   5.925   4.533   5.004  1.0623 -0.9737 -0.3931
 3240TIP3    H1 9726   5.964   4.589   5.071 -0.3965 -0.9298  0.4735
 3240TIP3    H2 9727   5.917   4.589   4.927 -0.8414  0.2609  0.6056
 3241TIP3   OH2 9728   6.299   1.386   4.595  0.2671  0.0330  0.3269
 3241TIP3    H1 9729   6.308   1.448   4.523 -2.5355  0.1681 -0.0117
 3241TIP3    H2 9730   6.286   1.440   4.673 -1.2761 -0.0687  0.1712
 3242TIP3   OH2 9731   3.389   4.883   1.544 -0.3353  0.0257  0.2183
 3242TIP3    H1 9732   3.397   4.790   1.521 -1.2014  0.1252 -0.5417
 3242TIP3    H2 9733   3.480   4.914   1.548  0.0064 -1.0514  1.3813
 3243TIP3   OH2 9734   3.690   4.959   2.982  0.0360  0.0502 -0.0971
 3243TIP3    H1 9735   3.770   4.937   2.934  0.2638 -1.1117  0.7528
 3243TIP3    H2 9736   3.642   5.018   2.924  0.4658 -1.0060 -1.5899
 3244TIP3   OH2 9737   1.157   0.263   4.849  0.4506 -0.5248  0.2739
 3244TIP3    H1 9738   1.069   0.297   4.862  1.0692  0.5744  1.8632
 3244TIP3    H2 9739   1.150   0.170   4.872 -0.5608 -0.7795 -0.9489
 3245TIP3   OH2 9740   4.840   3.215   3.641 -0.1415  0.3395  0.1654
 3245TIP3    H1 9741   4.768   3.151   3.647  2.3685 -2.7108  0.5531
 3245TIP3    H2 9742   4.844   3.238   3.549 -1.4047  0.3515  0.0922
 3246TIP3   OH2 9743   2.272   0.393   4.140  0.2080  0.0819  0.2392
 3246TIP3    H1 9744   2.224   0.367   4.219  2.1426 -0.0870  1.4268
 3246TIP3    H2 9745   2.226   0.471   4.109 -1.0877 -0.3287  1.0490
 3247TIP3   OH2 9746   4.486   5.646   1.746 -0.5967  0.2120  0.4749
 3247TIP3    H1 9747   4.448   5.647   1.659  0.5759 -0.4204 -0.0665
 3247TIP3    H2 9748   4.483   5.554   1.773  2.3978 -0.3002 -0.4861
 3248TIP3   OH2 9749   2.779   4.116   0.757  0.3839 -0.0415 -0.1374
 3248TIP3    H1 9750   2.731   4.198   0.767 -0.0289 -0.3191  0.1680
 3248TIP3    H2 9751   2.817   4.121   0.669  1.4501  1.0513  0.3459
 3249TIP3   OH2 9752   0.528   0.959   3.625 -0.2717  0.2370 -0.1515
 3249TIP3    H1 9753   0.540   1.034   3.567 -0.7879  1.1842  0.9311
 3249TIP3    H2 9754   0.591   0.971   3.695  0.0143 -0.6409 -0.2422
 3250TIP3   OH2 9755   0.114   4.143   2.606 -0.1037  0.0910  0.5657
 3250TIP3    H1 9756   0.130   4.221   2.660  0.0081 -0.3247  1.1393
 3250TIP3    H2 9757   0.185   4.145   2.542 -1.1018  1.4251 -0.5567
 3251TIP3   OH2 9758   2.349   0.688   1.481 -0.0846  0.1959 -0.0226
 3251TIP3    H1 9759   2.307   0.633   1.414  0.7655  0.8128 -1.0899
 3251TIP3    H2 9760   2.435   0.648   1.494  0.4890  1.1676 -0.7085
 3252TIP3   OH2 9761   0.018   1.791   0.281  0.5899 -0.1539  0.1449
 3252TIP3    H1 9762   0.026   1.698   0.260 -0.3914 -0.4107  0.8429
 3252TIP3    H2 9763   0.049   1.798   0.371  2.4901  0.5415 -0.5100
 3253TIP3   OH2 9764   3.943   5.262   2.080  0.0794 -0.1614 -0.3953
 3253TIP3    H1 9765   3.947   5.259   1.985 -1.1947 -0.2283 -0.4620
 3253TIP3    H2 9766   3.859   5.221   2.102 -1.5115  3.1936  0.5030
 3254TIP3   OH2 9767   3.681   4.919   1.548 -0.2515 -0.2674  0.6553
 3254TIP3    H1 9768   3.669   4.847   1.610  1.0684 -1.3847 -0.3055
 3254TIP3    H2 9769   3.739   4.883   1.481 -3.1512  0.1803 -2.3588
 3255TIP3   OH2 9770   5.778   1.695   2.728  0.1561  0.1923 -0.7379
 3255TIP3    H1 9771   5.785   1.784   2.764 -0.7243  0.4485 -1.1673
 3255TIP3    H2 9772   5.798   1.705   2.635  1.5732 -0.3259 -0.5138
 3256TIP3   OH2 9773   1.211   1.686   3.227 -0.1025 -0.1646  0.3941
 3256TIP3    H1 9774   1.217   1.628   3.152 -1.6592  0.2826 -0.1117
 3256TIP3    H2 9775   1.137   1.652   3.278 -0.6158  0.9582  0.4259
 3257TIP3   OH2 9776   1.925   0.833   0.168 -0.5994  0.6498 -0.4205
 3257TIP3    H1 9777   1.978   0.772   0.220 -1.4888  0.4628  0.2838
 3257TIP3    H2 9778   1.836   0.823   0.202 -0.7541  2.3829 -0.2545
 3258TIP3   OH2 9779   0.331   3.753   4.049  0.4782  0.2546  0.6153
 3258TIP3    H1 9780   0.280   3.809   3.990 -1.7996 -2.1034  0.1901
 3258TIP3    H2 9781   0.368   3.686   3.992  0.4997 -0.5083  1.5123
 3259TIP3   OH2 9782   2.668   0.061   2.933  0.2797  0.3287 -0.7545
 3259TIP3    H1 9783   2.680   0.013   3.014  1.0976 -0.7040 -1.4584
 3259TIP3    H2 9784   2.604   0.129   2.954  1.7881  1.2236  1.2041
 3260TIP3   OH2 9785   2.331   3.196   2.584  0.4599 -0.0997  0.1769
 3260TIP3    H1 9786   2.315   3.118   2.637  1.2097  0.8604  1.8698
 3260TIP3    H2 9787   2.275   3.263   2.623  1.3585  0.7412  0.0390
 3261TIP3   OH2 9788   0.053   4.831   3.179  0.5189 -0.3990 -0.3780
 3261TIP3    H1 9789   0.085   4.802   3.265  1.3662  0.6343 -0.3159
 3261TIP3    H2 9790  -0.037   4.860   3.196  0.6499 -0.2821  0.1568
 3262TIP3   OH2 9791   2.752   2.962   1.089 -0.2590  0.0323 -0.0357
 3262TIP3    H1 9792   2.776   2.895   1.153  0.8406  0.5050  0.0710
 3262TIP3    H2 9793   2.657   2.953   1.079 -0.4962  0.0600  1.7939
 3263TIP3   OH2 9794   3.832   1.031   2.948 -1.1911 -0.7485  0.3690
 3263TIP3    H1 9795   3.778   1.053   2.872  0.8897  0.9776 -0.7271
 3263TIP3    H2 9796   3.907   0.985   2.911  0.0112  0.3918  1.3076
 3264TIP3   OH2 9797   1.913   2.394   1.861 -0.2191  0.1008  0.2726
 3264TIP3    H1 9798   1.955   2.444   1.931 -0.3435 -1.9943  1.9481
 3264TIP3    H2 9799   1.847   2.341   1.906 -1.7041  0.1329 -1.7261
 3265TIP3   OH2 9800   1.280   5.930   1.526 -0.1944 -0.1552 -0.2478
 3265TIP3    H1 9801   1.264   5.935   1.432 -1.1099 -0.3495 -0.1089
 3265TIP3    H2 9802   1.308   6.018   1.550  2.8896 -0.7674 -1.1752
 3266TIP3   OH2 9803   2.807   1.770   2.335  0.1791 -0.1457 -0.7180
 3266TIP3    H1 9804   2.849   1.829   2.398 -0.1221 -0.2054 -0.4568
 3266TIP3    H2 9805   2.723   1.812   2.315 -0.7498 -1.2347  0.6798
 3267TIP3   OH2 9806   1.228   4.866   4.803 -0.4520  0.0543  0.5115
 3267TIP3    H1 9807   1.217   4.824   4.718 -1.3110 -1.2538  1.2380
 3267TIP3    H2 9808   1.296   4.932   4.788  0.5747 -1.2260 -0.7982
 3268TIP3   OH2 9809   2.374   0.032   3.169 -0.2280  0.0326 -0.5680
 3268TIP3    H1 9810   2.395  -0.059   3.150 -1.0308 -0.2594 -0.1098
 3268TIP3    H2 9811   2.415   0.082   3.098  0.1947 -0.6829 -0.8339
 3269TIP3   OH2 9812   3.644   4.210   0.945  0.5143  0.2204  0.2545
 3269TIP3    H1 9813   3.678   4.128   0.979  1.6842  0.6546  0.1660
 3269TIP3    H2 9814   3.550   4.195   0.936  0.7123 -1.1006  0.2390
 3270TIP3   OH2 9815   3.286   1.793   4.637  0.2804 -0.3713 -0.4524
 3270TIP3    H1 9816   3.225   1.795   4.710 -0.4536  0.6460 -1.0755
 3270TIP3    H2 9817   3.323   1.881   4.634  0.5908 -0.5200 -1.0723
 3271TIP3   OH2 9818   1.173   2.223   2.966 -0.0320  0.2235 -0.4203
 3271TIP3    H1 9819   1.159   2.317   2.965  0.2735  0.2680 -0.6074
 3271TIP3    H2 9820   1.263   2.212   2.995 -0.7542 -0.0968  1.9670
 3272TIP3   OH2 9821   4.914   1.773   2.494 -0.5226  0.4316  0.2348
 3272TIP3    H1 9822   4.865   1.735   2.421 -1.5629  0.4840  0.8845
 3272TIP3    H2 9823   4.965   1.700   2.529 -1.1713  0.0417  0.3828
 3273TIP3   OH2 9824   2.370   2.718   4.611  0.8459 -0.1689  0.2509
 3273TIP3    H1 9825   2.351   2.626   4.632  2.0995 -0.4095  0.4343
 3273TIP3    H2 9826   2.292   2.749   4.566 -0.4593 -0.7023  2.0357
 3274TIP3   OH2 9827   2.735   1.532   1.656 -0.4514 -0.8557  0.5146
 3274TIP3    H1 9828   2.648   1.502   1.631 -0.6445  0.9413 -1.1972
 3274TIP3    H2 9829   2.723   1.570   1.743 -1.5249 -0.1325  0.0676
 3275TIP3   OH2 9830   3.722   2.845   3.907 -0.5717  0.4164 -0.2001
 3275TIP3    H1 9831   3.667   2.806   3.839 -0.2719  2.2970 -1.6055
 3275TIP3    H2 9832   3.756   2.770   3.956 -1.6807 -0.9520 -1.4238
 3276TIP3   OH2 9833   2.445   4.384   2.453  0.0691 -0.4594  0.1367
 3276TIP3    H1 9834   2.423   4.471   2.486  1.8772  0.5689 -1.1878
 3276TIP3    H2 9835   2.539   4.375   2.470  0.7736 -0.5054 -3.1475
 3277TIP3   OH2 9836   2.566   2.796   3.099 -0.0773 -0.1939  0.3921
 3277TIP3    H1 9837   2.554   2.880   3.056 -1.0925 -1.6645 -2.3890
 3277TIP3    H2 9838   2.655   2.770   3.076  0.3487  0.1814  1.5059
 3278TIP3   OH2 9839   2.397   1.980   2.470 -0.2002 -0.2307  0.2799
 3278TIP3    H1 9840   2.340   2.010   2.398 -0.6096 -0.7975  0.3627
 3278TIP3    H2 9841   2.415   2.059   2.520  1.0036  0.4034 -1.0627
 3279TIP3   OH2 9842   5.226   2.467   1.864  0.0429 -0.1649  0.4695
 3279TIP3    H1 9843   5.254   2.426   1.945 -0.7016  1.2407  1.4824
 3279TIP3    H2 9844   5.178   2.399   1.817  1.8203 -1.4684  0.4313
 3280TIP3   OH2 9845   3.244   0.145   4.710  0.0489  0.6821 -0.5071
 3280TIP3    H1 9846   3.162   0.095   4.708  0.4464  0.0369 -1.2241
 3280TIP3    H2 9847   3.219   0.230   4.746 -0.4845 -0.2873  1.5814
 3281TIP3   OH2 9848   1.073   1.106   3.626 -0.5470  0.2840 -0.8696
 3281TIP3    H1 9849   1.135   1.147   3.566 -0.7902  1.2242 -0.4888
 3281TIP3    H2 9850   0.989   1.146   3.605 -0.4322  1.5729  0.9086
 3282TIP3   OH2 9851   4.258   5.416   3.854 -0.0405  0.1416  0.5866
 3282TIP3    H1 9852   4.244   5.331   3.896  1.2242 -1.7258 -2.4692
 3282TIP3    H2 9853   4.170   5.452   3.843 -0.6111 -0.7432  1.9350
 3283TIP3   OH2 9854   3.297   0.815   0.272  0.0170 -0.1408  0.3662
 3283TIP3    H1 9855   3.230   0.826   0.203  0.0696 -0.7729  0.2105
 3283TIP3    H2 9856   3.346   0.738   0.245  0.6168  0.1396  0.6505
 3284TIP3   OH2 9857   1.561   2.471   2.743  0.5707 -0.3344  0.1120
 3284TIP3    H1 9858   1.633   2.492   2.684 -1.0054 -2.1899 -2.7432
 3284TIP3    H2 9859   1.601   2.426   2.817  2.4132 -0.5274 -0.9556
 3285TIP3   OH2 9860   2.583   5.776   4.094  0.6002 -0.3554  0.3200
 3285TIP3    H1 9861   2.632   5.794   4.174  1.9158  0.9453 -0.7326
 3285TIP3    H2 9862   2.522   5.849   4.086  1.5017  0.3260 -0.6062
 3286TIP3   OH2 9863   3.858   1.057   1.253 -0.1740  0.2783 -0.1352
 3286TIP3    H1 9864   3.853   0.962   1.240 -0.1001  0.4187 -1.2383
 3286TIP3    H2 9865   3.898   1.067   1.340 -1.0306 -0.6957  0.3833
 3287TIP3   OH2 9866   2.563   3.273   2.140  0.5822 -0.1137 -0.1172
 3287TIP3    H1 9867   2.558   3.363   2.110  2.1450  0.4664  1.1958
 3287TIP3    H2 9868   2.644   3.239   2.101  0.7312 -0.4927  0.4966
 3288TIP3   OH2 9869   3.171   3.805   4.764 -0.3183 -0.3114  0.2427
 3288TIP3    H1 9870   3.224   3.734   4.799  0.9243 -0.1152 -1.1650
 3288TIP3    H2 9871   3.095   3.762   4.724 -0.1433 -0.7514  0.3863
 3289TIP3   OH2 9872   4.879   0.863   0.404  0.4816 -0.4434  0.1044
 3289TIP3    H1 9873   4.869   0.954   0.377 -0.3216 -0.4840  0.2422
 3289TIP3    H2 9874   4.853   0.812   0.327 -2.2831 -0.5665  1.0315
 3290TIP3   OH2 9875   5.599   0.742   1.361  0.4929  0.3084  0.3158
 3290TIP3    H1 9876   5.618   0.796   1.438  1.3143 -0.4440  0.6683
 3290TIP3    H2 9877   5.563   0.803   1.297 -4.1816  0.3963  2.5928
 3291TIP3   OH2 9878   2.772   0.209   3.925 -0.1308  0.1974  0.1399
 3291TIP3    H1 9879   2.753   0.302   3.941  1.6030  0.3397  1.6540
 3291TIP3    H2 9880   2.726   0.163   3.995  1.2380  0.1691  1.0460
 3292TIP3   OH2 9881   0.353   3.844   3.628  0.5360 -0.1744 -0.5672
 3292TIP3    H1 9882   0.388   3.811   3.545 -1.4750  0.6722 -1.8423
 3292TIP3    H2 9883   0.375   3.937   3.629 -1.8654  0.4770 -1.6115
 3293TIP3   OH2 9884   0.870   5.813   3.502  0.0474  0.0691  0.2733
 3293TIP3    H1 9885   0.942   5.852   3.552 -0.3805  0.6382  0.4510
 3293TIP3    H2 9886   0.811   5.778   3.569  0.5224 -1.0767  0.1160
 3294TIP3   OH2 9887   2.345   1.289   1.445  0.2786  0.1089 -0.0876
 3294TIP3    H1 9888   2.253   1.266   1.461  0.2884 -0.1234 -0.3596
 3294TIP3    H2 9889   2.378   1.218   1.390  1.2531 -0.9967  1.8203
 3295TIP3   OH2 9890   2.876   3.375   3.447 -0.0799 -0.3860  0.6984
 3295TIP3    H1 9891   2.866   3.452   3.504 -0.1683  0.4706 -0.4377
 3295TIP3    H2 9892   2.858   3.300   3.505  1.3239  0.3408  2.1678
 3296TIP3   OH2 9893   4.774   1.532   0.374  0.6048  0.4074 -0.2690
 3296TIP3    H1 9894   4.755   1.464   0.309  0.1300  0.0353  0.2420
 3296TIP3    H2 9895   4.716   1.511   0.447 -0.2997  1.9730 -0.5038
 3297TIP3   OH2 9896   1.093   4.978   3.291  0.3060  0.2509 -0.3223
 3297TIP3    H1 9897   1.096   5.010   3.381  0.6789 -0.3817 -0.1044
 3297TIP3    H2 9898   1.082   5.057   3.238 -1.3996  0.5018  0.3582
 3298TIP3   OH2 9899   3.874   4.785   3.293  0.2374 -0.1058  0.3901
 3298TIP3    H1 9900   3.818   4.713   3.264  2.4748 -1.1348 -1.7696
 3298TIP3    H2 9901   3.815   4.859   3.303 -1.7594 -1.5769  0.1109
 3299TIP3   OH2 9902   5.274   5.059   3.535 -0.2526 -0.1887 -0.1717
 3299TIP3    H1 9903   5.364   5.076   3.561 -0.7651 -0.5962  2.0342
 3299TIP3    H2 9904   5.245   4.988   3.593 -1.5845 -1.0085 -1.7469
 3300TIP3   OH2 9905   4.219   0.544   4.862 -0.3496 -0.3286 -0.1950
 3300TIP3    H1 9906   4.134   0.552   4.906 -0.4085 -1.3012 -0.1021
 3300TIP3    H2 9907   4.276   0.505   4.929  0.7907  2.2885  0.4852
 3301TIP3   OH2 9908   4.404   2.405   2.796  0.2589 -0.0923 -0.0728
 3301TIP3    H1 9909   4.343   2.428   2.726 -0.9074 -1.9744  0.2480
 3301TIP3    H2 9910   4.365   2.443   2.875  0.6994  0.6050 -0.1820
 3302TIP3   OH2 9911   1.266   1.692   4.368 -0.3940  0.2593  0.3215
 3302TIP3    H1 9912   1.283   1.782   4.396 -3.3761  1.3340 -0.9505
 3302TIP3    H2 9913   1.229   1.649   4.445  1.7630 -0.2189  1.1728
 3303TIP3   OH2 9914   1.336   0.272   0.072 -0.0204  0.2526 -0.2536
 3303TIP3    H1 9915   1.314   0.358   0.108  2.2706  0.9898 -0.4590
 3303TIP3    H2 9916   1.417   0.247   0.117 -0.4364 -1.6533 -0.4613
 3304TIP3   OH2 9917   4.551   0.649   0.659 -0.4042  0.8887  0.2608
 3304TIP3    H1 9918   4.586   0.736   0.640 -1.0774  1.0649 -0.2203
 3304TIP3    H2 9919   4.618   0.589   0.628 -0.1554  1.2290  0.1330
 3305TIP3   OH2 9920   2.852   2.617   0.201 -0.6987 -0.6518  0.0168
 3305TIP3    H1 9921   2.938   2.624   0.243 -0.0283 -2.0579 -1.0481
 3305TIP3    H2 9922   2.805   2.553   0.254 -1.5855  0.9847  1.3117
 3306TIP3   OH2 9923   4.340   2.067   2.121 -0.5120  0.2279  0.2119
 3306TIP3    H1 9924   4.252   2.031   2.128 -1.9173  3.2259 -0.3383
 3306TIP3    H2 9925   4.363   2.093   2.210 -0.2310 -0.4222  0.3322
 3307TIP3   OH2 9926   1.484   0.160   4.722  0.2981 -0.4971  0.4948
 3307TIP3    H1 9927   1.494   0.168   4.817  1.2358 -2.3110  0.6061
 3307TIP3    H2 9928   1.391   0.178   4.706 -0.4369 -2.4336  2.0935
 3308TIP3   OH2 9929   1.121   1.990   3.700  0.0665  0.2397 -0.5548
 3308TIP3    H1 9930   1.084   1.977   3.613  1.8726  1.4763 -1.5459
 3308TIP3    H2 9931   1.215   2.002   3.686  0.0026  4.2823  1.1018
 3309TIP3   OH2 9932   5.856   1.927   3.239  0.1412  0.0559  0.5192
 3309TIP3    H1 9933   5.904   1.926   3.321 -0.6630 -0.3990  0.9914
 3309TIP3    H2 9934   5.924   1.924   3.171  0.7823 -0.1830  1.1670
 3310TIP3   OH2 9935   2.550   2.873   3.756  0.5465 -0.1166 -0.2405
 3310TIP3    H1 9936   2.576   2.915   3.838 -0.6668  3.3325 -1.4468
 3310TIP3    H2 9937   2.457   2.853   3.767  1.1361 -2.8651  0.3697
 3311TIP3   OH2 9938   3.487   4.783   3.085  0.1993  0.2263 -0.5706
 3311TIP3    H1 9939   3.476   4.855   3.147 -4.4326  0.4529 -1.3198
 3311TIP3    H2 9940   3.526   4.823   3.008  1.2124  1.0564  0.3429
 3312TIP3   OH2 9941   5.469   3.261   3.534  0.4034  0.0502  0.1467
 3312TIP3    H1 9942   5.516   3.182   3.508  0.3502  0.1813 -0.3605
 3312TIP3    H2 9943   5.380   3.230   3.553 -0.3848  0.3423 -2.6524
 3313TIP3   OH2 9944   4.653   0.799   4.977  0.0465  0.5201 -0.2405
 3313TIP3    H1 9945   4.654   0.719   5.030 -0.1231  1.1592  0.7624
 3313TIP3    H2 9946   4.633   0.869   5.040 -0.4357  1.2702 -1.2039
 3314TIP3   OH2 9947   0.888   3.088   2.279 -0.1753 -0.2472 -0.5382
 3314TIP3    H1 9948   0.820   3.046   2.332  1.7083 -1.1387  1.3013
 3314TIP3    H2 9949   0.929   3.151   2.338  0.4835  0.4077 -1.6650
 3315TIP3   OH2 9950   0.277   4.026   1.240  0.0666  0.3917  0.2380
 3315TIP3    H1 9951   0.249   4.032   1.148 -0.8842  2.0370  0.6150
 3315TIP3    H2 9952   0.219   3.960   1.278 -0.8591  1.1353  0.1283
 3316TIP3   OH2 9953   4.140   2.120   3.818 -0.2769  0.2318  0.1182
 3316TIP3    H1 9954   4.229   2.157   3.821 -0.1173 -0.2125  1.0391
 3316TIP3    H2 9955   4.087   2.182   3.868 -0.4716  0.4540 -0.3624
 3317TIP3   OH2 9956   0.313   2.068   1.511 -0.2003 -0.2473  0.3324
 3317TIP3    H1 9957   0.250   2.130   1.548  1.2866  1.3085  0.3917
 3317TIP3    H2 9958   0.397   2.112   1.519  0.9509 -2.3370  0.4454
 3318TIP3   OH2 9959   3.872   0.746   0.681 -0.4132  0.0662 -0.1967
 3318TIP3    H1 9960   3.836   0.757   0.593 -2.1124  0.7234  0.5262
 3318TIP3    H2 9961   3.961   0.782   0.676 -1.5801  3.2172 -0.9155
 3319TIP3   OH2 9962   3.895   5.438   5.106 -0.5502  0.3821  0.0732
 3319TIP3    H1 9963   3.851   5.493   5.041 -2.7064 -0.4021  0.7949
 3319TIP3    H2 9964   3.861   5.469   5.190 -0.0726 -0.5614  0.6312
 3320TIP3   OH2 9965   3.651   4.682   1.008  0.5518  0.1118  0.4248
 3320TIP3    H1 9966   3.591   4.639   0.948  0.2955  2.9449 -1.5312
 3320TIP3    H2 9967   3.649   4.627   1.087 -2.8061 -1.1812 -0.3780
 3321TIP3   OH2 9968   3.559   4.980   0.173 -0.0139 -0.4943 -0.2848
 3321TIP3    H1 9969   3.578   5.071   0.151 -1.0985 -0.6840 -2.2607
 3321TIP3    H2 9970   3.464   4.973   0.168  0.0682 -1.7963 -0.4260
 3322TIP3   OH2 9971   3.416  -0.006   4.185 -0.5048  0.2224 -0.1202
 3322TIP3    H1 9972   3.389   0.085   4.175  0.3519  0.4627 -0.2639
 3322TIP3    H2 9973   3.375  -0.051   4.111  0.0419  0.7120 -0.7372
 3323TIP3   OH2 9974   3.627   0.877   3.087  0.0629 -0.1649 -0.0832
 3323TIP3    H1 9975   3.569   0.945   3.121  0.6833 -0.0787  0.8703
 3323TIP3    H2 9976   3.699   0.925   3.046  0.0691 -0.2509 -0.1727
 3324TIP3   OH2 9977   3.489   4.282   0.050  0.0255  0.1765 -0.0424
 3324TIP3    H1 9978   3.416   4.250  -0.002  1.4935  0.2311 -2.2673
 3324TIP3    H2 9979   3.449   4.316   0.130 -2.2659 -0.4881 -0.8476
 3325TIP3   OH2 9980   0.572   4.975   1.427  0.7771 -0.0027  0.0218
 3325TIP3    H1 9981   0.477   4.965   1.438  0.6967  0.0940 -0.5515
 3325TIP3    H2 9982   0.606   4.885   1.431  0.3708 -0.3283 -2.2564
 3326TIP3   OH2 9983   2.608   0.477   0.632  0.1611 -1.1984  0.2392
 3326TIP3    H1 9984   2.611   0.515   0.544  0.1106 -1.8859 -0.0680
 3326TIP3    H2 9985   2.594   0.552   0.690  0.5511 -0.6942 -0.3037
 3327TIP3   OH2 9986   1.930   0.465   3.860 -0.3829  0.5138  0.0185
 3327TIP3    H1 9987   1.842   0.443   3.830 -0.9519 -0.4930  2.2387
 3327TIP3    H2 9988   1.963   0.527   3.795 -2.3157  0.1167 -1.4204
 3328TIP3   OH2 9989   2.600   5.734   0.219  0.5278 -0.3571  0.1107
 3328TIP3    H1 9990   2.507   5.759   0.224  0.1047 -1.9999  1.6196
 3328TIP3    H2 9991   2.642   5.786   0.287  0.6450  0.0251 -0.2460
 3329TIP3   OH2 9992   0.279   1.286   0.117 -0.5276 -0.3160  0.0867
 3329TIP3    H1 9993   0.289   1.379   0.098 -0.7505 -0.7171 -2.2815
 3329TIP3    H2 9994   0.185   1.271   0.117 -0.5059 -0.4841  0.8289
 3330TIP3   OH2 9995   2.799  -0.001   1.559 -0.2486  0.1418  1.0625
 3330TIP3    H1 9996   2.858   0.045   1.499  0.7936  0.3455  2.2033
 3330TIP3    H2 9997   2.712   0.013   1.522  0.5052 -2.0977 -1.9908
 3331TIP3   OH2 9998   5.777   1.561   1.222  0.5244  0.0008  0.0401
 3331TIP3    H1 9999   5.714   1.589   1.287  0.3339 -1.6904  0.6479
 3331TIP3    H210000   5.858   1.608   1.244  0.7128 -1.1604  2.0830
 3332TIP3   OH210001   1.434   0.168   4.432 -0.2035 -0.2335  0.3128
 3332TIP3    H110002   1.354   0.215   4.456 -0.4429 -1.1545  1.3619
 3332TIP3    H210003   1.481   0.155   4.514  0.0583 -1.4509 -0.0047
 3333TIP3   OH210004   2.426   2.291   2.160  0.8956  0.6493  0.4747
 3333TIP3    H110005   2.493   2.236   2.201  0.5423  0.5694  0.9597
 3333TIP3    H210006   2.391   2.237   2.089  0.2434  0.0571  1.2247
 3334TIP3   OH210007   5.835   4.526   1.139  0.2111 -0.2556  0.3652
 3334TIP3    H110008   5.740   4.530   1.155 -0.2015 -1.9812 -1.2949
 3334TIP3    H210009   5.857   4.614   1.108 -1.0736 -0.1227 -0.2613
 3335TIP3   OH210010   0.543   1.411   1.802  0.5031  0.5016 -0.3908
 3335TIP3    H110011   0.559   1.342   1.867  0.2802  0.3780 -0.4669
 3335TIP3    H210012   0.494   1.367   1.733 -0.6909  1.0193  0.1046
 3336TIP3   OH210013   0.199   3.481   4.514 -0.0866  0.1419  1.0833
 3336TIP3    H110014   0.294   3.478   4.518  0.0467 -2.9251 -0.9741
 3336TIP3    H210015   0.179   3.522   4.430 -0.4148 -1.8258  0.1487
 3337TIP3   OH210016   1.844   1.455   1.029  0.1116  0.2468 -0.9256
 3337TIP3    H110017   1.883   1.451   0.941  0.4823  2.2969 -0.9033
 3337TIP3    H210018   1.875   1.376   1.072  0.9896 -0.1642 -2.2203
 3338TIP3   OH210019   5.594   3.147   2.005 -0.0946 -0.2782  0.6197
 3338TIP3    H110020   5.594   3.140   2.100 -0.5041 -0.1121  0.6374
 3338TIP3    H210021   5.527   3.214   1.986 -1.0621 -1.3514  0.1412
 3339TIP3   OH210022   1.081   0.598   4.951 -0.5722 -0.1713 -0.2037
 3339TIP3    H110023   1.010   0.535   4.943 -0.6829 -0.2515  1.0981
 3339TIP3    H210024   1.038   0.684   4.951 -0.4277 -0.0643 -1.9045
 3340TIP3   OH210025   1.854   4.218   3.330  0.0977  0.1532 -0.0452
 3340TIP3    H110026   1.796   4.293   3.344 -0.9452 -0.5208 -0.6148
 3340TIP3    H210027   1.886   4.195   3.417  0.5182  1.3206  0.1233
 3341TIP3   OH210028   1.100   0.543   3.703  0.0974 -0.2946  0.1272
 3341TIP3    H110029   1.154   0.615   3.671 -0.8835  0.3987 -0.0038
 3341TIP3    H210030   1.115   0.542   3.797  0.2425 -0.0251  0.1086
 3342TIP3   OH210031   3.526   2.012   0.568  0.3598  0.2915 -0.4006
 3342TIP3    H110032   3.618   2.031   0.546  0.5635 -1.7196 -1.5437
 3342TIP3    H210033   3.522   2.020   0.663  1.6535  0.6557 -0.3549
 3343TIP3   OH210034   1.295   3.007   0.897  0.2507  0.1229 -0.3283
 3343TIP3    H110035   1.277   2.913   0.898 -1.6919  0.4507  0.6203
 3343TIP3    H210036   1.379   3.015   0.851  0.7213 -2.0981  0.0284
 3344TIP3   OH210037   3.001   5.907   1.290 -0.0184  0.1551 -0.0032
 3344TIP3    H110038   3.018   5.902   1.196  0.8381 -1.2903  0.2095
 3344TIP3    H210039   2.923   5.962   1.297 -0.9036 -0.8353 -1.6425
 3345TIP3   OH210040   0.940   0.985   4.619  0.1456 -0.3460 -0.1541
 3345TIP3    H110041   1.028   0.949   4.622 -0.4741 -1.8745  0.6468
 3345TIP3    H210042   0.953   1.079   4.609  1.9534 -0.0682  3.4071
 3346TIP3   OH210043   4.892   0.449   2.621 -0.0174  0.1218  0.1909
 3346TIP3    H110044   4.818   0.396   2.650  0.4907 -1.1579 -0.7738
 3346TIP3    H210045   4.969   0.393   2.635  0.7633  1.3422  0.9742
 3347TIP3   OH210046   2.466   0.897   4.464  0.6283  0.2062 -0.4122
 3347TIP3    H110047   2.499   0.841   4.534 -1.9732 -0.7739  0.1735
 3347TIP3    H210048   2.500   0.858   4.384  1.6212 -0.1592  0.1679
 3348TIP3   OH210049   2.147   5.247   4.418 -0.6629  0.1750  0.5057
 3348TIP3    H110050   2.238   5.229   4.396 -0.4915  0.0057  1.3555
 3348TIP3    H210051   2.150   5.284   4.506 -1.1435  2.7892 -0.4668
 3349TIP3   OH210052   5.696   3.436   3.513 -0.3164 -0.1739  0.7468
 3349TIP3    H110053   5.623   3.374   3.503 -0.6310  0.2996  0.0588
 3349TIP3    H210054   5.698   3.484   3.430  1.8067 -1.2696  0.0815
 3350TIP3   OH210055   2.659   2.118   4.083  0.0782  0.7189  0.4572
 3350TIP3    H110056   2.733   2.152   4.033 -0.0892  2.4188  1.2862
 3350TIP3    H210057   2.612   2.197   4.113 -1.8787 -0.3064  0.2314
 3351TIP3   OH210058   1.741   0.969   0.487 -0.4590 -0.3419 -0.3226
 3351TIP3    H110059   1.686   0.905   0.441 -1.8556  0.2828  0.4315
 3351TIP3    H210060   1.708   1.054   0.458  1.4360  0.0804 -1.3823
 3352TIP3   OH210061   1.319   0.680   3.643  0.1377 -0.1361  0.4923
 3352TIP3    H110062   1.386   0.747   3.653  0.1359  0.3840 -2.3267
 3352TIP3    H210063   1.331   0.646   3.554 -1.5153 -2.0558  0.9228
 3353TIP3   OH210064   3.724   3.585   3.272 -0.2660 -0.0600 -0.0244
 3353TIP3    H110065   3.728   3.639   3.351  0.2883 -2.4179  1.6576
 3353TIP3    H210066   3.812   3.588   3.236 -0.2458  0.1596  0.0441
 3354TIP3   OH210067   4.287   2.811   4.996 -0.1413 -0.0785  0.1678
 3354TIP3    H110068   4.380   2.814   5.017 -0.0475 -0.1925 -0.2245
 3354TIP3    H210069   4.274   2.884   4.935 -0.0670 -0.8067 -0.7256
 3355TIP3   OH210070   3.598   4.776   3.996  0.1859  0.0043 -0.0686
 3355TIP3    H110071   3.665   4.835   3.961 -0.1235  0.1226 -0.4672
 3355TIP3    H210072   3.558   4.737   3.919 -2.0568  1.9725 -0.0329
 3356TIP3   OH210073   5.249   1.193   2.605  0.4985 -0.0838 -0.0177
 3356TIP3    H110074   5.168   1.242   2.591  0.9572  0.6323 -0.1852
 3356TIP3    H210075   5.225   1.126   2.670 -0.4538 -0.4649 -0.7254
 3357TIP3   OH210076   3.717   2.205   2.563  0.3001  0.7128 -0.4659
 3357TIP3    H110077   3.785   2.136   2.563 -0.3455  0.0514  0.2642
 3357TIP3    H210078   3.661   2.183   2.489 -1.4425 -1.1723  1.2793
 3358TIP3   OH210079   1.170   3.886   1.097  0.6843 -0.5415 -0.2213
 3358TIP3    H110080   1.161   3.850   1.185  2.4610 -0.2405  0.1224
 3358TIP3    H210081   1.198   3.812   1.043 -0.1541 -0.6674 -0.5057
 3359TIP3   OH210082   3.333   3.989   1.710 -0.3016 -0.0778  0.0769
 3359TIP3    H110083   3.373   4.073   1.685  0.8838  0.1878  2.4798
 3359TIP3    H210084   3.307   4.003   1.802  2.0820 -3.0096  1.3543
 3360TIP3   OH210085   1.165   2.705   1.206 -1.1970 -0.5362  0.3244
 3360TIP3    H110086   1.090   2.669   1.253 -0.4092 -0.4121  1.7211
 3360TIP3    H210087   1.234   2.711   1.272  0.6086 -2.2450 -1.2855
 3361TIP3   OH210088   3.800   4.916   4.548 -0.6176 -0.7938  0.1993
 3361TIP3    H110089   3.775   4.824   4.535 -1.3802 -0.5561 -0.0737
 3361TIP3    H210090   3.735   4.966   4.499  0.4369 -0.1395 -0.5843
 3362TIP3   OH210091   3.200   2.083   1.611  1.0007  0.4565 -0.9782
 3362TIP3    H110092   3.256   2.007   1.628 -0.9014 -0.7693  0.2671
 3362TIP3    H210093   3.155   2.098   1.694 -2.7398 -0.5891 -2.5970
 3363TIP3   OH210094   4.667   1.134   3.313  1.0856 -0.6159  0.4684
 3363TIP3    H110095   4.661   1.215   3.263  1.9120 -1.0767 -0.4096
 3363TIP3    H210096   4.655   1.065   3.248  1.0653 -1.2159  1.0962
 3364TIP3   OH210097   0.443   0.062   3.589 -0.0001 -0.0530 -0.0265
 3364TIP3    H110098   0.499   0.135   3.614  2.1636 -1.6717  0.1105
 3364TIP3    H210099   0.395   0.040   3.669  0.9083 -0.1175  0.5103
 3365TIP3   OH210100   3.372   3.748   3.534 -0.1158  0.0743  0.1602
 3365TIP3    H110101   3.298   3.692   3.509 -0.6235  0.6313  0.3999
 3365TIP3    H210102   3.345   3.788   3.617  1.2090 -1.1327  1.2268
 3366TIP3   OH210103   1.776   0.907   2.605  0.7245 -0.2856 -0.1612
 3366TIP3    H110104   1.737   0.951   2.680  1.2205  2.1183 -1.2353
 3366TIP3    H210105   1.718   0.833   2.588  0.1443 -0.3903  2.0422
 3367TIP3   OH210106   3.977   0.179   4.063 -0.4009  0.7390 -0.2706
 3367TIP3    H110107   4.051   0.158   4.006 -0.3687  3.9434 -1.6449
 3367TIP3    H210108   3.925   0.099   4.065  2.5607 -1.3549  0.0085
 3368TIP3   OH210109   4.219   5.714   0.857  0.0017 -0.6861 -0.8315
 3368TIP3    H110110   4.181   5.658   0.924  0.0318 -0.0753 -0.3013
 3368TIP3    H210111   4.302   5.744   0.894 -0.4890  0.5347 -0.6807
 3369TIP3   OH210112   5.088   4.154   0.361  0.0426  0.0097  0.2029
 3369TIP3    H110113   5.125   4.241   0.373 -0.3201 -0.0042  1.5308
 3369TIP3    H210114   5.039   4.160   0.279  1.8650  0.3856 -0.9269
 3370TIP3   OH210115   1.171   3.190   0.315 -0.1240 -0.6219  0.9046
 3370TIP3    H110116   1.128   3.169   0.398 -0.0449 -0.4752  0.9821
 3370TIP3    H210117   1.102   3.229   0.261 -0.2635 -1.0393  0.7742
 3371TIP3   OH210118   1.656   3.799   2.773  0.0636  0.0186 -0.3806
 3371TIP3    H110119   1.694   3.853   2.703  0.2604  0.3054 -0.0590
 3371TIP3    H210120   1.649   3.712   2.736  1.3852 -0.1224 -0.3317
 3372TIP3   OH210121   6.257   3.373   0.838 -0.8244 -0.3989  0.1341
 3372TIP3    H110122   6.255   3.288   0.796 -1.2935 -1.5155  2.2502
 3372TIP3    H210123   6.326   3.422   0.792  0.0576 -2.2288 -0.5622
 3373TIP3   OH210124   2.657   4.915   3.171  0.3477  0.7526 -0.1290
 3373TIP3    H110125   2.573   4.891   3.133 -1.1157  2.0382  2.0787
 3373TIP3    H210126   2.717   4.846   3.142 -1.7522 -0.9182 -0.7239
 3374TIP3   OH210127   2.265   1.111   0.941 -0.2260  0.3194 -0.0851
 3374TIP3    H110128   2.329   1.073   0.880  1.2294 -1.8952  2.5771
 3374TIP3    H210129   2.296   1.200   0.956  1.9166 -0.4827  0.5932
 3375TIP3   OH210130   2.929   2.905  -0.032  0.3283 -0.0659 -0.4362
 3375TIP3    H110131   2.903   2.951   0.048 -1.1821 -0.8345 -0.4511
 3375TIP3    H210132   2.999   2.846  -0.004 -0.0090 -0.1432  0.2723
 3376TIP3   OH210133   0.227   2.300   3.288 -0.7848  0.4691  0.1399
 3376TIP3    H110134   0.276   2.237   3.236  1.9923  0.6438  2.3144
 3376TIP3    H210135   0.294   2.356   3.328 -2.7598  0.9191  3.1427
 3377TIP3   OH210136   2.194   1.596   0.006  0.7203 -0.0208 -0.6340
 3377TIP3    H110137   2.143   1.650  -0.054  0.1082  0.7187  0.5049
 3377TIP3    H210138   2.144   1.597   0.088  1.9464 -0.2828  0.1569
 3378TIP3   OH210139   3.703   0.414   5.079  0.2256 -0.4613 -0.5262
 3378TIP3    H110140   3.772   0.409   5.013  1.1337 -0.0784  0.3675
 3378TIP3    H210141   3.622   0.408   5.029  0.8836 -0.0788 -1.6853
 3379TIP3   OH210142   3.746   2.241   2.181 -0.0966  0.4560  0.0449
 3379TIP3    H110143   3.718   2.176   2.117 -0.5055  0.2136  0.4646
 3379TIP3    H210144   3.673   2.246   2.244  0.3554  0.5902  0.5648
 3380TIP3   OH210145   0.327   2.820   3.058  0.8092  0.9207 -0.0999
 3380TIP3    H110146   0.320   2.915   3.057 -3.7966  0.8626 -3.3606
 3380TIP3    H210147   0.357   2.797   2.970 -1.6023 -0.6160 -0.5945
 3381TIP3   OH210148   2.761   1.090   2.551  0.9417 -0.1976 -0.2577
 3381TIP3    H110149   2.677   1.110   2.509  0.9382 -0.8726 -0.5732
 3381TIP3    H210150   2.737   1.050   2.635  0.9515  0.1928 -0.0657
 3382TIP3   OH210151   1.166   4.738   4.276 -0.4579 -0.4100 -0.0517
 3382TIP3    H110152   1.136   4.798   4.344  0.7852  0.3717 -0.1600
 3382TIP3    H210153   1.160   4.788   4.195  0.3217 -0.5106 -0.1809
 3383TIP3   OH210154   1.552   0.157   4.999 -0.1835 -0.3988 -0.4984
 3383TIP3    H110155   1.492   0.176   5.072 -0.4803  0.1855 -0.8867
 3383TIP3    H210156   1.608   0.087   5.032 -0.0465  0.1343  0.4429
 3384TIP3   OH210157   1.694   5.234   3.807 -0.4164 -0.4096 -0.2232
 3384TIP3    H110158   1.766   5.248   3.745  1.5443  0.5487  2.1179
 3384TIP3    H210159   1.644   5.315   3.804 -0.1590 -0.2513 -0.3615
 3385TIP3   OH210160   1.233   1.602  -0.027  0.0692 -0.0393  0.3138
 3385TIP3    H110161   1.183   1.565   0.045 -2.0483  0.7910 -0.6236
 3385TIP3    H210162   1.250   1.693  -0.000  2.3007 -0.6627  1.1800
 3386TIP3   OH210163   3.307   1.491   0.303  0.3461 -0.5645 -0.2833
 3386TIP3    H110164   3.371   1.487   0.231  1.1597  0.6593  0.3331
 3386TIP3    H210165   3.246   1.560   0.277 -0.2430 -1.1470 -0.4731
 3387TIP3   OH210166   1.060   2.780   4.370  0.2269  0.2866  0.4368
 3387TIP3    H110167   1.138   2.814   4.328  0.8139 -0.0198  1.2497
 3387TIP3    H210168   1.071   2.685   4.369  0.2930  0.2726  1.3271
 3388TIP3   OH210169   2.688   2.448   3.737 -0.4142  0.1018 -0.0035
 3388TIP3    H110170   2.726   2.363   3.755  0.1121  0.4058  0.3237
 3388TIP3    H210171   2.641   2.472   3.817 -0.1633  0.3311  0.0765
 3389TIP3   OH210172   5.236   1.487   0.764  0.7761 -0.6516  0.5840
 3389TIP3    H110173   5.232   1.392   0.766  0.9883 -0.7508 -1.5284
 3389TIP3    H210174   5.317   1.509   0.810  0.1601 -1.3871  2.0938
 3390TIP3   OH210175   0.312   2.768   0.132 -0.3234  0.3700  0.0577
 3390TIP3    H110176   0.249   2.710   0.176 -1.4244  0.6769 -1.0458
 3390TIP3    H210177   0.376   2.708   0.093 -0.2031  0.0253  0.7629
 3391TIP3   OH210178   5.129   3.580   3.226  0.8387  0.1673 -0.5986
 3391TIP3    H110179   5.166   3.568   3.313  1.8812  3.8356 -0.3329
 3391TIP3    H210180   5.038   3.551   3.233  1.2692 -0.8189  1.3044
 3392TIP3   OH210181   2.664   5.790   1.802 -0.4999 -0.1642 -0.0876
 3392TIP3    H110182   2.725   5.737   1.853 -0.4029 -1.7386 -1.7582
 3392TIP3    H210183   2.598   5.728   1.771 -0.5316  0.7072 -1.8771
 3393TIP3   OH210184   4.978   5.662   0.961 -0.1471 -0.0631 -0.1638
 3393TIP3    H110185   4.959   5.568   0.967 -0.3844  0.0510  1.4925
 3393TIP3    H210186   4.904   5.699   0.914  0.3697 -0.7939 -1.6270
 3394TIP3   OH210187   0.887   3.940   4.335 -0.1404  0.1609  0.1186
 3394TIP3    H110188   0.823   3.959   4.403  0.0389 -0.2575  0.4117
 3394TIP3    H210189   0.932   4.023   4.320  0.1943  0.1335  0.9074
 3395TIP3   OH210190   5.886   4.263   2.062 -0.3859 -0.9347 -0.0164
 3395TIP3    H110191   5.906   4.210   1.985  0.9088  0.8947 -1.0046
 3395TIP3    H210192   5.928   4.347   2.045 -1.8645  0.2352  1.7576
 3396TIP3   OH210193   3.538   1.189   3.232 -0.2700  0.0991 -0.4026
 3396TIP3    H110194   3.454   1.193   3.278  0.2546  0.7127  0.5569
 3396TIP3    H210195   3.546   1.275   3.190 -0.4619 -0.2353 -1.1308
 3397TIP3   OH210196   0.576   3.236   0.485  0.0851  0.1748  0.1931
 3397TIP3    H110197   0.511   3.232   0.415 -0.7007  2.5022  0.6774
 3397TIP3    H210198   0.543   3.177   0.553 -1.7081  1.4616  0.5146
 3398TIP3   OH210199   1.087   5.062   2.195 -0.2463 -0.3675 -0.5914
 3398TIP3    H110200   1.010   5.024   2.237 -0.1933  2.5131  2.5182
 3398TIP3    H210201   1.158   5.048   2.257  1.0726 -0.2149 -1.9900
 3399TIP3   OH210202   3.896   0.992   4.832 -0.1410  0.5945  0.1716
 3399TIP3    H110203   3.866   1.032   4.750  0.4741  0.6963 -0.0138
 3399TIP3    H210204   3.982   1.033   4.847  0.0968 -0.0074  0.4514
 3400TIP3   OH210205   4.177   2.216   3.118 -0.1173 -0.3797  0.5780
 3400TIP3    H110206   4.155   2.221   3.025  1.3276  1.3793  0.2772
 3400TIP3    H210207   4.214   2.128   3.129 -0.1170 -0.5326 -0.5429
 3401TIP3   OH210208   3.253   2.202   2.220 -0.7834  0.1167  0.2401
 3401TIP3    H110209   3.200   2.281   2.215  0.6140  1.1145  0.5505
 3401TIP3    H210210   3.334   2.225   2.175 -1.0930 -1.8174 -1.4330
 3402TIP3   OH210211   3.124   3.700   1.925 -0.1696  0.2357  0.5859
 3402TIP3    H110212   3.066   3.707   1.849  0.5779 -0.8948 -0.1121
 3402TIP3    H210213   3.089   3.765   1.987 -2.2457 -0.4788  0.2593
 3403TIP3   OH210214   0.024   0.932   0.031  0.0439 -0.0177  0.2194
 3403TIP3    H110215  -0.055   0.968   0.072 -0.6201 -2.5503  1.3269
 3403TIP3    H210216   0.087   0.923   0.102  0.3853 -0.5399 -0.1398
 3404TIP3   OH210217   5.993   0.362   4.001  0.4705 -1.1080 -0.1717
 3404TIP3    H110218   5.980   0.302   3.928 -0.2172 -1.1014 -0.0650
 3404TIP3    H210219   5.965   0.447   3.966  0.6763 -0.9999 -0.0737
 3405TIP3   OH210220   3.436   0.874   3.332 -0.2190  0.1729  0.1457
 3405TIP3    H110221   3.527   0.844   3.338 -0.5908 -0.9334  0.6231
 3405TIP3    H210222   3.398   0.818   3.264 -0.8799 -0.3258  0.9030
 3406TIP3   OH210223   5.515   2.770   1.370 -0.1998 -0.5632  0.1697
 3406TIP3    H110224   5.438   2.820   1.342 -1.1420 -1.8680  0.3223
 3406TIP3    H210225   5.553   2.822   1.440 -0.3858  0.5618 -0.5351
 3407TIP3   OH210226   3.011   3.293   3.895 -0.0852  0.3784  0.2128
 3407TIP3    H110227   3.055   3.350   3.832 -0.2484  2.3028  1.7558
 3407TIP3    H210228   2.984   3.352   3.966 -1.1337 -1.4824  1.4319
 3408TIP3   OH210229   3.628   0.598   4.443 -0.3404  0.4085 -0.0320
 3408TIP3    H110230   3.707   0.576   4.393 -0.5696 -1.0632  0.2008
 3408TIP3    H210231   3.658   0.603   4.534 -0.9009 -3.0989  0.5121
 3409TIP3   OH210232   3.369   0.442   2.667 -0.0079  0.0290 -0.0526
 3409TIP3    H110233   3.316   0.501   2.720 -2.8275 -0.6654 -1.8866
 3409TIP3    H210234   3.396   0.373   2.728  0.8519  1.6052  1.4390
 3410TIP3   OH210235   3.501   1.512   0.121 -0.0589 -0.4918  0.0823
 3410TIP3    H110236   3.496   1.545   0.031 -0.4871  0.0529  0.3013
 3410TIP3    H210237   3.566   1.569   0.163 -0.1160 -0.5244  0.2141
 3411TIP3   OH210238   4.653   0.988   1.991  0.4430  0.0044 -0.2063
 3411TIP3    H110239   4.572   0.945   1.962  0.6283 -0.8725  0.5279
 3411TIP3    H210240   4.652   1.073   1.947 -1.3475  0.4125  0.5056
 3412TIP3   OH210241   5.318   3.842   1.501  0.1295  0.5785  0.2631
 3412TIP3    H110242   5.236   3.797   1.481 -0.2950  1.1397  0.7230
 3412TIP3    H210243   5.323   3.913   1.438  0.2111  0.6050  0.2992
 3413TIP3   OH210244   1.953   3.782   2.294 -0.3803  0.3976  0.7405
 3413TIP3    H110245   2.044   3.768   2.321 -0.7177 -3.0522  0.5165
 3413TIP3    H210246   1.959   3.843   2.220  1.9706 -1.0967 -0.3986
 3414TIP3   OH210247   1.698   2.938   4.940 -0.8048  0.1399  0.1560
 3414TIP3    H110248   1.748   2.898   5.011 -1.4985 -0.8680  0.1067
 3414TIP3    H210249   1.680   3.027   4.970  0.0833  0.1612  0.6392
 3415TIP3   OH210250   2.817   5.598   4.490 -0.2300 -0.3923  0.0264
 3415TIP3    H110251   2.855   5.676   4.529  1.6504 -0.6952 -1.0942
 3415TIP3    H210252   2.740   5.630   4.441 -0.3550  0.5152  0.7942
 3416TIP3   OH210253   1.184   5.670   1.588 -0.0017 -0.0464  0.9133
 3416TIP3    H110254   1.215   5.616   1.661 -0.8550  0.8307  1.9562
 3416TIP3    H210255   1.228   5.754   1.601 -1.7485  0.8007  1.6835
 3417TIP3   OH210256   5.234   1.787   3.263  0.1886  0.4258 -0.7139
 3417TIP3    H110257   5.189   1.834   3.332  1.4187  1.8653 -0.8309
 3417TIP3    H210258   5.245   1.852   3.193  2.1276  0.0745 -0.7968
 3418TIP3   OH210259   1.815   5.117   3.090 -0.1893 -0.1109  0.2969
 3418TIP3    H110260   1.876   5.084   3.024  0.2666  0.5224  0.3894
 3418TIP3    H210261   1.775   5.194   3.048 -0.6319 -0.2842  0.3910
 3419TIP3   OH210262   2.143   4.543   0.326 -0.1491  0.0004  0.4928
 3419TIP3    H110263   2.144   4.484   0.401 -0.3289  0.2767  0.7141
 3419TIP3    H210264   2.052   4.572   0.319  0.2889  1.7045  1.5373
 3420TIP3   OH210265   2.004   3.546   1.932 -0.5159  0.1401 -0.3707
 3420TIP3    H110266   2.030   3.530   2.022 -0.5345 -2.1513 -0.7158
 3420TIP3    H210267   2.083   3.580   1.890  0.0478 -0.5719  0.0908
 3421TIP3   OH210268   5.733   4.018   3.287 -0.4305  0.4782  0.2044
 3421TIP3    H110269   5.743   3.961   3.211  0.9510 -0.4668  1.0404
 3421TIP3    H210270   5.652   4.067   3.271 -1.1898 -1.0914 -0.9515
 3422TIP3   OH210271   3.128   3.744   2.743  0.6405  0.0864 -0.0957
 3422TIP3    H110272   3.200   3.733   2.805  2.3218  0.6528 -1.8482
 3422TIP3    H210273   3.121   3.660   2.698  0.4223  0.1265 -0.1404
 3423TIP3   OH210274   0.390   0.318   1.007  0.1321  0.4470 -0.2722
 3423TIP3    H110275   0.355   0.229   1.002 -0.3386  0.6442 -0.6039
 3423TIP3    H210276   0.485   0.307   1.008  0.0694 -0.0838  0.2243
 3424TIP3   OH210277   0.447   4.616   2.840  0.1807 -0.0443 -0.0397
 3424TIP3    H110278   0.373   4.643   2.893 -0.8492 -2.4555 -0.1267
 3424TIP3    H210279   0.409   4.594   2.755  0.9939 -1.1483 -0.1396
 3425TIP3   OH210280   2.804   5.716   3.059 -0.3483  0.0854 -0.2757
 3425TIP3    H110281   2.785   5.779   2.990  0.4099  1.8808  1.0721
 3425TIP3    H210282   2.718   5.692   3.094 -0.7651 -1.1073 -1.9969
 3426TIP3   OH210283   3.144   5.704   1.122  0.4830 -0.1998 -0.4308
 3426TIP3    H110284   3.056   5.727   1.092  0.3463  2.5096  1.6849
 3426TIP3    H210285   3.137   5.612   1.148 -1.1657 -0.5880 -1.9774
 3427TIP3   OH210286   5.607   3.802   5.163  0.2658  0.2542 -0.0189
 3427TIP3    H110287   5.590   3.733   5.227  1.7014 -0.1383 -0.0093
 3427TIP3    H210288   5.669   3.763   5.102 -0.3749  0.9267 -1.1311
 3428TIP3   OH210289   5.215   0.830   3.312  0.2933 -0.1629 -0.4514
 3428TIP3    H110290   5.255   0.855   3.229  0.1886 -0.3516 -0.5588
 3428TIP3    H210291   5.122   0.847   3.300  0.5859  3.1563  0.7949
 3429TIP3   OH210292   0.810   5.182   3.559  0.4767  0.3040 -0.1422
 3429TIP3    H110293   0.782   5.123   3.489  0.5608 -1.1611  1.0096
 3429TIP3    H210294   0.753   5.258   3.551 -1.5469 -1.1104 -0.0144
 3430TIP3   OH210295   4.944   3.331   4.520  0.4768  0.0120  0.0716
 3430TIP3    H110296   4.913   3.311   4.609  1.3000  0.8716  0.5586
 3430TIP3    H210297   4.881   3.286   4.463 -0.3661 -0.1265  1.0745
 3431TIP3   OH210298   2.748   2.199   4.496 -0.5541  0.0907  0.8426
 3431TIP3    H110299   2.824   2.220   4.441 -1.3451  1.0912  0.0906
 3431TIP3    H210300   2.680   2.173   4.435 -1.7564  2.1258  1.1900
 3432TIP3   OH210301   2.631   0.102   4.136  0.0838  0.7595 -0.0226
 3432TIP3    H110302   2.659   0.075   4.224  1.7012 -1.8528 -1.2182
 3432TIP3    H210303   2.536   0.115   4.145 -0.0916 -1.1043  1.8006
 3433TIP3   OH210304   5.089   2.531   0.099 -0.0636 -0.1516 -0.1663
 3433TIP3    H110305   4.999   2.553   0.122 -0.2329  0.3843 -1.2576
 3433TIP3    H210306   5.081   2.464   0.031  0.2855  1.0024 -1.4045
 3434TIP3   OH210307   3.428   4.045   2.994 -0.0783  0.3098  0.2448
 3434TIP3    H110308   3.447   4.076   3.082  0.8873 -1.8912  0.8856
 3434TIP3    H210309   3.511   4.010   2.962 -0.2145  1.7283 -1.8855
 3435TIP3   OH210310   2.064   3.183   3.043 -0.5087 -0.2203  0.7582
 3435TIP3    H110311   2.009   3.105   3.038 -0.2170 -0.4305  0.8040
 3435TIP3    H210312   2.153   3.149   3.053 -0.5298  0.1177  2.3912
 3436TIP3   OH210313   5.735   3.366   1.279  0.1311 -0.1067 -0.1307
 3436TIP3    H110314   5.760   3.458   1.265 -0.1380 -0.1166 -0.7231
 3436TIP3    H210315   5.686   3.366   1.361  1.6114 -0.0030  0.7933
 3437TIP3   OH210316   4.585   3.302   0.198  0.7650 -0.3281 -0.2335
 3437TIP3    H110317   4.522   3.360   0.156  1.2268  1.3526  1.2472
 3437TIP3    H210318   4.648   3.281   0.129 -0.1796 -0.2153 -1.1536
 3438TIP3   OH210319   2.022   5.121   2.608  0.1541  0.4558  0.2808
 3438TIP3    H110320   2.004   5.143   2.517 -1.8091  0.2062  0.5786
 3438TIP3    H210321   2.096   5.060   2.603  0.3954  0.8257 -1.1000
 3439TIP3   OH210322   1.668   5.877   1.999  0.0807 -0.5566 -0.1479
 3439TIP3    H110323   1.573   5.877   1.994 -0.0163 -0.8027  1.2111
 3439TIP3    H210324   1.697   5.832   1.920 -0.9180 -0.3139 -0.6678
 3440TIP3   OH210325   5.678   2.913   3.968 -0.1652 -0.3991  0.1077
 3440TIP3    H110326   5.588   2.937   3.943 -0.2894 -1.2159 -0.2357
 3440TIP3    H210327   5.717   2.996   3.995 -1.3711 -0.2017  1.3719
 3441TIP3   OH210328   6.200   4.686   2.595 -0.1604 -0.0282 -1.0177
 3441TIP3    H110329   6.166   4.769   2.560 -3.5149 -0.9101 -0.2559
 3441TIP3    H210330   6.222   4.634   2.517  0.1544  0.8912 -1.5561
 3442TIP3   OH210331   3.247   1.045   1.145  0.0253  0.5882  0.6512
 3442TIP3    H110332   3.245   0.955   1.179  1.2983  0.5435  0.6419
 3442TIP3    H210333   3.302   1.040   1.067  0.2304  1.4004  0.7357
 3443TIP3   OH210334   5.842   5.111   2.246 -0.7002  0.4593  0.2735
 3443TIP3    H110335   5.880   5.168   2.179 -1.3149  0.4064 -0.1360
 3443TIP3    H210336   5.824   5.029   2.200  0.2328 -0.0879  0.8808
 3444TIP3   OH210337   1.015   5.561   4.519 -0.6539 -0.2444 -0.5495
 3444TIP3    H110338   0.970   5.476   4.524  0.7122 -0.9220  1.6229
 3444TIP3    H210339   1.015   5.593   4.609  0.6140  1.1192 -1.0079
 3445TIP3   OH210340   0.156   2.094   2.210 -0.0151  0.1339 -0.4662
 3445TIP3    H110341   0.243   2.054   2.212  0.2732  0.7463 -0.5425
 3445TIP3    H210342   0.134   2.108   2.302  0.4193  0.9315 -0.4765
 3446TIP3   OH210343   3.427   1.514   0.908 -0.4289  0.1398  0.1665
 3446TIP3    H110344   3.433   1.604   0.877 -1.2040 -0.2065 -1.0501
 3446TIP3    H210345   3.466   1.462   0.838 -0.2273 -0.5047  0.7441
 3447TIP3   OH210346   1.198   0.442   1.136  0.5342  0.1705  0.3795
 3447TIP3    H110347   1.241   0.520   1.101  0.7259 -0.4343 -0.7473
 3447TIP3    H210348   1.224   0.371   1.077 -0.9466 -0.4500  0.4407
 3448TIP3   OH210349   3.590   1.908   2.836 -0.2624  0.4346  0.6701
 3448TIP3    H110350   3.656   1.874   2.897 -0.4843 -0.6779  0.3264
 3448TIP3    H210351   3.613   1.868   2.752  1.0668  3.2855 -0.4333
 3449TIP3   OH210352   2.529   2.421   2.612  0.1201  0.0014  0.2755
 3449TIP3    H110353   2.536   2.331   2.580 -2.5468  0.1988 -1.1890
 3449TIP3    H210354   2.550   2.474   2.536 -1.4513  0.5516  0.2020
 3450TIP3   OH210355   0.850   5.488   2.550  0.5590 -0.2801  0.5084
 3450TIP3    H110356   0.920   5.489   2.616  1.2140  1.5968 -0.1596
 3450TIP3    H210357   0.773   5.461   2.599  1.4905 -1.2217  1.5271
 3451TIP3   OH210358   2.106   4.725   4.096 -0.2374  0.6334 -0.3679
 3451TIP3    H110359   2.112   4.630   4.083  1.4443  0.8007 -1.0922
 3451TIP3    H210360   2.019   4.749   4.065  0.1194 -0.3817 -2.2612
 3452TIP3   OH210361   1.962   3.772   2.626 -0.0127 -0.5126 -0.2123
 3452TIP3    H110362   1.887   3.827   2.606  0.0482 -0.3384  0.0281
 3452TIP3    H210363   2.024   3.787   2.554  0.1916  0.0772  0.0775
 3453TIP3   OH210364   3.734   4.150   3.909 -0.2959  0.0340 -0.0615
 3453TIP3    H110365   3.758   4.196   3.828  1.9547 -1.8111 -0.5559
 3453TIP3    H210366   3.770   4.204   3.979 -0.4962  0.6214 -0.4063
 3454TIP3   OH210367   0.452   5.391   5.162 -0.1902 -0.5978 -0.0860
 3454TIP3    H110368   0.483   5.345   5.084 -1.0251 -2.6333  0.7003
 3454TIP3    H210369   0.397   5.327   5.207  0.1447  0.5523  2.1100
 3455TIP3   OH210370   0.003   5.333   1.584  0.1069  0.5667  0.2124
 3455TIP3    H110371  -0.035   5.389   1.516  2.5124  2.2989  0.1499
 3455TIP3    H210372   0.091   5.368   1.597  1.5963 -2.8853  0.6006
 3456TIP3   OH210373   1.938   5.507   0.549  0.1419  0.5860 -0.0049
 3456TIP3    H110374   1.988   5.530   0.471  0.9233 -0.0276  0.3063
 3456TIP3    H210375   1.978   5.426   0.581 -0.1459  0.8433  1.0488
 3457TIP3   OH210376   5.579   0.482   0.034 -0.1591 -0.4081 -0.1197
 3457TIP3    H110377   5.586   0.501  -0.059 -1.9116 -0.6308 -0.3302
 3457TIP3    H210378   5.571   0.387   0.039  0.7312 -0.4715  0.3385
 3458TIP3   OH210379   2.523   0.492   5.111 -0.4365 -0.3464  0.0404
 3458TIP3    H110380   2.474   0.433   5.055 -0.5014 -1.9021  1.6631
 3458TIP3    H210381   2.463   0.514   5.182  0.1991  0.1774  0.4357
 3459TIP3   OH210382   2.923   4.262   2.918  0.0559  0.2527 -0.8785
 3459TIP3    H110383   2.995   4.208   2.885 -0.6492 -0.8265 -0.6873
 3459TIP3    H210384   2.877   4.205   2.980  0.1920  1.5837  0.4936
 3460TIP3   OH210385   6.213   4.034   3.706  0.1828 -0.1780  0.1266
 3460TIP3    H110386   6.118   4.041   3.693  0.2055  0.7480  0.3877
 3460TIP3    H210387   6.240   3.963   3.649 -0.6244 -0.2287 -0.2019
 3461TIP3   OH210388   0.079   2.451   0.697  0.7615 -0.2574 -0.0569
 3461TIP3    H110389   0.089   2.364   0.737 -1.7237 -0.7495 -0.3527
 3461TIP3    H210390   0.010   2.439   0.632  0.4448  1.9268 -0.1845
 3462TIP3   OH210391   2.813   0.255   0.548  0.0178 -0.1429  0.0382
 3462TIP3    H110392   2.879   0.314   0.585 -0.7284  0.8778 -0.2250
 3462TIP3    H210393   2.733   0.307   0.544 -0.6936 -1.2090 -0.1114
 3463TIP3   OH210394   3.460   3.269   0.520  0.0005 -0.4068  0.0165
 3463TIP3    H110395   3.495   3.352   0.552  0.5767 -0.7004  0.1710
 3463TIP3    H210396   3.409   3.234   0.593  1.2669 -1.0493  0.6380
 3464TIP3   OH210397   4.783   3.970   2.805 -0.2830  0.4474  0.1895
 3464TIP3    H110398   4.821   3.882   2.802 -0.2000  0.4771  0.3718
 3464TIP3    H210399   4.776   3.990   2.898 -1.1920  0.2508  0.1723
 3465TIP3   OH210400   2.045   5.952   0.977 -0.3586  0.3900 -1.0001
 3465TIP3    H110401   2.071   5.962   1.068 -0.0152 -0.8070 -0.9536
 3465TIP3    H210402   2.037   6.042   0.944  1.2911  0.8241 -0.3036
 3466TIP3   OH210403   3.083   0.095   2.654 -0.2213  0.3698 -0.4082
 3466TIP3    H110404   3.173   0.101   2.686 -0.7463  0.7282  1.1009
 3466TIP3    H210405   3.086   0.028   2.586  1.3489  1.0191 -1.0269
 3467TIP3   OH210406   6.113   5.270   1.372  0.1090 -0.3115  0.2402
 3467TIP3    H110407   6.201   5.299   1.347 -0.2844  1.6323  0.9549
 3467TIP3    H210408   6.127   5.190   1.421  1.5003 -0.0001  0.3825
 3468TIP3   OH210409   5.667   3.274   3.167  0.3967 -0.1174 -0.1062
 3468TIP3    H110410   5.641   3.264   3.259 -0.3811  0.1292 -0.2859
 3468TIP3    H210411   5.761   3.292   3.170  1.1690 -3.5513  0.4263
 3469TIP3   OH210412   0.811   5.239   4.185 -0.2359  0.4497  0.2114
 3469TIP3    H110413   0.731   5.247   4.133 -0.3513 -1.3637  0.0390
 3469TIP3    H210414   0.882   5.247   4.122 -0.2489  2.0715  0.3657
 3470TIP3   OH210415   5.835   0.386   2.663 -0.0823 -0.1548 -0.5900
 3470TIP3    H110416   5.754   0.379   2.613 -0.7770 -0.4652  0.5619
 3470TIP3    H210417   5.848   0.480   2.676  0.8107  0.0272 -2.4367
 3471TIP3   OH210418   2.991   2.821   1.483  0.3710 -0.3299  0.0031
 3471TIP3    H110419   3.011   2.895   1.540  0.3312 -1.1831  1.1476
 3471TIP3    H210420   3.075   2.797   1.444  0.3478  0.4374 -0.5457
 3472TIP3   OH210421   4.081   4.408   3.587 -0.4912 -0.3789 -0.2009
 3472TIP3    H110422   4.011   4.438   3.646 -1.0211 -0.5466 -0.7336
 3472TIP3    H210423   4.161   4.414   3.640 -1.1824 -2.2660  1.1624
 3473TIP3   OH210424   2.591   1.142   2.087 -1.0878 -0.2194  0.2383
 3473TIP3    H110425   2.539   1.184   2.018  1.6910 -1.2805 -2.7822
 3473TIP3    H210426   2.594   1.207   2.157 -0.3102  3.0518 -2.5249
 3474TIP3   OH210427   1.346   0.957   4.141 -0.3050  0.5191  0.3852
 3474TIP3    H110428   1.296   1.025   4.096 -1.4499  0.7687  1.9432
 3474TIP3    H210429   1.288   0.881   4.142  0.9221 -0.5070 -1.2556
 3475TIP3   OH210430   3.458   1.846   1.813  0.2995  0.2324 -0.0066
 3475TIP3    H110431   3.500   1.763   1.790 -2.1546 -1.1849  0.2111
 3475TIP3    H210432   3.372   1.841   1.771 -1.0539  1.3423  2.4546
 3476TIP3   OH210433   1.849   0.020   4.340 -0.9378 -0.2794  0.7748
 3476TIP3    H110434   1.805   0.097   4.303 -0.3457 -1.0044 -1.6264
 3476TIP3    H210435   1.787  -0.051   4.325 -0.3560 -0.7220  0.4308
 3477TIP3   OH210436   1.091   0.118   1.361 -0.2300  0.4716 -0.0123
 3477TIP3    H110437   1.024   0.175   1.399  0.5400  2.0570 -0.9595
 3477TIP3    H210438   1.173   0.165   1.374  0.4257 -0.3712 -0.9249
 3478TIP3   OH210439   4.270   3.850   1.431 -0.3123  0.4563 -0.0858
 3478TIP3    H110440   4.230   3.908   1.496  1.9458  0.2023  1.6570
 3478TIP3    H210441   4.212   3.855   1.356 -1.5000  3.0659  0.8775
 3479TIP3   OH210442   0.193   4.592   1.349 -0.8173 -0.1029  0.2174
 3479TIP3    H110443   0.131   4.637   1.292 -0.6833  1.1191  1.0005
 3479TIP3    H210444   0.179   4.499   1.332 -0.7702  0.2102 -1.8181
 3480TIP3   OH210445   0.549   3.146   1.243  0.2539 -0.3087 -0.1737
 3480TIP3    H110446   0.611   3.193   1.299 -2.3793  0.5627  2.2462
 3480TIP3    H210447   0.469   3.139   1.295 -1.4345 -2.2588 -2.7210
 3481TIP3   OH210448   1.447   0.215   4.165  0.2649 -0.8147  0.1393
 3481TIP3    H110449   1.430   0.181   4.253  3.0850 -2.8615  0.0527
 3481TIP3    H210450   1.392   0.293   4.157 -0.2746 -0.7211  3.5829
 3482TIP3   OH210451   2.474   4.019   0.538 -0.2129  0.7764  0.4070
 3482TIP3    H110452   2.486   4.021   0.633 -0.0705  2.7665  0.3845
 3482TIP3    H210453   2.518   3.938   0.510  1.2594  1.0292  1.8485
 3483TIP3   OH210454   3.139   2.783   4.048 -0.2198 -0.2540  0.1017
 3483TIP3    H110455   3.134   2.810   4.139  0.9859 -1.3865  0.5382
 3483TIP3    H210456   3.065   2.723   4.036 -0.7566  0.3883  0.1343
 3484TIP3   OH210457   3.974   5.197   4.928 -0.0739  0.1927 -0.5021
 3484TIP3    H110458   3.901   5.197   4.866  0.0623 -0.2974 -0.6694
 3484TIP3    H210459   3.965   5.279   4.976  0.8343  1.4426 -2.3488
 3485TIP3   OH210460   3.597   0.626   3.562  0.4577 -0.5252 -0.0106
 3485TIP3    H110461   3.647   0.684   3.505  0.4125 -0.0092  0.4680
 3485TIP3    H210462   3.654   0.613   3.638  0.3609 -0.9068 -0.0007
 3486TIP3   OH210463   1.107   2.959   2.129 -0.2569 -0.0533 -0.1959
 3486TIP3    H110464   1.014   2.982   2.131 -0.0549  0.7873  0.0484
 3486TIP3    H210465   1.143   3.002   2.206  0.7938  1.7036 -1.6101
 3487TIP3   OH210466   4.989   5.606   2.012  0.2438 -0.1198  0.4462
 3487TIP3    H110467   5.027   5.664   1.946  0.0822  0.5037  0.8951
 3487TIP3    H210468   4.895   5.608   1.993  0.2523 -0.3394  0.3812
 3488TIP3   OH210469   5.322   2.672   1.706 -0.6422  0.4132  0.2332
 3488TIP3    H110470   5.284   2.620   1.777  1.7080 -2.6711 -0.5581
 3488TIP3    H210471   5.413   2.687   1.734 -0.4219  1.4870 -0.9689
 3489TIP3   OH210472   0.015   2.702   3.030 -0.4064  0.5711 -0.0036
 3489TIP3    H110473  -0.017   2.683   2.942  1.7086 -0.4143 -0.6109
 3489TIP3    H210474   0.055   2.789   3.023  0.4572  0.1589 -0.2194
 3490TIP3   OH210475   3.540   5.168   2.911  0.2745 -0.5654  0.8954
 3490TIP3    H110476   3.558   5.176   2.817 -0.7890 -0.2509  0.6999
 3490TIP3    H210477   3.456   5.122   2.915  0.3137 -0.5761  1.6939
 3491TIP3   OH210478   5.730   3.233   0.091 -0.0188 -0.0816  0.6169
 3491TIP3    H110479   5.742   3.296   0.020 -0.2784  0.7767  1.3249
 3491TIP3    H210480   5.781   3.157   0.064  0.6413  0.5872 -0.0609
 3492TIP3   OH210481   2.714   3.548   4.824 -0.2570 -0.0386 -0.2808
 3492TIP3    H110482   2.728   3.512   4.912  0.2391  1.6918  0.3887
 3492TIP3    H210483   2.632   3.508   4.795 -0.2470 -0.9133  0.8168
 3493TIP3   OH210484   1.514   2.418   2.005 -0.3439  0.3651 -0.7082
 3493TIP3    H110485   1.461   2.349   1.965 -0.0454  0.8725 -2.0392
 3493TIP3    H210486   1.602   2.383   2.006 -0.2637  0.5520 -0.9947
 3494TIP3   OH210487   0.919   0.455   2.604  0.1747  0.0542  0.7526
 3494TIP3    H110488   0.894   0.369   2.636  0.7906  0.0297  1.1701
 3494TIP3    H210489   0.986   0.438   2.538 -0.5148  0.1517  0.0056
 3495TIP3   OH210490   3.058   5.115   1.126 -0.0248  0.6465  0.2793
 3495TIP3    H110491   3.097   5.153   1.205  1.8144 -0.1744 -0.1916
 3495TIP3    H210492   3.133   5.086   1.074 -1.2560 -2.0138 -0.1856
 3496TIP3   OH210493   0.393   1.118   0.634 -0.2611 -0.3959 -0.6987
 3496TIP3    H110494   0.390   1.023   0.648 -1.6631 -0.0303  2.0724
 3496TIP3    H210495   0.313   1.138   0.586 -0.1297 -0.5763 -0.9932
 3497TIP3   OH210496   3.251   4.639   3.052  0.2613  0.4531  0.2199
 3497TIP3    H110497   3.253   4.599   2.964 -0.5426  0.0907  0.3563
 3497TIP3    H210498   3.338   4.676   3.063  0.9985 -1.1538  0.0197
 3498TIP3   OH210499   6.181   2.657   4.380 -0.2147  0.4071  0.1393
 3498TIP3    H110500   6.235   2.705   4.318 -1.0478  0.2578 -0.7214
 3498TIP3    H210501   6.133   2.593   4.327  1.5407 -2.0826  1.3376
 3499TIP3   OH210502   6.260   4.482   4.419  0.5015  0.2821 -0.6226
 3499TIP3    H110503   6.194   4.446   4.359  0.7033 -0.7690 -0.2341
 3499TIP3    H210504   6.337   4.427   4.406  0.7226  0.3771  0.2188
 3500TIP3   OH210505   2.625   2.165   2.563 -0.0179  0.9734 -0.4798
 3500TIP3    H110506   2.653   2.088   2.613 -2.3747  1.2402  1.4355
 3500TIP3    H210507   2.650   2.145   2.473  0.8805 -1.3167  0.1998
 3501TIP3   OH210508   2.288   0.995   2.149  0.5306  0.1131 -0.0713
 3501TIP3    H110509   2.229   1.027   2.218  0.5606  2.1434 -0.8992
 3501TIP3    H210510   2.272   0.901   2.146 -0.8464  0.2426  1.4199
 3502TIP3   OH210511   0.515   2.577   0.188  0.3167 -0.2485  0.3067
 3502TIP3    H110512   0.569   2.608   0.261 -0.6126 -0.6616  1.1980
 3502TIP3    H210513   0.431   2.554   0.229  0.3941 -2.2734 -0.5922
 3503TIP3   OH210514   2.467   2.937   1.768 -0.3061 -0.6234  0.2839
 3503TIP3    H110515   2.426   3.022   1.785  1.8514  0.6903 -0.7060
 3503TIP3    H210516   2.482   2.900   1.855 -1.0781  0.0989  0.7408
 3504TIP3   OH210517   1.825   1.715   0.289 -0.6510  0.2278  0.1261
 3504TIP3    H110518   1.826   1.665   0.371  1.9167 -0.2498 -0.1269
 3504TIP3    H210519   1.822   1.648   0.221  1.5844  0.3923 -0.1932
 3505TIP3   OH210520   4.595   0.637   3.110  0.1601  0.0272  0.1670
 3505TIP3    H110521   4.578   0.557   3.159 -0.6262 -0.5969 -1.0793
 3505TIP3    H210522   4.654   0.610   3.040  1.2137  0.8900  0.6923
 3506TIP3   OH210523   3.620   4.042   2.455  0.1385 -0.0236  0.2091
 3506TIP3    H110524   3.714   4.033   2.442  0.1749  1.2316 -0.5561
 3506TIP3    H210525   3.609   4.045   2.550  0.7620 -1.0459  0.3289
 3507TIP3   OH210526   5.648   4.838   4.531  0.5788  0.6189 -0.2014
 3507TIP3    H110527   5.617   4.824   4.621  0.8124 -1.2673 -0.3889
 3507TIP3    H210528   5.578   4.803   4.476  0.9222  0.7624 -0.7329
 3508TIP3   OH210529   0.132   0.459   3.298  0.9762 -0.2057 -0.2306
 3508TIP3    H110530   0.056   0.401   3.308 -0.5253  1.6854 -0.1679
 3508TIP3    H210531   0.188   0.439   3.373  0.9301 -2.1181 -0.6501
 3509TIP3   OH210532   4.692   1.873   1.670 -0.3712 -0.5518  0.3196
 3509TIP3    H110533   4.664   1.851   1.581  0.2933  0.1203 -0.0696
 3509TIP3    H210534   4.616   1.855   1.725 -1.4841  0.9641 -0.6574
 3510TIP3   OH210535   2.902   1.228   2.736 -0.2332 -0.1506 -0.3217
 3510TIP3    H110536   2.988   1.256   2.706 -0.3361  0.1602 -0.3303
 3510TIP3    H210537   2.861   1.188   2.659  0.1004 -0.7790 -0.1841
 3511TIP3   OH210538   4.606   2.801   1.415  0.3914  0.3505  0.0592
 3511TIP3    H110539   4.663   2.781   1.341  0.1009 -0.4271  0.0276
 3511TIP3    H210540   4.571   2.715   1.441 -1.3141  0.8665 -0.3702
 3512TIP3   OH210541   2.402   4.925   1.705  0.2325 -0.3807 -0.3681
 3512TIP3    H110542   2.318   4.948   1.744 -0.0969 -0.8411 -0.7848
 3512TIP3    H210543   2.442   5.009   1.682  0.9983 -0.0048  2.0371
 3513TIP3   OH210544   4.875   4.188   0.562  0.0969  0.9053  0.0460
 3513TIP3    H110545   4.805   4.170   0.499 -0.5634  1.1810  0.6874
 3513TIP3    H210546   4.955   4.190   0.509 -0.5909  2.4311 -0.9971
 3514TIP3   OH210547   3.758   1.239   5.079  0.8794 -0.0359 -0.0388
 3514TIP3    H110548   3.733   1.147   5.076  1.7049 -0.2624 -0.2065
 3514TIP3    H210549   3.834   1.245   5.022  3.0971  0.0222  2.7170
 3515TIP3   OH210550   4.541   3.493   0.497 -0.6715 -0.3675 -0.7466
 3515TIP3    H110551   4.453   3.466   0.470 -0.1214  0.0741 -3.2024
 3515TIP3    H210552   4.533   3.587   0.514 -0.9137 -0.5514  0.1815
 3516TIP3   OH210553   2.884   3.550   1.993  0.6176  0.1941 -0.4105
 3516TIP3    H110554   2.962   3.509   1.956 -0.5042 -2.4286 -0.0923
 3516TIP3    H210555   2.835   3.582   1.917 -0.6805 -3.3170 -1.2667
 3517TIP3   OH210556   1.531   4.209   2.423 -0.4009  0.1088  0.1726
 3517TIP3    H110557   1.622   4.234   2.442 -0.6047  0.2543  0.9875
 3517TIP3    H210558   1.503   4.271   2.355 -0.9036  2.2045  2.1699
 3518TIP3   OH210559   3.508   2.752   3.758 -0.0393  0.5019  0.4267
 3518TIP3    H110560   3.464   2.726   3.677  1.3013 -0.9249  0.1066
 3518TIP3    H210561   3.469   2.695   3.826  0.6539 -0.1321  0.3025
 3519TIP3   OH210562   3.188   0.947   5.134 -0.6601  0.2696 -0.0695
 3519TIP3    H110563   3.144   0.899   5.064 -0.5684  0.7114 -0.4351
 3519TIP3    H210564   3.272   0.973   5.096 -1.8223  3.2123 -0.9316
 3520TIP3   OH210565   4.084   0.022   4.768 -0.0356  0.3165 -0.2223
 3520TIP3    H110566   4.109  -0.063   4.805  1.9147  0.3182 -1.4213
 3520TIP3    H210567   4.123   0.087   4.826 -0.6590  0.3996  0.1159
 3521TIP3   OH210568   1.179   3.086   3.415  0.3143  0.5465 -0.3072
 3521TIP3    H110569   1.258   3.048   3.375  1.6382  0.3485  2.2674
 3521TIP3    H210570   1.193   3.181   3.407 -0.8302  0.5944 -2.7153
 3522TIP3   OH210571   5.532   3.186   5.204 -0.0863  0.1909  0.2550
 3522TIP3    H110572   5.542   3.091   5.204  0.1283  0.1826  1.9478
 3522TIP3    H210573   5.476   3.204   5.129  1.4316 -1.0771 -1.2489
 3523TIP3   OH210574   0.527   2.400   2.149  0.1364 -0.5487 -0.0677
 3523TIP3    H110575   0.596   2.464   2.130  0.0832  0.7204  3.2940
 3523TIP3    H210576   0.570   2.336   2.207 -1.3033 -0.0218  1.6599
 3524TIP3   OH210577   5.281   3.106   0.859  0.2392 -0.8087  0.0932
 3524TIP3    H110578   5.331   3.058   0.794  0.1555 -0.5372 -0.1763
 3524TIP3    H210579   5.194   3.067   0.856  0.2616 -0.8597  0.1092
 3525TIP3   OH210580   4.446   1.097   2.326  0.1343 -0.5696  0.0130
 3525TIP3    H110581   4.456   1.003   2.313 -0.1367 -0.8245  1.4226
 3525TIP3    H210582   4.383   1.105   2.397  0.7492  0.6463  0.4593
 3526TIP3   OH210583   3.101   3.146   0.464  0.0692 -0.5440  0.2770
 3526TIP3    H110584   3.131   3.083   0.399 -3.3335 -2.5350  0.4070
 3526TIP3    H210585   3.109   3.101   0.548  1.4616  0.8486  0.9582
 3527TIP3   OH210586   3.568   2.656   1.916 -0.1060  0.7528 -0.2746
 3527TIP3    H110587   3.503   2.600   1.959  1.8254 -0.8119  0.7823
 3527TIP3    H210588   3.558   2.637   1.823 -0.7689  0.0637 -0.0785
 3528TIP3   OH210589   2.672   4.622   2.499 -0.2771 -0.3665 -0.1819
 3528TIP3    H110590   2.757   4.666   2.503  0.2083 -1.3078  0.2897
 3528TIP3    H210591   2.612   4.681   2.544  0.0203  0.5246 -0.9311
 3529TIP3   OH210592   0.987   0.910   0.641 -0.3890 -0.2290  0.1782
 3529TIP3    H110593   1.074   0.948   0.633 -0.9407  0.9695 -0.3526
 3529TIP3    H210594   0.995   0.823   0.602  0.2701  0.3662 -1.0762
 3530TIP3   OH210595   4.367   0.254   2.304 -0.1761 -0.3406  0.0823
 3530TIP3    H110596   4.428   0.328   2.299 -0.5031 -0.1067 -0.5067
 3530TIP3    H210597   4.387   0.212   2.388 -1.0548  1.3699  1.2112
 3531TIP3   OH210598   3.306   2.847   3.508 -0.2535 -0.2304 -0.1921
 3531TIP3    H110599   3.312   2.752   3.505  1.0620 -0.2048  0.7752
 3531TIP3    H210600   3.295   2.867   3.602 -1.7016  0.5318 -0.4833
 3532TIP3   OH210601   4.966   3.130   1.399 -0.5370  0.3755  0.5972
 3532TIP3    H110602   4.873   3.150   1.399 -0.6541 -0.1112 -0.1660
 3532TIP3    H210603   4.971   3.041   1.362  0.3442  1.0639 -1.0689
 3533TIP3   OH210604   3.583   5.439   1.786  0.1412  0.3034  0.0157
 3533TIP3    H110605   3.653   5.436   1.851 -0.0953  1.1383  0.3276
 3533TIP3    H210606   3.513   5.488   1.830  0.5528  2.2836 -1.4076
 3534TIP3   OH210607   0.221   0.237   3.479 -0.4494  0.2183 -0.0474
 3534TIP3    H110608   0.297   0.188   3.511  0.3927  1.0993 -0.6443
 3534TIP3    H210609   0.187   0.282   3.556 -1.6306 -1.7369  0.6629
 3535TIP3   OH210610   3.425   5.372   4.100  0.2053  0.2259 -0.1761
 3535TIP3    H110611   3.458   5.345   4.015 -1.4892 -0.7692 -0.5595
 3535TIP3    H210612   3.336   5.403   4.083 -1.1589 -2.4248  1.5213
 3536TIP3   OH210613   5.414   3.812   1.952  0.0336  0.2839  0.4343
 3536TIP3    H110614   5.371   3.732   1.982  1.6709 -1.5239 -1.6626
 3536TIP3    H210615   5.411   3.871   2.027  0.5224 -2.4667  2.7908
 3537TIP3   OH210616   4.794   1.068   0.812 -0.4447 -0.7700 -0.4691
 3537TIP3    H110617   4.864   1.025   0.861 -0.4992 -0.0202  0.2874
 3537TIP3    H210618   4.830   1.155   0.792 -0.0220 -1.3808 -2.6515
 3538TIP3   OH210619   4.310   5.127   5.184  0.0914  0.7401 -0.2214
 3538TIP3    H110620   4.243   5.181   5.141  0.2824  1.9389  0.8988
 3538TIP3    H210621   4.270   5.041   5.190 -0.0642  0.5988 -2.4424
 3539TIP3   OH210622   5.517   4.628   2.535  0.0903 -0.0824 -0.2821
 3539TIP3    H110623   5.588   4.628   2.471 -0.3810  1.1707 -0.8497
 3539TIP3    H210624   5.559   4.608   2.619  1.0435  0.2423 -0.6725
 3540TIP3   OH210625   5.937   5.577   2.476  0.5444  0.5293 -0.6773
 3540TIP3    H110626   6.026   5.593   2.446  0.4675  1.2956 -0.5140
 3540TIP3    H210627   5.947   5.553   2.568  0.7994 -2.0267 -1.2874
 3541TIP3   OH210628   1.599   2.511   3.509 -0.2632  0.2601  0.0860
 3541TIP3    H110629   1.635   2.552   3.588 -0.9569  0.0085  0.5529
 3541TIP3    H210630   1.515   2.475   3.538 -0.6746  0.4343 -0.8553
 3542TIP3   OH210631   5.812   0.199   0.201  0.2829  0.2902 -0.3602
 3542TIP3    H110632   5.830   0.280   0.249 -0.2730 -0.0318  0.4218
 3542TIP3    H210633   5.836   0.218   0.111  1.2497  0.9538  0.0268
 3543TIP3   OH210634   0.344   2.362   0.069 -0.3297  0.1424 -0.3405
 3543TIP3    H110635   0.434   2.393   0.073 -0.5410  0.6985  0.3556
 3543TIP3    H210636   0.338   2.295   0.137 -0.6155  0.6063  0.1039
 3544TIP3   OH210637   5.390   3.914   5.047  0.1322  0.3993 -0.0559
 3544TIP3    H110638   5.421   3.938   4.960 -0.4006 -1.1724 -0.7072
 3544TIP3    H210639   5.455   3.851   5.079 -0.7023 -0.5131 -0.1316
 3545TIP3   OH210640   6.298   1.747   3.662  0.0525 -0.0033 -0.3665
 3545TIP3    H110641   6.355   1.754   3.586 -0.6066 -0.0569 -0.8770
 3545TIP3    H210642   6.241   1.672   3.643 -0.0780 -0.0592  0.2054
 3546TIP3   OH210643   3.448   3.295   4.359 -0.1818 -0.5139  0.0051
 3546TIP3    H110644   3.410   3.207   4.361 -2.3937  0.3235  2.6947
 3546TIP3    H210645   3.385   3.348   4.409  2.4999  1.9640  0.9976
 3547TIP3   OH210646   2.204   1.815   4.573 -0.0663  0.4483  0.1070
 3547TIP3    H110647   2.279   1.865   4.605 -0.2937  0.3705  0.7719
 3547TIP3    H210648   2.198   1.740   4.632 -0.4280  0.2475 -0.1825
 3548TIP3   OH210649   2.874   0.748   3.743  0.6385 -0.0016 -0.8163
 3548TIP3    H110650   2.857   0.804   3.667 -1.8469 -0.2714 -0.5297
 3548TIP3    H210651   2.925   0.675   3.707 -3.0029 -1.7651 -3.0750
 3549TIP3   OH210652   1.706   1.646   2.732 -0.0233 -0.2742 -0.7025
 3549TIP3    H110653   1.765   1.660   2.657  1.2998 -1.7241  0.0035
 3549TIP3    H210654   1.737   1.565   2.771  0.8361  1.5496  2.7947
 3550TIP3   OH210655   4.155   5.121   3.070  0.1512  0.5513 -0.0439
 3550TIP3    H110656   4.091   5.090   3.134 -0.6697  0.3879 -0.9106
 3550TIP3    H210657   4.189   5.202   3.107  0.2771  0.0537  0.9574
 3551TIP3   OH210658   2.843   0.571   1.795 -0.4316  0.0424  0.1212
 3551TIP3    H110659   2.901   0.623   1.850 -0.5611 -0.5654  0.8493
 3551TIP3    H210660   2.842   0.617   1.711 -0.8800  1.4419  0.8691
 3552TIP3   OH210661   0.431   6.001   2.613  0.1085  0.1640  0.1715
 3552TIP3    H110662   0.479   5.930   2.655  1.2353  1.9758  2.1862
 3552TIP3    H210663   0.339   5.982   2.632  0.3732 -0.8724  0.4650
 3553TIP3   OH210664   2.421   1.296   1.090  0.2128  0.4698  0.5980
 3553TIP3    H110665   2.487   1.356   1.124  0.7598  0.1295  0.1825
 3553TIP3    H210666   2.454   1.209   1.115  0.4433  0.2377 -0.4531
 3554TIP3   OH210667   5.531   0.590   3.767  0.5455  0.3712 -0.3018
 3554TIP3    H110668   5.443   0.625   3.756  0.8047  1.4744  0.9212
 3554TIP3    H210669   5.567   0.638   3.841  1.6193 -1.1720  0.2275
 3555TIP3   OH210670   3.609   2.544   0.212 -0.2958  0.1989 -0.3751
 3555TIP3    H110671   3.575   2.519   0.126 -2.2088  0.9255  0.1204
 3555TIP3    H210672   3.614   2.640   0.210 -2.3969  0.4009  0.9794
 3556TIP3   OH210673   3.051   2.503   3.664  0.3022 -0.1853 -0.4737
 3556TIP3    H110674   3.053   2.468   3.575 -2.3257 -1.7272 -0.0280
 3556TIP3    H210675   2.977   2.563   3.665 -0.1965 -0.7963  0.8556
 3557TIP3   OH210676   3.927   5.880   4.332  0.3233  0.5278  0.1840
 3557TIP3    H110677   3.958   5.943   4.397 -1.2179  0.7459  0.7484
 3557TIP3    H210678   3.906   5.934   4.256  1.7642  0.3160 -0.4016
 3558TIP3   OH210679   0.896   2.877   1.727 -0.7272 -0.9322 -0.2324
 3558TIP3    H110680   0.891   2.874   1.823  0.7463 -2.9461 -0.1576
 3558TIP3    H210681   0.888   2.786   1.700  0.4312 -0.5781 -1.9095
 3559TIP3   OH210682   5.531   3.329   0.246 -0.2027 -0.1307 -0.1238
 3559TIP3    H110683   5.563   3.296   0.162  0.4145 -0.4412  0.2320
 3559TIP3    H210684   5.610   3.351   0.295 -0.5563 -0.2082  0.4872
 3560TIP3   OH210685   4.532   0.371   1.866 -0.2357 -0.3280 -0.4857
 3560TIP3    H110686   4.448   0.410   1.893 -0.9663 -1.2550 -1.3574
 3560TIP3    H210687   4.563   0.428   1.796 -0.4017 -0.2953 -0.5328
 3561TIP3   OH210688   6.087   3.356   2.174 -0.2486  0.0186 -0.5401
 3561TIP3    H110689   6.116   3.265   2.163  1.5751  0.6227 -1.0415
 3561TIP3    H210690   6.069   3.386   2.086 -0.0114  0.3871 -0.4668
 3562TIP3   OH210691   0.294   3.426   3.369  0.0485  0.5721 -0.0746
 3562TIP3    H110692   0.339   3.479   3.304 -1.5067  0.4573 -1.3219
 3562TIP3    H210693   0.340   3.343   3.369  0.3058  0.7115 -0.7567
 3563TIP3   OH210694   5.668   0.709   3.409 -0.7725 -0.2225 -0.6835
 3563TIP3    H110695   5.693   0.740   3.322  1.7809  1.3236  0.4738
 3563TIP3    H210696   5.618   0.782   3.447  0.8668  0.4919  0.2163
 3564TIP3   OH210697   3.119   2.776   2.042  0.5056  0.1287 -0.3590
 3564TIP3    H110698   3.172   2.754   1.965  1.3682 -1.0133  0.5308
 3564TIP3    H210699   3.035   2.805   2.006  0.4201 -1.6690 -1.7056
 3565TIP3   OH210700   0.479   0.973   3.126  0.4809 -0.0425  0.0759
 3565TIP3    H110701   0.496   0.917   3.201 -1.7640 -1.9510 -0.6832
 3565TIP3    H210702   0.396   1.016   3.147  1.3651  1.8345 -0.0611
 3566TIP3   OH210703   0.079   2.969   2.935  0.6688 -0.0373 -0.5889
 3566TIP3    H110704   0.043   3.009   2.856 -0.8606  1.5601  0.8106
 3566TIP3    H210705   0.140   3.035   2.969  2.8594 -1.5294 -1.4023
 3567TIP3   OH210706   5.809   2.668   2.136  0.2771 -0.0904 -0.3233
 3567TIP3    H110707   5.784   2.760   2.132 -1.0397 -0.4162  0.0249
 3567TIP3    H210708   5.903   2.670   2.156  0.3834  1.1721 -0.8550
 3568TIP3   OH210709   1.106   2.009   2.417  0.5457  0.1544 -0.3065
 3568TIP3    H110710   1.119   2.059   2.497  0.6151 -0.1306 -0.1359
 3568TIP3    H210711   1.136   1.920   2.439  0.4875  0.0541 -0.6214
 3569TIP3   OH210712   3.076   0.999   4.521  0.0645 -0.8219  0.2107
 3569TIP3    H110713   3.162   0.960   4.536  0.1684 -0.9314 -0.6208
 3569TIP3    H210714   3.065   1.061   4.593  0.5472 -1.2955  0.7010
 3570TIP3   OH210715   0.975   5.566   4.944 -0.1673  0.1781 -0.0012
 3570TIP3    H110716   0.887   5.589   4.914 -0.0602  1.1135  0.3749
 3570TIP3    H210717   1.033   5.617   4.888  0.0365  2.1257  1.8719
 3571TIP3   OH210718   2.914   5.023   2.527  0.3669 -0.1201 -0.6678
 3571TIP3    H110719   2.820   5.006   2.525  0.5824 -1.6602  0.4327
 3571TIP3    H210720   2.921   5.116   2.548 -0.9555 -0.3913  1.2258
 3572TIP3   OH210721   1.442   4.003   0.357 -0.5133 -0.5006 -0.1621
 3572TIP3    H110722   1.375   4.072   0.352 -1.1180 -1.1495 -1.7079
 3572TIP3    H210723   1.490   4.010   0.274  1.5811  0.1379  1.0326
 3573TIP3   OH210724   6.230   3.233   1.816  0.4210  0.6062  0.0854
 3573TIP3    H110725   6.271   3.316   1.792  0.2967  1.2107  1.7976
 3573TIP3    H210726   6.304   3.174   1.835  0.5093  0.2865 -1.1721
 3574TIP3   OH210727   0.274   2.153   4.757 -0.4016 -0.4264 -0.1821
 3574TIP3    H110728   0.202   2.200   4.714 -0.1298 -0.2422 -0.4356
 3574TIP3    H210729   0.353   2.192   4.720 -0.1029  1.1615  1.9450
 3575TIP3   OH210730   4.890   1.967   3.952  0.3719 -0.3405  0.4132
 3575TIP3    H110731   4.798   1.944   3.943  0.0814  1.2052 -1.0403
 3575TIP3    H210732   4.909   1.958   4.045 -1.0310 -1.4102  0.6177
 3576TIP3   OH210733   1.148   3.785   5.042  0.2737 -0.3734 -0.0164
 3576TIP3    H110734   1.216   3.721   5.019  0.2493 -0.5332  0.3509
 3576TIP3    H210735   1.071   3.732   5.062  0.7230 -0.3528  1.9827
 3577TIP3   OH210736   3.131   2.145   2.559  0.1714 -0.0961 -0.4664
 3577TIP3    H110737   3.139   2.236   2.588 -1.5028  0.3902 -1.4273
 3577TIP3    H210738   3.221   2.117   2.543  0.6759  1.5731 -0.6983
 3578TIP3   OH210739   5.671   4.398   0.451 -0.4796 -0.1407  0.5338
 3578TIP3    H110740   5.684   4.389   0.545 -1.4749 -0.3563  0.6545
 3578TIP3    H210741   5.584   4.362   0.434 -0.4518  0.1960 -0.4180
 3579TIP3   OH210742   0.212   2.661   1.972 -0.4591 -0.0646  0.3024
 3579TIP3    H110743   0.216   2.640   1.879 -0.2509 -0.1329  0.3267
 3579TIP3    H210744   0.134   2.615   2.003 -0.2875 -0.4006  0.2495
 3580TIP3   OH210745   2.216   2.412   4.534  0.1398 -0.5993 -0.2851
 3580TIP3    H110746   2.287   2.359   4.497  1.5001 -0.5012  1.9898
 3580TIP3    H210747   2.204   2.378   4.622  0.0657  1.8671  0.7402
 3581TIP3   OH210748   5.616   0.133   4.925  0.3813 -0.5185  0.0109
 3581TIP3    H110749   5.624   0.189   4.848  0.4443  0.5077  0.7499
 3581TIP3    H210750   5.703   0.132   4.964 -0.2117  1.1356  1.5188
 3582TIP3   OH210751   3.644   3.054   4.369 -0.1608  0.0918 -0.2181
 3582TIP3    H110752   3.552   3.038   4.389  0.1761 -2.1055 -0.1478
 3582TIP3    H210753   3.657   3.012   4.283  0.5832  1.1207 -0.6249
 3583TIP3   OH210754   2.518   5.295   3.928  0.4648  0.0632  0.5475
 3583TIP3    H110755   2.484   5.207   3.914 -0.1070  0.2739  0.5436
 3583TIP3    H210756   2.455   5.352   3.882  1.5955  0.3852 -0.6874
 3584TIP3   OH210757   0.618   0.384   2.855  0.8546  1.1603 -0.1816
 3584TIP3    H110758   0.673   0.321   2.806 -1.0367  0.3503 -1.3956
 3584TIP3    H210759   0.593   0.337   2.934  0.5636  0.8896 -0.4307
 3585TIP3   OH210760   3.718   3.981   1.393  0.4672 -0.0943 -0.5239
 3585TIP3    H110761   3.638   3.981   1.340  0.7300 -2.2816 -1.0401
 3585TIP3    H210762   3.688   4.002   1.482 -0.5775 -0.2143 -0.8322
 3586TIP3   OH210763   5.402   5.163   3.092  0.0208  0.2046 -0.1425
 3586TIP3    H110764   5.402   5.209   3.009  0.6676  1.7392  0.6667
 3586TIP3    H210765   5.356   5.221   3.152 -0.5365 -0.9244  0.5677
 3587TIP3   OH210766   1.448   4.743   4.213  0.5635 -0.0709  0.0443
 3587TIP3    H110767   1.358   4.713   4.197  0.7834 -0.0650 -1.2819
 3587TIP3    H210768   1.484   4.678   4.273 -0.9384  1.0005  2.2499
 3588TIP3   OH210769   1.673   2.252   0.964  0.2351 -0.0597  0.1823
 3588TIP3    H110770   1.632   2.166   0.949 -1.7162  0.9300 -0.4524
 3588TIP3    H210771   1.761   2.231   0.996 -0.3906 -2.2970  0.6174
 3589TIP3   OH210772   2.191   5.044   3.878  0.3065  0.3355 -0.7808
 3589TIP3    H110773   2.281   5.068   3.899  0.3232  1.9344 -2.3923
 3589TIP3    H210774   2.191   5.033   3.782 -1.3645  1.2213 -0.9231
 3590TIP3   OH210775   0.891   4.479   3.490 -0.5158  0.0630 -0.5609
 3590TIP3    H110776   0.907   4.482   3.396 -1.0978  0.5118 -0.6437
 3590TIP3    H210777   0.837   4.555   3.509  0.1719  0.3655  0.2531
 3591TIP3   OH210778   0.609   3.263   1.505  0.5921 -0.6102 -0.7490
 3591TIP3    H110779   0.523   3.223   1.491 -0.4617  0.3610  2.2410
 3591TIP3    H210780   0.645   3.218   1.581  2.1245 -0.0005 -1.0674
 3592TIP3   OH210781   3.814   4.213   3.440  0.3226 -0.1703  0.6095
 3592TIP3    H110782   3.830   4.125   3.407 -0.5851 -0.1668  0.1101
 3592TIP3    H210783   3.760   4.254   3.372 -1.7345 -0.2131  2.1375
 3593TIP3   OH210784   4.436   0.084   3.229  0.1607  0.3310  0.4131
 3593TIP3    H110785   4.401   0.143   3.296  0.5086  0.1523  0.7586
 3593TIP3    H210786   4.529   0.105   3.225  0.3404 -0.3792  0.7368
 3594TIP3   OH210787   2.128   4.410   1.366 -0.3774  1.3353  0.7852
 3594TIP3    H110788   2.177   4.458   1.432  1.9642  1.0613 -0.6392
 3594TIP3    H210789   2.074   4.348   1.416  0.7346  1.6512  2.4470
 3595TIP3   OH210790   6.042   0.677   1.689  0.2123 -0.1044  0.0917
 3595TIP3    H110791   5.999   0.653   1.771 -0.5340  1.4096  0.1651
 3595TIP3    H210792   5.988   0.747   1.652  2.0711  1.2310 -0.2650
 3596TIP3   OH210793   4.951   5.615   3.434  0.4002 -0.3217  0.1105
 3596TIP3    H110794   4.901   5.651   3.361  0.6441  1.0842  0.6042
 3596TIP3    H210795   4.887   5.603   3.504  0.2974 -1.0050 -0.0884
 3597TIP3   OH210796   3.540   1.787   4.842  0.0480 -0.0998  0.4432
 3597TIP3    H110797   3.562   1.746   4.758 -1.1302  0.2115 -0.0520
 3597TIP3    H210798   3.500   1.871   4.817 -0.1375  0.0778  1.3222
 3598TIP3   OH210799   3.825   2.168   0.866 -0.0989 -0.3120  0.0620
 3598TIP3    H110800   3.831   2.214   0.783 -1.8981 -0.9116 -0.4486
 3598TIP3    H210801   3.860   2.081   0.848  0.5070 -0.1039  0.2247
 3599TIP3   OH210802   1.093   1.245   2.901 -0.6719 -0.1807 -0.3082
 3599TIP3    H110803   1.000   1.223   2.903 -0.4213 -1.2982  1.2151
 3599TIP3    H210804   1.138   1.162   2.885  0.0857  0.2891 -0.7252
 3600TIP3   OH210805   1.151   0.659   1.326 -0.6378  0.3896 -0.1204
 3600TIP3    H110806   1.204   0.738   1.317 -2.7058  1.9962  0.9458
 3600TIP3    H210807   1.163   0.613   1.243  1.5557  1.1832 -0.3092
 3601TIP3   OH210808   1.795   2.980   2.671  0.5729 -0.0472 -0.0172
 3601TIP3    H110809   1.809   3.057   2.615  0.4773  1.8179  2.3702
 3601TIP3    H210810   1.796   3.015   2.760  0.6590 -2.8733  1.1798
 3602TIP3   OH210811   0.633   3.049   4.474 -0.5368  0.1656  0.2146
 3602TIP3    H110812   0.644   3.114   4.544 -1.9524  0.3107  0.3234
 3602TIP3    H210813   0.563   3.085   4.419  0.2706 -0.1499 -1.0643
 3603TIP3   OH210814   2.500   2.731   1.997  0.1946 -0.0536 -0.0820
 3603TIP3    H110815   2.446   2.667   2.044  1.8930 -0.9856  0.7115
 3603TIP3    H210816   2.485   2.814   2.043 -1.7633  0.0865 -0.9004
 3604TIP3   OH210817   0.693   0.424   3.427 -0.0005  0.0305  0.4309
 3604TIP3    H110818   0.617   0.482   3.418 -0.8535 -0.8695  1.4647
 3604TIP3    H210819   0.765   0.472   3.387 -0.7437  1.6610  0.9520
 3605TIP3   OH210820   4.274   1.383   2.697  0.2674 -0.4737  0.5466
 3605TIP3    H110821   4.361   1.423   2.691  0.7284 -1.4410  0.5194
 3605TIP3    H210822   4.213   1.456   2.690  1.0570  0.1228 -0.4522
 3606TIP3   OH210823   1.560   4.494   2.233 -0.1666  0.7936  0.0360
 3606TIP3    H110824   1.586   4.564   2.293 -1.4245  1.4866 -0.1822
 3606TIP3    H210825   1.475   4.523   2.199  0.0450 -0.0868 -1.2863
 3607TIP3   OH210826   5.314   5.642   3.954  0.4524  0.3120 -0.2439
 3607TIP3    H110827   5.376   5.715   3.955 -0.6276  1.2547  1.3323
 3607TIP3    H210828   5.241   5.672   4.008 -1.5139 -0.6718 -2.2173
 3608TIP3   OH210829   4.295   0.506   1.932 -0.0675 -0.3319  0.3523
 3608TIP3    H110830   4.214   0.504   1.983 -0.6488 -1.1511 -0.5691
 3608TIP3    H210831   4.291   0.588   1.883  0.4585  0.4237  1.5150
 3609TIP3   OH210832   5.256   0.682   4.906 -0.1511 -0.8998 -0.2401
 3609TIP3    H110833   5.222   0.768   4.928  0.8421 -0.7656  0.8541
 3609TIP3    H210834   5.243   0.630   4.986  0.3153 -1.4271 -0.4998
 3610TIP3   OH210835   3.655   1.956   1.673 -0.1299  0.0797 -0.6827
 3610TIP3    H110836   3.581   1.931   1.728  0.4120 -0.8216 -0.3437
 3610TIP3    H210837   3.668   1.881   1.615  0.5525  0.2070 -0.7008
 3611TIP3   OH210838   3.162   2.952   3.742 -0.0350 -0.2838 -0.6778
 3611TIP3    H110839   3.165   2.933   3.836 -0.7832  3.1712  0.1764
 3611TIP3    H210840   3.220   3.028   3.731 -0.3012 -0.3485 -2.9346
 3612TIP3   OH210841   1.972   1.483   3.881  0.7064 -0.5666  0.6153
 3612TIP3    H110842   1.957   1.390   3.895  0.9582 -0.3979  2.1372
 3612TIP3    H210843   2.064   1.497   3.901  0.0882  0.4353  3.1301
 3613TIP3   OH210844   5.112   5.978   4.285 -0.0019  0.6646  0.6311
 3613TIP3    H110845   5.104   5.908   4.349  0.9761 -2.2656 -2.1760
 3613TIP3    H210846   5.027   5.980   4.241  0.2770  0.5327  0.0732
 3614TIP3   OH210847   1.605   1.582   0.004  0.4779 -0.9518  0.1167
 3614TIP3    H110848   1.557   1.645   0.058 -0.8950 -0.7315 -1.2939
 3614TIP3    H210849   1.678   1.554   0.059  1.2522  1.9693  0.7408
 3615TIP3   OH210850   0.119   3.080   4.042 -0.0361  0.3464 -0.0483
 3615TIP3    H110851   0.034   3.041   4.062  0.3323 -0.5507 -0.2147
 3615TIP3    H210852   0.108   3.117   3.954 -0.5809  1.2235  0.3650
 3616TIP3   OH210853   0.504   3.024   3.557 -0.1953  0.0776 -0.4716
 3616TIP3    H110854   0.456   2.945   3.582  0.3063 -0.4524 -1.1294
 3616TIP3    H210855   0.588   2.991   3.524 -0.7103  0.7243 -2.5690
 3617TIP3   OH210856   6.306   4.490   1.077  0.2005 -0.5558 -0.2329
 3617TIP3    H110857   6.293   4.504   0.984  1.2292  0.0465 -0.2951
 3617TIP3    H210858   6.283   4.574   1.117 -3.6061 -1.7242  0.4590
 3618TIP3   OH210859   0.235   3.121   4.854 -0.4861 -0.2247  0.3791
 3618TIP3    H110860   0.249   3.103   4.947  0.8969  0.2268  0.2845
 3618TIP3    H210861   0.263   3.041   4.809 -0.4839 -0.1866  0.3123
 3619TIP3   OH210862   3.359   5.075   4.195 -0.8949 -0.5306 -0.2844
 3619TIP3    H110863   3.301   5.120   4.134 -1.1682 -0.4271  0.0493
 3619TIP3    H210864   3.396   5.144   4.250 -0.2626 -0.5667 -0.6482
 3620TIP3   OH210865   3.048   4.053   4.672  0.1460 -0.3778  0.1133
 3620TIP3    H110866   3.092   3.977   4.710  0.3950 -0.2305  0.1236
 3620TIP3    H210867   2.962   4.021   4.645  0.3925 -0.7473 -0.2251
 3621TIP3   OH210868   2.214   5.509   4.582 -0.1254  0.1095 -0.2112
 3621TIP3    H110869   2.186   5.499   4.673  0.2978  1.9739  0.1628
 3621TIP3    H210870   2.304   5.477   4.580 -0.0686  0.2486  0.0780
 3622TIP3   OH210871   4.602   3.105   0.807  0.1731  0.3557 -0.0539
 3622TIP3    H110872   4.677   3.163   0.819 -1.0455  2.0033 -0.0318
 3622TIP3    H210873   4.553   3.144   0.735 -1.2986  0.0272  0.7263
 3623TIP3   OH210874   3.047   4.047   2.759 -0.5031 -0.3321  0.0658
 3623TIP3    H110875   3.039   3.967   2.707  0.0955 -0.2417 -0.1719
 3623TIP3    H210876   3.054   4.017   2.849  1.7169 -0.6877 -0.1617
 3624TIP3   OH210877   5.061   5.026   1.538 -0.0994 -0.0305  0.4439
 3624TIP3    H110878   5.119   4.949   1.532  0.4412  0.0906  3.0500
 3624TIP3    H210879   5.088   5.082   1.466  1.7572 -0.8513  0.4415
 3625TIP3   OH210880   5.309   5.378   3.885  0.5101  0.0699 -0.2853
 3625TIP3    H110881   5.318   5.401   3.792 -0.1472 -0.9719 -0.6223
 3625TIP3    H210882   5.319   5.461   3.931  0.7497  0.6182 -1.2941
 3626TIP3   OH210883   5.994   5.150   0.074  0.1456 -0.2977  0.0578
 3626TIP3    H110884   6.046   5.229   0.062 -0.9029  0.6653  1.5884
 3626TIP3    H210885   6.007   5.126   0.166  0.7344 -2.1403 -0.4555
 3627TIP3   OH210886   4.460   4.888   1.666 -0.1198  0.0433  0.2790
 3627TIP3    H110887   4.448   4.893   1.571 -1.4112  1.1544  0.4703
 3627TIP3    H210888   4.554   4.877   1.678 -0.0312 -0.9331 -1.1458
 3628TIP3   OH210889   1.617   0.099   2.151 -0.1112 -0.2699 -0.1595
 3628TIP3    H110890   1.629   0.191   2.178 -2.4139 -0.4762  2.0095
 3628TIP3    H210891   1.583   0.105   2.062 -1.8466  1.1709  0.5201
 3629TIP3   OH210892   2.751   2.972   2.121  0.8416 -0.0118  0.2709
 3629TIP3    H110893   2.740   3.042   2.056  0.0425  0.1812  0.6153
 3629TIP3    H210894   2.820   2.916   2.083 -0.1769 -0.3688 -1.1614
 3630TIP3   OH210895   1.819   2.650   0.427 -0.4543  0.0275  0.0986
 3630TIP3    H110896   1.803   2.556   0.420 -1.1525  0.1777 -0.3168
 3630TIP3    H210897   1.882   2.670   0.358  0.0867 -0.2154  0.5099
 3631TIP3   OH210898   1.405   5.632   1.763 -0.0763 -0.3872  0.0013
 3631TIP3    H110899   1.334   5.644   1.827  1.7574 -1.7382  2.4930
 3631TIP3    H210900   1.459   5.711   1.772 -0.5664  0.0753 -0.9835
 3632TIP3   OH210901   2.974   2.282   0.122 -0.6241  0.0294  0.1818
 3632TIP3    H110902   2.987   2.188   0.107 -1.4788 -0.1316  0.4317
 3632TIP3    H210903   3.003   2.296   0.212 -0.4989  0.0145  0.1451
 3633TIP3   OH210904   5.555   4.234   0.132 -0.0011  0.4702  0.0646
 3633TIP3    H110905   5.498   4.256   0.059 -0.0777 -0.5322 -0.1969
 3633TIP3    H210906   5.515   4.276   0.208  0.0201  1.4302 -0.4460
 3634TIP3   OH210907   4.121   3.683   4.127 -0.1016  0.2538 -0.1528
 3634TIP3    H110908   4.205   3.717   4.096  0.4943 -0.8210  0.2413
 3634TIP3    H210909   4.099   3.739   4.202  0.8973 -0.2336  0.5298
 3635TIP3   OH210910   1.129   0.107   2.838 -0.1549 -0.1982 -0.7330
 3635TIP3    H110911   1.071   0.178   2.864  0.7423  0.3680 -0.2396
 3635TIP3    H210912   1.125   0.107   2.742 -0.5234  0.2001 -0.7199
 3636TIP3   OH210913   3.959   2.827   4.937  0.4744  0.3279  0.0355
 3636TIP3    H110914   3.976   2.820   5.031 -1.1735 -2.1942  0.2544
 3636TIP3    H210915   4.021   2.767   4.896 -0.7504 -0.8639 -0.1453
 3637TIP3   OH210916   2.696   2.636   1.819 -0.6623  0.3011 -0.5406
 3637TIP3    H110917   2.709   2.547   1.853  0.5448  0.7296  0.1681
 3637TIP3    H210918   2.633   2.675   1.880  2.0448  1.3120  1.8321
 3638TIP3   OH210919   1.683   1.685   3.298 -0.6644  0.1711  0.0151
 3638TIP3    H110920   1.661   1.682   3.205  1.6749  0.4196 -0.6064
 3638TIP3    H210921   1.620   1.626   3.340 -0.0127 -2.2135 -2.1418
 3639TIP3   OH210922   4.178   2.309   0.658  0.3252 -0.5712  0.0398
 3639TIP3    H110923   4.130   2.392   0.653 -0.0200 -0.8265 -1.9130
 3639TIP3    H210924   4.268   2.333   0.635  0.9139 -0.3164  2.3515
 3640TIP3   OH210925   4.645   0.284   3.972  0.0721  0.1248 -0.0552
 3640TIP3    H110926   4.594   0.357   4.006 -0.2139 -0.3328  0.5216
 3640TIP3    H210927   4.723   0.324   3.936 -0.6777  0.8350 -0.9236
 3641TIP3   OH210928   0.932   5.251   1.250 -0.1659  0.4750  0.3171
 3641TIP3    H110929   1.009   5.273   1.198 -1.2746  1.2917 -1.0630
 3641TIP3    H210930   0.960   5.179   1.306  1.6474  0.9064  0.0271
 3642TIP3   OH210931   0.552   1.625   3.908 -0.7058  0.0952 -0.7373
 3642TIP3    H110932   0.634   1.577   3.898 -1.1014 -0.5945 -0.6651
 3642TIP3    H210933   0.502   1.607   3.829 -0.7173  0.6761 -0.8726
 3643TIP3   OH210934   0.160   4.600   4.156  0.6517  0.2646  0.1918
 3643TIP3    H110935   0.158   4.609   4.060 -1.9291 -1.1400  0.0209
 3643TIP3    H210936   0.135   4.687   4.188  0.2401  0.4039 -0.4747
 3644TIP3   OH210937   1.866   2.397   1.574  0.0723  0.1882  0.0078
 3644TIP3    H110938   1.839   2.417   1.664 -0.1659  0.0917 -0.0402
 3644TIP3    H210939   1.961   2.391   1.578  0.0319 -0.2527  0.3383
 3645TIP3   OH210940   0.353   4.835   1.944 -0.1729 -0.2929  0.5312
 3645TIP3    H110941   0.379   4.924   1.967 -1.2661  0.2324 -0.1800
 3645TIP3    H210942   0.257   4.839   1.936 -0.4208 -1.9240  2.1116
 3646TIP3   OH210943   4.035   1.197   1.016 -0.4233 -0.6265  0.1704
 3646TIP3    H110944   3.970   1.140   1.056 -0.6170 -0.1214  0.5899
 3646TIP3    H210945   4.119   1.156   1.039 -0.5209 -0.2076  1.3331
 3647TIP3   OH210946   4.780   4.457   0.268  0.1182 -0.0429  0.2016
 3647TIP3    H110947   4.815   4.374   0.236  1.4802  0.6038 -0.0279
 3647TIP3    H210948   4.739   4.497   0.191 -0.8981 -0.6508  0.3992
 3648TIP3   OH210949   0.340   2.043   2.720 -0.3618 -0.0505 -0.2478
 3648TIP3    H110950   0.376   2.006   2.801 -1.9374 -0.7489  0.1781
 3648TIP3    H210951   0.355   1.975   2.654 -1.4410 -0.6316  0.0806
 3649TIP3   OH210952   6.020   0.071   0.838 -0.4118  0.2697  0.2182
 3649TIP3    H110953   6.068   0.153   0.837  0.0654 -0.0092 -0.4080
 3649TIP3    H210954   5.990   0.061   0.929 -1.1086  1.4858  0.1405
 3650TIP3   OH210955   1.246   2.377   3.813  0.2836  0.3144 -0.4427
 3650TIP3    H110956   1.163   2.417   3.840  1.1964  2.0757 -0.1080
 3650TIP3    H210957   1.307   2.400   3.883  1.6636  1.2810 -1.9019
 3651TIP3   OH210958   4.879   2.201   4.368 -0.3198 -0.3039 -0.6753
 3651TIP3    H110959   4.819   2.158   4.307 -1.1930 -0.9465  0.5866
 3651TIP3    H210960   4.832   2.201   4.451 -0.0580  2.4154 -0.4292
 3652TIP3   OH210961   0.350   0.108   3.940  0.3258  0.0910  0.2385
 3652TIP3    H110962   0.402   0.135   4.015 -0.5956  1.0328  0.5684
 3652TIP3    H210963   0.279   0.056   3.978 -0.1074  0.5171  0.0263
 3653TIP3   OH210964   3.106   0.125   4.982  0.0466  0.0091 -0.0233
 3653TIP3    H110965   3.056   0.121   4.901 -2.3132 -0.4535  1.3637
 3653TIP3    H210966   3.044   0.157   5.047  1.5767 -0.5602  1.8104
 3654TIP3   OH210967   4.067   2.084   5.063 -0.2748 -0.4783 -0.6638
 3654TIP3    H110968   4.114   2.033   5.129  0.6705 -1.6327 -2.1852
 3654TIP3    H210969   3.981   2.099   5.102  0.2725 -1.0959  0.8418
 3655TIP3   OH210970   0.138   1.806   0.520 -0.1066  0.1086  0.0500
 3655TIP3    H110971   0.221   1.836   0.557  1.2456 -1.8677 -1.1849
 3655TIP3    H210972   0.084   1.784   0.596  1.2164 -0.3616  0.8788
 3656TIP3   OH210973   1.784   3.143   1.213 -0.1189 -0.8581 -0.7533
 3656TIP3    H110974   1.697   3.160   1.249  0.3832 -2.7607  1.6594
 3656TIP3    H210975   1.836   3.219   1.239 -0.0041 -1.7563  2.0313
 3657TIP3   OH210976   3.211   0.969   4.285  0.2214 -0.4733  0.1767
 3657TIP3    H110977   3.232   1.050   4.239  1.1408 -1.0071 -0.3620
 3657TIP3    H210978   3.146   0.995   4.351  0.5831  0.7087  0.0823
 3658TIP3   OH210979   0.098   2.628   0.963  0.4558  0.1979 -0.4025
 3658TIP3    H110980   0.192   2.641   0.951  0.3715  1.2033 -0.0351
 3658TIP3    H210981   0.075   2.559   0.901  1.7081 -1.1160  0.5095
 3659TIP3   OH210982   4.876   1.551   1.749 -0.3713 -0.3654  0.0934
 3659TIP3    H110983   4.950   1.600   1.785 -0.2802 -0.5779  0.1950
 3659TIP3    H210984   4.819   1.537   1.825  0.0908 -1.3106  0.2752
 3660TIP3   OH210985   5.779   1.765   2.465  0.2277 -0.2317  0.3163
 3660TIP3    H110986   5.858   1.736   2.418  0.7446  0.3337  0.8103
 3660TIP3    H210987   5.709   1.758   2.401  0.6481 -0.9161 -0.0825
 3661TIP3   OH210988   2.079   1.262   2.818  0.3174 -0.0083  0.0306
 3661TIP3    H110989   2.087   1.177   2.861 -0.0856  0.1771  0.4784
 3661TIP3    H210990   2.134   1.320   2.870  0.6764 -0.0169 -0.3373
 3662TIP3   OH210991   4.075   3.431   0.582  0.1358 -0.1628  0.1557
 3662TIP3    H110992   4.050   3.447   0.673 -0.9242 -3.0954  0.5137
 3662TIP3    H210993   3.992   3.411   0.538  0.9730 -2.5813 -0.4722
 3663TIP3   OH210994   5.123   2.437   1.534 -0.0632  0.3540 -0.1406
 3663TIP3    H110995   5.083   2.365   1.582 -0.9527  0.8577 -0.1043
 3663TIP3    H210996   5.203   2.400   1.497  0.0279 -0.3567  0.7440
 3664TIP3   OH210997   5.784   0.569   1.795  0.2201  0.2131 -0.1495
 3664TIP3    H110998   5.733   0.562   1.876  1.0435  0.5367  0.4116
 3664TIP3    H210999   5.760   0.654   1.759  2.2106  1.5434  1.4446
 3665TIP3   OH211000   4.897   0.777   4.338 -0.1815 -0.2255 -0.0594
 3665TIP3    H111001   4.863   0.813   4.255 -0.9424  0.2147  0.4280
 3665TIP3    H211002   4.923   0.854   4.388  0.6353 -0.5162 -0.0337
 3666TIP3   OH211003   0.494   1.171   1.914  0.1029  0.5217 -0.7799
 3666TIP3    H111004   0.435   1.126   1.853  1.2881  0.1066 -1.6811
 3666TIP3    H211005   0.570   1.112   1.921 -0.7660 -0.3907  2.6546
 3667TIP3   OH211006   6.283   4.609   4.991  0.1658 -0.6030 -0.2640
 3667TIP3    H111007   6.282   4.705   4.998 -1.4059 -0.6291  0.1543
 3667TIP3    H211008   6.250   4.579   5.076 -2.6216 -1.3988 -1.5285
 3668TIP3   OH211009   1.213   1.057   0.686 -0.2375  0.2724 -0.3152
 3668TIP3    H111010   1.295   1.024   0.724 -0.0689  0.5474 -0.4373
 3668TIP3    H211011   1.234   1.074   0.594  0.1485  2.2594  0.0957
 3669TIP3   OH211012   3.756   4.942   2.344 -0.7445 -0.1098  0.3791
 3669TIP3    H111013   3.845   4.968   2.319 -1.2412  2.3536  0.9497
 3669TIP3    H211014   3.769   4.877   2.413  0.6352  0.8965  1.1266
 3670TIP3   OH211015   1.219   4.064   0.706  0.4014  0.2500  0.4110
 3670TIP3    H111016   1.244   4.101   0.791  1.7117  0.0534  0.1414
 3670TIP3    H211017   1.142   4.011   0.725  0.7188  0.1430  1.5067
 3671TIP3   OH211018   2.122   2.865   1.850 -0.3401  0.4407  0.5028
 3671TIP3    H111019   2.144   2.933   1.787  1.0792  0.0865  0.5893
 3671TIP3    H211020   2.026   2.870   1.858 -0.4554  1.0722 -0.9894
 3672TIP3   OH211021   2.608   1.411   1.894  0.1967  0.1123 -0.3619
 3672TIP3    H111022   2.579   1.488   1.943  0.5537  1.3429 -1.9650
 3672TIP3    H211023   2.555   1.413   1.814  1.8203  0.0389 -1.4820
 3673TIP3   OH211024   2.881   0.925   1.243 -0.6900 -0.2630 -0.3221
 3673TIP3    H111025   2.881   0.829   1.246 -0.9254 -0.2451  0.2876
 3673TIP3    H211026   2.924   0.946   1.160  1.4387 -0.8741  0.5400
 3674TIP3   OH211027   0.823   0.755   0.888  0.3442  0.2442  0.2643
 3674TIP3    H111028   0.738   0.753   0.844  0.9614  0.8465 -0.9993
 3674TIP3    H211029   0.839   0.664   0.913 -0.8756  0.1954  0.9513
 3675TIP3   OH211030   1.495   0.553   0.062 -0.2518  0.3015  0.4020
 3675TIP3    H111031   1.511   0.639   0.024 -1.2691  0.2287 -0.1997
 3675TIP3    H211032   1.432   0.569   0.132 -0.6293  0.0103  0.1292
 3676TIP3   OH211033   4.261   3.207   0.204  0.6394  0.1040  0.0062
 3676TIP3    H111034   4.344   3.192   0.158  0.1818  0.1003 -0.8354
 3676TIP3    H211035   4.196   3.162   0.150 -0.0153  0.7170  0.2805
 3677TIP3   OH211036   1.968   5.483   1.206 -0.2271 -0.0390 -0.3632
 3677TIP3    H111037   1.951   5.538   1.129 -0.9418 -0.6984 -0.7025
 3677TIP3    H211038   1.928   5.530   1.279  2.8541  1.9924  0.1899
 3678TIP3   OH211039   5.606   5.132   1.868 -0.7602 -0.2811 -0.4011
 3678TIP3    H111040   5.555   5.213   1.867 -0.5328 -0.1270 -1.5303
 3678TIP3    H211041   5.678   5.149   1.807  0.2588 -0.7425  0.6347
 3679TIP3   OH211042   5.553   2.383   3.536 -0.1288 -0.9370 -0.4108
 3679TIP3    H111043   5.461   2.411   3.530  0.0202 -0.5472 -0.9007
 3679TIP3    H211044   5.578   2.402   3.626 -0.1238  0.2403 -0.6439
 3680TIP3   OH211045   4.448   0.094   4.729 -0.4739  0.4986  0.4494
 3680TIP3    H111046   4.525   0.136   4.767  0.3117  0.8573 -1.4193
 3680TIP3    H211047   4.452   0.003   4.758  1.4146  0.1822 -0.6648
 3681TIP3   OH211048   2.038   0.747   0.932  0.1488 -0.0484  0.5802
 3681TIP3    H111049   2.052   0.702   0.849  1.1979 -0.1064  0.7626
 3681TIP3    H211050   1.966   0.807   0.916 -0.0637 -0.5025 -0.1940
 3682TIP3   OH211051   0.156   1.522   2.267  0.6697  0.6031 -0.0719
 3682TIP3    H111052   0.215   1.515   2.342  0.3099  1.8895  0.3429
 3682TIP3    H211053   0.191   1.460   2.204  0.9841 -0.5077  1.1459
 3683TIP3   OH211054   5.392   2.840   4.023  0.3697 -0.7546  0.0274
 3683TIP3    H111055   5.397   2.932   3.996  1.0668 -0.6122  0.6243
 3683TIP3    H211056   5.470   2.800   3.985  0.1695 -1.0580 -0.0660
 3684TIP3   OH211057   5.122   1.268   1.428  0.1345 -0.2043  0.0649
 3684TIP3    H111058   5.138   1.357   1.459 -0.7689 -0.2805  0.7748
 3684TIP3    H211059   5.034   1.247   1.457 -0.2961 -0.7496 -1.5141
 3685TIP3   OH211060   0.674   5.457   2.293  0.4575  0.3295 -0.3080
 3685TIP3    H111061   0.603   5.474   2.356  0.1899 -0.3981 -0.3988
 3685TIP3    H211062   0.742   5.415   2.346  0.3218 -0.0807 -0.4543
 3686TIP3   OH211063   0.159   3.423   1.135  0.0483  0.0255  0.4269
 3686TIP3    H111064   0.184   3.491   1.197  2.1262  0.6522 -1.0252
 3686TIP3    H211065   0.075   3.453   1.099  0.9735  1.9124 -0.2738
 3687TIP3   OH211066   2.419   1.947   3.998  0.2364  0.2704  0.1360
 3687TIP3    H111067   2.383   1.989   3.920  0.0182  0.5419  0.3820
 3687TIP3    H211068   2.491   2.004   4.025  0.7040 -0.1483 -0.2213
 3688TIP3   OH211069   0.768   2.923   1.425 -0.4608  0.0123 -0.0035
 3688TIP3    H111070   0.687   2.952   1.384 -1.0155  0.1702  1.1814
 3688TIP3    H211071   0.826   2.999   1.420 -1.2895  0.7856  1.4520
 3689TIP3   OH211072   5.376   3.664   0.072  0.3575  0.0643 -0.0398
 3689TIP3    H111073   5.348   3.754   0.052  1.9861  0.7460  0.5707
 3689TIP3    H211074   5.461   3.675   0.115  0.9456 -1.8250 -0.6534
 3690TIP3   OH211075   0.995   3.534   4.196  0.0207 -0.3061  1.0114
 3690TIP3    H111076   1.088   3.557   4.190 -0.2540  0.9791  1.4120
 3690TIP3    H211077   0.962   3.546   4.107  0.1855 -0.5764  0.9103
 3691TIP3   OH211078   0.819   1.811   0.470  0.1929  0.2011  0.0975
 3691TIP3    H111079   0.806   1.878   0.403 -0.2554  0.6154  0.5860
 3691TIP3    H211080   0.802   1.857   0.552 -2.5104 -1.0620  0.3400
 3692TIP3   OH211081   6.047   4.279   0.446  0.2335 -0.6846 -0.4245
 3692TIP3    H111082   5.975   4.284   0.383  0.1567  0.2923 -0.2832
 3692TIP3    H211083   6.034   4.355   0.503  1.1541 -0.7116 -0.1540
 3693TIP3   OH211084   3.381   5.499   1.965 -0.5300 -0.2071  0.0570
 3693TIP3    H111085   3.363   5.588   1.995 -0.4494  0.0914 -0.7520
 3693TIP3    H211086   3.334   5.443   2.027  0.1140  0.3518  1.0949
 3694TIP3   OH211087   4.038   2.555   0.644 -0.2712 -0.3500 -0.2575
 3694TIP3    H111088   4.019   2.615   0.572 -0.4613  0.1847  0.2326
 3694TIP3    H211089   4.029   2.609   0.723  0.4106 -0.8067  0.1407
 3695TIP3   OH211090   5.717   4.760   4.182  0.3588  0.5291 -0.0241
 3695TIP3    H111091   5.658   4.829   4.214  1.3315  1.4137 -0.0621
 3695TIP3    H211092   5.804   4.801   4.184  0.5914  0.4614 -3.1590
 3696TIP3   OH211093   3.480   5.809   1.841  0.3199 -0.1499  0.1691
 3696TIP3    H111094   3.405   5.768   1.799  0.3418 -0.3340  0.3109
 3696TIP3    H211095   3.448   5.837   1.927  0.6866 -1.1489  0.6374
 3697TIP3   OH211096   4.153   3.079   5.150 -0.4892  0.0552  0.1567
 3697TIP3    H111097   4.179   3.098   5.240 -0.0419  0.9279 -0.1507
 3697TIP3    H211098   4.156   2.984   5.144  0.4737  0.0367  0.7713
 3698TIP3   OH211099   5.756   3.152   4.047 -0.5299 -0.3633 -0.4049
 3698TIP3    H111100   5.680   3.183   4.096 -0.7988 -1.1103 -0.3453
 3698TIP3    H211101   5.829   3.158   4.110 -0.9029 -1.4746  0.1516
 3699TIP3   OH211102   1.043   0.208   3.936 -0.1609  0.0092  0.1348
 3699TIP3    H111103   0.981   0.200   4.008  1.8683  0.3676  2.0079
 3699TIP3    H211104   1.125   0.175   3.971  1.1808  1.2615 -1.6547
 3700TIP3   OH211105   2.859   0.494   0.978  0.0150 -0.5668  0.4190
 3700TIP3    H111106   2.912   0.561   0.933 -1.2805  0.9363  1.0404
 3700TIP3    H211107   2.923   0.429   1.006  1.1624 -0.3384 -1.4470
 3701TIP3   OH211108   1.569   5.354   0.971  0.0768 -0.0661  0.0981
 3701TIP3    H111109   1.602   5.429   1.019 -0.2667 -0.5652  1.1561
 3701TIP3    H211110   1.486   5.385   0.932 -0.3710 -0.0617  1.0327
 3702TIP3   OH211111   0.154   2.280   3.975 -0.4195 -0.2959 -0.1366
 3702TIP3    H111112   0.073   2.308   4.018 -0.2142 -1.4642  1.0908
 3702TIP3    H211113   0.205   2.238   4.045  1.8228  1.5092 -0.5550
 3703TIP3   OH211114   4.943   2.491   2.536 -0.6687  0.0153 -0.4201
 3703TIP3    H111115   4.895   2.529   2.463  0.6721 -0.8683 -1.8073
 3703TIP3    H211116   5.023   2.455   2.497 -0.0951 -0.8385  1.4146
 3704TIP3   OH211117   0.952   1.543   3.687 -0.4339  0.7454  0.2176
 3704TIP3    H111118   1.029   1.511   3.733  0.2656  1.7512 -0.2239
 3704TIP3    H211119   0.980   1.550   3.595 -1.2377  0.5387 -0.0571
 3705TIP3   OH211120   2.920   5.517   4.225  0.5046  0.0772 -0.1866
 3705TIP3    H111121   2.959   5.594   4.184 -0.3606  1.2341  1.0924
 3705TIP3    H211122   2.896   5.546   4.313  1.1812 -1.9677  0.7403
 3706TIP3   OH211123   1.520   4.866   0.542  0.6635 -0.1770  0.3211
 3706TIP3    H111124   1.528   4.879   0.637 -1.7645  0.0802  0.5678
 3706TIP3    H211125   1.572   4.936   0.504 -0.6427  1.5551  1.5352
 3707TIP3   OH211126   5.735   4.882   2.147  0.4845  0.5566 -0.1489
 3707TIP3    H111127   5.679   4.868   2.070  0.3003  1.0728 -0.1117
 3707TIP3    H211128   5.682   4.854   2.221  0.5199  0.4342 -0.1679
 3708TIP3   OH211129   1.652   2.398   3.017 -0.5079 -0.2040  0.0248
 3708TIP3    H111130   1.679   2.433   3.102 -0.8863 -2.1974  1.0124
 3708TIP3    H211131   1.734   2.389   2.968 -0.0581 -0.6679  0.8361
 3709TIP3   OH211132   0.094   4.189   3.356 -0.4134  0.0680  0.4220
 3709TIP3    H111133   0.001   4.166   3.358 -0.2420 -0.7371 -0.3285
 3709TIP3    H211134   0.137   4.113   3.318  0.6955 -0.0066  1.7324
 3710TIP3   OH211135   1.821   3.361   1.907  0.4164 -0.1485 -0.5057
 3710TIP3    H111136   1.795   3.352   1.998 -0.2306  0.2672 -0.6400
 3710TIP3    H211137   1.893   3.424   1.908 -2.3946  3.4531 -0.6361
 3711TIP3   OH211138   4.320   0.735   0.309 -0.2498 -0.7243  0.2597
 3711TIP3    H111139   4.247   0.792   0.284 -0.6211 -0.8024  1.1314
 3711TIP3    H211140   4.395   0.772   0.263 -0.3234  0.9522  1.3877
 3712TIP3   OH211141   0.294   0.348   1.862  0.3189 -0.3064  0.6206
 3712TIP3    H111142   0.242   0.329   1.940 -0.9551 -2.4086 -0.6690
 3712TIP3    H211143   0.259   0.431   1.830 -0.6338 -0.5203  1.0846
 3713TIP3   OH211144   2.832   0.587   2.491  0.1463  0.0121  0.2956
 3713TIP3    H111145   2.738   0.589   2.508  0.0555 -0.1799 -0.1954
 3713TIP3    H211146   2.846   0.656   2.426  0.3851  0.2199  0.5656
 3714TIP3   OH211147   2.321   1.219   1.764  0.1820 -0.0753  0.6725
 3714TIP3    H111148   2.233   1.228   1.727  1.0599  0.6172 -1.3721
 3714TIP3    H211149   2.320   1.276   1.841 -1.5967 -1.2625  1.5947
 3715TIP3   OH211150   0.212   0.514   0.207  0.2955 -0.6036 -0.2317
 3715TIP3    H111151   0.171   0.472   0.131  0.6061 -1.7339  0.2085
 3715TIP3    H211152   0.284   0.565   0.169 -0.4620  0.0433 -0.8333
 3716TIP3   OH211153   5.952   0.838   0.473 -0.2056  0.5895 -0.2052
 3716TIP3    H111154   5.868   0.874   0.445 -0.4384  0.0550 -0.2154
 3716TIP3    H211155   5.929   0.755   0.515  0.2186  0.9311  0.7440
 3717TIP3   OH211156   0.911   4.867   2.304 -0.5102  0.8228 -0.3071
 3717TIP3    H111157   0.919   4.787   2.357 -1.4402 -0.3506 -1.8686
 3717TIP3    H211158   0.846   4.920   2.351 -1.2035 -0.1263 -0.1694
 3718TIP3   OH211159   1.860   4.434   1.132  0.3714 -0.6764  0.1854
 3718TIP3    H111160   1.829   4.346   1.110 -2.1470  0.2627 -0.3271
 3718TIP3    H211161   1.838   4.444   1.225  0.2260 -0.4271  0.1243
 3719TIP3   OH211162   0.761   2.317   4.664 -0.4758  0.2358  0.4134
 3719TIP3    H111163   0.732   2.385   4.602 -2.0174 -1.4964 -0.9031
 3719TIP3    H211164   0.783   2.365   4.744  1.4773  2.5802 -1.3638
 3720TIP3   OH211165   4.659   3.885   3.442 -0.0646  0.2554  0.4955
 3720TIP3    H111166   4.738   3.859   3.396 -1.1409  1.7870 -2.4708
 3720TIP3    H211167   4.683   3.968   3.485 -0.2528  1.2546 -1.2369
 3721TIP3   OH211168   1.458   0.909   4.997 -0.3507  0.0755  0.2264
 3721TIP3    H111169   1.377   0.958   5.007  1.0450  2.3391  1.2670
 3721TIP3    H211170   1.478   0.875   5.084  1.4075  2.3616  0.8211
 3722TIP3   OH211171   4.313   1.325   4.994 -0.3012  0.4339 -0.7944
 3722TIP3    H111172   4.244   1.392   5.001 -0.1197  0.7570 -2.0047
 3722TIP3    H211173   4.384   1.368   4.947 -0.2402 -0.6503 -1.7269
 3723TIP3   OH211174   0.260   0.319   0.386 -0.5724  0.8249 -0.3926
 3723TIP3    H111175   0.231   0.366   0.308 -1.6448 -1.1906 -1.3004
 3723TIP3    H211176   0.189   0.257   0.404  1.0066 -0.9084  0.2871
 3724TIP3   OH211177   4.976   3.820   0.639 -0.3596  0.5948  0.0029
 3724TIP3    H111178   4.978   3.825   0.735 -0.2725  1.8575 -0.0598
 3724TIP3    H211179   5.037   3.887   0.610 -0.6786  0.4841 -0.9562
 3725TIP3   OH211180   0.108   4.799   4.628  0.0937  0.5184 -0.2915
 3725TIP3    H111181   0.188   4.748   4.645  1.1503  2.3649  0.6649
 3725TIP3    H211182   0.039   4.749   4.671  0.9154 -0.5610 -0.1670
 3726TIP3   OH211183   1.288   0.302   0.922  0.3120 -0.6691 -0.4615
 3726TIP3    H111184   1.224   0.356   0.876  0.3206 -0.5226 -0.3035
 3726TIP3    H211185   1.338   0.260   0.853  0.2677 -0.5177 -0.5863
 3727TIP3   OH211186   4.303   0.197   2.608 -0.2663  0.5896  0.2520
 3727TIP3    H111187   4.361   0.127   2.638 -0.0585  0.2269 -0.9378
 3727TIP3    H211188   4.218   0.155   2.596 -0.4119  0.7888  0.5899
 3728TIP3   OH211189   4.929   0.982   0.042 -0.3903  0.3167 -0.0150
 3728TIP3    H111190   5.013   0.944   0.016 -0.0950  1.5939 -1.0596
 3728TIP3    H211191   4.869   0.908   0.046  0.4787 -0.4398 -0.5834
 3729TIP3   OH211192   5.497   5.537   3.226 -0.8070 -0.1009 -0.6910
 3729TIP3    H111193   5.502   5.510   3.134  1.0242  0.7274 -0.8788
 3729TIP3    H211194   5.407   5.518   3.252 -0.4994 -3.4838 -1.6674
 3730TIP3   OH211195   3.158   1.900   3.172  0.1147  0.8669  0.1699
 3730TIP3    H111196   3.230   1.906   3.109  0.3593  2.4771  0.5490
 3730TIP3    H211197   3.079   1.900   3.119  0.3716 -0.2049 -0.2218
 3731TIP3   OH211198   3.831   0.322   1.593 -0.2313 -0.1845  0.0544
 3731TIP3    H111199   3.922   0.338   1.617 -0.2540  0.8557 -0.5166
 3731TIP3    H211200   3.781   0.342   1.672  0.0055 -0.4417  0.2699
 3732TIP3   OH211201   2.512   0.907   0.597 -0.0394 -0.3021 -0.1704
 3732TIP3    H111202   2.500   0.964   0.673  2.2141  0.2599 -0.1704
 3732TIP3    H211203   2.428   0.862   0.587 -0.9341  0.8668  1.5967
 3733TIP3   OH211204   2.364   5.059   4.511 -0.1943  0.1134  0.0856
 3733TIP3    H111205   2.442   5.003   4.508  0.1565  0.6250 -1.2048
 3733TIP3    H211206   2.291   4.999   4.521  0.2401 -0.5137 -0.4540
 3734TIP3   OH211207   5.531   4.222   3.263 -0.4205 -0.3685  0.1092
 3734TIP3    H111208   5.488   4.175   3.192 -0.5518  1.2878 -0.9746
 3734TIP3    H211209   5.480   4.303   3.273  1.2474  0.7440  0.1145
 3735TIP3   OH211210   5.548   2.595   1.177 -0.0618 -0.3171 -0.0757
 3735TIP3    H111211   5.568   2.650   1.252 -1.5336 -1.9143  1.5950
 3735TIP3    H211212   5.453   2.603   1.165  0.0928 -0.3745 -1.5588
 3736TIP3   OH211213   4.485   2.744   2.196  0.6084  0.0508 -0.0862
 3736TIP3    H111214   4.501   2.767   2.104 -0.1203 -0.8130 -0.4437
 3736TIP3    H211215   4.564   2.774   2.242  0.8863  0.7034 -0.9509
 3737TIP3   OH211216   5.558   0.388   0.928 -0.2179  0.1152  0.3434
 3737TIP3    H111217   5.501   0.465   0.936 -0.2753  0.1520 -0.4260
 3737TIP3    H211218   5.646   0.424   0.922 -0.3083  0.1579 -0.7990
 3738TIP3   OH211219   5.632   3.729   1.807 -0.2740 -0.5298  0.0755
 3738TIP3    H111220   5.547   3.719   1.851  0.3052 -0.3644  1.2652
 3738TIP3    H211221   5.612   3.780   1.728 -1.3064 -0.6313  0.2557
 3739TIP3   OH211222   5.521   5.917   2.039  0.0095 -0.1248 -0.5049
 3739TIP3    H111223   5.591   5.914   1.974  0.6836  1.0512  0.1325
 3739TIP3    H211224   5.489   6.007   2.036 -0.6492 -0.3324  0.0660
 3740TIP3   OH211225   6.296   3.570   5.090 -0.0997  0.8291 -0.3811
 3740TIP3    H111226   6.258   3.498   5.041  0.7366  1.7118 -2.4749
 3740TIP3    H211227   6.328   3.531   5.171  1.9846 -1.5944 -2.2076
 3741TIP3   OH211228   0.204   5.898   5.007 -0.0622  0.2751  0.2955
 3741TIP3    H111229   0.166   5.860   5.086 -0.6066 -2.8670 -1.3264
 3741TIP3    H211230   0.291   5.859   5.001  0.8214  2.1161  0.3584
 3742TIP3   OH211231   4.498   0.744   4.592  0.3808  0.3816 -0.3759
 3742TIP3    H111232   4.564   0.814   4.589  1.1851 -0.3264  0.1438
 3742TIP3    H211233   4.548   0.664   4.576 -0.7366  0.0127 -2.3281
 3743TIP3   OH211234   3.571   2.843   1.519 -0.2847 -0.3584 -0.0063
 3743TIP3    H111235   3.478   2.821   1.527 -0.7602  1.6627  0.5824
 3743TIP3    H211236   3.615   2.781   1.577 -1.5304  0.1835  1.6013
 3744TIP3   OH211237   3.591   2.991   2.572  0.1591 -0.5604 -0.2449
 3744TIP3    H111238   3.595   2.896   2.580  1.1290 -0.7384 -2.2281
 3744TIP3    H211239   3.613   3.008   2.480  1.2073  1.6481  0.3636
 3745TIP3   OH211240   1.779   2.053   5.208 -0.0019  0.6351  0.0669
 3745TIP3    H111241   1.711   2.045   5.142 -0.5779  0.2957  0.6959
 3745TIP3    H211242   1.839   2.119   5.172  0.0397 -0.0097 -1.0738
 3746TIP3   OH211243   4.816   4.994   4.085 -0.0608 -0.2577 -0.3448
 3746TIP3    H111244   4.789   5.070   4.035  0.1686 -0.5571 -0.9417
 3746TIP3    H211245   4.740   4.971   4.138  0.0564  0.7180  0.2714
 3747TIP3   OH211246   4.356   5.899   2.443 -0.1392  0.2199  0.0180
 3747TIP3    H111247   4.289   5.923   2.379 -0.0167 -0.0866 -0.2307
 3747TIP3    H211248   4.343   5.960   2.516  1.4989  2.4925 -1.4506
 3748TIP3   OH211249   4.406   3.986   1.012 -0.2296 -0.2691  0.4490
 3748TIP3    H111250   4.429   3.931   1.087 -0.1329 -0.4461  0.2933
 3748TIP3    H211251   4.406   3.925   0.937 -0.4314 -0.1160  0.3232
 3749TIP3   OH211252   0.611   2.481   1.269  0.4083  0.2817  0.2003
 3749TIP3    H111253   0.636   2.411   1.209 -0.4464  1.2467 -1.3375
 3749TIP3    H211254   0.687   2.491   1.326  1.1141 -0.9073 -0.4764
 3750TIP3   OH211255   0.047   4.832   2.864 -0.3203 -0.0611 -0.2689
 3750TIP3    H111256   0.043   4.925   2.843 -1.1351  0.4144  1.8241
 3750TIP3    H211257   0.096   4.827   2.946  1.4235 -1.6999 -1.3053
 3751TIP3   OH211258   4.477   3.851   0.184  0.2483 -0.1981  0.5700
 3751TIP3    H111259   4.568   3.828   0.164  0.3780 -0.5248  1.4553
 3751TIP3    H211260   4.437   3.868   0.099  0.6269 -1.9828 -0.0097
 3752TIP3   OH211261   4.634   4.676   4.100 -0.0688 -0.0273  0.0381
 3752TIP3    H111262   4.620   4.727   4.179 -2.6856 -2.2616  1.1921
 3752TIP3    H211263   4.728   4.682   4.083  0.5771  0.5996  3.2759
 3753TIP3   OH211264   3.547   1.289   1.723  0.1584  0.1100  0.1204
 3753TIP3    H111265   3.605   1.265   1.651  1.0436 -2.2211  1.4903
 3753TIP3    H211266   3.605   1.301   1.798 -0.8533  1.1864  0.7676
 3754TIP3   OH211267   0.721   4.692   2.877 -0.2977  0.9827  0.1589
 3754TIP3    H111268   0.688   4.697   2.967 -0.5039  0.6821  0.1024
 3754TIP3    H211269   0.643   4.676   2.824  0.0831 -1.3070  0.1792
 3755TIP3   OH211270   3.005   3.216   4.691  0.2696 -0.1023 -0.6656
 3755TIP3    H111271   2.937   3.149   4.701 -0.4395  0.7049  0.0194
 3755TIP3    H211272   3.085   3.166   4.674 -0.5372 -1.0543 -1.8480
 3756TIP3   OH211273   5.130   1.923   0.947 -0.0722  0.5921  0.4926
 3756TIP3    H111274   5.134   2.015   0.920  0.0372  0.5312  0.3021
 3756TIP3    H211275   5.069   1.922   1.021  2.0140  1.2916  2.3657
 3757TIP3   OH211276   5.734   3.140   2.631  0.1691 -0.5528 -0.1717
 3757TIP3    H111277   5.652   3.105   2.666  1.1865 -2.2906  0.5752
 3757TIP3    H211278   5.746   3.223   2.676 -0.1286 -1.2978  1.3302
 3758TIP3   OH211279   3.455   3.078   4.859  0.0461 -0.5035  1.0533
 3758TIP3    H111280   3.550   3.064   4.860 -0.1323 -1.8826  2.4287
 3758TIP3    H211281   3.418   2.992   4.878 -1.4312  0.3437  2.2013
 3759TIP3   OH211282   0.863   1.556   4.881 -0.0334  0.2943 -0.6132
 3759TIP3    H111283   0.914   1.540   4.961 -1.5990  0.6923  0.5059
 3759TIP3    H211284   0.878   1.479   4.827  2.1370  0.6065 -0.5673
 3760TIP3   OH211285   1.059   1.140   2.278  0.3504 -0.0186  0.4060
 3760TIP3    H111286   0.972   1.170   2.251  0.5359 -0.9864 -1.3690
 3760TIP3    H211287   1.098   1.217   2.320 -0.9894  0.7219  0.3639
 3761TIP3   OH211288   0.589   1.233   3.772  0.6829 -0.2375  0.2501
 3761TIP3    H111289   0.627   1.318   3.794  0.4306  0.2324 -1.0568
 3761TIP3    H211290   0.614   1.219   3.681  0.0455 -1.2001  0.2198
 3762TIP3   OH211291   3.868   4.024   5.122 -0.1497 -0.2753  0.0024
 3762TIP3    H111292   3.840   3.988   5.206  1.4987  1.2576  1.2795
 3762TIP3    H211293   3.803   4.092   5.102  0.5517  0.7675  1.1228
 3763TIP3   OH211294   3.439   4.179   0.502 -0.1007 -0.1483 -0.0095
 3763TIP3    H111295   3.344   4.185   0.510 -0.0177  1.4207  0.1892
 3763TIP3    H211296   3.459   4.087   0.516 -1.5758 -0.4646  0.1540
 3764TIP3   OH211297   2.662   3.186   3.373 -0.1823  0.1923  0.2148
 3764TIP3    H111298   2.721   3.261   3.373 -2.2312  1.9488 -1.4693
 3764TIP3    H211299   2.622   3.187   3.460 -0.5200  1.3954  0.0647
 3765TIP3   OH211300   3.112   3.811   0.383  0.0160  0.2753  0.2567
 3765TIP3    H111301   3.053   3.741   0.357  0.1784 -0.3245  1.4307
 3765TIP3    H211302   3.061   3.865   0.444  0.1972  0.6336  0.0982
 3766TIP3   OH211303   0.497   2.261   5.108  0.3285  0.0232 -0.3195
 3766TIP3    H111304   0.585   2.233   5.131 -0.0036 -0.5520  0.2625
 3766TIP3    H211305   0.442   2.184   5.124 -0.1972  0.1991 -1.2128
 3767TIP3   OH211306   3.086   1.658   4.010  0.2810  0.1691  0.0703
 3767TIP3    H111307   3.049   1.736   4.052  0.1604 -0.1911  0.6363
 3767TIP3    H211308   3.166   1.690   3.967  0.1158  0.6473  0.1121
 3768TIP3   OH211309   4.919   5.206   4.340  0.1208  0.3399  0.4876
 3768TIP3    H111310   4.872   5.202   4.423  0.1062  2.0558  0.6054
 3768TIP3    H211311   4.883   5.135   4.288 -2.5842  1.5006  0.6148
 3769TIP3   OH211312   5.710   3.826   4.359  0.1426 -0.0083  0.0436
 3769TIP3    H111313   5.675   3.913   4.381 -0.7528 -0.5642  0.9176
 3769TIP3    H211314   5.689   3.816   4.266  2.5106  1.7082 -0.7746
 3770TIP3   OH211315   2.085   0.970   1.752 -0.4887  0.1413  0.0182
 3770TIP3    H111316   2.062   0.938   1.839  2.2997 -0.3958  0.6590
 3770TIP3    H211317   2.160   1.028   1.767  1.0620 -1.1708 -2.1135
 3771TIP3   OH211318   0.886   4.159   1.163  0.1540  0.7477 -0.2641
 3771TIP3    H111319   0.970   4.194   1.191  2.4128 -2.4761 -2.2373
 3771TIP3    H211320   0.878   4.185   1.071  0.2517 -0.9340 -0.7855
 3772TIP3   OH211321   3.053   0.696   0.931 -0.4455 -0.3159  0.4840
 3772TIP3    H111322   3.139   0.698   0.888 -1.2698  1.2113 -1.2416
 3772TIP3    H211323   3.029   0.788   0.940 -2.1085 -0.7265  0.5439
 3773TIP3   OH211324   0.866   5.817   3.920 -0.5702  0.3940  0.4837
 3773TIP3    H111325   0.934   5.884   3.913  0.2010 -0.4200 -0.0519
 3773TIP3    H211326   0.836   5.822   4.011 -0.4472  1.3801  0.4794
 3774TIP3   OH211327   0.644   5.666   3.001  0.3074  0.1562 -0.3566
 3774TIP3    H111328   0.684   5.605   3.063  0.4137  0.1559 -0.4258
 3774TIP3    H211329   0.611   5.737   3.056 -1.0570 -0.6258 -0.1202
 3775TIP3   OH211330   5.105   2.157   0.079  0.3321  0.2771  0.0354
 3775TIP3    H111331   5.197   2.143   0.055 -0.4879 -0.5049 -3.2211
 3775TIP3    H211332   5.069   2.069   0.083 -0.7186  0.6329 -1.0323
 3776TIP3   OH211333   5.755   3.839   2.076  1.1047 -0.0770 -0.5403
 3776TIP3    H111334   5.690   3.776   2.045 -1.3902  2.2550 -0.4743
 3776TIP3    H211335   5.734   3.920   2.028  2.9421  1.2078  0.6940
 3777TIP3   OH211336   2.909   2.178   3.956  0.1928  0.2079  0.1585
 3777TIP3    H111337   2.990   2.131   3.975  0.2693  1.1933  2.4642
 3777TIP3    H211338   2.923   2.214   3.868  1.9755 -0.1786  0.2411
 3778TIP3   OH211339   4.349   1.277   4.364 -0.8476 -0.1723  0.4705
 3778TIP3    H111340   4.332   1.370   4.370 -1.3208 -0.3037  1.2434
 3778TIP3    H211341   4.440   1.271   4.332 -0.1660  0.5734  2.1581
 3779TIP3   OH211342   1.326   4.084   4.121 -0.0142  0.2458  0.4017
 3779TIP3    H111343   1.328   3.991   4.096 -0.0159  0.3561 -0.0199
 3779TIP3    H211344   1.243   4.116   4.085  0.9879  0.9403 -1.4347
 3780TIP3   OH211345   5.536   1.293   4.358  0.2095  0.0433  0.3473
 3780TIP3    H111346   5.594   1.245   4.416 -1.1653 -0.6059  1.2260
 3780TIP3    H211347   5.562   1.266   4.270  0.6666 -0.8989  0.7623
 3781TIP3   OH211348   1.383   4.108   3.079  0.2581 -0.1690  0.6739
 3781TIP3    H111349   1.375   4.149   3.165  0.5598 -0.8814  1.0522
 3781TIP3    H211350   1.473   4.125   3.053  0.3529 -0.4977  0.7847
 3782TIP3   OH211351   0.394   1.868   0.638  0.1537 -0.2098  0.2374
 3782TIP3    H111352   0.464   1.810   0.670  0.1756 -1.0786 -1.2620
 3782TIP3    H211353   0.428   1.902   0.555 -1.0585 -0.3799 -0.3513
 3783TIP3   OH211354   0.281   1.671   2.922  0.5543  0.1059 -0.4085
 3783TIP3    H111355   0.357   1.728   2.909  0.2470  0.7146  0.3315
 3783TIP3    H211356   0.219   1.725   2.971 -0.4541 -0.3063 -1.1970
 3784TIP3   OH211357   1.351   5.835   1.185  0.0362 -0.2271  0.2240
 3784TIP3    H111358   1.313   5.870   1.265 -1.1320  0.5181 -0.6384
 3784TIP3    H211359   1.423   5.779   1.216  0.7477  1.4057  1.7115
 3785TIP3   OH211360   1.072   0.432   1.431 -0.0452  0.1708  0.1047
 3785TIP3    H111361   0.985   0.472   1.427 -1.6994 -2.9854  1.1757
 3785TIP3    H211362   1.132   0.505   1.417 -2.7880  2.7688  0.7698
 3786TIP3   OH211363   5.686   2.946   2.901  0.0428  0.1711 -0.3793
 3786TIP3    H111364   5.612   2.939   2.840  0.6626 -0.1722 -1.1128
 3786TIP3    H211365   5.747   2.878   2.873  0.4073  0.0985  0.5494
 3787TIP3   OH211366   0.416   2.432   4.011  0.4983 -0.3231  0.0439
 3787TIP3    H111367   0.504   2.398   3.998  0.1942 -0.6651 -1.2655
 3787TIP3    H211368   0.363   2.355   4.032  0.4687 -0.1446  0.6461
 3788TIP3   OH211369   0.886   5.632   1.771 -0.6225  0.0250  0.6197
 3788TIP3    H111370   0.907   5.659   1.861 -0.9642  0.6767  0.5116
 3788TIP3    H211371   0.968   5.641   1.723  0.3406 -3.1331  1.4800
 3789TIP3   OH211372   3.540   2.165   2.797 -0.7881 -0.5895  0.3507
 3789TIP3    H111373   3.589   2.207   2.725 -1.6426 -1.1353 -0.5738
 3789TIP3    H211374   3.564   2.073   2.791 -0.0810 -0.4875  1.4301
 3790TIP3   OH211375   3.023   0.364   2.442  0.2423 -0.0884  0.4950
 3790TIP3    H111376   2.966   0.429   2.482  1.7784  0.2763  2.2080
 3790TIP3    H211377   2.963   0.302   2.400 -1.4697 -0.1361  2.8489
 3791TIP3   OH211378   1.411   3.312   1.709  0.2589 -0.2942  0.7358
 3791TIP3    H111379   1.473   3.376   1.674 -0.1426 -0.2673  0.0622
 3791TIP3    H211380   1.348   3.298   1.638  0.1147 -1.1369  1.0177
 3792TIP3   OH211381   2.296   3.003   0.277  0.8507 -0.5507  0.4055
 3792TIP3    H111382   2.392   3.002   0.272  0.8246  0.3384 -1.6228
 3792TIP3    H211383   2.268   2.999   0.185 -1.0593 -0.6705  0.9539
 3793TIP3   OH211384   5.398   4.104   3.049 -0.6331  0.3867  0.0247
 3793TIP3    H111385   5.403   4.015   3.014 -2.3540 -0.1358  0.9565
 3793TIP3    H211386   5.381   4.159   2.973 -0.2377 -0.1824 -0.4786
 3794TIP3   OH211387   1.516   0.847   3.702 -0.1995  0.0673 -0.7769
 3794TIP3    H111388   1.520   0.800   3.785 -1.0352  0.1394 -0.6953
 3794TIP3    H211389   1.554   0.933   3.721  1.1010 -0.4649 -0.8669
 3795TIP3   OH211390   1.209   0.995   0.254 -0.2498  0.2219 -0.0838
 3795TIP3    H111391   1.229   1.075   0.206  0.0018 -0.8311 -1.8032
 3795TIP3    H211392   1.116   1.003   0.277 -0.0417  1.3199  0.4475
 3796TIP3   OH211393   0.819   3.499   2.301  0.3136 -0.1114  0.5572
 3796TIP3    H111394   0.806   3.593   2.312  0.4668  0.1648 -1.2293
 3796TIP3    H211395   0.855   3.490   2.213  0.4107 -1.8458  0.7300
 3797TIP3   OH211396   5.172   5.170   2.411 -0.3126  0.4263 -0.9066
 3797TIP3    H111397   5.108   5.184   2.341 -1.3877 -1.6634 -0.4349
 3797TIP3    H211398   5.138   5.095   2.460  2.2201 -0.4037 -0.2608
 3798TIP3   OH211399   6.131   5.367   4.565 -0.0510 -0.1640 -0.0652
 3798TIP3    H111400   6.227   5.367   4.565 -0.0205 -1.0840 -1.7526
 3798TIP3    H211401   6.107   5.460   4.558  0.6682  0.1713  1.4725
 3799TIP3   OH211402   0.971   1.769   3.880  0.0920 -0.4116 -0.7125
 3799TIP3    H111403   0.972   1.862   3.859  0.1033 -0.1917  0.2382
 3799TIP3    H211404   0.967   1.725   3.795 -1.7441  0.4783 -1.1295
 3800TIP3   OH211405   5.962   0.832   0.158 -0.9285 -0.7122 -0.7570
 3800TIP3    H111406   5.895   0.807   0.222  0.5875  0.5990  1.5023
 3800TIP3    H211407   6.031   0.766   0.169 -1.1268 -1.1367 -1.9149
 3801TIP3   OH211408   5.587   2.043   4.316 -0.1060 -0.0795  0.1847
 3801TIP3    H111409   5.636   2.008   4.390 -1.1444  1.7383  1.8077
 3801TIP3    H211410   5.569   2.134   4.339 -2.0361  0.0395 -1.4857
 3802TIP3   OH211411   1.410   1.977   4.036  0.0046 -0.2668 -0.9692
 3802TIP3    H111412   1.454   1.939   4.112  1.7437  0.7982 -1.3832
 3802TIP3    H211413   1.360   1.905   3.999 -2.5923 -0.3989  2.2753
 3803TIP3   OH211414   1.633   1.948   1.050  0.1498  0.5522  0.1630
 3803TIP3    H111415   1.713   1.899   1.031  0.5248  1.4106 -0.5074
 3803TIP3    H211416   1.648   1.988   1.136  0.0247 -0.1086  0.5007
 3804TIP3   OH211417   1.662   5.107   0.482  0.2331  0.2997  0.6144
 3804TIP3    H111418   1.755   5.102   0.462 -0.0660 -2.6263 -0.5544
 3804TIP3    H211419   1.658   5.141   0.571  2.2535  2.4676 -0.0361
 3805TIP3   OH211420   4.816   5.424   2.847  0.6672  0.1458  0.3054
 3805TIP3    H111421   4.849   5.379   2.770  0.0280  2.3212 -1.3559
 3805TIP3    H211422   4.723   5.437   2.830  0.6442  1.2368  1.1007
 3806TIP3   OH211423   1.328   2.688   5.081  0.0294 -0.3069  0.5580
 3806TIP3    H111424   1.412   2.646   5.058 -0.2167 -0.9298  0.7735
 3806TIP3    H211425   1.267   2.615   5.089  0.1840 -0.1910  3.6104
 3807TIP3   OH211426   1.479   4.231   4.488  0.5216  0.2359  0.1769
 3807TIP3    H111427   1.443   4.316   4.465  0.1014 -0.0251 -0.1431
 3807TIP3    H211428   1.559   4.251   4.538  1.4120  0.8139 -1.4164
 3808TIP3   OH211429   6.034   1.321   0.358 -0.1019 -0.0971 -0.0943
 3808TIP3    H111430   6.013   1.320   0.264  1.3947 -0.9155 -0.4601
 3808TIP3    H211431   5.953   1.298   0.401 -0.5368 -0.8522 -1.2705
 3809TIP3   OH211432   2.051   5.397   2.716 -0.2997 -0.0400 -0.5458
 3809TIP3    H111433   1.960   5.404   2.744 -0.2933 -0.0159 -0.5308
 3809TIP3    H211434   2.051   5.328   2.650 -0.5822  0.9622 -1.6245
 3810TIP3   OH211435   3.156   4.306   4.670  0.1570 -0.3440 -0.3540
 3810TIP3    H111436   3.122   4.218   4.686  0.5312 -1.1946 -3.6484
 3810TIP3    H211437   3.098   4.344   4.605 -0.1750  2.0708  1.2036
 3811TIP3   OH211438   1.985   2.062   3.041  0.6231  0.4010  0.2618
 3811TIP3    H111439   1.921   2.059   3.112  1.9978  0.3774  1.5465
 3811TIP3    H211440   2.047   2.130   3.068  1.7409 -0.3283 -0.4106
 3812TIP3   OH211441   4.971   3.181   0.373 -0.5481  0.3217  0.0478
 3812TIP3    H111442   4.924   3.255   0.413 -1.3516  0.1020 -0.4583
 3812TIP3    H211443   5.062   3.209   0.369 -0.7544  1.0628  0.3694
 3813TIP3   OH211444   5.896   5.732   0.986 -0.2435  0.4207 -0.1745
 3813TIP3    H111445   5.880   5.713   1.079  0.1339 -0.1709 -0.2254
 3813TIP3    H211446   5.964   5.799   0.987  0.2545 -0.0853 -0.0347
 3814TIP3   OH211447   2.047   4.817   0.229  0.2160 -0.3883  0.9438
 3814TIP3    H111448   2.000   4.750   0.179 -0.1763  0.3102  0.3474
 3814TIP3    H211449   1.982   4.888   0.240  0.9122  0.2953  0.7194
 3815TIP3   OH211450   4.989   1.639   4.935  0.5688 -0.2752 -0.3901
 3815TIP3    H111451   5.013   1.651   5.027  0.5895 -1.5798 -0.2106
 3815TIP3    H211452   5.025   1.716   4.891 -2.1324  2.0399  1.1148
 3816TIP3   OH211453   2.939   5.365   1.518 -0.3309  0.2370 -0.1384
 3816TIP3    H111454   2.876   5.410   1.574 -2.6166 -2.3243 -0.4375
 3816TIP3    H211455   2.925   5.403   1.432 -0.9120  0.2578 -0.0430
 3817TIP3   OH211456   4.092   4.240   2.167 -0.4549 -0.2116 -0.3673
 3817TIP3    H111457   4.010   4.282   2.195 -0.3577  0.7330 -1.4499
 3817TIP3    H211458   4.102   4.264   2.075  0.0737 -1.9065 -0.7945
 3818TIP3   OH211459   5.703   0.212   1.204  0.3498  0.2131  0.1876
 3818TIP3    H111460   5.742   0.266   1.137  2.1395 -2.4083 -1.0670
 3818TIP3    H211461   5.726   0.255   1.287  2.3094  0.9882 -0.6998
 3819TIP3   OH211462   2.511   4.425   1.084 -0.2531  0.6794  0.5381
 3819TIP3    H111463   2.532   4.356   1.146 -0.1949 -0.5035 -0.7565
 3819TIP3    H211464   2.473   4.495   1.138  0.1764 -0.1342  1.9364
 3820TIP3   OH211465   0.465   2.746   1.658  0.4504  0.3833  0.1610
 3820TIP3    H111466   0.491   2.808   1.725 -1.0804  0.2903  0.8864
 3820TIP3    H211467   0.407   2.796   1.600 -1.3919 -0.4729  1.1611
 3821TIP3   OH211468   0.281   1.484   3.961 -0.0094 -0.0068 -0.8885
 3821TIP3    H111469   0.362   1.438   3.984  0.1710  0.5440 -0.3992
 3821TIP3    H211470   0.302   1.529   3.879  0.3311  0.5098 -0.5205
 3822TIP3   OH211471   0.833   3.929   0.062  0.5761  0.3758  0.2400
 3822TIP3    H111472   0.835   3.922  -0.034  0.6327  0.0374  0.2657
 3822TIP3    H211473   0.751   3.977   0.080 -0.7938 -1.7919  0.1378
 3823TIP3   OH211474   4.414   5.416   4.098 -0.0867 -0.8063  0.1097
 3823TIP3    H111475   4.387   5.384   4.012 -3.6477 -0.8012  1.1009
 3823TIP3    H211476   4.408   5.339   4.155  1.0517 -0.5367  0.6266
 3824TIP3   OH211477   3.203   3.537   3.777  0.0417  0.3470  0.2407
 3824TIP3    H111478   3.173   3.605   3.837 -0.1550  1.6822 -1.3003
 3824TIP3    H211479   3.296   3.528   3.795  0.0659  1.0164  0.4704
 3825TIP3   OH211480   2.334   2.553   2.121  0.0554  0.6130  0.1272
 3825TIP3    H111481   2.285   2.581   2.198  0.7231  0.4678  0.6171
 3825TIP3    H211482   2.365   2.465   2.142 -1.0637 -0.0615 -0.9475
 3826TIP3   OH211483   0.452   4.780  -0.000 -0.2988 -0.2224 -0.1106
 3826TIP3    H111484   0.431   4.746   0.087 -0.0558  0.8789  0.3945
 3826TIP3    H211485   0.409   4.866  -0.003  1.1328  0.5010 -0.4205
 3827TIP3   OH211486   2.137   1.885   1.962 -0.8056  0.3570  0.1139
 3827TIP3    H111487   2.161   1.892   2.055 -0.2905 -0.9828  0.0950
 3827TIP3    H211488   2.042   1.878   1.963 -0.7977  0.2588  0.5531
 3828TIP3   OH211489   3.477   3.179   0.031  0.3559  0.6561 -0.6060
 3828TIP3    H111490   3.503   3.260   0.075 -0.7608  0.9521 -0.4824
 3828TIP3    H211491   3.384   3.189   0.015  0.5281  0.0990 -2.0998
 3829TIP3   OH211492   5.389   0.604   0.214  0.2868  0.6272 -0.2495
 3829TIP3    H111493   5.346   0.531   0.259 -1.2271  0.8044 -1.3587
 3829TIP3    H211494   5.420   0.566   0.132  2.2303  0.5304  0.4703
 3830TIP3   OH211495   4.579   2.622   3.794  0.2580 -0.2715 -0.0216
 3830TIP3    H111496   4.527   2.641   3.715 -0.3928  0.4017  0.5531
 3830TIP3    H211497   4.515   2.617   3.864  0.6601 -2.4763  0.2386
 3831TIP3   OH211498   4.889   0.183   1.309  0.5968 -0.4623  0.5875
 3831TIP3    H111499   4.819   0.236   1.346  0.8395 -0.2617  0.7598
 3831TIP3    H211500   4.968   0.215   1.351  0.5959 -1.9409  1.8146
 3832TIP3   OH211501   6.159   0.664   3.800 -0.1630 -0.3693  0.4360
 3832TIP3    H111502   6.167   0.750   3.841  1.0192 -0.4696  0.4402
 3832TIP3    H211503   6.091   0.675   3.733 -1.5503 -0.0034  1.8469
 3833TIP3   OH211504   4.510   3.588   2.671  0.2035  0.3229  0.1213
 3833TIP3    H111505   4.564   3.656   2.629 -1.7356  1.3460 -0.8123
 3833TIP3    H211506   4.487   3.626   2.756  0.8899 -0.1037  0.5081
 3834TIP3   OH211507   3.495   1.518   4.208  0.3197 -0.2310  0.5616
 3834TIP3    H111508   3.484   1.566   4.290 -0.9616 -0.7896  0.7456
 3834TIP3    H211509   3.488   1.426   4.233  0.0953 -0.4137 -0.1543
 3835TIP3   OH211510   3.298   5.669   3.810 -0.3274  0.5813  0.5085
 3835TIP3    H111511   3.325   5.739   3.869  2.1754  0.4189 -0.3272
 3835TIP3    H211512   3.258   5.604   3.867  1.5851  0.6448  2.0152
 3836TIP3   OH211513   3.712   0.330   4.598 -0.0361 -0.6318 -0.4502
 3836TIP3    H111514   3.635   0.338   4.543 -0.3732  2.8070  0.2842
 3836TIP3    H211515   3.690   0.379   4.678  2.0555 -1.5830  0.7978
 3837TIP3   OH211516   5.091   0.802   1.108  0.0837  0.0949  0.3416
 3837TIP3    H111517   5.060   0.877   1.159 -1.3261 -0.5686  0.5150
 3837TIP3    H211518   5.168   0.835   1.062 -0.6214  1.7158  0.2436
 3838TIP3   OH211519   5.130   4.032   4.994 -0.6294 -0.1515 -0.1764
 3838TIP3    H111520   5.103   3.950   4.953  0.3662  0.0197 -1.2334
 3838TIP3    H211521   5.223   4.021   5.011 -0.6958  0.3903  0.6065
 3839TIP3   OH211522   6.069   0.175   0.485 -0.0709  0.4311  0.1524
 3839TIP3    H111523   6.000   0.235   0.515 -1.9553 -1.4307 -0.2593
 3839TIP3    H211524   6.143   0.194   0.543 -1.5071  1.2714  1.8238
 3840TIP3   OH211525   0.369   0.566   0.901  0.1257 -0.3741  0.3753
 3840TIP3    H111526   0.346   0.478   0.931 -1.0166  0.1862  1.2089
 3840TIP3    H211527   0.316   0.580   0.823  0.6144 -0.5701  0.0026
 3841TIP3   OH211528   1.126   4.587   1.606 -0.1169  0.4377  0.5642
 3841TIP3    H111529   1.061   4.654   1.583  0.4689  1.1377  0.9284
 3841TIP3    H211530   1.210   4.629   1.590  0.2693  0.1275  1.7335
 3842TIP3   OH211531   1.151   2.519   1.504  0.1442 -0.0168 -0.1281
 3842TIP3    H111532   1.094   2.546   1.576 -0.4047 -1.4582  0.0134
 3842TIP3    H211533   1.239   2.528   1.538 -0.0708  0.3598  0.3390
 3843TIP3   OH211534   4.377   5.127   4.195  0.1140 -0.3463 -0.2953
 3843TIP3    H111535   4.306   5.163   4.249  0.6004  0.8500 -0.4211
 3843TIP3    H211536   4.339   5.116   4.108  0.1181  0.4721 -0.4094
 3844TIP3   OH211537   0.420   1.147   4.673  0.5298 -0.7789  0.7279
 3844TIP3    H111538   0.441   1.075   4.614  1.4541 -1.9706  2.4281
 3844TIP3    H211539   0.336   1.123   4.713 -0.0711 -0.0016 -0.0420
 3845TIP3   OH211540   1.643   1.291   0.831  0.5173  0.2536 -0.3384
 3845TIP3    H111541   1.590   1.296   0.751 -0.9395 -1.0509  0.4825
 3845TIP3    H211542   1.587   1.330   0.899  2.0956  2.1884 -0.0728
 3846TIP3   OH211543   4.475   1.876   3.105  0.7633  0.1740 -0.4939
 3846TIP3    H111544   4.551   1.891   3.161  0.7252  0.5728 -0.5457
 3846TIP3    H211545   4.497   1.918   3.022  0.2306  0.8418 -0.3058
 3847TIP3   OH211546   2.225   2.256   4.812 -0.4824  0.2688 -0.5638
 3847TIP3    H111547   2.136   2.234   4.785  0.1737  0.3008 -2.9238
 3847TIP3    H211548   2.274   2.175   4.802  0.1347  0.6960 -1.0873
 3848TIP3   OH211549   3.616   3.115   3.744 -0.1378  0.5266  0.0574
 3848TIP3    H111550   3.638   3.026   3.773  0.1967  0.7190  0.3974
 3848TIP3    H211551   3.522   3.111   3.725  0.0640 -0.1459 -0.8528
 3849TIP3   OH211552   3.755   1.495   4.855  0.3293 -0.4857 -0.0065
 3849TIP3    H111553   3.715   1.492   4.942 -0.0298  0.2175 -0.1408
 3849TIP3    H211554   3.783   1.586   4.845 -1.4066 -0.0376 -1.3851
 3850TIP3   OH211555   2.575   1.099   4.229 -0.1117 -0.7216 -0.6062
 3850TIP3    H111556   2.498   1.135   4.272  1.3492  2.1285 -0.1156
 3850TIP3    H211557   2.545   1.075   4.141 -1.8334 -0.9233  0.0211
 3851TIP3   OH211558   2.285   0.742   0.235 -0.2551 -0.0050  0.5078
 3851TIP3    H111559   2.240   0.793   0.167  1.0275  0.2429 -0.1954
 3851TIP3    H211560   2.220   0.733   0.305 -0.3239  3.3761  1.0793
 3852TIP3   OH211561   6.311   1.724   0.987 -0.2074  0.8982 -0.3666
 3852TIP3    H111562   6.342   1.642   1.026 -1.0801 -0.2020 -1.8590
 3852TIP3    H211563   6.267   1.770   1.059  0.3762  0.1021  0.5208
 3853TIP3   OH211564   0.859   4.075   1.621  0.1085  0.2798 -0.2622
 3853TIP3    H111565   0.931   4.048   1.564 -0.7143 -1.4803 -0.5226
 3853TIP3    H211566   0.895   4.069   1.710 -0.3164 -2.8959 -0.2053
 3854TIP3   OH211567   6.089   1.921   0.288 -0.6792  0.0934 -0.1391
 3854TIP3    H111568   6.075   1.931   0.382  2.6527 -2.8754  0.8571
 3854TIP3    H211569   6.163   1.861   0.280 -1.7917 -1.0938 -4.7109
 3855TIP3   OH211570   6.341   1.796   1.654 -0.6864  0.4000 -0.3847
 3855TIP3    H111571   6.253   1.803   1.619 -1.5750  0.1748  1.6301
 3855TIP3    H211572   6.341   1.855   1.730 -0.2316 -2.0949  1.6846
 3856TIP3   OH211573   3.423   0.936   1.997  0.2661 -0.6378  0.3023
 3856TIP3    H111574   3.346   0.934   2.054 -0.0003 -0.7905 -0.0528
 3856TIP3    H211575   3.468   0.853   2.014 -0.5717 -1.3400 -0.7110
 3857TIP3   OH211576   2.376   4.066   2.338  0.4784  0.2164 -0.4809
 3857TIP3    H111577   2.446   4.053   2.274  0.5393  0.3596 -0.4419
 3857TIP3    H211578   2.368   4.161   2.347 -0.1985  0.2236 -1.0229
 3858TIP3   OH211579   5.153   2.745   3.987 -0.3335 -0.3557 -0.1880
 3858TIP3    H111580   5.160   2.651   4.009 -0.7080 -0.6312 -1.2064
 3858TIP3    H211581   5.224   2.786   4.037 -1.0219 -0.9776  1.3682
 3859TIP3   OH211582   4.855   3.657   4.755  0.9384 -0.0162 -0.4601
 3859TIP3    H111583   4.853   3.567   4.723  1.8590 -0.7246  1.3077
 3859TIP3    H211584   4.771   3.668   4.800  1.4063 -0.5338  0.5865
 3860TIP3   OH211585   6.315   4.602   0.199 -0.0689 -0.1938  0.3766
 3860TIP3    H111586   6.300   4.695   0.185 -0.8826 -0.4015 -0.2495
 3860TIP3    H211587   6.378   4.577   0.132 -0.0699 -0.1485  0.3592
 3861TIP3   OH211588   6.154   0.644   0.881 -0.2597  0.8260  0.3605
 3861TIP3    H111589   6.240   0.602   0.879 -0.8998 -0.6653  1.5676
 3861TIP3    H211590   6.163   0.721   0.824  1.0036 -0.8909 -1.9125
 3862TIP3   OH211591   0.692   5.759   2.337  0.4064 -0.3363  0.0634
 3862TIP3    H111592   0.659   5.765   2.247  0.0524 -1.1257  0.1274
 3862TIP3    H211593   0.744   5.679   2.337 -1.9563 -1.9961  1.2600
 3863TIP3   OH211594   3.733   0.955   5.069  0.5403  0.1851  0.1532
 3863TIP3    H111595   3.765   0.954   4.978  0.2525  1.3719  0.0243
 3863TIP3    H211596   3.721   0.862   5.091  2.3475 -0.2203 -0.3985
 3864TIP3   OH211597   1.137   2.354   1.291 -0.0756  0.0025  0.5019
 3864TIP3    H111598   1.075   2.385   1.225 -0.3394  0.5248  0.9997
 3864TIP3    H211599   1.149   2.428   1.350  1.5144  0.1348  0.0550
 3865TIP3   OH211600   1.984   0.453   1.470  0.5283 -0.1762 -0.0306
 3865TIP3    H111601   2.001   0.364   1.442  0.7549 -0.3058  0.5067
 3865TIP3    H211602   1.978   0.448   1.566  1.6668  0.5553  0.1085
 3866TIP3   OH211603   4.708   0.164   2.738 -0.4608  0.4285  0.6522
 3866TIP3    H111604   4.772   0.144   2.806  0.7061 -0.6443 -0.7039
 3866TIP3    H211605   4.648   0.089   2.739 -0.4408  0.4117  0.4799
 3867TIP3   OH211606   0.748   1.278   1.575  0.2988  0.2834  0.1531
 3867TIP3    H111607   0.716   1.189   1.579 -0.1865  0.3704 -1.4393
 3867TIP3    H211608   0.695   1.326   1.639  0.0833 -0.4162  0.5016
 3868TIP3   OH211609   5.804   2.031   4.512 -0.4123 -0.8647 -0.2336
 3868TIP3    H111610   5.796   1.943   4.548 -0.7954 -1.2599 -1.2348
 3868TIP3    H211611   5.868   2.022   4.441  0.7595  0.0081  0.6792
 3869TIP3   OH211612   5.441   1.979   3.425 -0.4152  0.0300 -0.0351
 3869TIP3    H111613   5.346   1.988   3.415 -0.3275  0.8362 -0.2389
 3869TIP3    H211614   5.469   1.937   3.344 -0.2938  2.2260 -1.2103
 3870TIP3   OH211615   3.369   3.298   1.801 -0.0267 -0.0146  0.2976
 3870TIP3    H111616   3.366   3.203   1.813 -0.2787 -0.2143 -1.1650
 3870TIP3    H211617   3.408   3.331   1.882 -0.1086 -1.3410  0.9073
 3871TIP3   OH211618   2.112   3.757   1.718  0.4165 -0.1146  0.0366
 3871TIP3    H111619   2.151   3.670   1.721 -1.2473 -0.9769 -1.5034
 3871TIP3    H211620   2.138   3.793   1.634  0.2213  0.4410  0.2063
 3872TIP3   OH211621   3.993   5.433   2.960 -0.6039 -0.0487  0.8504
 3872TIP3    H111622   4.079   5.397   2.937  0.2449  2.6455 -0.6174
 3872TIP3    H211623   3.984   5.416   3.054  1.3610 -0.6975  0.9740
 3873TIP3   OH211624   2.183   1.597   4.744 -0.2517  0.0946 -0.0303
 3873TIP3    H111625   2.116   1.553   4.692 -0.9901  1.1740 -0.0235
 3873TIP3    H211626   2.223   1.527   4.795 -0.8780 -0.6790 -0.5751
 3874TIP3   OH211627   5.489   5.394   0.241 -0.0365 -0.0310  0.2943
 3874TIP3    H111628   5.401   5.403   0.204 -0.1091 -0.0019  0.4773
 3874TIP3    H211629   5.548   5.408   0.166 -0.0584  3.5122  0.7704
 3875TIP3   OH211630   4.164   0.874   2.142  0.0325 -0.3443 -0.5396
 3875TIP3    H111631   4.218   0.853   2.066 -0.7107 -0.1670 -1.1404
 3875TIP3    H211632   4.107   0.945   2.111 -0.0903 -0.0731  0.2759
 3876TIP3   OH211633   6.216   4.327   4.074  0.6014 -0.3375 -0.1914
 3876TIP3    H111634   6.199   4.300   3.984  0.1355 -0.4966 -0.0592
 3876TIP3    H211635   6.290   4.273   4.102  0.0883 -1.0311 -0.1417
 3877TIP3   OH211636   3.832   1.631   2.305 -0.0438 -0.2226  0.7281
 3877TIP3    H111637   3.831   1.716   2.349 -1.8353 -0.6398  1.6011
 3877TIP3    H211638   3.755   1.586   2.339  0.4196 -1.8961 -0.3245
 3878TIP3   OH211639   5.789   0.881   0.976 -0.3844  0.5413 -0.2231
 3878TIP3    H111640   5.736   0.932   0.914  0.1565  0.3423 -0.8638
 3878TIP3    H211641   5.854   0.943   1.008 -0.4718  0.5642 -0.0911
 3879TIP3   OH211642   5.342   3.829   2.589  0.8324 -0.0313 -0.1937
 3879TIP3    H111643   5.406   3.893   2.555 -0.5237  0.0916 -2.7748
 3879TIP3    H211644   5.378   3.744   2.563 -0.2577  0.0670 -2.3034
 3880TIP3   OH211645   2.329   5.715   3.802  0.5072  0.0665  0.1507
 3880TIP3    H111646   2.391   5.679   3.866  0.9347 -0.5364 -0.5783
 3880TIP3    H211647   2.384   5.743   3.729 -0.0874 -0.7120 -0.6140
 3881TIP3   OH211648   2.290   2.311   2.750  0.1687 -0.3974 -0.0392
 3881TIP3    H111649   2.213   2.361   2.722  0.6913  0.0817 -0.6680
 3881TIP3    H211650   2.363   2.350   2.701  0.9972 -0.0962  1.3768
 3882TIP3   OH211651   0.744   2.967   3.166 -0.6216  1.1021 -0.3700
 3882TIP3    H111652   0.737   2.872   3.161  2.6719  0.5109  2.6700
 3882TIP3    H211653   0.808   2.990   3.097 -0.5322  0.9602 -0.3340
 3883TIP3   OH211654   1.241   2.101   0.414 -0.4628  0.3808 -0.9607
 3883TIP3    H111655   1.232   2.128   0.505  1.8788 -0.4685 -0.3955
 3883TIP3    H211656   1.172   2.037   0.400  0.0228 -0.5530  0.7070
 3884TIP3   OH211657   0.187   1.448   1.897 -0.0717  0.3829  0.3661
 3884TIP3    H111658   0.238   1.406   1.967  1.1427  0.7020 -0.2875
 3884TIP3    H211659   0.249   1.508   1.856 -1.0736  0.9829 -0.3015
 3885TIP3   OH211660   4.489   1.128   2.981 -0.5724 -0.2253  0.1694
 3885TIP3    H111661   4.469   1.062   2.914 -0.6192 -0.3134  0.2696
 3885TIP3    H211662   4.553   1.085   3.038  0.4984  0.3181 -0.5864
 3886TIP3   OH211663   5.629   2.899   1.607 -0.2431 -0.3983 -0.1779
 3886TIP3    H111664   5.690   2.970   1.585 -1.2679  0.8582  0.8667
 3886TIP3    H211665   5.633   2.893   1.702 -2.1143  0.0662 -0.0433
 3887TIP3   OH211666   0.327   5.560   0.079 -0.3741  0.0816  0.3674
 3887TIP3    H111667   0.365   5.611   0.008 -0.6815  0.2891  0.3489
 3887TIP3    H211668   0.322   5.622   0.152  0.6070 -0.3234  0.7939
 3888TIP3   OH211669   0.576   3.544   1.088 -0.5191 -0.4276 -0.8117
 3888TIP3    H111670   0.656   3.540   1.139 -1.4613 -0.8626  0.6881
 3888TIP3    H211671   0.592   3.613   1.024 -0.2115  1.9701  1.7042
 3889TIP3   OH211672   2.055   1.191   4.280  0.1696  0.0240  0.3408
 3889TIP3    H111673   2.116   1.141   4.336  3.9730  0.0031 -3.3226
 3889TIP3    H211674   1.990   1.126   4.253 -0.1162 -0.6367  2.3858
 3890TIP3   OH211675   3.257   5.382   4.614 -0.5620  0.3052  0.4546
 3890TIP3    H111676   3.218   5.385   4.526  1.6510  1.0666 -0.5719
 3890TIP3    H211677   3.231   5.465   4.654 -1.0740  0.2272  0.2948
 3891TIP3   OH211678   5.151   4.052   3.307  0.0669  0.5127 -0.2162
 3891TIP3    H111679   5.080   4.071   3.369 -0.5221  1.0688 -1.0314
 3891TIP3    H211680   5.106   4.015   3.231  0.6995  0.4925 -0.5816
 3892TIP3   OH211681   1.237   5.183   1.256  0.3113 -0.5806  0.2349
 3892TIP3    H111682   1.288   5.123   1.311 -2.2504 -2.7802  0.4432
 3892TIP3    H211683   1.241   5.144   1.169 -1.4039 -1.1606  0.3757
 3893TIP3   OH211684   4.920   4.979   5.170 -0.0786  0.3048  0.5680
 3893TIP3    H111685   4.878   5.063   5.151 -1.0747  0.6132  3.5559
 3893TIP3    H211686   4.992   5.001   5.230  1.1036 -0.7897 -0.3903
 3894TIP3   OH211687   1.216   5.355   4.730 -0.4868 -0.6434  0.1565
 3894TIP3    H111688   1.224   5.379   4.638 -1.7351  0.5112  0.3160
 3894TIP3    H211689   1.251   5.431   4.778 -1.4308 -0.5009  0.6420
 3895TIP3   OH211690   2.163   4.833   4.871  0.1013  0.0433  0.0630
 3895TIP3    H111691   2.097   4.879   4.922 -0.5785  1.2496 -1.7798
 3895TIP3    H211692   2.244   4.881   4.887  0.2044 -0.4765  1.1162
 3896TIP3   OH211693   0.695   0.339   0.737 -0.1249  0.1715  0.1498
 3896TIP3    H111694   0.672   0.332   0.644 -2.4747 -0.9653  0.7164
 3896TIP3    H211695   0.789   0.356   0.738 -0.1392  0.8057 -2.4368
 3897TIP3   OH211696   4.622   1.379   4.515 -0.3931  0.3356 -0.4352
 3897TIP3    H111697   4.566   1.316   4.560 -1.3466  1.6323  0.2516
 3897TIP3    H211698   4.660   1.329   4.442 -0.1342 -1.3486  0.7954
 3898TIP3   OH211699   4.368   0.458   1.392  0.7129  0.7120 -0.0597
 3898TIP3    H111700   4.433   0.463   1.323  0.1078 -0.4008 -0.7486
 3898TIP3    H211701   4.371   0.544   1.435  0.8184  1.5745 -1.7252
 3899TIP3   OH211702   2.856   5.089   1.569  0.4202 -0.5846 -0.2820
 3899TIP3    H111703   2.872   5.181   1.550 -0.7106 -0.2610  0.2815
 3899TIP3    H211704   2.862   5.082   1.664  1.3904 -1.2915 -0.3644
 3900TIP3   OH211705   4.632   5.050   1.351  0.1069  0.4018  0.5115
 3900TIP3    H111706   4.623   5.100   1.271 -0.8658 -1.3438 -0.5319
 3900TIP3    H211707   4.542   5.034   1.380  0.3940 -0.5375  0.9214
 3901TIP3   OH211708   5.053   5.960   0.573 -0.6863  0.1826  0.0594
 3901TIP3    H111709   5.084   5.869   0.570  1.4504  0.8397  0.5893
 3901TIP3    H211710   5.129   6.011   0.600 -1.8712  2.1436 -0.0722
 3902TIP3   OH211711   1.846   3.988   1.921 -0.4053 -0.0812 -0.6009
 3902TIP3    H111712   1.922   3.978   1.978 -0.8824  1.3065  0.3446
 3902TIP3    H211713   1.781   3.927   1.957 -0.9475  1.2644  0.8635
 3903TIP3   OH211714   5.069   4.377   3.689  0.1135  0.4000 -0.2637
 3903TIP3    H111715   5.055   4.460   3.735  0.7063  0.1655  0.3529
 3903TIP3    H211716   5.144   4.338   3.733 -0.0897 -0.4142 -0.6287
 3904TIP3   OH211717   1.058   3.963   2.126  0.2699  0.2369  0.6341
 3904TIP3    H111718   0.965   3.941   2.132  0.2241  0.7307  2.3734
 3904TIP3    H211719   1.063   4.054   2.155  1.2001  0.5428 -0.3907
 3905TIP3   OH211720   3.011   5.438   0.543  0.5043  0.2413  0.4258
 3905TIP3    H111721   3.099   5.473   0.530  0.9636 -1.5431 -1.9024
 3905TIP3    H211722   2.959   5.474   0.471 -0.4970  0.6076  1.2929
 3906TIP3   OH211723   6.177   4.232   2.146 -0.2757  0.5233 -0.1711
 3906TIP3    H111724   6.092   4.249   2.185  0.9191  2.8891  1.6354
 3906TIP3    H211725   6.192   4.305   2.087  0.5447  0.1812 -0.4066
 3907TIP3   OH211726   1.291   5.139   3.043  0.1840 -0.1932  0.0333
 3907TIP3    H111727   1.351   5.192   3.096 -0.8855 -0.5149  1.6139
 3907TIP3    H211728   1.349   5.089   2.985  1.4797 -0.5181  1.5376
 3908TIP3   OH211729   3.192   3.668   5.205  0.3155  0.1424  0.1810
 3908TIP3    H111730   3.176   3.762   5.196 -0.2970 -0.0180 -0.6017
 3908TIP3    H211731   3.144   3.629   5.131  0.7146 -0.7652  0.3893
 3909TIP3   OH211732   5.516   3.341   4.860  0.0688  0.1226  0.0813
 3909TIP3    H111733   5.578   3.280   4.821 -0.7046 -0.1931 -0.7039
 3909TIP3    H211734   5.459   3.286   4.914  0.4214  0.4020  0.7561
 3910TIP3   OH211735   6.318   2.254   1.932 -0.8250  0.0685  0.7323
 3910TIP3    H111736   6.381   2.184   1.918 -1.6055 -0.3356 -1.0017
 3910TIP3    H211737   6.333   2.282   2.022 -0.3822 -2.2225  1.4286
 3911TIP3   OH211738   0.793   3.325   3.756  0.9339  0.4009 -0.3079
 3911TIP3    H111739   0.727   3.259   3.735  0.9538  0.7343 -1.5004
 3911TIP3    H211740   0.873   3.292   3.717  1.1870  0.6077  0.0326
 3912TIP3   OH211741   3.338   4.192   1.511  0.5125  0.0247 -0.1329
 3912TIP3    H111742   3.301   4.239   1.586 -1.3474 -2.9828  0.9960
 3912TIP3    H211743   3.264   4.146   1.472  2.1553 -1.8870 -1.2019
 3913TIP3   OH211744   4.609   1.454   0.579 -0.6595  0.0849  0.1784
 3913TIP3    H111745   4.626   1.540   0.618  0.4408 -0.3268  0.6700
 3913TIP3    H211746   4.587   1.398   0.654 -1.1387 -0.1125 -0.1110
 3914TIP3   OH211747   2.947   5.953   4.313 -0.2967  0.2623  0.5876
 3914TIP3    H111748   2.856   5.943   4.343 -0.3997 -0.4700  0.0583
 3914TIP3    H211749   2.951   5.902   4.232  0.7384 -0.1730  0.9008
 3915TIP3   OH211750   5.286   1.383   4.899 -0.6192  0.1482  0.1824
 3915TIP3    H111751   5.206   1.367   4.849 -0.4936 -0.0567  0.0431
 3915TIP3    H211752   5.356   1.371   4.835 -0.2868 -2.7179  0.9485
 3916TIP3   OH211753   1.107   2.888   4.605 -0.3703  0.4550 -0.0927
 3916TIP3    H111754   1.118   2.855   4.516  1.9751  0.2169  0.2193
 3916TIP3    H211755   1.150   2.973   4.604 -0.0801  0.3307  0.8612
 3917TIP3   OH211756   5.307   3.498   3.885 -0.0991  0.1467  0.5678
 3917TIP3    H111757   5.244   3.426   3.887 -0.0296  0.0828  0.4273
 3917TIP3    H211758   5.377   3.467   3.828 -0.5508  0.7222 -0.3254
 3918TIP3   OH211759   3.533   3.402   4.749  1.3158  0.2808  0.3754
 3918TIP3    H111760   3.542   3.313   4.714  0.8349  0.8059 -1.1412
 3918TIP3    H211761   3.493   3.389   4.835 -1.5525 -0.8587 -0.9940
 3919TIP3   OH211762   2.034   0.197   1.368 -0.1899 -0.3459  0.4325
 3919TIP3    H111763   2.070   0.212   1.455 -0.7355 -0.0362  0.6094
 3919TIP3    H211764   1.972   0.125   1.379  0.7166 -1.2319  0.0293
 3920TIP3   OH211765   2.258   0.019   1.351  0.1267 -0.1418  0.2183
 3920TIP3    H111766   2.227  -0.012   1.436  0.6095  1.6500  1.0905
 3920TIP3    H211767   2.204   0.095   1.332  0.3974 -0.1953 -0.8416
 3921TIP3   OH211768   4.815   5.353   1.929 -0.1440  0.1154 -0.1346
 3921TIP3    H111769   4.816   5.320   1.839 -1.3910 -0.8562  0.1890
 3921TIP3    H211770   4.877   5.298   1.975  1.1922  1.1976 -0.5576
 3922TIP3   OH211771   5.931   3.685   4.022 -0.5264  0.4864  0.1408
 3922TIP3    H111772   6.015   3.690   4.068 -0.6032  2.8884  0.1371
 3922TIP3    H211773   5.873   3.743   4.072 -1.6586  0.2715 -0.8827
 3923TIP3   OH211774   2.722   2.145   5.078  0.3018  0.5635 -0.5089
 3923TIP3    H111775   2.797   2.117   5.026 -0.2182 -1.2300 -0.3589
 3923TIP3    H211776   2.736   2.238   5.092  3.8361 -0.1010  1.5899
 3924TIP3   OH211777   0.479   0.016   2.848  0.7696  0.0122  0.1841
 3924TIP3    H111778   0.473   0.092   2.790  0.3154 -1.2499 -1.5060
 3924TIP3    H211779   0.397   0.017   2.897  0.4198  0.1426 -0.4068
 3925TIP3   OH211780   4.052   1.479   0.934  0.2262  0.1988  0.2287
 3925TIP3    H111781   4.042   1.556   0.990  2.4572  1.4786 -0.9587
 3925TIP3    H211782   4.055   1.405   0.995  0.1390  1.2713  1.5955
 3926TIP3   OH211783   4.300   1.894   3.728 -0.4724 -0.4726  0.2954
 3926TIP3    H111784   4.212   1.929   3.741  0.6643  2.3066  1.3596
 3926TIP3    H211785   4.336   1.944   3.654  0.6661 -0.5525  0.7636
 3927TIP3   OH211786   3.957   1.333   0.736 -0.5301  0.0986 -0.5883
 3927TIP3    H111787   3.983   1.364   0.823 -0.4259 -0.7912 -0.2906
 3927TIP3    H211788   3.979   1.406   0.678  0.3374  0.3295 -0.0044
 3928TIP3   OH211789   2.864   2.350   2.484 -0.2062  0.3749 -0.1416
 3928TIP3    H111790   2.778   2.314   2.504 -0.5247  0.8120 -0.7099
 3928TIP3    H211791   2.918   2.326   2.559 -0.9793  0.6414  0.5085
 3929TIP3   OH211792   4.491   3.773   3.619 -0.7057 -0.0883  0.0480
 3929TIP3    H111793   4.397   3.776   3.603 -0.6735 -0.2487 -0.1717
 3929TIP3    H211794   4.529   3.820   3.545 -0.5171 -1.3469 -0.6811
 3930TIP3   OH211795   3.418   2.437   0.519  0.1297  0.1824 -0.3228
 3930TIP3    H111796   3.513   2.448   0.511  0.2416 -1.2386 -1.2721
 3930TIP3    H211797   3.381   2.518   0.485  0.9869  0.0745 -1.5575
 3931TIP3   OH211798   0.419   5.697   0.553 -0.1922  0.4097  0.1227
 3931TIP3    H111799   0.348   5.641   0.584 -0.5680  0.8325  0.0395
 3931TIP3    H211800   0.444   5.750   0.629  1.9795 -1.6691  0.9876
 3932TIP3   OH211801   4.360   0.029   4.225 -0.1411 -0.6146 -0.2922
 3932TIP3    H111802   4.439   0.013   4.173  0.9609  0.2144  1.0581
 3932TIP3    H211803   4.393   0.056   4.311 -1.9105 -1.8128  0.8104
 3933TIP3   OH211804   0.798   0.780   1.802  0.6469  0.1124 -0.0869
 3933TIP3    H111805   0.843   0.707   1.844 -0.4837 -0.5062  0.0938
 3933TIP3    H211806   0.830   0.780   1.712  1.7981  0.3694  0.3137
 3934TIP3   OH211807   4.019   0.790   1.503  0.3514 -0.3591  0.2182
 3934TIP3    H111808   4.036   0.700   1.476 -2.2020 -1.0614  0.7265
 3934TIP3    H211809   4.106   0.830   1.508  1.4881 -2.5289 -0.8426
 3935TIP3   OH211810   4.646   2.852   1.709 -0.5865  0.2376  0.4485
 3935TIP3    H111811   4.601   2.824   1.630 -0.7906 -0.9839  0.9733
 3935TIP3    H211812   4.736   2.870   1.681 -1.1271  1.7856 -0.4188
 3936TIP3   OH211813   4.521   5.903   0.570 -0.2539 -0.0689  0.5164
 3936TIP3    H111814   4.537   5.981   0.517  0.8174 -0.2798  0.4962
 3936TIP3    H211815   4.602   5.853   0.563  0.1019  0.0862  2.6825
 3937TIP3   OH211816   0.949   0.295   1.840  0.2315  0.0424  0.1447
 3937TIP3    H111817   0.927   0.310   1.932  2.0968  0.3372  0.5792
 3937TIP3    H211818   0.980   0.380   1.808 -2.0330  0.4278 -1.3170
 3938TIP3   OH211819   5.214   2.575   4.681  0.3416  0.8411  0.0441
 3938TIP3    H111820   5.237   2.485   4.702  0.1099  0.6676 -0.4308
 3938TIP3    H211821   5.218   2.621   4.764 -0.9453  0.0886  0.5535
 3939TIP3   OH211822   0.766   2.841   4.957  0.2019 -0.2719 -0.5916
 3939TIP3    H111823   0.729   2.897   4.889 -0.5279  0.8269  0.6821
 3939TIP3    H211824   0.692   2.819   5.014  0.9627 -0.4022  0.3736
 3940TIP3   OH211825   5.692   0.408   4.150 -0.4179  0.0582  0.6603
 3940TIP3    H111826   5.679   0.416   4.056  0.4236  0.1364  0.5427
 3940TIP3    H211827   5.740   0.326   4.161  0.8496  0.7911  0.8670
 3941TIP3   OH211828   0.267   4.755   3.027 -0.3498 -0.0093  0.4662
 3941TIP3    H111829   0.323   4.831   3.008  1.6087 -1.3605  0.6148
 3941TIP3    H211830   0.205   4.788   3.092  1.5853  1.0404  1.8931
 3942TIP3   OH211831   6.052   2.249   3.377 -0.0554 -0.0000 -0.2712
 3942TIP3    H111832   6.069   2.204   3.459 -0.1678  0.1674 -0.1552
 3942TIP3    H211833   5.957   2.247   3.368 -0.1205  0.8460  0.1000
 3943TIP3   OH211834   5.406   5.052   2.046 -0.2606  0.3178  0.1735
 3943TIP3    H111835   5.481   5.107   2.023 -0.0198 -0.1217 -0.1128
 3943TIP3    H211836   5.439   4.962   2.040 -1.5627 -0.0685 -2.8538
 3944TIP3   OH211837   5.476   1.399   4.689 -0.7301 -0.2463  0.7214
 3944TIP3    H111838   5.510   1.336   4.626  0.8777  2.0537 -0.8462
 3944TIP3    H211839   5.414   1.452   4.639  0.0296  1.1657  1.2342
 3945TIP3   OH211840   3.122   0.754   0.048  0.0769 -0.1698 -0.1082
 3945TIP3    H111841   3.151   0.774  -0.040  0.4826 -1.7703 -0.3655
 3945TIP3    H211842   3.115   0.658   0.050 -2.2579 -0.0596  0.8503
 3946TIP3   OH211843   4.554   1.612   4.104  0.1849 -0.1156 -0.7835
 3946TIP3    H111844   4.585   1.613   4.195 -0.8895  0.9144 -0.4002
 3946TIP3    H211845   4.529   1.703   4.086  0.9952 -0.1650 -2.3400
 3947TIP3   OH211846   4.077   0.923   3.452  0.3798 -0.4205  0.1419
 3947TIP3    H111847   4.083   0.840   3.498  2.2506  0.1514  1.0392
 3947TIP3    H211848   4.052   0.900   3.363 -1.6251 -1.6957  0.9768
 3948TIP3   OH211849   2.715   3.202   3.880 -0.4671 -0.7234 -0.0034
 3948TIP3    H111850   2.805   3.184   3.907 -0.3090 -2.0487 -1.2811
 3948TIP3    H211851   2.722   3.226   3.787 -1.4771 -1.3626 -0.2580
 3949TIP3   OH211852   0.838   1.132   2.860 -0.3514  0.4586 -0.0360
 3949TIP3    H111853   0.861   1.064   2.797  2.2926 -1.6510  2.9329
 3949TIP3    H211854   0.771   1.091   2.915  2.0941 -0.4014  2.5058
 3950TIP3   OH211855   1.092   3.536   1.691 -0.5572 -0.0027  0.2523
 3950TIP3    H111856   1.065   3.627   1.705 -1.4809 -0.4609  1.6125
 3950TIP3    H211857   1.185   3.542   1.669 -0.8042  1.3206 -0.5453
 3951TIP3   OH211858   2.632   4.628   0.486  0.0645  0.7876 -0.2869
 3951TIP3    H111859   2.715   4.582   0.499 -0.2489  0.0770 -0.7151
 3951TIP3    H211860   2.628   4.691   0.557  0.4930  0.1200  0.3432
 3952TIP3   OH211861   4.191   5.190   3.468 -0.7940  0.6982 -0.0850
 3952TIP3    H111862   4.276   5.179   3.425 -1.7887  0.8574 -2.2553
 3952TIP3    H211863   4.170   5.103   3.503 -0.6509  0.1210 -1.3842
 3953TIP3   OH211864   2.683   0.462   3.993  0.5275  0.0154 -0.5724
 3953TIP3    H111865   2.643   0.543   3.963 -0.7939 -0.5567 -0.3857
 3953TIP3    H211866   2.645   0.446   4.079  1.5525 -0.2789 -0.1512
 3954TIP3   OH211867   6.098   5.033   1.177  0.5170  0.6237 -0.0400
 3954TIP3    H111868   6.078   5.087   1.100  1.3286  2.7305  1.1371
 3954TIP3    H211869   6.192   5.018   1.171  0.2759 -0.8321 -0.4179
 3955TIP3   OH211870   1.008   1.915   3.457 -0.3040  0.5792 -0.0426
 3955TIP3    H111871   0.969   1.993   3.418  3.7901  1.9298 -1.9656
 3955TIP3    H211872   0.974   1.842   3.405 -1.9707  1.3351 -0.0764
 3956TIP3   OH211873   5.799   5.407   1.725 -0.4205  0.2609  0.3808
 3956TIP3    H111874   5.857   5.473   1.687 -1.5649  0.6783 -0.7167
 3956TIP3    H211875   5.832   5.324   1.692 -1.5411  0.6277 -1.8401
 3957TIP3   OH211876   4.123   1.443   1.311 -0.6696  0.4568  0.1724
 3957TIP3    H111877   4.040   1.405   1.281  0.6152 -2.2992 -0.1271
 3957TIP3    H211878   4.186   1.420   1.243  0.6654  1.2235  1.0995
 3958TIP3   OH211879   1.684   4.006   4.062  0.0599  0.1157  0.3119
 3958TIP3    H111880   1.675   3.919   4.101 -1.8594  0.0947 -0.0610
 3958TIP3    H211881   1.697   3.989   3.969  1.9728  0.2196  0.5221
 3959TIP3   OH211882   6.102   2.961   1.302 -0.5772 -0.1553 -0.7305
 3959TIP3    H111883   6.048   3.020   1.249  1.4102  1.9403 -0.5548
 3959TIP3    H211884   6.170   2.931   1.243  0.0215 -0.0689 -0.0963
 3960TIP3   OH211885   2.090   4.002   3.816  0.5872  0.0944  0.0067
 3960TIP3    H111886   2.075   4.026   3.908  0.2416  1.1983 -0.3181
 3960TIP3    H211887   2.120   4.084   3.776 -1.4986  0.2423 -1.3741
 3961TIP3   OH211888   3.956   5.036   0.783 -1.1762  0.3316  0.4702
 3961TIP3    H111889   3.888   4.977   0.814 -0.4128 -0.5539  0.5080
 3961TIP3    H211890   3.991   5.077   0.862 -2.2666  1.4929  0.3800
 3962TIP3   OH211891   3.020   5.114   2.862 -0.0376 -0.0762  0.2446
 3962TIP3    H111892   3.078   5.061   2.807 -0.2451  0.0972 -0.1471
 3962TIP3    H211893   2.942   5.060   2.873 -0.7301  0.5889 -1.1162
 3963TIP3   OH211894   5.745   4.323   4.954  0.6074 -0.4120 -0.0765
 3963TIP3    H111895   5.787   4.303   4.870  0.2634 -0.1886 -0.3061
 3963TIP3    H211896   5.789   4.404   4.983 -1.5313  1.4567 -1.6846
 3964TIP3   OH211897   5.978   1.985   1.335  0.5772  0.3517 -0.0208
 3964TIP3    H111898   6.019   2.037   1.404  0.7217 -1.2087  1.1432
 3964TIP3    H211899   5.916   1.929   1.381 -0.0967 -0.0005 -1.3038
 3965TIP3   OH211900   5.855   0.520   3.817 -0.4468  0.2719 -0.3244
 3965TIP3    H111901   5.832   0.587   3.753  0.0220 -0.0451 -0.8253
 3965TIP3    H211902   5.830   0.437   3.777  1.2732 -0.0649 -0.7778
 3966TIP3   OH211903   0.164   3.599   1.354  0.8266 -0.1146 -0.0002
 3966TIP3    H111904   0.158   3.682   1.401  1.0009 -0.3447  0.4321
 3966TIP3    H211905   0.076   3.562   1.361  1.4581 -1.3356  2.3655
 3967TIP3   OH211906   4.461   2.250   0.101  0.2034 -0.2577 -0.4731
 3967TIP3    H111907   4.428   2.307   0.170  0.1473 -0.6939 -0.1360
 3967TIP3    H211908   4.394   2.182   0.092 -0.3759  0.4344 -1.7812
 3968TIP3   OH211909   6.296   3.639   3.848  0.1786  0.2044 -0.1379
 3968TIP3    H111910   6.248   3.653   3.930 -0.7123 -1.8668 -0.2579
 3968TIP3    H211911   6.261   3.705   3.789  0.7030  1.6193  1.0689
 3969TIP3   OH211912   6.199   5.064   3.537  0.1856 -0.0295 -0.1466
 3969TIP3    H111913   6.228   5.044   3.447  0.6060  0.9206 -0.2388
 3969TIP3    H211914   6.263   5.127   3.568 -0.0026 -0.3031  0.8128
 3970TIP3   OH211915   0.965   4.613   2.427  0.4433 -0.4997  0.2076
 3970TIP3    H111916   1.015   4.614   2.509  0.7322 -0.2707  0.0339
 3970TIP3    H211917   0.980   4.526   2.390 -0.3787 -0.9156  0.8058
 3971TIP3   OH211918   4.120   5.644   2.699 -0.2977 -0.0594 -0.1655
 3971TIP3    H111919   4.145   5.689   2.780 -0.8390 -0.4907  0.2511
 3971TIP3    H211920   4.027   5.663   2.688 -0.2349 -0.0209 -0.6791
 3972TIP3   OH211921   1.473   0.092   1.114 -0.4362 -0.3779 -0.0175
 3972TIP3    H111922   1.459   0.150   1.189  1.6234 -0.0578  0.1630
 3972TIP3    H211923   1.553   0.124   1.073 -0.9851 -1.1641 -1.7908
 3973TIP3   OH211924   1.331   2.737   2.667  0.2077 -0.1714  0.0439
 3973TIP3    H111925   1.329   2.707   2.758 -0.8797  1.1127  0.4867
 3973TIP3    H211926   1.400   2.804   2.665  1.2719 -1.2597 -0.4596
 3974TIP3   OH211927   2.173   1.063   3.769  0.0854 -0.4607  0.1288
 3974TIP3    H111928   2.161   1.155   3.748 -0.6146 -0.2345  1.4068
 3974TIP3    H211929   2.257   1.040   3.730 -0.2889  0.3867 -1.2342
 3975TIP3   OH211930   1.536   3.329   2.498 -0.9040  0.7460  0.1486
 3975TIP3    H111931   1.487   3.283   2.430  0.0133  1.1680 -0.8215
 3975TIP3    H211932   1.619   3.351   2.457 -0.4995  1.4013  1.2765
 3976TIP3   OH211933   5.468   4.915   1.731  0.0649 -0.6715  0.0478
 3976TIP3    H111934   5.496   4.999   1.767 -0.1161 -0.3270 -0.5978
 3976TIP3    H211935   5.546   4.881   1.687 -0.0204 -0.5656 -0.1878
 3977TIP3   OH211936   2.950   5.151   3.807  0.1269  0.4879 -0.8152
 3977TIP3    H111937   2.991   5.093   3.743 -0.2156 -0.3492 -0.2955
 3977TIP3    H211938   2.988   5.126   3.891  0.1262  1.1665 -0.6034
 3978TIP3   OH211939   2.970   2.078   1.448  0.7045 -0.0176  0.0575
 3978TIP3    H111940   3.059   2.096   1.478  0.6831 -0.2231  0.2378
 3978TIP3    H211941   2.970   2.111   1.358  1.1698 -0.6493 -0.1810
 3979TIP3   OH211942   0.217   1.065   3.128  0.1715 -0.5324 -0.5008
 3979TIP3    H111943   0.225   1.090   3.036 -1.1341 -1.7523 -0.9906
 3979TIP3    H211944   0.137   1.011   3.131  0.5213 -1.0149  1.2375
 3980TIP3   OH211945   4.438   2.209   4.901  0.2276  0.1196 -0.1212
 3980TIP3    H111946   4.460   2.185   4.991 -1.1175  0.5337  0.3339
 3980TIP3    H211947   4.368   2.149   4.876 -0.5165  1.0455 -0.3146
 3981TIP3   OH211948   5.775   0.582   4.326 -0.4403 -0.1255 -0.3553
 3981TIP3    H111949   5.711   0.560   4.394  1.6896 -0.0661  1.8046
 3981TIP3    H211950   5.746   0.533   4.249 -2.3177 -1.1219  0.9015
 3982TIP3   OH211951   0.549   1.884   0.343  0.4623 -0.3648 -0.2670
 3982TIP3    H111952   0.614   1.919   0.282 -0.2920 -0.6753 -1.2675
 3982TIP3    H211953   0.545   1.791   0.323 -0.6694 -0.2602 -0.5857
 3983TIP3   OH211954   1.717   3.835   0.715 -0.7528  0.2700  0.1205
 3983TIP3    H111955   1.768   3.793   0.647 -0.2839 -0.4838  0.9231
 3983TIP3    H211956   1.694   3.920   0.679  2.3223  1.2809  0.2668
 3984TIP3   OH211957   0.381   3.710   2.989 -0.4141 -0.1477  0.0790
 3984TIP3    H111958   0.464   3.698   2.943 -0.0625  0.4655  0.5391
 3984TIP3    H211959   0.315   3.703   2.920  0.0322 -0.3305 -0.3413
 3985TIP3   OH211960   4.132   1.570   3.991  0.3980 -0.7564  0.1366
 3985TIP3    H111961   4.145   1.513   3.916  0.0061  0.0721 -0.5750
 3985TIP3    H211962   4.037   1.576   4.001  0.2950  1.7630 -1.4085
 3986TIP3   OH211963   0.809   3.107   0.450  0.1643 -0.0424 -0.1215
 3986TIP3    H111964   0.740   3.161   0.487 -0.7601 -0.3271 -1.3697
 3986TIP3    H211965   0.888   3.133   0.497 -0.5154  1.3801  0.2714
 3987TIP3   OH211966   5.061   3.895   3.582 -0.9108 -0.3846  0.1876
 3987TIP3    H111967   5.116   3.817   3.590  0.1852  0.5091  1.8623
 3987TIP3    H211968   5.036   3.897   3.489  0.3950 -1.7933 -0.2388
 3988TIP3   OH211969   1.637   2.173   3.625 -0.2965 -0.0419  0.4915
 3988TIP3    H111970   1.702   2.243   3.621 -1.0116  0.6147  0.3318
 3988TIP3    H211971   1.673   2.112   3.690 -1.1163  1.9844  3.0268
 3989TIP3   OH211972   5.958   3.310   0.841 -0.7465  0.3634 -0.1915
 3989TIP3    H111973   5.969   3.299   0.935 -0.7736 -0.8979 -0.3231
 3989TIP3    H211974   6.045   3.295   0.804 -0.7443  0.8129 -0.3756
 3990TIP3   OH211975   1.633   0.619   2.226 -0.2942 -0.3119 -0.8313
 3990TIP3    H111976   1.542   0.589   2.225 -0.8752  1.3547 -1.2054
 3990TIP3    H211977   1.627   0.714   2.236  1.4284 -0.2095 -0.4857
 3991TIP3   OH211978   3.715   2.889   3.130 -0.9668 -0.5840  1.0037
 3991TIP3    H111979   3.730   2.795   3.132 -1.7695 -0.7467  0.1770
 3991TIP3    H211980   3.620   2.898   3.121 -0.9222  0.3085  1.3242
 3992TIP3   OH211981   2.968   5.894   4.934  0.2978  0.2493 -0.1763
 3992TIP3    H111982   2.922   5.927   5.011 -1.7543 -0.5286 -0.9859
 3992TIP3    H211983   3.050   5.859   4.967 -0.5549 -0.0914  1.6531
 3993TIP3   OH211984   2.928   2.596   2.699  0.1347  0.4048  0.4083
 3993TIP3    H111985   2.907   2.623   2.610  2.5605  0.4787 -0.1877
 3993TIP3    H211986   2.961   2.675   2.742 -0.4579  0.2331  1.2289
 3994TIP3   OH211987   1.414   2.912   3.629  0.5342  0.2951 -0.2868
 3994TIP3    H111988   1.436   2.874   3.714  0.1691  0.8849  0.0860
 3994TIP3    H211989   1.387   2.838   3.575 -0.7412  0.0743  0.6091
 3995TIP3   OH211990   0.466   4.148   3.311 -1.0247 -0.2773  0.1530
 3995TIP3    H111991   0.525   4.072   3.308 -0.7403 -0.2602  2.9207
 3995TIP3    H211992   0.494   4.203   3.238 -0.2496 -2.1186 -0.9982
 3996TIP3   OH211993   1.864   5.792   2.691  0.6838 -0.0013 -0.1925
 3996TIP3    H111994   1.825   5.713   2.654  0.8052 -0.3835  0.4715
 3996TIP3    H211995   1.800   5.823   2.755 -0.0391  1.3035 -1.5055
 3997TIP3   OH211996   4.080   1.711   1.112  0.5528 -0.7436  0.4047
 3997TIP3    H111997   4.166   1.722   1.072  0.1531 -0.7107 -0.4721
 3997TIP3    H211998   4.058   1.798   1.146  0.8794 -0.7603  0.6622
 3998TIP3   OH211999   4.218   3.436   3.038  0.1883  0.1618  0.0942
 3998TIP3    H112000   4.146   3.377   3.062 -0.6327  2.0255  2.7596
 3998TIP3    H212001   4.261   3.393   2.964 -1.8572 -2.4767  0.2749
 3999TIP3   OH212002   0.385   3.900   2.041 -0.8476 -0.6645 -0.3375
 3999TIP3    H112003   0.307   3.850   2.065 -1.5288  0.2474 -0.5911
 3999TIP3    H212004   0.353   3.988   2.025  0.1470 -0.4194 -1.0822
 4000TIP3   OH212005   4.081   3.282   0.879  0.0865 -0.0896 -0.6496
 4000TIP3    H112006   4.074   3.247   0.968 -0.8856 -0.0078 -0.6814
 4000TIP3    H212007   4.016   3.352   0.876 -0.4760 -0.6434 -1.6762
 4001TIP3   OH212008   2.851   4.232   4.856 -0.2749  0.3259  0.3457
 4001TIP3    H112009   2.764   4.254   4.822 -0.6036  0.2978  1.1454
 4001TIP3    H212010   2.893   4.183   4.786 -1.1818 -0.3017  0.2322
 4002TIP3   OH212011   5.616   2.441   2.258 -0.3543  0.4512 -0.4272
 4002TIP3    H112012   5.585   2.512   2.314 -0.5172 -0.3699  0.5380
 4002TIP3    H212013   5.693   2.477   2.214  1.4262  0.3130  2.3114
 4003TIP3   OH212014   0.469   0.727   4.758  0.6059 -0.0112 -0.5041
 4003TIP3    H112015   0.524   0.792   4.801 -0.0827  0.6325 -0.5779
 4003TIP3    H212016   0.455   0.660   4.825 -1.2085  1.4100  0.6444
 4004TIP3   OH212017   5.336   0.319   2.954 -0.4502  0.6199  0.4494
 4004TIP3    H112018   5.320   0.332   3.048 -1.8287  0.8907  0.2005
 4004TIP3    H212019   5.302   0.231   2.936 -0.8523  0.8471  0.0730
 4005TIP3   OH212020   1.834   2.379   0.431 -0.4713  0.3422 -0.4116
 4005TIP3    H112021   1.758   2.347   0.382  0.0810 -2.1777  0.1874
 4005TIP3    H212022   1.811   2.363   0.523  0.4401  0.3249 -0.1760
 4006TIP3   OH212023   6.283   2.842   1.112 -0.1455  0.1233  0.0489
 4006TIP3    H112024   6.287   2.923   1.061  1.3131 -0.2681 -0.5161
 4006TIP3    H212025   6.356   2.789   1.079 -0.3601 -0.9509  1.2068
 4007TIP3   OH212026   1.902   5.393   5.199 -0.5372  0.0442  0.3208
 4007TIP3    H112027   1.857   5.467   5.158 -0.5620  0.5848  1.3118
 4007TIP3    H212028   1.992   5.397   5.165 -0.8420 -0.1822 -0.5370
 4008TIP3   OH212029   3.522   2.279   2.369  0.7306 -0.4565 -0.4207
 4008TIP3    H112030   3.463   2.212   2.402  1.4047 -0.6645  0.4060
 4008TIP3    H212031   3.488   2.361   2.406 -0.6566 -0.1588 -2.1935
 4009TIP3   OH212032   3.754   3.412   3.826  0.3376  0.2985 -0.1265
 4009TIP3    H112033   3.758   3.342   3.891 -0.0423 -0.6224 -1.0710
 4009TIP3    H212034   3.813   3.480   3.859 -1.0248  0.5523  1.9818
 4010TIP3   OH212035   5.036   1.117   0.586  0.2179 -0.1608 -0.4971
 4010TIP3    H112036   4.942   1.127   0.595  0.3783  1.3097 -0.0818
 4010TIP3    H212037   5.053   1.132   0.493 -0.0067 -0.9798 -0.6724
 4011TIP3   OH212038   0.606   3.286   2.017  0.3431  1.0340  0.4522
 4011TIP3    H112039   0.693   3.322   1.999  0.8861  0.5090  1.9001
 4011TIP3    H212040   0.547   3.340   1.965  1.7370 -0.3892 -2.9132
 4012TIP3   OH212041   2.699   2.282   0.139 -0.0993  0.1183 -0.8064
 4012TIP3    H112042   2.693   2.212   0.204  1.0958  1.5863  0.9569
 4012TIP3    H212043   2.792   2.294   0.124 -0.2975  1.1767 -1.2915
 4013TIP3   OH212044   4.748   4.084   4.618  0.1550 -0.5889  0.2961
 4013TIP3    H112045   4.807   4.010   4.613  2.8571  1.5059 -1.6965
 4013TIP3    H212046   4.688   4.072   4.544  1.9170  0.1410 -1.3379
 4014TIP3   OH212047   3.740   2.629   1.042 -0.0899  0.2557  0.2493
 4014TIP3    H112048   3.709   2.641   1.132  0.9343 -1.3100  0.8363
 4014TIP3    H212049   3.790   2.548   1.044  0.2992  0.4076 -1.6587
 4015TIP3   OH212050   4.991   1.012   1.271  0.0733  0.5398  0.2758
 4015TIP3    H112051   4.994   1.106   1.287 -0.4227  0.2228  2.7304
 4015TIP3    H212052   5.009   0.973   1.357 -2.2692 -1.5442 -0.0583
 4016TIP3   OH212053   1.305   2.261   4.081  0.0352 -0.0320 -0.3630
 4016TIP3    H112054   1.341   2.184   4.037 -0.3700 -0.4617  0.0437
 4016TIP3    H212055   1.332   2.251   4.172 -2.7601 -1.4494  0.4256
 4017TIP3   OH212056   1.469   0.673   3.355  0.1452  0.2468  0.1478
 4017TIP3    H112057   1.486   0.592   3.306 -0.2447 -1.4584  2.6161
 4017TIP3    H212058   1.551   0.722   3.350  0.6615 -0.6617 -0.7430
 4018TIP3   OH212059   1.374   2.217   2.495 -0.5850  0.0431 -0.2352
 4018TIP3    H112060   1.315   2.183   2.562  1.0427 -0.6003  0.9365
 4018TIP3    H212061   1.380   2.310   2.513  0.2650 -0.2142  0.8917
 4019TIP3   OH212062   0.668   2.879   0.025 -0.0672  0.1283 -0.2817
 4019TIP3    H112063   0.587   2.827   0.022  0.6079 -0.8980 -1.1647
 4019TIP3    H212064   0.675   2.907   0.117 -0.1550 -1.8209  0.3562
 4020TIP3   OH212065   1.444   0.680   3.926  0.4730 -0.0659  0.8612
 4020TIP3    H112066   1.450   0.686   4.022  0.1670 -2.0153  1.0440
 4020TIP3    H212067   1.350   0.672   3.909  0.5779 -0.4168  0.4501
 4021TIP3   OH212068   1.673   0.822   0.231  0.3611 -0.2591  0.7759
 4021TIP3    H112069   1.620   0.757   0.275  0.9064  0.9464  3.4199
 4021TIP3    H212070   1.614   0.863   0.168 -0.3817 -2.2344  0.1203
 4022TIP3   OH212071   5.522   0.758   2.509  0.3077  0.5269 -0.1821
 4022TIP3    H112072   5.545   0.735   2.599 -1.4893 -0.9951 -0.0435
 4022TIP3    H212073   5.549   0.683   2.457  4.2395  2.6209 -1.5403
 4023TIP3   OH212074   2.247   3.358   4.440 -0.0630  0.3096 -0.1138
 4023TIP3    H112075   2.263   3.427   4.504 -2.2717  0.0616  0.8030
 4023TIP3    H212076   2.243   3.404   4.356 -0.5103  1.1555  0.3571
 4024TIP3   OH212077   2.082   5.258   0.187  0.6970  0.6775  0.5313
 4024TIP3    H112078   2.121   5.170   0.189 -1.6559 -0.5210 -0.9050
 4024TIP3    H212079   2.065   5.274   0.094 -1.2432  1.4893  0.9790
 4025TIP3   OH212080   4.859   3.003   4.573 -0.2052 -0.0605 -0.4642
 4025TIP3    H112081   4.787   3.057   4.606 -0.4852 -0.1184 -0.9704
 4025TIP3    H212082   4.818   2.919   4.553 -0.4053  0.5021 -2.5844
 4026TIP3   OH212083   2.842   1.200   0.327  0.2921  0.4258  0.8647
 4026TIP3    H112084   2.810   1.162   0.409 -2.7715  1.6255  0.3435
 4026TIP3    H212085   2.790   1.159   0.259  0.9028  1.4163 -0.2323
 4027TIP3   OH212086   5.344   4.452   3.419 -0.3587  0.5509 -0.0657
 4027TIP3    H112087   5.371   4.532   3.373 -3.0518  0.9008 -1.2056
 4027TIP3    H212088   5.294   4.403   3.354 -0.2400 -1.2482  1.1508
 4028TIP3   OH212089   5.304   5.194   1.465 -0.1755 -0.4553  0.3463
 4028TIP3    H112090   5.324   5.286   1.448 -1.3217 -0.3245 -0.4421
 4028TIP3    H212091   5.287   5.190   1.559  0.2398  0.0572  0.4499
 4029TIP3   OH212092   3.443   0.597   0.177 -0.1140  0.1049 -0.3507
 4029TIP3    H112093   3.476   0.521   0.225  0.0929 -0.1302 -0.8621
 4029TIP3    H212094   3.400   0.560   0.100 -1.6361  0.4006  0.3177
 4030TIP3   OH212095   0.917   3.536   0.860 -0.0113  0.0644 -0.0544
 4030TIP3    H112096   0.873   3.613   0.895 -0.0594  0.6239 -1.2969
 4030TIP3    H212097   0.863   3.462   0.888  0.1516  0.4362  1.3285
 4031TIP3   OH212098   1.477   2.823   3.879  0.0653 -0.3119  0.1353
 4031TIP3    H112099   1.462   2.735   3.913  2.0063 -0.7152  0.0616
 4031TIP3    H212100   1.463   2.880   3.955 -3.5074 -0.3504 -0.3263
 4032TIP3   OH212101   3.650   3.884   2.919 -0.6304  0.0219  0.0647
 4032TIP3    H112102   3.701   3.927   2.987 -0.3951  1.1645 -0.7920
 4032TIP3    H212103   3.675   3.792   2.923  0.1043  0.2510  0.8700
 4033TIP3   OH212104   2.727   1.493   3.318 -0.4040 -0.2566  0.1227
 4033TIP3    H112105   2.697   1.448   3.398  1.4740  0.2444  1.1712
 4033TIP3    H212106   2.753   1.423   3.259  0.3021 -0.6192  0.8429
 4034TIP3   OH212107   5.416   3.803   4.235 -0.0427  0.9605  0.2711
 4034TIP3    H112108   5.359   3.751   4.291  1.4457  0.9040  1.8186
 4034TIP3    H212109   5.456   3.740   4.175  0.2767  0.6057  0.8512
 4035TIP3   OH212110   1.246   1.081   3.282 -0.3893  0.0228 -0.5683
 4035TIP3    H112111   1.328   1.057   3.325 -1.4127 -1.3437  0.6953
 4035TIP3    H212112   1.202   1.138   3.345 -0.4382  0.7713 -1.2561
 4036TIP3   OH212113   3.486   0.962   0.361  0.2464 -0.2622 -0.2283
 4036TIP3    H112114   3.532   0.959   0.277  0.7737  2.3953 -0.1384
 4036TIP3    H212115   3.403   0.917   0.345  0.8387 -0.8494 -1.8320
 4037TIP3   OH212116   6.156   3.057   2.035 -0.2401 -0.3464  0.4488
 4037TIP3    H112117   6.173   3.056   1.941  1.3773 -0.1010  0.7045
 4037TIP3    H212118   6.062   3.076   2.042 -0.6083 -1.3856 -1.1154
 4038TIP3   OH212119   3.593   1.602   4.621  0.3016 -0.0116 -0.0279
 4038TIP3    H112120   3.642   1.537   4.672  0.4925 -0.1537 -0.3874
 4038TIP3    H212121   3.527   1.550   4.574 -0.1056  0.1611  0.3430
 4039TIP3   OH212122   1.129   0.139   2.574  0.0877  0.2386  0.2223
 4039TIP3    H112123   1.218   0.109   2.554 -0.1290 -1.1141  1.1824
 4039TIP3    H212124   1.123   0.225   2.531  2.3050  0.9778  1.2225
 4040TIP3   OH212125   2.756   5.972   2.921  0.0068 -0.2862 -0.0729
 4040TIP3    H112126   2.822   5.994   2.986 -0.3637 -0.1599  0.2710
 4040TIP3    H212127   2.804   5.960   2.840  0.3518  0.7002 -0.0310
 4041TIP3   OH212128   5.188   5.146   0.313  0.2287 -0.3976  0.2029
 4041TIP3    H112129   5.102   5.164   0.349  1.0979  0.3901  1.9970
 4041TIP3    H212130   5.196   5.205   0.238  0.0908  1.2481  1.4465
 4042TIP3   OH212131   4.012   5.547   1.039  0.3161  0.3317  0.3930
 4042TIP3    H112132   3.944   5.552   0.971 -0.2470 -0.7097  0.8514
 4042TIP3    H212133   3.975   5.488   1.105  1.3787  0.3170  0.9937
 4043TIP3   OH212134   2.151   3.836   1.476 -0.0664 -0.4818  0.2708
 4043TIP3    H112135   2.084   3.829   1.408  0.8093 -2.0158 -0.4721
 4043TIP3    H212136   2.183   3.926   1.468 -0.3908 -0.4512 -0.9735
 4044TIP3   OH212137   4.123   3.110   0.632  0.0637 -0.2664 -0.0062
 4044TIP3    H112138   4.107   3.201   0.657  0.5438 -0.4321  0.9511
 4044TIP3    H212139   4.114   3.110   0.537 -0.4977  0.6664  0.0273
 4045TIP3   OH212140   0.135   0.733   1.586 -0.5158 -0.3025  0.4605
 4045TIP3    H112141   0.040   0.743   1.596 -0.6273  1.5856 -1.8369
 4045TIP3    H212142   0.163   0.810   1.537  2.4803 -0.0510  2.2869
 4046TIP3   OH212143   1.060   1.111   1.734  0.2758 -0.2758 -0.0476
 4046TIP3    H112144   1.009   1.078   1.660 -1.7003  1.4382  0.4571
 4046TIP3    H212145   1.102   1.190   1.702  1.2651 -0.7564  0.0357
 4047TIP3   OH212146   5.123   0.215   1.503  0.3302 -0.6268  0.1999
 4047TIP3    H112147   5.162   0.300   1.522  1.9362 -1.6607  1.9301
 4047TIP3    H212148   5.198   0.160   1.481 -0.7324 -1.4924 -1.3966
 4048TIP3   OH212149   4.554   0.992   4.187  0.0148  0.3773 -0.2311
 4048TIP3    H112150   4.504   0.919   4.152 -1.1694  0.4256  1.2751
 4048TIP3    H212151   4.518   1.069   4.144 -0.5689  0.3202  0.1499
 4049TIP3   OH212152   6.090   3.296   1.098  0.1170  0.2442  0.6047
 4049TIP3    H112153   6.111   3.207   1.071 -2.0689 -0.0767 -0.2662
 4049TIP3    H212154   6.069   3.288   1.191 -2.3257 -0.6891  0.0621
 4050TIP3   OH212155   5.356   1.954   2.327 -0.3279 -0.0949  0.0716
 4050TIP3    H112156   5.348   2.028   2.267 -2.9493 -0.6589 -0.3662
 4050TIP3    H212157   5.276   1.903   2.314  0.6582 -2.1634  1.5200
 4051TIP3   OH212158   5.615   4.743   2.874 -0.7931 -0.4595  0.0362
 4051TIP3    H112159   5.706   4.753   2.846 -1.2442  1.4311 -0.9073
 4051TIP3    H212160   5.611   4.655   2.912  0.8655 -1.4936 -2.0089
 4052TIP3   OH212161   3.712   0.356   1.062  0.2975  0.5245  0.1426
 4052TIP3    H112162   3.671   0.384   1.144  1.3509  0.5510  0.6788
 4052TIP3    H212163   3.668   0.408   0.995 -0.6439  0.4391  0.6715
 4053TIP3   OH212164   1.778   3.065   2.937 -0.5831 -0.5748  0.0196
 4053TIP3    H112165   1.846   3.002   2.960  1.5941  1.6948  0.2726
 4053TIP3    H212166   1.721   3.067   3.014  1.4011  0.3038  1.5835
 4054TIP3   OH212167   1.650   2.311   1.415 -0.5066 -0.1723  0.4433
 4054TIP3    H112168   1.573   2.355   1.451 -0.4019  1.0402 -0.7362
 4054TIP3    H212169   1.717   2.320   1.483 -0.8737  0.3925  0.7328
 4055TIP3   OH212170   2.898   3.725   4.723  0.0010  0.2124 -0.2171
 4055TIP3    H112171   2.845   3.782   4.668 -0.8321 -0.4614 -0.1390
 4055TIP3    H212172   2.834   3.668   4.767  0.7535 -0.2474  0.3049
 4056TIP3   OH212173   0.108   5.632   1.535  0.1637  0.4746  0.3197
 4056TIP3    H112174   0.193   5.625   1.493  0.6064  4.5470  0.1394
 4056TIP3    H212175   0.046   5.646   1.463 -0.6467 -1.7770  0.5001
 4057TIP3   OH212176   2.891   5.769   2.178  0.2984  0.0006 -0.2093
 4057TIP3    H112177   2.935   5.835   2.232  1.6428 -0.7331 -0.3456
 4057TIP3    H212178   2.897   5.804   2.089  2.6216 -1.0264 -0.5492
 4058TIP3   OH212179   3.054   4.497   2.115 -0.0378 -0.1084  0.4797
 4058TIP3    H112180   3.036   4.413   2.075  0.0649  0.4964 -0.8969
 4058TIP3    H212181   2.971   4.544   2.112 -0.0804 -0.1251  1.1849
 4059TIP3   OH212182   0.879   1.602   0.330 -0.1345 -0.0326 -0.2517
 4059TIP3    H112183   0.846   1.685   0.366  0.0871  1.0154 -2.3377
 4059TIP3    H212184   0.842   1.535   0.388 -2.2898  1.3594  0.1139
 4060TIP3   OH212185   3.289   0.406   0.869  0.1249 -0.0462  0.3540
 4060TIP3    H112186   3.258   0.463   0.799  0.7234 -1.1373 -0.8338
 4060TIP3    H212187   3.383   0.423   0.873  0.7535 -2.5540 -1.6164
 4061TIP3   OH212188   1.026   0.895   3.042 -0.1063  0.6132  0.3113
 4061TIP3    H112189   1.090   0.966   3.052 -0.0058  0.7749 -1.2497
 4061TIP3    H212190   1.038   0.864   2.952 -1.3474 -0.2255  0.4069
 4062TIP3   OH212191   0.961   3.581  -0.030  0.1036 -0.2830  0.1560
 4062TIP3    H112192   0.914   3.591   0.053  1.4481  0.5721  0.8630
 4062TIP3    H212193   1.046   3.545  -0.005  0.8754  0.8494 -0.7124
 4063TIP3   OH212194   2.128   3.842   0.671 -0.4800  0.1401 -0.5321
 4063TIP3    H112195   2.187   3.905   0.712 -1.0894  0.7889 -0.6266
 4063TIP3    H212196   2.090   3.793   0.743 -1.8189  1.5144 -0.2465
 4064TIP3   OH212197   2.150   4.361   4.278 -0.2526  0.5926  0.5634
 4064TIP3    H112198   2.061   4.376   4.248  0.1349  1.4932 -0.1780
 4064TIP3    H212199   2.140   4.306   4.356 -1.3521 -0.9546 -0.6012
 4065TIP3   OH212200   6.367   2.248   4.292 -0.8126  0.4718 -0.0367
 4065TIP3    H112201   6.329   2.247   4.204 -0.4154 -0.0128 -0.2059
 4065TIP3    H212202   6.310   2.190   4.343 -1.2688  1.0518  0.1300
 4066TIP3   OH212203   5.471   4.337   4.995  0.0229 -0.0671  0.5343
 4066TIP3    H112204   5.475   4.433   4.988 -0.7662 -0.0892 -0.5097
 4066TIP3    H212205   5.562   4.309   4.996  0.2826  0.7474  1.8076
 4067TIP3   OH212206   5.275   0.058   4.464 -0.4539 -0.0188  0.1822
 4067TIP3    H112207   5.200   0.026   4.414 -2.4985  2.2420  1.5866
 4067TIP3    H212208   5.252   0.041   4.555  0.6217  0.9127  0.6478
 4068TIP3   OH212209   0.047   2.922   3.770  0.5084 -0.0847  0.3087
 4068TIP3    H112210   0.022   3.012   3.750 -0.7171 -0.3064  0.7510
 4068TIP3    H212211  -0.012   2.869   3.716  0.0415 -0.6337  1.3414
 4069TIP3   OH212212   4.588   2.681   4.136  0.6136  0.4344 -0.5436
 4069TIP3    H112213   4.630   2.618   4.195  0.7964  0.2724 -0.8410
 4069TIP3    H212214   4.504   2.642   4.114 -0.7479  1.7770  1.8353
 4070TIP3   OH212215   2.229   0.924   3.357 -0.5350  0.3639  0.0735
 4070TIP3    H112216   2.309   0.880   3.383 -0.9842 -0.2595  0.4385
 4070TIP3    H212217   2.200   0.878   3.278 -1.1154 -0.1617  0.5728
 4071TIP3   OH212218   5.945   4.514   0.162  0.2703  0.4425 -0.0023
 4071TIP3    H112219   6.004   4.531   0.235 -0.6076  1.8247  0.4392
 4071TIP3    H212220   5.966   4.425   0.134  2.2864  0.7432  0.3629
 4072TIP3   OH212221   4.859   5.765   4.992 -0.1889  0.0509  0.2361
 4072TIP3    H112222   4.841   5.677   5.026  0.5578 -0.3210 -0.3096
 4072TIP3    H212223   4.932   5.797   5.045  0.7352 -0.3866 -0.7300
 4073TIP3   OH212224   5.366   3.193   2.415 -0.0267  0.0076  0.3764
 4073TIP3    H112225   5.308   3.167   2.486 -0.4155  0.6125  0.2918
 4073TIP3    H212226   5.308   3.207   2.340  0.0252  1.9396  0.6398
 4074TIP3   OH212227   0.294   4.684   0.255  0.0461  0.5103  0.3556
 4074TIP3    H112228   0.207   4.723   0.265 -0.0816  1.2226 -2.6376
 4074TIP3    H212229   0.347   4.726   0.323 -1.7011  0.7704  1.6231
 4075TIP3   OH212230   1.570   4.802   4.740 -0.2908 -0.1247 -0.3578
 4075TIP3    H112231   1.508   4.808   4.667  1.7461  1.5348 -2.1347
 4075TIP3    H212232   1.536   4.733   4.796 -3.1427  0.0328 -1.7447
 4076TIP3   OH212233   3.536   4.406   0.634  0.0410 -0.4691  0.6694
 4076TIP3    H112234   3.629   4.401   0.655  0.0167  0.0312  0.9290
 4076TIP3    H212235   3.512   4.317   0.607  1.0771 -0.1572 -1.5010
 4077TIP3   OH212236   4.408   5.596   1.270  0.0027  0.1691  0.5438
 4077TIP3    H112237   4.391   5.690   1.265 -0.5966 -0.0106 -1.1885
 4077TIP3    H212238   4.494   5.584   1.228  0.1831 -0.0397  0.9610
 4078TIP3   OH212239   5.278   1.578   4.572  0.0538  0.6391  0.3190
 4078TIP3    H112240   5.224   1.574   4.493 -0.1874  2.3132  0.3504
 4078TIP3    H212241   5.334   1.655   4.559  1.9254 -0.5994  0.6280
 4079TIP3   OH212242   1.365   5.089   4.747 -0.3001 -0.1955 -0.4427
 4079TIP3    H112243   1.302   5.153   4.781 -0.3492 -1.1837  1.4443
 4079TIP3    H212244   1.429   5.142   4.699 -2.0793  0.9070 -1.7456
 4080TIP3   OH212245   1.806   4.819   0.479 -0.2943  0.0918 -0.3124
 4080TIP3    H112246   1.722   4.789   0.513  0.7009 -1.2738  1.0762
 4080TIP3    H212247   1.821   4.766   0.401  0.1639 -1.0947  0.5599
 4081TIP3   OH212248   0.135   0.461   2.731  0.2365 -0.2781  1.0462
 4081TIP3    H112249   0.162   0.492   2.818  1.9458 -0.2664  0.5464
 4081TIP3    H212250   0.187   0.381   2.718 -0.2332 -0.4431  0.1516
 4082TIP3   OH212251   3.681   4.608   3.218  0.0231 -0.5226  0.3022
 4082TIP3    H112252   3.617   4.579   3.282 -0.2245 -0.7134 -0.0296
 4082TIP3    H212253   3.635   4.673   3.165  0.0929 -0.6717  0.0527
 4083TIP3   OH212254   0.236   5.731   2.457  0.0568  0.0823  0.3153
 4083TIP3    H112255   0.226   5.799   2.524 -0.1216  0.7863 -0.4083
 4083TIP3    H212256   0.162   5.743   2.398  1.7582  1.4592 -1.7048
 4084TIP3   OH212257   3.855   3.135   3.928  0.6624  0.0426  0.4847
 4084TIP3    H112258   3.837   3.047   3.960  0.0023  0.1702  0.4638
 4084TIP3    H212259   3.798   3.145   3.852  0.1703  0.7659  0.9411
 4085TIP3   OH212260   0.166   2.039   2.951  0.3125 -0.7771  0.1510
 4085TIP3    H112261   0.202   2.061   2.866  0.2625 -1.2481  0.0067
 4085TIP3    H212262   0.225   2.082   3.014  1.4409 -1.9450 -0.0611
 4086TIP3   OH212263   2.088   3.322   2.675 -0.4761  0.2513 -0.4801
 4086TIP3    H112264   2.076   3.368   2.758  0.0649  0.1404 -0.3370
 4086TIP3    H212265   2.040   3.240   2.686  0.2149 -0.0985  0.0125
 4087TIP3   OH212266   5.207   3.206   4.029 -0.7664  0.6614  0.1447
 4087TIP3    H112267   5.260   3.150   3.973 -2.6511  0.5722 -1.6718
 4087TIP3    H212268   5.118   3.199   3.993 -1.4286  3.3325  1.0086
 4088TIP3   OH212269   5.463   2.165   2.760  0.7626  0.3989 -0.4343
 4088TIP3    H112270   5.512   2.087   2.734 -0.8489 -1.7825  2.5002
 4088TIP3    H212271   5.377   2.153   2.722  0.4590  0.6404  0.1591
 4089TIP3   OH212272   2.934   2.258   2.245  0.3281 -0.0824 -0.5899
 4089TIP3    H112273   2.905   2.263   2.336 -0.8126 -1.9136 -0.8112
 4089TIP3    H212274   3.008   2.319   2.240 -0.3087  0.9009  1.2641
 4090TIP3   OH212275   3.528   2.689   2.856  0.2298 -0.2738 -0.0134
 4090TIP3    H112276   3.565   2.679   2.768 -0.1858  1.6576 -0.4593
 4090TIP3    H212277   3.487   2.776   2.854 -0.6921 -0.6388  1.7688
 4091TIP3   OH212278   6.303   4.456   0.473  0.0201 -0.1928  0.2014
 4091TIP3    H112279   6.326   4.485   0.384 -0.7421  0.8500  0.3303
 4091TIP3    H212280   6.245   4.381   0.459 -1.2404  0.8264 -0.2342
 4092TIP3   OH212281   3.944   2.577   0.162 -0.3455  0.0503 -0.0285
 4092TIP3    H112282   3.865   2.523   0.168  0.6800 -1.3260  1.8322
 4092TIP3    H212283   4.007   2.523   0.113  0.3134  0.0208  0.8361
 4093TIP3   OH212284   5.894   1.020   4.057  0.1140  0.0130 -0.4317
 4093TIP3    H112285   5.831   0.954   4.088  1.1855 -1.2008 -0.7720
 4093TIP3    H212286   5.927   1.062   4.137 -0.6055  0.1890 -0.2174
 4094TIP3   OH212287   2.244   1.528   1.138  0.1813 -0.0360  0.6227
 4094TIP3    H112288   2.312   1.461   1.143 -0.4459 -0.7622 -0.2298
 4094TIP3    H212289   2.201   1.525   1.224  0.5248 -0.3172  0.7893
 4095TIP3   OH212290   2.631   1.591   3.758  0.7305  0.4617  0.0360
 4095TIP3    H112291   2.717   1.631   3.744  0.1150  2.0234  0.4949
 4095TIP3    H212292   2.570   1.650   3.714 -0.0989 -0.7775 -0.5176
 4096TIP3   OH212293   2.484   2.911   3.329  0.5664 -0.2237 -0.7427
 4096TIP3    H112294   2.571   2.908   3.370  0.6939  1.3597 -0.8245
 4096TIP3    H212295   2.495   2.861   3.248  1.2511 -0.5009 -0.4940
 4097TIP3   OH212296   3.730   2.817   0.146  0.0090  0.1098  0.0869
 4097TIP3    H112297   3.744   2.879   0.217 -0.6810  0.7341 -0.3137
 4097TIP3    H212298   3.754   2.865   0.067 -0.1858 -0.2503 -0.1949
 4098TIP3   OH212299   6.103   4.925   2.471 -0.4469 -0.0320 -0.1438
 4098TIP3    H112300   6.040   4.929   2.400 -1.0318  1.9526  0.4261
 4098TIP3    H212301   6.150   5.009   2.467 -0.9789  0.4596  2.1773
 4099TIP3   OH212302   1.886   3.131   0.958  0.0710 -0.1761 -0.5412
 4099TIP3    H112303   1.843   3.074   0.894  1.4502 -1.5377 -0.3108
 4099TIP3    H212304   1.836   3.119   1.039  0.1204 -0.7799 -0.5962
 4100TIP3   OH212305   2.008   5.672   4.730  0.3548  0.1540  0.5775
 4100TIP3    H112306   2.055   5.594   4.699 -0.9366 -0.6584  0.5885
 4100TIP3    H212307   1.989   5.654   4.822  0.5364  0.7296  0.7303
 4101TIP3   OH212308   5.607   2.136   3.595 -0.0827 -0.1683  0.4468
 4101TIP3    H112309   5.556   2.210   3.565  0.5186  0.7167  1.5180
 4101TIP3    H212310   5.563   2.059   3.559 -2.0551  0.5626  1.1837
 4102TIP3   OH212311   0.205   2.080   1.954  0.2075 -0.4594  0.2705
 4102TIP3    H112312   0.183   2.078   2.047 -0.1062  2.6990  0.3730
 4102TIP3    H212313   0.282   2.136   1.949 -0.1629 -0.0597 -1.4097
 4103TIP3   OH212314   3.889   1.749   4.333  0.2609 -0.5527  0.0866
 4103TIP3    H112315   3.976   1.712   4.346 -0.0900 -0.7173  2.4004
 4103TIP3    H212316   3.857   1.707   4.253  2.1180 -0.7990 -0.5835
 4104TIP3   OH212317   0.422   5.234   1.428  0.2107 -0.0401 -0.3628
 4104TIP3    H112318   0.497   5.292   1.413  0.3077  0.0529  0.4189
 4104TIP3    H212319   0.428   5.213   1.521 -1.5080  1.0374  0.0271
 4105TIP3   OH212320   0.288   2.421   1.781 -0.0101 -0.7504 -0.0983
 4105TIP3    H112321   0.244   2.349   1.735 -1.8266 -0.2368  0.7500
 4105TIP3    H212322   0.252   2.500   1.742  0.7056 -0.3028  0.1358
 4106TIP3   OH212323   4.781   1.100   0.223 -0.2482  0.6968  0.0470
 4106TIP3    H112324   4.862   1.076   0.178  0.1107  1.2765  0.3805
 4106TIP3    H212325   4.715   1.101   0.154 -0.3420 -1.4461  0.0277
 4107TIP3   OH212326   0.717   4.057   4.534 -0.7659  0.4103  0.2085
 4107TIP3    H112327   0.625   4.064   4.507 -0.6447  0.5115 -0.1782
 4107TIP3    H212328   0.750   4.147   4.533 -0.4815  0.3019 -0.2915
 4108TIP3   OH212329   1.471   3.084   1.101 -0.5180 -0.3834  0.0206
 4108TIP3    H112330   1.442   3.067   1.191  0.5998  0.5428  0.5919
 4108TIP3    H212331   1.394   3.068   1.047 -1.0278 -1.6314  1.0651
 4109TIP3   OH212332   3.584   3.784   3.715 -0.5481 -0.2458 -0.3187
 4109TIP3    H112333   3.574   3.853   3.650 -2.7275  0.8275  1.0433
 4109TIP3    H212334   3.595   3.704   3.663  0.7097  0.9027 -1.9426
 4110TIP3   OH212335   0.297   4.642   0.826  0.7225  0.1534 -0.5245
 4110TIP3    H112336   0.293   4.713   0.890 -0.6996  0.5801 -1.0482
 4110TIP3    H212337   0.251   4.569   0.867  1.1877 -0.1009 -0.4451
 4111TIP3   OH212338   0.624   3.157  -0.006  0.1445  0.2148 -0.4023
 4111TIP3    H112339   0.667   3.072  -0.010 -0.5958 -0.1622 -0.6435
 4111TIP3    H212340   0.666   3.203   0.066 -0.4391 -0.9245  0.7052
 4112TIP3   OH212341   0.040   3.090   2.702  0.4331 -0.1180 -0.5938
 4112TIP3    H112342  -0.002   3.020   2.651  0.3794  0.0766 -0.8181
 4112TIP3    H212343   0.130   3.092   2.670  0.2618  0.3552 -1.0530
 4113TIP3   OH212344   0.238   4.311   0.974  0.0218  0.6535  0.4706
 4113TIP3    H112345   0.153   4.319   1.018  0.5476  1.7736  1.3215
 4113TIP3    H212346   0.222   4.249   0.903 -2.5680  3.6033 -1.8792
 4114TIP3   OH212347   0.391   0.170   4.203 -0.2241  0.4338  0.6879
 4114TIP3    H112348   0.407   0.261   4.178  0.7926 -0.2985 -1.5471
 4114TIP3    H212349   0.428   0.163   4.291  2.2335  1.4987 -0.1780
 4115TIP3   OH212350   1.116   3.185   4.205 -0.1844 -0.4792 -0.0140
 4115TIP3    H112351   1.023   3.209   4.199 -0.1386 -0.4450 -0.6005
 4115TIP3    H212352   1.152   3.245   4.271 -0.3124  0.3501 -0.6733
 4116TIP3   OH212353   0.618   3.927   2.430 -0.8180 -0.3066  0.7267
 4116TIP3    H112354   0.646   3.932   2.339 -0.0547  0.1151  0.9724
 4116TIP3    H212355   0.540   3.871   2.429  0.6036 -2.4201  0.1295
 4117TIP3   OH212356   0.524   4.670   1.103  0.4300 -0.2751 -0.1440
 4117TIP3    H112357   0.619   4.670   1.087  0.3310 -0.1212 -0.7558
 4117TIP3    H212358   0.500   4.578   1.108  0.7689 -0.3203  1.0252
 4118TIP3   OH212359   5.890   2.829   1.885  0.0399  0.1558  0.4471
 4118TIP3    H112360   5.795   2.832   1.874  0.2328  1.5611 -1.4178
 4118TIP3    H212361   5.903   2.810   1.978 -2.0386 -1.1037  0.5596
 4119TIP3   OH212362   0.798   5.554   4.190 -0.3547 -0.2413  0.3196
 4119TIP3    H112363   0.709   5.544   4.156 -0.3232  0.7071 -0.0872
 4119TIP3    H212364   0.854   5.518   4.121 -0.3901 -0.0563  0.1913
 4120TIP3   OH212365   5.000   2.735   0.262 -0.0621 -0.2488 -0.4701
 4120TIP3    H112366   5.084   2.694   0.239 -0.7484 -1.1696 -1.4822
 4120TIP3    H212367   4.948   2.727   0.182 -0.8314  1.0749 -0.1233
 4121TIP3   OH212368   5.910   4.269   2.784 -0.5373  0.2342 -0.0201
 4121TIP3    H112369   5.897   4.226   2.699 -0.4562  0.7316 -0.2924
 4121TIP3    H212370   5.823   4.275   2.822 -0.3843 -1.4405  0.6700
 4122TIP3   OH212371   5.008   1.340   1.080  0.3895 -0.3721  0.2829
 4122TIP3    H112372   5.031   1.433   1.080  2.0397 -0.7479  1.3642
 4122TIP3    H212373   5.000   1.317   0.988  2.9203  0.1914 -0.1495
 4123TIP3   OH212374   0.188   1.374   2.949  0.5104 -0.1165  0.0371
 4123TIP3    H112375   0.202   1.340   3.037 -0.4443 -1.3075 -0.2405
 4123TIP3    H212376   0.215   1.466   2.954  1.0665 -0.3310  1.3927
 4124TIP3   OH212377   0.938   0.938   1.209  0.8150  0.1673  0.0904
 4124TIP3    H112378   1.007   0.924   1.144  0.4060  2.0035 -0.8059
 4124TIP3    H212379   0.859   0.901   1.170  0.2976  2.3393 -1.1101
 4125TIP3   OH212380   5.566   0.096   3.630 -0.2331  0.4487 -0.1092
 4125TIP3    H112381   5.544   0.025   3.569  0.3159  1.7158 -1.8872
 4125TIP3    H212382   5.494   0.097   3.693 -1.5703 -0.0655 -1.5605
 4126TIP3   OH212383   1.895   5.680   3.074  0.1588 -0.5110  0.3437
 4126TIP3    H112384   1.971   5.737   3.086 -0.2590  0.1381 -0.0928
 4126TIP3    H212385   1.917   5.601   3.124  0.7602  0.0054  0.9141
 4127TIP3   OH212386   0.114   3.221   3.803 -0.5375 -0.0540 -0.1096
 4127TIP3    H112387   0.030   3.267   3.815 -0.3282  0.7008 -1.3217
 4127TIP3    H212388   0.170   3.285   3.759  0.7660 -0.4750  0.8844
 4128TIP3   OH212389   6.104   2.937   3.015 -0.4634 -0.5746  0.8292
 4128TIP3    H112390   6.182   2.975   2.974 -0.2340 -0.8469  1.0108
 4128TIP3    H212391   6.067   2.880   2.947  0.1043 -1.2869  1.0972
 4129TIP3   OH212392   2.046   0.723   1.612 -0.1377  0.5074 -0.5399
 4129TIP3    H112393   2.138   0.696   1.613 -0.0524  0.7497 -1.1067
 4129TIP3    H212394   2.042   0.793   1.546 -1.0655 -0.7725 -1.9145
 4130TIP3   OH212395   2.747   0.405   0.226 -0.0332 -0.0361 -0.0175
 4130TIP3    H112396   2.816   0.340   0.213  0.3674  0.7570 -2.3393
 4130TIP3    H212397   2.785   0.469   0.286  0.9613 -0.0483 -0.6084
 4131TIP3   OH212398   5.993   3.413   3.849 -0.4975  0.0375 -0.7142
 4131TIP3    H112399   5.968   3.500   3.880 -0.1488 -0.7198  1.9882
 4131TIP3    H212400   5.912   3.373   3.818 -1.1498  0.4653  0.3865
 4132TIP3   OH212401   0.679   4.678   3.512  0.0924  0.2896 -0.3054
 4132TIP3    H112402   0.708   4.730   3.588 -1.2080  0.5884  0.0011
 4132TIP3    H212403   0.599   4.635   3.541 -0.4158  0.3979 -1.5112
 4133TIP3   OH212404   4.834   0.469   3.801  0.4323 -0.1009  0.2497
 4133TIP3    H112405   4.810   0.398   3.742  3.0257 -1.0430  0.1999
 4133TIP3    H212406   4.867   0.538   3.744 -0.9334  0.6872  0.3796
 4134TIP3   OH212407   5.603   5.592   1.855 -0.5315  0.0344  0.3856
 4134TIP3    H112408   5.660   5.582   1.779 -1.6506 -0.9372 -0.3712
 4134TIP3    H212409   5.644   5.661   1.908  2.4226 -1.9781  0.9293
 4135TIP3   OH212410   5.099   2.245   1.120 -0.0726  0.8285 -0.0782
 4135TIP3    H112411   5.193   2.232   1.135 -0.4051 -2.6148 -0.1138
 4135TIP3    H212412   5.091   2.251   1.025  0.0467 -0.1371 -0.1630
 4136TIP3   OH212413   0.310   3.357   4.208  0.5367  0.2770  0.3236
 4136TIP3    H112414   0.289   3.384   4.119 -1.2074 -0.0430  0.6085
 4136TIP3    H212415   0.230   3.315   4.240  1.8440 -1.6212  1.2727
 4137TIP3   OH212416   4.961   1.790   4.293  0.1113  0.5481  0.8142
 4137TIP3    H112417   5.010   1.861   4.251  1.1571  0.0105  1.0869
 4137TIP3    H212418   4.906   1.834   4.357 -3.0984  1.6643 -2.3542
 4138TIP3   OH212419   5.650   2.877   2.490 -0.1675 -0.2782  0.5915
 4138TIP3    H112420   5.597   2.920   2.558  0.4627 -1.1107  1.6328
 4138TIP3    H212421   5.735   2.921   2.494 -0.9229  1.5445 -1.5645
 4139TIP3   OH212422   4.817   2.169   1.230  0.0584 -0.6351  0.4232
 4139TIP3    H112423   4.893   2.145   1.176  2.0554  2.0026  1.7868
 4139TIP3    H212424   4.852   2.173   1.319 -1.9312 -0.1594  1.2176
 4140TIP3   OH212425   4.257   5.399   1.172  0.2181  0.2113 -0.4530
 4140TIP3    H112426   4.175   5.432   1.135 -0.3554 -0.0841  0.5046
 4140TIP3    H212427   4.296   5.475   1.214 -0.8534 -0.1505  1.3110
 4141TIP3   OH212428   5.672   2.692   0.829 -0.8564  0.5745  0.5943
 4141TIP3    H112429   5.627   2.684   0.744  0.1501  0.9440  0.0097
 4141TIP3    H212430   5.604   2.720   0.889 -1.8746 -0.8906  0.1878
 4142TIP3   OH212431   4.868   3.542   1.489  0.1864 -0.3397 -0.0208
 4142TIP3    H112432   4.831   3.517   1.404 -1.3237  2.0412 -0.1941
 4142TIP3    H212433   4.844   3.471   1.548 -3.5940  0.3192 -0.4925
 4143TIP3   OH212434   6.307   1.477   1.130 -0.0015  0.5683  0.4302
 4143TIP3    H112435   6.253   1.443   1.059  1.6152  0.5224 -0.8537
 4143TIP3    H212436   6.262   1.451   1.210 -0.7945 -1.2448 -0.5546
 4144TIP3   OH212437   3.353   2.654   2.215 -0.3956 -0.0436  0.1105
 4144TIP3    H112438   3.308   2.713   2.155  0.3806  1.4663  0.9596
 4144TIP3    H212439   3.374   2.577   2.162  1.6363  1.8467 -2.0614
 4145TIP3   OH212440   5.235   0.772   4.075  0.0463  0.0964 -0.1041
 4145TIP3    H112441   5.209   0.851   4.123 -1.5599 -0.9574  0.8789
 4145TIP3    H212442   5.153   0.737   4.041  0.4650 -1.9622  0.8283
 4146TIP3   OH212443   1.901   2.547   4.532  0.2747 -0.1350  0.0597
 4146TIP3    H112444   1.897   2.612   4.602  1.9510 -0.4719  0.5297
 4146TIP3    H212445   1.941   2.594   4.458  2.4898 -0.8185  0.7366
 4147TIP3   OH212446   3.481   5.424   2.949  0.0131 -0.1112  0.1307
 4147TIP3    H112447   3.385   5.425   2.954 -0.1950 -2.3331 -1.8237
 4147TIP3    H212448   3.503   5.332   2.942  2.2911  0.4043 -0.0501
 4148TIP3   OH212449   3.257   4.828   4.213  0.0178 -0.6061 -0.0761
 4148TIP3    H112450   3.249   4.813   4.119  0.1922  1.1898 -0.4017
 4148TIP3    H212451   3.304   4.911   4.221  0.1042 -0.7740  1.6073
 4149TIP3   OH212452   2.953   3.486   2.428 -0.3981 -0.3777  0.3936
 4149TIP3    H112453   2.884   3.419   2.431  0.1796 -1.0411 -0.6082
 4149TIP3    H212454   2.999   3.476   2.511  0.5987 -2.2687 -0.3228
 4150TIP3   OH212455   1.142   4.799   1.336  0.7333 -0.2025 -0.0328
 4150TIP3    H112456   1.237   4.795   1.330  0.7243 -0.5091  0.0267
 4150TIP3    H212457   1.111   4.749   1.261  0.6143  0.5136 -0.4776
 4151TIP3   OH212458   1.136   1.520   0.676 -0.2955  0.3700 -0.8676
 4151TIP3    H112459   1.140   1.449   0.740 -0.8028  1.4205  0.3710
 4151TIP3    H212460   1.226   1.550   0.667  0.1429 -1.2584 -2.4070
 4152TIP3   OH212461   3.179   5.323   0.778 -0.5769  0.3258  0.2061
 4152TIP3    H112462   3.139   5.396   0.827 -0.5581 -0.9832  2.2987
 4152TIP3    H212463   3.141   5.329   0.691 -1.4396  2.1580  0.6564
 4153TIP3   OH212464   3.847   3.085   5.167 -0.3895 -0.3549  0.0554
 4153TIP3    H112465   3.927   3.111   5.122 -0.0441 -0.2496  0.7250
 4153TIP3    H212466   3.820   3.162   5.216 -0.5036 -0.6089  0.4015
 4154TIP3   OH212467   4.802   0.572   2.954  0.1859  0.0630 -0.4433
 4154TIP3    H112468   4.775   0.506   2.890  0.6073  0.5094 -1.1024
 4154TIP3    H212469   4.896   0.558   2.965  0.4811  1.1370 -1.3260
 4155TIP3   OH212470   4.723   2.555   3.362 -0.0195  0.2917 -0.2763
 4155TIP3    H112471   4.714   2.522   3.273  1.3552  0.5456 -0.5240
 4155TIP3    H212472   4.800   2.510   3.397 -0.3014  0.5014  0.6468
 4156TIP3   OH212473   4.120   0.920   4.597 -0.1303 -0.0158  0.0186
 4156TIP3    H112474   4.115   0.980   4.672  1.6632 -0.9810  0.9926
 4156TIP3    H212475   4.185   0.960   4.539  1.2200 -1.0310  0.7636
 4157TIP3   OH212476   1.864   2.832   1.985  0.3798  0.6151 -0.2528
 4157TIP3    H112477   1.823   2.826   2.071  0.5446  0.3463 -0.1899
 4157TIP3    H212478   1.894   2.923   1.979  1.8010  0.2488  0.6526
 4158TIP3   OH212479   0.279   5.044   1.222  0.3438  0.6360  0.3758
 4158TIP3    H112480   0.361   5.081   1.189  0.7239 -1.7998 -1.7086
 4158TIP3    H212481   0.305   4.987   1.294  0.9197 -1.8526 -1.6507
 4159TIP3   OH212482   5.532   5.135   3.938  0.3444  0.6243 -0.0571
 4159TIP3    H112483   5.454   5.179   3.972  0.5400 -0.8796  2.6419
 4159TIP3    H212484   5.573   5.096   4.016  0.7272 -3.3969 -2.0415
 4160TIP3   OH212485   4.716   3.713   0.589  0.1883 -0.2923 -0.1462
 4160TIP3    H112486   4.656   3.775   0.549 -0.2908 -1.2692 -0.9968
 4160TIP3    H212487   4.799   3.760   0.596 -0.0597  0.3084 -1.1422
 4161TIP3   OH212488   2.447   1.102   3.540  0.2644  0.3593 -0.0177
 4161TIP3    H112489   2.429   1.013   3.509  0.9990  0.4728 -0.8088
 4161TIP3    H212490   2.523   1.130   3.489 -1.3808  2.3230 -1.5671
 4162TIP3   OH212491   5.547   1.603   0.956 -0.2298 -0.2542  0.1727
 4162TIP3    H112492   5.591   1.688   0.948 -0.3164 -0.3064 -0.9852
 4162TIP3    H212493   5.534   1.574   0.866  0.6370 -1.9466  0.5545
 4163TIP3   OH212494   5.328   5.668   4.409  0.2662  1.0138  0.2776
 4163TIP3    H112495   5.301   5.659   4.500 -0.0108  1.3465  0.2301
 4163TIP3    H212496   5.423   5.653   4.410  0.4442  2.1010  0.7921
 4164TIP3   OH212497   5.623   0.527   4.549 -0.4278 -0.6031  0.4610
 4164TIP3    H112498   5.629   0.592   4.619 -0.2091  0.0029 -0.1070
 4164TIP3    H212499   5.545   0.476   4.569 -1.9775  1.3234 -0.3158
 4165TIP3   OH212500   2.749   2.045   0.302  0.1281 -0.0132 -1.1452
 4165TIP3    H112501   2.701   2.043   0.386  3.2374 -0.7328  0.7805
 4165TIP3    H212502   2.729   1.960   0.262 -1.4194  0.3456 -1.1995
 4166TIP3   OH212503   6.283   3.893   4.911 -0.2871  0.0453  0.2199
 4166TIP3    H112504   6.262   3.868   5.001 -1.0699  0.7743  0.2457
 4166TIP3    H212505   6.270   3.987   4.907  1.5534  0.3338 -0.1791
 4167TIP3   OH212506   2.386   5.381   2.524 -0.0907  0.2204  0.6158
 4167TIP3    H112507   2.452   5.446   2.499 -1.1728  1.0090 -0.3019
 4167TIP3    H212508   2.312   5.398   2.465 -0.9573 -0.9101  1.3349
 4168TIP3   OH212509   2.407   0.017   0.572 -0.1533 -0.2993 -0.8690
 4168TIP3    H112510   2.437   0.103   0.543 -1.8753  0.5584 -0.1865
 4168TIP3    H212511   2.432   0.012   0.664 -1.9034  0.3680 -0.3316
 4169TIP3   OH212512   1.820   0.922   1.007  0.1064 -0.3419 -0.0053
 4169TIP3    H112513   1.883   0.986   1.040  2.1645 -1.2072 -2.0224
 4169TIP3    H212514   1.738   0.972   0.999  1.6910  2.2485 -1.8731
 4170TIP3   OH212515   0.300   4.825   2.448 -0.1771  0.1032 -0.3416
 4170TIP3    H112516   0.259   4.742   2.423 -0.0649  0.3248 -1.3038
 4170TIP3    H212517   0.317   4.816   2.541  2.3838 -2.0777 -0.9082
 4171TIP3   OH212518   3.762   4.594   2.224  0.3764  0.5002  0.1872
 4171TIP3    H112519   3.759   4.678   2.270  1.9933 -0.2059  1.7012
 4171TIP3    H212520   3.686   4.546   2.257 -0.5463  1.3170 -0.6708
 4172TIP3   OH212521   1.611   4.327   0.135  0.0866 -0.2906  0.1972
 4172TIP3    H112522   1.677   4.319   0.204  0.8526  0.5914 -0.4082
 4172TIP3    H212523   1.531   4.295   0.175  0.5895 -0.1134  1.3918
 4173TIP3   OH212524   5.478   0.149   1.050 -0.6111  0.1929 -0.3997
 4173TIP3    H112525   5.548   0.132   1.113 -1.1191 -1.6892 -0.3045
 4173TIP3    H212526   5.502   0.234   1.011  1.9722 -0.5915 -0.7201
 4174TIP3   OH212527   5.317   0.666   2.985  0.7422 -0.2184  0.2218
 4174TIP3    H112528   5.372   0.703   2.916  1.6954  2.2244  2.1328
 4174TIP3    H212529   5.372   0.600   3.027  1.3138  0.4523  0.5459
 4175TIP3   OH212530   2.128   4.451   0.774  0.2086  0.5506  0.5479
 4175TIP3    H112531   2.210   4.415   0.806  0.5184  0.4891 -0.2970
 4175TIP3    H212532   2.116   4.413   0.687 -0.5656  0.7843  0.5371
 4176TIP3   OH212533   3.595   4.052   1.999 -0.6259 -0.0225 -0.1205
 4176TIP3    H112534   3.674   4.014   1.959 -0.7143  0.3605 -0.6848
 4176TIP3    H212535   3.620   4.143   2.018 -1.3776  0.5611 -1.7114
 4177TIP3   OH212536   6.133   0.602   0.190 -0.0790  0.1548 -0.6796
 4177TIP3    H112537   6.174   0.519   0.171 -0.6287 -0.3429  0.2231
 4177TIP3    H212538   6.162   0.624   0.279  0.8902  1.4482 -1.2811
 4178TIP3   OH212539   2.137   4.362   1.759  0.2254 -0.1438  0.1396
 4178TIP3    H112540   2.155   4.405   1.675  0.6322  1.9019  1.2172
 4178TIP3    H212541   2.078   4.290   1.737  0.9038 -0.1164 -1.9894
 4179TIP3   OH212542   3.409   5.677   2.434  0.4396  0.1989  0.2742
 4179TIP3    H112543   3.461   5.750   2.466  2.4490 -0.8695 -0.3760
 4179TIP3    H212544   3.448   5.600   2.474 -2.1718 -0.5470  1.6382
 4180TIP3   OH212545   5.185   3.551   1.938  0.0480 -0.1963  0.0845
 4180TIP3    H112546   5.188   3.513   2.026  1.0217 -1.8655 -0.6243
 4180TIP3    H212547   5.092   3.549   1.915 -0.5393  2.3060  1.8645
 4181TIP3   OH212548   0.532   0.989   4.480  0.0727 -0.2157  0.0923
 4181TIP3    H112549   0.610   0.935   4.467  0.6258  0.8876 -1.4298
 4181TIP3    H212550   0.461   0.925   4.490  0.7453 -1.2575 -1.3904
 4182TIP3   OH212551   4.117   3.053   4.115 -0.0507  0.0838 -0.3770
 4182TIP3    H112552   4.079   3.006   4.041 -1.8402  0.0581  0.5236
 4182TIP3    H212553   4.181   3.112   4.075  0.2942 -1.1601 -1.7710
 4183TIP3   OH212554   1.967   0.631   5.138  0.2752 -0.2426 -0.1069
 4183TIP3    H112555   2.025   0.555   5.131 -0.3205 -0.9720  2.0955
 4183TIP3    H212556   1.964   0.651   5.232 -3.4472 -0.5981  0.0126
 4184TIP3   OH212557   4.196   2.303   4.547 -0.1163  0.1102 -0.3182
 4184TIP3    H112558   4.119   2.284   4.600 -0.9866 -0.2567 -1.6462
 4184TIP3    H212559   4.163   2.304   4.457  1.3685  0.3228 -0.8916
 4185TIP3   OH212560   4.872   5.047   2.757 -0.9125 -0.0950 -0.3219
 4185TIP3    H112561   4.875   5.122   2.698 -0.1010  0.0793 -0.0730
 4185TIP3    H212562   4.798   4.995   2.725 -1.5102  0.8184 -0.4708
 4186TIP3   OH212563   0.338   5.597   1.929  0.7750 -0.2044 -0.0103
 4186TIP3    H112564   0.407   5.590   1.995  1.1720  1.0033 -0.2717
 4186TIP3    H212565   0.385   5.592   1.845  0.4526 -0.1964 -0.1910
 4187TIP3   OH212566   0.632   5.170   2.223 -0.2265 -0.1319  0.1908
 4187TIP3    H112567   0.665   5.113   2.292  1.3618  0.0900 -0.3455
 4187TIP3    H212568   0.660   5.258   2.250 -2.9247  0.5126  1.1799
 4188TIP3   OH212569   2.183   4.941   2.298 -0.6032  0.0673 -0.0008
 4188TIP3    H112570   2.156   4.966   2.210 -1.2755  0.6337  0.3581
 4188TIP3    H212571   2.250   4.874   2.284 -1.7064 -0.8898 -0.9272
 4189TIP3   OH212572   0.335   1.805   3.631 -0.3743 -0.8382 -0.0651
 4189TIP3    H112573   0.416   1.826   3.585 -0.4123 -2.0857 -0.7545
 4189TIP3    H212574   0.335   1.862   3.708  0.7034 -0.1788 -0.5348
 4190TIP3   OH212575   3.477   1.378   3.942  0.1403 -0.1443 -0.2793
 4190TIP3    H112576   3.461   1.290   3.975 -0.5321 -0.6045 -1.7311
 4190TIP3    H212577   3.480   1.433   4.021  0.3770 -1.4206  0.6328
 4191TIP3   OH212578   2.577   5.525   2.377 -0.9995 -0.2752  0.2692
 4191TIP3    H112579   2.584   5.593   2.310  0.1284  0.2101  0.8540
 4191TIP3    H212580   2.663   5.485   2.380 -1.8750 -2.3656 -0.6831
 4192TIP3   OH212581   1.035   4.202   2.275 -0.2626 -0.1216 -0.5069
 4192TIP3    H112582   0.947   4.192   2.240  0.2638  1.4096 -2.4292
 4192TIP3    H212583   1.059   4.292   2.254  1.9529 -0.6530 -0.4974
 4193TIP3   OH212584   3.937   5.273   4.032  0.1243 -0.5239 -0.1585
 4193TIP3    H112585   3.898   5.319   3.958  0.3892  0.6080  0.3825
 4193TIP3    H212586   3.878   5.291   4.105  2.2371  2.3912  1.0167
 4194TIP3   OH212587   0.052   2.204   0.850  0.2938  0.3459 -0.7318
 4194TIP3    H112588   0.127   2.148   0.830  0.4083 -0.4259  1.6367
 4194TIP3    H212589  -0.019   2.143   0.868  0.3986  0.8790  1.8068
 4195TIP3   OH212590   2.625   3.862   3.690  0.0547  0.2980 -0.1736
 4195TIP3    H112591   2.673   3.885   3.611 -1.4054 -0.7694 -1.4202
 4195TIP3    H212592   2.564   3.935   3.703 -0.7656 -0.2218 -0.9568
 4196TIP3   OH212593   3.199   1.597   1.876  0.1539  0.1197 -0.1442
 4196TIP3    H112594   3.126   1.563   1.927  0.6779 -0.8177 -0.0023
 4196TIP3    H212595   3.265   1.620   1.941 -0.2447  1.5894 -0.2229
 4197TIP3   OH212596   4.005   0.563   1.883 -0.0444  0.2063  0.3588
 4197TIP3    H112597   3.933   0.499   1.884  1.4524 -1.6201  2.2828
 4197TIP3    H212598   3.979   0.630   1.945 -0.5418  0.0932  0.2741
 4198TIP3   OH212599   0.656   3.316   4.581  0.4611 -0.9575 -0.4877
 4198TIP3    H112600   0.619   3.388   4.529  3.2067  0.7915 -0.2237
 4198TIP3    H212601   0.635   3.340   4.672  0.0165 -1.3368 -0.4892
 4199TIP3   OH212602   5.369   0.348   0.709  0.1784  0.2725 -0.0432
 4199TIP3    H112603   5.396   0.387   0.627 -0.8866  0.7548 -0.1825
 4199TIP3    H212604   5.451   0.321   0.752  0.8067  1.0391 -0.7402
 4200TIP3   OH212605   1.406   1.080   0.461  0.4115 -0.3649  0.4533
 4200TIP3    H112606   1.492   1.120   0.444  0.6591 -0.8887  0.4576
 4200TIP3    H212607   1.369   1.065   0.375 -0.1837  0.9278  0.4640
 4201TIP3   OH212608   3.880   1.616   1.985 -0.3772 -0.2573  0.4954
 4201TIP3    H112609   3.821   1.679   1.943  0.5201 -0.7645 -1.6809
 4201TIP3    H212610   3.904   1.658   2.068  0.1106  2.2738 -0.8036
 4202TIP3   OH212611   5.778   0.470   3.045 -0.0349 -0.0777 -0.1349
 4202TIP3    H112612   5.820   0.541   3.094  2.0059  0.6207 -2.6588
 4202TIP3    H212613   5.835   0.456   2.970 -3.0077 -1.0016 -2.4063
 4203TIP3   OH212614   0.544   1.640   0.277 -0.5072  0.4675 -0.4264
 4203TIP3    H112615   0.631   1.629   0.239 -0.2911  2.0187 -0.4328
 4203TIP3    H212616   0.537   1.568   0.340 -0.5537 -1.6564 -2.6967
 4204TIP3   OH212617   2.088   1.406   2.111  0.1263  0.4955 -0.0992
 4204TIP3    H112618   2.060   1.455   2.189 -0.0458  1.3006 -0.6549
 4204TIP3    H212619   2.050   1.453   2.038  1.8806  0.8981 -0.8074
 4205TIP3   OH212620   1.798   3.592   4.360 -0.3142  0.1300  0.1134
 4205TIP3    H112621   1.840   3.624   4.280 -0.0651 -4.1730 -1.8044
 4205TIP3    H212622   1.863   3.605   4.429  0.2593  2.1516 -0.7419
 4206TIP3   OH212623   1.188   1.492   2.985  0.5419 -0.0123 -0.5711
 4206TIP3    H112624   1.121   1.554   2.957  1.3602 -0.0847 -2.8510
 4206TIP3    H212625   1.150   1.406   2.969 -0.5662 -0.2368  2.5270
 4207TIP3   OH212626   6.333   5.631   1.773 -0.3565 -0.5566 -0.3774
 4207TIP3    H112627   6.277   5.699   1.736  1.2089 -0.2540 -2.4117
 4207TIP3    H212628   6.404   5.622   1.709  2.2694 -0.4823  2.2957
 4208TIP3   OH212629   2.501   2.481   0.830 -0.4529  0.1215  0.1907
 4208TIP3    H112630   2.589   2.496   0.797 -0.0777 -1.0519  0.6052
 4208TIP3    H212631   2.444   2.530   0.770  0.2707 -1.3524 -1.7921
 4209TIP3   OH212632   5.996   1.080   1.085 -0.1446 -0.7609 -0.9877
 4209TIP3    H112633   6.030   0.992   1.073  0.8670 -0.4938 -0.1548
 4209TIP3    H212634   6.016   1.102   1.176  2.5044  1.5127 -1.9993
 4210TIP3   OH212635   0.029   3.867   0.399  0.2267 -0.4952 -0.1421
 4210TIP3    H112636   0.079   3.834   0.474 -0.6923 -1.4380  0.0924
 4210TIP3    H212637   0.066   3.953   0.380  0.9999 -0.5869  0.8960
 4211TIP3   OH212638   6.207   4.989   1.894 -0.7261 -0.2892 -0.1616
 4211TIP3    H112639   6.172   4.901   1.880 -0.1879 -0.3633 -1.1494
 4211TIP3    H212640   6.299   4.976   1.915  0.1484  0.1036 -3.2848
 4212TIP3   OH212641   5.530   5.525   4.581 -0.1233  0.5102  0.4614
 4212TIP3    H112642   5.534   5.620   4.595  0.9325  0.5181  0.1911
 4212TIP3    H212643   5.595   5.489   4.641  0.5071  0.0928 -0.4434
 4213TIP3   OH212644   5.890   5.424   5.127  0.5091 -0.6175 -0.3998
 4213TIP3    H112645   5.900   5.518   5.119  2.2011 -0.5991  1.3527
 4213TIP3    H212646   5.858   5.396   5.041 -1.5355  1.6839 -0.5025
 4214TIP3   OH212647   5.363   5.686   2.061  0.0366 -0.4717  0.6139
 4214TIP3    H112648   5.351   5.708   1.969  1.1506 -2.2668 -0.0209
 4214TIP3    H212649   5.400   5.765   2.100  2.8599 -0.7023 -1.2882
 4215TIP3   OH212650   0.886   3.424   0.504  0.3278  0.3026  0.4147
 4215TIP3    H112651   0.830   3.466   0.569 -1.0356  2.5019 -2.0118
 4215TIP3    H212652   0.958   3.486   0.491  1.0879 -0.5459  0.4595
 4216TIP3   OH212653   2.330   5.405   3.780 -0.2608  0.0536 -0.0813
 4216TIP3    H112654   2.279   5.407   3.861  0.3663 -0.3571  0.3423
 4216TIP3    H212655   2.314   5.490   3.739 -1.2351 -0.0587  0.0611
 4217TIP3   OH212656   0.297   1.455   0.445 -0.4518 -0.3370 -0.4698
 4217TIP3    H112657   0.272   1.363   0.437 -0.8457 -0.3861  0.9290
 4217TIP3    H212658   0.392   1.454   0.456 -0.6317 -0.7489  1.3069
 4218TIP3   OH212659   1.366   0.170   2.288 -0.0629 -0.4485 -0.0755
 4218TIP3    H112660   1.367   0.226   2.366  1.5024  2.3256 -1.9064
 4218TIP3    H212661   1.458   0.150   2.273 -0.1841  0.1471 -1.8487
 4219TIP3   OH212662   2.959   1.116   4.977 -0.3664 -0.2293  0.0518
 4219TIP3    H112663   2.905   1.160   5.043  1.6481 -2.2386  3.2889
 4219TIP3    H212664   3.040   1.167   4.973 -0.5927  0.0834 -1.2602
 4220TIP3   OH212665   1.725   3.195   5.021 -0.1060  0.1255 -0.3253
 4220TIP3    H112666   1.795   3.211   4.958  0.3965 -0.7206  0.0123
 4220TIP3    H212667   1.704   3.282   5.056 -0.8649  0.7297 -2.1399
 4221TIP3   OH212668   0.673   4.282   1.523 -0.4994 -0.0994  0.2889
 4221TIP3    H112669   0.654   4.365   1.567 -2.1711 -1.3656  2.0845
 4221TIP3    H212670   0.744   4.244   1.574 -0.5358 -0.2999  0.1893
 4222TIP3   OH212671   0.801   3.728   1.985  0.1987  0.7943  0.2857
 4222TIP3    H112672   0.826   3.647   1.941 -0.1547  1.9529 -2.2437
 4222TIP3    H212673   0.712   3.710   2.017 -0.0790  0.3110 -0.6924
 4223TIP3   OH212674   0.211   5.857   0.315 -0.1924 -0.1297 -0.4038
 4223TIP3    H112675   0.296   5.852   0.272  0.1689 -1.6226  0.3990
 4223TIP3    H212676   0.230   5.892   0.402 -0.5140  0.2487 -0.4810
 4224TIP3   OH212677   3.062   5.604   4.720  0.3293  0.1158  0.4412
 4224TIP3    H112678   3.002   5.678   4.727 -0.1525 -0.2696  0.5303
 4224TIP3    H212679   3.100   5.612   4.632 -1.2595 -0.6397 -0.3807
 4225TIP3   OH212680   2.133   0.120   4.991  0.6095 -0.5637 -0.2545
 4225TIP3    H112681   2.209   0.061   4.994  1.3312  0.2912 -0.9152
 4225TIP3    H212682   2.102   0.113   4.900  0.1154 -0.6474 -0.0779
 4226TIP3   OH212683   4.309   1.258   0.434  0.0653 -0.1591  0.3541
 4226TIP3    H112684   4.355   1.177   0.455 -0.1377 -0.4613 -0.3170
 4226TIP3    H212685   4.218   1.241   0.459  0.0147 -0.1544  0.1731
 4227TIP3   OH212686   4.854   3.815   3.224  0.0205 -0.0398 -0.6112
 4227TIP3    H112687   4.821   3.725   3.234  0.0062 -0.0500 -0.7543
 4227TIP3    H212688   4.805   3.850   3.150 -0.2207  0.2006 -0.3436
 4228TIP3   OH212689   0.806   0.023   3.665 -0.5393  0.0196 -0.4998
 4228TIP3    H112690   0.775   0.019   3.756  3.0450  0.4359  0.8855
 4228TIP3    H212691   0.775   0.107   3.633 -1.3450  0.1270  0.4964
 4229TIP3   OH212692   3.720   1.578   3.877 -0.3146 -0.5475  0.1559
 4229TIP3    H112693   3.729   1.620   3.792  1.3001 -2.2277 -0.5654
 4229TIP3    H212694   3.707   1.485   3.857 -1.3960 -0.7801  1.7402
 4230TIP3   OH212695   1.691   5.388   1.535  0.3718  0.2441  0.2320
 4230TIP3    H112696   1.719   5.479   1.551 -2.8240  1.2981  0.5532
 4230TIP3    H212697   1.658   5.358   1.619 -0.9152 -0.2972 -0.4402
 4231TIP3   OH212698   5.118   0.289   3.932 -0.1336  0.1644 -0.0107
 4231TIP3    H112699   5.132   0.377   3.966  1.5134 -0.2241  0.4143
 4231TIP3    H212700   5.093   0.302   3.840 -0.4841  1.0917  0.2176
 4232TIP3   OH212701   2.835   1.364   4.691  0.0940  0.2808 -0.7664
 4232TIP3    H112702   2.826   1.404   4.777 -0.3880  1.3443 -1.2799
 4232TIP3    H212703   2.921   1.322   4.692 -0.5320 -1.0810  0.7474
 4233TIP3   OH212704   6.096   3.167   1.603 -0.5339  0.7852  0.6966
 4233TIP3    H112705   6.113   3.082   1.643  2.1893 -0.4392 -2.5778
 4233TIP3    H212706   6.134   3.230   1.664  0.9452 -0.7036  1.3950
 4234TIP3   OH212707   1.762   5.574   2.563 -0.2256  0.3592  0.3122
 4234TIP3    H112708   1.814   5.523   2.501 -1.0805 -1.4027  1.0066
 4234TIP3    H212709   1.673   5.574   2.526 -0.6725 -0.4264  1.3386
 4235TIP3   OH212710   0.705   4.732   1.366 -0.3290  0.0258  0.4162
 4235TIP3    H112711   0.763   4.661   1.339  0.3338  1.2931 -1.7053
 4235TIP3    H212712   0.618   4.704   1.338 -0.0540  0.0891 -0.5332
 4236TIP3   OH212713   6.234   2.005   0.809  0.2761  0.2287 -0.3102
 4236TIP3    H112714   6.253   1.913   0.788 -0.7727  0.4324 -2.4310
 4236TIP3    H212715   6.167   2.000   0.877 -1.8936 -0.7347 -2.3443
 4237TIP3   OH212716   5.622   3.746   2.463  0.0242 -0.1165 -0.0508
 4237TIP3    H112717   5.649   3.655   2.457 -0.2003 -0.1199 -1.1036
 4237TIP3    H212718   5.704   3.795   2.461  0.0613 -0.2116 -1.4595
 4238TIP3   OH212719   0.705   0.198   4.945  0.3667  0.6744 -0.3547
 4238TIP3    H112720   0.704   0.132   5.015 -0.3480  1.3192  0.2614
 4238TIP3    H212721   0.623   0.246   4.956  0.5933  1.2733 -1.1812
 4239TIP3   OH212722   5.067   0.523   2.998 -0.0023 -0.5516 -0.0630
 4239TIP3    H112723   5.029   0.551   3.081  1.1453 -0.7839  0.5694
 4239TIP3    H212724   5.143   0.580   2.986 -0.8531  0.3365 -1.6116
 4240TIP3   OH212725   5.799   2.362   2.588  0.4559 -0.1252  0.0043
 4240TIP3    H112726   5.827   2.439   2.540  1.3960  0.2342  1.0959
 4240TIP3    H212727   5.743   2.396   2.658  2.2574 -0.2076  1.5547
 4241TIP3   OH212728   4.734   4.880   1.997 -0.2285 -0.3280  0.3619
 4241TIP3    H112729   4.783   4.848   1.921 -0.1622 -1.5891  0.9032
 4241TIP3    H212730   4.783   4.846   2.072 -0.4486  0.6677  0.9671
 4242TIP3   OH212731   1.874   5.910   3.355 -0.0477  0.3402 -0.3556
 4242TIP3    H112732   1.932   5.867   3.291  1.6782  1.3590  0.4573
 4242TIP3    H212733   1.833   5.981   3.305 -1.2506 -0.8623 -1.1417
 4243TIP3   OH212734   0.724   5.168   0.539 -0.6196 -0.0500 -0.3738
 4243TIP3    H112735   0.742   5.128   0.624  2.3936  2.0613  0.1289
 4243TIP3    H212736   0.670   5.244   0.559  2.9181  2.5158  0.3519
 4244TIP3   OH212737   0.259   4.233   0.138  0.4418 -0.4158 -0.6376
 4244TIP3    H112738   0.181   4.252   0.191  1.2290 -0.4175  0.5621
 4244TIP3    H212739   0.225   4.197   0.056 -0.8052 -0.7236 -0.0018
 4245TIP3   OH212740   4.037   2.441   3.571  0.7114 -0.1077 -0.6775
 4245TIP3    H112741   3.969   2.398   3.623  0.7250  1.1305  0.3968
 4245TIP3    H212742   4.036   2.393   3.488 -1.0279 -0.5383 -0.4610
 4246TIP3   OH212743   3.336   0.523   3.975 -0.2993  0.8231 -0.2264
 4246TIP3    H112744   3.361   0.538   3.884  2.4247  1.4048  0.5058
 4246TIP3    H212745   3.394   0.582   4.025 -1.7574  0.5764  1.8720
 4247TIP3   OH212746   1.517   4.875   3.272 -0.4466 -0.2279 -0.5425
 4247TIP3    H112747   1.558   4.827   3.344 -0.0819  2.0768  0.9122
 4247TIP3    H212748   1.432   4.832   3.259  1.1018 -3.2646 -1.6373
 4248TIP3   OH212749   3.970   1.110   0.196  0.5536  0.0662  0.0511
 4248TIP3    H112750   3.982   1.200   0.227  0.2434  1.0723 -2.5178
 4248TIP3    H212751   3.905   1.117   0.127  2.1821 -1.7440 -1.7971
 4249TIP3   OH212752   1.527   2.934   4.496  0.1093 -0.3039 -0.6142
 4249TIP3    H112753   1.526   3.024   4.528 -0.1592 -0.4121 -0.3153
 4249TIP3    H212754   1.540   2.880   4.574 -2.4312 -0.6810 -0.3616
 4250TIP3   OH212755   6.018   5.318   3.898 -0.8008 -0.4841 -0.2502
 4250TIP3    H112756   6.000   5.390   3.838  0.1479 -2.4183 -3.0621
 4250TIP3    H212757   5.936   5.268   3.900 -0.3483 -1.2838 -1.2396
 4251TIP3   OH212758   0.120   0.790   3.344 -0.1545  0.3035  0.0190
 4251TIP3    H112759   0.157   0.866   3.390  0.7772 -0.1407  0.0076
 4251TIP3    H212760   0.175   0.717   3.370 -0.4178 -0.1901 -0.7946
 4252TIP3   OH212761   4.674   3.774   1.520 -0.5115 -0.2187  0.4400
 4252TIP3    H112762   4.750   3.716   1.512  0.3936  0.9246  0.4837
 4252TIP3    H212763   4.600   3.720   1.493  0.7947 -0.2247 -4.1018
 4253TIP3   OH212764   4.631   1.304   4.249  0.3256  0.1479  0.3117
 4253TIP3    H112765   4.716   1.284   4.209 -0.0484  1.4356 -1.2172
 4253TIP3    H212766   4.577   1.336   4.177 -2.1422 -2.4419  0.8040
 4254TIP3   OH212767   6.146   3.503   4.468  0.2265 -0.1734  0.6654
 4254TIP3    H112768   6.163   3.509   4.562 -0.4831 -0.7086  0.8318
 4254TIP3    H212769   6.062   3.547   4.456  0.8759  0.9528  0.0968
 4255TIP3   OH212770   5.407   4.749   4.435 -0.2708  0.1379 -0.2865
 4255TIP3    H112771   5.387   4.770   4.344 -1.3798 -1.6894 -0.5044
 4255TIP3    H212772   5.326   4.710   4.469  0.2609  0.3989  1.3629
 4256TIP3   OH212773   2.427   0.716   1.154  0.0759  0.0214 -0.1731
 4256TIP3    H112774   2.491   0.788   1.155 -0.8438  0.8770 -0.8732
 4256TIP3    H212775   2.428   0.682   1.244  0.6929  0.7692  0.1181
 4257TIP3   OH212776   0.660   1.483   0.732 -0.5082 -0.4216 -0.3887
 4257TIP3    H112777   0.691   1.548   0.794  0.4597  1.1862 -2.4459
 4257TIP3    H212778   0.703   1.401   0.760  0.7488  0.4742  0.4242
 4258TIP3   OH212779   1.411   3.264   5.022 -0.3179 -0.2431 -0.4986
 4258TIP3    H112780   1.418   3.347   4.975  0.1115 -0.1340 -0.2493
 4258TIP3    H212781   1.490   3.216   4.997 -0.1427 -0.2313  0.0069
 4259TIP3   OH212782   3.743   1.325   3.766 -0.0341 -0.7343  0.6726
 4259TIP3    H112783   3.833   1.334   3.735 -0.1214  1.6420  0.9283
 4259TIP3    H212784   3.722   1.233   3.752  1.3910 -0.7354 -2.3008
 4260TIP3   OH212785   5.622   0.861   5.058  0.1800 -0.1270  0.2010
 4260TIP3    H112786   5.559   0.793   5.083 -1.0024  0.3840 -1.2304
 4260TIP3    H212787   5.700   0.813   5.032 -0.4118 -0.9115 -0.1671
 4261TIP3   OH212788   6.029   0.128   4.661 -0.3373  0.4444  0.5597
 4261TIP3    H112789   6.062   0.199   4.717  0.1325  0.8930 -0.2692
 4261TIP3    H212790   6.090   0.126   4.587  0.8789 -2.1477  1.4903
 4262TIP3   OH212791   4.663   5.018   4.520  0.0227  0.4831  0.7414
 4262TIP3    H112792   4.640   5.004   4.428 -0.1680  2.2521  0.4856
 4262TIP3    H212793   4.598   4.968   4.568 -1.1252  1.1586 -0.0657
 4263TIP3   OH212794   4.144   1.848   4.054 -0.3605  0.6002  0.2402
 4263TIP3    H112795   4.165   1.772   4.001  1.4742  2.4645 -1.9487
 4263TIP3    H212796   4.066   1.886   4.012  0.9223  1.9130 -1.1049
 4264TIP3   OH212797   4.852   2.692   1.229 -0.2344 -0.2307 -0.3797
 4264TIP3    H112798   4.796   2.615   1.219  1.2310 -1.2877 -0.7599
 4264TIP3    H212799   4.938   2.663   1.198  0.6470  1.1866  0.6259
 4265TIP3   OH212800   3.626   0.412   4.100 -0.0597 -0.0658  0.5383
 4265TIP3    H112801   3.665   0.388   4.184  2.1351  0.0698 -0.3879
 4265TIP3    H212802   3.583   0.496   4.116  1.4306  0.5930  1.2499
 4266TIP3   OH212803   1.474   2.937   4.780  0.0729  0.5656  0.2535
 4266TIP3    H112804   1.550   2.957   4.836  0.1596 -0.1602  0.3947
 4266TIP3    H212805   1.413   2.892   4.838 -0.3396  0.8637  0.0544
 4267TIP3   OH212806   0.617   0.685   3.717  0.2690  0.0964 -0.2265
 4267TIP3    H112807   0.702   0.668   3.676  0.7995  0.6661  0.6188
 4267TIP3    H212808   0.609   0.780   3.717 -0.4805  0.0435 -0.4904
 4268TIP3   OH212809   0.586   4.748   1.796  0.3758  0.1049  0.0152
 4268TIP3    H112810   0.499   4.778   1.824 -0.0214 -2.1962  1.6129
 4268TIP3    H212811   0.646   4.816   1.828 -0.7303  1.1929 -0.1372
 4269TIP3   OH212812   2.002   3.797   3.040  0.0599 -0.0564  0.2763
 4269TIP3    H112813   1.920   3.748   3.050  0.2101 -0.1880  0.9595
 4269TIP3    H212814   2.003   3.825   2.949 -0.8644  0.1626  0.3225
 4270TIP3   OH212815   2.730   1.119   0.572  0.2135  0.3836  0.2543
 4270TIP3    H112816   2.713   1.117   0.666  1.3137  0.1277  0.4661
 4270TIP3    H212817   2.652   1.161   0.534 -0.1224  0.7445  1.3003
 4271TIP3   OH212818   5.973   4.808   4.117  0.3744 -0.2116 -0.5435
 4271TIP3    H112819   6.053   4.757   4.114  2.4412  2.5544  1.5394
 4271TIP3    H212820   5.965   4.847   4.030 -0.7370 -3.0962 -1.8546
 4272TIP3   OH212821   5.326   5.320   1.745 -0.4541  0.3461  0.3909
 4272TIP3    H112822   5.374   5.332   1.827  0.4754 -1.0224  0.0844
 4272TIP3    H212823   5.361   5.387   1.686 -1.6010  1.7740  1.2818
 4273TIP3   OH212824   2.498   1.093   1.284 -0.0569 -0.4541 -0.2824
 4273TIP3    H112825   2.477   1.057   1.371  0.3545  1.3414  0.6012
 4273TIP3    H212826   2.554   1.026   1.244  1.6991 -0.3278  1.7876
 4274TIP3   OH212827   2.036   3.693   5.116 -0.4414  0.4844 -0.8054
 4274TIP3    H112828   2.087   3.760   5.161  0.4928 -0.6870 -0.0394
 4274TIP3    H212829   1.967   3.670   5.178 -0.3037  0.2124 -0.7511
 4275TIP3   OH212830   3.241   4.220   2.314 -0.1431 -0.6228  0.1746
 4275TIP3    H112831   3.327   4.260   2.330 -0.3460 -0.7200  1.6702
 4275TIP3    H212832   3.227   4.162   2.390 -0.1057 -3.1655 -1.6381
 4276TIP3   OH212833   0.662   1.863   1.989  0.2472 -0.0955 -0.0973
 4276TIP3    H112834   0.701   1.950   1.981  1.2554 -0.3923  1.2238
 4276TIP3    H212835   0.722   1.815   2.046 -0.7955 -1.3614 -0.0135
 4277TIP3   OH212836   2.579   5.250   1.736  0.3211 -0.2207  0.0668
 4277TIP3    H112837   2.652   5.188   1.737  1.4695  0.9892 -1.7115
 4277TIP3    H212838   2.614   5.329   1.777 -0.5746 -0.1745  0.7744
 4278TIP3   OH212839   0.132   3.836   3.816 -0.1160 -0.0047 -0.2945
 4278TIP3    H112840   0.198   3.823   3.748  2.0781  0.0726  1.7211
 4278TIP3    H212841   0.086   3.753   3.821 -0.6193  0.1210 -2.1188
 4279TIP3   OH212842   5.510   1.019   1.579 -0.3274 -0.2167  0.7868
 4279TIP3    H112843   5.585   1.030   1.521 -1.1313  0.0630 -0.2290
 4279TIP3    H212844   5.435   1.048   1.527 -1.1773 -0.7356  1.6853
 4280TIP3   OH212845   4.398   2.207   3.701  0.2410 -0.1993  0.0724
 4280TIP3    H112846   4.356   2.208   3.615 -0.3338 -0.0153  0.3518
 4280TIP3    H212847   4.473   2.267   3.691 -1.1603  1.7086  0.3408
 4281TIP3   OH212848   4.202   2.023   1.427  0.3668  0.5269 -0.4198
 4281TIP3    H112849   4.260   1.993   1.357  1.9766 -0.5702  1.2975
 4281TIP3    H212850   4.257   2.082   1.480 -0.5642  0.7039  0.3803
 4282TIP3   OH212851   5.620   1.363   1.104  0.3514  0.1759  0.6427
 4282TIP3    H112852   5.560   1.358   1.179 -0.0760 -0.4868  0.2687
 4282TIP3    H212853   5.616   1.455   1.076 -0.6840  0.0936  0.4746
 4283TIP3   OH212854   2.381   1.523   0.399 -0.3683 -0.0666  0.0902
 4283TIP3    H112855   2.331   1.481   0.469 -0.8654  0.0671 -0.1820
 4283TIP3    H212856   2.319   1.530   0.327 -0.5632  1.9109  0.4025
 4284TIP3   OH212857   3.733   0.032   2.671 -0.2887 -0.1498  0.2041
 4284TIP3    H112858   3.727   0.121   2.705  0.3242  0.1439 -0.4251
 4284TIP3    H212859   3.709   0.040   2.578  2.4515 -0.1238 -0.5981
 4285TIP3   OH212860   5.941   5.636   0.205  0.5794  0.4003  0.4818
 4285TIP3    H112861   5.885   5.567   0.169 -0.5186  1.2913  0.4451
 4285TIP3    H212862   5.900   5.661   0.288 -0.1118  2.2780 -0.3675
 4286TIP3   OH212863   1.708   5.660   4.038  0.2610  0.3709 -0.0936
 4286TIP3    H112864   1.788   5.642   3.990  0.4717 -0.8188  0.6715
 4286TIP3    H212865   1.714   5.753   4.059  2.5135 -0.1101  1.8088
 4287TIP3   OH212866   2.145   3.620   3.321  0.0197  0.0489 -0.0343
 4287TIP3    H112867   2.182   3.561   3.387 -1.9557  0.2573  1.3145
 4287TIP3    H212868   2.059   3.583   3.302  0.2440  0.4323 -1.9783
 4288TIP3   OH212869   3.548   5.848   4.715 -0.0114 -0.3051 -0.1851
 4288TIP3    H112870   3.563   5.837   4.809  1.0693  1.8575 -0.0418
 4288TIP3    H212871   3.480   5.915   4.709 -0.2969 -0.6435 -0.9732
 4289TIP3   OH212872   5.937   5.054   4.852  0.0322 -0.3681 -0.3980
 4289TIP3    H112873   5.909   4.975   4.898  0.6897 -1.7181 -2.2282
 4289TIP3    H212874   5.982   5.022   4.774  1.7105  1.7960 -0.4050
 4290TIP3   OH212875   2.780   3.812   1.475 -0.1907 -0.3066  0.4198
 4290TIP3    H112876   2.708   3.749   1.464 -1.5767  1.2098  0.3950
 4290TIP3    H212877   2.824   3.813   1.390 -1.4644  0.2677 -0.2615
 4291TIP3   OH212878   2.301   0.669   4.865 -0.1767  0.2916  0.8641
 4291TIP3    H112879   2.258   0.618   4.934  0.3845  1.4947  2.1556
 4291TIP3    H212880   2.292   0.616   4.786 -2.3461 -0.3512  1.4819
 4292TIP3   OH212881   5.384   4.073   2.447  0.4029 -0.6724  0.3671
 4292TIP3    H112882   5.296   4.066   2.484  0.7889 -1.1955  1.2342
 4292TIP3    H212883   5.384   4.155   2.399 -0.9237 -1.2445 -0.6550
 4293TIP3   OH212884   2.376   4.725   2.315 -1.0302 -0.1605  0.0278
 4293TIP3    H112885   2.387   4.648   2.260  2.1442 -0.0181  0.2814
 4293TIP3    H212886   2.376   4.691   2.404 -0.6779  0.0294  0.1035
 4294TIP3   OH212887   4.665   0.798   1.475  0.1355  0.1687 -0.3477
 4294TIP3    H112888   4.725   0.827   1.543  0.4625 -0.3679 -0.3997
 4294TIP3    H212889   4.716   0.736   1.422 -0.8188 -1.3113  0.3893
 4295TIP3   OH212890   1.260   4.905   0.772  0.1213 -0.0121 -0.2916
 4295TIP3    H112891   1.320   4.841   0.733  2.0907  1.4689  0.1489
 4295TIP3    H212892   1.182   4.854   0.794  1.1193 -1.9981 -1.0797
 4296TIP3   OH212893   5.188   3.527   1.122  0.8565 -0.4958  0.4988
 4296TIP3    H112894   5.256   3.508   1.057  2.2418  0.8242  1.4924
 4296TIP3    H212895   5.112   3.555   1.070  1.2049 -1.5081 -0.6095
 4297TIP3   OH212896   6.145   3.063   3.875 -0.1165  0.2017 -0.0552
 4297TIP3    H112897   6.144   3.001   3.948  1.0793 -1.4929 -1.4041
 4297TIP3    H212898   6.181   3.144   3.913  2.0667 -1.1292  0.9144
 4298TIP3   OH212899   2.047   2.648   0.604  0.2439 -0.0897  0.0708
 4298TIP3    H112900   1.956   2.654   0.573 -0.8466 -0.5425  2.8634
 4298TIP3    H212901   2.094   2.713   0.552 -1.5784 -0.1086 -1.7411
 4299TIP3   OH212902   2.426   0.619   4.361  0.0341  0.0836 -0.1066
 4299TIP3    H112903   2.346   0.628   4.309 -0.5823 -0.8252  0.6489
 4299TIP3    H212904   2.492   0.587   4.298 -0.4564 -0.1132 -0.5311
 4300TIP3   OH212905   2.148   5.657   2.760 -0.0858 -0.1759  0.0741
 4300TIP3    H112906   2.081   5.709   2.716  0.0606 -1.4860 -1.8247
 4300TIP3    H212907   2.122   5.566   2.743 -0.1470 -0.8091  2.9799
 4301TIP3   OH212908   0.157   2.571   3.574 -0.2920 -0.1738  0.3219
 4301TIP3    H112909   0.068   2.593   3.601  0.8646  2.2961  2.6954
 4301TIP3    H212910   0.171   2.483   3.607 -1.9548 -0.8154 -0.5422
 4302TIP3   OH212911   5.130   3.837   0.864 -0.4464 -0.3674  0.0460
 4302TIP3    H112912   5.117   3.744   0.883  0.0397 -0.7155 -1.2283
 4302TIP3    H212913   5.223   3.845   0.842 -0.0234  0.7875  1.9961
 4303TIP3   OH212914   4.265   1.779   0.265 -1.0382  0.0214  1.1703
 4303TIP3    H112915   4.192   1.726   0.297 -1.7541  0.2308 -0.0552
 4303TIP3    H212916   4.223   1.853   0.221 -0.0684  0.5064  1.0446
 4304TIP3   OH212917   2.322   4.304   0.901  0.2748 -0.2749 -0.2662
 4304TIP3    H112918   2.265   4.249   0.954  0.3446 -0.2460 -0.1605
 4304TIP3    H212919   2.373   4.354   0.965 -0.8282  1.0121 -0.3483
 4305TIP3   OH212920   1.603   5.910   1.719 -0.1369  0.5126 -0.3225
 4305TIP3    H112921   1.648   5.987   1.755  0.0836 -0.3728  1.4077
 4305TIP3    H212922   1.584   5.933   1.629  1.9244  1.7512 -0.5023
 4306TIP3   OH212923   0.643   0.258   3.620 -0.2757 -0.5631  0.3688
 4306TIP3    H112924   0.710   0.302   3.674  0.7045 -0.6106 -0.7722
 4306TIP3    H212925   0.648   0.302   3.535  0.2644 -2.4145 -0.6050
 4307TIP3   OH212926   4.022   4.495   0.136  0.0519 -0.8949 -0.4173
 4307TIP3    H112927   4.086   4.492   0.065  0.5906 -1.1397  0.0711
 4307TIP3    H212928   4.044   4.419   0.190 -0.2611 -0.6247  0.0891
 4308TIP3   OH212929   1.731   0.363   2.188  0.2463  0.1420  0.1973
 4308TIP3    H112930   1.717   0.452   2.156  1.1503  0.3020  0.2281
 4308TIP3    H212931   1.705   0.367   2.281 -2.4063 -0.3342 -0.4374
 4309TIP3   OH212932   2.766   0.299   2.306 -0.1273 -0.2342 -0.4627
 4309TIP3    H112933   2.711   0.377   2.312 -0.0362 -0.1284 -0.9789
 4309TIP3    H212934   2.726   0.237   2.368 -0.9540 -0.2335 -0.9725
 4310TIP3   OH212935   4.132   3.291   2.056  0.3513 -0.0791  0.5411
 4310TIP3    H112936   4.048   3.334   2.072  0.0558 -0.2334 -0.5240
 4310TIP3    H212937   4.184   3.357   2.012 -0.5018 -1.0947 -2.1749
 4311TIP3   OH212938   4.729   3.579   3.154 -0.1614 -0.0339 -0.0350
 4311TIP3    H112939   4.765   3.492   3.174 -1.0767  0.2728  3.8076
 4311TIP3    H212940   4.635   3.564   3.144 -0.3931  0.5407  1.1645
 4312TIP3   OH212941   2.457   5.030   3.968 -0.2722  0.2317 -0.7446
 4312TIP3    H112942   2.553   5.028   3.971 -0.2264  0.1472 -1.7707
 4312TIP3    H212943   2.430   4.941   3.991 -0.0183 -0.2434 -2.1719
 4313TIP3   OH212944   0.716   2.856   3.488 -0.5726 -0.0114 -0.3915
 4313TIP3    H112945   0.763   2.787   3.535 -2.3301 -0.0671  1.4526
 4313TIP3    H212946   0.775   2.882   3.417  1.7800 -0.7392  1.1655
 4314TIP3   OH212947   5.915   2.899   0.819 -0.0260  0.0595 -0.3901
 4314TIP3    H112948   5.880   2.882   0.732  0.1529 -3.8246  0.1048
 4314TIP3    H212949   5.842   2.877   0.878  1.0602 -1.4666  0.4630
 4315TIP3   OH212950   5.943   4.045   4.758  0.0174 -0.0358  0.3592
 4315TIP3    H112951   5.908   3.971   4.808 -1.1134  1.7894  2.4661
 4315TIP3    H212952   5.998   4.092   4.820  0.9324  0.7645 -1.0095
 4316TIP3   OH212953   4.999   0.705   2.733 -0.4056 -0.0658  0.4310
 4316TIP3    H112954   4.916   0.670   2.701  0.3490  0.7629 -2.7703
 4316TIP3    H212955   5.061   0.633   2.722 -0.0337  0.3888 -0.5800
 4317TIP3   OH212956   3.401   0.915   2.492  0.3801  0.0607 -0.0303
 4317TIP3    H112957   3.427   0.824   2.482  1.3082  0.4047 -1.0146
 4317TIP3    H212958   3.409   0.933   2.585 -1.2469 -1.2517  0.4109
 4318TIP3   OH212959   5.296   0.874   0.207 -0.2059 -0.0427  0.4460
 4318TIP3    H112960   5.238   0.903   0.137 -0.8454 -2.0386  0.1017
 4318TIP3    H212961   5.316   0.783   0.187  0.8137 -0.2261  2.0661
 4319TIP3   OH212962   0.184   5.073   3.455 -0.2275 -0.4939 -0.2875
 4319TIP3    H112963   0.156   5.145   3.512 -0.2118 -1.0151  0.3863
 4319TIP3    H212964   0.180   5.110   3.367 -0.6498  0.1970  0.0110
 4320TIP3   OH212965   4.597   0.011   1.167  0.3342  0.5279  0.1631
 4320TIP3    H112966   4.584   0.105   1.172  1.4851  0.7272 -0.3020
 4320TIP3    H212967   4.686   0.000   1.132  0.1806 -0.7241  0.0962
 4321TIP3   OH212968   4.137   1.867   2.010  0.3613  0.0093 -0.2340
 4321TIP3    H112969   4.046   1.876   1.982 -0.0778  2.8892  1.6484
 4321TIP3    H212970   4.186   1.925   1.952  0.5571  0.4380  0.3463
 4322TIP3   OH212971   5.066   0.325   4.523  0.3532 -0.0761 -0.1371
 4322TIP3    H112972   5.037   0.290   4.439 -0.0834 -0.2119  0.0698
 4322TIP3    H212973   5.050   0.419   4.516  1.3934  0.0765 -0.6389
 4323TIP3   OH212974   5.820   2.883   3.735  0.2710 -0.1805  0.5391
 4323TIP3    H112975   5.745   2.916   3.784  0.3611  2.0261 -0.7057
 4323TIP3    H212976   5.802   2.789   3.724 -1.1251 -0.1601  2.2614
 4324TIP3   OH212977   0.529   0.319   0.153  0.1152  0.8639 -0.2250
 4324TIP3    H112978   0.488   0.232   0.156 -1.1347  1.4378  2.9665
 4324TIP3    H212979   0.620   0.303   0.178 -0.4841  0.5672  1.9588
 4325TIP3   OH212980   2.157   4.419   3.392  0.5532  0.2222  0.0818
 4325TIP3    H112981   2.202   4.399   3.309  0.6510  1.4539 -0.1694
 4325TIP3    H212982   2.227   4.443   3.452  0.3043  1.3684 -0.0811
 4326TIP3   OH212983   6.306   0.171   0.612 -0.5653  0.4816  0.2424
 4326TIP3    H112984   6.335   0.135   0.528  0.3859 -0.0950  0.8013
 4326TIP3    H212985   6.354   0.120   0.677  0.8831  2.7518  1.0661
 4327TIP3   OH212986   2.730   1.662   1.901 -0.1028  0.7458 -0.1302
 4327TIP3    H112987   2.676   1.740   1.909 -0.5952  0.2441  2.3621
 4327TIP3    H212988   2.820   1.694   1.906 -0.2998  1.1795  0.9067
 4328TIP3   OH212989   4.412   2.727   0.991 -0.2707  0.2374 -0.0027
 4328TIP3    H112990   4.355   2.756   0.920 -1.6793 -0.8816  0.6133
 4328TIP3    H212991   4.498   2.765   0.971 -0.8726  0.7505 -1.7512
 4329TIP3   OH212992   3.969   1.600   0.679 -0.1299  0.1643 -0.4504
 4329TIP3    H112993   3.876   1.601   0.700  0.0383 -1.0038  0.4446
 4329TIP3    H212994   4.013   1.616   0.762  0.4771  1.2963 -0.9673
 4330TIP3   OH212995   2.124   5.888   3.582  0.6731 -0.3144 -0.4101
 4330TIP3    H112996   2.167   5.821   3.529  3.3799  1.9353 -1.3273
 4330TIP3    H212997   2.090   5.951   3.518  1.7334  1.1619  0.4224
 4331TIP3   OH212998   3.251   0.987   1.490 -0.5435 -0.4859 -0.4477
 4331TIP3    H112999   3.323   0.994   1.553  0.6006 -2.7433 -1.4017
 4331TIP3    H213000   3.265   1.059   1.430  0.5748 -0.5311 -0.2609
 4332TIP3   OH213001   2.492   3.837   1.656 -0.1886  0.2290  0.7152
 4332TIP3    H113002   2.475   3.924   1.619  1.5570  0.2711 -0.1045
 4332TIP3    H213003   2.447   3.777   1.597  1.7586  0.3710 -1.0348
 4333TIP3   OH213004   5.452   2.317   2.487  0.2540 -0.0438 -0.2534
 4333TIP3    H113005   5.514   2.334   2.416 -0.0350  2.0306 -0.0597
 4333TIP3    H213006   5.471   2.227   2.514  1.0679 -0.5340 -2.2488
 4334TIP3   OH213007   5.546   2.856   4.889 -0.1779 -0.3113 -0.1370
 4334TIP3    H113008   5.611   2.875   4.956  0.6613  0.1486 -1.0593
 4334TIP3    H213009   5.571   2.771   4.854 -0.2648 -0.2823 -0.2708
 4335TIP3   OH213010   1.324   3.964   2.690  0.6610  0.3190 -0.8001
 4335TIP3    H113011   1.412   3.989   2.718  0.8160  0.8253 -1.7206
 4335TIP3    H213012   1.272   3.967   2.770  1.7360 -1.2438  0.0258
 4336TIP3   OH213013   5.538   2.103   1.363  0.3887 -0.5635 -0.2398
 4336TIP3    H113014   5.580   2.018   1.358  0.5150 -0.5726  0.6948
 4336TIP3    H213015   5.602   2.158   1.409 -0.6450 -0.6085  1.3193
 4337TIP3   OH213016   1.520   4.970   3.862 -0.1608  0.6772  0.1403
 4337TIP3    H113017   1.548   4.959   3.771 -2.6482  0.1014 -0.6258
 4337TIP3    H213018   1.460   5.045   3.859 -1.4995 -0.3194  0.9717
 4338TIP3   OH213019   2.265   3.653   3.062 -0.3039 -0.3030  0.0342
 4338TIP3    H113020   2.227   3.655   3.149  0.4010 -0.4399  0.3523
 4338TIP3    H213021   2.197   3.689   3.005 -0.2946  1.0165  0.8242
 4339TIP3   OH213022   4.851   4.755   1.511  0.2777  0.2412  0.3131
 4339TIP3    H113023   4.798   4.742   1.433 -0.0943  0.8731  0.4598
 4339TIP3    H213024   4.941   4.739   1.482  0.1394  0.4755 -0.2383
 4340TIP3   OH213025   2.683   0.314   0.858  0.2349  0.2634 -0.7860
 4340TIP3    H113026   2.730   0.394   0.882  0.2332 -0.1989  0.8873
 4340TIP3    H213027   2.602   0.318   0.909  0.6651 -1.2358  0.0606
 4341TIP3   OH213028   3.842   1.317   4.217 -0.6971 -0.1659 -0.0227
 4341TIP3    H113029   3.846   1.236   4.167 -0.5427 -0.5280  0.5698
 4341TIP3    H213030   3.929   1.326   4.257 -0.6893  0.3269 -0.1453
 4342TIP3   OH213031   2.919   1.007   4.112 -0.0304 -0.1203  0.1338
 4342TIP3    H113032   2.925   0.914   4.090 -0.3326  0.5443 -3.2145
 4342TIP3    H213033   2.828   1.030   4.095  0.1993  0.9486  0.2954
 4343TIP3   OH213034   0.064   2.596   2.259  0.2300 -0.0836  0.4669
 4343TIP3    H113035   0.133   2.534   2.283 -0.6088 -1.0644  0.4247
 4343TIP3    H213036   0.085   2.676   2.307  1.7670 -0.1354 -0.0821
 4344TIP3   OH213037   5.926   5.668   2.182 -0.0906  0.0187 -0.4665
 4344TIP3    H113038   5.914   5.591   2.126  1.6782 -0.3782 -0.3301
 4344TIP3    H213039   6.013   5.701   2.159 -1.8369  3.7735 -2.7103
 4345TIP3   OH213040   2.830   3.601   1.143  0.1513  0.2336  0.4788
 4345TIP3    H113041   2.895   3.558   1.199  0.6674 -0.0669 -0.3373
 4345TIP3    H213042   2.860   3.692   1.138  0.4070  0.1404  0.2666
 4346TIP3   OH213043   4.173   5.380   2.612 -0.5965 -0.0253 -0.0592
 4346TIP3    H113044   4.141   5.462   2.651  0.9109 -0.0270  1.2798
 4346TIP3    H213045   4.143   5.312   2.673 -2.0206 -0.5301 -1.2749
 4347TIP3   OH213046   4.377   3.384   3.452 -0.8467  0.1575 -0.2761
 4347TIP3    H113047   4.365   3.318   3.521  0.0951  1.7253  1.4834
 4347TIP3    H213048   4.465   3.420   3.468 -0.2122 -0.0247 -2.8817
 4348TIP3   OH213049   1.415   5.691   2.952  0.0039  0.5042 -0.3462
 4348TIP3    H113050   1.394   5.734   2.869 -1.3551  0.3959 -0.0784
 4348TIP3    H213051   1.510   5.698   2.959  0.0819  1.0286 -1.6290
 4349TIP3   OH213052   1.109   1.368   4.100 -0.6305  0.4455 -0.5325
 4349TIP3    H113053   1.135   1.447   4.148  1.2762  0.0534 -0.8449
 4349TIP3    H213054   1.141   1.296   4.153 -0.8313 -0.0611 -1.0899
 4350TIP3   OH213055   2.847   2.538   0.600  0.3988  0.6243 -0.7406
 4350TIP3    H113056   2.789   2.509   0.529  0.6027  0.6073 -0.9037
 4350TIP3    H213057   2.893   2.458   0.628 -1.5275  0.1057  1.1800
 4351TIP3   OH213058   5.071   1.617   2.680 -0.6483  0.0210 -0.6912
 4351TIP3    H113059   5.159   1.635   2.648  0.9292 -2.1985  1.9231
 4351TIP3    H213060   5.047   1.534   2.639 -0.3382 -0.7359  0.6013
 4352TIP3   OH213061   3.251   5.749   2.062  0.0179 -0.2718 -0.0937
 4352TIP3    H113062   3.191   5.764   1.990  0.8677  1.6892 -0.4575
 4352TIP3    H213063   3.197   5.713   2.132 -1.1827 -0.3774 -1.0494
 4353TIP3   OH213064   5.015   1.622   1.170 -0.1851 -0.2626 -0.0387
 4353TIP3    H113065   4.987   1.714   1.165 -0.3030 -0.3538 -1.2627
 4353TIP3    H213066   5.111   1.627   1.175 -0.1328 -0.0861 -1.0569
 4354TIP3   OH213067   5.482   2.529   4.037  0.2732  0.2671  0.1673
 4354TIP3    H113068   5.561   2.494   4.078 -0.0451 -0.8081 -0.1156
 4354TIP3    H213069   5.510   2.551   3.948  0.5061  0.8737  0.3856
 4355TIP3   OH213070   0.593   5.643   5.186  0.1113  0.1807 -0.0868
 4355TIP3    H113071   0.604   5.657   5.092  1.0540  0.1576  0.0135
 4355TIP3    H213072   0.555   5.556   5.194 -0.1897  0.2786 -0.4556
 4356TIP3   OH213073   4.037   0.045   2.596 -0.3829  0.1397  0.6482
 4356TIP3    H113074   4.049   0.081   2.684  0.2162  0.1545  0.5689
 4356TIP3    H213075   4.007  -0.044   2.610 -2.9915  0.9771  0.8474
 4357TIP3   OH213076   1.778   4.957   1.173 -0.3235 -0.1632  0.0093
 4357TIP3    H113077   1.696   5.003   1.159 -1.0989 -1.9876 -2.0917
 4357TIP3    H213078   1.841   5.025   1.197 -1.9983  1.5345 -0.2183
 4358TIP3   OH213079   2.509   1.228   0.445 -0.4510  0.2386  0.1899
 4358TIP3    H113080   2.444   1.218   0.376  0.0430  3.2857 -0.8474
 4358TIP3    H213081   2.459   1.255   0.522 -0.5408  2.2060 -0.5045
 4359TIP3   OH213082   2.266   4.788   3.546 -0.1210  0.1589 -0.0941
 4359TIP3    H113083   2.351   4.744   3.548  0.2482  0.6879 -2.1128
 4359TIP3    H213084   2.239   4.784   3.455 -0.4738  3.3228 -0.2171
 4360TIP3   OH213085   0.738   2.147   0.618 -0.5059  0.4198  0.2521
 4360TIP3    H113086   0.792   2.175   0.544 -1.1823  2.0768  0.3371
 4360TIP3    H213087   0.650   2.179   0.597 -1.3524 -1.5803  0.4552
 4361TIP3   OH213088   5.770   2.051   1.697 -0.3827 -0.2570  0.1659
 4361TIP3    H113089   5.795   2.144   1.695 -2.5912  0.3883 -0.2780
 4361TIP3    H213090   5.677   2.052   1.718 -0.7169 -2.3365 -0.9908
 4362TIP3   OH213091   1.665   1.948   3.117 -0.8003 -0.1858 -0.1733
 4362TIP3    H113092   1.682   1.936   3.023  0.3515 -0.1467  0.0127
 4362TIP3    H213093   1.571   1.935   3.126 -0.7057 -1.7639 -1.1007
 4363TIP3   OH213094   5.394   1.504   4.234 -0.4827  0.5806  0.2539
 4363TIP3    H113095   5.317   1.517   4.289 -1.5940 -0.5726 -0.9444
 4363TIP3    H213096   5.439   1.428   4.273 -1.2835 -0.2512 -0.3863
 4364TIP3   OH213097   1.301   3.366   4.682 -0.2726 -1.1103  0.4125
 4364TIP3    H113098   1.381   3.394   4.727 -0.1279 -0.5912 -0.1665
 4364TIP3    H213099   1.259   3.447   4.653 -0.0980 -1.4367 -0.8353
 4365TIP3   OH213100   2.711   4.138   4.378  0.3067 -0.2911  0.4259
 4365TIP3    H113101   2.774   4.155   4.308  0.3806 -0.3077  0.4879
 4365TIP3    H213102   2.633   4.106   4.333  0.2422  0.0084  0.3258
 4366TIP3   OH213103   6.165   3.920   1.906  0.4853 -0.4485  0.6385
 4366TIP3    H113104   6.106   3.878   1.968 -2.0262  1.9421  0.0821
 4366TIP3    H213105   6.252   3.914   1.946 -0.5237 -1.8625  2.7477
 4367TIP3   OH213106   3.960   3.582   3.650  0.5760 -0.7648 -0.1582
 4367TIP3    H113107   4.010   3.515   3.602  1.0399 -1.0527  0.6975
 4367TIP3    H213108   3.887   3.534   3.689 -0.3964 -0.3445 -1.4031
 4368TIP3   OH213109   1.067   1.025   3.888 -0.4998 -0.0859  0.5901
 4368TIP3    H113110   1.046   1.064   3.803 -0.3562 -1.1606  0.0477
 4368TIP3    H213111   1.155   1.055   3.908 -0.9626  1.1271  0.9425
 4369TIP3   OH213112   4.871   3.246   2.182  0.3873  0.1840 -0.2490
 4369TIP3    H113113   4.819   3.237   2.262  0.5503  1.1980 -0.0131
 4369TIP3    H213114   4.926   3.168   2.179 -0.0033 -0.1153  0.3487
 4370TIP3   OH213115   4.827   3.497   2.095  0.0587 -0.1879  0.4327
 4370TIP3    H113116   4.810   3.410   2.132 -0.7152 -0.1406  0.2192
 4370TIP3    H213117   4.823   3.556   2.171  0.5639 -0.3364  0.5748
 4371TIP3   OH213118   2.149   0.824   3.114 -0.1656 -0.1647  0.3076
 4371TIP3    H113119   2.110   0.749   3.070 -2.4671  1.0219  0.1740
 4371TIP3    H213120   2.194   0.872   3.046 -2.0024  0.5871 -0.4513
 4372TIP3   OH213121   6.292   5.921   4.506 -0.3831 -0.4164 -0.2426
 4372TIP3    H113122   6.236   5.949   4.434  0.5567 -0.7512 -1.1333
 4372TIP3    H213123   6.341   5.846   4.471 -0.8753 -1.4519  1.1972
 4373TIP3   OH213124   2.590   2.917   4.401 -0.1258 -0.1838 -0.1320
 4373TIP3    H113125   2.527   2.972   4.447  0.4246  0.1053  0.2870
 4373TIP3    H213126   2.621   2.856   4.467 -2.0480 -2.2243 -0.9926
 4374TIP3   OH213127   6.013   4.087   3.054  0.3314  0.4166  0.2372
 4374TIP3    H113128   6.081   4.043   3.003  0.4346 -0.7667  1.3539
 4374TIP3    H213129   5.932   4.042   3.031  0.3236  0.1171  0.8230
 4375TIP3   OH213130   0.502   0.934   2.493 -0.3833 -0.8868 -0.2997
 4375TIP3    H113131   0.548   0.939   2.577 -0.3086  0.0628 -0.3852
 4375TIP3    H213132   0.499   0.840   2.473 -0.1106 -1.0989  0.5986
 4376TIP3   OH213133   2.834   4.713   4.261 -0.4849 -0.0758  0.8010
 4376TIP3    H113134   2.741   4.725   4.244 -0.1919  1.1437  0.0335
 4376TIP3    H213135   2.878   4.780   4.209  0.7321  0.4484  2.4171
 4377TIP3   OH213136   4.236   4.518   0.534 -0.0532  0.2712  0.7292
 4377TIP3    H113137   4.318   4.535   0.581 -0.1674 -1.0583  1.4483
 4377TIP3    H213138   4.205   4.434   0.568 -2.0475  1.0345  0.9209
 4378TIP3   OH213139   5.271   0.766   4.644  0.2701  0.1719 -0.1327
 4378TIP3    H113140   5.194   0.710   4.636 -1.2962  2.0971  0.7554
 4378TIP3    H213141   5.294   0.763   4.737  0.9667  0.0414 -0.3005
 4379TIP3   OH213142   2.580   5.472   1.418  0.0160 -0.1279  0.5516
 4379TIP3    H113143   2.564   5.531   1.345  1.3667  0.3035  0.5842
 4379TIP3    H213144   2.515   5.497   1.484  0.5931  1.3736  0.5895
 4380TIP3   OH213145   3.614   3.589   4.554 -0.0656 -0.1570 -0.4139
 4380TIP3    H113146   3.640   3.522   4.489  0.0685  0.4470 -0.9929
 4380TIP3    H213147   3.581   3.538   4.628  1.7212 -0.9414 -0.0870
 4381TIP3   OH213148   4.087   3.165   3.375  0.9667 -0.2725  0.8061
 4381TIP3    H113149   4.085   3.192   3.283 -1.5361 -0.3624  0.7682
 4381TIP3    H213150   4.039   3.083   3.377  0.1804  0.1958  2.3208
 4382TIP3   OH213151   1.015   4.932   0.978  0.0636 -0.2491 -0.3338
 4382TIP3    H113152   0.923   4.934   1.004  0.3059  2.6504  0.6890
 4382TIP3    H213153   1.018   4.980   0.895  0.7141  0.4752  0.0863
 4383TIP3   OH213154   3.788   5.648   0.848 -0.2099  0.0962  0.6894
 4383TIP3    H113155   3.828   5.679   0.767 -0.1395 -0.5518  0.4701
 4383TIP3    H213156   3.787   5.553   0.840  0.4104 -0.0166  1.7364
 4384TIP3   OH213157   4.166   0.702   4.156 -0.1173  0.2495 -0.3956
 4384TIP3    H113158   4.152   0.654   4.239  0.8245  2.6510  1.2538
 4384TIP3    H213159   4.259   0.724   4.157 -0.4410  1.7173 -1.3045
 4385TIP3   OH213160   5.691   5.415   3.368  0.0352  0.2723  0.2830
 4385TIP3    H113161   5.687   5.336   3.314  1.0786  0.9701 -0.8844
 4385TIP3    H213162   5.619   5.470   3.335  0.4438  0.5456 -0.1746
 4386TIP3   OH213163   0.067   0.624   1.976  0.1003  0.3618  0.4878
 4386TIP3    H113164   0.125   0.618   1.901  0.2492  0.6347  0.5808
 4386TIP3    H213165  -0.013   0.666   1.943 -0.1850 -0.3259  0.2804
 4387TIP3   OH213166   5.961   5.704   3.241 -0.4561  0.0516 -0.2427
 4387TIP3    H113167   5.917   5.771   3.189  0.0835  0.6268  0.0314
 4387TIP3    H213168   5.989   5.638   3.178 -1.0506  0.0525 -0.5052
 4388TIP3   OH213169   0.872   0.375   3.791  0.2567  0.7820 -0.2025
 4388TIP3    H113170   0.932   0.321   3.841 -0.1648 -0.1656 -0.7057
 4388TIP3    H213171   0.928   0.444   3.755  0.5642  1.4917  1.5292
 4389TIP3   OH213172   0.766   4.976   1.852  0.1117  0.4652 -0.4495
 4389TIP3    H113173   0.693   5.035   1.870  0.8417  1.4167 -0.5610
 4389TIP3    H213174   0.793   4.997   1.763  0.2914 -0.1476 -0.5464
 4390TIP3   OH213175   4.767   1.532   0.943  0.0369  0.3835 -0.6622
 4390TIP3    H113176   4.798   1.442   0.942  1.0347  0.6912 -0.0060
 4390TIP3    H213177   4.820   1.576   0.876  0.0245  0.6128 -0.5223
 4391TIP3   OH213178   4.333   3.171   1.889  0.0316  0.6683 -0.0215
 4391TIP3    H113179   4.278   3.103   1.849  0.0493 -0.2057  1.3577
 4391TIP3    H213180   4.287   3.195   1.969  0.5277  1.6034 -0.0026
 4392TIP3   OH213181   4.657   2.470   1.988 -0.5342 -0.2687  0.0716
 4392TIP3    H113182   4.663   2.526   1.910  2.4366 -2.5780 -1.5907
 4392TIP3    H213183   4.739   2.485   2.035 -0.7410 -1.4628  0.8675
 4393TIP3   OH213184   2.807   3.651   1.741  0.2660 -0.7943 -0.3801
 4393TIP3    H113185   2.790   3.725   1.684  1.1557 -1.0702 -1.0229
 4393TIP3    H213186   2.834   3.580   1.681 -0.9919 -1.7805  0.1626
 4394TIP3   OH213187   4.005   1.381   3.618 -0.2529 -0.3900 -0.0477
 4394TIP3    H113188   4.077   1.326   3.588 -0.7311 -0.6648 -0.7121
 4394TIP3    H213189   4.044   1.468   3.630  0.1968 -0.5471 -0.3489
 4395TIP3   OH213190   0.230   1.576   0.722  0.4045  0.1720 -0.6700
 4395TIP3    H113191   0.266   1.564   0.634 -0.4122 -0.6651 -0.9009
 4395TIP3    H213192   0.158   1.638   0.709  0.1068 -0.1696 -0.6309
 4396TIP3   OH213193   4.097   2.219   2.853 -0.2247 -0.0528 -0.5228
 4396TIP3    H113194   4.148   2.265   2.786 -1.0249  0.7750 -0.5809
 4396TIP3    H213195   4.009   2.255   2.845 -0.7173 -1.1064 -0.0950
 4397TIP3   OH213196   2.630   3.879   3.975  0.0259  0.0831  0.5494
 4397TIP3    H113197   2.656   3.906   3.887  0.9429  1.7010  1.2537
 4397TIP3    H213198   2.589   3.793   3.964 -1.9415  1.1997 -1.7425
 4398TIP3   OH213199   4.277   5.409   0.075 -0.1909 -0.2384  0.2455
 4398TIP3    H113200   4.329   5.358   0.012 -2.1742 -1.5433 -0.4256
 4398TIP3    H213201   4.288   5.500   0.047  0.8763 -0.5755 -0.5182
 4399TIP3   OH213202   0.869   2.055   1.468 -0.1319 -0.4615  0.2467
 4399TIP3    H113203   0.851   2.010   1.385  1.2152 -0.7363  0.0812
 4399TIP3    H213204   0.825   2.002   1.534 -0.6971 -0.5864 -0.2199
 4400TIP3   OH213205   5.141   0.383   1.179  0.4402 -0.1816  0.1266
 4400TIP3    H113206   5.173   0.413   1.094  0.4926 -1.6487 -0.3986
 4400TIP3    H213207   5.175   0.294   1.188  0.8049  0.0840  1.8950
 4401TIP3   OH213208   3.619   4.475   4.193  0.7621  0.4476  0.2136
 4401TIP3    H113209   3.529   4.502   4.177  0.6399  0.1515  0.3899
 4401TIP3    H213210   3.665   4.491   4.110 -0.3721 -3.2173 -1.3451
 4402TIP3   OH213211   1.904   2.909   0.097 -0.6800 -0.0527  0.6383
 4402TIP3    H113212   1.861   2.958   0.167 -0.7250 -0.1011  0.6445
 4402TIP3    H213213   1.875   2.951   0.016  0.7568  1.1563  0.6925
 4403TIP3   OH213214   4.563   0.445   0.196  0.2757 -0.2212 -0.4332
 4403TIP3    H113215   4.543   0.537   0.211  0.0941 -0.5256  1.4179
 4403TIP3    H213216   4.581   0.439   0.102  1.3158  1.8787 -0.4236
 4404TIP3   OH213217   6.084   3.043   2.715 -0.1057  0.5865 -0.5490
 4404TIP3    H113218   6.038   2.974   2.763  0.3791 -0.0221 -0.9395
 4404TIP3    H213219   6.147   2.996   2.661  0.8479  1.3939 -0.1692
 4405TIP3   OH213220   3.481   3.777   1.636  0.2662  0.2097  0.3564
 4405TIP3    H113221   3.449   3.867   1.643 -2.0279 -0.4340 -0.7066
 4405TIP3    H213222   3.410   3.723   1.672  1.4841 -1.2073  0.7478
 4406TIP3   OH213223   0.883   5.222   2.389 -0.1210  0.3708  0.1421
 4406TIP3    H113224   0.906   5.212   2.481  0.8319  2.2293  0.1543
 4406TIP3    H213225   0.966   5.223   2.343 -0.5136  0.8335 -0.5767
 4407TIP3   OH213226   5.145   5.333   4.234  0.4539 -0.0027 -0.1398
 4407TIP3    H113227   5.206   5.340   4.307 -0.3785 -0.3111  0.6007
 4407TIP3    H213228   5.073   5.279   4.267  0.7971 -1.4878 -1.6794
 4408TIP3   OH213229   3.837   1.991   3.729 -0.3785  0.1534  0.0129
 4408TIP3    H113230   3.881   2.004   3.645 -0.7327  1.4616  0.0075
 4408TIP3    H213231   3.756   2.042   3.722 -1.7363 -1.8710  0.1738
 4409TIP3   OH213232   3.710   4.605   2.849 -0.2147 -0.6748 -0.4613
 4409TIP3    H113233   3.624   4.603   2.807 -0.3602  1.9818 -0.4681
 4409TIP3    H213234   3.701   4.547   2.925 -2.8369  1.3055  0.9113
 4410TIP3   OH213235   4.188   2.143   0.997  0.2816 -0.1615  0.1992
 4410TIP3    H113236   4.173   2.238   0.997 -0.6947 -0.2735 -1.7362
 4410TIP3    H213237   4.185   2.118   0.905  2.2625 -1.8497  0.5303
 4411TIP3   OH213238   4.982   2.594   3.676  0.1595 -0.0941 -0.0951
 4411TIP3    H113239   5.071   2.595   3.710  0.0957 -1.2337  0.1406
 4411TIP3    H213240   4.979   2.519   3.617 -0.1241  1.0408 -1.6016
 4412TIP3   OH213241   2.799   5.318   2.993  0.3475 -0.4675  0.0608
 4412TIP3    H113242   2.796   5.261   3.070 -1.3145  0.5889  0.8286
 4412TIP3    H213243   2.875   5.286   2.943  1.6789 -0.9868  2.2573
 4413TIP3   OH213244   0.612   0.607   1.056  0.0132  0.1644  0.0511
 4413TIP3    H113245   0.679   0.540   1.065 -0.5426 -0.4243 -0.1141
 4413TIP3    H213246   0.534   0.560   1.027 -0.4310  0.8577  0.0807
 4414TIP3   OH213247   0.694   3.559   3.634 -0.3368  0.1906 -0.6690
 4414TIP3    H113248   0.742   3.481   3.663  1.2917  1.4312  0.1280
 4414TIP3    H213249   0.661   3.598   3.716  0.7979  1.5211 -0.8069
 4415TIP3   OH213250   5.878   1.001   3.544  0.3356 -0.2658 -0.3703
 4415TIP3    H113251   5.926   0.990   3.462  3.2114  0.4411  1.1045
 4415TIP3    H213252   5.883   1.095   3.563 -1.5220 -0.1969 -0.0411
 4416TIP3   OH213253   1.683   2.581   3.749 -0.0553  0.5187  0.1442
 4416TIP3    H113254   1.730   2.652   3.791  1.5011 -1.5304  2.1527
 4416TIP3    H213255   1.610   2.562   3.809 -1.5706  1.5201 -1.2908
 4417TIP3   OH213256   3.098   4.615   4.317  0.3398  0.3270  0.1757
 4417TIP3    H113257   3.140   4.699   4.303 -1.9353  1.2553 -1.7978
 4417TIP3    H213258   3.007   4.628   4.289  0.4772 -3.4184 -2.8256
 4418TIP3   OH213259   3.736   3.327   3.207 -1.1176  0.8610  0.2284
 4418TIP3    H113260   3.687   3.324   3.125 -1.6623  0.3306  0.5667
 4418TIP3    H213261   3.728   3.418   3.236  2.0018  2.0352 -2.0172
 4419TIP3   OH213262   4.977   3.431   0.580 -0.8357 -0.2599  0.2613
 4419TIP3    H113263   5.068   3.403   0.588 -0.6236  0.0007 -1.0557
 4419TIP3    H213264   4.981   3.515   0.534 -1.6369  0.6992  1.8174
 4420TIP3   OH213265   4.328   5.073   0.533  0.1712  0.2467  0.1487
 4420TIP3    H113266   4.419   5.047   0.531  0.3539  0.8927 -0.4293
 4420TIP3    H213267   4.290   5.025   0.606  1.0916  0.3594  0.7043
 4421TIP3   OH213268   0.443   2.873   1.379  0.1981  0.8960  0.0505
 4421TIP3    H113269   0.422   2.929   1.454 -0.2471  0.7025  0.0726
 4421TIP3    H213270   0.360   2.830   1.357  0.3255  0.9550 -0.5559
 4422TIP3   OH213271   5.922   4.688   3.322 -0.1617 -0.1321  0.1618
 4422TIP3    H113272   5.923   4.739   3.242  1.8546 -3.2898 -2.0537
 4422TIP3    H213273   5.946   4.750   3.391 -0.2890  2.3329 -1.8786
 4423TIP3   OH213274   2.274   0.982   4.102  0.0061  0.0330 -0.8725
 4423TIP3    H113275   2.363   0.976   4.067 -0.8896 -1.2101 -3.1167
 4423TIP3    H213276   2.244   1.070   4.079  0.3856  0.2044 -0.7245
 4424TIP3   OH213277   5.670   5.668   2.791 -0.3405  0.1914  0.7184
 4424TIP3    H113278   5.727   5.709   2.726  0.4983 -0.1073  1.2484
 4424TIP3    H213279   5.585   5.710   2.779 -0.2873 -0.0579 -0.7633
 4425TIP3   OH213280   3.660   2.597   3.086 -0.1357 -0.0717  0.0825
 4425TIP3    H113281   3.640   2.636   3.000 -0.1725 -0.6383 -0.1725
 4425TIP3    H213282   3.607   2.517   3.088  1.0538 -0.8937 -0.0278
 4426TIP3   OH213283   5.106   1.041   2.799 -0.2523 -0.4360 -0.5815
 4426TIP3    H113284   5.072   0.981   2.733 -0.9995 -1.0319  0.3157
 4426TIP3    H213285   5.038   1.109   2.805 -0.8519 -1.0950  0.4988
 4427TIP3   OH213286   1.574   2.565   5.024 -0.1065 -0.4634 -0.6874
 4427TIP3    H113287   1.647   2.620   4.993 -0.0015 -0.5825 -0.6523
 4427TIP3    H213288   1.614   2.505   5.087 -0.1005 -1.0145 -1.2051
 4428TIP3   OH213289   5.528   3.156   0.572  0.0986 -0.2010  0.0297
 4428TIP3    H113290   5.538   3.241   0.530  0.7133 -1.5002 -2.7492
 4428TIP3    H213291   5.588   3.158   0.646 -1.3743  2.4137  1.2940
 4429TIP3   OH213292   3.638   4.741   0.024  0.1435 -0.6156 -0.0523
 4429TIP3    H113293   3.546   4.715   0.026 -0.0232 -0.1205 -0.9365
 4429TIP3    H213294   3.642   4.819   0.079  0.2113 -1.1161  0.6810
 4430TIP3   OH213295   3.786   3.079   1.033 -0.3255 -0.7264 -0.6781
 4430TIP3    H113296   3.780   3.055   1.126  0.3271 -1.0876 -0.7237
 4430TIP3    H213297   3.855   3.145   1.030 -0.4396 -0.6166 -0.8908
 4431TIP3   OH213298   3.290   5.970   0.445 -0.0708 -0.2004 -0.3491
 4431TIP3    H113299   3.296   5.879   0.476  2.2101  0.3738  1.1286
 4431TIP3    H213300   3.365   5.981   0.387  1.3373  1.4012  1.6052
 4432TIP3   OH213301   6.013   5.358   0.294 -0.1367  0.3474  0.1867
 4432TIP3    H113302   5.922   5.347   0.321  0.0336 -0.9025  0.3255
 4432TIP3    H213303   6.008   5.396   0.207 -0.7256  3.1382  1.3373
 4433TIP3   OH213304   3.545   2.646   3.355 -0.3126  0.2854 -0.2322
 4433TIP3    H113305   3.577   2.733   3.378 -1.0422  0.6111 -0.4253
 4433TIP3    H213306   3.577   2.632   3.266 -0.3358  0.4287 -0.2643
 4434TIP3   OH213307   2.133   3.201   2.250 -0.1987 -0.1502 -0.9171
 4434TIP3    H113308   2.178   3.239   2.175 -0.6287  0.1283 -1.0396
 4434TIP3    H213309   2.202   3.155   2.299  0.1092 -0.2055 -1.3962
 4435TIP3   OH213310   5.418   5.911   0.043 -0.4238  0.4484  0.4403
 4435TIP3    H113311   5.402   5.993   0.090 -0.7047  1.8793 -1.9667
 4435TIP3    H213312   5.513   5.902   0.044 -0.4760 -1.0571  3.5212
 4436TIP3   OH213313   5.549   2.334   0.438  0.5303 -0.0364  0.2027
 4436TIP3    H113314   5.476   2.331   0.376  0.7261  0.9691 -0.0934
 4436TIP3    H213315   5.625   2.360   0.385  0.7525  0.5759  0.7977
 4437TIP3   OH213316   5.789   2.084   0.986 -0.1668 -0.1759 -0.6576
 4437TIP3    H113317   5.793   2.147   1.058 -1.8325 -1.5878  0.7848
 4437TIP3    H213318   5.767   2.136   0.909 -1.1070  1.0820  0.4109
 4438TIP3   OH213319   3.020   3.296   4.979  0.0986 -0.6133 -0.0731
 4438TIP3    H113320   3.007   3.276   4.886  0.3942 -0.1573 -0.2172
 4438TIP3    H213321   3.097   3.246   5.003 -0.7449 -1.7853  0.2792
 4439TIP3   OH213322   5.895   2.165   0.269  0.7117  0.1211  0.2531
 4439TIP3    H113323   5.909   2.259   0.267  1.0772  0.0585 -0.6896
 4439TIP3    H213324   5.944   2.132   0.193  2.1279 -1.0407  1.6038
 4440TIP3   OH213325   1.466  -0.001   0.033  0.1119  0.1779 -0.1017
 4440TIP3    H113326   1.555   0.003   0.069 -0.5145 -2.2710  2.0792
 4440TIP3    H213327   1.424   0.079   0.062  1.5770  1.4128 -1.2333
 4441TIP3   OH213328   0.935   4.998   3.757 -0.0261 -0.2857 -0.3424
 4441TIP3    H113329   0.885   5.021   3.835 -2.0848 -0.8690 -1.4065
 4441TIP3    H213330   0.906   5.060   3.690 -0.4021 -1.5209 -1.3643
 4442TIP3   OH213331   5.685   1.092   5.169 -0.2965 -0.2534 -0.1315
 4442TIP3    H113332   5.661   1.014   5.120  2.1507 -0.7708 -0.6567
 4442TIP3    H213333   5.648   1.165   5.119 -0.3906 -0.9512 -1.0864
 4443TIP3   OH213334   3.416   5.514   0.681 -0.2516 -0.1595  0.3170
 4443TIP3    H113335   3.342   5.572   0.701 -0.3545  0.1485 -0.8728
 4443TIP3    H213336   3.491   5.573   0.671 -0.3118 -0.2433 -0.6805
 4444TIP3   OH213337   1.286   4.110   0.993  0.0095 -0.1553 -0.2450
 4444TIP3    H113338   1.367   4.069   1.024  0.7824 -0.4368 -2.4129
 4444TIP3    H213339   1.218   4.044   1.006  0.4664 -0.5748  0.0335
 4445TIP3   OH213340   4.722   0.065   3.171 -0.4074  0.3187  0.4025
 4445TIP3    H113341   4.764   0.135   3.121  2.5775 -1.2429  0.4941
 4445TIP3    H213342   4.681   0.010   3.104 -1.9730  1.5618  0.2686
 4446TIP3   OH213343   3.494   1.361   4.517 -0.3778 -0.2289 -0.0866
 4446TIP3    H113344   3.507   1.269   4.540 -1.2932  0.0562  1.7823
 4446TIP3    H213345   3.399   1.372   4.511 -0.3300  0.7924  0.7042
 4447TIP3   OH213346   5.976   4.849   0.056 -0.4397 -0.2338 -0.0765
 4447TIP3    H113347   6.055   4.848   0.110 -0.4979 -1.2005  0.0031
 4447TIP3    H213348   5.904   4.842   0.118 -0.5678  0.0421 -0.1926
 4448TIP3   OH213349   3.407   3.640   3.136 -0.1217  0.1104 -0.4496
 4448TIP3    H113350   3.497   3.610   3.149 -0.0133  1.1389  1.6460
 4448TIP3    H213351   3.353   3.568   3.168  0.0179  0.1074 -0.2132
 4449TIP3   OH213352   6.063   5.948   1.071 -0.0663  0.3647 -0.2762
 4449TIP3    H113353   6.056   5.953   1.166  1.2382  0.1319 -0.1472
 4449TIP3    H213354   6.150   5.910   1.055 -0.0447  0.8902 -1.5601
 4450TIP3   OH213355   5.967   1.557   1.840  0.1642  0.2380 -0.1577
 4450TIP3    H113356   5.902   1.625   1.822  0.4322  0.2634 -1.0695
 4450TIP3    H213357   5.985   1.565   1.934 -1.7327 -0.2889  0.2856
 4451TIP3   OH213358   2.916   1.834   2.994 -0.0703  0.7611 -0.5531
 4451TIP3    H113359   2.912   1.750   2.947  1.4013 -0.2410  0.9931
 4451TIP3    H213360   2.967   1.891   2.935  1.1567 -0.2577 -0.5356
 4452TIP3   OH213361   4.412   0.461   2.571  0.0185 -0.2099  0.2677
 4452TIP3    H113362   4.381   0.370   2.570 -0.0226 -0.2172  1.1850
 4452TIP3    H213363   4.472   0.467   2.497  0.4901 -1.1538  0.5616
 4453TIP3   OH213364   3.181   1.592   1.285 -0.8243  0.0782 -0.8621
 4453TIP3    H113365   3.168   1.559   1.373  0.1061 -1.8310 -1.3811
 4453TIP3    H213366   3.259   1.648   1.291 -0.7881 -0.0167 -0.4563
 4454TIP3   OH213367   5.493   1.295   0.758  0.1294  0.0174 -0.0400
 4454TIP3    H113368   5.490   1.332   0.670  0.3544 -1.0157 -0.4949
 4454TIP3    H213369   5.405   1.261   0.773  0.5232 -1.3062 -0.5530
 4455TIP3   OH213370   2.410   5.746   3.384 -0.0570 -0.2894  0.4270
 4455TIP3    H113371   2.453   5.756   3.469  1.1595 -0.5035 -0.1435
 4455TIP3    H213372   2.331   5.695   3.403  0.3106 -0.5132  1.3955
 4456TIP3   OH213373   2.475   2.291   1.781 -0.5063 -0.1138 -0.0075
 4456TIP3    H113374   2.446   2.234   1.852 -0.2851  2.6907  2.5533
 4456TIP3    H213375   2.426   2.372   1.793  0.5799  0.9686 -2.2326
 4457TIP3   OH213376   1.769   1.974   2.045  0.6843 -0.2084 -0.0959
 4457TIP3    H113377   1.735   1.976   2.135 -1.8935  0.2812 -1.0004
 4457TIP3    H213378   1.770   2.066   2.019  0.6296 -0.4201 -0.8499
 4458TIP3   OH213379   5.763   1.369   0.771  0.3813 -0.4224 -0.5799
 4458TIP3    H113380   5.668   1.367   0.775  0.3193 -1.7754 -1.6902
 4458TIP3    H213381   5.792   1.352   0.861 -0.4589 -1.4795 -0.4898
 4459TIP3   OH213382   2.391   0.297   4.964  0.8250 -0.0387 -0.5647
 4459TIP3    H113383   2.322   0.244   5.005  1.1613 -1.9506 -2.2844
 4459TIP3    H213384   2.346   0.341   4.891  0.5204  2.2598  0.9245
 4460TIP3   OH213385   5.738   0.664   0.205  0.1009  0.0474  0.2985
 4460TIP3    H113386   5.673   0.612   0.157  0.9279 -0.4014 -0.3586
 4460TIP3    H213387   5.705   0.753   0.200 -0.4104 -0.1566 -0.1251
 4461TIP3   OH213388   5.930   2.881   0.365 -0.1969 -0.4385 -0.0693
 4461TIP3    H113389   5.867   2.894   0.436 -0.0767 -0.0724 -0.0251
 4461TIP3    H213390   5.995   2.820   0.401  0.1651  0.1697  0.3372
 4462TIP3   OH213391   3.323   2.695   1.586  0.0005 -0.5386  0.5366
 4462TIP3    H113392   3.264   2.701   1.511  0.3045  0.2722  0.3528
 4462TIP3    H213393   3.357   2.605   1.583  0.7220 -0.2484 -0.8395
 4463TIP3   OH213394   2.483   2.173   1.511  0.5561  0.2802 -0.2470
 4463TIP3    H113395   2.483   2.245   1.448  1.7256  0.8074  0.3317
 4463TIP3    H213396   2.478   2.215   1.597 -2.0826 -0.4647  0.0421
 4464TIP3   OH213397   2.978   3.897   1.741 -0.0987  0.2941  0.0589
 4464TIP3    H113398   2.907   3.937   1.690 -0.7280 -3.0992 -2.1156
 4464TIP3    H213399   2.936   3.871   1.823 -0.9850 -0.1343 -0.5035
 4465TIP3   OH213400   2.228   2.656   2.766 -0.2875  0.0296 -0.0431
 4465TIP3    H113401   2.163   2.718   2.732 -1.0608 -0.5017  0.4171
 4465TIP3    H213402   2.189   2.570   2.750  0.6476 -0.3391 -0.4285
 4466TIP3   OH213403   2.616   4.876   1.909 -0.1325 -0.2456  0.3728
 4466TIP3    H113404   2.541   4.935   1.912  0.5035  0.5467  1.3932
 4466TIP3    H213405   2.617   4.834   1.995  1.7148  1.2617  1.1773
 4467TIP3   OH213406   2.562   0.294   3.717  0.3380  0.0958 -0.0543
 4467TIP3    H113407   2.537   0.242   3.793 -0.6653 -0.0689 -0.4761
 4467TIP3    H213408   2.498   0.365   3.713 -1.0204 -1.1272 -1.9712
 4468TIP3   OH213409   1.052   5.392   4.273  0.0452 -0.4249 -0.5289
 4468TIP3    H113410   0.967   5.359   4.245  0.2991 -1.4848 -0.1167
 4468TIP3    H213411   1.034   5.478   4.309 -0.7848 -0.4605 -0.8388
 4469TIP3   OH213412   6.170   5.480   3.114 -0.3036  0.0364  0.3661
 4469TIP3    H113413   6.236   5.542   3.082 -1.6201  0.5002 -1.6411
 4469TIP3    H213414   6.220   5.414   3.161  1.9190 -0.9020 -2.9866
 4470TIP3   OH213415   0.492   2.401   3.236  0.3029 -0.8818  0.2142
 4470TIP3    H113416   0.514   2.308   3.234  1.2922 -0.6588 -1.8135
 4470TIP3    H213417   0.496   2.428   3.145 -1.0402  0.9332  0.6453
 4471TIP3   OH213418   5.958   0.044   1.155 -0.0658 -0.2523  0.6676
 4471TIP3    H113419   5.892   0.113   1.162  0.8643  0.6698  0.5687
 4471TIP3    H213420   5.921  -0.030   1.203 -1.5306 -0.0469 -0.0924
 4472TIP3   OH213421   1.568   2.822   2.580  0.2215  0.2743 -0.2488
 4472TIP3    H113422   1.589   2.735   2.547 -0.6270 -0.4872  1.1430
 4472TIP3    H213423   1.653   2.857   2.609  0.9159  0.7739 -2.6068
 4473TIP3   OH213424   0.812   3.673   3.142 -0.1034 -0.6131  0.2712
 4473TIP3    H113425   0.791   3.606   3.208  0.8522 -0.6983  0.5032
 4473TIP3    H213426   0.901   3.651   3.114 -0.4545 -0.5120 -0.9779
 4474TIP3   OH213427   4.190   4.147   5.138 -0.5743  0.0711 -0.1859
 4474TIP3    H113428   4.210   4.220   5.080  1.3386 -0.9585 -0.9023
 4474TIP3    H213429   4.150   4.081   5.081  1.1996 -0.8954 -0.3814
 4475TIP3   OH213430   0.359   1.456   3.443  0.1295 -0.0934  0.1517
 4475TIP3    H113431   0.409   1.528   3.405  1.6725 -0.6800  0.9748
 4475TIP3    H213432   0.312   1.418   3.369 -0.9407  1.8768 -0.2651
 4476TIP3   OH213433   2.915   4.231   2.541 -0.0302  0.4740 -0.0067
 4476TIP3    H113434   2.963   4.205   2.619  0.0831  0.2426 -0.1522
 4476TIP3    H213435   2.878   4.149   2.507  0.0393  0.5507 -0.2742
 4477TIP3   OH213436   4.474   3.898   4.957 -0.2973 -0.1532 -0.4683
 4477TIP3    H113437   4.475   3.984   4.999  1.6145 -0.0662 -0.6158
 4477TIP3    H213438   4.417   3.909   4.880  1.6984  1.6594 -1.7809
 4478TIP3   OH213439   0.692   0.341   1.482 -0.5767 -0.1802 -0.2950
 4478TIP3    H113440   0.761   0.287   1.522  0.5010  1.2578 -0.1044
 4478TIP3    H213441   0.651   0.385   1.556  0.0171  0.8901 -0.5776
 4479TIP3   OH213442   0.992   3.506   3.536 -0.5207 -0.3036 -0.0238
 4479TIP3    H113443   0.954   3.577   3.484  1.1426  0.0576 -0.8523
 4479TIP3    H213444   0.947   3.427   3.506 -1.8432  0.2903  0.3330
 4480TIP3   OH213445   4.099   0.580   3.126 -0.1677 -0.0826 -0.2210
 4480TIP3    H113446   4.046   0.521   3.178  0.0582 -1.3128 -1.3310
 4480TIP3    H213447   4.183   0.535   3.115  0.7856  1.3713  0.6446
 4481TIP3   OH213448   5.610   4.087   2.589 -0.3883  0.0717  0.0206
 4481TIP3    H113449   5.650   4.174   2.584  0.5155 -0.4076 -1.9950
 4481TIP3    H213450   5.542   4.088   2.522 -0.6507 -0.6258  0.2738
 4482TIP3   OH213451   2.653   4.977   2.511  0.2577 -0.1130 -0.2007
 4482TIP3    H113452   2.616   4.918   2.577 -1.0947  2.5979  1.6524
 4482TIP3    H213453   2.577   5.019   2.471  1.1900  1.3807 -0.4713
 4483TIP3   OH213454   6.345   4.814   4.324  0.7424 -0.1301  0.4997
 4483TIP3    H113455   6.312   4.760   4.396  1.3383 -0.5061  0.4922
 4483TIP3    H213456   6.308   4.901   4.341 -0.3557 -0.5599  0.4206
 4484TIP3   OH213457   0.667   1.183   0.561 -0.4532  0.0822  0.5666
 4484TIP3    H113458   0.571   1.186   0.563 -0.5439  1.1113 -1.9435
 4484TIP3    H213459   0.687   1.100   0.519 -0.4107  1.0918 -1.5548
 4485TIP3   OH213460   2.040   0.918   2.607  1.0022  0.7082  0.2084
 4485TIP3    H113461   1.950   0.943   2.628  1.3907  1.9976  0.3767
 4485TIP3    H213462   2.064   0.854   2.675  0.5425  1.0804  0.7224
 4486TIP3   OH213463   6.257   0.993   5.020 -0.1984  0.3188  0.4648
 4486TIP3    H113464   6.206   0.973   4.941  1.4352  0.9177 -0.7828
 4486TIP3    H213465   6.194   1.036   5.078 -1.2407  0.6183 -0.8324
 4487TIP3   OH213466   4.956   5.850   0.213  0.4649 -0.6463  0.1352
 4487TIP3    H113467   4.987   5.811   0.131 -0.4788  0.1278 -0.6052
 4487TIP3    H213468   4.916   5.778   0.261  0.9218 -1.0799 -0.1268
 4488TIP3   OH213469   3.087   3.927   5.161  0.1403 -0.4696  0.1916
 4488TIP3    H113470   3.000   3.966   5.175  0.1379 -0.8599  1.3911
 4488TIP3    H213471   3.128   3.983   5.096 -1.6893 -1.3240 -1.8369
 4489TIP3   OH213472   2.949   4.480   4.911 -0.3153  0.0041 -0.0161
 4489TIP3    H113473   2.922   4.389   4.901  2.8070 -1.1855  1.0923
 4489TIP3    H213474   2.936   4.519   4.824 -1.9474 -1.3964 -0.4429
 4490TIP3   OH213475   3.698   0.370   1.828 -0.1837  0.6440  0.0159
 4490TIP3    H113476   3.648   0.451   1.829  1.0174  1.4239 -0.6445
 4490TIP3    H213477   3.634   0.302   1.850 -0.6707  2.0427  3.5356
 4491TIP3   OH213478   4.187   3.898   0.792 -0.5310 -0.2691 -0.3788
 4491TIP3    H113479   4.246   3.824   0.776 -1.2029 -0.3795 -2.8025
 4491TIP3    H213480   4.225   3.970   0.741 -2.4566 -0.3922 -2.1384
 4492TIP3   OH213481   4.247   0.931   1.407 -0.5226 -0.2220 -0.0158
 4492TIP3    H113482   4.237   1.019   1.445 -0.2396 -0.1809 -0.0295
 4492TIP3    H213483   4.210   0.938   1.319  1.6295  0.5563 -0.9407
 4493TIP3   OH213484   4.894   3.587   1.842  0.2303  0.3147 -0.0918
 4493TIP3    H113485   4.872   3.505   1.799 -0.7208  0.8426 -0.6430
 4493TIP3    H213486   4.860   3.577   1.931  1.3842 -0.4230  0.2844
 4494TIP3   OH213487   3.906   0.587   3.755  0.1751 -0.2632 -0.1048
 4494TIP3    H113488   3.892   0.536   3.835  0.2041 -0.6150 -0.3211
 4494TIP3    H213489   3.858   0.668   3.770  0.9246  0.0601  0.6399
 4495TIP3   OH213490   0.359   4.287   1.383 -0.6580  0.1575  0.6566
 4495TIP3    H113491   0.297   4.238   1.329 -0.5675 -3.1003  3.2193
 4495TIP3    H213492   0.444   4.271   1.342 -0.9353  0.4998 -0.0704
 4496TIP3   OH213493   0.299   3.781   4.845  0.0675  0.0304  0.2869
 4496TIP3    H113494   0.207   3.771   4.822  0.1683  1.5862 -0.9824
 4496TIP3    H213495   0.347   3.745   4.770  0.5019 -0.3252  0.7233
 4497TIP3   OH213496   2.412   4.576   3.210 -0.1895  0.0128 -0.1614
 4497TIP3    H113497   2.466   4.588   3.132 -0.3240 -0.7401 -0.3800
 4497TIP3    H213498   2.360   4.498   3.191 -0.8452  0.3202  0.3340
 4498TIP3   OH213499   0.694   0.876   4.840 -0.2050  0.2595  0.1510
 4498TIP3    H113500   0.757   0.837   4.900  0.9520  2.2261  0.3024
 4498TIP3    H213501   0.684   0.966   4.870  0.6122  1.4106 -2.6533
 4499TIP3   OH213502   3.992   5.385   4.325  0.0812  0.1683 -0.1581
 4499TIP3    H113503   4.073   5.434   4.338 -0.4863  1.0460  0.1612
 4499TIP3    H213504   3.930   5.449   4.291 -0.3621 -0.5978 -0.8292
 4500TIP3   OH213505   1.282   4.241   4.755 -0.3219  0.1177  0.1280
 4500TIP3    H113506   1.217   4.241   4.685 -2.1775 -2.3873  1.6960
 4500TIP3    H213507   1.352   4.185   4.723 -0.6710 -0.1772 -0.1226
 4501TIP3   OH213508   3.354   4.970   1.287  0.3143 -0.4836 -0.1360
 4501TIP3    H113509   3.350   4.961   1.383  1.5444 -0.6954 -0.0852
 4501TIP3    H213510   3.445   4.992   1.269  0.0126 -0.0788 -1.2469
 4502TIP3   OH213511   2.440   3.295   0.253  0.2028 -0.0303  0.1666
 4502TIP3    H113512   2.450   3.214   0.303  3.1642 -0.4573 -0.9342
 4502TIP3    H213513   2.453   3.365   0.317  3.1301 -0.5573  0.2487
 4503TIP3   OH213514   0.135   5.808   1.986 -0.5725  0.0708 -0.2169
 4503TIP3    H113515   0.201   5.739   1.992 -0.4485  0.0453 -1.5535
 4503TIP3    H213516   0.052   5.761   1.990 -0.5389  0.0749  1.1424
 4504TIP3   OH213517   5.157   0.438   0.585  0.1394 -0.3289 -0.3056
 4504TIP3    H113518   5.191   0.442   0.495  0.3767 -1.4282 -0.2765
 4504TIP3    H213519   5.234   0.423   0.639 -0.1519 -0.8924 -0.0435
 4505TIP3   OH213520   3.592   0.094   0.713  0.4968  0.6471 -0.0456
 4505TIP3    H113521   3.576   0.039   0.790  1.5492  0.8214  0.3154
 4505TIP3    H213522   3.539   0.172   0.727  0.0513  0.3249  0.0973
 4506TIP3   OH213523   6.120   1.421   0.936  0.1838 -0.0243  0.3211
 4506TIP3    H113524   6.097   1.510   0.910  0.5566  0.5154  1.7796
 4506TIP3    H213525   6.039   1.385   0.972  0.5835  0.5453  1.8659
 4507TIP3   OH213526   3.447   1.622   2.885  0.1135  0.4469 -0.1854
 4507TIP3    H113527   3.428   1.532   2.857  0.5515  0.3890 -0.3070
 4507TIP3    H213528   3.528   1.615   2.936 -0.3316  0.6471  0.5672
 4508TIP3   OH213529   4.932   4.005   1.856 -0.2775  0.3817 -0.1389
 4508TIP3    H113530   4.867   3.938   1.838  1.9888 -1.4772 -2.1540
 4508TIP3    H213531   4.935   4.011   1.951 -2.6845 -0.0872  0.0300
 4509TIP3   OH213532   0.261   2.029   0.824 -0.0302  0.0410 -0.1139
 4509TIP3    H113533   0.258   1.957   0.888 -1.0358  0.4462  0.3093
 4509TIP3    H213534   0.273   1.985   0.740 -0.5273 -0.6279  0.1513
 4510TIP3   OH213535   5.543   0.079   1.940 -0.8473 -0.4721 -0.3393
 4510TIP3    H113536   5.495   0.113   2.016 -2.0852  0.5293 -1.5091
 4510TIP3    H213537   5.477   0.074   1.871  0.6323  0.5575 -1.9108
 4511TIP3   OH213538   1.796   4.667   0.225 -0.0164 -0.2031 -0.1647
 4511TIP3    H113539   1.795   4.727   0.150 -0.3457  1.3327  1.0133
 4511TIP3    H213540   1.737   4.596   0.199 -0.5529  0.5694 -1.1662
 4512TIP3   OH213541   5.949   2.101   5.137  0.2629 -0.6902  0.6179
 4512TIP3    H113542   6.029   2.060   5.106  1.2235  1.3930  0.2052
 4512TIP3    H213543   5.961   2.194   5.121 -2.2366 -0.2967  0.5842
 4513TIP3   OH213544   5.322   4.534   3.909  0.0972  0.0221  0.1175
 4513TIP3    H113545   5.411   4.559   3.934 -0.0065 -1.0233  1.7420
 4513TIP3    H213546   5.332   4.486   3.827  0.9055  0.7305 -0.2101
 4514TIP3   OH213547   3.750   2.052   0.261  0.3048 -0.6155 -0.0333
 4514TIP3    H113548   3.809   1.991   0.215  0.8256 -0.2635  0.1566
 4514TIP3    H213549   3.782   2.139   0.237 -0.5095 -0.4079 -0.3942
 4515TIP3   OH213550   3.671   5.803   4.445  0.0318 -0.4423  0.1068
 4515TIP3    H113551   3.627   5.844   4.520  0.4483 -0.4017  0.3332
 4515TIP3    H213552   3.765   5.808   4.467  0.1086 -1.1617 -0.0390
 4516TIP3   OH213553   4.137   4.915   4.561 -0.0313 -0.0617 -0.5095
 4516TIP3    H113554   4.064   4.976   4.552  0.1106  0.2285  0.2349
 4516TIP3    H213555   4.118   4.845   4.498 -0.7902  0.1602 -0.5343
 4517TIP3   OH213556   4.178   1.196   3.483 -0.0149  0.1825  0.3464
 4517TIP3    H113557   4.239   1.221   3.414 -0.7323  1.5025  0.1613
 4517TIP3    H213558   4.145   1.111   3.456  0.3290  0.3106 -0.5109
 4518TIP3   OH213559   2.710   3.121   0.452  0.0973 -0.0950  0.5847
 4518TIP3    H113560   2.764   3.061   0.503 -1.2276 -0.8423  1.1666
 4518TIP3    H213561   2.630   3.072   0.434 -0.4042  0.9757 -0.2495
 4519TIP3   OH213562   3.257   1.262   4.212  0.3265  0.7813  0.0930
 4519TIP3    H113563   3.233   1.336   4.157  0.4003  0.9021  0.2223
 4519TIP3    H213564   3.351   1.252   4.197  0.6146  1.6605  1.2116
 4520TIP3   OH213565   5.501   4.924   2.346  0.4591  0.2428  0.0220
 4520TIP3    H113566   5.419   4.882   2.372  0.1091  0.6795 -0.3517
 4520TIP3    H213567   5.474   4.995   2.287  1.1712 -0.1500 -0.7970
 4521TIP3   OH213568   2.162   2.196   1.056 -0.1952  0.1719 -0.0414
 4521TIP3    H113569   2.244   2.188   1.106 -0.9857  1.6910  1.6021
 4521TIP3    H213570   2.162   2.287   1.025 -1.8837  0.6218  1.1784
 4522TIP3   OH213571   3.498   3.984   4.100  0.5604 -0.6968 -0.2554
 4522TIP3    H113572   3.558   3.927   4.148 -3.2366 -3.1348  2.2078
 4522TIP3    H213573   3.466   3.929   4.028  0.3866  0.0988 -0.7882
 4523TIP3   OH213574   1.339   5.771   5.095 -0.4856 -0.3088  0.6593
 4523TIP3    H113575   1.316   5.786   5.186 -0.4988 -1.1743  0.8044
 4523TIP3    H213576   1.292   5.838   5.046 -1.3420 -0.5212  1.1865
 4524TIP3   OH213577   4.535   5.249   3.487 -0.6266 -0.1485  0.1485
 4524TIP3    H113578   4.539   5.340   3.456 -0.2550  0.0882  0.8455
 4524TIP3    H213579   4.624   5.216   3.477 -0.8185 -0.5207 -0.3360
 4525TIP3   OH213580   4.673   5.337   3.729  0.1231  0.0445  0.0570
 4525TIP3    H113581   4.687   5.254   3.683 -0.1062 -0.6394  1.1760
 4525TIP3    H213582   4.740   5.395   3.695 -0.2449 -0.3384 -1.3694
 4526TIP3   OH213583   3.261   2.652   1.856 -0.1119  0.0309  0.6210
 4526TIP3    H113584   3.316   2.634   1.780 -0.4350  1.0767  0.1259
 4526TIP3    H213585   3.181   2.602   1.840 -0.6030  1.0474 -0.2609
 4527TIP3   OH213586   0.980   5.273   0.704 -0.0256 -0.0030 -0.3109
 4527TIP3    H113587   0.918   5.346   0.696  1.7812  1.7122  0.4788
 4527TIP3    H213588   1.008   5.255   0.615 -0.1070  0.6435 -0.4731
 4528TIP3   OH213589   1.287   1.705   1.416  0.0361 -0.3964 -0.0077
 4528TIP3    H113590   1.328   1.757   1.347  0.2377  0.3942  0.6938
 4528TIP3    H213591   1.195   1.699   1.389 -1.1015  4.0696  1.9356
 4529TIP3   OH213592   2.889   3.995   0.501  0.0495 -0.4829 -0.9344
 4529TIP3    H113593   2.808   3.946   0.488  0.8557 -1.7271 -1.5062
 4529TIP3    H213594   2.894   4.054   0.426 -1.7145  1.7426  0.5422
 4530TIP3   OH213595   0.524   2.541   1.844  0.0910 -0.0511 -0.3900
 4530TIP3    H113596   0.510   2.595   1.766  0.1299 -0.4408 -0.6674
 4530TIP3    H213597   0.475   2.461   1.827  0.8915 -0.5399 -0.4356
 4531TIP3   OH213598   2.182   5.431   4.021 -0.5118  0.5230  0.2296
 4531TIP3    H113599   2.114   5.494   4.044 -0.1145  0.0939  3.0148
 4531TIP3    H213600   2.237   5.426   4.099  0.4337 -2.0329 -0.4777
 4532TIP3   OH213601   0.689   5.659   3.364 -0.5765 -0.0413  0.4118
 4532TIP3    H113602   0.770   5.694   3.402 -0.0558 -1.5313  0.7490
 4532TIP3    H213603   0.719   5.593   3.302 -1.5456 -1.3074  1.2629
 4533TIP3   OH213604   4.537   2.953   4.063  0.2260  0.3194 -1.1270
 4533TIP3    H113605   4.526   2.861   4.089 -0.2191 -0.1097 -2.6863
 4533TIP3    H213606   4.552   3.000   4.145  1.4315 -1.2831 -0.3689
 4534TIP3   OH213607   5.430   4.194   2.079 -0.0495 -0.1158  0.5179
 4534TIP3    H113608   5.418   4.240   2.162 -2.4905 -0.1138  0.2434
 4534TIP3    H213609   5.361   4.128   2.079 -0.0507 -0.1632 -1.4630
 4535TIP3   OH213610   0.047   1.757   4.814 -0.1855  0.1081 -0.0685
 4535TIP3    H113611   0.068   1.793   4.899 -0.5546  0.4112 -0.1031
 4535TIP3    H213612   0.121   1.781   4.758 -1.4211  2.8178 -0.6765
 4536TIP3   OH213613   0.973   3.230   1.142 -0.8306 -0.3572  0.0059
 4536TIP3    H113614   0.904   3.204   1.081  0.3009 -2.0065 -0.6507
 4536TIP3    H213615   0.990   3.151   1.194 -0.6119  0.5365  1.3346
 4537TIP3   OH213616   2.126   2.663   4.407  0.1403 -0.1129 -0.4056
 4537TIP3    H113617   2.096   2.631   4.322  0.5863  0.4024 -0.7669
 4537TIP3    H213618   2.167   2.587   4.449 -0.8324 -0.5910 -0.2813
 4538TIP3   OH213619   0.831   1.537   1.464  0.0449 -0.3242 -0.0296
 4538TIP3    H113620   0.805   1.600   1.531 -0.5904 -0.6454  0.0226
 4538TIP3    H213621   0.799   1.453   1.494  2.1599 -0.9651  0.6232
 4539TIP3   OH213622   5.297   3.496   0.283  0.1840  0.2844  0.1576
 4539TIP3    H113623   5.387   3.465   0.276  1.2297  2.1656  3.1029
 4539TIP3    H213624   5.288   3.562   0.215  1.1772  0.4034  0.1343
 4540TIP3   OH213625   5.551   0.996   4.822 -0.3398  0.3969  0.5071
 4540TIP3    H113626   5.537   1.004   4.916  1.6787 -0.4000  0.9237
 4540TIP3    H213627   5.640   1.030   4.808  0.5212 -2.0626 -0.6364
 4541TIP3   OH213628   3.419   4.829   4.501  0.5782  0.4230  0.8897
 4541TIP3    H113629   3.342   4.773   4.491 -1.4511  3.0909  0.3030
 4541TIP3    H213630   3.462   4.827   4.415  1.5132 -1.4156  1.3417
 4542TIP3   OH213631   5.547   4.027   4.234 -0.2910  0.1563 -0.5749
 4542TIP3    H113632   5.504   4.087   4.294  0.5720 -0.3839  0.6203
 4542TIP3    H213633   5.500   3.944   4.246  0.8114 -0.3377  0.4628
 4543TIP3   OH213634   0.753   0.133   0.283  0.0260  0.5788  0.2836
 4543TIP3    H113635   0.718   0.084   0.208  0.9865  1.4133 -0.7615
 4543TIP3    H213636   0.744   0.074   0.357  0.5767 -0.9370 -0.8044
 4544TIP3   OH213637   2.212   4.794   4.509  0.2092 -0.4123 -0.4553
 4544TIP3    H113638   2.223   4.792   4.604  1.5137  1.5576 -0.5055
 4544TIP3    H213639   2.248   4.710   4.480  1.7424 -0.1918  0.6495
 4545TIP3   OH213640   3.799   0.283   3.642 -0.4305 -0.0033  0.5102
 4545TIP3    H113641   3.807   0.310   3.733 -0.0599  0.0151  0.4756
 4545TIP3    H213642   3.714   0.240   3.636 -0.4211 -0.0744  0.8846
 4546TIP3   OH213643   3.102   3.456   1.081  0.2456 -0.1295 -0.1563
 4546TIP3    H113644   3.170   3.494   1.025 -0.6725 -0.1642 -1.3117
 4546TIP3    H213645   3.107   3.362   1.064  0.6403 -0.2692  0.6223
 4547TIP3   OH213646   5.329   1.440   3.617  0.2535  0.3106  0.6853
 4547TIP3    H113647   5.306   1.533   3.611 -1.3267 -0.1214 -1.5652
 4547TIP3    H213648   5.407   1.438   3.673 -0.6549  2.7794  2.2262
 4548TIP3   OH213649   3.796   4.697   0.644  0.0856 -0.3525 -0.0437
 4548TIP3    H113650   3.749   4.614   0.654 -0.8573  0.1671 -0.0483
 4548TIP3    H213651   3.851   4.684   0.566 -0.5419 -0.7518 -0.4307
 4549TIP3   OH213652   0.132   2.964   0.861 -0.1713  0.4361 -0.3216
 4549TIP3    H113653   0.113   3.047   0.906  0.9921  1.0305 -0.8937
 4549TIP3    H213654   0.227   2.963   0.852 -0.1807 -0.9097 -0.4541
 4550TIP3   OH213655   3.029   2.336   2.745  0.4542 -0.6826 -0.1533
 4550TIP3    H113656   2.989   2.300   2.824 -1.5141  0.9381 -0.3221
 4550TIP3    H213657   3.016   2.431   2.752 -1.4578 -0.5655 -3.1712
 4551TIP3   OH213658   2.506   3.180   4.981 -0.2940  1.0821 -0.6132
 4551TIP3    H113659   2.561   3.180   5.059 -0.8355 -0.2925 -0.1965
 4551TIP3    H213660   2.457   3.262   4.986 -0.5112  0.8998  0.6429
 4552TIP3   OH213661   4.675   5.449   0.128 -0.3592 -0.4442 -0.1790
 4552TIP3    H113662   4.613   5.395   0.177  1.0101 -3.1785 -1.2633
 4552TIP3    H213663   4.755   5.448   0.181 -0.2744  0.4034 -0.2843
 4553TIP3   OH213664   0.739   4.431   0.418 -0.0965 -0.0793 -0.4424
 4553TIP3    H113665   0.767   4.372   0.348 -1.6832 -1.1698 -0.2205
 4553TIP3    H213666   0.648   4.451   0.397 -0.0181  1.1131  0.3040
 4554TIP3   OH213667   4.960   4.202   1.068 -0.1962  0.0393  0.3513
 4554TIP3    H113668   4.887   4.221   1.010  0.3239 -1.7959 -1.0076
 4554TIP3    H213669   5.033   4.181   1.009  1.0253  0.3927  1.6668
 4555TIP3   OH213670   0.461   4.165   0.324  0.1067  0.1665 -0.0562
 4555TIP3    H113671   0.411   4.208   0.254 -1.9569 -0.0900  1.1914
 4555TIP3    H213672   0.482   4.236   0.385 -1.2282 -0.1769  0.8234
 4556TIP3   OH213673   6.092   2.219   2.731  0.1409  0.1205 -0.2235
 4556TIP3    H113674   6.113   2.312   2.740  0.7912  0.0542 -0.9430
 4556TIP3    H213675   6.083   2.206   2.636  0.3538 -0.6149 -0.1486
 4557TIP3   OH213676   6.081   1.761   1.552 -0.1064 -0.0865 -0.1185
 4557TIP3    H113677   5.995   1.760   1.594  0.1365 -2.8727  0.4880
 4557TIP3    H213678   6.064   1.738   1.461  0.0702 -2.7552  0.4344
 4558TIP3   OH213679   1.992   1.146   1.075 -0.3528 -0.3656 -0.2024
 4558TIP3    H113680   2.085   1.127   1.066 -0.3953 -1.3865  1.1650
 4558TIP3    H213681   1.984   1.184   1.163 -1.0822  0.8403 -0.7580
 4559TIP3   OH213682   5.385   3.861   2.939 -0.0400 -0.3306 -0.2744
 4559TIP3    H113683   5.340   3.777   2.926  0.0955 -0.1843 -1.9782
 4559TIP3    H213684   5.425   3.879   2.854 -1.1968  2.1289 -0.3808
 4560TIP3   OH213685   4.285   5.566   4.790 -0.4035  0.2783 -0.0581
 4560TIP3    H113686   4.300   5.591   4.698 -1.5624 -0.0028 -0.3409
 4560TIP3    H213687   4.212   5.622   4.818 -0.1908  0.2155  0.6358
 4561TIP3   OH213688   4.077   5.761   4.867 -0.2328 -0.5454 -0.3773
 4561TIP3    H113689   4.022   5.819   4.920  0.1493 -0.1480 -0.4049
 4561TIP3    H213690   4.084   5.805   4.782 -1.3077 -1.4518 -0.9664
 4562TIP3   OH213691   4.245   4.060   2.348 -0.0857  0.1925 -0.4463
 4562TIP3    H113692   4.241   3.974   2.306  0.3221  0.0667 -0.2302
 4562TIP3    H213693   4.185   4.114   2.296  0.7388  0.1569 -1.4910
 4563TIP3   OH213694   0.488   4.839   0.387  0.6885 -0.0402  0.3949
 4563TIP3    H113695   0.502   4.817   0.479  0.0483 -0.9213  0.2928
 4563TIP3    H213696   0.548   4.912   0.371  1.1214 -0.1527  1.3922
 4564TIP3   OH213697   3.688  -0.001   1.446 -0.1788 -0.0347 -0.7044
 4564TIP3    H113698   3.596   0.015   1.424 -0.0447  2.4349  0.1565
 4564TIP3    H213699   3.731  -0.010   1.361 -1.1473 -0.9523 -1.1254
 4565TIP3   OH213700   3.055   4.903   1.374  0.0013 -0.0174 -0.4287
 4565TIP3    H113701   3.054   4.811   1.347 -0.8719 -0.3609  0.7125
 4565TIP3    H213702   3.018   4.950   1.299 -1.8673 -0.8864 -0.0981
 4566TIP3   OH213703   4.778   0.864   2.454  0.7294 -0.1204  0.2037
 4566TIP3    H113704   4.864   0.906   2.455  0.4677  0.4416 -0.3228
 4566TIP3    H213705   4.755   0.858   2.362  0.7907 -1.5134  0.2646
 4567TIP3   OH213706   5.900   1.437   2.533  0.0643  0.0542 -0.2007
 4567TIP3    H113707   5.832   1.490   2.491 -0.7789  1.1299  2.3573
 4567TIP3    H213708   5.957   1.501   2.576  0.0176 -0.9997  1.5184
 4568TIP3   OH213709   4.943   4.728   3.277 -0.0588  0.0404 -0.0335
 4568TIP3    H113710   4.869   4.703   3.333  1.3272 -2.0952  0.9944
 4568TIP3    H213711   4.903   4.750   3.193 -1.8808 -0.9793  0.4980
 4569TIP3   OH213712   0.645   0.851   3.326  0.6262 -0.7623 -0.6224
 4569TIP3    H113713   0.734   0.872   3.296  1.2507 -2.1663  0.1674
 4569TIP3    H213714   0.656   0.823   3.416 -1.0010  1.6122  0.4083
 4570TIP3   OH213715   0.695   2.336   0.968 -0.5576 -0.3059 -0.0908
 4570TIP3    H113716   0.746   2.256   0.970 -0.3513 -0.3734 -3.3541
 4570TIP3    H213717   0.760   2.406   0.975 -0.6034 -0.3553  1.1751
 4571TIP3   OH213718   0.312   1.282   4.361 -0.7990  0.1108  0.2615
 4571TIP3    H113719   0.232   1.321   4.325 -1.1143  0.6089  1.4698
 4571TIP3    H213720   0.286   1.244   4.444 -0.0343 -0.8489  0.0753
 4572TIP3   OH213721   4.101   3.871   2.718  0.4898 -0.2357 -0.6492
 4572TIP3    H113722   4.098   3.866   2.813  2.4025  0.1375 -0.5242
 4572TIP3    H213723   4.149   3.952   2.700  1.3008 -0.9489 -1.8820
 4573TIP3   OH213724   6.162   5.962   3.751  0.0225  0.3972  0.5608
 4573TIP3    H113725   6.132   5.882   3.794  0.8653  0.3982  1.1726
 4573TIP3    H213726   6.083   6.015   3.740 -0.7739 -1.0098 -0.9663
 4574TIP3   OH213727   0.837   0.510   4.304  0.1668  0.3875 -0.1606
 4574TIP3    H113728   0.846   0.583   4.241  0.9357  1.2158  0.8848
 4574TIP3    H213729   0.765   0.538   4.361  0.8512  0.6122  0.6041
 4575TIP3   OH213730   4.423   3.495   0.078 -0.2816 -0.2350 -0.4074
 4575TIP3    H113731   4.408   3.575   0.129  0.1366 -1.7845  2.3411
 4575TIP3    H213732   4.341   3.446   0.085  0.4357 -1.3381  0.4783
 4576TIP3   OH213733   1.327   5.364   3.349  0.0988  0.0038 -0.1774
 4576TIP3    H113734   1.382   5.289   3.323  1.7224  1.1917 -0.3092
 4576TIP3    H213735   1.366   5.439   3.304 -0.4275  1.2243  1.3081
 4577TIP3   OH213736   3.808   4.440   4.532 -0.8029 -0.5621  0.4003
 4577TIP3    H113737   3.747   4.367   4.519 -0.8765 -0.8513  2.1713
 4577TIP3    H213738   3.851   4.421   4.615 -0.5094  1.2180  0.6921
 4578TIP3   OH213739   3.647   3.624   1.151  0.0515 -0.5358 -0.5471
 4578TIP3    H113740   3.590   3.669   1.089 -0.6408  0.8208  1.0033
 4578TIP3    H213741   3.614   3.649   1.237  1.2698 -1.9759  0.4014
 4579TIP3   OH213742   0.844   4.499   0.126  0.3481  0.2930 -0.2260
 4579TIP3    H113743   0.869   4.415   0.088  1.3377  0.7867 -0.6913
 4579TIP3    H213744   0.823   4.478   0.218 -0.6568 -0.6566 -0.6472
 4580TIP3   OH213745   0.313   1.254   4.976 -1.2593 -0.4104 -0.0524
 4580TIP3    H113746   0.255   1.181   4.953 -1.3036 -0.4619  0.2187
 4580TIP3    H213747   0.255   1.318   5.017 -1.2050 -0.2593 -0.2110
 4581TIP3   OH213748   2.680   1.786   0.182 -0.4554 -0.0001 -0.1507
 4581TIP3    H113749   2.757   1.743   0.145 -0.4952 -0.3559  0.1760
 4581TIP3    H213750   2.617   1.715   0.196 -1.1091  0.3866 -1.0739
 4582TIP3   OH213751   3.405   4.012   4.409  0.0908 -0.1646 -0.0012
 4582TIP3    H113752   3.447   3.947   4.353 -3.0239 -2.2573 -0.1278
 4582TIP3    H213753   3.368   4.076   4.349 -1.4992 -1.3073 -0.2966
 4583TIP3   OH213754   1.940   1.759   1.000 -0.9531  0.6050 -0.2227
 4583TIP3    H113755   1.943   1.665   1.020 -1.0159  0.1044 -2.3203
 4583TIP3    H213756   2.013   1.796   1.051  0.0788 -0.8468 -0.5598
 4584TIP3   OH213757   5.936   3.951   0.174 -0.2255 -0.1499 -0.2631
 4584TIP3    H113758   5.909   3.987   0.090 -2.3897 -0.2032  0.3554
 4584TIP3    H213759   5.873   3.987   0.237 -0.1882 -2.0605  0.9481
 4585TIP3   OH213760   6.202   1.077   3.672  0.4263  0.0129 -0.2159
 4585TIP3    H113761   6.196   1.166   3.635 -2.1391 -0.0224 -0.1076
 4585TIP3    H213762   6.226   1.091   3.763 -0.8524  0.7189  0.0447
 4586TIP3   OH213763   4.062   0.302   5.172  0.4756  0.8633  0.0926
 4586TIP3    H113764   4.148   0.344   5.164  0.8806 -0.0002 -0.1630
 4586TIP3    H213765   4.016   0.327   5.092  0.8201  0.5842 -0.1937
 4587TIP3   OH213766   0.957   2.932   3.327 -0.4120  0.2367  0.3545
 4587TIP3    H113767   1.034   2.976   3.363 -0.6947 -0.0612  1.3578
 4587TIP3    H213768   0.928   2.988   3.255  0.7633  0.3296 -0.0599
 4588TIP3   OH213769   2.470   1.700   2.496  0.9775 -0.2414 -0.2704
 4588TIP3    H113770   2.543   1.689   2.557  2.3473  0.5398 -1.7176
 4588TIP3    H213771   2.453   1.794   2.496  0.3477 -0.3521 -0.3737
 4589TIP3   OH213772   4.897   2.912   1.654  0.0474 -0.5981 -0.4329
 4589TIP3    H113773   4.966   2.848   1.640  0.2949  0.0151 -2.4149
 4589TIP3    H213774   4.929   2.991   1.609 -0.7586  0.5505  0.9379
 4590TIP3   OH213775   1.079   5.048   4.953 -0.0092 -0.6864 -0.0043
 4590TIP3    H113776   1.128   4.980   4.906 -1.9034 -1.9688 -0.2477
 4590TIP3    H213777   1.042   5.103   4.884  0.9938  0.2429  0.1766
 4591TIP3   OH213778   6.085   0.383   0.846  0.3595 -0.1927  0.3677
 4591TIP3    H113779   6.083   0.478   0.854 -1.8819 -0.0741 -0.6838
 4591TIP3    H213780   6.120   0.352   0.929 -1.6557  1.4816  1.9539
 4592TIP3   OH213781   5.130   4.903   2.547  0.2950 -0.3322  0.3701
 4592TIP3    H113782   5.181   4.966   2.598  0.3559 -0.2646  0.2256
 4592TIP3    H213783   5.196   4.848   2.505  0.2370 -1.0951  1.2451
 4593TIP3   OH213784   1.352   4.664   2.122  0.1198  0.1437 -0.1577
 4593TIP3    H113785   1.273   4.680   2.071 -0.1091 -0.9475 -0.1552
 4593TIP3    H213786   1.364   4.744   2.173 -1.8899 -0.2797  1.0563
 4594TIP3   OH213787   5.478   4.012   1.303 -0.0709  0.1619 -1.0277
 4594TIP3    H113788   5.455   3.987   1.213 -2.1430 -1.2578 -0.1906
 4594TIP3    H213789   5.410   4.073   1.329 -1.0793 -1.4566  0.3884
 4595TIP3   OH213790   4.587   0.549   1.228 -0.1265  0.0067 -0.3418
 4595TIP3    H113791   4.674   0.509   1.238  0.9686  2.1215 -0.9364
 4595TIP3    H213792   4.590   0.590   1.142 -1.8709 -0.1960 -0.5194
 4596TIP3   OH213793   2.114   4.069   2.840 -0.1794  0.3508  0.0138
 4596TIP3    H113794   2.121   4.080   2.746  1.0466  1.4284  0.2073
 4596TIP3    H213795   2.024   4.039   2.854 -0.3894  0.2304 -1.4782
 4597TIP3   OH213796   5.792   2.755   3.316  0.0726 -0.2129  0.0442
 4597TIP3    H113797   5.860   2.798   3.369 -1.9774  0.6823  2.0934
 4597TIP3    H213798   5.758   2.824   3.261  0.6004 -0.6095 -0.8069
 4598TIP3   OH213799   0.136   4.844   1.680 -0.6114 -0.3136 -0.2182
 4598TIP3    H113800   0.131   4.781   1.752  0.1569  0.4156  0.4889
 4598TIP3    H213801   0.135   4.929   1.723  2.8064  0.1396 -0.8130
 4599TIP3   OH213802   2.782   0.423   2.984  0.1480 -0.0695 -0.5070
 4599TIP3    H113803   2.801   0.516   2.999  1.2357 -0.2489 -0.6608
 4599TIP3    H213804   2.741   0.394   3.065  0.9660  0.2551  0.0384
 4600TIP3   OH213805   4.967   4.432   1.724  0.8543 -0.8220  0.1513
 4600TIP3    H113806   4.888   4.395   1.684 -0.0199 -1.6498  2.4271
 4600TIP3    H213807   4.939   4.519   1.754  1.5261 -0.1662 -1.0610
 4601TIP3   OH213808   2.514   1.470   1.528  0.1936 -0.7697 -0.0913
 4601TIP3    H113809   2.469   1.387   1.516 -0.4559 -0.6333  1.2694
 4601TIP3    H213810   2.454   1.536   1.494 -0.0202 -0.7143  0.3892
 4602TIP3   OH213811   1.263   0.540   4.687  0.5736 -0.6661 -0.0453
 4602TIP3    H113812   1.178   0.533   4.729 -0.2812 -0.4631 -1.6739
 4602TIP3    H213813   1.326   0.519   4.756 -0.9042 -5.0732  0.2481
 4603TIP3   OH213814   5.342   0.746   2.088 -0.1934 -0.4195 -0.3151
 4603TIP3    H113815   5.427   0.790   2.079 -0.0726 -0.6369 -0.2425
 4603TIP3    H213816   5.305   0.748   2.000  0.2641 -1.0763 -0.5348
 4604TIP3   OH213817   3.989   0.356   1.171 -0.1344  0.4277  0.1919
 4604TIP3    H113818   3.939   0.345   1.090 -2.0192  1.6636  1.1124
 4604TIP3    H213819   3.931   0.406   1.228  1.2686 -0.1317  2.2054
 4605TIP3   OH213820   3.049   4.743   5.048 -0.1092  0.7182 -0.6197
 4605TIP3    H113821   3.064   4.772   4.958  0.6560 -0.9007 -1.0589
 4605TIP3    H213822   3.061   4.648   5.044  3.1494  0.8600  1.7862
 4606TIP3   OH213823   0.645   1.692   4.257 -0.1338 -0.0682 -0.2048
 4606TIP3    H113824   0.604   1.610   4.285 -1.6929  0.1620 -1.6756
 4606TIP3    H213825   0.722   1.663   4.207 -0.4223 -0.6245 -0.3424
 4607TIP3   OH213826   5.649   2.024   0.359  0.1226 -0.5207  0.7337
 4607TIP3    H113827   5.597   2.009   0.280 -1.2296  1.9347  1.0568
 4607TIP3    H213828   5.730   2.063   0.327 -0.7023  1.1086  0.5450
 4608TIP3   OH213829   5.188   3.155   2.189 -0.2386  0.8473  0.2340
 4608TIP3    H113830   5.118   3.090   2.184  0.9261 -0.5763  1.3677
 4608TIP3    H213831   5.265   3.111   2.155  0.6573  1.5114  1.3123
 4609TIP3   OH213832   4.876   0.797   4.810  0.3288 -0.3135 -0.6245
 4609TIP3    H113833   4.787   0.794   4.845  0.0821  0.7495 -1.1054
 4609TIP3    H213834   4.877   0.731   4.741  0.7456 -2.2458  1.1462
 4610TIP3   OH213835   3.814   4.530   1.618  0.1993  0.0226 -0.1016
 4610TIP3    H113836   3.840   4.502   1.706 -0.4845  1.3759  0.5663
 4610TIP3    H213837   3.854   4.466   1.560  2.6556  0.4003  1.0377
 4611TIP3   OH213838   5.119   3.242   4.865 -0.7492 -0.4133 -1.1101
 4611TIP3    H113839   5.032   3.268   4.897 -0.8896 -1.8567 -0.2227
 4611TIP3    H213840   5.176   3.252   4.941 -0.2716 -0.1003 -1.5106
 4612TIP3   OH213841   1.095   1.607   5.104 -0.3444 -0.2534 -0.0320
 4612TIP3    H113842   1.022   1.546   5.116 -1.1974  0.5983 -0.8366
 4612TIP3    H213843   1.129   1.621   5.193 -2.2475  0.6583  0.5991
 4613TIP3   OH213844   1.320   3.607   2.748 -0.1560 -0.1093  0.6046
 4613TIP3    H113845   1.416   3.605   2.738 -0.2598  0.4321 -0.6698
 4613TIP3    H213846   1.305   3.668   2.820  0.4526 -0.0022  0.6496
 4614TIP3   OH213847   3.380   2.942   4.102 -0.4043 -0.2568 -0.5847
 4614TIP3    H113848   3.314   2.874   4.088 -1.2860  0.8097 -1.8609
 4614TIP3    H213849   3.334   3.024   4.085  0.5022  0.7288  1.4136
 4615TIP3   OH213850   4.316   1.856   4.918  0.8768 -0.0471 -0.1754
 4615TIP3    H113851   4.297   1.771   4.878  4.3128 -1.2155  0.3664
 4615TIP3    H213852   4.285   1.847   5.009  1.1894 -0.7029 -0.1319
 4616TIP3   OH213853   0.436   0.182   1.418  0.2728  0.2828 -0.2553
 4616TIP3    H113854   0.506   0.247   1.417  0.3869  0.1699  0.3174
 4616TIP3    H213855   0.393   0.193   1.503 -0.0501 -0.0266 -0.3751
 4617TIP3   OH213856   4.182   2.179   2.553 -0.6962 -0.5207  0.4100
 4617TIP3    H113857   4.211   2.117   2.620 -2.6560 -0.7550  1.1095
 4617TIP3    H213858   4.121   2.129   2.499  0.1001 -0.0482 -0.9980
 4618TIP3   OH213859   1.920   5.595   1.721 -0.2821  0.0500  0.3926
 4618TIP3    H113860   1.966   5.538   1.783 -0.6977 -0.6852  0.0472
 4618TIP3    H213861   1.951   5.567   1.635 -2.8052 -1.9151 -0.0265
 4619TIP3   OH213862   6.304   0.021   1.422  0.2788 -0.1386  0.1898
 4619TIP3    H113863   6.264  -0.041   1.482 -0.7657 -0.3404 -0.7006
 4619TIP3    H213864   6.255   0.102   1.435  1.5979  0.5397  1.3056
 4620TIP3   OH213865   2.226   0.935   1.418  0.2650  0.5711  0.0354
 4620TIP3    H113866   2.296   0.877   1.448 -0.6888  0.1094  1.4720
 4620TIP3    H213867   2.224   0.923   1.324  0.4843 -1.2814  0.2433
 4621TIP3   OH213868   4.643   1.045   1.255  0.0555  0.0957  0.1902
 4621TIP3    H113869   4.622   1.072   1.344  1.0602  0.9402  0.1842
 4621TIP3    H213870   4.682   0.958   1.264 -0.3540 -0.0559  0.5151
 4622TIP3   OH213871   4.004   2.826   4.411 -0.4526  0.1175  0.4265
 4622TIP3    H113872   4.038   2.811   4.499  0.4569 -0.3353  0.0172
 4622TIP3    H213873   4.083   2.838   4.357 -0.9901  0.2779 -0.3385
 4623TIP3   OH213874   4.535   4.974   1.059 -0.4229  0.5624 -0.1176
 4623TIP3    H113875   4.477   5.047   1.079 -0.4627  0.1636  1.3695
 4623TIP3    H213876   4.477   4.899   1.045 -0.3156  0.0428  1.8888
 4624TIP3   OH213877   5.855   0.349   2.298  0.2507 -0.4183  0.1929
 4624TIP3    H113878   5.798   0.275   2.277 -0.0884 -0.8619  2.4280
 4624TIP3    H213879   5.920   0.313   2.358  0.4937  0.9451  0.7738
 4625TIP3   OH213880   1.769   4.547   3.149 -0.1463  0.5413  0.6786
 4625TIP3    H113881   1.766   4.489   3.073  0.5617  0.1707  0.9277
 4625TIP3    H213882   1.760   4.635   3.112  2.0531  0.5163 -0.0462
 4626TIP3   OH213883   6.067   2.546   3.434 -0.0111  0.7244  0.1751
 4626TIP3    H113884   6.124   2.502   3.372  0.0626  0.9043  0.1145
 4626TIP3    H213885   5.980   2.508   3.418  0.3675 -0.7365  1.3791
 4627TIP3   OH213886   5.777   5.917   3.312  0.1046  0.3657  0.3817
 4627TIP3    H113887   5.720   5.899   3.238  0.5934 -0.5699  0.2284
 4627TIP3    H213888   5.717   5.944   3.382 -0.4375  0.3127 -0.0589
 4628TIP3   OH213889   6.073   0.713   3.316 -0.0441  0.3955  0.1519
 4628TIP3    H113890   6.093   0.796   3.360  0.2068 -0.0857  0.9765
 4628TIP3    H213891   6.159   0.671   3.304 -0.1284  0.4393 -0.6425
 4629TIP3   OH213892   4.726   3.351   1.702  0.3876 -0.2686 -0.3686
 4629TIP3    H113893   4.665   3.279   1.721 -0.4933  0.5313 -0.0316
 4629TIP3    H213894   4.810   3.321   1.735 -0.4526 -0.2088  2.0429
 4630TIP3   OH213895   4.063   0.558   1.427  0.0921  0.4864 -0.1982
 4630TIP3    H113896   4.127   0.533   1.360  0.0344  0.6498 -0.3155
 4630TIP3    H213897   4.083   0.502   1.502  1.0228  1.2135  0.1269
 4631TIP3   OH213898   3.763   0.845   3.739 -0.7332  0.5673 -0.1147
 4631TIP3    H113899   3.690   0.864   3.798  1.5449  0.7565  2.8888
 4631TIP3    H213900   3.782   0.929   3.697  0.7052  1.8321  2.7942
 4632TIP3   OH213901   1.691   2.095   0.474 -0.2256  0.3385 -0.7074
 4632TIP3    H113902   1.628   2.026   0.492  0.0965  0.3840  0.7616
 4632TIP3    H213903   1.640   2.165   0.432 -1.0201  0.1232 -0.1162
 4633TIP3   OH213904   1.580   4.716   2.421  0.4336  0.4406 -0.2240
 4633TIP3    H113905   1.636   4.704   2.498  2.2601  0.5936 -1.4778
 4633TIP3    H213906   1.517   4.783   2.448 -0.1540 -0.8165  1.7270
 4634TIP3   OH213907   4.019   0.299   4.423  0.2190 -0.2757 -0.3274
 4634TIP3    H113908   4.086   0.313   4.356 -1.2680  0.1896 -1.8096
 4634TIP3    H213909   4.036   0.367   4.488 -0.5464  1.8570 -2.1823
 4635TIP3   OH213910   4.533   1.842   2.186 -0.0133 -0.2177  0.2915
 4635TIP3    H113911   4.453   1.797   2.160 -0.8529  1.4673 -0.1198
 4635TIP3    H213912   4.519   1.934   2.164  1.3423  0.4155  1.8076
 4636TIP3   OH213913   3.685   1.107   0.543  0.0856 -0.1787 -0.2405
 4636TIP3    H113914   3.718   1.195   0.526 -0.4199  0.1144  0.2517
 4636TIP3    H213915   3.614   1.095   0.480  0.0761 -0.1817 -0.2294
 4637TIP3   OH213916   0.400   4.807   3.662 -0.0516  1.4696 -0.2850
 4637TIP3    H113917   0.418   4.838   3.574 -0.4706  1.2097 -0.4656
 4637TIP3    H213918   0.395   4.886   3.715 -1.8785  1.7793 -0.8798
 4638TIP3   OH213919   2.896   1.648   4.572  0.8592  0.1300  0.2682
 4638TIP3    H113920   2.918   1.567   4.617  0.6222  0.8002  1.6653
 4638TIP3    H213921   2.855   1.620   4.490  2.6052 -1.1245 -0.2186
 4639TIP3   OH213922   4.208   1.713   4.529 -0.2707  0.4526  0.4246
 4639TIP3    H113923   4.297   1.677   4.529  0.1252  1.3832  1.1368
 4639TIP3    H213924   4.172   1.689   4.444  1.1204  1.1551 -0.3870
 4640TIP3   OH213925   3.482   0.205   1.587  0.8153  0.0980 -0.3231
 4640TIP3    H113926   3.464   0.209   1.681 -2.1932  0.5275 -0.8319
 4640TIP3    H213927   3.547   0.274   1.572 -0.2794  1.5198  1.1422
 4641TIP3   OH213928   4.357   3.682   0.734 -0.2569  0.0989  1.3684
 4641TIP3    H113929   4.438   3.731   0.751  0.1661  0.2153 -0.7883
 4641TIP3    H213930   4.354   3.617   0.804  1.8341 -0.0541  1.3752
 4642TIP3   OH213931   2.227   0.156   2.877 -0.5898  0.2630 -0.5148
 4642TIP3    H113932   2.270   0.208   2.945  1.8102 -2.2088  0.0225
 4642TIP3    H213933   2.191   0.080   2.924 -0.1259 -0.7770 -1.7723
 4643TIP3   OH213934   4.915   0.634   0.606 -0.4755  0.0411  0.5695
 4643TIP3    H113935   4.927   0.708   0.547  1.2261  0.5983  1.5089
 4643TIP3    H213936   4.992   0.579   0.592 -0.0699  0.1367  2.1387
 4644TIP3   OH213937   2.472   5.328   4.613 -0.0378 -0.7033  0.1576
 4644TIP3    H113938   2.464   5.241   4.574 -3.4457 -0.4882  0.0579
 4644TIP3    H213939   2.485   5.310   4.707 -0.8863 -1.3789  0.1676
 4645TIP3   OH213940   4.178   5.833   2.220 -0.2210  0.1430 -0.2601
 4645TIP3    H113941   4.260   5.881   2.205 -1.1404  1.4915 -1.1573
 4645TIP3    H213942   4.121   5.860   2.149 -1.3274 -1.1139  0.1095
 4646TIP3   OH213943   2.188   0.893   1.147 -0.1648 -0.2471  0.2967
 4646TIP3    H113944   2.248   0.947   1.094  0.9245 -1.1695  0.5570
 4646TIP3    H213945   2.134   0.847   1.082  1.7860 -2.0918 -0.1388
 4647TIP3   OH213946   1.379   2.641   4.302  0.1121  0.6109 -0.0193
 4647TIP3    H113947   1.306   2.580   4.307  0.4669  0.1240 -0.6545
 4647TIP3    H213948   1.354   2.703   4.234  0.5110  0.1365 -0.6044
 4648TIP3   OH213949   4.129   1.667   2.684  0.5767  0.3837 -0.0393
 4648TIP3    H113950   4.166   1.706   2.763 -0.8763  0.6623  0.5261
 4648TIP3    H213951   4.164   1.720   2.612 -1.0805  2.5870  0.6793
 4649TIP3   OH213952   5.152   4.621   0.173  0.0079 -0.3717  0.0954
 4649TIP3    H113953   5.212   4.696   0.177 -0.7982  0.3496 -0.8919
 4649TIP3    H213954   5.065   4.659   0.187 -0.4831 -0.9959 -1.0916
 4650TIP3   OH213955   0.500   1.289   4.021 -0.1132 -0.3529  0.6313
 4650TIP3    H113956   0.510   1.253   3.933  1.2627  1.3182  0.0465
 4650TIP3    H213957   0.583   1.333   4.039 -0.5435 -0.2330  2.5864
 4651TIP3   OH213958   3.927   3.499   1.724  0.1683  0.2241 -0.0662
 4651TIP3    H113959   3.916   3.448   1.805  1.6046  0.9398  0.6076
 4651TIP3    H213960   3.860   3.567   1.730  0.0546  0.0780  0.3661
 4652TIP3   OH213961   1.834   3.284   1.444 -0.2302 -0.0786 -0.0224
 4652TIP3    H113962   1.879   3.217   1.496  0.3136  0.2625 -0.0507
 4652TIP3    H213963   1.886   3.363   1.457 -0.6490  0.2465 -0.3061
 4653TIP3   OH213964   2.352   3.663   1.467  0.4050  0.1192  0.0424
 4653TIP3    H113965   2.320   3.574   1.455  2.7268 -0.6112 -1.2133
 4653TIP3    H213966   2.275   3.718   1.453 -0.5786 -1.5652 -1.5967
 4654TIP3   OH213967   2.398   0.548   0.922 -0.7780  0.1797 -0.1361
 4654TIP3    H113968   2.412   0.606   0.997  1.1391  2.7004 -2.2831
 4654TIP3    H213969   2.444   0.590   0.850 -2.2876 -2.2774 -2.7205
 4655TIP3   OH213970   1.353   3.814   0.544  0.1084 -0.4488 -0.1806
 4655TIP3    H113971   1.261   3.818   0.568  0.2370 -0.7320  0.3671
 4655TIP3    H213972   1.363   3.879   0.474 -0.3875 -0.0344  0.1358
 4656TIP3   OH213973   1.212   5.450   4.052  0.4297  0.0303  0.2235
 4656TIP3    H113974   1.133   5.464   4.104  0.9329 -0.8226  1.2581
 4656TIP3    H213975   1.282   5.488   4.104  0.9921 -1.1487  0.3706
 4657TIP3   OH213976   1.776   1.082   1.509  0.1514  0.3426  0.2257
 4657TIP3    H113977   1.708   1.058   1.573 -0.0744 -0.4175 -0.2818
 4657TIP3    H213978   1.737   1.062   1.424  1.5076 -1.4631 -0.0282
 4658TIP3   OH213979   2.572   5.296   4.221 -0.3090  0.1966 -0.1594
 4658TIP3    H113980   2.496   5.353   4.212  0.4827  1.4192  0.5889
 4658TIP3    H213981   2.621   5.308   4.139 -1.6349 -1.7646 -1.3170
 4659TIP3   OH213982   1.095   2.809   0.682  0.3084  0.7835 -0.4189
 4659TIP3    H113983   1.176   2.838   0.639  1.0707 -0.3207  0.2283
 4659TIP3    H213984   1.120   2.794   0.773 -0.7902  1.0514 -0.0624
 4660TIP3   OH213985   5.967   2.420   0.226  0.2101 -0.1114  0.0788
 4660TIP3    H113986   5.953   2.478   0.152  0.1014  0.4870  0.5617
 4660TIP3    H213987   6.048   2.373   0.204 -0.2159 -0.4723 -0.7452
 4661TIP3   OH213988   0.231   3.750   0.234 -0.1543  0.0379  1.0417
 4661TIP3    H113989   0.209   3.682   0.170 -0.4164 -0.7827  1.9710
 4661TIP3    H213990   0.148   3.767   0.279 -0.0483  0.8591  0.9342
 4662TIP3   OH213991   1.311   1.799   2.500 -0.1425  0.2842  0.5399
 4662TIP3    H113992   1.267   1.784   2.417  0.8462  2.6430 -0.4750
 4662TIP3    H213993   1.242   1.786   2.566 -1.3266 -0.1000 -0.7231
 4663TIP3   OH213994   0.524   1.401   4.638 -0.1447 -0.0169  0.2993
 4663TIP3    H113995   0.488   1.314   4.656  1.9531 -0.9297  0.4479
 4663TIP3    H213996   0.573   1.390   4.556 -0.7647  1.3260 -0.2658
 4664TIP3   OH213997   6.028   1.108   1.422 -0.0872  0.2163 -0.1854
 4664TIP3    H113998   5.963   1.166   1.383 -1.3588 -2.3597 -2.2386
 4664TIP3    H213999   6.104   1.116   1.365  0.1895  0.7857  0.2644
 4665TIP3   OH214000   4.083   4.993   2.552 -0.2072  0.3030  0.1311
 4665TIP3    H114001   4.065   4.974   2.460  0.5122  0.2347  0.0018
 4665TIP3    H214002   4.177   4.979   2.562  0.0979  2.3450  0.3932
 4666TIP3   OH214003   1.258   5.860   0.173  0.1304  0.1832 -0.4494
 4666TIP3    H114004   1.270   5.921   0.246 -0.1225 -0.9258  0.5545
 4666TIP3    H214005   1.272   5.773   0.212 -2.2767 -0.5985 -1.1927
 4667TIP3   OH214006   2.523   0.706   0.037 -0.0263 -0.4195 -0.2761
 4667TIP3    H114007   2.561   0.794   0.041  1.0101 -0.8820  0.5460
 4667TIP3    H214008   2.455   0.706   0.104  1.3296 -0.8349  1.1516
 4668TIP3   OH214009   4.979   1.621   4.042 -0.3136  0.1848 -0.1621
 4668TIP3    H114010   4.964   1.677   4.118  2.3361  1.6231 -0.5642
 4668TIP3    H214011   5.034   1.550   4.074  0.1299  0.3390 -0.5723
 4669TIP3   OH214012   0.116   1.999   1.321 -0.5166 -0.2552  0.3634
 4669TIP3    H114013   0.191   2.037   1.366 -0.3278 -0.0216 -0.1376
 4669TIP3    H214014   0.084   2.070   1.264 -0.9677 -0.4302  0.3900
 4670TIP3   OH214015   2.999   4.973   0.527 -0.4109 -0.4755  0.2838
 4670TIP3    H114016   2.989   5.045   0.590  1.5478  1.3462 -1.3164
 4670TIP3    H214017   2.961   5.006   0.446  2.7664 -0.0245 -1.2055
 4671TIP3   OH214018   3.188   3.838   2.463 -0.3456  0.1082  0.5787
 4671TIP3    H114019   3.157   3.790   2.540  2.5577 -0.6608  1.3999
 4671TIP3    H214020   3.198   3.928   2.493  0.1907 -0.0699  0.9659
 4672TIP3   OH214021   5.331   2.483   0.794  0.1090  0.1572  0.6064
 4672TIP3    H114022   5.341   2.569   0.834 -0.7362  0.0168  1.1483
 4672TIP3    H214023   5.257   2.493   0.734  0.8223  0.1347 -0.3032
 4673TIP3   OH214024   5.974   2.801   2.335 -0.2065 -0.0313 -0.8644
 4673TIP3    H114025   6.039   2.809   2.266 -1.1812  0.9689 -1.7012
 4673TIP3    H214026   5.987   2.878   2.390 -2.4018  1.7366 -2.6115
 4674TIP3   OH214027   3.781   1.914   2.288  0.6738 -0.2947 -0.4119
 4674TIP3    H114028   3.792   1.966   2.208 -0.0481  0.1417 -0.2439
 4674TIP3    H214029   3.686   1.903   2.296  0.5383  1.5528  1.5418
 4675TIP3   OH214030   6.241   2.634   3.629  0.1848  0.9525  0.0207
 4675TIP3    H114031   6.177   2.622   3.559 -0.1277  0.8930  0.3185
 4675TIP3    H214032   6.189   2.645   3.708  0.5372 -2.0803  0.7965
 4676TIP3   OH214033   1.790   0.347   5.040  0.5660 -0.7833  0.4647
 4676TIP3    H114034   1.738   0.311   4.968 -0.0416 -0.4572  0.7329
 4676TIP3    H214035   1.738   0.420   5.073  1.0493 -0.6525  0.9498
 4677TIP3   OH214036   4.816   1.968   3.354  0.8905  0.4438  0.4312
 4677TIP3    H114037   4.818   1.937   3.263  0.9659 -0.0927  0.6159
 4677TIP3    H214038   4.832   1.890   3.407  1.1428  0.8052  0.8981
 4678TIP3   OH214039   3.851   4.099   0.624  0.0894  0.3267  0.2423
 4678TIP3    H114040   3.772   4.125   0.578 -0.7342 -2.1454  0.0740
 4678TIP3    H214041   3.918   4.094   0.555 -0.7276 -1.7266 -0.4866
 4679TIP3   OH214042   1.086   0.099   0.622  0.2208 -0.0972  0.0297
 4679TIP3    H114043   1.102   0.144   0.539 -0.3333  0.9659  0.4662
 4679TIP3    H214044   1.164   0.116   0.674 -0.1812  0.8022  0.3641
 4680TIP3   OH214045   1.297   3.099   4.612  0.1130 -0.7145  0.3221
 4680TIP3    H114046   1.310   3.189   4.642  0.3119 -0.5299 -0.3153
 4680TIP3    H214047   1.365   3.049   4.657  0.6486 -0.3740 -0.0980
 4681TIP3   OH214048   4.219   5.763   3.227  0.1513 -0.2002  0.6220
 4681TIP3    H114049   4.274   5.816   3.285  0.6673  0.4503 -0.4215
 4681TIP3    H214050   4.268   5.681   3.217 -0.0713 -0.4245  1.2995
 4682TIP3   OH214051   3.688   0.069   3.008  0.2137  0.2054 -0.1407
 4682TIP3    H114052   3.697   0.112   3.093  0.5504  0.9523 -0.5437
 4682TIP3    H214053   3.594   0.069   2.990  0.1230 -0.1337  0.3117
 4683TIP3   OH214054   0.598  -0.027   1.424 -0.0936  0.6448  0.2570
 4683TIP3    H114055   0.671  -0.016   1.363 -1.7024 -1.4860 -2.2760
 4683TIP3    H214056   0.552   0.057   1.422  0.5560  0.9901 -0.5360
 4684TIP3   OH214057   1.759   1.347   3.047 -0.0138 -0.4509  0.7265
 4684TIP3    H114058   1.801   1.270   3.085 -0.0355 -0.4599  0.7317
 4684TIP3    H214059   1.678   1.357   3.096 -1.0170 -1.6117 -0.5959
 4685TIP3   OH214060   5.546   4.174   3.760  0.2381  0.3444  0.5386
 4685TIP3    H114061   5.564   4.083   3.736  0.8931  0.4684  0.5423
 4685TIP3    H214062   5.499   4.168   3.843 -1.0805 -0.0432 -0.1969
 4686TIP3   OH214063   2.762   5.396   3.705 -0.7841 -0.1771  0.1687
 4686TIP3    H114064   2.801   5.396   3.618 -1.5111 -0.4814 -0.1689
 4686TIP3    H214065   2.828   5.437   3.761 -0.2261 -0.1629 -0.4839
 4687TIP3   OH214066   3.593   5.334   3.832  0.4653 -0.5443 -0.1325
 4687TIP3    H114067   3.605   5.248   3.874 -0.2016 -0.7823 -0.4243
 4687TIP3    H214068   3.680   5.374   3.837  0.7172 -1.1139  0.2718
 4688TIP3   OH214069   6.101   0.686   2.688 -0.6437 -0.0129 -0.1962
 4688TIP3    H114070   6.104   0.743   2.765  1.2843  0.2202 -0.3790
 4688TIP3    H214071   6.152   0.734   2.622  0.4331 -1.6167 -0.5804
 4689TIP3   OH214072   5.310   1.800   0.137  0.0714 -0.1061 -0.5210
 4689TIP3    H114073   5.389   1.836   0.178 -0.4268  1.1931 -0.6438
 4689TIP3    H214074   5.341   1.723   0.089  1.4902  1.0119 -1.5146
 4690TIP3   OH214075   6.003   3.130   3.402  0.0583 -0.2886  0.7748
 4690TIP3    H114076   5.998   3.153   3.495 -0.2015  0.2867  0.6225
 4690TIP3    H214077   5.993   3.035   3.400 -0.7561 -0.2208  1.2697
 4691TIP3   OH214078   2.432   5.105   2.463  0.4056 -0.2057  0.5122
 4691TIP3    H114079   2.391   5.062   2.538  0.7547 -1.0170  0.2510
 4691TIP3    H214080   2.409   5.198   2.472  1.5738 -0.0494  2.3670
 4692TIP3   OH214081   1.285   1.883   2.851 -0.7493  0.2728 -0.1076
 4692TIP3    H114082   1.211   1.851   2.798 -0.0949 -0.6946 -0.4528
 4692TIP3    H214083   1.338   1.806   2.868  0.3222  0.9932 -0.0670
 4693TIP3   OH214084   4.696   0.260   2.212 -0.0988  0.5461 -0.3761
 4693TIP3    H114085   4.712   0.213   2.293  1.1370 -0.1411 -0.9952
 4693TIP3    H214086   4.640   0.202   2.161  0.2821  0.3532 -0.5776
 4694TIP3   OH214087   0.532   0.075   0.699  0.7400 -0.2524  0.3921
 4694TIP3    H114088   0.624   0.098   0.686  0.7491 -0.5149 -0.0308
 4694TIP3    H214089   0.488   0.111   0.622  0.4375  0.1523  0.7504
 4695TIP3   OH214090   0.385   1.552   3.709  0.7935  0.2720  0.4049
 4695TIP3    H114091   0.338   1.621   3.662 -2.3006 -1.7874  0.1647
 4695TIP3    H214092   0.374   1.474   3.654 -0.0602 -1.4728  2.8968
 4696TIP3   OH214093   4.589   3.664   4.885 -0.8365  0.2559 -0.1352
 4696TIP3    H114094   4.559   3.589   4.936 -0.8183 -0.1752 -0.7453
 4696TIP3    H214095   4.537   3.738   4.917 -0.9359 -0.0359  0.3887
 4697TIP3   OH214096   0.777   4.118   4.092 -0.2681  0.1852  0.0550
 4697TIP3    H114097   0.851   4.059   4.107  0.9831  1.5625 -0.4256
 4697TIP3    H214098   0.790   4.151   4.003 -2.8610 -1.4026 -1.0322
 4698TIP3   OH214099   2.659   3.611   4.435  0.3258  0.0914 -0.1592
 4698TIP3    H114100   2.652   3.706   4.426  0.9809 -0.0244 -2.7411
 4698TIP3    H214101   2.750   3.596   4.459  0.3636  0.1116 -0.2857
 4699TIP3   OH214102   3.734   3.688   0.742  0.1541 -0.9880  0.3430
 4699TIP3    H114103   3.753   3.743   0.666 -1.6925 -1.9164 -0.8666
 4699TIP3    H214104   3.651   3.722   0.775 -0.5388 -2.4417  0.1394
 4700TIP3   OH214105   3.107   5.844   0.718  0.2394 -0.1932 -0.3683
 4700TIP3    H114106   3.074   5.932   0.702  1.2267 -0.1374 -2.4399
 4700TIP3    H214107   3.173   5.856   0.786  0.0479  0.5823 -0.3036
 4701TIP3   OH214108   1.582   5.826   2.291 -0.0139 -0.2611 -0.5399
 4701TIP3    H114109   1.671   5.800   2.268  0.0941  1.1658 -1.8948
 4701TIP3    H214110   1.586   5.922   2.296 -1.0698 -0.2586  1.2215
 4702TIP3   OH214111   3.607   5.045   1.221  0.0913  0.1248 -0.0939
 4702TIP3    H114112   3.594   5.031   1.128  1.1299  0.1581 -0.2556
 4702TIP3    H214113   3.662   4.972   1.249 -0.0728  0.2063  0.4555
 4703TIP3   OH214114   5.241   2.817   2.340  0.3881 -0.2691 -0.1813
 4703TIP3    H114115   5.149   2.831   2.361  0.2861  0.0619 -0.8331
 4703TIP3    H214116   5.240   2.744   2.277  0.4027  0.9182 -1.6163
 4704TIP3   OH214117   2.643   0.249   4.949 -0.9073  0.0635  0.1473
 4704TIP3    H114118   2.677   0.302   5.022 -0.3329 -2.0362  1.4872
 4704TIP3    H214119   2.548   0.250   4.961 -1.0938  2.3652 -1.0367
 4705TIP3   OH214120   0.144   1.816   5.087  0.6211 -0.2609 -0.5210
 4705TIP3    H114121   0.232   1.832   5.052  0.6907 -0.2495 -0.3423
 4705TIP3    H214122   0.158   1.753   5.158  0.7236  1.0614  0.6882
 4706TIP3   OH214123   6.311   5.315   3.336 -0.2078 -0.0248  0.0674
 4706TIP3    H114124   6.232   5.332   3.387  0.1259  0.6207  0.3738
 4706TIP3    H214125   6.376   5.375   3.371  1.2047 -2.2859  1.6146
 4707TIP3   OH214126   0.090   4.683   3.457  0.3260  0.4086  0.7368
 4707TIP3    H114127   0.180   4.651   3.447  0.4607  0.9663  0.1474
 4707TIP3    H214128   0.036   4.604   3.454  0.5676  0.2574 -1.7031
 4708TIP3   OH214129   3.489   1.936   2.257 -0.3279  0.1464 -0.0536
 4708TIP3    H114130   3.479   1.861   2.198  1.1945 -0.4771  0.4182
 4708TIP3    H214131   3.457   2.010   2.207 -1.1244 -0.7002 -0.8356
 4709TIP3   OH214132   2.802   1.497   4.926 -0.4762  0.0440 -0.3091
 4709TIP3    H114133   2.708   1.490   4.942 -0.3173 -1.0539  0.2258
 4709TIP3    H214134   2.825   1.584   4.957 -1.4903  0.7279 -1.4075
 4710TIP3   OH214135   0.816   2.564   1.873 -0.2598 -0.4449  0.0129
 4710TIP3    H114136   0.727   2.568   1.837  1.4329  0.8950 -4.7530
 4710TIP3    H214137   0.846   2.476   1.852  0.1043 -0.3513  0.1413
 4711TIP3   OH214138   4.713   2.189   2.196  0.8287 -0.6802 -0.0484
 4711TIP3    H114139   4.696   2.273   2.240 -1.6830 -0.1769 -1.7666
 4711TIP3    H214140   4.731   2.128   2.268  0.1888  0.7873  1.4356
 4712TIP3   OH214141   3.169   0.700   4.222  0.1137  0.2017 -0.5737
 4712TIP3    H114142   3.176   0.795   4.228  0.0489  0.2198 -0.7855
 4712TIP3    H214143   3.253   0.671   4.187  0.9906 -0.0200  1.5630
 4713TIP3   OH214144   1.854   3.783   0.484  0.4578  0.5898 -0.1963
 4713TIP3    H114145   1.944   3.750   0.480  0.0287 -0.6031 -0.4437
 4713TIP3    H214146   1.832   3.803   0.393 -0.5319 -2.0377 -0.6218
 4714TIP3   OH214147   1.096   4.862   4.507 -0.0665  0.2638 -0.4846
 4714TIP3    H114148   1.062   4.950   4.489  0.7413  0.9636  1.1728
 4714TIP3    H214149   1.021   4.814   4.540  0.0386  1.1559  1.1324
 4715TIP3   OH214150   3.241   3.822   1.278  0.6877  0.2339  0.3306
 4715TIP3    H114151   3.228   3.731   1.250  3.8207 -0.0121 -0.7083
 4715TIP3    H214152   3.214   3.823   1.369  2.3352 -2.2918  0.9462
 4716TIP3   OH214153   5.667   1.683   4.424  0.1935  0.0625  0.3127
 4716TIP3    H114154   5.752   1.726   4.414  0.2440 -0.2126 -0.4929
 4716TIP3    H214155   5.667   1.614   4.358 -0.1931 -0.7012  1.0837
 4717TIP3   OH214156   1.831   2.133   3.273 -0.3312  0.2072 -0.5847
 4717TIP3    H114157   1.797   2.222   3.279  1.8948  1.0389  1.5992
 4717TIP3    H214158   1.754   2.077   3.272 -1.8643  2.1137 -3.4145
 4718TIP3   OH214159   1.644   3.953   3.778  0.0949  0.3198 -0.1157
 4718TIP3    H114160   1.549   3.961   3.768 -0.0566 -0.0702  0.9526
 4718TIP3    H214161   1.680   4.012   3.711 -0.8670 -0.6203 -1.5226
 4719TIP3   OH214162   1.821   5.736   4.521  0.7326  0.3929  0.4201
 4719TIP3    H114163   1.892   5.703   4.576  0.7162  1.8424  1.3535
 4719TIP3    H214164   1.833   5.830   4.520 -0.2511  0.5355 -0.7342
 4720TIP3   OH214165   4.203   4.762   1.480 -0.1634  0.4402 -0.5335
 4720TIP3    H114166   4.157   4.774   1.563  0.1400 -1.9688  0.0445
 4720TIP3    H214167   4.167   4.681   1.443  3.2351 -1.4177 -0.1884
 4721TIP3   OH214168   0.146   1.697   1.344 -0.0053 -0.3415 -0.0730
 4721TIP3    H114169   0.101   1.779   1.325 -0.8560 -0.6562  0.5540
 4721TIP3    H214170   0.146   1.691   1.440 -1.3999 -1.8601 -0.1470
 4722TIP3   OH214171   6.277   4.563   3.896  0.0076 -0.2097  0.3465
 4722TIP3    H114172   6.219   4.502   3.850  0.1048  0.3519 -0.5425
 4722TIP3    H214173   6.231   4.582   3.978  0.0255 -1.5393  0.6939
 4723TIP3   OH214174   2.807   2.700   4.002  0.5174  0.0336  0.3222
 4723TIP3    H114175   2.760   2.708   4.084  0.3786 -0.2144  0.2668
 4723TIP3    H214176   2.784   2.613   3.969  0.5213  0.1571 -0.0092
 4724TIP3   OH214177   3.293   0.674   3.122  0.8835 -0.3695 -0.0870
 4724TIP3    H114178   3.238   0.635   3.190 -1.7599  1.3615 -1.0406
 4724TIP3    H214179   3.271   0.626   3.042 -1.7796  2.1530 -1.0999
 4725TIP3   OH214180   5.981   1.960   3.858  0.0928 -0.3551 -0.5955
 4725TIP3    H114181   6.005   1.988   3.770  0.9676 -1.8712 -0.8959
 4725TIP3    H214182   6.056   1.984   3.912 -0.3603  0.3999 -0.2908
 4726TIP3   OH214183   1.780   0.767   3.650  0.3765 -0.4723  0.4498
 4726TIP3    H114184   1.829   0.804   3.577 -0.9349  0.4890 -0.0014
 4726TIP3    H214185   1.698   0.818   3.652 -0.8756 -2.3916  0.7526
 4727TIP3   OH214186   1.419   5.830   2.727 -0.3954 -0.3359 -0.6329
 4727TIP3    H114187   1.493   5.888   2.746  0.2066 -1.2738  0.0433
 4727TIP3    H214188   1.347   5.888   2.706  0.4087  0.6253 -0.8163
 4728TIP3   OH214189   5.963   1.730   4.301 -0.0241  0.1129 -0.0155
 4728TIP3    H114190   6.057   1.731   4.318  0.1956 -0.0960 -1.1250
 4728TIP3    H214191   5.956   1.735   4.206 -0.9410 -4.8814 -0.4825
 4729TIP3   OH214192   2.027   4.724   2.629  0.0663  0.1334  0.3917
 4729TIP3    H114193   1.994   4.761   2.547  0.5640 -0.0334  0.1134
 4729TIP3    H214194   1.972   4.764   2.696 -1.0253 -0.5053 -0.0895
 4730TIP3   OH214195   5.799   5.662   3.467 -0.3170  0.3690 -0.6660
 4730TIP3    H114196   5.780   5.583   3.417  1.2653 -0.5417  0.1060
 4730TIP3    H214197   5.815   5.729   3.401  1.1574 -0.6724 -1.4264
 4731TIP3   OH214198   0.647   4.280   0.161 -0.3107 -0.5971  0.2470
 4731TIP3    H114199   0.576   4.282   0.097  0.0962 -1.2017 -0.2264
 4731TIP3    H214200   0.680   4.190   0.159  0.0973 -0.4719  0.8740
 4732TIP3   OH214201   4.835   4.260   3.956  0.2260  1.1219 -0.1779
 4732TIP3    H114202   4.926   4.267   3.985  0.3744 -0.7788 -0.0340
 4732TIP3    H214203   4.834   4.184   3.898 -1.3957  0.7058  0.3358
 4733TIP3   OH214204   6.284   0.238   3.094  0.5390 -0.0693  0.5531
 4733TIP3    H114205   6.228   0.162   3.103 -0.5995  0.4626 -1.4416
 4733TIP3    H214206   6.254   0.298   3.163  0.9731 -1.1069  1.6755
 4734TIP3   OH214207   0.874   1.620   4.108 -0.3155  0.3094 -0.0889
 4734TIP3    H114208   0.914   1.676   4.174 -0.6363 -1.2384  1.5079
 4734TIP3    H214209   0.902   1.657   4.025  0.6551  1.9492  0.9090
 4735TIP3   OH214210   1.774   0.138   0.449  0.3396 -0.0701  0.2635
 4735TIP3    H114211   1.755   0.050   0.416  0.8595  0.2478 -0.9644
 4735TIP3    H214212   1.840   0.172   0.389  1.3976  0.5461  1.7190
 4736TIP3   OH214213   3.211   1.777   2.806 -0.0176  0.3547  0.2148
 4736TIP3    H114214   3.191   1.869   2.822  1.4431  0.8776 -0.7449
 4736TIP3    H214215   3.305   1.770   2.822 -0.0850 -0.9455  0.1413
 4737TIP3   OH214216   0.685   1.638   1.685 -0.4470 -0.6379  0.0385
 4737TIP3    H114217   0.598   1.599   1.693 -0.1954 -1.1125  0.5672
 4737TIP3    H214218   0.742   1.580   1.737 -0.2002  0.8926  1.5544
 4738TIP3   OH214219   5.162   4.984   4.374  0.1983 -0.3014 -0.2068
 4738TIP3    H114220   5.163   5.005   4.281  2.4296 -2.0782 -0.6828
 4738TIP3    H214221   5.074   4.950   4.390 -0.1933 -0.0301 -1.6658
 4739TIP3   OH214222   0.474   4.461   0.367  0.0480 -0.3943 -0.1657
 4739TIP3    H114223   0.435   4.512   0.296  0.6063  1.4258  0.7810
 4739TIP3    H214224   0.408   4.463   0.437  0.6606  0.2838  0.4061
 4740TIP3   OH214225   0.803   5.244   1.993  0.2467 -0.2641  0.2731
 4740TIP3    H114226   0.735   5.181   2.016 -2.7668  1.7972 -2.2695
 4740TIP3    H214227   0.870   5.191   1.948 -1.7125 -1.8315 -0.9737
 4741TIP3   OH214228   4.790   5.444   3.142  1.1457  0.3686 -0.6615
 4741TIP3    H114229   4.757   5.518   3.193 -0.0657 -1.2533  1.0622
 4741TIP3    H214230   4.782   5.472   3.051  2.1070  2.8695 -0.0400
 4742TIP3   OH214231   1.990   0.960   3.949 -0.0954 -0.4061 -0.1465
 4742TIP3    H114232   2.062   0.960   3.885 -0.7089 -0.7500 -0.8621
 4742TIP3    H214233   1.912   0.943   3.896 -0.8522  1.0383  0.4594
 4743TIP3   OH214234   2.900   2.980   0.242  0.3790 -0.6835  0.1148
 4743TIP3    H114235   2.988   2.956   0.269  0.3108  0.3071  1.2925
 4743TIP3    H214236   2.845   2.962   0.318 -0.2056  0.0326 -0.1171
 4744TIP3   OH214237   6.000   3.355   1.378 -0.2711 -0.2151 -0.0145
 4744TIP3    H114238   5.964   3.403   1.453 -0.2298  0.2102 -0.2621
 4744TIP3    H214239   5.927   3.348   1.317  0.1800  1.0944 -0.7348
 4745TIP3   OH214240   0.882   1.471   2.224 -0.3277  0.6798  0.8447
 4745TIP3    H114241   0.859   1.515   2.305 -0.3816  1.1362  0.5811
 4745TIP3    H214242   0.803   1.424   2.199 -0.5339  1.1094  0.6841
 4746TIP3   OH214243   1.006   1.865   1.850 -0.8034  0.1346  0.0585
 4746TIP3    H114244   1.071   1.820   1.795  0.0306 -0.0820  1.1993
 4746TIP3    H214245   0.929   1.873   1.793  0.1511  0.2637 -1.2708
 4747TIP3   OH214246   1.008   4.107   1.839 -0.0911  0.3560 -0.1413
 4747TIP3    H114247   0.936   4.073   1.891 -1.4606 -0.1696 -2.2385
 4747TIP3    H214248   1.087   4.071   1.880 -1.1725 -1.0122  0.8138
 4748TIP3   OH214249   0.457   3.738   3.377 -0.3160 -0.2261 -0.1134
 4748TIP3    H114250   0.491   3.666   3.324  2.3456  1.4299 -0.8430
 4748TIP3    H214251   0.453   3.812   3.318  0.4731  1.1127  1.4232
 4749TIP3   OH214252   3.118   4.133   4.986 -0.5952 -0.2973  0.4259
 4749TIP3    H114253   3.032   4.128   4.944 -0.8771 -0.2202  0.9847
 4749TIP3    H214254   3.117   4.216   5.033  0.4536  0.5460 -0.9903
 4750TIP3   OH214255   4.314   2.478   3.036  0.0239 -0.1161  0.3835
 4750TIP3    H114256   4.259   2.419   3.087  1.5715 -0.5273  1.6820
 4750TIP3    H214257   4.305   2.563   3.080 -2.0477  0.6642 -1.3652
 4751TIP3   OH214258   5.874   3.520   0.666 -0.1113  0.5450 -0.3861
 4751TIP3    H114259   5.882   3.596   0.724 -3.1323  0.6091  0.1316
 4751TIP3    H214260   5.908   3.447   0.718  1.3483  1.2549 -0.2860
 4752TIP3   OH214261   3.937   1.196   2.597  0.6021  0.0007 -0.0051
 4752TIP3    H114262   3.865   1.159   2.546  0.3354 -0.1707  0.4929
 4752TIP3    H214263   3.923   1.291   2.593  1.7364  0.1336 -1.9547
 4753TIP3   OH214264   4.536   4.678   1.060 -0.1002  0.0047 -0.5375
 4753TIP3    H114265   4.544   4.651   0.969 -1.0316 -0.8008 -0.3967
 4753TIP3    H214266   4.460   4.630   1.093 -0.1247  0.7205  0.5058
 4754TIP3   OH214267   3.535   5.492   2.565 -0.2579  0.5867  0.3653
 4754TIP3    H114268   3.553   5.563   2.626  1.9469  0.0069  0.4666
 4754TIP3    H214269   3.578   5.416   2.603  1.9134  0.3711 -2.2143
 4755TIP3   OH214270   3.825   4.355   1.285 -0.2690  0.5355  0.1097
 4755TIP3    H114271   3.842   4.288   1.219 -1.6333 -0.7259  0.9603
 4755TIP3    H214272   3.733   4.342   1.308 -0.3821  2.2919  0.7848
 4756TIP3   OH214273   3.899   4.609   1.309 -0.1435  1.1089 -0.9887
 4756TIP3    H114274   3.841   4.534   1.297 -0.7764  1.4313 -0.0032
 4756TIP3    H214275   3.965   4.579   1.372 -0.3611  1.3549 -0.6410
 4757TIP3   OH214276   4.015   0.180   3.507  0.2524 -0.0526  0.4253
 4757TIP3    H114277   3.990   0.101   3.460 -1.8157 -0.0020  1.3284
 4757TIP3    H214278   3.934   0.210   3.548  1.1318  2.1541  0.6836
 4758TIP3   OH214279   4.108   4.303   0.725 -0.0303  0.4452 -0.5187
 4758TIP3    H114280   4.144   4.233   0.781  0.6807  0.2337 -1.2223
 4758TIP3    H214281   4.099   4.378   0.784  2.0616  0.6735 -0.3831
 4759TIP3   OH214282   5.155   4.254   1.605 -0.0129 -0.2179 -0.1894
 4759TIP3    H114283   5.114   4.337   1.627 -0.7794 -0.0255 -2.2132
 4759TIP3    H214284   5.136   4.198   1.681  0.2729  1.3155  1.0860
 4760TIP3   OH214285   3.907   1.400   3.305  0.3799 -0.0964 -0.1791
 4760TIP3    H114286   3.916   1.380   3.398  1.0103  1.0823  0.0230
 4760TIP3    H214287   3.937   1.321   3.261 -0.2368 -0.7910  0.6143
 4761TIP3   OH214288   1.576   2.308   0.339 -0.5909 -0.2661  0.0957
 4761TIP3    H114289   1.572   2.373   0.269  2.4687 -0.0844 -0.0344
 4761TIP3    H214290   1.532   2.350   0.413 -1.5407  0.5959 -0.9228
 4762TIP3   OH214291   3.598   5.722   4.191  0.0905  0.5846 -0.1576
 4762TIP3    H114292   3.625   5.755   4.277  0.1312 -3.6205  1.6637
 4762TIP3    H214293   3.680   5.700   4.147 -0.0096  0.2179 -0.1597
 4763TIP3   OH214294   5.080   3.209  -0.005 -0.2977  0.4051 -0.0709
 4763TIP3    H114295   5.001   3.257  -0.030 -1.6432 -0.7501  1.7222
 4763TIP3    H214296   5.105   3.246   0.080 -1.1757 -1.7142  1.1941
 4764TIP3   OH214297   4.583   3.056   2.153  0.5965 -0.0700 -0.2960
 4764TIP3    H114298   4.670   3.069   2.190  0.5592  0.0318 -0.2437
 4764TIP3    H214299   4.597   2.998   2.078  0.8685  0.8647 -0.9817
 4765TIP3   OH214300   3.673   3.825   0.058 -0.1139  1.1109  0.0223
 4765TIP3    H114301   3.641   3.883   0.127  0.1517  1.3649 -0.0626
 4765TIP3    H214302   3.761   3.858   0.038  0.9555 -0.6622  1.5169
 4766TIP3   OH214303   4.872   2.801   1.914 -0.4368  0.3281  0.0606
 4766TIP3    H114304   4.934   2.732   1.941 -3.1567 -1.7185  1.6056
 4766TIP3    H214305   4.895   2.819   1.823  1.9370 -0.8346  0.3299
 4767TIP3   OH214306   5.633   1.870   0.931  0.4346 -0.4404 -0.5991
 4767TIP3    H114307   5.702   1.920   0.974 -1.5026  1.6876  0.2353
 4767TIP3    H214308   5.583   1.935   0.882 -0.9282 -1.9249 -1.2691
 4768TIP3   OH214309   3.114   5.445  -0.014  0.1025 -0.4838 -0.0269
 4768TIP3    H114310   3.052   5.502   0.032 -0.0791 -1.0720  0.4758
 4768TIP3    H214311   3.112   5.363   0.035  0.2425 -0.9791 -0.8305
 4769TIP3   OH214312   2.910   3.938   0.911 -0.1595 -0.2138 -0.0773
 4769TIP3    H114313   2.857   3.999   0.859 -0.2678  0.4818  0.8235
 4769TIP3    H214314   2.904   3.855   0.864 -1.1363  0.1337 -0.5941
 4770TIP3   OH214315   5.077   5.703   3.140 -1.0066 -0.2154  0.0067
 4770TIP3    H114316   5.060   5.794   3.164  1.2765  0.5069 -0.8443
 4770TIP3    H214317   5.011   5.684   3.073 -1.3068  0.9365 -0.0516
 4771TIP3   OH214318   1.747   2.431   3.286  0.1286  0.2358 -0.0978
 4771TIP3    H114319   1.674   2.423   3.348  0.0971  0.6732 -0.0762
 4771TIP3    H214320   1.826   2.423   3.339  0.1043 -0.8330 -0.1987
 4772TIP3   OH214321   4.242   2.868   0.517  0.3270 -0.2039  0.0530
 4772TIP3    H114322   4.312   2.924   0.483  0.0733  0.4686  0.6206
 4772TIP3    H214323   4.279   2.827   0.595  0.7972 -1.4959 -0.8171
 4773TIP3   OH214324   3.266   2.332   1.031  0.2402 -0.3998 -0.1046
 4773TIP3    H114325   3.344   2.330   1.085  1.4393 -2.2012 -1.7756
 4773TIP3    H214326   3.298   2.345   0.942 -1.3256 -1.3286 -0.8566
 4774TIP3   OH214327   0.183   3.439   3.634 -0.0134  0.5754 -0.3333
 4774TIP3    H114328   0.226   3.439   3.549  1.2353  0.2400  0.2691
 4774TIP3    H214329   0.090   3.447   3.614  0.2232  0.1099 -1.7415
 4775TIP3   OH214330   2.968   0.058   4.471  0.6337 -0.2524 -0.6625
 4775TIP3    H114331   3.013  -0.004   4.413  0.5580 -0.6830 -0.2678
 4775TIP3    H214332   2.877   0.031   4.469  0.9002 -1.4381  1.0781
 4776TIP3   OH214333   0.505   4.243   2.100 -0.5748 -0.1484 -0.2676
 4776TIP3    H114334   0.474   4.235   2.009 -0.6886 -2.9272 -0.0689
 4776TIP3    H214335   0.425   4.237   2.153 -0.3827  0.1041  0.0529
 4777TIP3   OH214336   5.064   1.710   1.592  0.7017 -0.7068  0.0855
 4777TIP3    H114337   4.996   1.643   1.607 -0.0900  0.1567  0.4455
 4777TIP3    H214338   5.015   1.792   1.586  1.6709 -0.1518 -0.3215
 4778TIP3   OH214339   4.793   3.605   0.279  0.0378  0.0860 -0.7689
 4778TIP3    H114340   4.882   3.581   0.305 -0.2308 -2.2325 -1.6893
 4778TIP3    H214341   4.737   3.569   0.348 -0.2253  1.3307 -0.3112
 4779TIP3   OH214342   2.718   3.649   2.681 -0.2084 -0.1766  0.2591
 4779TIP3    H114343   2.728   3.561   2.715  1.2704  0.3116  1.1851
 4779TIP3    H214344   2.627   3.671   2.699 -0.1681 -0.9308  1.5101
 4780TIP3   OH214345   6.245   3.723   4.090  0.1513 -0.1146 -0.3155
 4780TIP3    H114346   6.272   3.747   4.178 -0.4343 -0.1242 -0.1309
 4780TIP3    H214347   6.253   3.804   4.039  0.6223 -0.1437 -0.2860
 4781TIP3   OH214348   1.327   5.602   0.266  0.3883 -0.4399  0.1247
 4781TIP3    H114349   1.347   5.532   0.203  0.0059 -0.9703  0.5825
 4781TIP3    H214350   1.393   5.593   0.334  1.3617  0.7043 -0.6152
 4782TIP3   OH214351  -0.003   2.342   2.194 -0.0917  0.0532  0.4105
 4782TIP3    H114352   0.053   2.278   2.237  0.6368 -0.3903 -1.1399
 4782TIP3    H214353   0.049   2.423   2.195  0.7768 -0.4425 -1.3344
 4783TIP3   OH214354   0.378   0.165   1.693  0.2098  0.5961 -0.1388
 4783TIP3    H114355   0.344   0.232   1.752 -1.1942 -0.2540  0.0653
 4783TIP3    H214356   0.448   0.123   1.743 -0.6700  0.1782  0.7841
 4784TIP3   OH214357   2.562   3.876   2.172 -0.2093 -0.5974 -0.6358
 4784TIP3    H114358   2.572   3.828   2.091 -0.9494  0.4594 -1.3913
 4784TIP3    H214359   2.601   3.820   2.239  0.9860 -1.2094 -1.8036
 4785TIP3   OH214360   1.818   3.992   2.521  0.5431  0.0241 -0.0424
 4785TIP3    H114361   1.903   4.017   2.558  0.8273 -0.5242 -0.2944
 4785TIP3    H214362   1.801   4.056   2.453  0.8361  0.0458 -0.0956
 4786TIP3   OH214363   1.196   1.766   1.679  0.1134 -0.0966  0.0264
 4786TIP3    H114364   1.244   1.748   1.598 -1.3617 -1.6388 -0.5564
 4786TIP3    H214365   1.232   1.704   1.743  1.8724  1.6855  0.8645
 4787TIP3   OH214366   1.800   4.523   1.387  0.1027  0.2338 -0.1823
 4787TIP3    H114367   1.765   4.523   1.476 -1.4574  0.4572 -0.7795
 4787TIP3    H214368   1.880   4.576   1.393 -0.6006  1.2203  0.8482
 4788TIP3   OH214369   2.299   2.657   0.784  0.1876  0.7251 -0.5689
 4788TIP3    H114370   2.216   2.697   0.757 -1.8831 -1.2270  2.3705
 4788TIP3    H214371   2.348   2.728   0.825  0.1956  1.9660 -2.5726
 4789TIP3   OH214372   4.122   3.912   1.204  0.0529 -0.4802  0.4180
 4789TIP3    H114373   4.051   3.854   1.176 -1.3747  1.2628  0.2777
 4789TIP3    H214374   4.148   3.958   1.124  2.2590 -1.9176  0.1856
 4790TIP3   OH214375   1.647   5.464   3.508  0.2334  0.0410  0.3606
 4790TIP3    H114376   1.678   5.373   3.502 -1.6866 -0.7637  1.4707
 4790TIP3    H214377   1.637   5.480   3.602 -0.8782  0.8605  0.1230
 4791TIP3   OH214378   0.690   2.693   3.160  0.1534  0.5504 -0.4285
 4791TIP3    H114379   0.734   2.651   3.234  1.3353  0.4044 -1.1911
 4791TIP3    H214380   0.637   2.623   3.120 -1.7225  0.9835  1.1365
 4792TIP3   OH214381   4.120   2.535   2.147 -0.5589  0.2401 -0.0144
 4792TIP3    H114382   4.069   2.540   2.228 -0.1333 -1.8902  0.4410
 4792TIP3    H214383   4.195   2.479   2.169  0.2695  0.6761 -1.5421
 4793TIP3   OH214384   5.700   4.349   2.587  0.4032 -0.1443  0.5064
 4793TIP3    H114385   5.777   4.395   2.621  0.3908 -0.0585  0.4193
 4793TIP3    H214386   5.691   4.380   2.497 -0.4395  0.7558  0.8806
 4794TIP3   OH214387   5.826   1.064   4.753  0.1545 -0.2628 -0.6848
 4794TIP3    H114388   5.910   1.032   4.785  0.0671 -0.4960 -0.6854
 4794TIP3    H214389   5.833   1.159   4.757  0.4073 -0.2830 -0.6576
 4795TIP3   OH214390   1.132   3.390   2.896 -0.0184  0.3023  0.1703
 4795TIP3    H114391   1.108   3.448   2.968 -1.2472  1.1192 -0.8661
 4795TIP3    H214392   1.208   3.432   2.856 -0.1437  0.5506  0.1894
 4796TIP3   OH214393   3.872   5.205   3.370  0.9164  0.0076 -0.0746
 4796TIP3    H114394   3.832   5.119   3.357  1.3272 -0.0475 -1.0905
 4796TIP3    H214395   3.931   5.194   3.444  0.0612 -0.2593  0.5816
 4797TIP3   OH214396   1.388   4.546   5.194  0.6220  0.6004 -0.2557
 4797TIP3    H114397   1.405   4.465   5.146  0.1619  0.5625 -0.3611
 4797TIP3    H214398   1.316   4.587   5.147  1.6393  1.6745 -0.9255
 4798TIP3   OH214399   3.406   2.363   4.738 -0.1342  0.0988  0.5091
 4798TIP3    H114400   3.466   2.389   4.807  0.3977 -0.8725  0.4319
 4798TIP3    H214401   3.433   2.274   4.715 -0.5441  0.2666 -0.6850
 4799TIP3   OH214402   4.571   3.275   2.738  0.5155 -0.1723  0.2553
 4799TIP3    H114403   4.579   3.192   2.785 -0.1377 -2.6462 -3.5382
 4799TIP3    H214404   4.490   3.313   2.771  0.4011 -1.4464  1.5384
 4800TIP3   OH214405   5.272   3.300   2.918  0.0497 -0.0361 -0.3785
 4800TIP3    H114406   5.217   3.223   2.934  0.6071 -0.2958  0.3495
 4800TIP3    H214407   5.361   3.265   2.916  0.2806  0.5540 -0.3222
 4801TIP3   OH214408   0.058   2.361   4.720  0.1638 -0.2129 -0.1968
 4801TIP3    H114409  -0.018   2.411   4.749 -0.2254 -0.0217 -1.4907
 4801TIP3    H214410   0.085   2.402   4.638  1.5018 -0.4539  0.0908
 4802TIP3   OH214411   2.267   4.243   0.529 -0.2025 -0.4300  0.0672
 4802TIP3    H114412   2.346   4.296   0.544 -0.7286  0.0892  1.1876
 4802TIP3    H214413   2.300   4.156   0.510  0.6598 -0.1091  0.0411
 4803TIP3   OH214414   3.666   1.110   0.015  0.0570  0.2654 -0.4048
 4803TIP3    H114415   3.688   1.165  -0.060  0.9087  1.2043  0.5089
 4803TIP3    H214416   3.666   1.170   0.089 -0.0793 -0.7789  0.4585
 4804TIP3   OH214417   2.465   0.832   3.501  0.4109 -0.0862 -0.1137
 4804TIP3    H114418   2.491   0.781   3.425 -0.3475 -1.0841  0.2785
 4804TIP3    H214419   2.458   0.769   3.572  0.6982  0.7653  0.6964
 4805TIP3   OH214420   0.737   4.175   0.576  0.3144 -0.3357 -0.3020
 4805TIP3    H114421   0.658   4.220   0.545 -1.0821 -1.5307  1.3378
 4805TIP3    H214422   0.803   4.244   0.582 -0.1291  0.4598 -3.0738
 4806TIP3   OH214423   3.958   0.106   1.471  0.7490 -0.2693  0.4409
 4806TIP3    H114424   3.965   0.151   1.387  0.6385  2.1814  1.6767
 4806TIP3    H214425   3.896   0.158   1.522  0.8787 -1.6341  2.0935
 4807TIP3   OH214426   5.035   4.365   4.140  0.7337  0.2574  0.1441
 4807TIP3    H114427   5.130   4.375   4.129  1.0124  0.5707  2.3069
 4807TIP3    H214428   5.025   4.328   4.228 -1.1803  1.5230  0.5342
 4808TIP3   OH214429   3.032   5.044   0.096  0.3167  0.0493  0.0722
 4808TIP3    H114430   3.030   5.019   0.004 -0.2307  0.4297 -0.0236
 4808TIP3    H214431   3.012   4.963   0.144  0.4670 -0.1177 -0.1454
 4809TIP3   OH214432   5.486   2.707   0.191  0.3206 -0.8289  0.2106
 4809TIP3    H114433   5.578   2.688   0.208  0.1125 -0.5158  1.8978
 4809TIP3    H214434   5.449   2.623   0.165  0.7253 -1.3904  1.3412
 4810TIP3   OH214435   1.105   5.784   3.772  0.3742 -1.0425 -0.1594
 4810TIP3    H114436   1.166   5.718   3.741  0.9184 -0.3372 -0.6380
 4810TIP3    H214437   1.048   5.738   3.833  1.2778 -1.7624  0.1623
 4811TIP3   OH214438   5.713   3.487   2.019  0.1679  0.2265 -0.3963
 4811TIP3    H114439   5.651   3.536   2.073 -0.5517 -1.1344  0.0643
 4811TIP3    H214440   5.659   3.426   1.969  1.1060 -0.9377 -0.0469
 4812TIP3   OH214441   5.382   4.403   4.568 -0.7384 -0.2859  0.1572
 4812TIP3    H114442   5.444   4.382   4.638  0.6168  1.5636 -0.4064
 4812TIP3    H214443   5.432   4.458   4.507 -2.4804 -0.0905 -1.1751
 4813TIP3   OH214444   2.115   2.740   1.205 -0.2250 -0.4790 -0.0340
 4813TIP3    H114445   2.076   2.658   1.174  0.8733 -0.9175 -0.3289
 4813TIP3    H214446   2.041   2.795   1.228 -1.0456 -0.8980 -1.5146
 4814TIP3   OH214447   1.680   0.305   4.517  0.0614  0.0080  0.0474
 4814TIP3    H114448   1.677   0.259   4.433 -0.7796 -1.4597  0.8270
 4814TIP3    H214449   1.613   0.372   4.511 -0.3829 -0.4568 -0.2716
 4815TIP3   OH214450   0.883   1.644   0.815  0.0513  0.1426  0.1925
 4815TIP3    H114451   0.873   1.737   0.795 -3.7030 -0.5794 -2.3442
 4815TIP3    H214452   0.946   1.612   0.750  0.4550  0.7026  0.3038
 4816TIP3   OH214453   0.731   5.591   4.464  0.7721  0.4668  0.1971
 4816TIP3    H114454   0.641   5.560   4.457  1.1921 -0.7921  0.1758
 4816TIP3    H214455   0.759   5.606   4.373  0.0683  2.5026  0.2603
 4817TIP3   OH214456   0.224   3.249   1.647  0.7416 -0.3048  0.2031
 4817TIP3    H114457   0.199   3.219   1.735  1.4201 -0.9243  0.1946
 4817TIP3    H214458   0.149   3.301   1.618 -0.4718 -1.9245  0.2676
 4818TIP3   OH214459   0.893   3.482   4.644  0.7191 -0.3047 -0.2187
 4818TIP3    H114460   0.854   3.505   4.559 -1.1046 -1.0290  0.3615
 4818TIP3    H214461   0.879   3.387   4.651 -0.0028 -0.1139  1.2777
 4819TIP3   OH214462   5.015   1.304   2.211  0.1393 -0.0718  0.2572
 4819TIP3    H114463   5.087   1.242   2.198 -0.2088 -0.1316 -1.7132
 4819TIP3    H214464   4.938   1.248   2.222  0.2478  0.0045  1.5673
 4820TIP3   OH214465   4.434   4.276   4.547 -0.5269 -0.3823  0.4631
 4820TIP3    H114466   4.453   4.196   4.497  2.1927 -0.1471  0.9885
 4820TIP3    H214467   4.423   4.246   4.637 -0.1895 -0.2208  0.5556
 4821TIP3   OH214468   3.228   3.455   4.106 -0.0017 -0.1779 -0.3369
 4821TIP3    H114469   3.321   3.468   4.090 -0.2822  1.0669 -1.0992
 4821TIP3    H214470   3.195   3.542   4.128 -1.2521 -0.2926 -1.5672
 4822TIP3   OH214471   6.089   1.540   2.096  0.4317  0.0370  0.7524
 4822TIP3    H114472   6.173   1.570   2.062  1.1501 -0.8345  1.6762
 4822TIP3    H214473   6.084   1.448   2.069 -1.0726  0.5282 -0.8257
 4823TIP3   OH214474   0.522   3.128   2.228  0.3001  0.0717 -0.6636
 4823TIP3    H114475   0.553   3.191   2.293  0.8339 -0.9337  0.0971
 4823TIP3    H214476   0.531   3.173   2.144 -0.6566  1.5021 -0.0345
 4824TIP3   OH214477   1.812   3.548   4.834 -0.4493 -0.1461  0.3608
 4824TIP3    H114478   1.822   3.635   4.797 -1.7047 -0.1152  0.0516
 4824TIP3    H214479   1.825   3.559   4.928 -0.0215  0.2619  0.2563
 4825TIP3   OH214480   4.721   1.699   4.925  0.2526 -0.2680 -0.1229
 4825TIP3    H114481   4.704   1.730   5.014 -1.2338 -0.6905 -0.2323
 4825TIP3    H214482   4.815   1.681   4.923  0.7551  2.0332  0.6135
 4826TIP3   OH214483   4.862   2.205   3.816  0.1288  0.2309 -0.1477
 4826TIP3    H114484   4.897   2.273   3.874 -0.5673 -0.0875  0.6672
 4826TIP3    H214485   4.866   2.125   3.868 -1.3632  0.1020 -0.1712
 4827TIP3   OH214486   4.458   0.450   4.042 -0.4711 -0.0364  0.4117
 4827TIP3    H114487   4.416   0.527   4.004  0.1988 -0.4133 -1.1719
 4827TIP3    H214488   4.386   0.395   4.071 -0.9918  0.5834  0.3112
 4828TIP3   OH214489   0.485   0.072   3.255 -0.1811 -0.0304  0.3372
 4828TIP3    H114490   0.395   0.063   3.227 -0.7563  1.3210  1.5911
 4828TIP3    H214491   0.479   0.091   3.349  1.4461 -0.7120  0.6155
 4829TIP3   OH214492   5.969   3.820   3.283 -0.3260  0.0021 -0.2868
 4829TIP3    H114493   5.984   3.782   3.196 -1.0654  1.4510 -1.0877
 4829TIP3    H214494   5.981   3.915   3.270  1.0750  0.1232  1.5400
 4830TIP3   OH214495   0.965   5.199   4.762 -0.2758  0.1905  0.2185
 4830TIP3    H114496   1.041   5.256   4.753  1.4597 -1.7690  1.4459
 4830TIP3    H214497   0.906   5.227   4.693  1.2700  2.2115 -0.3931
 4831TIP3   OH214498   3.634   1.930   4.145 -0.8065  0.1433 -0.4959
 4831TIP3    H114499   3.638   1.856   4.205 -2.6517  0.8034  0.5170
 4831TIP3    H214500   3.675   2.002   4.193  0.6812 -0.1035 -1.3468
 4832TIP3   OH214501   1.703   1.977   0.064  0.0830 -0.4988  0.8323
 4832TIP3    H114502   1.685   1.894   0.110  0.6382 -0.5362  0.9911
 4832TIP3    H214503   1.628   2.032   0.084 -0.6388 -1.2105  0.1398
 4833TIP3   OH214504   0.250   4.559   4.955  0.0191 -0.1150  0.4343
 4833TIP3    H114505   0.247   4.504   4.877 -0.2341  0.0611  0.3201
 4833TIP3    H214506   0.158   4.579   4.974  0.0700 -0.2612  0.8525
 4834TIP3   OH214507   0.699   5.016   2.430  0.2634  0.4217 -0.7071
 4834TIP3    H114508   0.731   5.083   2.491  1.1386 -0.4124 -0.2213
 4834TIP3    H214509   0.647   4.958   2.485 -1.2528  1.1633 -1.2918
 4835TIP3   OH214510   4.841   3.240   0.699  0.5127  0.5166  0.0635
 4835TIP3    H114511   4.871   3.301   0.632 -1.2349 -0.0259 -1.2800
 4835TIP3    H214512   4.887   3.267   0.778  2.7009  1.1278 -1.3399
 4836TIP3   OH214513   1.999   0.561   4.228  0.6404  0.2609 -0.3025
 4836TIP3    H114514   2.036   0.598   4.147  0.5111  1.0851  0.0059
 4836TIP3    H214515   2.028   0.621   4.297 -0.4559  0.3799  0.0697
 4837TIP3   OH214516   1.549   0.387   0.682 -0.1417  0.1596  0.1451
 4837TIP3    H114517   1.528   0.410   0.591  0.5710 -0.2127 -0.1239
 4837TIP3    H214518   1.473   0.415   0.732 -1.5526 -1.6684 -0.8543
 4838TIP3   OH214519   1.668   4.595   1.983  0.0103 -0.0397  0.0518
 4838TIP3    H114520   1.763   4.599   1.991  0.1424 -1.8051 -0.3411
 4838TIP3    H214521   1.638   4.564   2.069 -0.0458 -1.3138 -0.4184
 4839TIP3   OH214522   4.449   5.212   1.146  0.1440  1.1613 -0.7754
 4839TIP3    H114523   4.527   5.263   1.167  0.2410  1.0273 -0.8047
 4839TIP3    H214524   4.379   5.276   1.140 -0.0944  1.0969  0.9932
 4840TIP3   OH214525   0.925   1.106   5.095 -0.1193  0.1532 -0.4563
 4840TIP3    H114526   1.019   1.115   5.079 -0.0741  0.7350  0.0903
 4840TIP3    H214527   0.919   1.038   5.162 -0.0515  0.4725 -0.1233
 4841TIP3   OH214528   1.317   5.099   1.855 -0.0422  0.6480 -0.6856
 4841TIP3    H114529   1.375   5.160   1.901  0.6019 -0.7149  0.3630
 4841TIP3    H214530   1.345   5.012   1.883 -1.4615 -0.1263 -1.5281
 4842TIP3   OH214531   4.879   4.006   1.239  0.3847  0.3593 -0.7603
 4842TIP3    H114532   4.889   4.090   1.194  1.4440  0.0350 -1.1685
 4842TIP3    H214533   4.949   4.006   1.305 -0.2515  0.2207 -0.0741
 4843TIP3   OH214534   1.925   5.464   2.019 -0.2393 -1.0511  0.2354
 4843TIP3    H114535   1.960   5.394   1.964  1.2924 -1.7974  2.0446
 4843TIP3    H214536   2.002   5.512   2.049 -1.1754  0.5906  0.1196
 4844TIP3   OH214537   5.057   0.496   4.128 -0.3012  0.2991  0.0156
 4844TIP3    H114538   5.046   0.561   4.059  0.6120  0.4792  0.0223
 4844TIP3    H214539   5.134   0.526   4.177  0.5145 -1.0864 -0.3436
 4845TIP3   OH214540   1.343   5.330   1.555 -0.0123 -0.3112 -0.3413
 4845TIP3    H114541   1.403   5.323   1.629  1.1752 -0.1499 -1.2418
 4845TIP3    H214542   1.289   5.251   1.559  1.0538 -1.0559 -0.1533
 4846TIP3   OH214543   4.759   5.745   0.794  0.0548  0.3407 -0.5646
 4846TIP3    H114544   4.706   5.818   0.760 -0.3476  1.0618  1.4745
 4846TIP3    H214545   4.707   5.667   0.773 -2.4291  1.0777  2.1775
 4847TIP3   OH214546   3.888   4.907   0.254 -0.5837 -0.1959  0.4865
 4847TIP3    H114547   3.904   4.962   0.178 -1.3519  1.1000  1.2262
 4847TIP3    H214548   3.932   4.952   0.326  0.4216 -1.5780  0.7734
 4848TIP3   OH214549   0.932   5.857   0.334 -0.2390 -0.0859 -0.0993
 4848TIP3    H114550   0.974   5.774   0.312 -0.9319 -0.6199  0.5521
 4848TIP3    H214551   0.992   5.898   0.396  1.4669  1.1886 -2.4219
 4849TIP3   OH214552   2.035   2.802   2.625  0.5604  0.5295  0.5895
 4849TIP3    H114553   1.954   2.848   2.645 -0.5530 -2.0464  2.5821
 4849TIP3    H214554   2.014   2.747   2.549  0.0664 -0.8165  1.6527
 4850TIP3   OH214555   1.873   4.094   3.614  0.4229 -0.2509 -0.2768
 4850TIP3    H114556   1.956   4.087   3.568  0.7698 -0.1722  0.3280
 4850TIP3    H214557   1.883   4.041   3.692  0.4759  0.9937  0.5986
 4851TIP3   OH214558   4.834   5.533   5.111 -0.0244 -0.0917 -0.3159
 4851TIP3    H114559   4.891   5.473   5.062 -1.4679 -0.8246 -1.1707
 4851TIP3    H214560   4.870   5.533   5.200  0.6193 -1.4448 -0.5415
 4852TIP3   OH214561   0.944   4.241   0.279  0.5183  0.0513 -0.0106
 4852TIP3    H114562   0.908   4.157   0.306  1.2263 -0.1812  0.2471
 4852TIP3    H214563   0.928   4.245   0.185 -0.0565 -0.0956  0.0765
 4853TIP3   OH214564   5.368   5.322   4.473  0.0485 -1.2067  0.1218
 4853TIP3    H114565   5.393   5.326   4.381  0.9118 -0.2864  0.3802
 4853TIP3    H214566   5.438   5.369   4.519 -0.3552 -1.6762  1.2483
 4854TIP3   OH214567   3.947   4.515   4.177 -0.1941  0.1500  0.0514
 4854TIP3    H114568   3.919   4.585   4.236  2.1492  1.1522  0.1176
 4854TIP3    H214569   3.998   4.456   4.233 -2.2742 -1.7700  0.0266
 4855TIP3   OH214570   4.136   2.383   0.066 -0.1702  0.2986  0.3010
 4855TIP3    H114571   4.181   2.365   0.149 -1.4366 -0.1249  0.9122
 4855TIP3    H214572   4.194   2.445   0.021  1.7937 -1.3977  0.3541
 4856TIP3   OH214573   0.640   4.552   3.115 -0.3967 -0.1482 -0.6134
 4856TIP3    H114574   0.706   4.511   3.171 -1.9116 -0.7273  0.8361
 4856TIP3    H214575   0.577   4.482   3.097 -2.7261  1.2474  1.3969
 4857TIP3   OH214576   2.408   3.370   1.420 -0.2105  0.4759 -0.2786
 4857TIP3    H114577   2.410   3.274   1.418 -0.1708  0.4835 -2.5706
 4857TIP3    H214578   2.420   3.397   1.329  0.1298  2.6866  0.3580
 4858TIP3   OH214579   6.166   3.436   4.194 -0.6886  0.4243 -0.2668
 4858TIP3    H114580   6.185   3.469   4.281  0.1618  1.5275 -0.8414
 4858TIP3    H214581   6.178   3.511   4.136 -0.1518 -0.5416 -1.4679
 4859TIP3   OH214582   2.494   5.120   2.825  0.3605  0.5187  0.2123
 4859TIP3    H114583   2.412   5.150   2.786  0.1479 -0.1111  0.1768
 4859TIP3    H214584   2.510   5.034   2.786 -0.3371 -0.5719  2.1937
 4860TIP3   OH214585   5.881   3.060   2.427 -0.4542  0.1981  0.3660
 4860TIP3    H114586   5.964   3.104   2.445 -1.2364  1.7168  0.4315
 4860TIP3    H214587   5.824   3.084   2.500 -1.4207  0.4709 -0.4492
 4861TIP3   OH214588   4.337   5.858   1.241  0.0747 -0.5046 -0.0835
 4861TIP3    H114589   4.286   5.885   1.318  0.1726  0.3453 -0.3052
 4861TIP3    H214590   4.408   5.923   1.236 -0.0211 -0.4650 -0.9748
 4862TIP3   OH214591   1.332   3.156   2.650 -0.1228 -0.2232  0.0192
 4862TIP3    H114592   1.350   3.085   2.589  0.7215 -2.2706  2.4519
 4862TIP3    H214593   1.379   3.231   2.614  1.0234 -1.5441 -1.3940
 4863TIP3   OH214594   0.173   0.000   2.169  0.5720 -0.1361 -0.1048
 4863TIP3    H114595   0.238   0.026   2.234  1.8103 -0.4051 -1.1977
 4863TIP3    H214596   0.160   0.079   2.116  2.0242 -0.7691 -1.5063
 4864TIP3   OH214597   5.223   3.004   4.459 -0.2730  0.2639  0.3661
 4864TIP3    H114598   5.296   3.005   4.398 -1.9787 -1.1175 -1.8826
 4864TIP3    H214599   5.262   2.980   4.543  1.9235  0.3774 -0.5557
 4865TIP3   OH214600   4.323   2.524   0.388 -0.1423 -0.3014 -0.2933
 4865TIP3    H114601   4.257   2.584   0.354 -0.4820 -0.5306 -0.0513
 4865TIP3    H214602   4.372   2.575   0.452  0.8530  0.2916 -1.4957
 4866TIP3   OH214603   2.609   1.416   1.228  0.6974 -0.2028  0.2896
 4866TIP3    H114604   2.692   1.381   1.196  1.7160  0.9404  1.5471
 4866TIP3    H214605   2.627   1.440   1.319 -0.9249  0.3735  0.4846
 4867TIP3   OH214606   4.489   3.096   0.067 -0.0478 -0.6803  0.0694
 4867TIP3    H114607   4.520   3.006   0.050 -1.1917 -1.2531  0.8758
 4867TIP3    H214608   4.552   3.130   0.131  0.7774 -0.6580 -0.7323
 4868TIP3   OH214609   3.479   4.129   3.321  0.0613  0.2238 -0.7084
 4868TIP3    H114610   3.469   4.035   3.339  0.1656  0.0811 -1.3626
 4868TIP3    H214611   3.394   4.157   3.288  0.2500  0.1743 -1.2633
 4869TIP3   OH214612   0.332   1.892   2.497  0.4929  0.6225 -0.0475
 4869TIP3    H114613   0.368   1.836   2.428 -0.9084  1.8447 -1.8445
 4869TIP3    H214614   0.237   1.888   2.484  0.2973  2.2589  0.7035
 4870TIP3   OH214615   4.722   4.371   3.244 -0.5544 -0.7487  0.1087
 4870TIP3    H114616   4.747   4.449   3.294  1.3447 -0.6262 -0.9394
 4870TIP3    H214617   4.642   4.340   3.286  0.2438  0.0813  2.3694
 4871TIP3   OH214618   0.649   5.328   1.144 -1.0592 -0.2305  0.1370
 4871TIP3    H114619   0.743   5.319   1.161 -0.7420 -1.7599 -2.0570
 4871TIP3    H214620   0.613   5.241   1.163 -1.5602 -0.4116 -1.4894
 4872TIP3   OH214621   4.103   0.420   1.673  0.0601 -0.1305  0.1773
 4872TIP3    H114622   4.088   0.478   1.747  2.0235 -0.9695  1.3186
 4872TIP3    H214623   4.146   0.343   1.711 -2.0997 -2.2213 -1.3246
 4873TIP3   OH214624   3.583   5.819   4.970  0.5448  0.2661 -0.2477
 4873TIP3    H114625   3.556   5.874   5.043  0.8128  0.6109 -0.4059
 4873TIP3    H214626   3.639   5.752   5.010  0.4290  0.2627 -0.0916
 4874TIP3   OH214627   2.118   3.742   0.410 -0.0394 -0.5951 -0.3311
 4874TIP3    H114628   2.099   3.802   0.338 -0.0781 -0.1311  0.0608
 4874TIP3    H214629   2.120   3.798   0.488 -2.1762 -1.3853  0.3633
 4875TIP3   OH214630   4.571   0.398   4.900 -0.6654 -0.5720  0.5420
 4875TIP3    H114631   4.577   0.311   4.941 -2.3129  0.1216  2.3694
 4875TIP3    H214632   4.603   0.458   4.966 -0.4040  0.3297 -0.3821
 4876TIP3   OH214633   1.246   1.455   4.927  0.7879 -0.1933  0.3068
 4876TIP3    H114634   1.280   1.394   4.993  0.3339 -0.6158  0.1606
 4876TIP3    H214635   1.206   1.525   4.978  0.5158 -0.4725  0.4855
 4877TIP3   OH214636   5.185   5.628   2.270  0.4727  0.2396 -0.2120
 4877TIP3    H114637   5.168   5.722   2.275 -0.8287  0.1034 -1.4428
 4877TIP3    H214638   5.245   5.618   2.196  1.8716  0.2084  0.8740
 4878TIP3   OH214639   0.806   4.619   1.058  0.1773 -0.0729  0.1184
 4878TIP3    H114640   0.893   4.654   1.080  0.2081  0.3949 -0.7083
 4878TIP3    H214641   0.793   4.547   1.120  1.5347 -0.7209 -0.3020
 4879TIP3   OH214642   4.189   2.074   4.223  0.1194  0.4433  0.0227
 4879TIP3    H114643   4.201   1.999   4.165  0.4127  1.1776 -0.8947
 4879TIP3    H214644   4.262   2.069   4.284  1.1902  0.9740 -1.1679
 4880TIP3   OH214645   4.673   4.103   3.602 -0.1663 -0.2581 -0.0813
 4880TIP3    H114646   4.735   4.174   3.584  1.4232 -1.6086 -0.1706
 4880TIP3    H214647   4.597   4.147   3.639  0.6871  1.5174 -0.3176
 4881TIP3   OH214648   0.756   4.453   0.838 -0.3366 -0.0917 -0.0880
 4881TIP3    H114649   0.747   4.523   0.902 -1.9860 -0.4939  0.1559
 4881TIP3    H214650   0.830   4.480   0.784  0.4659  0.7400  1.3624
 4882TIP3   OH214651   3.429   4.852   3.709 -0.1687  0.4070 -0.0612
 4882TIP3    H114652   3.433   4.828   3.616  0.2967 -0.0806  0.0762
 4882TIP3    H214653   3.457   4.772   3.755 -0.1571  0.7206  0.4843
 4883TIP3   OH214654   5.919   0.578   1.457  0.0741  0.2754 -0.3041
 4883TIP3    H114655   5.864   0.654   1.475  0.3020  0.2114  0.7516
 4883TIP3    H214656   5.993   0.588   1.517 -0.2016 -1.0905  0.3025
 4884TIP3   OH214657   0.485   5.767   4.325  0.0102  0.6831  0.1358
 4884TIP3    H114658   0.509   5.859   4.324  1.2827  0.4251  2.2297
 4884TIP3    H214659   0.463   5.748   4.416  0.0038 -1.1384 -0.2006
 4885TIP3   OH214660   5.443   1.342   0.486 -0.1961  0.5328 -0.1464
 4885TIP3    H114661   5.399   1.271   0.439 -2.2935  1.3356  0.4922
 4885TIP3    H214662   5.470   1.403   0.417  2.8159 -1.3571 -0.8484
 4886TIP3   OH214663   5.778   3.637   5.026 -0.0980 -0.1944  0.1767
 4886TIP3    H114664   5.718   3.607   4.957  0.6986  1.3065 -1.2363
 4886TIP3    H214665   5.819   3.557   5.058 -2.0169 -1.1414  0.4062
 4887TIP3   OH214666   1.329   2.325   1.085  0.2146  0.0323  0.5958
 4887TIP3    H114667   1.414   2.361   1.111 -0.2315  0.4372  1.5316
 4887TIP3    H214668   1.281   2.315   1.167 -0.9250  0.5411  0.0117
 4888TIP3   OH214669   1.293   2.646   2.206  0.2831  0.0421 -0.0436
 4888TIP3    H114670   1.237   2.702   2.260  1.0661 -0.6522  1.5609
 4888TIP3    H214671   1.233   2.586   2.162 -0.3275  0.0157  0.8077
 4889TIP3   OH214672   6.191   2.965   4.696 -0.1233  0.2824  0.0180
 4889TIP3    H114673   6.262   2.901   4.687 -0.6797 -0.4630  0.7882
 4889TIP3    H214674   6.147   2.964   4.610  0.2350  0.0760 -0.1656
 4890TIP3   OH214675   0.553   2.053   3.510  0.4662  0.5049  0.1483
 4890TIP3    H114676   0.554   2.083   3.419 -1.6818 -0.6444 -0.3393
 4890TIP3    H214677   0.600   1.969   3.507  2.3423  1.4926  0.5854
 4891TIP3   OH214678   5.183   5.170   4.772  0.0112 -0.0292  0.6029
 4891TIP3    H114679   5.273   5.154   4.745  0.3925  0.1917  1.6746
 4891TIP3    H214680   5.185   5.165   4.868 -1.4388 -1.6352  0.6080
 4892TIP3   OH214681   3.632   5.339   2.312  0.1587  0.5268  0.4436
 4892TIP3    H114682   3.681   5.384   2.380 -0.5954  1.1793  0.5737
 4892TIP3    H214683   3.635   5.398   2.237  1.4317 -0.4170 -0.2905
 4893TIP3   OH214684   5.445   3.503   0.700 -0.0816  0.3374  0.2493
 4893TIP3    H114685   5.488   3.456   0.629 -0.9736 -1.2002  0.6728
 4893TIP3    H214686   5.384   3.562   0.656  1.1083  1.2131 -0.2932
 4894TIP3   OH214687   2.472   3.398   1.696  0.3369 -0.6243 -0.3967
 4894TIP3    H114688   2.439   3.409   1.607 -0.0544 -2.0283 -0.4484
 4894TIP3    H214689   2.567   3.412   1.689  0.5564 -2.3603 -1.3723
 4895TIP3   OH214690   0.127   3.255   4.369 -0.2909  0.4543 -0.4614
 4895TIP3    H114691   0.191   3.242   4.439 -1.6797 -0.6407  0.6526
 4895TIP3    H214692   0.042   3.243   4.411 -1.1721 -0.2351 -2.3312
 4896TIP3   OH214693   5.677   5.321   2.370 -0.3214  0.1750 -0.0356
 4896TIP3    H114694   5.603   5.341   2.313 -0.1293 -0.0655 -0.3729
 4896TIP3    H214695   5.725   5.253   2.324  0.8276  1.2220 -0.4419
 4897TIP3   OH214696   4.532   3.214   3.160  0.4865 -0.0579 -0.4948
 4897TIP3    H114697   4.477   3.178   3.229 -0.7539  0.2743 -1.2705
 4897TIP3    H214698   4.536   3.307   3.178  1.7605 -0.2235  0.1904
 4898TIP3   OH214699   0.324   2.168   4.168  0.0427  0.4208 -0.2515
 4898TIP3    H114700   0.417   2.158   4.186 -0.3069 -0.5388  1.1454
 4898TIP3    H214701   0.281   2.150   4.251 -1.5346 -1.5886 -1.4082
 4899TIP3   OH214702   2.658   4.362   0.827 -0.0594  0.0366 -0.5691
 4899TIP3    H114703   2.734   4.420   0.826  0.1073 -0.1342  0.7889
 4899TIP3    H214704   2.609   4.388   0.905 -1.6245  0.4227 -1.6268
 4900TIP3   OH214705   4.933   1.134   5.055  0.0290  0.3949 -0.1357
 4900TIP3    H114706   4.845   1.170   5.066 -0.8319 -1.5455 -0.1562
 4900TIP3    H214707   4.951   1.143   4.962 -1.0827 -1.0826 -0.5360
 4901TIP3   OH214708   4.875   0.853   2.927 -0.0339 -0.0644  0.7688
 4901TIP3    H114709   4.829   0.769   2.931  0.3815 -0.4283 -1.1359
 4901TIP3    H214710   4.949   0.836   2.868 -0.1799  1.7449  0.0143
 4902TIP3   OH214711   4.811   5.417   2.285  0.2630  0.2648 -0.3646
 4902TIP3    H114712   4.788   5.333   2.246  0.5940 -0.4235  0.8906
 4902TIP3    H214713   4.895   5.402   2.328 -0.2719  0.8843  0.9522
 4903TIP3   OH214714   1.901   0.979   0.702 -0.0061 -0.0076  0.3533
 4903TIP3    H114715   1.837   0.995   0.633 -0.3630 -0.1088  0.6568
 4903TIP3    H214716   1.915   1.064   0.743  0.0715  0.0191  0.2710
 4904TIP3   OH214717   3.101   3.426   0.497 -0.0745 -1.0838 -0.0100
 4904TIP3    H114718   3.098   3.330   0.495 -2.1436 -1.0601 -2.1856
 4904TIP3    H214719   3.011   3.453   0.482  0.5763  1.2280 -0.1383
 4905TIP3   OH214720   2.623   1.802   1.538  0.7322  0.1992 -0.2864
 4905TIP3    H114721   2.632   1.834   1.628  2.6820  0.0630 -0.4006
 4905TIP3    H214722   2.671   1.720   1.537 -0.7416 -0.7027 -1.0558
 4906TIP3   OH214723   4.296   0.890   3.722  0.0873  0.2306 -0.0238
 4906TIP3    H114724   4.223   0.847   3.766 -0.7541  0.7804 -0.8641
 4906TIP3    H214725   4.303   0.976   3.764 -0.1120  0.3959 -0.3300
 4907TIP3   OH214726   3.872   3.687   5.125  0.0880 -0.6511 -0.0006
 4907TIP3    H114727   3.946   3.627   5.135 -0.8234 -1.6486  1.1152
 4907TIP3    H214728   3.882   3.750   5.196 -0.5487 -1.2652  0.6450
 4908TIP3   OH214729   6.177   4.697   3.613 -0.2019 -0.4116  0.6850
 4908TIP3    H114730   6.194   4.603   3.620  0.5132 -0.3921 -0.5187
 4908TIP3    H214731   6.264   4.738   3.618 -0.5519  0.2400  1.7818
 4909TIP3   OH214732   0.641   3.912   1.621 -0.1941 -0.0148  0.1142
 4909TIP3    H114733   0.706   3.977   1.646  0.1822 -0.7773  1.2024
 4909TIP3    H214734   0.672   3.879   1.536 -0.4718  1.2976 -0.5219
 4910TIP3   OH214735   5.808   0.213   4.485  0.2912  0.1810 -0.6114
 4910TIP3    H114736   5.869   0.178   4.550 -1.0602 -2.2267 -0.5445
 4910TIP3    H214737   5.862   0.269   4.429  1.8877  0.6709  1.3217
 4911TIP3   OH214738   0.129   3.988   4.131 -0.4418 -0.1898  0.1693
 4911TIP3    H114739   0.064   4.005   4.062 -0.7714  1.7979  0.9080
 4911TIP3    H214740   0.079   3.945   4.200 -0.5618 -0.3707 -0.0297
 4912TIP3   OH214741   5.955   4.795   1.097 -0.4358 -0.4552 -0.1234
 4912TIP3    H114742   5.996   4.880   1.112 -1.7820  0.0294  1.0315
 4912TIP3    H214743   6.005   4.757   1.024  0.0822  1.3798 -0.7827
 4913TIP3   OH214744   5.250   0.592   4.321  0.2618 -0.1464  0.0693
 4913TIP3    H114745   5.285   0.680   4.309 -0.6209  0.1119 -0.7486
 4913TIP3    H214746   5.322   0.534   4.297  0.5042  0.3682 -0.4736
 4914TIP3   OH214747   6.085   2.724   3.825  0.3134 -0.9275  0.0930
 4914TIP3    H114748   5.995   2.756   3.818 -0.1928 -1.7588  2.1019
 4914TIP3    H214749   6.124   2.776   3.895  1.2982 -0.8267 -0.5084
 4915TIP3   OH214750   3.610   5.274   4.927  0.0479 -0.4089 -0.1984
 4915TIP3    H114751   3.524   5.298   4.894 -0.3840 -0.1161  1.0668
 4915TIP3    H214752   3.601   5.183   4.954  0.1512 -0.3916 -0.1057
 4916TIP3   OH214753   3.628   1.753   2.055  0.3673 -0.0670 -0.0262
 4916TIP3    H114754   3.582   1.763   1.971 -1.5136 -0.1278  0.9426
 4916TIP3    H214755   3.600   1.668   2.088 -0.3499  0.7087  1.4644
 4917TIP3   OH214756   0.415   2.227   2.470  0.4834 -0.3835 -0.1055
 4917TIP3    H114757   0.487   2.201   2.412  1.1820 -0.1847  0.6498
 4917TIP3    H214758   0.413   2.159   2.537  1.6892  0.9429  1.3431
 4918TIP3   OH214759   3.974   4.136   2.919  0.1718  0.2699 -0.5065
 4918TIP3    H114760   3.914   4.104   2.987 -0.1645  0.3841 -0.7500
 4918TIP3    H214761   4.046   4.073   2.920  0.0781  0.1624 -0.1721
 4919TIP3   OH214762   6.198   0.097   3.383 -0.1209 -0.0222  0.4154
 4919TIP3    H114763   6.149   0.065   3.308 -3.0830 -2.1292  3.0175
 4919TIP3    H214764   6.278   0.045   3.384  0.4593  0.7137 -1.6907
 4920TIP3   OH214765   3.969   3.674   3.282 -0.0453  0.3997 -0.5112
 4920TIP3    H114766   4.018   3.610   3.333  0.2697  0.1612 -1.0972
 4920TIP3    H214767   3.965   3.752   3.337 -2.3480 -0.7860  1.1635
 4921TIP3   OH214768   5.661   5.787   5.083 -0.3848  0.2168 -0.2603
 4921TIP3    H114769   5.698   5.699   5.091 -0.1583  0.3347  0.0253
 4921TIP3    H214770   5.735   5.846   5.098 -0.7861  0.4559  0.9093
 4922TIP3   OH214771   1.254   4.818   3.596  0.0430 -0.0320  0.0752
 4922TIP3    H114772   1.240   4.911   3.576  1.3834  0.3219  0.6785
 4922TIP3    H214773   1.261   4.815   3.691 -1.9159 -1.0698  0.2456
 4923TIP3   OH214774   1.621   0.417   1.613 -0.2001  0.6263 -0.3628
 4923TIP3    H114775   1.604   0.438   1.705 -0.4637  0.7148 -0.4326
 4923TIP3    H214776   1.651   0.326   1.616 -1.4773  0.1831 -0.3169
 4924TIP3   OH214777   2.524   3.110   0.922  1.0610  0.1529 -0.0136
 4924TIP3    H114778   2.607   3.128   0.877  0.3927 -0.5244 -1.5863
 4924TIP3    H214779   2.509   3.016   0.909 -0.6290  0.5135 -0.9870
 4925TIP3   OH214780   6.122   0.117   2.839 -0.2782 -0.1564  0.0791
 4925TIP3    H114781   6.084   0.112   2.927  0.0098  0.1252  0.2229
 4925TIP3    H214782   6.046   0.116   2.780 -0.4835 -0.0811  0.3405
 4926TIP3   OH214783   4.198   5.302   4.780  0.0553  0.7447 -0.3525
 4926TIP3    H114784   4.125   5.272   4.835 -1.6845  0.5377 -2.6034
 4926TIP3    H214785   4.205   5.396   4.799 -1.9143  1.1154 -1.1952
 4927TIP3   OH214786   0.809   2.522   4.920 -0.4255 -0.3086  0.3240
 4927TIP3    H114787   0.836   2.486   5.004 -1.7736 -0.3110  0.7746
 4927TIP3    H214788   0.822   2.617   4.929 -1.1129 -0.2524  0.7463
 4928TIP3   OH214789   5.825   5.553   0.467  0.1013 -0.2896  0.2547
 4928TIP3    H114790   5.769   5.628   0.488 -0.9766 -1.1276  0.4439
 4928TIP3    H214791   5.792   5.483   0.523 -0.6332 -1.6453 -1.7943
 4929TIP3   OH214792   4.448   1.866   4.013 -0.0898  0.2481  0.1673
 4929TIP3    H114793   4.466   1.804   3.942 -0.0755  0.2318  0.1850
 4929TIP3    H214794   4.363   1.904   3.991 -0.3937 -0.2327  0.4745
 4930TIP3   OH214795   1.049   4.096   4.028  0.5811  0.6147  0.3722
 4930TIP3    H114796   1.093   4.030   3.975 -2.0292 -1.5145  0.6584
 4930TIP3    H214797   0.989   4.139   3.967 -1.4727 -0.9373  1.1909
 4931TIP3   OH214798   5.847   0.949   2.152 -0.1026  0.2689 -0.8914
 4931TIP3    H114799   5.803   0.985   2.229  2.3549  2.2001 -0.2713
 4931TIP3    H214800   5.778   0.905   2.103 -1.9863  0.0739  1.7600
 4932TIP3   OH214801   2.634   5.577   1.143  0.1949 -0.4416 -0.3811
 4932TIP3    H114802   2.691   5.573   1.066  1.0759 -3.2694  0.3108
 4932TIP3    H214803   2.545   5.578   1.107  0.6066 -0.1701 -1.4367
 4933TIP3   OH214804   1.180   3.846   3.002  0.2642  0.0210  0.0204
 4933TIP3    H114805   1.262   3.883   3.034 -0.0495  1.3313 -0.6169
 4933TIP3    H214806   1.118   3.919   3.004 -0.7474 -0.8094 -0.0183
 4934TIP3   OH214807   3.636   3.609   0.361  0.1176 -0.3162  0.4583
 4934TIP3    H114808   3.546   3.637   0.379  0.3118 -0.4179  1.6563
 4934TIP3    H214809   3.688   3.688   0.374  0.3531 -0.5794  1.1779
 4935TIP3   OH214810   2.838   5.608   1.952 -0.4040  0.5341  0.0256
 4935TIP3    H114811   2.771   5.546   1.922  1.0456 -1.8476  1.4290
 4935TIP3    H214812   2.899   5.555   2.003  1.8783  2.8454 -0.0967
 4936TIP3   OH214813   3.503   3.972   2.698 -0.2856  0.0038  0.0065
 4936TIP3    H114814   3.470   3.888   2.665 -0.5800  0.4607 -0.8997
 4936TIP3    H214815   3.547   3.950   2.780 -0.7950 -0.9640  0.0344
 4937TIP3   OH214816   0.751   1.248   1.040  0.0360  0.0428 -0.7347
 4937TIP3    H114817   0.714   1.183   0.981  1.4955  0.0420 -1.6835
 4937TIP3    H214818   0.729   1.332   1.000 -1.6040  0.1895  0.3452
 4938TIP3   OH214819   3.503   0.188   4.798 -0.3564  0.1689 -0.4717
 4938TIP3    H114820   3.511   0.282   4.811  1.8289  0.1073 -0.9734
 4938TIP3    H214821   3.418   0.176   4.756 -0.6671  1.9022 -0.3908
 4939TIP3   OH214822   6.237   0.842   2.519 -0.0824  0.7014  0.3960
 4939TIP3    H114823   6.321   0.795   2.510 -0.6911 -0.1956 -0.9789
 4939TIP3    H214824   6.260   0.925   2.561  1.8619  1.4058 -1.8311
 4940TIP3   OH214825   0.035   5.403   4.223  0.2212  0.1127 -0.1424
 4940TIP3    H114826   0.127   5.398   4.196 -0.2808  0.7254 -2.1890
 4940TIP3    H214827  -0.014   5.381   4.144 -1.4038  0.1623  0.8143
 4941TIP3   OH214828   2.996   0.489   0.113  0.5090 -0.0414  0.3619
 4941TIP3    H114829   2.986   0.512   0.205  1.3517 -1.4125  0.8211
 4941TIP3    H214830   2.940   0.552   0.067  1.1387  1.5713  1.6691
 4942TIP3   OH214831   0.806   2.687   0.786 -0.2812  0.2511 -0.1489
 4942TIP3    H114832   0.758   2.735   0.854 -2.8334  1.0733 -2.3867
 4942TIP3    H214833   0.867   2.752   0.750  0.9542 -0.1380  1.1496
 4943TIP3   OH214834   5.767   3.908   3.015 -0.0421  0.2509  1.0778
 4943TIP3    H114835   5.716   3.881   2.939  0.3905  1.2086  0.4199
 4943TIP3    H214836   5.820   3.832   3.038 -0.1428 -0.0302  0.3927
 4944TIP3   OH214837   2.893   2.617   2.428  0.0043 -0.3982  0.4058
 4944TIP3    H114838   2.877   2.608   2.335  1.2534  0.4315  0.0857
 4944TIP3    H214839   2.885   2.528   2.463  0.1863 -0.8242 -0.6031
 4945TIP3   OH214840   1.232   3.752   0.120  0.0928  0.0612 -0.4468
 4945TIP3    H114841   1.253   3.768   0.212 -1.4855  0.6411 -0.1514
 4945TIP3    H214842   1.200   3.837   0.088  1.6304  0.1665 -1.8606
 4946TIP3   OH214843   3.187   1.465   3.357  0.2877 -0.1718  0.4238
 4946TIP3    H114844   3.180   1.405   3.283  1.1971  0.5006 -0.2246
 4946TIP3    H214845   3.120   1.531   3.342  1.0636  0.4710 -0.2965
 4947TIP3   OH214846   3.006   4.366   3.369 -0.0002 -0.0544  0.1605
 4947TIP3    H114847   3.081   4.330   3.416  0.4668  0.6150 -0.0477
 4947TIP3    H214848   3.024   4.348   3.277  0.2458  0.7043  0.0538
 4948TIP3   OH214849   1.914   4.285   1.537  0.4710  0.0537 -0.3951
 4948TIP3    H114850   1.864   4.299   1.617  1.4527  2.0038 -0.0513
 4948TIP3    H214851   1.865   4.219   1.488 -2.3127  1.6907  0.0044
 4949TIP3   OH214852   6.271   4.119   1.338 -0.5317 -0.2462 -0.2209
 4949TIP3    H114853   6.329   4.074   1.398 -0.8024  0.5724  0.6744
 4949TIP3    H214854   6.256   4.056   1.267 -1.3506 -1.7761  1.2575
 4950TIP3   OH214855   4.690   5.945   1.863  0.0196 -0.1551  0.5671
 4950TIP3    H114856   4.670   5.853   1.844 -1.9790  0.1810  0.7873
 4950TIP3    H214857   4.696   5.949   1.958  1.7066 -0.3122  0.4976
 4951TIP3   OH214858   4.648   0.778   3.341 -0.6478  0.6327 -0.6471
 4951TIP3    H114859   4.567   0.817   3.375 -0.9990  1.1493 -2.0097
 4951TIP3    H214860   4.626   0.750   3.252  0.4312 -0.0257 -0.7215
 4952TIP3   OH214861   4.272   1.294   0.131  0.0209  0.7737  0.0098
 4952TIP3    H114862   4.270   1.213   0.080 -0.6661 -0.4643  1.8789
 4952TIP3    H214863   4.276   1.264   0.222 -0.5672  2.8470  0.7696
 4953TIP3   OH214864   3.277   1.796   2.069  0.1118  0.2869 -0.6422
 4953TIP3    H114865   3.288   1.857   1.996  0.2109  0.8151 -0.1855
 4953TIP3    H214866   3.260   1.851   2.145 -0.1077 -0.2672 -0.2826
 4954TIP3   OH214867   5.201   4.154   0.886 -0.0547 -0.4532  0.2079
 4954TIP3    H114868   5.220   4.061   0.877  0.2515 -0.5173  1.3622
 4954TIP3    H214869   5.283   4.193   0.915 -0.0079  0.2927 -0.8595
 4955TIP3   OH214870   2.799   4.870   4.497 -0.3369  0.2051  0.5431
 4955TIP3    H114871   2.867   4.929   4.465 -1.1665  1.1987  0.5572
 4955TIP3    H214872   2.798   4.798   4.433 -1.3786  1.7146 -1.2289
 4956TIP3   OH214873   3.169   0.412   4.803 -0.3704 -0.3110 -0.1907
 4956TIP3    H114874   3.210   0.418   4.889 -0.8516 -0.5837  0.0644
 4956TIP3    H214875   3.087   0.461   4.811  0.0487  0.4997 -0.7884
 4957TIP3   OH214876   4.055   0.665   5.163 -0.1015 -0.2432 -0.3073
 4957TIP3    H114877   4.042   0.695   5.073 -1.3301  2.2422  0.6124
 4957TIP3    H214878   3.971   0.680   5.205  0.1252 -2.3578  1.0644
 4958TIP3   OH214879   2.245   0.602   4.598  0.4889 -0.1135 -0.5772
 4958TIP3    H114880   2.168   0.657   4.589 -0.1600 -0.5263  1.8279
 4958TIP3    H214881   2.303   0.631   4.527 -1.3491  1.0165 -1.7086
 4959TIP3   OH214882   4.177  -0.019   1.573  0.3864  0.9761  0.2357
 4959TIP3    H114883   4.246   0.043   1.550 -0.9501  2.1129 -0.9006
 4959TIP3    H214884   4.096   0.024   1.545 -0.6695 -0.9116  0.2488
 4960TIP3   OH214885   2.175   4.611   3.760 -0.3298  0.1536  0.2225
 4960TIP3    H114886   2.217   4.558   3.692 -1.8685 -2.9105  1.5083
 4960TIP3    H214887   2.158   4.695   3.716  0.4059 -1.0375 -2.5995
 4961TIP3   OH214888   3.948   5.131   4.394 -0.3965 -0.2164  0.7477
 4961TIP3    H114889   3.862   5.136   4.434 -0.2688  1.0621  0.8966
 4961TIP3    H214890   3.958   5.214   4.347 -0.6630 -1.7247 -2.2325
 4962TIP3   OH214891   1.915   2.101   0.651  0.0492 -0.0787 -0.1061
 4962TIP3    H114892   1.892   2.079   0.741 -0.8517  1.3187  0.0418
 4962TIP3    H214893   1.831   2.102   0.604  0.2855  0.9167 -0.5426
 4963TIP3   OH214894   1.196   0.602   4.430  0.4709 -0.0192  0.2490
 4963TIP3    H114895   1.132   0.534   4.410  0.5839 -0.3313  0.9181
 4963TIP3    H214896   1.235   0.574   4.513  0.3468  0.9899  0.6607
 4964TIP3   OH214897   1.823   5.688   2.231 -0.2576 -0.4166  0.2836
 4964TIP3    H114898   1.868   5.684   2.147  0.0479  0.8412  0.3587
 4964TIP3    H214899   1.845   5.606   2.275  0.9335 -0.3592 -0.1929
 4965TIP3   OH214900   4.430   4.474   4.322  0.7230  0.2759  0.4038
 4965TIP3    H114901   4.435   4.428   4.406  0.5729 -0.1266  0.1906
 4965TIP3    H214902   4.449   4.407   4.257  0.7154  0.5637  0.1067
 4966TIP3   OH214903   2.475   3.447   2.791 -0.4578 -0.6101  0.0870
 4966TIP3    H114904   2.419   3.514   2.752  0.6061 -0.5418 -1.3853
 4966TIP3    H214905   2.435   3.430   2.876 -0.2766  2.5431  0.9533
 4967TIP3   OH214906   2.417   2.364   0.425  0.0214  0.1724 -0.1699
 4967TIP3    H114907   2.365   2.342   0.503 -1.2602 -1.7901 -1.4923
 4967TIP3    H214908   2.361   2.340   0.351  2.8933 -2.4539 -1.7280
 4968TIP3   OH214909   3.132   4.990   1.934  0.3181  0.4223  0.6032
 4968TIP3    H114910   3.135   4.960   1.843 -1.1710 -0.7372  0.9023
 4968TIP3    H214911   3.158   5.082   1.929  0.4398  0.3426 -0.9660
 4969TIP3   OH214912   4.831   3.286   4.158 -0.4898 -0.5830 -0.0024
 4969TIP3    H114913   4.831   3.381   4.149 -0.3727 -0.5849 -0.0371
 4969TIP3    H214914   4.902   3.268   4.220 -0.0168 -0.6925 -0.5663
 4970TIP3   OH214915   4.385   2.452   1.146  0.6010 -0.2154  0.1817
 4970TIP3    H114916   4.306   2.429   1.096  0.5778 -1.5490  0.7819
 4970TIP3    H214917   4.419   2.530   1.103 -0.4348 -0.2720 -0.7797
 4971TIP3   OH214918   3.835   0.728   2.708  0.1417  0.1027  0.1563
 4971TIP3    H114919   3.900   0.773   2.654  0.2642  1.3436  1.2804
 4971TIP3    H214920   3.886   0.665   2.759  0.3537  0.5084  0.4507
 4972TIP3   OH214921   6.225   0.638   0.428  0.2088  0.5276  0.2869
 4972TIP3    H114922   6.215   0.608   0.518  1.5040 -0.6671  0.0523
 4972TIP3    H214923   6.319   0.646   0.415  0.0240  1.2503 -0.8011
 4973TIP3   OH214924   1.704   2.327   4.682 -0.5003 -0.5539 -0.8159
 4973TIP3    H114925   1.669   2.400   4.734  0.4606 -1.3846  1.0790
 4973TIP3    H214926   1.747   2.370   4.608 -2.1926  0.6454 -1.1873
 4974TIP3   OH214927   0.251   4.049   4.891 -0.0733  0.2926  0.5757
 4974TIP3    H114928   0.293   4.094   4.817 -0.0450  0.8183  0.9014
 4974TIP3    H214929   0.269   3.956   4.876 -0.1262  0.3868 -0.1095
 4975TIP3   OH214930   4.824   2.941   3.223 -0.1092 -0.5367  0.2874
 4975TIP3    H114931   4.736   2.918   3.253  0.1509 -3.3009 -0.7944
 4975TIP3    H214932   4.812   2.966   3.131  0.0388  0.7507  0.6064
 4976TIP3   OH214933   4.750   4.141   4.908 -0.2119 -0.1807  0.1128
 4976TIP3    H114934   4.834   4.184   4.890 -0.5732  0.7232  0.5383
 4976TIP3    H214935   4.728   4.097   4.826  1.0702 -1.1248  0.2422
 4977TIP3   OH214936   1.485   3.718   4.465 -0.5406 -0.2022  0.5456
 4977TIP3    H114937   1.501   3.764   4.547  1.0344  0.9954 -0.3965
 4977TIP3    H214938   1.554   3.747   4.406 -1.4076 -1.3161 -1.1153
 4978TIP3   OH214939   2.139   4.607   1.162  0.2910  0.0033 -0.2562
 4978TIP3    H114940   2.052   4.634   1.133  0.4163  0.1571 -0.4976
 4978TIP3    H214941   2.124   4.530   1.216  0.1176 -0.8254 -1.4578
 4979TIP3   OH214942   4.250   5.816   1.626  0.1198  0.2239  0.3131
 4979TIP3    H114943   4.173   5.832   1.681  0.4729 -0.9036  1.1793
 4979TIP3    H214944   4.238   5.726   1.595  1.6318 -0.4043  1.4181
 4980TIP3   OH214945   2.443   1.603   0.121  0.1337  0.2181  0.8997
 4980TIP3    H114946   2.352   1.608   0.092 -0.1270 -0.3679  1.5963
 4980TIP3    H214947   2.489   1.567   0.046 -0.0650  1.2389  0.2662
 4981TIP3   OH214948   4.524   2.451   3.494 -0.9080 -0.1417  0.2743
 4981TIP3    H114949   4.569   2.407   3.566 -0.4170  4.7449  3.4377
 4981TIP3    H214950   4.593   2.500   3.448 -1.8634  0.6991 -0.3130
 4982TIP3   OH214951   3.846   5.491   2.483  0.2511 -0.2862  0.2038
 4982TIP3    H114952   3.840   5.473   2.577 -4.3732 -2.2737 -0.1686
 4982TIP3    H214953   3.810   5.579   2.473 -1.1481 -0.8263  0.2398
 4983TIP3   OH214954   0.616   5.411   0.890 -0.3880 -0.2396 -0.3919
 4983TIP3    H114955   0.605   5.395   0.984  1.4885 -1.1200 -0.2669
 4983TIP3    H214956   0.635   5.324   0.853  1.3104  0.4131 -1.1677
 4984TIP3   OH214957   0.020   0.771   4.299 -0.5033 -0.0340 -0.0097
 4984TIP3    H114958   0.105   0.812   4.310  0.6487 -2.3737  0.5486
 4984TIP3    H214959   0.032   0.708   4.227 -0.9174 -2.2225  1.7069
 4985TIP3   OH214960   1.215   0.197   4.588  0.0313  0.0236  0.2800
 4985TIP3    H114961   1.177   0.112   4.611 -1.4454  0.6630  0.3359
 4985TIP3    H214962   1.194   0.253   4.663 -0.1438  0.7653 -0.3206
 4986TIP3   OH214963   1.526   5.451   3.148 -0.1908 -0.0390 -0.5994
 4986TIP3    H114964   1.516   5.437   3.054  0.9420  0.2218 -0.7734
 4986TIP3    H214965   1.607   5.405   3.170 -1.1409 -1.2377  0.5135
 4987TIP3   OH214966   5.993   1.606   0.027  0.2257  0.2773  0.2377
 4987TIP3    H114967   6.002   1.579   0.118 -0.1392 -0.3373  0.0966
 4987TIP3    H214968   6.067   1.665   0.012  0.1934  0.5099  0.9760
 4988TIP3   OH214969   2.889   5.631   0.383  0.3992 -0.3133  0.7105
 4988TIP3    H114970   2.902   5.710   0.330 -0.8906  0.8979  2.1265
 4988TIP3    H214971   2.856   5.566   0.321  1.0529  0.3703 -0.3979
 4989TIP3   OH214972   3.743   1.409   2.681 -0.1771 -0.4522 -0.0154
 4989TIP3    H114973   3.771   1.459   2.758  0.7536 -0.4793 -0.3242
 4989TIP3    H214974   3.715   1.324   2.715  2.4818 -1.3697  0.1179
 4990TIP3   OH214975   3.735   1.616   1.083  0.5739  0.1006  0.4879
 4990TIP3    H114976   3.709   1.581   0.998  2.0051 -0.9940  0.4581
 4990TIP3    H214977   3.741   1.710   1.070 -0.3994  0.0704 -0.2786
 4991TIP3   OH214978   4.477   3.083   3.403 -0.3185 -0.2911 -0.1590
 4991TIP3    H114979   4.409   3.098   3.469  0.5671  0.9169  0.5214
 4991TIP3    H214980   4.558   3.073   3.454  0.4500  1.0260 -1.0508
 4992TIP3   OH214981   0.639   0.914   4.160  0.2247 -0.6047  0.0036
 4992TIP3    H114982   0.572   0.959   4.213 -1.0647 -2.3866 -0.0453
 4992TIP3    H214983   0.625   0.947   4.071 -1.2448 -1.6304 -0.1771
 4993TIP3   OH214984   1.394   0.492   2.185  0.1163 -0.0479  0.8568
 4993TIP3    H114985   1.348   0.440   2.119 -0.6349  0.6734  0.8060
 4993TIP3    H214986   1.387   0.440   2.265 -0.1980 -0.2569  0.6966
 4994TIP3   OH214987   0.186   2.169   4.999  0.1660 -0.3654  0.0870
 4994TIP3    H114988   0.224   2.143   4.915  0.4697  0.1918  0.0495
 4994TIP3    H214989   0.214   2.101   5.060 -0.3860 -0.9940 -0.3361
 4995TIP3   OH214990   0.668   3.736   0.420  0.1781 -0.3366 -0.4553
 4995TIP3    H114991   0.617   3.810   0.389  0.7884  0.1534 -0.3099
 4995TIP3    H214992   0.615   3.659   0.400 -0.6078  0.1629 -0.2932
 4996TIP3   OH214993   4.390   5.177   3.736 -0.5047  0.4330  0.5904
 4996TIP3    H114994   4.375   5.265   3.772  0.9898  0.7722  0.4411
 4996TIP3    H214995   4.447   5.191   3.661 -1.3972 -0.5520 -0.3011
 4997TIP3   OH214996   5.878   0.868   1.593  0.3100  0.1941 -0.2467
 4997TIP3    H114997   5.826   0.927   1.647 -1.0303 -1.3125  0.2059
 4997TIP3    H214998   5.934   0.925   1.541 -0.9355  1.8421  0.1490
 4998TIP3   OH214999   1.501   3.382   1.015  0.1699 -0.5217  0.2844
 4998TIP3    H115000   1.516   3.290   1.037 -1.6749 -0.6680  1.0965
 4998TIP3    H215001   1.430   3.381   0.952 -0.9316  0.3985  1.4601
 4999TIP3   OH215002   5.312   2.793   0.376  0.1310  0.4112  0.1549
 4999TIP3    H115003   5.362   2.757   0.302  1.2316  0.6093  0.7830
 4999TIP3    H215004   5.268   2.870   0.340  0.0946  0.1098 -0.4684
 5000TIP3   OH215005   5.461   5.183   1.221  0.4095  0.0583 -0.0861
 5000TIP3    H115006   5.460   5.273   1.189 -1.5986  1.0774  2.4642
 5000TIP3    H215007   5.447   5.192   1.316  1.7536 -2.8879  0.4854
 5001TIP3   OH215008   4.130   2.887   2.411 -0.2362 -0.0366 -0.9616
 5001TIP3    H115009   4.097   2.962   2.362 -2.2127 -0.7099 -0.7499
 5001TIP3    H215010   4.052   2.835   2.431  0.6521 -0.5141  1.6957
 5002TIP3   OH215011   4.329   0.981   3.199 -0.1455  0.0952 -0.4552
 5002TIP3    H115012   4.326   0.922   3.274 -0.2457  0.8124  0.1231
 5002TIP3    H215013   4.362   1.063   3.235 -0.0939  0.4219 -1.2214
 5003TIP3   OH215014   4.911   3.950   1.550  0.2774 -0.0326  0.4834
 5003TIP3    H115015   4.819   3.932   1.532  0.5283 -0.8999  0.0218
 5003TIP3    H215016   4.912   3.979   1.641 -0.3373 -0.9406  0.7964
 5004TIP3   OH215017   4.839   1.421   4.817 -0.3182 -0.9177 -0.3432
 5004TIP3    H115018   4.905   1.352   4.813 -0.2780 -0.9376  0.4712
 5004TIP3    H215019   4.889   1.501   4.834 -0.5286 -1.0203  0.8727
 5005TIP3   OH215020   5.549   3.340   4.524  0.0356  0.5834  0.6694
 5005TIP3    H115021   5.543   3.395   4.447 -0.8554 -1.9321 -1.2118
 5005TIP3    H215022   5.468   3.358   4.573 -1.0746 -0.1616 -0.7936
 5006TIP3   OH215023   2.528   2.523   5.010 -0.2700  0.0549 -0.0227
 5006TIP3    H115024   2.456   2.584   4.996 -0.8556 -0.3768  1.0121
 5006TIP3    H215025   2.543   2.525   5.105 -0.2251 -1.3219  0.0173
 5007TIP3   OH215026   1.765   5.147   1.396 -0.0861  0.3141  0.2032
 5007TIP3    H115027   1.678   5.107   1.392  0.1230 -0.1096 -2.9723
 5007TIP3    H215028   1.751   5.231   1.438 -1.9388  0.0153  0.2577
 5008TIP3   OH215029   4.895   3.463  -0.020 -0.5864  0.3544 -0.4254
 5008TIP3    H115030   4.906   3.501   0.067 -0.5376 -0.7218  0.0567
 5008TIP3    H215031   4.801   3.472  -0.039 -0.3376  2.0882 -0.9963
 5009TIP3   OH215032   1.026   2.678   3.253  0.0027 -0.2797 -0.3461
 5009TIP3    H115033   0.944   2.634   3.275  0.4967 -1.6439 -1.0774
 5009TIP3    H215034   1.003   2.770   3.247 -1.2664 -0.5203  0.4002
 5010TIP3   OH215035   1.896   3.714   4.121  0.1684  0.3568  0.1688
 5010TIP3    H115036   1.875   3.723   4.029  1.7079  0.5029 -0.2022
 5010TIP3    H215037   1.954   3.788   4.140  2.0255 -1.1011  0.5311
 5011TIP3   OH215038   2.599   4.997   4.636  0.3679  0.0419  0.3345
 5011TIP3    H115039   2.671   4.941   4.605  0.9793  0.7403  0.4690
 5011TIP3    H215040   2.615   5.082   4.595 -0.0703  0.3591  0.8066
 5012TIP3   OH215041   5.900   0.609   0.663 -0.9590  0.3450  0.0963
 5012TIP3    H115042   5.862   0.616   0.751 -2.2858  0.4755 -0.4611
 5012TIP3    H215043   5.896   0.516   0.643  2.3917 -0.2426  1.4072
 5013TIP3   OH215044   0.377   4.412   5.130 -0.1241  0.2571 -0.6201
 5013TIP3    H115045   0.327   4.331   5.114 -0.5070  0.8550 -2.7627
 5013TIP3    H215046   0.332   4.479   5.079  1.4325  1.3722 -0.6144
 5014TIP3   OH215047   1.868   4.377   0.843 -0.5104  0.2778  0.1173
 5014TIP3    H115048   1.961   4.399   0.837  0.0208 -1.2785  1.7333
 5014TIP3    H215049   1.842   4.405   0.931 -1.7806  1.3442 -0.5728
 5015TIP3   OH215050   1.210   1.600   1.918  0.1916  0.7149  0.0405
 5015TIP3    H115051   1.240   1.539   1.986 -0.3917  1.0865  0.6462
 5015TIP3    H215052   1.117   1.582   1.909  0.0037  1.5485  0.2566
 5016TIP3   OH215053   5.849   0.207   3.191 -0.2279  0.1780  0.4123
 5016TIP3    H115054   5.775   0.156   3.223 -0.4651 -0.3892 -0.9369
 5016TIP3    H215055   5.823   0.298   3.203 -1.6088  0.0040 -0.9373
 5017TIP3   OH215056   2.954   2.546   4.441  0.0120  0.2941 -0.4667
 5017TIP3    H115057   2.936   2.633   4.403 -0.2888 -0.1353 -1.3505
 5017TIP3    H215058   3.026   2.512   4.388 -1.1994 -0.8061 -1.4636
 5018TIP3   OH215059   1.921   0.069   2.729  0.0410  0.3413  0.2244
 5018TIP3    H115060   1.957   0.020   2.803  0.9030  1.5387  0.6322
 5018TIP3    H215061   1.826   0.059   2.737  0.1972 -1.9325 -0.2038
 5019TIP3   OH215062   1.681   3.670   2.374 -0.1107  0.2973 -0.9069
 5019TIP3    H115063   1.751   3.732   2.355 -1.3533  1.8212 -0.6835
 5019TIP3    H215064   1.630   3.712   2.444 -0.0230 -1.7471  0.4651
 5020TIP3   OH215065   5.516   2.115   3.892 -0.1406  0.6852  0.2970
 5020TIP3    H115066   5.609   2.110   3.914 -0.0345  0.6957 -0.1433
 5020TIP3    H215067   5.510   2.074   3.805 -0.7909 -0.8475  1.0177
 5021TIP3   OH215068   4.693   2.223   0.468 -0.4823  0.0360 -0.3258
 5021TIP3    H115069   4.744   2.142   0.463 -1.8331 -0.7825 -1.4181
 5021TIP3    H215070   4.758   2.290   0.490  0.5461 -1.4238  1.3821
 5022TIP3   OH215071   4.843   5.894   3.918  0.4728  0.4877 -0.1813
 5022TIP3    H115072   4.750   5.873   3.916  0.4921  0.1631  1.3209
 5022TIP3    H215073   4.846   5.989   3.904 -0.1135  0.5620  0.1468
 5023TIP3   OH215074   4.808   0.526   1.456 -0.3741  0.3432 -0.0820
 5023TIP3    H115075   4.816   0.435   1.484  2.7926  0.7214  0.6815
 5023TIP3    H215076   4.850   0.529   1.370  0.3205  1.2080  0.2682
 5024TIP3   OH215077   2.222   5.044   3.618 -0.3743 -0.1883  0.2718
 5024TIP3    H115078   2.205   5.089   3.535  1.2821  2.1314  1.0937
 5024TIP3    H215079   2.244   4.954   3.593  1.2296  0.7405 -1.9337
 5025TIP3   OH215080   1.236   2.064   2.179 -0.3792  0.3524 -0.2296
 5025TIP3    H115081   1.203   2.048   2.267  0.2563 -0.5810 -0.1518
 5025TIP3    H215082   1.300   1.995   2.164  1.9874  2.3999 -0.1420
 5026TIP3   OH215083   4.735   1.442   2.518 -0.3276 -0.2761  0.1708
 5026TIP3    H115084   4.726   1.347   2.530  0.8838 -0.5039 -0.5191
 5026TIP3    H215085   4.700   1.480   2.598  0.0951 -1.3673  0.8965
 5027TIP3   OH215086   3.506   0.883   4.017  0.3348  0.3759  0.1899
 5027TIP3    H115087   3.540   0.972   4.009  0.7554  0.0328 -3.2150
 5027TIP3    H215088   3.477   0.860   3.929  1.9858 -3.5346  0.4533
 5028TIP3   OH215089   1.249   2.985   1.412 -0.3457  0.1685  0.0206
 5028TIP3    H115090   1.200   2.980   1.494  1.4160  0.4593  1.1497
 5028TIP3    H215091   1.303   2.906   1.411 -0.9555 -0.2591 -1.3008
 5029TIP3   OH215092   0.465   2.723   2.097  0.5562  0.0795 -0.4752
 5029TIP3    H115093   0.527   2.651   2.105  0.7313  0.3221  0.5063
 5029TIP3    H215094   0.402   2.694   2.031  1.5584 -0.2752 -1.3106
 5030TIP3   OH215095   3.346   4.579   0.540 -0.2402 -0.7760 -0.2162
 5030TIP3    H115096   3.415   4.520   0.573 -0.1531 -0.2370  0.5874
 5030TIP3    H215097   3.282   4.582   0.611 -1.4085 -1.7574 -1.2043
 5031TIP3   OH215098   4.724   4.405   0.614  0.0922 -0.2432  0.5680
 5031TIP3    H115099   4.745   4.476   0.553 -1.1183 -0.5960 -0.2862
 5031TIP3    H215100   4.800   4.347   0.610 -0.5062 -0.9488 -1.6414
 5032TIP3   OH215101   0.464   4.522   3.655 -0.4442 -0.3120 -0.1350
 5032TIP3    H115102   0.433   4.613   3.663  0.3279 -0.0340 -0.2701
 5032TIP3    H215103   0.432   4.494   3.569  1.0807  0.5377 -1.0159
 5033TIP3   OH215104   0.597   4.544   1.618 -0.1200 -0.0096 -0.0801
 5033TIP3    H115105   0.585   4.614   1.681 -1.0528 -0.2325 -0.0018
 5033TIP3    H215106   0.540   4.567   1.544 -1.0768 -1.0790  0.2896
 5034TIP3   OH215107   1.586   3.137   0.463  0.0450 -0.0781  0.2923
 5034TIP3    H115108   1.582   3.043   0.481 -0.5439 -0.2930 -0.8731
 5034TIP3    H215109   1.495   3.166   0.468 -0.6462 -0.6196 -4.3441
 5035TIP3   OH215110   0.554   5.076   1.184  0.1595 -0.4498 -0.2301
 5035TIP3    H115111   0.569   5.043   1.272  1.5737  1.5116  0.3292
 5035TIP3    H215112   0.613   5.025   1.128  0.3286 -0.7085  0.1841
 5036TIP3   OH215113   3.804   1.839   2.994 -0.1873  0.6569  0.5593
 5036TIP3    H115114   3.843   1.920   3.025  1.5255 -0.5223  1.6645
 5036TIP3    H215115   3.804   1.781   3.070  0.5474 -1.0466 -0.6551
 5037TIP3   OH215116   1.986   0.932   2.009 -0.0252 -0.5514  0.2552
 5037TIP3    H115117   1.964   1.024   2.025  0.9182 -0.3165  0.2415
 5037TIP3    H215118   2.030   0.904   2.089  1.1337 -0.5212 -0.3530
 5038TIP3   OH215119   3.045   3.544   1.621 -1.1761  0.3047  0.0336
 5038TIP3    H115120   3.040   3.584   1.534  0.0071 -0.1102 -0.2437
 5038TIP3    H215121   3.136   3.557   1.648 -0.8678 -1.7838  0.1219
 5039TIP3   OH215122   2.004   2.990   3.704  0.3276 -0.0985 -0.3755
 5039TIP3    H115123   1.988   3.013   3.613 -0.2367  1.9898  0.1763
 5039TIP3    H215124   1.921   2.950   3.733 -0.5684  1.8548 -0.0757
 5040TIP3   OH215125   5.376   1.538   2.367  0.1039 -0.3349 -0.1243
 5040TIP3    H115126   5.439   1.491   2.312  1.1818 -0.5945  1.2570
 5040TIP3    H215127   5.398   1.511   2.457 -0.6446  1.1650  0.5513
 5041TIP3   OH215128   5.384   4.895   2.991 -0.4946 -0.2835 -0.4322
 5041TIP3    H115129   5.451   4.877   2.925  0.1969  0.7639 -0.0397
 5041TIP3    H215130   5.406   4.981   3.025 -0.2635 -1.1709  1.8518
 5042TIP3   OH215131   4.250   0.088   0.619  0.8921  0.1149  0.9624
 5042TIP3    H115132   4.341   0.117   0.617  1.2429 -0.9539 -0.0803
 5042TIP3    H215133   4.224   0.085   0.527 -0.6284  1.6150  1.2910
 5043TIP3   OH215134   2.387   4.148   3.390  0.3562 -0.4543  0.2709
 5043TIP3    H115135   2.412   4.066   3.347  1.0745  0.0036 -0.1988
 5043TIP3    H215136   2.453   4.161   3.458  0.8238  0.2185 -0.2898
 5044TIP3   OH215137   3.928   5.203   1.019  0.5058  0.5851  0.3664
 5044TIP3    H115138   3.901   5.117   1.052  0.6438  1.2176  2.2257
 5044TIP3    H215139   3.895   5.265   1.084  0.1354  1.9969 -1.1007
 5045TIP3   OH215140   2.114   1.543   1.392 -0.4376 -0.3220 -0.6419
 5045TIP3    H115141   2.071   1.628   1.400  0.8975  0.3856 -0.6977
 5045TIP3    H215142   2.167   1.535   1.472  0.4201 -0.5245 -1.2158
 5046TIP3   OH215143   2.151   2.605   4.789 -0.0167  0.8259 -0.4110
 5046TIP3    H115144   2.069   2.655   4.782 -0.2955  0.6536  1.1275
 5046TIP3    H215145   2.133   2.523   4.744 -1.4514 -0.0577  1.6242
 5047TIP3   OH215146   5.595   5.629   4.114 -0.0469  0.3915 -0.0154
 5047TIP3    H115147   5.572   5.693   4.046  0.7518  0.3887 -0.2993
 5047TIP3    H215148   5.611   5.682   4.192 -0.0668  0.4834 -0.0726
 5048TIP3   OH215149   3.960   2.234   0.404  0.0924 -0.8983  0.0956
 5048TIP3    H115150   4.053   2.213   0.407 -0.4671 -3.8733 -0.4214
 5048TIP3    H215151   3.952   2.297   0.332  1.6702 -0.6690  0.0876
 5049TIP3   OH215152   2.234   0.087   3.395 -0.1455 -0.3632  0.4116
 5049TIP3    H115153   2.163   0.023   3.400 -2.1912  1.6616 -1.0479
 5049TIP3    H215154   2.285   0.062   3.318  1.2617 -2.2327  1.8563
 5050TIP3   OH215155   4.922   1.237   3.163 -0.1505 -0.5856  0.2666
 5050TIP3    H115156   4.847   1.271   3.212 -0.2761 -0.0538 -0.2822
 5050TIP3    H215157   4.965   1.315   3.128  0.9984 -0.8395  1.0487
 5051TIP3   OH215158   6.083   2.363   5.101 -0.1999  0.2116 -0.9922
 5051TIP3    H115159   6.177   2.373   5.084 -0.1686  1.0090 -0.4159
 5051TIP3    H215160   6.041   2.403   5.025 -0.0690  0.2922 -1.0230
 5052TIP3   OH215161   0.448   2.591   4.301 -0.1036  0.1186 -0.1222
 5052TIP3    H115162   0.376   2.597   4.238 -0.5693  0.6334  0.4475
 5052TIP3    H215163   0.508   2.661   4.275  0.4015 -0.5532 -0.8331
 5053TIP3   OH215164   6.285   2.977   2.280 -0.1119 -0.0670 -0.3164
 5053TIP3    H115165   6.359   2.928   2.245  0.9540  1.0162  0.3368
 5053TIP3    H215166   6.236   3.004   2.202  1.2792  0.8469 -0.9371
 5054TIP3   OH215167   2.968   2.310   0.706 -0.0866 -0.0366 -0.3819
 5054TIP3    H115168   2.912   2.245   0.748 -0.6879  0.5420 -0.2732
 5054TIP3    H215169   3.045   2.261   0.677 -0.0638 -0.5983  0.6084
 5055TIP3   OH215170   4.585   4.990   3.864 -0.0075 -0.5061 -0.8984
 5055TIP3    H115171   4.610   5.062   3.922  0.4871  0.4333 -2.2361
 5055TIP3    H215172   4.514   5.025   3.810  1.4146 -0.3963 -2.7692
 5056TIP3   OH215173   3.061   5.652   2.894  0.3041  0.4264  0.1064
 5056TIP3    H115174   3.033   5.646   2.803  0.2051 -2.3364  0.2168
 5056TIP3    H215175   2.983   5.685   2.941  0.6009  2.6128 -0.8318
 5057TIP3   OH215176   4.010   4.689   2.750  0.1149  0.0821 -0.3408
 5057TIP3    H115177   3.992   4.774   2.790  0.0397  0.3385 -0.9151
 5057TIP3    H215178   3.980   4.625   2.815  3.0269  0.4153  1.5411
 5058TIP3   OH215179   4.819   2.499   1.475  0.4815 -0.3831 -0.3407
 5058TIP3    H115180   4.779   2.489   1.388  0.7298 -1.0848 -0.3838
 5058TIP3    H215181   4.912   2.515   1.457  0.3742  0.4199 -0.2206
 5059TIP3   OH215182   2.434   1.138   0.067 -0.2224  0.4026  0.0353
 5059TIP3    H115183   2.505   1.196   0.093 -0.3548  1.4517 -1.7496
 5059TIP3    H215184   2.408   1.093   0.147  3.8204 -1.6326  0.4505
 5060TIP3   OH215185   2.092   2.291   4.259  0.3031  0.0812 -0.2569
 5060TIP3    H115186   2.106   2.382   4.233 -0.7174  0.1324 -0.6505
 5060TIP3    H215187   2.037   2.254   4.190 -0.3167 -0.4929  0.5294
 5061TIP3   OH215188   0.393   5.890   1.685  0.0585 -0.2662  0.0092
 5061TIP3    H115189   0.446   5.912   1.762  1.1598  0.1947 -0.8443
 5061TIP3    H215190   0.428   5.947   1.616 -0.9103 -0.6727 -0.8273
 5062TIP3   OH215191   3.524   3.262   1.115  0.1253  0.0401 -0.6264
 5062TIP3    H115192   3.567   3.338   1.076  1.0669  1.0404  2.0749
 5062TIP3    H215193   3.587   3.191   1.105 -0.7508 -0.4803 -3.1501
 5063TIP3   OH215194   0.678   0.058   2.219 -0.3112 -0.5782 -0.3826
 5063TIP3    H115195   0.639   0.106   2.146  0.0270 -0.8287 -0.7333
 5063TIP3    H215196   0.645  -0.031   2.209 -1.4163 -0.3004  0.6124
 5064TIP3   OH215197   5.017   0.270   3.386  0.2945 -0.2885 -0.3413
 5064TIP3    H115198   5.086   0.335   3.390 -0.5947  0.6273  0.7750
 5064TIP3    H215199   5.030   0.216   3.464  0.4442 -0.8742 -0.7559
 5065TIP3   OH215200   2.350   1.525   1.851  0.4354  0.0893 -0.4130
 5065TIP3    H115201   2.266   1.487   1.823 -0.0832  0.5014  0.5473
 5065TIP3    H215202   2.374   1.584   1.780 -0.4353  0.4809 -0.3983
 5066TIP3   OH215203   6.293   0.132   1.866  0.0916  0.3018  0.0588
 5066TIP3    H115204   6.362   0.067   1.881  3.3488  3.8022  2.2786
 5066TIP3    H215205   6.229   0.115   1.935  1.0317 -0.4090  0.7848
 5067TIP3   OH215206   1.485   4.399   2.778  0.6366  0.1577 -0.7270
 5067TIP3    H115207   1.441   4.417   2.861  1.2872 -0.4191 -0.2447
 5067TIP3    H215208   1.425   4.432   2.712 -0.5961 -0.7463 -0.1082
 5068TIP3   OH215209   2.690   0.985   4.689  0.5962 -0.2460 -0.3460
 5068TIP3    H115210   2.746   0.909   4.676  1.3441  0.3232 -0.5096
 5068TIP3    H215211   2.694   1.033   4.606  0.7644  0.3871  0.0241
 5069TIP3   OH215212   2.528   4.378   1.946 -0.4777 -0.0838 -0.4091
 5069TIP3    H115213   2.517   4.317   2.019 -1.1561 -1.5967 -1.7037
 5069TIP3    H215214   2.614   4.356   1.910  0.2349  1.2465  0.4179
 5070TIP3   OH215215   3.763   4.731   2.533  0.0141  0.6864 -0.2618
 5070TIP3    H115216   3.686   4.716   2.588 -1.3215  1.3629 -1.8520
 5070TIP3    H215217   3.837   4.713   2.590 -1.2680 -3.5670  0.4051
 5071TIP3   OH215218   1.515   1.597   1.526 -0.4563 -0.6284 -0.3729
 5071TIP3    H115219   1.563   1.651   1.464 -0.5831 -0.4636 -0.3259
 5071TIP3    H215220   1.423   1.609   1.504 -0.5164 -0.3603  0.0166
 5072TIP3   OH215221   6.158   5.619   4.101  0.3468  0.7174 -0.2472
 5072TIP3    H115222   6.085   5.679   4.085  0.4069  0.8992  0.1683
 5072TIP3    H215223   6.117   5.543   4.142  0.7929  2.1985  3.2812
 5073TIP3   OH215224   4.819   0.895   2.201  0.3487 -0.6262  0.7341
 5073TIP3    H115225   4.867   0.842   2.137  0.2558 -0.1939  0.3007
 5073TIP3    H215226   4.764   0.953   2.148  0.0210 -0.4919  1.2122
 5074TIP3   OH215227   3.873   5.933   5.044  0.2196 -0.5419  0.7230
 5074TIP3    H115228   3.855   6.017   5.086 -1.6871  0.4600 -1.8622
 5074TIP3    H215229   3.803   5.875   5.074 -0.8488  0.0293 -0.5752
 5075TIP3   OH215230   6.147   5.067   5.058 -0.1082  0.5314  0.4340
 5075TIP3    H115231   6.151   5.163   5.059  0.6343  0.5150 -0.2560
 5075TIP3    H215232   6.093   5.046   4.982 -0.5577  0.4070  0.7870
 5076TIP3   OH215233   5.920   5.448   3.002 -0.1679 -0.4574  0.3103
 5076TIP3    H115234   5.921   5.386   3.075  0.0176 -2.0099 -0.9468
 5076TIP3    H215235   5.996   5.504   3.017  0.9598 -1.9470  0.3728
 5077TIP3   OH215236   4.161   2.965   1.758 -0.4202 -0.3085 -0.2634
 5077TIP3    H115237   4.104   3.020   1.704 -0.1799  0.2619  0.0489
 5077TIP3    H215238   4.190   2.895   1.700 -0.2212  0.2585 -0.8488
 5078TIP3   OH215239   0.084   2.312   3.055 -0.2600  0.2075  0.1962
 5078TIP3    H115240   0.085   2.316   3.151  0.8766  0.7343  0.1806
 5078TIP3    H215241   0.062   2.221   3.035 -0.6074  0.1134  0.9469
 5079TIP3   OH215242   1.144   2.372   0.274  0.4553 -0.0138  0.5074
 5079TIP3    H115243   1.171   2.329   0.356 -0.7313  0.5028  1.1985
 5079TIP3    H215244   1.203   2.446   0.265  1.1346 -0.5590  0.4515
 5080TIP3   OH215245   4.054   4.327   2.529 -0.3914 -0.7069  0.1502
 5080TIP3    H115246   4.140   4.362   2.505 -0.6030  0.8916  1.5466
 5080TIP3    H215247   4.073   4.240   2.564  0.4881 -0.8930 -0.7376
 5081TIP3   OH215248   4.553   0.768   0.130  0.2599 -0.7027 -0.4913
 5081TIP3    H115249   4.562   0.792   0.038 -0.0184  0.5426 -0.2053
 5081TIP3    H215250   4.640   0.781   0.167 -0.0616  0.6418 -0.1705
 5082TIP3   OH215251   2.638   2.724   4.612 -0.6362 -0.0826  0.0590
 5082TIP3    H115252   2.657   2.655   4.676 -0.4539 -0.3843 -0.3230
 5082TIP3    H215253   2.542   2.723   4.603 -0.8037  0.9011  1.3762
 5083TIP3   OH215254   1.198   1.513   1.054 -0.1423 -0.0767 -0.2760
 5083TIP3    H115255   1.105   1.509   1.032 -0.0616 -0.7586 -0.5143
 5083TIP3    H215256   1.214   1.606   1.073 -0.2683  0.5256 -2.8154
 5084TIP3   OH215257   5.925   1.310   0.115  0.1159 -0.1243 -0.1004
 5084TIP3    H115258   5.909   1.378   0.050  1.0491 -0.4276 -0.6653
 5084TIP3    H215259   5.959   1.236   0.064 -1.3216 -1.1887  0.4290
 5085TIP3   OH215260   2.751   3.836   5.008  1.1272 -0.5541  0.2118
 5085TIP3    H115261   2.813   3.774   4.969  2.1502 -0.5680  1.7802
 5085TIP3    H215262   2.804   3.891   5.066 -0.0068  0.8091  0.0248
 5086TIP3   OH215263   4.638   3.537   4.089 -0.4188 -0.2371  0.0534
 5086TIP3    H115264   4.723   3.561   4.052  0.8405 -1.8485  1.7392
 5086TIP3    H215265   4.609   3.463   4.036 -0.6768  0.1735 -0.3838
 5087TIP3   OH215266   4.988   1.029   3.495  0.0592 -0.0721  0.0258
 5087TIP3    H115267   5.076   1.047   3.527 -0.1880  0.4010  0.4529
 5087TIP3    H215268   4.941   0.991   3.569  0.2130 -1.3801 -0.5190
 5088TIP3   OH215269   5.202   5.093   1.841 -0.4204  0.1437  0.1357
 5088TIP3    H115270   5.273   5.067   1.899 -1.2086  0.2696  1.1856
 5088TIP3    H215271   5.232   5.174   1.801  0.8610 -0.8491 -0.9954
 5089TIP3   OH215272   0.790   1.975   0.225 -0.1367 -0.1482 -0.1600
 5089TIP3    H115273   0.846   2.051   0.210 -0.4338  0.7758  2.8468
 5089TIP3    H215274   0.755   1.954   0.138  1.3303  2.0127 -1.3803
 5090TIP3   OH215275   3.857   3.326   1.341 -0.7870  0.3844  0.1502
 5090TIP3    H115276   3.783   3.322   1.401 -1.1796  0.7429 -0.3006
 5090TIP3    H215277   3.903   3.406   1.365 -0.7738  0.3714  0.1680
 5091TIP3   OH215278   5.717   4.948   2.537  0.1952 -0.5696 -0.5888
 5091TIP3    H115279   5.684   4.867   2.498 -0.9565  0.3695 -1.6852
 5091TIP3    H215280   5.728   5.007   2.462  2.8815 -0.2838 -0.0582
 5092TIP3   OH215281   6.204   3.123   0.713 -0.2712  0.3699  0.1322
 5092TIP3    H115282   6.294   3.114   0.681  0.3987  0.4627  1.8883
 5092TIP3    H215283   6.150   3.092   0.641  1.2753 -2.1417 -0.0759
 5093TIP3   OH215284   2.314   1.765   1.030 -0.2166  0.1379 -0.0179
 5093TIP3    H115285   2.264   1.833   1.074  0.3875 -0.3189  1.4394
 5093TIP3    H215286   2.316   1.692   1.093 -1.1467 -1.3797 -1.6581
 5094TIP3   OH215287   2.653   0.045   2.377 -0.1984 -0.8549 -0.7688
 5094TIP3    H115288   2.707  -0.032   2.358  0.8715 -0.4472  0.4232
 5094TIP3    H215289   2.611   0.025   2.461 -0.5828 -0.4876 -0.8731
 5095TIP3   OH215290   3.624   5.303   0.691  0.2940 -0.1681 -0.2569
 5095TIP3    H115291   3.639   5.236   0.625 -0.0568  1.1298 -1.7050
 5095TIP3    H215292   3.656   5.384   0.651 -1.1417  0.8832  0.6202
 5096TIP3   OH215293   5.732   4.673   0.552  0.5470 -0.6962 -0.3974
 5096TIP3    H115294   5.680   4.699   0.628 -0.5234 -0.9785 -1.0111
 5096TIP3    H215295   5.806   4.624   0.589  0.7940  0.3410  0.5339
 5097TIP3   OH215296   3.936   3.174   2.413  0.1302  0.0383  0.7200
 5097TIP3    H115297   4.018   3.157   2.367  0.7842  0.2510  1.7537
 5097TIP3    H215298   3.906   3.258   2.378 -0.8743 -1.1059 -1.3080
 5098TIP3   OH215299   6.215   1.628   5.174  0.3446  0.4945  0.3243
 5098TIP3    H115300   6.144   1.611   5.111  0.8271  0.0436 -0.1044
 5098TIP3    H215301   6.227   1.544   5.218  0.9768  0.4195  0.0156
 5099TIP3   OH215302   4.021   2.365   1.579  0.5894  0.3712  0.8077
 5099TIP3    H115303   4.109   2.351   1.544 -0.3608 -0.5642 -1.4013
 5099TIP3    H215304   4.023   2.326   1.666  2.2704  0.1231  0.6815
 5100TIP3   OH215305   5.916   4.539   2.605  0.7818 -0.3054 -0.1604
 5100TIP3    H115306   5.925   4.598   2.680  0.1276 -0.4762  0.0666
 5100TIP3    H215307   5.987   4.476   2.615 -0.0056 -1.0591  1.0185
 5101TIP3   OH215308   2.302   4.316   3.188 -0.0212  0.0756 -0.2069
 5101TIP3    H115309   2.331   4.243   3.243 -0.8113 -1.1836 -1.4035
 5101TIP3    H215310   2.294   4.278   3.100  0.6905  1.8989 -1.1103
 5102TIP3   OH215311   3.022   3.273   0.027 -0.2195 -0.0464  0.1692
 5102TIP3    H115312   2.978   3.194   0.059  0.5311 -0.5762 -0.0937
 5102TIP3    H215313   3.100   3.241  -0.017 -0.6884  0.7445 -1.2915
 5103TIP3   OH215314   3.105   4.146   1.857 -0.0500 -0.2195 -0.5475
 5103TIP3    H115315   3.052   4.078   1.813  0.6162 -1.1328  0.0226
 5103TIP3    H215316   3.145   4.100   1.932  1.4453  0.4756 -0.8888
 5104TIP3   OH215317   1.337   0.906   1.269  0.0061 -0.8416  0.5856
 5104TIP3    H115318   1.388   0.887   1.347 -0.1938 -0.9775  0.6835
 5104TIP3    H215319   1.301   0.993   1.284 -1.5632 -1.6101  1.4702
 5105TIP3   OH215320   1.718   4.662   0.767  0.0089 -0.1630  0.1230
 5105TIP3    H115321   1.701   4.642   0.675 -0.6164 -0.4653  0.2987
 5105TIP3    H215322   1.808   4.694   0.768 -0.4140  1.1319 -0.7904
 5106TIP3   OH215323   2.764   3.879   3.445 -0.0931  0.1414  0.0520
 5106TIP3    H115324   2.709   3.824   3.389  0.6049 -0.9820  0.4314
 5106TIP3    H215325   2.783   3.956   3.392 -1.8436  0.4623 -0.1684
 5107TIP3   OH215326   1.961   2.181   4.050 -0.7591  0.1013  0.6312
 5107TIP3    H115327   1.866   2.176   4.052 -0.7749  0.0916 -0.0356
 5107TIP3    H215328   1.984   2.168   3.958 -0.0404 -1.0811  0.9597
 5108TIP3   OH215329   2.639   5.795   4.385  0.1326 -0.0244  0.0494
 5108TIP3    H115330   2.551   5.760   4.385  0.1011  0.0560 -0.2237
 5108TIP3    H215331   2.633   5.875   4.439  0.1302 -0.2383  0.3716
 5109TIP3   OH215332   2.407   1.626   2.107 -0.3420  0.2847  0.5243
 5109TIP3    H115333   2.388   1.563   2.177  2.7183 -1.3710 -0.0050
 5109TIP3    H215334   2.362   1.591   2.030 -0.3268 -0.1168  0.6971
 5110TIP3   OH215335   4.033   2.308   3.328 -0.1444 -0.3489  0.0476
 5110TIP3    H115336   3.947   2.317   3.287 -0.8436 -0.6768  1.3831
 5110TIP3    H215337   4.088   2.269   3.260 -1.3544 -1.1951 -0.4801
 5111TIP3   OH215338   1.637   1.590   4.090 -0.4279  0.3120 -0.5955
 5111TIP3    H115339   1.593   1.583   4.005 -1.1490 -0.4997 -0.1674
 5111TIP3    H215340   1.573   1.632   4.147 -0.2746  0.0556 -0.2315
 5112TIP3   OH215341   4.472   3.801   0.462 -0.0107 -0.4024 -0.2585
 5112TIP3    H115342   4.491   3.833   0.374  2.4024 -0.1349  0.2808
 5112TIP3    H215343   4.380   3.777   0.460 -0.8488  2.4722 -1.9719
 5113TIP3   OH215344   0.064   4.113   2.178 -0.0545  0.0536 -0.6625
 5113TIP3    H115345   0.003   4.040   2.191 -0.2982  0.2958 -0.4312
 5113TIP3    H215346   0.008   4.189   2.163  0.1140  0.6120  1.1917
 5114TIP3   OH215347   4.349   5.700   4.559 -0.0964  0.0976  0.0201
 5114TIP3    H115348   4.407   5.753   4.504  1.1872  0.2051  1.3882
 5114TIP3    H215349   4.270   5.687   4.506  0.3296  1.7341 -1.1010
 5115TIP3   OH215350   5.617   4.890   1.239  0.3876 -0.3120  0.1617
 5115TIP3    H115351   5.532   4.915   1.274  0.8123  0.6433  0.5575
 5115TIP3    H215352   5.679   4.946   1.285  1.0396  0.4298 -1.5156
 5116TIP3   OH215353   5.289   5.658   0.055  0.0305  0.0171 -0.3605
 5116TIP3    H115354   5.333   5.737   0.086 -0.3845  1.3718 -2.9394
 5116TIP3    H215355   5.350   5.620  -0.008  0.6700 -2.3985  1.5564
 5117TIP3   OH215356   4.771   4.688   1.783  0.7288 -0.4038  0.0501
 5117TIP3    H115357   4.796   4.714   1.694 -0.1778 -1.2802 -0.4786
 5117TIP3    H215358   4.678   4.666   1.777 -0.6763  3.8531  2.1878
 5118TIP3   OH215359   0.567   5.437   2.036  0.3420  0.1009  0.2179
 5118TIP3    H115360   0.603   5.473   2.117  1.4693  1.1103 -0.6755
 5118TIP3    H215361   0.633   5.374   2.006 -0.2246 -0.5141  0.2468
 5119TIP3   OH215362   1.688   0.152   1.569 -0.0617  0.1321  0.2508
 5119TIP3    H115363   1.730   0.085   1.515  0.3455  0.4530  0.1600
 5119TIP3    H215364   1.597   0.124   1.576 -1.0439  1.7984 -3.4633
 5120TIP3   OH215365   5.177   1.569   2.189  0.8824 -0.4575  0.3792
 5120TIP3    H115366   5.110   1.510   2.225 -0.4804 -0.3674 -1.8360
 5120TIP3    H215367   5.247   1.568   2.254 -1.2499 -0.5443  2.8595
 5121TIP3   OH215368   0.428   2.526   3.465  0.3032 -0.2398  0.1126
 5121TIP3    H115369   0.450   2.482   3.382  3.3449 -2.7455  1.9835
 5121TIP3    H215370   0.450   2.461   3.532 -0.4359  2.2585  2.9632
 5122TIP3   OH215371   1.008   4.182   4.286  0.3711 -0.0725 -0.1837
 5122TIP3    H115372   0.995   4.277   4.288  1.8732  0.1492 -0.1971
 5122TIP3    H215373   1.025   4.161   4.194  2.9428  0.1017  0.1885
 5123TIP3   OH215374   4.872   0.282   1.630  0.9340 -0.3704 -0.2756
 5123TIP3    H115375   4.869   0.263   1.724  1.0611  1.6567  0.1800
 5123TIP3    H215376   4.964   0.300   1.612  0.8371 -0.2648 -0.6809
 5124TIP3   OH215377   1.654   5.703   3.244  0.1656 -0.5098 -0.0389
 5124TIP3    H115378   1.623   5.622   3.205  1.2756 -1.1541  0.3672
 5124TIP3    H215379   1.729   5.728   3.190  0.2647 -0.1344  0.2667
 5125TIP3   OH215380   3.083   5.427   1.063  0.4688 -0.6568  0.0565
 5125TIP3    H115381   2.988   5.442   1.060  0.2547 -1.9071 -0.0175
 5125TIP3    H215382   3.092   5.332   1.072  1.7286 -0.6860 -1.1350
 5126TIP3   OH215383   0.114   0.029   0.781  0.4537  0.2199  0.6214
 5126TIP3    H115384   0.126  -0.025   0.860 -0.1253  1.6821  1.7661
 5126TIP3    H215385   0.189   0.008   0.726  1.6350  0.1673  2.1917
 5127TIP3   OH215386   6.325   4.320   0.212  0.1929 -0.4764 -0.1941
 5127TIP3    H115387   6.240   4.298   0.174  0.1676  0.3651 -0.6569
 5127TIP3    H215388   6.333   4.415   0.201  0.3380 -0.2409  1.6117
 5128TIP3   OH215389   0.208   2.707   1.315 -0.5832  0.3149 -0.4594
 5128TIP3    H115390   0.262   2.630   1.300  0.5527  1.1433 -0.7589
 5128TIP3    H215391   0.119   2.672   1.324 -0.2233 -0.9434 -1.4294
 5129TIP3   OH215392   2.992   1.712   2.670  0.5869  0.0906 -0.5332
 5129TIP3    H115393   3.052   1.703   2.744 -0.2923  3.0739  0.6798
 5129TIP3    H215394   2.945   1.629   2.667  1.9658 -0.8005  1.0328
 5130TIP3   OH215395   0.393   3.155   4.591 -0.2018  0.2180  0.5808
 5130TIP3    H115396   0.471   3.210   4.580 -1.6741  2.4890  0.8835
 5130TIP3    H215397   0.388   3.140   4.686  0.3705 -0.7834  0.4723
 5131TIP3   OH215398   5.362   2.918   0.610 -0.0487 -0.3076  0.4506
 5131TIP3    H115399   5.330   2.862   0.539 -0.5233  0.0531  0.3763
 5131TIP3    H215400   5.394   2.997   0.566 -0.9993  0.2190  0.6817
 5132TIP3   OH215401   5.713   3.695   1.178 -0.0399 -0.4724  0.1131
 5132TIP3    H115402   5.683   3.767   1.123  2.9285  0.5835 -0.3130
 5132TIP3    H215403   5.648   3.691   1.249 -1.2461  1.4347 -0.7880
 5133TIP3   OH215404   2.296   1.065   0.285  0.2284 -0.1602 -0.0436
 5133TIP3    H115405   2.251   1.044   0.367  2.9022  0.0023  1.5769
 5133TIP3    H215406   2.227   1.061   0.218 -2.7345  2.6286  2.5248
 5134TIP3   OH215407   2.795   5.340   4.049  0.0077 -0.3451  0.8886
 5134TIP3    H115408   2.809   5.415   4.107  2.8695  1.5507 -1.9673
 5134TIP3    H215409   2.873   5.285   4.063  0.0013 -0.6053 -0.0816
 5135TIP3   OH215410   1.058   4.655   0.420 -0.0263  0.2973  0.2031
 5135TIP3    H115411   1.136   4.674   0.473  0.0562 -0.0455  0.2031
 5135TIP3    H215412   0.993   4.718   0.451 -0.7248 -1.3512  2.3532
 5136TIP3   OH215413   6.008   0.380   4.925 -0.0937 -0.2403  0.2139
 5136TIP3    H115414   5.918   0.394   4.894  0.0482  0.8712  0.2696
 5136TIP3    H215415   6.063   0.392   4.847  0.2280  2.1324  0.7315
 5137TIP3   OH215416   2.043   2.402   2.681 -0.0589 -0.2099  0.0620
 5137TIP3    H115417   2.032   2.445   2.596 -2.5604 -0.4864  0.1816
 5137TIP3    H215418   1.993   2.321   2.674 -0.6313 -0.0665  1.9202
 5138TIP3   OH215419   5.299   0.217   3.603  0.1786  0.1325 -0.5975
 5138TIP3    H115420   5.261   0.291   3.649 -0.3447  0.6770 -1.8674
 5138TIP3    H215421   5.390   0.243   3.585  0.7673 -0.5668  1.1173
 5139TIP3   OH215422   2.474   5.246   3.086  0.3814  0.4725  0.2140
 5139TIP3    H115423   2.472   5.169   3.142  1.2493  1.2464  1.3684
 5139TIP3    H215424   2.512   5.216   3.004  1.2446 -0.2188  0.8517
 5140TIP3   OH215425   5.300   0.826   2.361  0.6286  0.5277  0.2426
 5140TIP3    H115426   5.370   0.799   2.421  0.2318 -0.4928  0.2617
 5140TIP3    H215427   5.317   0.777   2.281 -0.0510  0.2886  0.2393
 5141TIP3   OH215428   2.788   4.598   2.052  0.2082  0.2299 -0.1841
 5141TIP3    H115429   2.781   4.683   2.096  0.8066 -0.8313  2.0970
 5141TIP3    H215430   2.731   4.606   1.975 -0.8010  2.2403  0.7012
 5142TIP3   OH215431   5.453   3.339   1.588 -0.5739 -0.2021  0.3065
 5142TIP3    H115432   5.395   3.414   1.585 -0.9610 -0.5148 -0.2326
 5142TIP3    H215433   5.465   3.314   1.497  0.3086 -0.2230  0.4178
 5143TIP3   OH215434   5.841   5.265   1.009  0.1917  0.7747  0.1048
 5143TIP3    H115435   5.771   5.317   0.970  0.0064  0.5074  0.0807
 5143TIP3    H215436   5.837   5.181   0.963 -0.9674 -0.0705  1.6620
 5144TIP3   OH215437   4.894   2.417   2.133 -0.3022  0.5391  0.1737
 5144TIP3    H115438   4.919   2.329   2.106 -3.8693 -0.4883 -0.2630
 5144TIP3    H215439   4.953   2.475   2.083  0.8570 -1.5232 -0.9954
 5145TIP3   OH215440   2.309   5.327   2.776  0.1298 -0.2180  0.3137
 5145TIP3    H115441   2.368   5.362   2.710  0.3096  0.3742  0.7846
 5145TIP3    H215442   2.221   5.350   2.745  0.0035 -2.3562 -1.1420
 5146TIP3   OH215443   2.414   4.103   1.617  0.1179 -0.6847 -0.0946
 5146TIP3    H115444   2.384   4.096   1.708  0.1572  0.0023 -0.0174
 5146TIP3    H215445   2.475   4.177   1.619  0.6072 -1.0760 -0.5573
 5147TIP3   OH215446   3.345   2.103   3.321  0.5945 -0.4655  0.1032
 5147TIP3    H115447   3.286   2.039   3.281 -1.7094  1.6168  0.0031
 5147TIP3    H215448   3.306   2.123   3.406  2.5967 -0.9122  1.1972
 5148TIP3   OH215449   0.715   2.667   4.024 -0.2478 -0.3101  0.1294
 5148TIP3    H115450   0.685   2.719   3.949  0.8020  0.7815  0.4302
 5148TIP3    H215451   0.683   2.714   4.101 -0.8071 -1.0924  0.3817
 5149TIP3   OH215452   5.964   4.069   1.667 -0.3327 -0.4229  0.3431
 5149TIP3    H115453   5.996   4.141   1.721 -0.0849  0.3447 -0.7952
 5149TIP3    H215454   5.870   4.087   1.655  0.1388  0.9804 -1.7629
 5150TIP3   OH215455   4.156   3.630   0.229 -0.2274  0.0020  0.1269
 5150TIP3    H115456   4.185   3.621   0.320 -1.1267 -0.5781  0.3649
 5150TIP3    H215457   4.076   3.578   0.224 -0.3714  0.3062 -0.9145
 5151TIP3   OH215458   4.732   5.837   4.579  0.1164 -0.3539  0.1634
 5151TIP3    H115459   4.709   5.748   4.606 -1.0214 -0.0761  0.1656
 5151TIP3    H215460   4.732   5.887   4.660  0.6183 -0.3173  0.1432
 5152TIP3   OH215461   5.747   5.193   4.701  0.6136  0.5131  0.2615
 5152TIP3    H115462   5.816   5.199   4.635  1.3379  0.8485  1.0321
 5152TIP3    H215463   5.777   5.126   4.762  0.1407  0.4876  0.4701
 5153TIP3   OH215464   0.292   4.125   0.648  0.4712  0.2766 -0.1683
 5153TIP3    H115465   0.264   4.036   0.672  2.0115 -0.5314 -1.1780
 5153TIP3    H215466   0.347   4.153   0.721 -1.4604  1.1912  1.0192
 5154TIP3   OH215467   2.381   4.610   1.272 -0.0774 -0.0208  0.2336
 5154TIP3    H115468   2.303   4.593   1.219  0.1845  1.3378 -0.6502
 5154TIP3    H215469   2.371   4.702   1.299  2.0730  0.8182 -1.5037
 5155TIP3   OH215470   4.105   3.396   4.161  0.1321  0.0016  0.2865
 5155TIP3    H115471   4.024   3.354   4.131 -0.3813  0.3166  1.1717
 5155TIP3    H215472   4.091   3.490   4.145  0.2796  0.0668  0.5237
 5156TIP3   OH215473   5.128   3.642   4.248 -0.2142 -0.3461 -0.3919
 5156TIP3    H115474   5.166   3.669   4.164 -0.1654 -2.0683 -0.9685
 5156TIP3    H215475   5.163   3.554   4.262 -1.5190 -0.7241  0.6374
 5157TIP3   OH215476   0.810   0.369   0.425 -0.3538  0.0531 -0.1359
 5157TIP3    H115477   0.802   0.279   0.394 -1.0775 -0.3362  1.1155
 5157TIP3    H215478   0.903   0.389   0.418 -0.0190 -1.1717  0.5540
 5158TIP3   OH215479   2.987   4.882   4.084  0.0471  0.0154  0.1991
 5158TIP3    H115480   3.037   4.935   4.146 -0.5658  0.7226  0.1050
 5158TIP3    H215481   3.039   4.884   4.004  1.0278 -1.2061  0.7691
 5159TIP3   OH215482   2.147   0.643   3.992  0.3733  0.0428 -0.3261
 5159TIP3    H115483   2.121   0.630   3.901 -0.4478 -0.9537  0.0447
 5159TIP3    H215484   2.202   0.722   3.989 -0.6413  0.7447 -1.4950
 5160TIP3   OH215485   2.915   4.278   2.018 -0.3378 -0.0226  0.4319
 5160TIP3    H115486   2.886   4.243   2.102 -0.6749 -0.5874  0.0826
 5160TIP3    H215487   2.983   4.218   1.989  0.3746  0.6381  0.6867
 5161TIP3   OH215488   1.640   5.601   1.128  0.5168 -0.3184  0.0091
 5161TIP3    H115489   1.679   5.676   1.173  0.4137 -0.0313 -0.3726
 5161TIP3    H215490   1.672   5.607   1.038  0.5940 -0.7970  0.0039
 5162TIP3   OH215491   2.825   3.035   4.089 -0.2018  0.0714 -0.3525
 5162TIP3    H115492   2.862   2.958   4.045 -0.8567 -1.9812  2.4220
 5162TIP3    H215493   2.740   3.047   4.048  0.3223  0.0021 -1.5153
 5163TIP3   OH215494   0.627   1.889   4.030  0.2236  0.4101 -0.0848
 5163TIP3    H115495   0.638   1.832   4.106 -0.9470  0.5721  0.2333
 5163TIP3    H215496   0.634   1.830   3.955 -0.6265 -0.1213  0.2299
 5164TIP3   OH215497   1.865   5.226   1.129  0.2787 -0.4898  0.2297
 5164TIP3    H115498   1.886   5.318   1.148 -0.4018 -0.3493  0.3000
 5164TIP3    H215499   1.813   5.197   1.204 -1.8085 -0.1448 -1.0311
 5165TIP3   OH215500   4.194   1.070   1.772  0.2034 -0.4135 -0.2349
 5165TIP3    H115501   4.185   1.135   1.702 -2.3125  1.6777  1.8285
 5165TIP3    H215502   4.278   1.090   1.813 -0.8190  2.1118  0.7837
 5166TIP3   OH215503   5.958   4.948   3.825  0.4823  0.2236 -0.5205
 5166TIP3    H115504   5.959   5.042   3.842  1.5526 -0.2635  2.6745
 5166TIP3    H215505   6.050   4.923   3.816  0.1802 -0.4373 -2.1749
 5167TIP3   OH215506   5.847   5.452   2.004  0.3259 -0.7385 -0.3466
 5167TIP3    H115507   5.814   5.461   1.914 -0.3657  1.6133  0.0841
 5167TIP3    H215508   5.915   5.385   1.997  1.0818  0.1570 -2.8862
 5168TIP3   OH215509   4.561   2.192   1.928 -0.2315  0.3843  0.4338
 5168TIP3    H115510   4.483   2.147   1.960 -0.4481  0.4263 -0.0364
 5168TIP3    H215511   4.589   2.247   2.002  0.4227 -1.0007  1.2599
 5169TIP3   OH215512   5.683   3.086   4.771  0.3521  0.5327  0.3551
 5169TIP3    H115513   5.607   3.036   4.740 -0.1996  1.6452 -0.1665
 5169TIP3    H215514   5.736   3.023   4.819 -0.3326 -0.5329 -0.2533
 5170TIP3   OH215515   1.844   4.823   4.599 -0.6301 -0.1531  0.1773
 5170TIP3    H115516   1.857   4.913   4.629  0.6960 -0.2266 -0.1209
 5170TIP3    H215517   1.758   4.799   4.633 -0.7826  1.0496  0.6980
 5171TIP3   OH215518   3.563   3.644   4.060 -0.1407 -0.2681 -0.4125
 5171TIP3    H115519   3.633   3.704   4.033 -0.4256  0.1879 -0.1559
 5171TIP3    H215520   3.542   3.594   3.981  0.9873 -0.9397 -0.3070
 5172TIP3   OH215521   3.347   2.589   3.060  0.2173 -0.3797  0.2175
 5172TIP3    H115522   3.356   2.684   3.067  1.2256 -0.3964 -0.6837
 5172TIP3    H215523   3.328   2.573   2.968  0.9216 -1.1100  0.1898
 5173TIP3   OH215524   2.859   5.740   0.648  0.0981 -0.0725 -0.3140
 5173TIP3    H115525   2.928   5.805   0.658 -0.2175  0.0781  1.2530
 5173TIP3    H215526   2.879   5.694   0.567  0.8191  1.3923 -0.9812
 5174TIP3   OH215527   0.861   2.913   4.228  0.1605 -0.2452  0.5653
 5174TIP3    H115528   0.921   2.884   4.296  0.4295 -0.7748  0.1125
 5174TIP3    H215529   0.852   3.008   4.241 -0.0827 -0.3992  1.5515
 5175TIP3   OH215530   3.737   0.465   2.602  0.1250  0.0310 -0.0181
 5175TIP3    H115531   3.694   0.535   2.652  0.3137  0.3552 -0.3096
 5175TIP3    H215532   3.780   0.412   2.669  0.0315  0.2306  0.2021
 5176TIP3   OH215533   3.464   1.317   3.517 -0.0260  0.0176 -0.6031
 5176TIP3    H115534   3.527   1.358   3.457  2.4202  0.6185  2.1211
 5176TIP3    H215535   3.413   1.390   3.551  1.7899  0.4350  1.4349
 5177TIP3   OH215536   0.280   1.113   2.863 -0.1088  0.1843  0.6492
 5177TIP3    H115537   0.370   1.091   2.841  0.7603  0.6984  3.3087
 5177TIP3    H215538   0.260   1.190   2.811  1.3806  0.6716  0.7635
 5178TIP3   OH215539   1.810   2.806   2.260 -0.0097  0.4192  0.4931
 5178TIP3    H115540   1.724   2.778   2.291 -0.8488  2.1769 -0.1063
 5178TIP3    H215541   1.868   2.733   2.280 -1.7508 -1.0642  0.3642
 5179TIP3   OH215542   5.892   5.069   1.744 -0.4933  0.6278  0.3227
 5179TIP3    H115543   5.960   5.116   1.695 -0.9891  1.5712  0.5134
 5179TIP3    H215544   5.830   5.040   1.677 -0.7212  1.1578  0.2999
 5180TIP3   OH215545   3.677   5.687   1.101  0.1148 -0.7911  0.2691
 5180TIP3    H115546   3.729   5.675   1.022 -0.0824 -0.7572  0.1330
 5180TIP3    H215547   3.586   5.691   1.070  0.1895  2.3845  0.1125
 5181TIP3   OH215548   2.665   4.381   0.178 -0.3548  0.1683 -0.5889
 5181TIP3    H115549   2.661   4.410   0.087 -1.7933  3.2575  0.3130
 5181TIP3    H215550   2.718   4.447   0.222  1.0760 -1.7461  0.7271
 5182TIP3   OH215551   3.871   4.778   0.883 -0.0689 -0.0462  0.1002
 5182TIP3    H115552   3.843   4.732   0.805 -1.8021  0.2811  0.4934
 5182TIP3    H215553   3.821   4.739   0.954 -0.1353  1.1161  0.7222
 5183TIP3   OH215554   1.802   5.049   0.860 -0.8619 -0.5388 -0.0893
 5183TIP3    H115555   1.713   5.032   0.829 -1.1160 -0.0127  0.3334
 5183TIP3    H215556   1.799   5.027   0.953 -1.4466  2.5068  0.7159
 5184TIP3   OH215557   4.844   5.765   2.653  0.2817  0.3468 -0.3898
 5184TIP3    H115558   4.750   5.781   2.659 -0.0689 -1.5313 -0.0561
 5184TIP3    H215559   4.852   5.691   2.592  1.1139 -2.1857  2.5108
 5185TIP3   OH215560   1.243   0.778   3.258 -0.3224  0.5028 -0.5057
 5185TIP3    H115561   1.321   0.738   3.295  0.3356  0.6876 -1.6461
 5185TIP3    H215562   1.220   0.848   3.319  0.6598  0.7297 -0.3855
 5186TIP3   OH215563   3.826   0.930   2.285  0.3721 -0.2668  0.0119
 5186TIP3    H115564   3.756   0.865   2.276  0.5081 -0.5543  0.9086
 5186TIP3    H215565   3.877   0.899   2.360 -0.3437  1.5757  1.3340
 5187TIP3   OH215566   2.325   3.311   0.929  0.6598  0.6940 -0.3805
 5187TIP3    H115567   2.379   3.235   0.948 -1.7181 -0.9157  0.4078
 5187TIP3    H215568   2.347   3.334   0.839  0.7656 -1.5722 -0.9975
 5188TIP3   OH215569   2.680   0.590   2.765 -0.5196  0.2733  0.3273
 5188TIP3    H115570   2.707   0.530   2.834 -0.8273  0.8958  1.0008
 5188TIP3    H215571   2.625   0.537   2.707  0.3610 -0.4502  0.1186
 5189TIP3   OH215572   0.034   2.907   1.682 -0.6018 -0.2064 -0.1741
 5189TIP3    H115573   0.087   2.976   1.724  0.3476 -0.1264 -1.4515
 5189TIP3    H215574  -0.056   2.928   1.707 -0.3864  1.7950 -0.8874
 5190TIP3   OH215575   1.551   3.041   2.231 -0.1289  0.5932  0.2363
 5190TIP3    H115576   1.646   3.054   2.237 -0.5151  3.6302  1.1853
 5190TIP3    H215577   1.539   2.997   2.147  2.0486  0.6350 -0.1758
 5191TIP3   OH215578   4.968   4.523   0.949  0.0272 -0.1601  0.2332
 5191TIP3    H115579   5.053   4.479   0.939  0.1289  0.0628  0.1084
 5191TIP3    H215580   4.985   4.592   1.013  0.5717  1.4898 -1.6017
 5192TIP3   OH215581   1.908   3.128   1.641 -0.6290 -0.0611 -0.3153
 5192TIP3    H115582   1.900   3.033   1.643  0.7485 -0.2008  1.3116
 5192TIP3    H215583   1.830   3.160   1.687 -0.2815 -0.5224  0.6376
 5193TIP3   OH215584   4.759   2.427   1.217  0.4948  0.7585  0.3702
 5193TIP3    H115585   4.671   2.422   1.180  0.0754  1.6760  1.2164
 5193TIP3    H215586   4.791   2.337   1.216 -0.6922  0.3306  0.6404
 5194TIP3   OH215587   3.109   3.812   2.187 -0.3269 -0.2746 -0.3464
 5194TIP3    H115588   3.132   3.801   2.279  1.1500  1.7838 -0.4236
 5194TIP3    H215589   3.016   3.789   2.183 -1.5421  3.2774  2.4664
 5195TIP3   OH215590   1.139   3.414   4.903 -0.3035  0.1283  0.3452
 5195TIP3    H115591   1.170   3.375   4.821  0.5009 -0.3400  0.8491
 5195TIP3    H215592   1.212   3.468   4.933  0.6375 -1.9793  2.1989
 5196TIP3   OH215593   1.286   4.050   4.385 -0.3879  0.0866 -0.1691
 5196TIP3    H115594   1.328   4.048   4.299 -0.9459  0.4546 -0.4541
 5196TIP3    H215595   1.340   4.108   4.438 -0.6197  0.6832 -0.5816
 5197TIP3   OH215596   5.580   0.684   2.798  0.3286  0.3374 -0.1979
 5197TIP3    H115597   5.667   0.684   2.758  0.2212 -0.1491 -0.4375
 5197TIP3    H215598   5.553   0.592   2.797  0.2941  0.3223  0.9215
 5198TIP3   OH215599   1.202   5.324   2.315  0.1948  0.0829  0.3950
 5198TIP3    H115600   1.141   5.366   2.255 -1.5323 -1.2972  1.1017
 5198TIP3    H215601   1.271   5.390   2.330 -2.0214  2.4232  0.9562
 5199TIP3   OH215602   1.968   3.538   1.528  0.6893 -0.2703 -0.0897
 5199TIP3    H115603   1.903   3.601   1.558  0.6292 -0.9221  1.2520
 5199TIP3    H215604   2.006   3.577   1.449 -1.8703 -0.2482 -1.3896
 5200TIP3   OH215605   3.428   3.677   4.287  0.1537  0.3319  0.4374
 5200TIP3    H115606   3.497   3.639   4.341 -0.3293 -0.2454  0.6547
 5200TIP3    H215607   3.472   3.703   4.206  0.4902 -0.6845  0.2849
 5201TIP3   OH215608   5.812   5.773   3.031  0.0865 -0.2557 -0.4485
 5201TIP3    H115609   5.724   5.800   3.057 -0.1286 -0.6775 -0.7335
 5201TIP3    H215610   5.799   5.724   2.950  0.7588  1.2077 -1.4986
 5202TIP3   OH215611   4.056   1.971   4.468 -0.2944 -0.7171 -0.3793
 5202TIP3    H115612   4.124   1.985   4.402  0.3492 -4.5421 -0.7727
 5202TIP3    H215613   4.103   1.938   4.544 -1.5133 -1.5398  0.0404
 5203TIP3   OH215614   2.419   5.509   3.019  0.2214 -0.7031 -0.1319
 5203TIP3    H115615   2.412   5.497   2.924 -0.5551 -0.9743 -0.0513
 5203TIP3    H215616   2.410   5.420   3.054 -0.2038 -0.5239  0.2226
 5204TIP3   OH215617   5.721   1.049   2.642 -0.1188 -0.4760  0.1401
 5204TIP3    H115618   5.664   1.008   2.708  0.2631 -0.4445  0.4925
 5204TIP3    H215619   5.777   1.108   2.693  0.5506 -0.8587 -0.1440
 5205TIP3   OH215620   5.429   4.143   4.015 -0.1609 -0.3442  0.5571
 5205TIP3    H115621   5.340   4.115   3.994 -0.1396 -0.2667  0.3541
 5205TIP3    H215622   5.438   4.129   4.109 -0.4647 -0.1394  0.6154
 5206TIP3   OH215623   2.281   5.989   3.813 -1.0587  0.5123  0.2403
 5206TIP3    H115624   2.284   5.894   3.818  1.4882  0.4133 -1.4145
 5206TIP3    H215625   2.257   6.008   3.722 -0.9167  1.4318  0.3805
 5207TIP3   OH215626   4.345   2.935   3.817  0.0084 -0.1640  0.2265
 5207TIP3    H115627   4.377   2.973   3.899  1.5782 -2.2751  0.6789
 5207TIP3    H215628   4.251   2.927   3.829  0.4410 -2.8031  2.9840
 5208TIP3   OH215629   4.397   2.171   1.567  0.1027  0.1028 -0.0485
 5208TIP3    H115630   4.480   2.160   1.521  0.2048 -2.9994  0.6661
 5208TIP3    H215631   4.409   2.250   1.620  2.9118 -0.6919  0.6329
 5209TIP3   OH215632   0.894   5.178   0.232 -0.0084  0.1691  0.1570
 5209TIP3    H115633   0.862   5.264   0.258  1.6677  0.9967 -0.4001
 5209TIP3    H215634   0.819   5.119   0.246 -1.1713  1.6926  0.5720
 5210TIP3   OH215635   3.931   1.344   0.371 -0.2359 -0.0587  0.2237
 5210TIP3    H115636   3.949   1.395   0.293 -0.1112  1.3710  1.1511
 5210TIP3    H215637   3.849   1.380   0.405 -0.4637 -0.8872  0.5712
 5211TIP3   OH215638   2.220   4.550   1.584 -0.4045  0.4545  0.1901
 5211TIP3    H115639   2.163   4.624   1.606 -0.3385  0.3089  0.8510
 5211TIP3    H215640   2.308   4.586   1.584 -0.5511  0.9976 -2.1319
 5212TIP3   OH215641   5.044   0.047   3.131 -0.1219 -0.1630 -0.3390
 5212TIP3    H115642   5.003   0.134   3.132 -0.6768 -0.4146 -0.5557
 5212TIP3    H215643   4.986  -0.006   3.186  1.5157  0.1584  1.8671
 5213TIP3   OH215644   6.191   4.061   3.389  0.1352 -0.7484  0.0125
 5213TIP3    H115645   6.188   3.978   3.437 -1.3128 -1.5288 -1.3129
 5213TIP3    H215646   6.099   4.085   3.379  0.5243  0.7748 -0.0522
 5214TIP3   OH215647   0.061   5.043   2.150  0.2702 -0.2173 -0.8677
 5214TIP3    H115648   0.037   4.952   2.166 -1.3384 -0.0639 -2.0903
 5214TIP3    H215649   0.008   5.093   2.211  0.0780 -0.0334 -1.1833
 5215TIP3   OH215650   0.379   5.032   2.283 -0.1963  0.1017 -0.2533
 5215TIP3    H115651   0.474   5.041   2.282 -0.1323  0.3762  2.0180
 5215TIP3    H215652   0.363   4.950   2.329 -1.0743 -0.6257 -1.7890
 5216TIP3   OH215653   2.420   1.634   0.751  0.0900  0.3217  0.8910
 5216TIP3    H115654   2.359   1.664   0.818 -0.8839 -0.3883  0.3525
 5216TIP3    H215655   2.397   1.685   0.673 -1.0478 -1.1989  0.1911
 5217TIP3   OH215656   3.235   2.940   1.142 -0.6965 -0.6791  0.2610
 5217TIP3    H115657   3.238   2.863   1.199  1.4316 -0.9642 -0.1333
 5217TIP3    H215658   3.281   2.912   1.063 -1.8206  0.3445 -0.7891
 5218TIP3   OH215659   5.824   1.807   4.675  0.4081 -0.5347 -0.0850
 5218TIP3    H115660   5.820   1.721   4.717  0.4726  0.3606  1.8818
 5218TIP3    H215661   5.918   1.826   4.669  0.3710  0.0412  0.9469
 5219TIP3   OH215662   2.394   0.291   0.991  0.4853 -0.1400  0.0805
 5219TIP3    H115663   2.312   0.260   0.953 -0.8154  2.1896  0.7923
 5219TIP3    H215664   2.407   0.378   0.954  2.0002  0.0522  0.9454
 5220TIP3   OH215665   4.686   1.687   2.351 -0.1359  0.0195  0.3448
 5220TIP3    H115666   4.681   1.593   2.337  1.5053 -0.1870  0.9505
 5220TIP3    H215667   4.619   1.724   2.294 -0.5884 -1.4857 -0.1251
 5221TIP3   OH215668   3.376   1.275   2.081 -0.4068  0.0018  0.2496
 5221TIP3    H115669   3.355   1.271   1.988  0.7426  2.5624 -0.2045
 5221TIP3    H215670   3.402   1.186   2.104  0.2409 -0.4890 -2.1348
 5222TIP3   OH215671   2.451   2.554   3.604 -0.2032  0.6906  0.4498
 5222TIP3    H115672   2.426   2.486   3.541 -0.3000  1.2626 -0.1531
 5222TIP3    H215673   2.534   2.525   3.639 -0.9125 -0.4359  1.2600
 5223TIP3   OH215674   6.287   5.816   2.712 -0.6713 -0.2296 -0.2693
 5223TIP3    H115675   6.219   5.835   2.648  0.2567 -1.4612 -1.7273
 5223TIP3    H215676   6.318   5.728   2.687 -0.3669 -0.8194  1.9933
 5224TIP3   OH215677   0.634   2.378   2.738 -0.2688 -0.2673 -0.0644
 5224TIP3    H115678   0.583   2.331   2.804 -1.4087 -1.4155 -1.6865
 5224TIP3    H215679   0.724   2.372   2.769 -0.8768  0.1732  1.9139
 5225TIP3   OH215680   4.322   0.386   5.086 -0.1430  0.4338 -0.4084
 5225TIP3    H115681   4.401   0.332   5.091  0.1616  0.7601 -1.5119
 5225TIP3    H215682   4.326   0.442   5.164 -0.7099 -1.4230  1.0406
 5226TIP3   OH215683   2.941   5.895   3.771 -0.2488 -0.4648 -0.1498
 5226TIP3    H115684   2.992   5.936   3.841  0.9070 -0.7872 -0.7713
 5226TIP3    H215685   2.946   5.958   3.699  0.7084 -1.2300 -0.7753
 5227TIP3   OH215686   3.302   3.291   0.321  0.0241 -0.1138  0.5233
 5227TIP3    H115687   3.366   3.274   0.390  0.8437  2.6384  0.5361
 5227TIP3    H215688   3.217   3.271   0.361  0.5964 -0.0202  1.8276
 5228TIP3   OH215689   1.120   1.949   0.692 -0.1484  0.3727  0.5634
 5228TIP3    H115690   1.052   1.982   0.750  0.6774  0.8231  1.2940
 5228TIP3    H215691   1.179   2.023   0.680  0.6501 -0.2447  0.5974
 5229TIP3   OH215692   5.197   4.676   2.963  0.4801 -0.3736  0.1717
 5229TIP3    H115693   5.264   4.743   2.978  1.6404 -1.4155 -0.1561
 5229TIP3    H215694   5.130   4.720   2.911  1.3705  0.4434 -0.3100
 5230TIP3   OH215695   4.118   4.382   4.742 -0.0995  0.0543 -0.4557
 5230TIP3    H115696   4.184   4.314   4.753  0.5010  0.5178 -1.0759
 5230TIP3    H215697   4.117   4.399   4.648 -1.2300 -0.0656 -0.4749
 5231TIP3   OH215698   1.893   4.713   1.058  0.1381  0.4462  0.0367
 5231TIP3    H115699   1.848   4.629   1.070  0.1846  0.0888 -2.0075
 5231TIP3    H215700   1.834   4.777   1.099 -0.2042 -0.4771  1.0550
 5232TIP3   OH215701   6.093   3.303   2.649 -0.0249 -0.0261  0.2485
 5232TIP3    H115702   6.099   3.207   2.657  2.8978 -0.0766 -1.3522
 5232TIP3    H215703   6.181   3.334   2.668 -0.0101  2.0360 -2.6262
 5233TIP3   OH215704   1.712   4.495   1.638  0.0953  0.1057 -0.2041
 5233TIP3    H115705   1.617   4.490   1.652  0.2542 -2.0139  0.4067
 5233TIP3    H215706   1.749   4.499   1.726  0.5962  0.9060 -0.4415
 5234TIP3   OH215707   5.217   0.154   0.376 -0.2014 -0.6079  0.6023
 5234TIP3    H115708   5.138   0.102   0.364  0.3428 -1.6446  1.3032
 5234TIP3    H215709   5.282   0.091   0.408  0.4225  0.5504  1.6921
 5235TIP3   OH215710   2.209   1.993   2.270 -0.0688  0.2233 -0.5187
 5235TIP3    H115711   2.174   2.081   2.282  1.2770  0.7036  0.1349
 5235TIP3    H215712   2.135   1.934   2.286  0.0104  1.0324  4.0868
 5236TIP3   OH215713   3.037   0.758   1.910  0.1045  0.2638 -0.1707
 5236TIP3    H115714   3.095   0.706   1.967  0.7523 -0.8445 -1.7696
 5236TIP3    H215715   2.987   0.813   1.971 -0.0023 -1.6068  1.5619
 5237TIP3   OH215716   2.636   1.910   4.246 -0.0934 -0.0146 -0.1313
 5237TIP3    H115717   2.660   1.989   4.198 -0.3460  0.5535  0.6355
 5237TIP3    H215718   2.657   1.838   4.188 -1.1095  0.6658 -1.4026
 5238TIP3   OH215719   3.841   1.467   2.956  0.1186  0.2336  0.3518
 5238TIP3    H115720   3.861   1.538   3.017 -1.2198 -0.5888  1.8140
 5238TIP3    H215721   3.926   1.427   2.938  0.5503  0.4609  1.7350
 5239TIP3   OH215722   5.725   4.341   1.426  0.5239 -0.1290 -0.0044
 5239TIP3    H115723   5.692   4.428   1.451  0.1897 -0.7805  2.0429
 5239TIP3    H215724   5.713   4.288   1.505 -0.2146 -2.3171 -1.5010
 5240TIP3   OH215725   5.520   0.523   3.157  0.1378  0.1858 -0.2690
 5240TIP3    H115726   5.566   0.603   3.180  0.2357  0.5401 -1.6285
 5240TIP3    H215727   5.586   0.467   3.116 -0.0793 -0.3406  0.0738
 5241TIP3   OH215728   6.009   4.108   4.045 -0.2068 -0.2727  0.1748
 5241TIP3    H115729   5.971   4.184   4.001 -0.1806  0.4790  1.3931
 5241TIP3    H215730   5.942   4.082   4.109  0.7684  0.2866  1.4702
 5242TIP3   OH215731   2.873   0.821   5.018 -0.5240 -0.4227 -0.1714
 5242TIP3    H115732   2.793   0.821   4.966 -1.6838  0.5797  1.4823
 5242TIP3    H215733   2.880   0.911   5.051  1.9796 -0.1588 -1.2416
 5243TIP3   OH215734   0.583   0.688   0.737  0.4608  0.0283 -0.1000
 5243TIP3    H115735   0.583   0.643   0.652  0.8281 -0.7358  0.2913
 5243TIP3    H215736   0.567   0.618   0.801 -1.1442  0.7869  0.3773
 5244TIP3   OH215737   3.033   2.349   4.889  0.7499 -0.4962  0.1096
 5244TIP3    H115738   2.963   2.381   4.946 -0.1894 -2.5088  0.1695
 5244TIP3    H215739   3.006   2.376   4.801  0.1232 -0.8826  0.1817
 5245TIP3   OH215740   0.456   0.430   4.123 -0.7145 -0.1629 -0.4732
 5245TIP3    H115741   0.528   0.430   4.061  0.3460 -0.2285  0.7058
 5245TIP3    H215742   0.484   0.490   4.192 -1.2423 -1.1031  0.6016
 5246TIP3   OH215743   2.454   1.547   4.202 -0.1752  0.1280 -0.0593
 5246TIP3    H115744   2.544   1.549   4.170 -0.5133  1.8606 -1.0831
 5246TIP3    H215745   2.453   1.479   4.268  1.5152 -0.9619 -1.0833
 5247TIP3   OH215746   4.069   0.775   3.880 -0.0303  0.1086 -0.1800
 5247TIP3    H115747   4.121   0.735   3.950  1.5145 -0.1039 -1.4003
 5247TIP3    H215748   4.032   0.700   3.832  0.5508  0.1922 -0.7719
 5248TIP3   OH215749   0.794   1.181   2.206 -0.4685  0.1055  0.3158
 5248TIP3    H115750   0.743   1.186   2.287 -0.8036  1.5256  0.0517
 5248TIP3    H215751   0.738   1.220   2.140 -0.2289 -1.1049 -0.6471
 5249TIP3   OH215752   2.166   0.912   4.831 -0.2925 -0.1687  0.1506
 5249TIP3    H115753   2.098   0.897   4.766  1.4309 -1.4533 -1.4590
 5249TIP3    H215754   2.222   0.835   4.825  2.0562  1.4189  0.4306
 5250TIP3   OH215755   4.287   0.616   3.432  0.2645 -0.3784 -0.2032
 5250TIP3    H115756   4.280   0.569   3.515 -0.2815  0.0962  0.0204
 5250TIP3    H215757   4.315   0.549   3.369  0.2366 -0.8375  0.2664
 5251TIP3   OH215758   3.727   2.287   3.286  0.0852 -0.8347 -0.5167
 5251TIP3    H115759   3.706   2.204   3.330  1.0082 -1.2507 -0.8131
 5251TIP3    H215760   3.643   2.326   3.265 -0.3759 -0.9265  1.0674
 5252TIP3   OH215761   5.227   3.426   2.195  0.5659 -0.2618  0.2031
 5252TIP3    H115762   5.212   3.332   2.182 -1.4647  0.0133  0.2121
 5252TIP3    H215763   5.214   3.439   2.289 -0.8878  0.2455 -0.0321
 5253TIP3   OH215764   1.986   5.997   3.864 -0.0381 -0.5417 -0.3096
 5253TIP3    H115765   1.930   5.924   3.838 -0.3381 -0.6154  0.5034
 5253TIP3    H215766   2.070   5.981   3.821 -0.1965 -1.2082 -0.3744
 5254TIP3   OH215767   5.516   2.057   0.802 -0.6920  0.6716  0.4032
 5254TIP3    H115768   5.542   2.143   0.767 -0.0680  0.1176 -0.5530
 5254TIP3    H215769   5.449   2.077   0.867  0.7165  2.0216  1.5161
 5255TIP3   OH215770   2.393   1.354   0.730  0.0616 -0.4749 -0.5627
 5255TIP3    H115771   2.448   1.432   0.739 -1.2801  0.4747 -0.4228
 5255TIP3    H215772   2.311   1.386   0.693 -0.3395 -1.9075 -0.9893
 5256TIP3   OH215773   1.507   1.945   0.787  0.1888 -0.5002 -0.1411
 5256TIP3    H115774   1.533   1.968   0.876 -0.6542 -0.0796  0.0096
 5256TIP3    H215775   1.585   1.906   0.748  1.3266  1.4603  0.0251
 5257TIP3   OH215776   0.503   2.777   2.483  0.4485 -0.3138  0.4528
 5257TIP3    H115777   0.455   2.827   2.418  1.5140  0.5785  0.3319
 5257TIP3    H215778   0.461   2.691   2.483 -0.7354  0.2504 -0.0806
 5258TIP3   OH215779   0.461   0.316   2.398 -0.0843 -0.4845  0.6901
 5258TIP3    H115780   0.542   0.362   2.419  0.2903 -0.9738  0.3627
 5258TIP3    H215781   0.421   0.368   2.328 -0.2877  0.0095  1.1700
 5259TIP3   OH215782   2.410   3.443   0.479  0.2780 -0.1741  0.2774
 5259TIP3    H115783   2.462   3.424   0.558  2.3868 -0.7666 -1.1597
 5259TIP3    H215784   2.417   3.538   0.468  1.2997 -0.2646 -0.0039
 5260TIP3   OH215785   3.378   5.839   3.556 -0.3945  0.3047 -0.2948
 5260TIP3    H115786   3.339   5.772   3.612 -0.8922 -0.1457 -1.1545
 5260TIP3    H215787   3.443   5.792   3.504 -0.5954  0.5249 -0.7531
 5261TIP3   OH215788   0.044   5.242   3.634  0.9700  0.0684  0.5397
 5261TIP3    H115789  -0.005   5.323   3.649 -0.3502 -0.8886  1.6836
 5261TIP3    H215790   0.107   5.238   3.706  1.4898  0.3929  0.1082
 5262TIP3   OH215791   0.111   3.432   0.596 -0.2714 -0.0398 -0.2866
 5262TIP3    H115792   0.130   3.346   0.632 -0.3205 -0.4588 -1.2145
 5262TIP3    H215793   0.124   3.493   0.669 -1.0204 -0.8989  0.5862
 5263TIP3   OH215794   4.781   1.979   0.002  0.0175  0.1692 -0.4239
 5263TIP3    H115795   4.778   2.049   0.068  1.0033  1.3054 -1.5392
 5263TIP3    H215796   4.865   1.935   0.018 -0.2230 -0.2347 -0.2595
 5264TIP3   OH215797   3.357   2.489   2.448  0.0626  0.5495 -0.0230
 5264TIP3    H115798   3.303   2.528   2.516 -0.7890 -0.7034  0.0398
 5264TIP3    H215799   3.339   2.541   2.370  0.4987  1.5395  0.5125
 5265TIP3   OH215800   5.482   4.390   1.720 -0.2711 -0.2220  0.7268
 5265TIP3    H115801   5.392   4.383   1.691  0.1563  0.5287 -0.9002
 5265TIP3    H215802   5.500   4.484   1.722  0.5216 -0.3636  0.8603
 5266TIP3   OH215803   6.215   2.076   4.419 -0.5358  0.2550 -0.3550
 5266TIP3    H115804   6.203   1.981   4.427  1.1121  0.1268  1.7771
 5266TIP3    H215805   6.175   2.112   4.499 -0.8660  1.3270 -0.9856
 5267TIP3   OH215806   2.127   4.247   1.112  0.0500  0.0908 -1.0445
 5267TIP3    H115807   2.039   4.244   1.073  0.0090 -0.3660 -0.9203
 5267TIP3    H215808   2.115   4.296   1.193 -0.1942 -0.4357 -0.7631
 5268TIP3   OH215809   4.272   0.252   4.092  0.0244 -0.5587 -0.2798
 5268TIP3    H115810   4.178   0.255   4.078 -0.1610  1.2193  0.9640
 5268TIP3    H215811   4.285   0.180   4.154 -0.4954 -0.8722 -0.5287
 5269TIP3   OH215812   1.805   5.432   3.224  0.5499 -0.4534 -0.0449
 5269TIP3    H115813   1.771   5.384   3.300  2.1654 -2.0477 -0.2626
 5269TIP3    H215814   1.882   5.382   3.197  0.6896  0.7468 -2.0284
 5270TIP3   OH215815   4.751   3.465   2.694 -0.2978 -0.1622  0.3474
 5270TIP3    H115816   4.700   3.385   2.693 -1.5794  0.6112 -1.5684
 5270TIP3    H215817   4.692   3.531   2.731  0.0919  0.2887  0.1768
 5271TIP3   OH215818   2.435   4.772   5.043 -0.1694  0.3438  0.8214
 5271TIP3    H115819   2.525   4.753   5.070  0.0283 -1.8542 -1.0682
 5271TIP3    H215820   2.444   4.827   4.966 -0.3315 -1.0469 -0.2296
 5272TIP3   OH215821   5.968   4.913   1.398 -0.8746 -0.3145  0.1844
 5272TIP3    H115822   6.045   4.886   1.448 -0.8894 -0.8978 -0.1061
 5272TIP3    H215823   6.003   4.963   1.325 -0.8142  0.0015  0.4286
 5273TIP3   OH215824   3.441   4.427   4.483 -0.1719  0.1967 -0.0897
 5273TIP3    H115825   3.508   4.361   4.461  1.4688  1.6906  0.2281
 5273TIP3    H215826   3.413   4.461   4.398  0.5680  0.5893 -0.1862
 5274TIP3   OH215827   4.305   0.206   3.439  0.6284 -0.8678 -0.7946
 5274TIP3    H115828   4.209   0.210   3.438  0.6529 -0.1190 -0.9208
 5274TIP3    H215829   4.330   0.240   3.525  0.7774 -1.2966 -0.6649
 5275TIP3   OH215830   5.003   4.711   1.178  0.8378 -0.5951  0.7685
 5275TIP3    H115831   5.010   4.760   1.260  0.2182 -0.4187  0.7245
 5275TIP3    H215832   4.948   4.636   1.200  1.1126 -0.8371  0.6385
 5276TIP3   OH215833   4.715   5.214   0.603  0.0032 -0.6288 -0.5075
 5276TIP3    H115834   4.666   5.162   0.666  0.9999 -3.5741 -1.9441
 5276TIP3    H215835   4.805   5.214   0.637  0.1534 -0.5141 -0.8932
 5277TIP3   OH215836   1.183   1.659   4.041  0.0817  0.9755 -0.2102
 5277TIP3    H115837   1.099   1.675   3.997 -1.0168 -0.4625  1.2301
 5277TIP3    H215838   1.248   1.703   3.987 -1.2348 -0.2582 -2.9616
 5278TIP3   OH215839   6.076   2.228   1.421  0.1338  0.0254 -0.1710
 5278TIP3    H115840   6.137   2.288   1.377  1.8196 -1.0854  0.5308
 5278TIP3    H215841   6.049   2.274   1.501  0.7260  0.2125 -0.0772
 5279TIP3   OH215842   5.491   5.371   1.953  0.2907  0.4028 -0.3781
 5279TIP3    H115843   5.463   5.384   2.043 -1.2161 -0.3345 -0.7099
 5279TIP3    H215844   5.538   5.451   1.930 -1.5604  1.7072  0.2189
 5280TIP3   OH215845   0.941   1.526   1.864 -0.5109 -0.2197 -0.2647
 5280TIP3    H115846   0.981   1.489   1.785  1.2128  0.5584  0.1918
 5280TIP3    H215847   0.913   1.449   1.915 -2.6016 -0.7326 -2.0170
 5281TIP3   OH215848   1.558   5.783   4.730  0.0235 -0.2043  0.2234
 5281TIP3    H115849   1.580   5.865   4.684  1.0851 -0.4674  0.2267
 5281TIP3    H215850   1.606   5.716   4.682 -0.8179 -0.8322  0.2425
 5282TIP3   OH215851   1.318   0.754   2.165 -0.3723  0.0414  0.4801
 5282TIP3    H115852   1.223   0.758   2.181 -0.8633 -0.7751 -1.8457
 5282TIP3    H215853   1.334   0.662   2.142  0.5592  0.5920 -1.2481
 5283TIP3   OH215854   2.112   2.605   3.627  0.1030  0.1751 -0.4330
 5283TIP3    H115855   2.185   2.665   3.641  1.6356 -0.8894 -2.9635
 5283TIP3    H215856   2.138   2.525   3.672 -0.0537  0.1711 -0.3504
 5284TIP3   OH215857   5.556   5.612   2.509  0.2017  0.4813  0.7486
 5284TIP3    H115858   5.508   5.529   2.519 -0.6555  0.7689 -0.6541
 5284TIP3    H215859   5.521   5.668   2.578  1.0605 -0.4184  1.9583
 5285TIP3   OH215860   4.143   3.944   3.971 -0.6643  0.7606  0.8141
 5285TIP3    H115861   4.223   3.982   3.934  0.8341 -1.0203  2.0407
 5285TIP3    H215862   4.130   3.863   3.920  0.1233 -0.5360  2.5690
 5286TIP3   OH215863   2.270   0.799   0.544 -0.0084 -0.2988 -0.2273
 5286TIP3    H115864   2.219   0.741   0.600  0.4386 -0.2356  0.2529
 5286TIP3    H215865   2.216   0.877   0.533  1.0080  0.8838  2.4058
 5287TIP3   OH215866   4.484   2.090   3.312  0.0684  0.3412  0.7637
 5287TIP3    H115867   4.490   2.139   3.231 -0.6573 -1.0231 -0.1557
 5287TIP3    H215868   4.395   2.106   3.343  0.3840  0.9635  1.3848
 5288TIP3   OH215869   0.897   5.716   2.929 -0.4849 -0.0110 -0.6141
 5288TIP3    H115870   0.879   5.761   2.846  0.1012 -0.0055 -0.7390
 5288TIP3    H215871   0.812   5.682   2.956 -1.0369  1.5748 -0.2664
 5289TIP3   OH215872   5.337   4.161   2.783  0.0119 -0.5819 -0.8617
 5289TIP3    H115873   5.315   4.254   2.791 -0.5598 -0.6658 -1.4430
 5289TIP3    H215874   5.424   4.161   2.743 -0.5926 -0.3168 -2.2061
 5290TIP3   OH215875   5.903   3.582   1.526 -0.0910 -0.4988 -0.1898
 5290TIP3    H115876   5.905   3.674   1.500 -0.8730 -0.3043  0.4158
 5290TIP3    H215877   5.824   3.574   1.580 -0.3959 -1.6709 -0.7852
 5291TIP3   OH215878   5.953   5.093   2.784  1.0556 -0.0726  0.0331
 5291TIP3    H115879   6.022   5.052   2.733  0.9630 -0.8470  0.5286
 5291TIP3    H215880   5.891   5.126   2.718  0.3229 -2.1261 -0.3615
 5292TIP3   OH215881   4.515   2.509   4.893 -0.1352  0.1196  0.2344
 5292TIP3    H115882   4.424   2.491   4.867  0.4908 -0.5132 -1.7795
 5292TIP3    H215883   4.554   2.422   4.903  0.4293  0.3765  0.3060
 5293TIP3   OH215884   5.030   2.666   2.983 -0.0511 -0.2700  0.0873
 5293TIP3    H115885   5.041   2.729   3.054  0.6684  0.9406 -1.0561
 5293TIP3    H215886   4.943   2.684   2.948 -0.0504 -0.2645  0.0884
 5294TIP3   OH215887   5.396   2.888   1.061  0.5598  0.1649 -0.4340
 5294TIP3    H115888   5.359   2.813   1.108  1.0370 -0.6206 -1.2786
 5294TIP3    H215889   5.488   2.865   1.047  0.8885  1.2228 -0.0912
 5295TIP3   OH215890   3.143   3.321   4.366 -0.0604 -0.1610  0.2893
 5295TIP3    H115891   3.050   3.298   4.365 -0.2036  0.3968  0.5689
 5295TIP3    H215892   3.161   3.349   4.276 -0.2305 -0.0067  0.3019
 5296TIP3   OH215893   0.154   1.912   4.416  0.0391  0.1597 -0.2666
 5296TIP3    H115894   0.165   2.006   4.433 -0.3122  0.0178  0.8140
 5296TIP3    H215895   0.208   1.869   4.481  0.4465 -0.4020 -0.9610
 5297TIP3   OH215896   1.640   5.471   0.604 -0.3187  0.1051 -0.5100
 5297TIP3    H115897   1.613   5.472   0.512  1.1376 -1.9573 -1.0249
 5297TIP3    H215898   1.733   5.491   0.602 -0.3571  0.4469  0.5634
 5298TIP3   OH215899   4.318   3.366   2.764 -0.0147 -0.1725 -0.2286
 5298TIP3    H115900   4.231   3.379   2.727 -0.3436  0.5125  0.7266
 5298TIP3    H215901   4.370   3.439   2.729 -0.1636  0.1221  0.1488
 5299TIP3   OH215902   1.883   2.121   1.543 -0.7191  0.2606 -0.1924
 5299TIP3    H115903   1.869   2.215   1.550 -0.5147  0.2216  0.9918
 5299TIP3    H215904   1.795   2.083   1.546 -0.8633  0.4480 -1.6186
 5300TIP3   OH215905   2.981   1.807   1.535 -0.1494 -0.4437  0.0262
 5300TIP3    H115906   2.943   1.777   1.452  0.1636 -0.4606 -0.1100
 5300TIP3    H215907   2.975   1.902   1.532 -2.5918 -0.4768  1.1246
 5301TIP3   OH215908   4.555   0.479   4.288  0.1174 -0.0276  0.0464
 5301TIP3    H115909   4.516   0.443   4.208  0.0104 -0.5130  0.3162
 5301TIP3    H215910   4.648   0.486   4.268  0.0182  0.3649 -0.3087
 5302TIP3   OH215911   3.279   4.945   1.027  0.0293  0.1526  0.1702
 5302TIP3    H115912   3.365   4.960   0.987 -0.7726  1.4690 -1.1685
 5302TIP3    H215913   3.297   4.942   1.121  1.4938  0.9058 -0.0421
 5303TIP3   OH215914   0.304   4.118   2.325 -0.6968 -0.5784  0.4636
 5303TIP3    H115915   0.293   4.036   2.372 -2.7448  0.3416  1.7255
 5303TIP3    H215916   0.226   4.125   2.269 -1.1251  0.9933  1.2041
 5304TIP3   OH215917   5.558   2.753   3.480 -0.7251 -0.2021 -0.2867
 5304TIP3    H115918   5.519   2.720   3.399 -0.7225 -2.3786  0.5143
 5304TIP3    H215919   5.651   2.762   3.461 -0.5841 -1.5178 -0.3374
 5305TIP3   OH215920   1.986   4.394   3.628  0.3620  0.2082  0.0731
 5305TIP3    H115921   1.938   4.477   3.629  0.2089  0.1338 -0.6603
 5305TIP3    H215922   2.009   4.381   3.536  1.7356  0.2117  0.3906
 5306TIP3   OH215923   1.923   1.233   0.826 -0.2307  0.6254  0.1629
 5306TIP3    H115924   1.971   1.223   0.909 -0.4109  1.7634  0.4318
 5306TIP3    H215925   1.833   1.250   0.854 -0.8510 -1.5606 -0.3359
 5307TIP3   OH215926   3.165   0.512   2.936  0.3453 -0.4980 -0.2288
 5307TIP3    H115927   3.103   0.538   2.868  0.7618 -1.1884 -0.8954
 5307TIP3    H215928   3.171   0.417   2.928  2.6458 -0.3397 -1.2604
 5308TIP3   OH215929   0.913   2.760   2.262 -0.0149  0.0124  0.0766
 5308TIP3    H115930   0.893   2.771   2.355 -0.9969 -1.2834  0.0396
 5308TIP3    H215931   1.009   2.764   2.258  0.1960 -2.1911  1.4808
 5309TIP3   OH215932   3.739   1.204   2.373  0.0361 -0.4284  0.5245
 5309TIP3    H115933   3.721   1.133   2.312  1.9458  0.5789 -1.3690
 5309TIP3    H215934   3.659   1.257   2.373 -0.4518 -1.1510 -0.0838
 5310TIP3   OH215935   0.823   2.141   4.089 -0.1381 -0.0953  0.1406
 5310TIP3    H115936   0.871   2.217   4.122  0.5149 -0.7029  0.6222
 5310TIP3    H215937   0.867   2.119   4.007  0.8628 -1.0617  0.9157
 5311TIP3   OH215938   0.036   5.619   0.226  0.4546  0.7182 -0.7335
 5311TIP3    H115939  -0.000   5.610   0.314  1.2372 -2.5641 -0.6030
 5311TIP3    H215940   0.091   5.697   0.230 -0.7609  1.5322  1.1983
 5312TIP3   OH215941   5.011   4.572   4.927 -0.5083 -0.3224  0.1288
 5312TIP3    H115942   4.964   4.619   4.995 -0.5263 -0.8814  0.5060
 5312TIP3    H215943   5.093   4.621   4.916  0.4933 -1.4450  2.1061
 5313TIP3   OH215944   2.575   0.682   4.582  0.2581  0.3181 -0.5454
 5313TIP3    H115945   2.512   0.648   4.518 -1.3238  0.4502  0.8867
 5313TIP3    H215946   2.646   0.618   4.581  0.6543  0.6865 -2.9358
 5314TIP3   OH215947  -0.014   4.671   0.815  0.2403  0.0835  0.0730
 5314TIP3    H115948   0.062   4.660   0.757  2.8992 -0.5231  3.3377
 5314TIP3    H215949  -0.016   4.765   0.835 -0.2166  0.1827 -0.4383
 5315TIP3   OH215950   1.590   0.978   2.799 -1.3166  0.4506 -0.0571
 5315TIP3    H115951   1.532   0.906   2.773  0.1296 -0.8877  0.2876
 5315TIP3    H215952   1.581   0.982   2.894 -2.3715  1.6317 -0.1778
 5316TIP3   OH215953   5.961   5.439   2.724 -0.1111 -0.3474 -0.2609
 5316TIP3    H115954   5.904   5.364   2.710 -1.0593  0.4187 -0.5546
 5316TIP3    H215955   5.963   5.450   2.819 -0.9910  0.0240 -0.2797
 5317TIP3   OH215956   5.493   2.984   0.118  0.0760 -0.2896 -0.2792
 5317TIP3    H115957   5.460   2.894   0.118 -0.5320 -0.0823  0.5382
 5317TIP3    H215958   5.553   2.987   0.193 -0.6732  0.2418  0.3150
 5318TIP3   OH215959   1.935   3.292   4.481  0.5505  0.1784  0.2679
 5318TIP3    H115960   1.909   3.326   4.396  0.9624  1.2983  0.5666
 5318TIP3    H215961   2.029   3.311   4.487  0.2811  1.3247  1.4836
 5319TIP3   OH215962   3.894   5.779   3.031  0.0575 -0.4621 -0.3332
 5319TIP3    H115963   3.834   5.810   2.963  1.1618  1.0658 -0.6362
 5319TIP3    H215964   3.863   5.690   3.050 -0.3028 -0.9257 -2.7934
 5320TIP3   OH215965   4.576   5.093   0.800 -0.2068  0.0523 -0.0589
 5320TIP3    H115966   4.542   5.005   0.788 -0.1598 -0.0451  0.4799
 5320TIP3    H215967   4.581   5.104   0.895  0.1764  0.4857 -0.1251
 5321TIP3   OH215968   5.060   3.381   3.708  0.2637  0.6774  0.8625
 5321TIP3    H115969   5.027   3.464   3.741  1.9615  0.9190  2.0964
 5321TIP3    H215970   4.984   3.322   3.710 -1.2511  2.4270 -1.1201
 5322TIP3   OH215971   1.802   3.029   4.700  0.0944 -0.4042 -0.4431
 5322TIP3    H115972   1.768   3.107   4.656  2.0572  0.4191 -0.6089
 5322TIP3    H215973   1.756   3.028   4.784 -2.1704 -0.8318 -1.6077
 5323TIP3   OH215974   2.412   1.371   3.349  0.0678  0.1411  0.1041
 5323TIP3    H115975   2.455   1.383   3.434  1.1618 -0.0635 -0.4063
 5323TIP3    H215976   2.324   1.405   3.363  0.4550  0.8084  1.1189
 5324TIP3   OH215977   2.654   5.179   2.259  0.4379  0.7913  0.0574
 5324TIP3    H115978   2.574   5.166   2.310  0.4915 -0.1625 -0.0806
 5324TIP3    H215979   2.706   5.240   2.312  1.3729 -1.6712  2.2453
 5325TIP3   OH215980   1.873   5.030   1.660 -0.0889 -0.6090  0.2714
 5325TIP3    H115981   1.822   4.966   1.611  0.1677  0.1191 -1.0219
 5325TIP3    H215982   1.904   5.091   1.593  0.1640  0.5275  1.3819
 5326TIP3   OH215983   6.186   4.643   4.147  1.0644 -0.0113 -0.3845
 5326TIP3    H115984   6.162   4.560   4.188  1.3580  0.0516 -0.0859
 5326TIP3    H215985   6.265   4.671   4.192  0.9156  0.4801 -0.4185
 5327TIP3   OH215986   1.275   4.278   1.826  0.0925  0.3675 -0.3788
 5327TIP3    H115987   1.182   4.288   1.846 -0.1067  2.1999 -1.9408
 5327TIP3    H215988   1.293   4.186   1.842 -1.5563  0.3188  1.6278
 5328TIP3   OH215989   0.609   2.807   4.229  0.0484 -0.4002 -0.0224
 5328TIP3    H115990   0.584   2.897   4.208  1.9019 -0.0857 -1.1341
 5328TIP3    H215991   0.702   2.813   4.253  0.2843 -2.0549 -0.4067
 5329TIP3   OH215992   2.077   3.112   4.989  0.0168  0.3550  0.5714
 5329TIP3    H115993   2.123   3.052   4.931  1.0506  1.6556 -0.0019
 5329TIP3    H215994   2.018   3.160   4.932  0.5673  1.1899  0.6945
 5330TIP3   OH215995   0.440   1.297   1.579  0.1049  0.0626 -0.3062
 5330TIP3    H115996   0.450   1.202   1.567  0.4027  0.0981 -0.3483
 5330TIP3    H215997   0.460   1.334   1.493  2.7320  0.3499  0.3537
 5331TIP3   OH215998   2.648   5.908   3.797  0.0284  0.5974 -0.7817
 5331TIP3    H115999   2.744   5.905   3.797  0.0307 -0.2040  0.7248
 5331TIP3    H216000   2.622   5.846   3.864 -1.6503 -1.2778 -2.9913
 5332TIP3   OH216001   1.585   3.207   1.403  0.0398  0.2772 -0.0290
 5332TIP3    H116002   1.668   3.253   1.415 -0.2091  1.4071 -2.2271
 5332TIP3    H216003   1.523   3.275   1.379 -0.8594 -0.9142 -1.2068
 5333TIP3   OH216004   4.788   5.831   0.518 -0.0158 -0.2570  0.1229
 5333TIP3    H116005   4.838   5.879   0.584  0.2557 -0.8667  0.3657
 5333TIP3    H216006   4.848   5.765   0.485 -0.5989 -0.9000  0.3125
 5334TIP3   OH216007   0.229   0.160   4.602  0.0960 -0.4220  0.1756
 5334TIP3    H116008   0.308   0.147   4.549  0.8531 -0.2799  1.2270
 5334TIP3    H216009   0.167   0.204   4.544  1.8441  2.2246  0.1573
 5335TIP3   OH216010   5.256   1.926   1.222  0.0706  0.0996 -0.2360
 5335TIP3    H116011   5.281   1.833   1.212  1.5382  0.2235  1.7341
 5335TIP3    H216012   5.229   1.952   1.134  0.5475 -1.9480 -1.0624
 5336TIP3   OH216013   2.528   4.815   0.842 -0.0638  0.0840 -0.1146
 5336TIP3    H116014   2.572   4.859   0.769  1.9813 -2.9244 -0.8686
 5336TIP3    H216015   2.461   4.761   0.801  0.0492 -0.4509  0.4016
 5337TIP3   OH216016   0.405   5.311   3.385 -0.0685  0.1482  0.7996
 5337TIP3    H116017   0.395   5.378   3.317 -1.8854  0.2808  1.1507
 5337TIP3    H216018   0.365   5.233   3.347  1.4391 -0.5904  0.6578
 5338TIP3   OH216019   4.413   3.928   1.652 -0.1427  0.0189 -0.2410
 5338TIP3    H116020   4.380   3.865   1.587  1.6410 -2.0077  0.6724
 5338TIP3    H216021   4.404   3.882   1.736 -0.4207  1.7417  0.7248
 5339TIP3   OH216022   5.045   0.093   4.665  0.4221  0.6345 -0.1718
 5339TIP3    H116023   5.063   0.173   4.614 -0.8310  1.2920  0.3723
 5339TIP3    H216024   5.012   0.125   4.749 -1.8492 -0.4086 -0.5785
 5340TIP3   OH216025   4.821   1.309   1.277 -0.1065 -0.0944 -0.3711
 5340TIP3    H116026   4.782   1.235   1.230  0.6201 -1.0825  0.5481
 5340TIP3    H216027   4.877   1.351   1.212  0.2796 -0.9782 -0.6259
 5341TIP3   OH216028   5.250   5.828   2.871 -0.1549  0.1928 -0.2042
 5341TIP3    H116029   5.318   5.762   2.884 -0.8109 -0.7103 -1.2561
 5341TIP3    H216030   5.296   5.912   2.878  0.7630 -0.3756  0.7020
 5342TIP3   OH216031   2.368   2.079   1.971  0.3322  0.3154  0.2816
 5342TIP3    H116032   2.354   2.046   2.059 -1.0607  0.9354  0.3182
 5342TIP3    H216033   2.280   2.097   1.937  0.8725  0.7573 -0.9721
 5343TIP3   OH216034   1.247   5.713   0.666 -0.0800 -0.2212 -0.4112
 5343TIP3    H116035   1.340   5.704   0.650 -0.4260 -1.8089 -1.7605
 5343TIP3    H216036   1.234   5.678   0.754  0.6954  0.8857  0.1674
 5344TIP3   OH216037   5.020   5.601   2.873 -0.1086  0.0157  0.6302
 5344TIP3    H116038   5.096   5.553   2.903  1.3973  0.8913 -1.5103
 5344TIP3    H216039   4.951   5.536   2.866  0.3054 -0.7373  2.9176
 5345TIP3   OH216040   2.827   5.068   1.825  0.0125  0.1990 -0.3521
 5345TIP3    H116041   2.772   4.994   1.850 -1.6709  1.3419 -0.5360
 5345TIP3    H216042   2.861   5.102   1.908 -2.1096  1.3657  0.1072
 5346TIP3   OH216043   3.138   4.392   1.211 -0.0229 -0.0719 -0.0851
 5346TIP3    H116044   3.166   4.481   1.232  0.4109 -0.4240  0.8842
 5346TIP3    H216045   3.050   4.403   1.175  0.4202  0.8356 -0.9565
 5347TIP3   OH216046   0.375   1.349   1.080  0.0918  0.2501 -0.0331
 5347TIP3    H116047   0.355   1.317   0.992 -0.3988 -0.2246  0.2431
 5347TIP3    H216048   0.303   1.410   1.100 -0.7741 -0.9719  0.7139
 5348TIP3   OH216049   0.815   4.480   1.311  0.1841 -0.2945  0.0890
 5348TIP3    H116050   0.889   4.425   1.285 -0.0390 -0.7154  0.3501
 5348TIP3    H216051   0.788   4.446   1.396 -0.0103  0.1648  0.2143
 5349TIP3   OH216052   5.447   4.015   1.745 -0.0394  0.0070  0.3252
 5349TIP3    H116053   5.371   4.049   1.697  0.2319  0.9999  0.5750
 5349TIP3    H216054   5.409   3.954   1.808 -0.3977 -1.4311 -1.1907
 5350TIP3   OH216055   2.433   2.986   2.078  0.2384  0.8461 -0.3464
 5350TIP3    H116056   2.407   2.997   2.169  1.4622 -0.5542  0.2030
 5350TIP3    H216057   2.431   3.075   2.042 -3.4506  1.1086  0.0691
 5351TIP3   OH216058   3.076   2.374   3.375  0.0647 -0.3555  0.3912
 5351TIP3    H116059   3.103   2.379   3.283  0.8274 -1.4838  0.5267
 5351TIP3    H216060   3.024   2.294   3.380  1.3248 -1.1595  1.2267
 5352TIP3   OH216061   6.180   2.312   3.793 -0.1895 -0.2320  0.4236
 5352TIP3    H116062   6.264   2.356   3.778 -0.7440  0.4524 -0.8494
 5352TIP3    H216063   6.194   2.259   3.871  0.9586  1.0763  1.1584
 5353TIP3   OH216064   1.405   1.278   3.658 -0.0205  0.0786  0.7411
 5353TIP3    H116065   1.316   1.255   3.687 -0.1405  1.0224  1.1419
 5353TIP3    H216066   1.421   1.364   3.697  1.8727 -0.9689  2.4751
 5354TIP3   OH216067   3.279   3.355   3.028 -0.1065 -0.3508 -0.1987
 5354TIP3    H116068   3.232   3.359   2.944 -0.4268  0.7490  0.0132
 5354TIP3    H216069   3.216   3.389   3.091  1.0168  1.2823  0.0782
 5355TIP3   OH216070   2.747   5.024   4.014  0.2602  0.4558 -0.2325
 5355TIP3    H116071   2.802   4.947   4.004  0.0128 -0.0773  1.9121
 5355TIP3    H216072   2.733   5.031   4.109 -1.5575  1.8389 -0.5431
 5356TIP3   OH216073   0.755   3.452   2.610  0.3426  0.0398 -0.4204
 5356TIP3    H116074   0.793   3.452   2.698 -0.2135  1.8486 -0.1407
 5356TIP3    H216075   0.819   3.501   2.557  1.4211 -2.2899 -1.4324
 5357TIP3   OH216076   3.737   0.837   3.409 -0.3404 -0.1157 -0.1531
 5357TIP3    H116077   3.732   0.933   3.400 -0.0810  0.1560  1.9140
 5357TIP3    H216078   3.820   0.814   3.367 -1.4626  0.2055 -2.7046
 5358TIP3   OH216079   1.852   4.181   4.201  0.2044 -0.6189 -0.6468
 5358TIP3    H116080   1.817   4.270   4.187  0.1403 -0.8015 -1.7682
 5358TIP3    H216081   1.795   4.125   4.149 -0.5405 -1.5109  1.0548
 5359TIP3   OH216082   5.996   1.123   4.293 -0.0946  0.1220  0.2133
 5359TIP3    H116083   6.056   1.051   4.277 -0.5202 -0.0621 -0.5619
 5359TIP3    H216084   5.989   1.128   4.389 -0.4547 -1.1847  0.2666
 5360TIP3   OH216085   4.700   4.478   5.104  0.5084 -0.0228 -0.6644
 5360TIP3    H116086   4.712   4.385   5.123  0.3099 -0.2024 -1.3734
 5360TIP3    H216087   4.783   4.519   5.129  0.1942 -0.1998  0.7335
 5361TIP3   OH216088   5.825   3.323   0.338  0.1841 -0.4144  0.0101
 5361TIP3    H116089   5.908   3.282   0.364  1.3368  0.6437 -1.7879
 5361TIP3    H216090   5.803   3.284   0.254 -0.1633  0.6132 -0.3999
 5362TIP3   OH216091   1.509   3.687   0.740 -0.0443  0.1568  0.5343
 5362TIP3    H116092   1.472   3.723   0.660 -2.3140 -0.4868  1.1955
 5362TIP3    H216093   1.591   3.734   0.753  0.2989  0.3821 -2.0426
 5363TIP3   OH216094   1.980   4.761   5.133 -0.2740 -0.6573  0.0273
 5363TIP3    H116095   2.029   4.838   5.164 -1.0451 -0.7384  1.5207
 5363TIP3    H216096   2.042   4.715   5.077  0.1117  1.1986 -1.1767
 5364TIP3   OH216097   3.524   1.229   4.216  0.8406  0.1753  0.0117
 5364TIP3    H116098   3.580   1.231   4.294  1.6392  0.7527 -0.5601
 5364TIP3    H216099   3.582   1.204   4.145  0.0079 -0.8417 -0.3357
 5365TIP3   OH216100   5.131   3.255   1.173 -0.0890 -0.1335  0.4748
 5365TIP3    H116101   5.150   3.347   1.159  0.5453 -0.3708 -0.3235
 5365TIP3    H216102   5.103   3.249   1.264 -1.8992  1.1041  0.0508
 5366TIP3   OH216103   1.829   0.862   4.424  0.2381 -0.0235  0.2483
 5366TIP3    H116104   1.760   0.795   4.422  0.8847 -0.7433  1.0480
 5366TIP3    H216105   1.824   0.904   4.339  0.2124 -1.5156 -0.5243
 5367TIP3   OH216106   4.370   1.884   0.488 -0.1274 -0.1789  0.0562
 5367TIP3    H116107   4.333   1.841   0.410 -0.4269 -0.6351  0.4404
 5367TIP3    H216108   4.421   1.815   0.531  1.1124  0.4091 -0.4057
 5368TIP3   OH216109   2.990   0.126   0.784 -0.1450  0.0712  0.1421
 5368TIP3    H116110   2.952   0.210   0.809 -1.2365 -0.6054  0.8486
 5368TIP3    H216111   2.932   0.092   0.716 -0.1761 -0.4737  0.4334
 5369TIP3   OH216112   0.326   3.156   1.396  0.6433  0.5050  0.3584
 5369TIP3    H116113   0.253   3.095   1.383  1.5410 -0.4382 -0.3713
 5369TIP3    H216114   0.297   3.211   1.469 -0.6411 -0.0860  0.3393
 5370TIP3   OH216115   5.432   5.362   3.587 -0.1797 -0.0170 -0.2532
 5370TIP3    H116116   5.417   5.349   3.493  2.4303  1.2266 -0.9481
 5370TIP3    H216117   5.470   5.280   3.617 -1.5455 -0.6186 -0.1271
 5371TIP3   OH216118   2.160   5.939   2.902  0.1167  0.1007 -0.1341
 5371TIP3    H116119   2.250   5.959   2.930  0.6927 -0.2619 -1.6002
 5371TIP3    H216120   2.165   5.849   2.869 -0.1092  0.9466 -2.7001
 5372TIP3   OH216121   4.072   5.232   0.214 -0.3661 -0.0632 -0.0978
 5372TIP3    H116122   4.131   5.164   0.246 -1.9403 -1.8428 -0.8123
 5372TIP3    H216123   4.120   5.275   0.143  1.1765  0.5331  1.2582
 5373TIP3   OH216124   3.318   3.516   0.132 -0.3768  0.0832  0.3857
 5373TIP3    H116125   3.223   3.525   0.132 -0.4481 -0.6315  0.3303
 5373TIP3    H216126   3.336   3.448   0.197  0.0681 -0.0529  0.1270
 5374TIP3   OH216127   0.062   5.858   2.290  0.0377 -0.1876  0.1598
 5374TIP3    H116128   0.069   5.882   2.197  1.7752  0.5785  0.4530
 5374TIP3    H216129   0.025   5.935   2.332 -0.5062 -0.4414  0.1546
 5375TIP3   OH216130   4.364   1.413   4.113  0.3468  0.2654 -0.1657
 5375TIP3    H116131   4.418   1.493   4.109  0.8943 -0.0251  0.9680
 5375TIP3    H216132   4.285   1.435   4.063  1.4251  0.7537 -1.7472
 5376TIP3   OH216133   5.834   1.512   0.543  0.8814  0.1114 -0.2853
 5376TIP3    H116134   5.791   1.595   0.561 -0.6571 -0.2381 -2.0713
 5376TIP3    H216135   5.807   1.455   0.616  1.4519  0.9590  0.6135
 5377TIP3   OH216136   1.048   0.355   4.354  0.0807  0.1592  0.2498
 5377TIP3    H116137   0.991   0.279   4.371 -0.7920  0.9396  0.9420
 5377TIP3    H216138   0.987   0.426   4.337  0.8973  0.4018 -1.9306
 5378TIP3   OH216139   6.354   0.777   4.642 -0.2740  0.0944 -0.4070
 5378TIP3    H116140   6.315   0.841   4.583 -0.4728  1.7771  1.4368
 5378TIP3    H216141   6.281   0.749   4.698  0.2708 -0.0709  0.2294
 5379TIP3   OH216142   0.106   3.084   1.878 -0.2297  0.0323 -0.4120
 5379TIP3    H116143   0.190   3.102   1.919 -0.3379 -0.2784 -0.0492
 5379TIP3    H216144   0.058   3.033   1.943 -0.4861 -0.2759 -0.8407
 5380TIP3   OH216145   2.110   2.819   2.135 -0.1961  0.7344 -0.1402
 5380TIP3    H116146   2.196   2.852   2.162  0.1114 -1.0329  1.1353
 5380TIP3    H216147   2.106   2.840   2.041  1.8835  0.3173 -0.3724
 5381TIP3   OH216148   3.873   5.783   3.709 -0.1589  0.0450  0.0097
 5381TIP3    H116149   3.968   5.777   3.717 -0.3196 -0.2568  2.4195
 5381TIP3    H216150   3.856   5.876   3.691  0.5846  0.0264 -0.8693
 5382TIP3   OH216151   5.663   0.503   1.233 -0.4914  0.6783 -0.2922
 5382TIP3    H116152   5.743   0.532   1.190 -0.4934  0.9467 -0.1169
 5382TIP3    H216153   5.633   0.580   1.282 -0.3474  0.3009  0.3988
 5383TIP3   OH216154   0.229  -0.003   2.998 -0.5112 -0.3687 -0.0152
 5383TIP3    H116155   0.218   0.061   3.068 -0.8696 -1.1820  0.6922
 5383TIP3    H216156   0.145  -0.003   2.952 -0.9172 -1.1244  0.6900
 5384TIP3   OH216157   4.694   5.940   4.829 -0.3051  0.1733  0.3573
 5384TIP3    H116158   4.612   5.891   4.827 -0.4624  0.4419 -0.2284
 5384TIP3    H216159   4.742   5.905   4.904  0.4278 -2.2620 -1.1146
 5385TIP3   OH216160   0.860   5.515   1.036  0.0742  0.2365 -0.3414
 5385TIP3    H116161   0.948   5.478   1.043  0.4608  1.1271 -0.3944
 5385TIP3    H216162   0.809   5.448   0.990  0.6385 -0.4137 -0.0343
 5386TIP3   OH216163   3.117   2.416   1.664  0.5816 -0.3668 -0.1081
 5386TIP3    H116164   3.127   2.359   1.587 -1.1674 -2.1985  0.9283
 5386TIP3    H216165   3.050   2.479   1.638 -0.9733 -1.7875  0.2554
 5387TIP3   OH216166   3.504   5.109   1.971  1.0460 -0.1042  0.0965
 5387TIP3    H116167   3.513   5.019   1.939  0.9493  0.8522 -2.8614
 5387TIP3    H216168   3.590   5.132   2.005  1.5838 -0.7111 -0.8352
 5388TIP3   OH216169   0.136   0.942   3.790  0.0136  0.3823  0.2648
 5388TIP3    H116170   0.146   0.859   3.837  1.1064  0.9548  1.0870
 5388TIP3    H216171   0.048   0.939   3.753  0.1217 -1.2449  0.0832
 5389TIP3   OH216172   1.260   3.601   4.254  0.1739 -0.1694 -0.0647
 5389TIP3    H116173   1.346   3.585   4.292  0.5710  0.2867 -0.7689
 5389TIP3    H216174   1.232   3.684   4.293  0.3011 -0.0246 -0.2861
 5390TIP3   OH216175   5.158   5.942   2.600  0.2121 -0.1410  0.3693
 5390TIP3    H116176   5.212   6.022   2.597  0.0708 -0.0378  0.5360
 5390TIP3    H216177   5.071   5.971   2.574  0.0313 -0.1274  0.9695
 5391TIP3   OH216178   6.211   0.854   1.578  0.1228 -0.2554  0.9648
 5391TIP3    H116179   6.141   0.795   1.603  0.0633 -0.1994  0.9307
 5391TIP3    H216180   6.228   0.835   1.486  1.3764 -1.5253  1.4163
 5392TIP3   OH216181   1.161   0.058   4.270  0.3874  0.4811 -0.0591
 5392TIP3    H116182   1.070   0.029   4.271  0.4041  0.4462  0.5519
 5392TIP3    H216183   1.162   0.138   4.323  1.1109 -0.7343  1.8525
 5393TIP3   OH216184   3.281   1.879   0.094 -0.3420  0.4297  0.4219
 5393TIP3    H116185   3.241   1.841   0.172  0.3818  0.6812  0.9290
 5393TIP3    H216186   3.368   1.839   0.090 -0.6400 -0.1500 -0.6931
 5394TIP3   OH216187   2.021   0.820   2.293 -0.1322  0.6723  0.2955
 5394TIP3    H116188   2.090   0.823   2.359 -0.6477 -1.5150  1.0129
 5394TIP3    H216189   1.968   0.744   2.317  0.4224 -1.0903 -3.3899
 5395TIP3   OH216190   2.966   5.922   2.732 -0.4377 -0.0771 -0.1810
 5395TIP3    H116191   2.912   5.861   2.680 -0.6150  0.1368 -0.2476
 5395TIP3    H216192   3.042   5.939   2.677 -0.2344 -0.4803 -0.0342
 5396TIP3   OH216193   1.933   2.932   3.119  0.2718  0.3159  0.1607
 5396TIP3    H116194   1.891   2.970   3.196 -0.3869  0.7617 -0.4171
 5396TIP3    H216195   1.997   2.871   3.156 -0.9578 -0.4908  1.0645
 5397TIP3   OH216196   6.272   3.753   3.071 -0.2782  0.0615  0.8368
 5397TIP3    H116197   6.222   3.678   3.040 -0.2003 -0.1413  1.1891
 5397TIP3    H216198   6.308   3.724   3.155  1.7141 -0.3844 -0.1111
 5398TIP3   OH216199   0.600   5.237   3.980 -0.3874  0.1682 -0.3704
 5398TIP3    H116200   0.513   5.222   4.019 -0.2272 -2.6057 -0.8675
 5398TIP3    H216201   0.624   5.153   3.943  3.0234  0.5548  0.6381
 5399TIP3   OH216202   1.081   4.633   0.145  0.1425 -0.4783  0.1472
 5399TIP3    H116203   1.081   4.652   0.239  0.1627 -0.9940  0.2513
 5399TIP3    H216204   0.989   4.614   0.124 -0.2522  1.6775 -0.3647
 5400TIP3   OH216205   3.375   3.495   2.757  0.5516 -0.5219  0.2335
 5400TIP3    H116206   3.434   3.492   2.681  1.1021 -0.1232  0.6372
 5400TIP3    H216207   3.408   3.567   2.810 -0.5324 -0.0415  0.2872
 5401TIP3   OH216208   1.610   2.712   3.284  0.4982  0.4308  0.1721
 5401TIP3    H116209   1.611   2.640   3.348 -2.6621 -0.7184 -0.9005
 5401TIP3    H216210   1.678   2.688   3.221 -0.7014 -1.9341 -0.3626
 5402TIP3   OH216211   2.196   1.502   3.466  0.8079 -0.0800  0.6806
 5402TIP3    H116212   2.212   1.578   3.522  2.3781 -0.4701  0.8062
 5402TIP3    H216213   2.103   1.506   3.446  0.5961  1.1181  1.7909
 5403TIP3   OH216214   4.739   3.201   2.409 -0.5498  0.1761  0.3073
 5403TIP3    H116215   4.658   3.249   2.423  0.2071  1.5181  0.2016
 5403TIP3    H216216   4.743   3.139   2.482 -2.5520 -1.1983 -0.6731
 5404TIP3   OH216217   3.133   5.957   3.461  0.1564 -0.3587  0.4957
 5404TIP3    H116218   3.143   6.036   3.514 -0.8254 -0.7994  1.3576
 5404TIP3    H216219   3.189   5.892   3.503  0.6436 -0.2514  0.0265
 5405TIP3   OH216220   1.333   1.792   3.804  0.0112  0.0781  0.4006
 5405TIP3    H116221   1.285   1.773   3.723 -0.4210  1.4245  0.3126
 5405TIP3    H216222   1.374   1.709   3.828  2.0968  0.1704 -2.4518
 5406TIP3   OH216223   3.797   5.436   2.760 -0.2824  0.2000 -0.4511
 5406TIP3    H116224   3.740   5.491   2.813  0.6735 -0.7602  1.7097
 5406TIP3    H216225   3.877   5.426   2.812 -0.1194 -2.5587 -1.0508
 5407TIP3   OH216226   1.291   2.248   4.626  0.2227  0.1359  0.3308
 5407TIP3    H116227   1.225   2.272   4.690  0.9092  4.2568 -0.2464
 5407TIP3    H216228   1.370   2.230   4.678 -0.3989 -1.4346  0.8032
 5408TIP3   OH216229   1.482   5.300   2.003  0.2350  0.1188  0.6742
 5408TIP3    H116230   1.482   5.240   2.078 -1.1747  0.4522  0.9777
 5408TIP3    H216231   1.522   5.380   2.035  1.0221 -0.2430  0.6167
 5409TIP3   OH216232   6.262   0.553   1.637  0.2793 -0.5687 -0.2219
 5409TIP3    H116233   6.273   0.460   1.658 -2.2421 -0.9349 -0.2114
 5409TIP3    H216234   6.183   0.579   1.686  0.6751  1.4708 -0.5824
 5410TIP3   OH216235   1.660   2.167   4.019  0.0585 -0.2234 -0.0213
 5410TIP3    H116236   1.588   2.107   4.035  0.1923 -0.6672 -0.9928
 5410TIP3    H216237   1.638   2.246   4.068  0.1022 -1.2078  1.6732
 5411TIP3   OH216238   2.508   3.014   4.734 -0.0470  0.3105 -0.1152
 5411TIP3    H116239   2.473   3.071   4.665  0.3594  1.6559  0.7584
 5411TIP3    H216240   2.520   3.072   4.809 -0.1543 -1.0566  0.9959
 5412TIP3   OH216241   3.848   5.736   2.686  0.4757 -0.0966 -0.3568
 5412TIP3    H116242   3.840   5.825   2.653  0.2874  0.2140  0.4841
 5412TIP3    H216243   3.760   5.714   2.716  0.6664 -0.2962  0.0740
 5413TIP3   OH216244   1.300   1.208   1.342 -0.2281  0.5361 -0.3462
 5413TIP3    H116245   1.316   1.248   1.428 -3.1170  0.9624  0.0945
 5413TIP3    H216246   1.211   1.236   1.319 -0.2921 -1.2257 -2.5529
 5414TIP3   OH216247   2.026   4.002   4.113 -0.5791 -0.5268 -0.2992
 5414TIP3    H116248   1.971   4.071   4.150 -0.4240  0.5766 -2.0197
 5414TIP3    H216249   2.114   4.039   4.112 -0.5537 -0.5593 -1.5823
 5415TIP3   OH216250   6.213   3.185   2.927 -0.5137  0.2759 -0.1233
 5415TIP3    H116251   6.294   3.211   2.883 -0.4802  0.2012 -0.1078
 5415TIP3    H216252   6.154   3.159   2.857  0.0373 -1.2546 -0.0629
 5416TIP3   OH216253   3.945   2.065   3.046  0.0419 -0.0914  0.0033
 5416TIP3    H116254   4.032   2.030   3.063 -0.2368 -1.7763 -1.7291
 5416TIP3    H216255   3.960   2.154   3.015  1.1978 -0.5591 -0.8295
 5417TIP3   OH216256   2.139   1.576   0.875 -0.0052 -0.3330  0.6131
 5417TIP3    H116257   2.160   1.526   0.954  2.5501 -1.2767 -0.5739
 5417TIP3    H216258   2.180   1.661   0.889 -1.1331  0.1725  1.0213
 5418TIP3   OH216259   1.189   0.914   5.206  0.4584 -0.5386 -0.3041
 5418TIP3    H116260   1.201   0.983   5.140  1.6278  0.7014  1.1351
 5418TIP3    H216261   1.229   0.836   5.166  1.4048  0.2547 -0.9756
 5419TIP3   OH216262   0.304   0.872   1.233 -0.0610  0.2804  0.0068
 5419TIP3    H116263   0.261   0.796   1.195 -2.2060  1.9130 -1.0685
 5419TIP3    H216264   0.334   0.923   1.158 -0.7411  1.5793  0.5609
 5420TIP3   OH216265   4.276   4.939   1.860 -0.4467  0.2416 -0.5323
 5420TIP3    H116266   4.344   4.911   1.798  1.4706 -0.7413  1.8567
 5420TIP3    H216267   4.244   5.022   1.824  1.1406  0.1218 -2.4076
 5421TIP3   OH216268   0.609   1.474   1.009 -0.1238  0.0587 -0.0362
 5421TIP3    H116269   0.535   1.423   1.041  0.6542 -1.1840 -0.1141
 5421TIP3    H216270   0.571   1.537   0.948 -1.0872 -0.7117 -0.2479
 5422TIP3   OH216271   2.404   5.183   1.275  0.5126  0.2341  0.3582
 5422TIP3    H116272   2.341   5.250   1.249  1.4297  0.2930 -1.9548
 5422TIP3    H216273   2.393   5.175   1.370 -0.5587  2.6760  0.5166
 5423TIP3   OH216274   3.959   2.678   2.354 -0.0176  0.2330 -0.2146
 5423TIP3    H116275   3.889   2.704   2.295  0.6411 -1.0452 -1.6289
 5423TIP3    H216276   3.937   2.589   2.380  0.4717  0.2521  0.2905
 5424TIP3   OH216277   1.550   5.950   4.317 -0.3245  0.4753 -0.0852
 5424TIP3    H116278   1.475   5.962   4.260 -1.2193 -0.4331  0.8585
 5424TIP3    H216279   1.522   5.986   4.401  1.0296  1.9437 -0.2204
 5425TIP3   OH216280   0.067   1.795   3.048 -0.0993 -0.1854  0.4913
 5425TIP3    H116281   0.083   1.890   3.051 -2.4786  0.3550 -0.9945
 5425TIP3    H216282   0.016   1.782   2.968 -0.2072 -2.6870  0.8858
 5426TIP3   OH216283   1.051   3.200   0.562 -0.5227 -0.0826 -0.5248
 5426TIP3    H116284   1.012   3.160   0.640 -0.2577 -0.9425 -0.8245
 5426TIP3    H216285   1.033   3.294   0.572  1.3629  0.1372  1.6581
 5427TIP3   OH216286   6.258   5.477   3.714 -0.2265 -0.2438 -0.4310
 5427TIP3    H116287   6.305   5.547   3.759  1.1582  0.1270 -2.3448
 5427TIP3    H216288   6.175   5.517   3.688  0.7768  0.9121 -1.9850
 5428TIP3   OH216289   1.144   5.700   2.120 -1.2874  0.0863 -0.6912
 5428TIP3    H116290   1.192   5.636   2.067  0.0593  0.7038 -0.2453
 5428TIP3    H216291   1.098   5.647   2.185 -0.5948 -0.4695 -0.6378
 5429TIP3   OH216292   3.302   4.713   3.963  0.1620  0.3057  0.4492
 5429TIP3    H116293   3.356   4.651   4.013  2.4902  0.2091 -1.9389
 5429TIP3    H216294   3.261   4.659   3.895  0.2788  0.9984 -0.1814
 5430TIP3   OH216295   2.378   3.943   2.577 -0.1711  0.5657  0.0502
 5430TIP3    H116296   2.361   4.020   2.632 -2.9390  0.1676 -0.0674
 5430TIP3    H216297   2.396   3.979   2.490  0.4654  1.1021  0.3933
 5431TIP3   OH216298   1.371   4.844   4.534 -0.3423  0.1960 -0.2649
 5431TIP3    H116299   1.376   4.932   4.495 -0.4271 -0.4495 -1.8315
 5431TIP3    H216300   1.278   4.823   4.531 -0.4572  0.4592  1.1077
 5432TIP3   OH216301   4.265   5.307   4.488  0.3885 -0.0087 -0.4471
 5432TIP3    H116302   4.289   5.298   4.580 -1.8860  2.2027  0.4750
 5432TIP3    H216303   4.196   5.242   4.474  0.0781  0.2917 -0.3179
 5433TIP3   OH216304   1.464   1.913   0.470  0.4440 -0.3671 -0.3829
 5433TIP3    H116305   1.418   1.994   0.447 -1.2579 -1.5840 -1.5929
 5433TIP3    H216306   1.420   1.882   0.549 -0.5856 -1.2718 -1.2586
 5434TIP3   OH216307   4.471   3.785   1.908 -0.0036 -0.0819  1.1229
 5434TIP3    H116308   4.500   3.697   1.884  1.9078  1.0928 -1.3592
 5434TIP3    H216309   4.549   3.826   1.946 -0.4244  0.9599  0.8911
 5435TIP3   OH216310   3.437   4.656   1.410  0.0065 -0.1948 -0.2909
 5435TIP3    H116311   3.438   4.591   1.339 -0.7428  1.1232 -1.5546
 5435TIP3    H216312   3.347   4.686   1.415  0.3748  0.9120  0.1065
 5436TIP3   OH216313   3.154   5.266   5.016 -0.5790  0.5938 -0.4981
 5436TIP3    H116314   3.102   5.211   4.958 -1.7595  1.0139  0.1099
 5436TIP3    H216315   3.099   5.276   5.094  1.4657 -0.9797  1.2511
 5437TIP3   OH216316   6.276   2.613   2.772 -0.2150  0.2233 -0.0865
 5437TIP3    H116317   6.232   2.582   2.693 -1.3689 -1.1246  1.0327
 5437TIP3    H216318   6.245   2.555   2.842  1.2352  0.9841  1.2644
 5438TIP3   OH216319   6.104   1.580   0.653 -0.6396 -0.0559  0.5396
 5438TIP3    H116320   6.142   1.499   0.685 -0.6216 -0.2080  0.1421
 5438TIP3    H216321   6.018   1.555   0.618 -1.4151  0.3913  2.0414
 5439TIP3   OH216322   0.218   1.262   1.336  0.1403 -0.2228  0.1642
 5439TIP3    H116323   0.280   1.334   1.343  3.1009 -2.5239 -0.3821
 5439TIP3    H216324   0.220   1.238   1.243 -0.2033 -1.4632  0.4582
 5440TIP3   OH216325   4.665   5.015   4.900  0.0107  0.3751  0.1652
 5440TIP3    H116326   4.756   4.988   4.889 -0.1382 -0.1893  0.2593
 5440TIP3    H216327   4.627   5.009   4.813  0.0299  0.4721  0.1503
 5441TIP3   OH216328   4.444   3.411   1.273 -0.3078  0.2807 -0.1176
 5441TIP3    H116329   4.491   3.365   1.203 -0.4570  0.0406 -0.0624
 5441TIP3    H216330   4.432   3.345   1.341 -0.1327  0.5253  0.1522
 5442TIP3   OH216331   1.461   4.533   0.745  0.0785 -0.3782 -0.4231
 5442TIP3    H116332   1.540   4.552   0.795  0.5648 -1.6549 -0.6616
 5442TIP3    H216333   1.453   4.438   0.747 -0.6499 -0.3706 -1.6127
 5443TIP3   OH216334   2.511   0.236   4.680 -0.3528 -0.1074  0.1887
 5443TIP3    H116335   2.540   0.145   4.676 -1.7486 -0.5529 -0.1626
 5443TIP3    H216336   2.564   0.275   4.749  1.7737 -0.6152 -1.0479
 5444TIP3   OH216337   4.059   4.322   4.317  0.7413  0.1818 -0.5376
 5444TIP3    H116338   4.097   4.331   4.405 -1.2482 -0.2582  0.4242
 5444TIP3    H216339   4.089   4.236   4.287  1.1859  0.1975 -0.1643
 5445TIP3   OH216340   2.581   3.687   3.331  0.3151 -0.2828 -0.0049
 5445TIP3    H116341   2.513   3.625   3.355 -1.1213  0.8059 -1.0709
 5445TIP3    H216342   2.545   3.735   3.257  1.5190  1.5263  0.5028
 5446TIP3   OH216343   3.387   0.058   2.699 -0.0997  0.4320  0.3077
 5446TIP3    H116344   3.442   0.129   2.733 -1.5512  1.2295  1.1023
 5446TIP3    H216345   3.368   0.083   2.608  1.5512 -0.3126 -0.2723
 5447TIP3   OH216346   3.799   0.281   2.809 -0.2675  0.0880  0.2736
 5447TIP3    H116347   3.884   0.241   2.825  0.3330  1.4820  0.6104
 5447TIP3    H216348   3.779   0.328   2.890 -0.7080  0.9297 -0.3189
 5448TIP3   OH216349   1.129   3.938   1.526 -0.6448 -0.3198 -0.1512
 5448TIP3    H116350   1.124   3.882   1.449 -0.0603 -1.7162  0.7721
 5448TIP3    H216351   1.222   3.937   1.550 -0.4495  1.8394 -0.6402
 5449TIP3   OH216352   5.921   3.784   2.540  0.3111 -0.3458 -0.7200
 5449TIP3    H116353   5.945   3.698   2.575  2.5889 -0.8834 -3.2659
 5449TIP3    H216354   6.004   3.824   2.515 -0.7249  2.4193 -0.1949
 5450TIP3   OH216355   4.386   1.455   3.775 -0.1640  0.0301  0.1198
 5450TIP3    H116356   4.467   1.465   3.825 -1.8412  1.7579  2.7342
 5450TIP3    H216357   4.391   1.522   3.707  0.0383  1.0999  1.1569
 5451TIP3   OH216358   0.433   3.054   0.650  0.0036  0.6928 -0.7614
 5451TIP3    H116359   0.473   2.975   0.614  0.3683  0.5485 -0.0453
 5451TIP3    H216360   0.417   3.034   0.742 -0.6330  1.1731 -0.7558
 5452TIP3   OH216361   5.898   3.738   1.795  0.0163 -0.0021  0.3282
 5452TIP3    H116362   5.915   3.813   1.737 -1.8484  0.4781  0.3669
 5452TIP3    H216363   5.803   3.729   1.797  0.1756 -2.7818 -0.1655
 5453TIP3   OH216364   2.225   0.257   1.978 -0.6774  0.5693 -0.1030
 5453TIP3    H116365   2.220   0.334   1.922 -0.8355 -0.8337 -2.1329
 5453TIP3    H216366   2.148   0.265   2.035 -0.6966  1.8851 -0.2725
 5454TIP3   OH216367   2.438   4.874   1.302  0.1638  0.4633  0.2288
 5454TIP3    H116368   2.402   4.960   1.282  0.1651  0.5226  0.4732
 5454TIP3    H216369   2.520   4.893   1.347  0.0221  0.3362  0.5416
 5455TIP3   OH216370   2.073   1.937   4.120 -0.4181  0.0373  0.4189
 5455TIP3    H116371   2.022   2.015   4.097  0.8146  0.7091 -0.0845
 5455TIP3    H216372   2.099   1.900   4.036  0.4540  0.0581  0.6755
 5456TIP3   OH216373   3.602   3.443   0.085 -0.0297 -0.0276 -0.0204
 5456TIP3    H116374   3.680   3.497   0.074  0.6636 -0.9497  0.2452
 5456TIP3    H216375   3.561   3.476   0.165  0.4278  0.0636  0.1770
 5457TIP3   OH216376   5.381   4.317   2.320 -0.3813 -0.7238  0.4797
 5457TIP3    H116377   5.426   4.353   2.396  0.6389 -2.2411  0.6467
 5457TIP3    H216378   5.291   4.350   2.327  0.0610  0.3309  1.5268
 5458TIP3   OH216379   5.117   5.907   4.874 -0.5197  0.3456  0.4069
 5458TIP3    H116380   5.119   5.811   4.872  2.4022  0.2855  1.7479
 5458TIP3    H216381   5.080   5.928   4.960 -0.3029  0.4232  0.4792
 5459TIP3   OH216382   5.786   0.613   0.903 -0.1469  0.3024 -0.4082
 5459TIP3    H116383   5.780   0.707   0.920  0.6921  0.6316 -1.7783
 5459TIP3    H216384   5.843   0.580   0.972  1.7879  1.3020 -1.4201
 5460TIP3   OH216385   3.875   2.000   1.436 -0.3214  0.4817  0.0064
 5460TIP3    H116386   3.827   2.025   1.514  2.4046  1.7845  1.4116
 5460TIP3    H216387   3.899   1.909   1.451 -0.7836  0.3806  0.1420
 5461TIP3   OH216388   2.445   0.079   1.991  0.4227  0.6648  0.2951
 5461TIP3    H116389   2.378   0.147   1.997  0.9260  1.0770  1.5937
 5461TIP3    H216390   2.396  -0.003   1.985 -0.1852  1.0744 -0.4808
 5462TIP3   OH216391   3.892   3.913   1.935 -0.7476 -0.7240  0.7904
 5462TIP3    H116392   3.894   4.008   1.943  1.0698 -0.6364 -0.1735
 5462TIP3    H216393   3.973   3.883   1.976  0.4026 -1.5297 -1.8451
 5463TIP3   OH216394   2.106   4.056   2.560 -0.2196  0.0464  0.5069
 5463TIP3    H116395   2.121   4.143   2.525  0.6694 -0.1940  0.2516
 5463TIP3    H216396   2.107   3.998   2.484 -0.8014 -0.1907  0.6724
 5464TIP3   OH216397   0.626   5.032   3.793 -0.4678  0.2918  0.1760
 5464TIP3    H116398   0.664   4.947   3.770 -0.5044  0.7961 -1.9620
 5464TIP3    H216399   0.531   5.018   3.786 -0.4863  0.4129  0.1897
 5465TIP3   OH216400   5.308   1.874   1.487 -0.4476 -0.4744 -0.2802
 5465TIP3    H116401   5.225   1.829   1.501 -1.0600  0.2862 -1.3241
 5465TIP3    H216402   5.297   1.919   1.403  0.3825  1.0461  0.3773
 5466TIP3   OH216403   1.901   2.477   2.891  0.1838 -0.3725 -0.2710
 5466TIP3    H116404   1.957   2.433   2.955  0.3724 -1.0341 -0.8780
 5466TIP3    H216405   1.954   2.480   2.811 -0.3960 -0.3972 -0.6618
 5467TIP3   OH216406   4.890   1.245   3.734  0.6214  0.4292  0.4695
 5467TIP3    H116407   4.825   1.234   3.664 -1.7820 -0.3278  2.6789
 5467TIP3    H216408   4.887   1.338   3.756 -1.4092  0.0628  1.9959
 5468TIP3   OH216409   5.278   2.243   4.900  0.3981  0.1022  0.1081
 5468TIP3    H116410   5.239   2.305   4.961 -1.2450  1.1421 -1.8854
 5468TIP3    H216411   5.304   2.169   4.954  0.3796  1.5751  2.2505
 5469TIP3   OH216412   1.646   4.152   3.121 -0.2342 -0.9689 -0.0743
 5469TIP3    H116413   1.605   4.238   3.132 -0.0102 -0.7616 -0.8115
 5469TIP3    H216414   1.739   4.167   3.136  0.0158 -0.7705 -1.6551
 5470TIP3   OH216415   4.032   3.365   4.771  0.5574 -1.0630  0.3955
 5470TIP3    H116416   4.094   3.372   4.843  0.7070  0.7589  0.1289
 5470TIP3    H216417   3.951   3.402   4.806  0.6126 -0.2324 -0.3325
 5471TIP3   OH216418   5.212   5.376   1.175 -0.2297 -0.7230 -0.0465
 5471TIP3    H116419   5.173   5.456   1.209  1.6484  0.2228  0.0247
 5471TIP3    H216420   5.306   5.395   1.170  0.0054 -2.0263 -2.4672
 5472TIP3   OH216421   4.699   0.953   4.477 -0.2994 -0.0784 -0.1796
 5472TIP3    H116422   4.790   0.981   4.486 -1.1319  2.4157  1.6222
 5472TIP3    H216423   4.670   0.993   4.395 -0.0754  0.0197 -0.2142
 5473TIP3   OH216424   2.270   4.972   0.502  0.3963  0.3474  0.0395
 5473TIP3    H116425   2.291   5.021   0.581 -0.5924  1.2818 -0.2541
 5473TIP3    H216426   2.215   4.899   0.533 -0.0778  0.7725  0.2111
 5474TIP3   OH216427   5.992   3.534   1.951 -0.4767  0.0323 -0.1328
 5474TIP3    H116428   5.901   3.540   1.978 -1.0063 -1.6847 -1.3519
 5474TIP3    H216429   5.992   3.563   1.859 -0.1678 -1.7763 -0.7395
 5475TIP3   OH216430   2.809   4.662   3.302  0.5337  0.1833  0.3096
 5475TIP3    H116431   2.866   4.678   3.227  1.3887 -0.0828  0.8851
 5475TIP3    H216432   2.848   4.712   3.373 -0.3651  0.5668  0.5465
 5476TIP3   OH216433   1.328   1.154   3.913  0.5771 -0.0016 -0.1563
 5476TIP3    H116434   1.341   1.239   3.954  1.3654 -0.1789 -0.0189
 5476TIP3    H216435   1.400   1.146   3.851  0.7255 -0.7189  0.0935
 5477TIP3   OH216436   1.223   0.314   1.605 -0.3607  0.1582 -0.0281
 5477TIP3    H116437   1.237   0.402   1.639 -3.0997  0.8784 -0.4748
 5477TIP3    H216438   1.161   0.326   1.533 -0.9449 -2.1485  0.0137
 5478TIP3   OH216439   4.496   0.502   2.282 -0.3771 -0.1155  0.3404
 5478TIP3    H116440   4.428   0.538   2.225 -0.3612 -1.1544 -0.3525
 5478TIP3    H216441   4.578   0.516   2.234 -0.3451 -0.8404  0.1794
 5479TIP3   OH216442   6.280   4.276   1.722  0.1668 -0.4785  0.5457
 5479TIP3    H116443   6.355   4.216   1.719 -0.0228 -0.7068  0.2904
 5479TIP3    H216444   6.312   4.356   1.681  0.0218 -0.8639 -0.3553
 5480TIP3   OH216445   5.176   5.401   0.134 -0.5268 -0.1673 -0.3427
 5480TIP3    H116446   5.187   5.492   0.107 -0.3605 -0.3606 -0.9493
 5480TIP3    H216447   5.116   5.405   0.208 -0.0969  0.4824 -0.0146
 5481TIP3   OH216448   3.234   1.182   4.940  0.2966 -0.1987  0.0758
 5481TIP3    H116449   3.274   1.228   5.013  0.6650 -0.2581 -0.0872
 5481TIP3    H216450   3.281   1.099   4.935  0.3071 -0.1735 -0.2596
 5482TIP3   OH216451   0.079   4.777   1.941  0.9398  0.0624 -0.6355
 5482TIP3    H116452   0.002   4.802   1.991  1.1318 -0.5871  0.0053
 5482TIP3    H216453   0.068   4.683   1.925 -0.1552  0.5962 -3.6679
 5483TIP3   OH216454   2.092   1.022   0.501 -0.5896  0.1146 -0.1338
 5483TIP3    H116455   2.075   1.099   0.555 -1.9197 -0.9698  1.0646
 5483TIP3    H216456   2.009   1.007   0.456  0.1748  0.3523 -1.6929
 5484TIP3   OH216457   6.009   5.535   1.569 -0.3157 -0.6287 -0.2650
 5484TIP3    H116458   6.086   5.590   1.581 -2.1986  2.2160 -0.0902
 5484TIP3    H216459   6.026   5.486   1.488  1.5914  0.0112 -0.2797
 5485TIP3   OH216460   4.788   2.123   1.770  0.2340 -0.4761 -0.7004
 5485TIP3    H116461   4.765   2.038   1.733 -0.2491  0.2204 -2.0961
 5485TIP3    H216462   4.716   2.145   1.829  0.5863 -1.2209  0.0219
 5486TIP3   OH216463   1.447   2.214   3.037 -0.2424  0.5521  0.3610
 5486TIP3    H116464   1.474   2.148   2.973 -0.9646 -1.5034  2.0533
 5486TIP3    H216465   1.520   2.277   3.038  0.9519 -0.7347 -0.6182
 5487TIP3   OH216466   3.139   0.491   1.991  0.1222  0.0537  0.1474
 5487TIP3    H116467   3.191   0.516   1.914 -1.0787 -0.6401 -0.9228
 5487TIP3    H216468   3.190   0.422   2.033  1.2106  1.0285  0.5052
 5488TIP3   OH216469   2.618   1.362   2.282  0.7530 -0.2528  0.4769
 5488TIP3    H116470   2.570   1.443   2.298 -0.0198 -0.6009 -0.0115
 5488TIP3    H216471   2.699   1.371   2.332  0.0189  0.1960  1.6200
 5489TIP3   OH216472   0.663   3.559   1.497 -0.5611 -0.1491  0.1549
 5489TIP3    H116473   0.568   3.572   1.491 -0.5306 -0.2762 -0.7026
 5489TIP3    H216474   0.674   3.464   1.509 -0.5223 -0.2268 -0.4557
 5490TIP3   OH216475   4.766   3.819   1.793 -0.8016 -0.4262  0.4862
 5490TIP3    H116476   4.815   3.738   1.810  0.3986  0.3488  0.7666
 5490TIP3    H216477   4.691   3.790   1.740 -0.3947 -1.7216  0.5775
 5491TIP3   OH216478   0.394   3.348   0.986  0.2771 -0.3825  0.0935
 5491TIP3    H116479   0.310   3.364   1.028 -0.3753 -0.6117 -1.0918
 5491TIP3    H216480   0.444   3.429   1.000 -0.3581 -0.0164  0.2656
 5492TIP3   OH216481   1.652   1.501   1.248  0.2066 -0.5178  0.4333
 5492TIP3    H116482   1.733   1.481   1.200 -0.9758 -0.9257 -1.5068
 5492TIP3    H216483   1.652   1.596   1.255  1.2835 -0.5638  1.2653
 5493TIP3   OH216484   3.883   5.392   0.316 -0.5101 -0.6335 -0.0435
 5493TIP3    H116485   3.946   5.338   0.269  0.0574  0.2665 -0.3579
 5493TIP3    H216486   3.876   5.353   0.403  0.7203 -0.5780  0.0927
 5494TIP3   OH216487   4.614   4.407   4.806  0.0964  0.4791 -0.0062
 5494TIP3    H116488   4.640   4.416   4.898 -0.1862  1.1254  0.0153
 5494TIP3    H216489   4.692   4.371   4.763  0.6576  1.3283  0.2675
 5495TIP3   OH216490   0.104   1.620   2.655 -0.4545  0.2922  0.0851
 5495TIP3    H116491   0.128   1.604   2.746  0.8280  0.2910 -0.2449
 5495TIP3    H216492   0.187   1.619   2.607 -0.8825  2.2175 -0.7956
 5496TIP3   OH216493   1.410   3.402   1.291  0.1527  0.2690 -0.3146
 5496TIP3    H116494   1.330   3.455   1.286  0.2402  0.5409  0.8387
 5496TIP3    H216495   1.440   3.397   1.201  0.1026  2.1483 -0.4910
 5497TIP3   OH216496   2.970   2.932   4.386 -0.9353 -0.1308 -0.4506
 5497TIP3    H116497   2.949   2.957   4.476  2.1678  0.6174  0.2061
 5497TIP3    H216498   2.921   2.993   4.331  1.0258  2.9857  0.9615
 5498TIP3   OH216499   1.574   2.441   1.167  0.2348  0.1990  0.1193
 5498TIP3    H116500   1.615   2.412   1.249  1.2218 -1.2655 -0.8494
 5498TIP3    H216501   1.604   2.378   1.102  0.9146  2.3380 -1.7464
 5499TIP3   OH216502   3.384   2.493   4.324 -0.0242 -0.0642 -0.0368
 5499TIP3    H116503   3.371   2.516   4.416 -0.9557  0.5409 -0.3061
 5499TIP3    H216504   3.415   2.574   4.283 -0.1109 -0.1895 -0.3512
 5500TIP3   OH216505   6.201   5.737   2.137  0.1513 -0.6468  0.6355
 5500TIP3    H116506   6.161   5.823   2.128  3.3956  0.8833 -0.6651
 5500TIP3    H216507   6.225   5.732   2.230 -1.2101 -0.7923  1.0101
 5501TIP3   OH216508   4.893   2.716   0.515 -0.6265 -0.3982  0.3260
 5501TIP3    H116509   4.935   2.734   0.431 -2.5718  0.3809 -0.5349
 5501TIP3    H216510   4.844   2.795   0.536 -2.0338 -1.3900  1.0379
 5502TIP3   OH216511   2.526   1.184   2.884 -0.3720  0.1811 -0.5787
 5502TIP3    H116512   2.471   1.186   2.963 -0.6491 -0.1900 -0.7632
 5502TIP3    H216513   2.536   1.276   2.860  0.5587  0.3752  0.4750
 5503TIP3   OH216514   2.022   4.019   1.249 -0.4733  0.4338  0.1880
 5503TIP3    H116515   2.043   4.080   1.178 -0.2611  1.0593  0.7753
 5503TIP3    H216516   2.076   4.048   1.322  0.4089 -1.1026  0.1789
 5504TIP3   OH216517   1.196   5.083   3.547 -0.0659 -0.5588  0.1719
 5504TIP3    H116518   1.160   5.124   3.625  1.0244 -0.0918  0.4488
 5504TIP3    H216519   1.247   5.152   3.505 -0.5513 -0.8375 -0.9056
 5505TIP3   OH216520   4.241   0.165   4.948 -0.4121  0.3831  0.0668
 5505TIP3    H116521   4.272   0.231   5.011 -0.7275  2.1746 -1.5454
 5505TIP3    H216522   4.317   0.148   4.892 -0.2872 -0.8024  0.5598
 5506TIP3   OH216523   4.492   3.588   4.590 -0.4819  0.4198 -0.9008
 5506TIP3    H116524   4.418   3.528   4.603 -1.0151  1.3660  0.7436
 5506TIP3    H216525   4.525   3.604   4.678  1.1408  0.7269 -1.5333
 5507TIP3   OH216526   1.316   4.697   3.328 -0.6226  0.2804  0.3505
 5507TIP3    H116527   1.323   4.616   3.379  1.7735  0.3801  0.2898
 5507TIP3    H216528   1.265   4.756   3.384 -1.1471 -0.7872  1.0336
 5508TIP3   OH216529   0.844   3.153   3.970  0.2781  0.7535  0.0474
 5508TIP3    H116530   0.824   3.074   3.920 -1.3396  0.8584  0.4712
 5508TIP3    H216531   0.842   3.224   3.906  0.8034  0.5773 -0.1696
 5509TIP3   OH216532   0.518   1.718   5.207 -0.2561 -0.1475 -0.4169
 5509TIP3    H116533   0.520   1.783   5.137  0.3195  0.3902  0.0839
 5509TIP3    H216534   0.469   1.644   5.170 -1.0604  0.6259 -0.9372
 5510TIP3   OH216535   5.662   4.638   4.805 -0.1729  0.6691  0.3480
 5510TIP3    H116536   5.610   4.716   4.782 -0.8012 -0.1112 -1.0158
 5510TIP3    H216537   5.660   4.584   4.726  1.8121  0.0957  0.6430
 5511TIP3   OH216538   5.327   2.073   4.157  0.1079 -0.1744 -0.2757
 5511TIP3    H116539   5.391   2.121   4.105 -1.0579 -0.3561 -1.9774
 5511TIP3    H216540   5.356   1.982   4.152  0.7864 -0.0194  0.6253
 5512TIP3   OH216541   5.629   2.866   1.881  0.5279  0.4865  0.5047
 5512TIP3    H116542   5.638   2.938   1.944 -1.3520  2.6662 -1.5220
 5512TIP3    H216543   5.547   2.823   1.905  0.9627 -0.1479  0.8850
 5513TIP3   OH216544   4.396   4.202   1.813  0.1064 -0.0757 -0.5490
 5513TIP3    H116545   4.460   4.250   1.866  0.1878 -0.5071 -0.2494
 5513TIP3    H216546   4.446   4.129   1.776 -0.0641 -0.0487 -0.8373
 5514TIP3   OH216547   5.235   1.705   3.623 -0.7945 -0.1701 -0.3468
 5514TIP3    H116548   5.184   1.723   3.544 -0.9214  1.2244  0.0294
 5514TIP3    H216549   5.179   1.736   3.695 -0.0188  0.0647  0.1673
 5515TIP3   OH216550   3.374   3.694   0.349  0.5001 -0.1060  0.1588
 5515TIP3    H116551   3.346   3.642   0.274 -0.3593 -0.6909  0.8652
 5515TIP3    H216552   3.300   3.752   0.366 -0.4008 -1.6981  2.0821
 5516TIP3   OH216553   0.511   0.033   0.129  0.4296 -0.2448 -0.1377
 5516TIP3    H116554   0.502  -0.059   0.155 -1.8698  0.1577  0.6784
 5516TIP3    H216555   0.569   0.030   0.053  1.2920 -2.2419  0.5312
 5517TIP3   OH216556   1.895   4.469   4.177  0.2990 -0.7401 -0.0910
 5517TIP3    H116557   1.895   4.561   4.202  0.9697 -0.8982  0.5519
 5517TIP3    H216558   1.919   4.468   4.085 -0.7700 -0.2152 -0.3861
 5518TIP3   OH216559   6.176   4.851   4.832 -0.5425  0.3011  0.4812
 5518TIP3    H116560   6.092   4.804   4.828 -0.8034  0.6745  1.2337
 5518TIP3    H216561   6.240   4.788   4.800 -0.9242 -0.4867  1.2007
 5519TIP3   OH216562   1.705   0.645   0.601  0.3893  0.8056  0.6071
 5519TIP3    H116563   1.614   0.675   0.604  0.2286  0.6286 -1.2248
 5519TIP3    H216564   1.714   0.604   0.514  2.0934  0.4204  0.9256
 5520TIP3   OH216565   0.959   1.728   2.073 -0.2716  0.1191  0.2779
 5520TIP3    H116566   0.983   1.792   2.006  2.6841 -1.2186 -0.0933
 5520TIP3    H216567   0.939   1.649   2.024 -0.7902 -0.1310  0.8774
 5521TIP3   OH216568   1.715   0.255   4.251 -0.0220 -0.7096  0.3130
 5521TIP3    H116569   1.628   0.237   4.217 -0.9555  0.1985  2.0284
 5521TIP3    H216570   1.765   0.286   4.176 -0.6138 -2.9169 -1.0626
 5522TIP3   OH216571   4.174   2.553   4.351  0.0110  0.5063  0.2002
 5522TIP3    H116572   4.249   2.562   4.410  0.3203  1.6600 -0.3298
 5522TIP3    H216573   4.159   2.642   4.318  0.6615 -0.2802 -2.4422
 5523TIP3   OH216574   2.937   0.610   0.354  0.3498 -0.2267 -0.5205
 5523TIP3    H116575   2.989   0.645   0.426 -0.5423 -1.6574  0.8764
 5523TIP3    H216576   2.895   0.687   0.315  1.2416  0.6247  0.1544
 5524TIP3   OH216577   2.822   3.237   2.019  0.2953  0.0132 -0.2167
 5524TIP3    H116578   2.915   3.221   2.036  0.4273  0.7858 -0.1702
 5524TIP3    H216579   2.808   3.328   2.047 -0.4824 -0.1137 -0.1829
 5525TIP3   OH216580   0.975   5.119   2.629 -0.2954 -0.2587  0.1481
 5525TIP3    H116581   0.943   5.030   2.641  1.0479 -0.6286  1.2617
 5525TIP3    H216582   0.961   5.162   2.713  0.5987  0.0592  0.1440
 5526TIP3   OH216583   3.396   5.054   0.717 -0.2836 -0.0171 -0.1590
 5526TIP3    H116584   3.331   4.998   0.675 -0.2154 -0.2393  0.0320
 5526TIP3    H216585   3.472   4.997   0.731 -0.8777 -0.4056  1.7657
 5527TIP3   OH216586   4.748   0.195   3.408  0.7291  0.3390  0.3287
 5527TIP3    H116587   4.739   0.144   3.328 -0.3571 -1.2696  1.4097
 5527TIP3    H216588   4.836   0.234   3.402  0.7845  0.0117 -1.4732
 5528TIP3   OH216589   0.650   5.421   4.726  0.4687 -0.4549 -0.1467
 5528TIP3    H116590   0.566   5.429   4.680  0.1438  0.6148  0.5936
 5528TIP3    H216591   0.713   5.398   4.658 -0.1907  0.0298 -0.9434
 5529TIP3   OH216592   3.999   4.223   0.233  0.1151 -0.3474 -0.5089
 5529TIP3    H116593   4.039   4.207   0.319  1.0320  0.7245 -0.6991
 5529TIP3    H216594   4.069   4.204   0.171 -0.8645 -2.1420 -1.1144
 5530TIP3   OH216595   1.901   0.775   4.916 -0.5972 -0.5117 -0.2606
 5530TIP3    H116596   1.882   0.692   4.872 -1.4982 -1.2570  1.4312
 5530TIP3    H216597   1.939   0.749   5.001 -0.4694  0.8252  0.1145
 5531TIP3   OH216598   5.487   3.578   2.150  0.0366 -0.5063  0.0770
 5531TIP3    H116599   5.451   3.654   2.194 -1.2343 -0.3400 -1.1639
 5531TIP3    H216600   5.424   3.508   2.167  0.0040 -0.6742 -0.6954
 5532TIP3   OH216601   1.011   1.260   1.383 -0.0375 -0.1340 -0.4856
 5532TIP3    H116602   1.016   1.227   1.293 -0.3501  1.0334 -0.9570
 5532TIP3    H216603   0.921   1.293   1.391  0.4707  1.2787 -0.3178
 5533TIP3   OH216604   1.609   1.257   2.102  0.2002 -0.3435 -0.2868
 5533TIP3    H116605   1.566   1.178   2.068 -1.7157  0.4559  0.1228
 5533TIP3    H216606   1.699   1.251   2.070  0.4029 -3.1503  0.5314
 5534TIP3   OH216607   4.557   5.632   4.222 -0.4237 -0.2782  0.3669
 5534TIP3    H116608   4.592   5.590   4.301  0.6143 -0.6685 -0.2842
 5534TIP3    H216609   4.531   5.559   4.166  2.1268 -0.1740 -1.1037
 5535TIP3   OH216610   3.045   5.744   4.085  0.4486 -0.2360 -0.3591
 5535TIP3    H116611   3.119   5.797   4.112  0.4329 -1.3213  2.0361
 5535TIP3    H216612   3.045   5.750   3.989  2.3594  1.4220 -0.3205
 5536TIP3   OH216613   4.187   3.493   1.276  0.5819 -0.3003  0.2485
 5536TIP3    H116614   4.147   3.440   1.345 -0.8492  0.9005  0.3995
 5536TIP3    H216615   4.280   3.472   1.280  0.3864 -1.0091  1.8752
 5537TIP3   OH216616   1.776   4.201   1.040  0.4051  0.6954 -0.3737
 5537TIP3    H116617   1.842   4.164   0.981 -1.0400  0.1106 -1.7259
 5537TIP3    H216618   1.717   4.127   1.058 -0.5496  1.4828 -0.1995
 5538TIP3   OH216619   0.587   5.551   1.398 -0.1456  0.0616  0.1087
 5538TIP3    H116620   0.655   5.488   1.423 -0.3561 -0.3448 -0.3336
 5538TIP3    H216621   0.604   5.627   1.454  0.3232 -0.2519  0.4060
 5539TIP3   OH216622   6.308   1.956   1.890  0.1131  0.1049  0.1865
 5539TIP3    H116623   6.398   1.980   1.913 -0.4997  1.3866  1.3554
 5539TIP3    H216624   6.270   1.922   1.970 -0.9495  1.1879  0.1812
 5540TIP3   OH216625   3.090   2.190   5.139  0.3855 -0.0963  0.2717
 5540TIP3    H116626   3.099   2.265   5.197  0.8339  0.2460 -0.2344
 5540TIP3    H216627   3.076   2.228   5.052  2.1356 -0.5492 -0.2545
 5541TIP3   OH216628   2.196   2.453   0.976  0.5548  0.3590  0.0866
 5541TIP3    H116629   2.120   2.477   0.923 -0.5705  1.2547  2.0240
 5541TIP3    H216630   2.270   2.499   0.935  0.0936 -0.3702 -1.7033
 5542TIP3   OH216631   3.679   2.799   4.995  1.0065  0.0306 -0.3824
 5542TIP3    H116632   3.750   2.862   4.989 -0.1586  1.4354 -0.0006
 5542TIP3    H216633   3.613   2.842   5.050  0.6627 -1.9938  0.9205
 5543TIP3   OH216634   2.771   5.897   3.321  0.2564  0.5527 -0.0387
 5543TIP3    H116635   2.688   5.896   3.274  0.5321  1.3452 -0.5520
 5543TIP3    H216636   2.780   5.808   3.356 -0.2652  0.1394 -0.9301
 5544TIP3   OH216637   3.393   1.021   1.730 -0.0044  0.1343  0.0659
 5544TIP3    H116638   3.410   0.997   1.821  1.7429 -0.7763 -0.4580
 5544TIP3    H216639   3.415   1.114   1.726  1.4144 -0.1756  0.2509
 5545TIP3   OH216640   5.368   0.307   4.503  0.0575  0.5251  0.3928
 5545TIP3    H116641   5.332   0.219   4.487  0.1248  0.5636  0.0063
 5545TIP3    H216642   5.308   0.346   4.566  0.4543 -0.0734  1.1592
 5546TIP3   OH216643   4.446   5.467   5.019  0.2386 -0.6511  0.3129
 5546TIP3    H116644   4.446   5.502   4.929  2.7060  0.1137  0.5107
 5546TIP3    H216645   4.450   5.372   5.007  0.4442 -0.5627 -0.4090
 5547TIP3   OH216646   5.969   5.979   5.135 -0.1974 -0.1599  0.8796
 5547TIP3    H116647   6.046   6.034   5.150 -0.8194  1.2064 -0.6249
 5547TIP3    H216648   6.005   5.897   5.101  0.6143  1.5495 -2.9340
 5548TIP3   OH216649   3.883   3.600   1.431 -0.3042  0.1661 -0.1981
 5548TIP3    H116650   3.893   3.560   1.517 -0.9459 -2.3023 -1.1661
 5548TIP3    H216651   3.790   3.621   1.424 -0.6360 -1.4055 -0.9375
 5549TIP3   OH216652   4.170   3.337   5.022  0.4822  0.2410  0.7879
 5549TIP3    H116653   4.200   3.397   5.089  1.0196 -0.1958  0.9504
 5549TIP3    H216654   4.171   3.251   5.064 -1.1995  0.2180  0.8620
 5550TIP3   OH216655   3.038   1.116   0.774 -0.2966  0.0449 -0.0085
 5550TIP3    H116656   3.027   1.209   0.795  0.7733  0.1281  0.2113
 5550TIP3    H216657   3.118   1.112   0.722 -0.9027 -0.6349 -0.9287
 5551TIP3   OH216658   1.727   1.567   5.088 -0.0953  0.0448 -0.1501
 5551TIP3    H116659   1.689   1.632   5.146  3.3031  2.0635  0.0287
 5551TIP3    H216660   1.694   1.483   5.122 -2.2849  1.4151  1.4053
 5552TIP3   OH216661   2.347   4.633   2.569 -0.5477 -0.4051 -0.0849
 5552TIP3    H116662   2.401   4.696   2.617 -0.7100 -1.1154  1.0573
 5552TIP3    H216663   2.257   4.655   2.593 -0.8256  0.6715 -1.8569
 5553TIP3   OH216664   2.611   4.042   1.935  0.1490 -0.4319 -0.3642
 5553TIP3    H116665   2.525   4.055   1.894  0.4464  2.6609 -0.2602
 5553TIP3    H216666   2.603   4.086   2.020  2.0123  0.5534 -0.6564
 5554TIP3   OH216667   1.455   3.360   3.994 -0.6835  0.3421  0.0216
 5554TIP3    H116668   1.458   3.340   4.088 -1.7295 -0.5230 -0.1018
 5554TIP3    H216669   1.526   3.422   3.980 -0.3026  0.2311  1.3281
 5555TIP3   OH216670   1.218   4.521   4.450 -0.2391  0.4391  0.2343
 5555TIP3    H116671   1.196   4.580   4.378  1.4187 -0.0401 -0.7008
 5555TIP3    H216672   1.304   4.550   4.480 -0.1312 -0.4762  0.8596
 5556TIP3   OH216673   1.544   2.746   2.283 -0.3898 -1.1826 -0.1970
 5556TIP3    H116674   1.470   2.691   2.257  0.0602 -1.7321 -0.3327
 5556TIP3    H216675   1.525   2.832   2.245 -0.8661 -1.3705 -0.3876
 5557TIP3   OH216676   3.516   5.186   3.595  0.1881 -0.2078  0.0349
 5557TIP3    H116677   3.519   5.247   3.669  1.7296  0.5228 -0.5926
 5557TIP3    H216678   3.492   5.102   3.635 -1.0006  0.5650  1.0490
 5558TIP3   OH216679   3.635   3.123   1.503 -0.4510 -0.1868 -0.1733
 5558TIP3    H116680   3.557   3.106   1.556 -0.4982 -0.2520 -0.2649
 5558TIP3    H216681   3.617   3.082   1.419 -1.0583  1.2926 -0.8005
 5559TIP3   OH216682   4.441   5.830   0.974 -0.3864  0.4393 -0.0313
 5559TIP3    H116683   4.403   5.831   1.062  0.5244 -0.8143  0.4128
 5559TIP3    H216684   4.515   5.890   0.979  0.7856 -0.9762  0.6458
 5560TIP3   OH216685   5.275   3.449   4.694 -0.6276  0.5090  0.0143
 5560TIP3    H116686   5.310   3.497   4.769 -1.0309  0.5878  0.1542
 5560TIP3    H216687   5.226   3.376   4.733  1.3054 -0.9715 -0.2221
 5561TIP3   OH216688   2.396   0.459   1.309 -0.3913  0.0403 -0.0948
 5561TIP3    H116689   2.478   0.481   1.354 -0.6745  0.3521  0.2833
 5561TIP3    H216690   2.405   0.366   1.288 -1.0153 -0.6630  2.3484
 5562TIP3   OH216691   0.316   4.888   4.364  0.8107 -0.0253  0.1563
 5562TIP3    H116692   0.378   4.816   4.355 -0.2002 -0.8365 -0.5399
 5562TIP3    H216693   0.271   4.870   4.447 -0.1523 -0.7841 -0.5148
 5563TIP3   OH216694   2.522   2.172   4.894 -0.7585 -0.3825  0.1744
 5563TIP3    H116695   2.579   2.231   4.845 -0.0673  0.2859  1.7312
 5563TIP3    H216696   2.581   2.119   4.947 -1.4968 -0.9647  0.4431
 5564TIP3   OH216697   1.600   1.213   4.859 -0.1260  0.1425 -0.2264
 5564TIP3    H116698   1.519   1.165   4.877 -0.6921  0.9392 -0.5642
 5564TIP3    H216699   1.670   1.153   4.884 -0.8220 -0.1373  1.1622
 5565TIP3   OH216700   2.312   0.702   1.772 -0.3737 -0.2215 -0.8068
 5565TIP3    H116701   2.331   0.721   1.680 -0.9396 -0.1784 -0.9185
 5565TIP3    H216702   2.320   0.787   1.815 -0.9315 -0.0812 -0.9656
 5566TIP3   OH216703   2.545   0.108   3.447  0.2294 -0.2824  0.5164
 5566TIP3    H116704   2.452   0.100   3.425 -0.3146  1.1459  2.0499
 5566TIP3    H216705   2.569   0.022   3.479 -0.0043 -1.2421 -1.7458
 5567TIP3   OH216706   5.507   5.653   1.313  0.1286 -0.0730  0.1093
 5567TIP3    H116707   5.593   5.695   1.317  0.1081  0.1283 -1.1178
 5567TIP3    H216708   5.459   5.705   1.248 -0.4192 -1.0638 -0.2887
 5568TIP3   OH216709   1.558   4.868   0.826 -0.1579  0.3699 -0.1978
 5568TIP3    H116710   1.513   4.858   0.910  0.4670  2.2183  0.4074
 5568TIP3    H216711   1.601   4.784   0.811  1.8662  0.7601  2.6414
 5569TIP3   OH216712   0.636   5.412   3.534 -0.3653  0.0846 -0.1807
 5569TIP3    H116713   0.639   5.497   3.490 -1.7941  0.2360 -0.0550
 5569TIP3    H216714   0.578   5.359   3.479  0.8305 -0.9454 -0.4720
 5570TIP3   OH216715   0.461   5.608   1.682  0.0754  0.5352  0.2325
 5570TIP3    H116716   0.548   5.630   1.649  0.8802  0.6936  2.2967
 5570TIP3    H216717   0.414   5.692   1.684 -0.1511  0.4434 -0.9159
 5571TIP3   OH216718   5.144   3.137   1.781 -0.0733 -0.1752 -0.2677
 5571TIP3    H116719   5.219   3.098   1.825  0.7934 -0.1387 -1.6534
 5571TIP3    H216720   5.169   3.140   1.689 -1.3691  0.7963 -0.6176
 5572TIP3   OH216721   4.560   1.448   4.903 -0.2183  0.0606 -0.0057
 5572TIP3    H116722   4.631   1.512   4.908 -2.2652  2.5829 -0.9473
 5572TIP3    H216723   4.569   1.410   4.815  1.0290 -1.0207  0.5670
 5573TIP3   OH216724   3.352   4.498   2.462  0.0746  0.1520 -0.1334
 5573TIP3    H116725   3.362   4.403   2.471 -0.5517  0.2241  1.7567
 5573TIP3    H216726   3.259   4.514   2.480 -0.2504  0.9657 -2.2537
 5574TIP3   OH216727   0.552   1.224   1.285  0.6804  0.7024  0.0967
 5574TIP3    H116728   0.639   1.226   1.245 -0.5629 -1.2885 -3.1027
 5574TIP3    H216729   0.492   1.222   1.210 -2.0461  0.1823  2.1777
 5575TIP3   OH216730   1.297   2.874   0.281  0.0861 -0.1785 -0.3444
 5575TIP3    H116731   1.246   2.955   0.287  1.1185  0.5259 -0.7635
 5575TIP3    H216732   1.363   2.882   0.350  0.0479 -0.7718 -0.2358
 5576TIP3   OH216733   0.111   1.601   3.253 -0.2643  0.2058  0.1937
 5576TIP3    H116734   0.066   1.640   3.178  1.3857  1.9993  0.0704
 5576TIP3    H216735   0.201   1.589   3.224  0.1788 -0.0020  1.5687
 5577TIP3   OH216736   2.414   2.005   4.629 -0.3373  0.1972 -0.4000
 5577TIP3    H116737   2.501   1.975   4.603 -0.8789  0.9345 -3.5565
 5577TIP3    H216738   2.404   2.089   4.584 -1.8839  1.1822  1.6613
 5578TIP3   OH216739   3.141   5.353   4.362  0.3508  0.0791  0.2847
 5578TIP3    H116740   3.180   5.429   4.319  1.2765 -0.4198  0.2148
 5578TIP3    H216741   3.136   5.286   4.293  2.6656 -1.0307  1.0653
 5579TIP3   OH216742   0.125   0.953   0.325  0.2447  0.2253  0.0596
 5579TIP3    H116743   0.046   0.962   0.378 -0.4625  1.7800 -1.1843
 5579TIP3    H216744   0.143   0.859   0.325 -1.9318 -0.2402 -0.1031
 5580TIP3   OH216745   2.003   5.239   3.727 -0.0901  0.0749  0.2334
 5580TIP3    H116746   2.076   5.181   3.710 -0.5813 -0.0989 -1.5025
 5580TIP3    H216747   1.953   5.240   3.645 -0.8148  1.9047  0.6339
 5581TIP3   OH216748   0.218   4.366   2.752  0.1081 -0.4246  0.3190
 5581TIP3    H116749   0.195   4.457   2.732 -0.6356 -0.4193  1.1184
 5581TIP3    H216750   0.167   4.346   2.831  1.2192 -1.1403  0.8666
 5582TIP3   OH216751   5.525   5.001   4.211 -0.2702  0.4403 -0.2665
 5582TIP3    H116752   5.588   5.041   4.270  0.1014  0.0554 -0.4002
 5582TIP3    H216753   5.446   4.991   4.264  0.7245 -1.9950  0.9031
 5583TIP3   OH216754   2.563   2.027   0.476 -0.2795  0.1032 -0.1671
 5583TIP3    H116755   2.520   1.948   0.442  0.5652 -0.0338 -0.9370
 5583TIP3    H216756   2.490   2.082   0.505 -0.9387 -0.4867 -0.6460
 5584TIP3   OH216757   0.398   1.807   1.389  0.0571 -0.9668 -0.7284
 5584TIP3    H116758   0.314   1.764   1.375  1.2595 -3.3011 -1.2205
 5584TIP3    H216759   0.381   1.869   1.460 -2.5674  0.2767 -2.2742
 5585TIP3   OH216760   6.229   1.779   4.368  0.1727  0.0922  0.5751
 5585TIP3    H116761   6.233   1.728   4.287  0.2419 -1.5608  1.5857
 5585TIP3    H216762   6.316   1.818   4.377 -0.2245  1.4233 -0.8034
 5586TIP3   OH216763   3.016   0.823   3.430 -0.5075  0.3709  0.0643
 5586TIP3    H116764   2.923   0.808   3.444 -0.8798  1.0690 -1.4826
 5586TIP3    H216765   3.026   0.827   3.335  1.0377  0.7661  0.2093
 5587TIP3   OH216766   2.750   4.358   3.178 -0.4442 -0.1177  0.2622
 5587TIP3    H116767   2.700   4.409   3.242 -3.2938 -1.1124 -1.0396
 5587TIP3    H216768   2.751   4.412   3.099 -1.9372 -1.2147 -0.5621
 5588TIP3   OH216769   0.172   3.740   2.806  0.1026  0.3185  0.0322
 5588TIP3    H116770   0.187   3.652   2.771 -0.0232  1.0011 -1.8869
 5588TIP3    H216771   0.081   3.739   2.835  0.6490 -0.7204  1.8456
 5589TIP3   OH216772   5.308   3.616   3.007 -0.6583 -1.0203  0.5599
 5589TIP3    H116773   5.259   3.607   3.089 -0.3844 -0.8295  0.7455
 5589TIP3    H216774   5.393   3.577   3.026  0.0511  0.6360  0.9359
 5590TIP3   OH216775   4.639   5.459   0.763  0.5526  0.6152  0.6922
 5590TIP3    H116776   4.560   5.512   0.753  0.1085  0.0073  0.9498
 5590TIP3    H216777   4.647   5.412   0.680  1.2080  1.4173  0.2819
 5591TIP3   OH216778   4.367   1.129   4.059  0.0646  0.0554 -0.2192
 5591TIP3    H116779   4.287   1.118   4.007  0.0162  0.0025 -0.1327
 5591TIP3    H216780   4.358   1.216   4.098  0.5804  0.5316 -1.1337
 5592TIP3   OH216781   3.300   0.489   5.026  0.3045  0.1384  0.4955
 5592TIP3    H116782   3.314   0.404   5.068  2.1355 -0.0632 -0.4102
 5592TIP3    H216783   3.310   0.553   5.096  2.8074 -0.2171  0.5517
 5593TIP3   OH216784   6.263   5.572   1.092  0.0733  0.1095  0.0005
 5593TIP3    H116785   6.182   5.522   1.084  0.1770 -0.0880  0.1853
 5593TIP3    H216786   6.326   5.524   1.037  0.9275 -1.5329  2.2810
 5594TIP3   OH216787   4.010   2.587   3.180 -0.4263 -0.1250  0.3486
 5594TIP3    H116788   4.080   2.543   3.229  0.9907 -0.2878 -1.7159
 5594TIP3    H216789   3.965   2.516   3.134 -0.5744  0.1904  0.0029
 5595TIP3   OH216790   2.045   5.780   1.375 -0.1793  0.0522 -0.1582
 5595TIP3    H116791   2.061   5.838   1.449  1.0529 -1.1649  0.5689
 5595TIP3    H216792   2.109   5.807   1.309  0.5290 -0.5811  0.2559
 5596TIP3   OH216793   1.748   3.284   0.664 -0.1128  0.3229 -0.2552
 5596TIP3    H116794   1.690   3.258   0.592 -1.9227  1.1934  0.8032
 5596TIP3    H216795   1.829   3.310   0.621 -0.7636 -0.1893 -1.8950
 5597TIP3   OH216796   4.381   0.586   2.942 -0.0051  0.0421 -0.7721
 5597TIP3    H116797   4.444   0.639   2.894 -0.9802  1.2970 -0.7043
 5597TIP3    H216798   4.417   0.582   3.031  0.6769 -0.4502 -1.0517
 5598TIP3   OH216799   4.171   4.224   0.037  0.0624  0.0134  0.0677
 5598TIP3    H116800   4.117   4.228  -0.042 -0.8922  0.8490  0.7383
 5598TIP3    H216801   4.223   4.304   0.036  0.3588 -0.1744  0.0831
 5599TIP3   OH216802   5.228   4.031   2.128  0.8045  1.0555  0.0571
 5599TIP3    H116803   5.155   4.018   2.068 -1.1811  2.3579  2.0588
 5599TIP3    H216804   5.194   4.087   2.197  3.1445  0.1478  2.1210
 5600TIP3   OH216805   6.312   2.592   1.513  0.3078 -0.0983  0.0233
 5600TIP3    H116806   6.234   2.643   1.492  1.6171  2.7665  1.5303
 5600TIP3    H216807   6.279   2.518   1.563 -1.4335  1.7403  1.8003
 5601TIP3   OH216808   2.999   1.407   2.037  0.0392  0.0748  0.1644
 5601TIP3    H116809   3.083   1.424   2.079  0.8649  2.5167 -2.1968
 5601TIP3    H216810   2.935   1.456   2.090  0.8641  2.0648 -0.5982
 5602TIP3   OH216811   3.093   2.491   2.201  0.2275 -0.1406 -0.2206
 5602TIP3    H116812   3.163   2.545   2.166 -0.4018 -0.3248 -1.8682
 5602TIP3    H216813   3.013   2.539   2.181 -0.2036 -0.5498  0.4670
 5603TIP3   OH216814   1.253   1.181   2.081  0.3913  0.3692  0.4016
 5603TIP3    H116815   1.204   1.137   2.150  1.4173 -2.0335 -0.3156
 5603TIP3    H216816   1.243   1.274   2.100 -0.0056 -0.1916  3.3147
 5604TIP3   OH216817   0.704   1.023   0.018  0.5884 -0.1948 -0.1018
 5604TIP3    H116818   0.651   1.098  -0.010 -1.4084 -1.1447  0.8699
 5604TIP3    H216819   0.660   0.991   0.097  0.9973 -2.7361 -0.8056
 5605TIP3   OH216820   5.081   5.106   1.256  0.5921 -0.5565 -0.2998
 5605TIP3    H116821   5.152   5.169   1.247  0.2939 -0.2850 -0.7919
 5605TIP3    H216822   5.057   5.084   1.166 -1.4956  1.1010 -0.2311
 5606TIP3   OH216823   5.078   2.479   1.261  0.3096 -0.3669 -0.6682
 5606TIP3    H116824   5.112   2.441   1.343 -0.2799 -0.8361 -0.6401
 5606TIP3    H216825   5.084   2.408   1.198  0.5624 -0.0665 -0.9848
 5607TIP3   OH216826   5.886   1.270   3.590 -0.3331  0.3047  0.3746
 5607TIP3    H116827   5.904   1.271   3.684  0.6260 -0.7735  0.2263
 5607TIP3    H216828   5.964   1.308   3.550  0.2163 -1.2280 -0.0851
 5608TIP3   OH216829   0.482   4.115   0.852  0.1867  0.0132 -0.2241
 5608TIP3    H116830   0.470   4.081   0.941 -2.8144  1.4170  0.0407
 5608TIP3    H216831   0.548   4.058   0.813  0.1417 -1.9000  2.2373
 5609TIP3   OH216832   6.258   2.387   1.276 -0.1185 -0.0969 -0.5754
 5609TIP3    H116833   6.318   2.371   1.203 -2.0694 -1.0433 -2.0649
 5609TIP3    H216834   6.217   2.471   1.256  0.1598  0.2015  0.0654
 5610TIP3   OH216835   6.208   0.875   3.498  0.0274  0.2677  0.4767
 5610TIP3    H116836   6.299   0.848   3.509 -0.4391 -1.2317  0.9648
 5610TIP3    H216837   6.201   0.958   3.544  1.1245  0.3525  0.5115
 5611TIP3   OH216838   3.752   2.484   4.653 -0.2271  0.4399  0.3843
 5611TIP3    H116839   3.845   2.499   4.670 -0.0524 -0.6850  0.4666
 5611TIP3    H216840   3.709   2.560   4.692  0.5314  0.1285  1.9348
 5612TIP3   OH216841   4.958   1.680   0.814 -0.3144  0.1091  0.2762
 5612TIP3    H116842   4.942   1.746   0.746 -1.5250 -0.5670 -0.1189
 5612TIP3    H216843   5.014   1.725   0.878  0.6415  0.8377 -1.0227
 5613TIP3   OH216844   1.748   3.723   1.617  0.2245 -0.6507 -0.0895
 5613TIP3    H116845   1.798   3.794   1.578 -1.8504  0.7592 -0.3319
 5613TIP3    H216846   1.751   3.741   1.711  0.8395 -1.0298 -0.0357
 5614TIP3   OH216847   3.354   1.481   3.706  0.3854  0.7642  0.0672
 5614TIP3    H116848   3.395   1.447   3.785 -0.4677  1.4525  0.8196
 5614TIP3    H216849   3.325   1.569   3.730 -2.7387 -0.1449  0.0263
 5615TIP3   OH216850   3.778   3.344   5.203  0.3751  0.3343  0.0209
 5615TIP3    H116851   3.727   3.422   5.225 -0.7420 -0.5491  0.6747
 5615TIP3    H216852   3.794   3.352   5.109 -0.4590  0.9384 -0.0862
 5616TIP3   OH216853   0.713   3.094   1.694  0.4057  0.0773  0.3935
 5616TIP3    H116854   0.744   3.010   1.729  0.5355  0.5406  1.4129
 5616TIP3    H216855   0.793   3.146   1.682  0.4070 -0.2145 -1.0147
 5617TIP3   OH216856   2.617   4.517   3.432  0.4166 -0.3773  0.0165
 5617TIP3    H116857   2.687   4.571   3.396  0.0037 -0.4196 -0.8996
 5617TIP3    H216858   2.537   4.556   3.397  0.0042 -0.5618  0.7304
 5618TIP3   OH216859   0.362   0.778   4.522  0.6225 -0.4553 -0.0973
 5618TIP3    H116860   0.347   0.696   4.475 -0.5854 -1.5450  2.0245
 5618TIP3    H216861   0.402   0.751   4.604  3.9765  1.4961 -0.9044
 5619TIP3   OH216862   4.035   2.010   2.410  0.1168 -0.1978  0.3890
 5619TIP3    H116863   3.952   1.976   2.377  0.1310  0.4507 -0.3569
 5619TIP3    H216864   4.079   1.934   2.448 -0.6965 -0.6003  0.5370
 5620TIP3   OH216865   5.503   1.916   4.722  0.4616  0.2084 -0.7684
 5620TIP3    H116866   5.484   2.008   4.734  0.8419  0.0149  1.7655
 5620TIP3    H216867   5.598   1.910   4.732  0.2536 -0.6615  1.0985
 5621TIP3   OH216868   0.781   4.899   4.315 -0.2172 -0.4470  0.3939
 5621TIP3    H116869   0.783   4.826   4.376 -2.5888 -1.0008 -0.1023
 5621TIP3    H216870   0.733   4.866   4.239  0.4866  0.9934 -0.7300
 5622TIP3   OH216871   6.301   5.503   2.007 -0.2845  0.0167  0.0312
 5622TIP3    H116872   6.309   5.532   1.916  0.5897 -1.8783 -0.5309
 5622TIP3    H216873   6.238   5.564   2.045 -0.4383  1.0479 -1.7461
 5623TIP3   OH216874   2.677   5.204   1.270 -0.2044 -0.9415 -0.0750
 5623TIP3    H116875   2.694   5.280   1.325  0.9446  0.4347 -2.1850
 5623TIP3    H216876   2.582   5.199   1.264 -0.3015  1.0547 -0.8032
 5624TIP3   OH216877   4.102   1.351   2.949  0.0353  0.6836  0.0944
 5624TIP3    H116878   4.158   1.378   2.876 -1.5288  0.6807 -1.1772
 5624TIP3    H216879   4.114   1.256   2.953  1.6859  0.8949  1.2432
 5625TIP3   OH216880   1.112   1.682   2.347  0.3674  0.6233  0.4749
 5625TIP3    H116881   1.108   1.629   2.268  1.5490  0.1722  0.6895
 5625TIP3    H216882   1.034   1.656   2.397  0.1686  0.1410 -0.0710
 5626TIP3   OH216883   2.197   4.248   3.787 -0.1996 -0.0353 -0.1098
 5626TIP3    H116884   2.189   4.303   3.709 -0.4286 -0.2156 -0.2129
 5626TIP3    H216885   2.263   4.292   3.840 -0.3598  0.3261 -0.2068
 5627TIP3   OH216886   0.077   0.073   4.316 -0.5870 -0.0568 -0.2592
 5627TIP3    H116887   0.105   0.162   4.341 -3.2462  0.5078  1.0073
 5627TIP3    H216888   0.145   0.016   4.353  0.6808  1.3693 -0.2836
 5628TIP3   OH216889   5.753   2.881   0.575  0.6960  0.1763  0.1087
 5628TIP3    H116890   5.716   2.794   0.561  2.1298 -0.2187 -1.5385
 5628TIP3    H216891   5.676   2.938   0.585 -0.3505 -0.8988 -1.3003
 5629TIP3   OH216892   1.123   3.380   3.976  0.1764  0.9222  0.3370
 5629TIP3    H116893   1.105   3.337   4.060 -0.6705 -0.5828 -0.5581
 5629TIP3    H216894   1.096   3.315   3.911 -1.7405  3.0184 -1.1147
 5630TIP3   OH216895   0.295   2.546   0.343  0.0057  0.2887  0.1128
 5630TIP3    H116896   0.218   2.490   0.334  0.7064 -0.5140 -1.2591
 5630TIP3    H216897   0.321   2.537   0.435 -1.6262  0.7327  0.6449
 5631TIP3   OH216898   2.201   4.082   4.461 -0.4335 -0.3571 -0.2091
 5631TIP3    H116899   2.221   4.103   4.552 -0.0930  1.0923 -0.5884
 5631TIP3    H216900   2.109   4.057   4.462 -0.4557 -0.2764  0.5148
 5632TIP3   OH216901   6.046   1.746   2.368  0.2815 -0.1179  0.0149
 5632TIP3    H116902   6.022   1.780   2.281  1.6985  0.9298 -0.0075
 5632TIP3    H216903   6.123   1.691   2.351  1.3109  1.0492  0.7147
 5633TIP3   OH216904   5.178   0.130   0.676  0.4282 -0.1716  0.2826
 5633TIP3    H116905   5.094   0.172   0.656 -0.7629 -2.3967  0.4064
 5633TIP3    H216906   5.243   0.186   0.633 -1.4542 -1.1258 -4.3743
 5634TIP3   OH216907   3.037   5.018   4.891 -0.3589  0.0018 -0.4623
 5634TIP3    H116908   2.987   5.033   4.811 -0.3176 -2.0470 -0.9341
 5634TIP3    H216909   3.123   4.987   4.860  0.3044  0.9195  0.3777
 5635TIP3   OH216910   4.919   4.737   0.222 -0.1040 -0.3786  0.6340
 5635TIP3    H116911   4.883   4.825   0.208  1.5410  0.9960  3.9377
 5635TIP3    H216912   4.848   4.678   0.196 -1.6896  1.9036 -0.6469
 5636TIP3   OH216913   4.942   1.196   4.206 -0.5961  0.2747 -0.2756
 5636TIP3    H116914   4.926   1.136   4.133  0.9468 -1.1042  0.4654
 5636TIP3    H216915   5.011   1.254   4.174 -1.3824  1.0448 -0.6265
 5637TIP3   OH216916   1.555   4.689   5.021 -0.0070  0.0793 -0.3482
 5637TIP3    H116917   1.632   4.676   5.076  0.4858 -1.5280 -1.3638
 5637TIP3    H216918   1.481   4.669   5.079  0.5132 -1.7563 -0.2450
 5638TIP3   OH216919   1.665   1.381   1.585  0.4774  0.3730 -0.1737
 5638TIP3    H116920   1.618   1.455   1.547 -0.8210 -0.1506  0.3556
 5638TIP3    H216921   1.702   1.335   1.510 -1.2470 -0.1134 -0.7737
 5639TIP3   OH216922   4.338   4.126   1.477 -0.1744 -0.2739 -0.6602
 5639TIP3    H116923   4.328   4.101   1.569 -2.9217 -1.2229 -1.1540
 5639TIP3    H216924   4.406   4.067   1.444  2.4622  1.4900  1.1628
 5640TIP3   OH216925   2.570   4.992   4.295  0.4707 -0.4791  0.3228
 5640TIP3    H116926   2.631   5.028   4.359  0.1127 -1.3632  1.1866
 5640TIP3    H216927   2.511   5.065   4.274 -0.4059 -0.5798  2.2356
 5641TIP3   OH216928   5.807   0.453   3.384 -0.2479 -0.1689 -0.1791
 5641TIP3    H116929   5.727   0.405   3.365 -0.2953  0.2837 -1.2026
 5641TIP3    H216930   5.779   0.544   3.394  0.0702 -0.0870 -0.0007
 5642TIP3   OH216931   2.088   5.924   3.153  0.1972  0.2806  0.0364
 5642TIP3    H116932   2.103   5.936   3.060  0.5751 -0.5200 -0.0114
 5642TIP3    H216933   2.158   5.973   3.196  0.3759  0.1604 -0.1165
 5643TIP3   OH216934   0.531   4.748   3.264 -0.6759  0.6270  0.1523
 5643TIP3    H116935   0.571   4.696   3.194  0.6277 -0.2503  1.4759
 5643TIP3    H216936   0.597   4.749   3.334 -1.9635  1.3537  1.4177
 5644TIP3   OH216937   0.288   2.489   2.967  0.0740 -0.1582 -0.0382
 5644TIP3    H116938   0.226   2.527   2.905 -0.4212 -1.3259 -0.2823
 5644TIP3    H216939   0.240   2.418   3.009  1.6256 -1.9907 -1.1824
 5645TIP3   OH216940   4.270   4.398   2.276 -0.7330  0.0369  0.1592
 5645TIP3    H116941   4.346   4.350   2.309 -0.8428 -0.3916 -0.1947
 5645TIP3    H216942   4.209   4.330   2.248 -0.4593  0.3688 -1.3378
 5646TIP3   OH216943   4.153   5.747   2.954  0.0819 -0.0447 -0.2032
 5646TIP3    H116944   4.186   5.758   3.043  1.1681 -1.1576 -0.4401
 5646TIP3    H216945   4.058   5.743   2.965  0.2291 -3.7661  1.4498
 5647TIP3   OH216946   2.382   3.109   4.499 -0.6106 -0.5426  0.2137
 5647TIP3    H116947   2.322   3.056   4.447  0.1095 -0.8041 -0.3678
 5647TIP3    H216948   2.353   3.199   4.486  0.8400 -0.3682 -2.4261
 5648TIP3   OH216949   2.212   1.861   0.222 -0.1574  0.2657  0.5142
 5648TIP3    H116950   2.141   1.925   0.233 -1.1435 -0.2507 -2.0420
 5648TIP3    H216951   2.167   1.777   0.217  0.6880 -0.1503 -0.4012
 5649TIP3   OH216952   4.833   4.583   4.727 -0.7114 -0.2249  0.0845
 5649TIP3    H116953   4.887   4.574   4.806 -0.0397 -1.3350 -0.4706
 5649TIP3    H216954   4.840   4.498   4.684 -0.3501  0.6199 -1.6177
 5650TIP3   OH216955   3.221   0.012   3.975 -0.4813  0.3645 -0.2683
 5650TIP3    H116956   3.238   0.105   3.983 -1.4346  0.4897  0.5236
 5650TIP3    H216957   3.277  -0.017   3.904  0.3092  1.4141 -0.0938
 5651TIP3   OH216958   2.504   4.705   4.270  0.0543 -0.5531 -0.3034
 5651TIP3    H116959   2.514   4.794   4.303  0.8067 -0.3482 -1.0525
 5651TIP3    H216960   2.426   4.672   4.313  0.3025  0.1401  0.7156
 5652TIP3   OH216961   2.229   5.914   1.225 -0.4207  0.2882  0.7096
 5652TIP3    H116962   2.167   5.986   1.233 -0.1805  0.2704  3.5321
 5652TIP3    H216963   2.315   5.955   1.224 -0.3245  0.0927  0.9387
 5653TIP3   OH216964   6.220   4.463   2.004 -0.1198 -0.2295  0.4015
 5653TIP3    H116965   6.309   4.468   1.969 -0.5923 -2.7555 -1.5156
 5653TIP3    H216966   6.166   4.508   1.939 -0.5160 -1.2242  0.0101
 5654TIP3   OH216967   5.987   5.226   4.180  0.7041  0.2508  0.1331
 5654TIP3    H116968   5.975   5.228   4.085  0.9479  0.1478  0.0994
 5654TIP3    H216969   5.937   5.150   4.209  2.0111 -0.7368 -0.1179
 5655TIP3   OH216970   5.523   5.933   3.573 -0.0080  0.5246  0.0238
 5655TIP3    H116971   5.451   5.986   3.537 -0.7378  1.2686  2.4138
 5655TIP3    H216972   5.484   5.847   3.590 -0.4697  1.0137  1.5909
 5656TIP3   OH216973   4.474   3.213   0.591 -0.3656  0.1290  0.2156
 5656TIP3    H116974   4.411   3.282   0.611  0.0533  0.7062 -0.4156
 5656TIP3    H216975   4.554   3.259   0.567 -0.0409 -0.5757 -0.1104
 5657TIP3   OH216976   1.471   5.804   3.607 -0.1260 -0.4063  0.5830
 5657TIP3    H116977   1.564   5.809   3.585  0.0657 -0.6336  1.2971
 5657TIP3    H216978   1.435   5.740   3.546  0.2061 -0.3912  0.3686
 5658TIP3   OH216979   1.813   2.738   0.862  0.0145 -0.3701 -0.3821
 5658TIP3    H116980   1.764   2.744   0.944  1.0642 -0.4008  0.2555
 5658TIP3    H216981   1.881   2.673   0.879  0.6453  0.0925 -1.0668
 5659TIP3   OH216982   0.379   2.438   4.494  0.2696  0.2832  0.6690
 5659TIP3    H116983   0.290   2.474   4.485  0.3816  0.5110  0.4551
 5659TIP3    H216984   0.430   2.485   4.429  0.5044  0.0015  0.6488
 5660TIP3   OH216985   3.732   3.023   4.836 -0.2100  0.4815 -0.3836
 5660TIP3    H116986   3.719   3.044   4.743  1.1580  1.3834 -0.3924
 5660TIP3    H216987   3.821   2.990   4.841  0.3150  1.9757  0.8491
 5661TIP3   OH216988   6.053   1.224   4.548 -0.9923 -0.4225  0.2259
 5661TIP3    H116989   5.992   1.277   4.600  0.2698  2.7442 -1.2840
 5661TIP3    H216990   6.139   1.257   4.570 -0.3873  1.5635 -4.1068
 5662TIP3   OH216991   2.508   1.728   4.735  0.2340  0.4426  0.1040
 5662TIP3    H116992   2.487   1.801   4.794 -0.9902  1.2074 -1.2115
 5662TIP3    H216993   2.543   1.770   4.656  2.3033 -0.5903  0.4026
 5663TIP3   OH216994   3.326   2.562   5.008  0.1977 -0.0912  0.0489
 5663TIP3    H116995   3.416   2.536   5.025  0.8722  0.3703 -2.3532
 5663TIP3    H216996   3.292   2.496   4.947 -1.0260 -0.1342  0.7372
 5664TIP3   OH216997   1.520   3.814   4.756 -0.3283 -0.4901  0.4272
 5664TIP3    H116998   1.453   3.881   4.766  0.3372 -0.0598  2.6429
 5664TIP3    H216999   1.487   3.739   4.805  1.3028  0.2177  2.8400
 5665TIP3   OH217000   4.381   4.574   0.281  0.1746 -0.1903 -0.3114
 5665TIP3    H117001   4.335   4.537   0.357  1.0119  0.2817  0.4513
 5665TIP3    H217002   4.415   4.658   0.313 -2.4795  1.7868 -2.2448
 5666TIP3   OH217003   0.542   2.774   5.105 -0.3919 -0.5468  0.1347
 5666TIP3    H117004   0.495   2.706   5.057 -0.6414 -0.5867  0.4326
 5666TIP3    H217005   0.503   2.774   5.192  0.0773 -0.4928  0.3507
 5667TIP3   OH217006   3.878   5.766   0.541 -0.0689 -0.3642 -0.0851
 5667TIP3    H117007   3.941   5.799   0.605  0.4767 -0.0134 -0.7945
 5667TIP3    H217008   3.858   5.841   0.486  1.5067 -1.2443 -1.9855
 5668TIP3   OH217009   0.895   3.895   1.109  0.1084 -0.2217  0.4585
 5668TIP3    H117010   0.848   3.977   1.122  0.7241  0.7958 -2.7201
 5668TIP3    H217011   0.987   3.919   1.115  0.2821 -0.9481  0.7780
 5669TIP3   OH217012   5.722   4.865   0.142 -0.3593  0.4043  0.0988
 5669TIP3    H117013   5.668   4.864   0.222 -0.1470 -0.8767  0.2621
 5669TIP3    H217014   5.663   4.894   0.073 -1.4395 -1.4016  0.1921
 5670TIP3   OH217015   4.898   5.924   1.072 -0.1774  0.0515 -0.0427
 5670TIP3    H117016   4.913   5.858   1.005 -0.2676 -0.1450  0.1318
 5670TIP3    H217017   4.871   5.875   1.149 -1.5319  0.3895 -0.2863
 5671TIP3   OH217018   4.817   5.282   4.940 -0.3328 -0.2049  0.2532
 5671TIP3    H117019   4.762   5.324   5.007 -0.3066  2.6255 -1.3550
 5671TIP3    H217020   4.755   5.233   4.886 -0.8788  0.5126  0.2129
 5672TIP3   OH217021   0.805   1.918   0.739  0.4763 -0.1288  0.1814
 5672TIP3    H117022   0.785   1.999   0.693 -1.1699 -1.5576 -1.8485
 5672TIP3    H217023   0.770   1.931   0.827 -2.7860  0.3317 -1.0143
 5673TIP3   OH217024   2.190   2.651   1.636  0.2758  0.0833 -0.8767
 5673TIP3    H117025   2.143   2.731   1.659  0.4116  0.2420 -1.1450
 5673TIP3    H217026   2.248   2.677   1.564  0.0658 -0.3351 -1.2036
 5674TIP3   OH217027   0.945   3.635   2.543 -0.2517 -0.6270 -0.3050
 5674TIP3    H117028   0.952   3.706   2.607  0.7282 -0.5169 -0.5184
 5674TIP3    H217029   0.901   3.674   2.468 -0.8315 -0.5883  0.0413
 5675TIP3   OH217030   5.333   4.227   1.385  0.1228  0.2177 -0.2973
 5675TIP3    H117031   5.263   4.276   1.342 -0.7149 -0.5389  0.1483
 5675TIP3    H217032   5.351   4.276   1.465 -0.9750 -0.3513  0.3346
 5676TIP3   OH217033   0.194   1.217   3.987  0.1454  0.1945 -0.2205
 5676TIP3    H117034   0.231   1.303   3.969  0.3119  0.2051  0.1622
 5676TIP3    H217035   0.262   1.171   4.036 -0.2725  0.1452  0.3218
 5677TIP3   OH217036   4.689   3.727   0.043 -0.6897 -0.0062  0.1815
 5677TIP3    H117037   4.763   3.694   0.094 -0.0158  1.7279  0.3737
 5677TIP3    H217038   4.685   3.670  -0.034 -1.0405 -1.9778  1.5881
 5678TIP3   OH217039   1.124   1.317   0.842 -0.2716 -0.0115  0.1943
 5678TIP3    H117040   1.065   1.247   0.815  0.1390 -0.3463  0.1528
 5678TIP3    H217041   1.135   1.305   0.936  0.0257 -0.1791  0.1389
 5679TIP3   OH217042   4.751   0.055   4.809  0.1209 -0.4486 -0.1300
 5679TIP3    H117043   4.747  -0.036   4.839 -2.5996 -0.2394  0.3627
 5679TIP3    H217044   4.711   0.106   4.880 -1.2813  0.7358 -1.6915
 5680TIP3   OH217045   6.281   1.276   0.502  0.3105 -0.4970  0.2844
 5680TIP3    H117046   6.254   1.255   0.591 -0.4656  0.9660  0.4204
 5680TIP3    H217047   6.201   1.308   0.459  0.5862 -1.5072 -1.0598
 5681TIP3   OH217048   4.452   3.266   4.858  0.1581  0.0310 -0.2168
 5681TIP3    H117049   4.438   3.325   4.932 -0.6321 -0.7113  0.2582
 5681TIP3    H217050   4.434   3.319   4.781  2.4034  1.2236  0.0005
 5682TIP3   OH217051   2.538   2.905   0.396 -0.1260 -0.5347  0.1137
 5682TIP3    H117052   2.462   2.863   0.438  0.2799 -0.1023  1.3268
 5682TIP3    H217053   2.561   2.846   0.324  0.0174 -2.0815  1.3549
 5683TIP3   OH217054   5.406   2.837   4.605 -0.4603 -0.1592  0.3352
 5683TIP3    H117055   5.454   2.864   4.684 -1.4933  1.4009  0.4732
 5683TIP3    H217056   5.369   2.752   4.627 -0.1818 -0.0394  1.2946
 5684TIP3   OH217057   4.395   5.565   2.672 -0.3170  0.3664  0.0462
 5684TIP3    H117058   4.398   5.470   2.668  1.1101  0.1224  3.3827
 5684TIP3    H217059   4.307   5.585   2.703 -0.5582  0.1320 -0.4828
 5685TIP3   OH217060   1.020   2.166   4.740 -0.0575  0.2148 -0.4029
 5685TIP3    H117061   1.057   2.083   4.710 -2.6130 -1.0841 -0.2367
 5685TIP3    H217062   1.036   2.167   4.834  1.9711  1.0434 -0.7189
 5686TIP3   OH217063   0.256   2.891   0.417  0.2712  0.4845  0.6651
 5686TIP3    H117064   0.276   2.829   0.347  0.8976  1.2374  0.1573
 5686TIP3    H217065   0.242   2.836   0.494  1.0513 -0.2846  0.2837
 5687TIP3   OH217066   0.248   1.175   3.700 -0.4389 -0.1147  0.7113
 5687TIP3    H117067   0.201   1.132   3.771 -2.0189 -0.4083 -0.4664
 5687TIP3    H217068   0.337   1.141   3.706 -0.8065 -0.9170  1.9009
 5688TIP3   OH217069   5.752   5.836   1.900  0.0031 -0.5814 -0.0150
 5688TIP3    H117070   5.810   5.829   1.824  0.4711 -2.2694  0.4684
 5688TIP3    H217071   5.811   5.851   1.974 -0.2282 -1.4791  0.3598
 5689TIP3   OH217072   5.932   4.070   3.658  0.6154 -0.4708  0.1961
 5689TIP3    H117073   5.941   4.157   3.698 -0.3380 -0.0074 -0.5344
 5689TIP3    H217074   5.895   4.088   3.571  0.0992 -1.6333  0.1522
 5690TIP3   OH217075   4.927   0.535   0.893 -0.2644 -0.6823 -0.3079
 5690TIP3    H117076   5.013   0.552   0.930 -0.3962  0.2856 -0.4051
 5690TIP3    H217077   4.931   0.571   0.804 -0.1258 -2.4776 -1.0623
 5691TIP3   OH217078   4.942   0.514   5.020 -0.4553  0.5960 -0.3583
 5691TIP3    H117079   4.931   0.580   4.952 -1.4806  1.4314  0.5733
 5691TIP3    H217080   5.032   0.525   5.049 -0.7878  2.0572  0.2197
 5692TIP3   OH217081   0.824   5.370   1.735 -0.6672 -0.1014  0.4288
 5692TIP3    H117082   0.827   5.314   1.812 -2.7282  1.0777  1.4332
 5692TIP3    H217083   0.848   5.457   1.767  1.9337 -0.1737 -1.0006
 5693TIP3   OH217084   5.776   0.296   3.639  0.1651  0.2249  0.0783
 5693TIP3    H117085   5.732   0.216   3.609 -0.1365  0.4885 -0.1830
 5693TIP3    H217086   5.810   0.336   3.559 -0.0269  0.5639  0.1648
 5694TIP3   OH217087   3.367   3.745   2.899 -0.2771  0.5387 -0.8430
 5694TIP3    H117088   3.324   3.818   2.943  0.9339 -0.0525  1.5137
 5694TIP3    H217089   3.426   3.709   2.965  1.3360 -0.7535 -2.8493
 5695TIP3   OH217090   5.089   2.728   1.589  0.1249  0.0730 -0.1226
 5695TIP3    H117091   5.176   2.741   1.626 -0.8962 -0.4658  2.6920
 5695TIP3    H217092   5.074   2.634   1.595 -1.0265  0.2763  0.3613
 5696TIP3   OH217093   4.156   5.359   5.142  0.4710 -0.0975 -0.5017
 5696TIP3    H117094   4.061   5.371   5.141  0.6372  1.5317 -1.1451
 5696TIP3    H217095   4.189   5.442   5.177  1.6173 -1.2243  1.2239
 5697TIP3   OH217096   0.774   2.178   3.631 -0.3419  0.3840  0.4428
 5697TIP3    H117097   0.713   2.127   3.578  0.0416 -0.3237  0.6563
 5697TIP3    H217098   0.754   2.269   3.610 -0.2606  0.1311 -0.8424
 5698TIP3   OH217099   6.258   0.075   1.124 -0.6445 -0.4419 -0.0894
 5698TIP3    H117100   6.167   0.046   1.134 -0.6245 -0.2163  0.8740
 5698TIP3    H217101   6.303   0.036   1.200  0.3788 -1.7269 -1.2994
 5699TIP3   OH217102   2.381   2.232   4.386 -1.0101 -0.0938 -0.3439
 5699TIP3    H117103   2.397   2.276   4.303 -0.7149  0.9015  0.2320
 5699TIP3    H217104   2.345   2.147   4.361  0.6957 -0.5075 -1.5372
 5700TIP3   OH217105   0.823   3.636   4.398 -0.4184  0.2471 -0.4584
 5700TIP3    H117106   0.828   3.726   4.368  2.4761  0.7164  1.0619
 5700TIP3    H217107   0.866   3.585   4.329 -0.5383  0.2573 -0.5413
 5701TIP3   OH217108   2.414   5.679   2.796  0.2746 -0.6673 -0.0020
 5701TIP3    H117109   2.323   5.650   2.793  0.2084 -0.6500  1.1172
 5701TIP3    H217110   2.466   5.600   2.782  0.1194 -0.4215 -2.3232
 5702TIP3   OH217111   0.129   0.811   2.242 -0.2151 -0.2505 -0.1333
 5702TIP3    H117112   0.150   0.834   2.332 -0.5656  0.0751 -0.1339
 5702TIP3    H217113   0.078   0.730   2.250  2.6817 -2.2651 -0.2306
 5703TIP3   OH217114   1.332   0.243   1.302 -0.1669 -0.7805 -0.2486
 5703TIP3    H117115   1.274   0.303   1.254 -0.7388 -2.5013 -1.8087
 5703TIP3    H217116   1.401   0.300   1.337 -0.3583  0.7387 -2.1595
 5704TIP3   OH217117   0.470   4.946   2.928  0.3131 -0.1465  0.2301
 5704TIP3    H117118   0.452   4.992   2.846  0.8752 -1.5860 -0.7304
 5704TIP3    H217119   0.563   4.962   2.945  0.3056 -0.2331  0.3527
 5705TIP3   OH217120   4.038   0.178   1.799  0.4063  0.1594  0.3261
 5705TIP3    H117121   4.035   0.083   1.812 -1.0677 -0.2320 -2.3046
 5705TIP3    H217122   3.988   0.213   1.873  1.2830 -1.0506  1.5408
 5706TIP3   OH217123   5.572   3.728   4.587 -0.0688  0.1799  0.2679
 5706TIP3    H117124   5.482   3.700   4.572 -0.0993  0.1668  0.4759
 5706TIP3    H217125   5.605   3.748   4.500 -1.3410  3.4746  0.3797
 5707TIP3   OH217126   4.047   5.480   2.237  0.4520  0.7081 -0.1350
 5707TIP3    H117127   4.012   5.414   2.176  0.4765  0.8626 -0.3179
 5707TIP3    H217128   3.976   5.495   2.299  0.9989 -0.6240  0.8358
 5708TIP3   OH217129   5.620   0.749   4.711  0.2459  0.0657  0.1665
 5708TIP3    H117130   5.602   0.842   4.723  0.2573  0.1125 -0.1656
 5708TIP3    H217131   5.547   0.704   4.753  0.2896  0.2218  0.4096
 5709TIP3   OH217132   3.194   3.027   1.508 -0.1683 -0.4854  0.2258
 5709TIP3    H117133   3.248   3.058   1.436  0.6411 -1.4722  0.3712
 5709TIP3    H217134   3.243   3.051   1.587 -1.0490  0.5939  0.4582
 5710TIP3   OH217135   4.681   2.142   0.195 -0.2882  0.0795 -0.2949
 5710TIP3    H117136   4.603   2.173   0.149 -0.1577 -1.0113 -1.2990
 5710TIP3    H217137   4.681   2.190   0.278 -1.0727  1.3725 -1.0155
 5711TIP3   OH217138   6.198   4.436   2.452 -0.6729  0.1202 -0.1463
 5711TIP3    H117139   6.210   4.381   2.530 -0.2175  0.9270  0.3612
 5711TIP3    H217140   6.121   4.399   2.408 -0.1490 -1.1770 -0.0378
 5712TIP3   OH217141   5.135   3.824   4.620  0.0289 -0.0795  0.7000
 5712TIP3    H117142   5.127   3.808   4.714 -0.1260  0.0904  0.7161
 5712TIP3    H217143   5.063   3.884   4.600  0.6202  0.6216  0.6415
 5713TIP3   OH217144   0.072   0.280   4.886  0.1084  0.3701 -0.1850
 5713TIP3    H117145   0.103   0.366   4.858  1.9443  0.3484  1.5739
 5713TIP3    H217146   0.152   0.228   4.896 -0.9430 -1.5426 -1.0713
 5714TIP3   OH217147   5.488   4.431   1.185 -0.3286  0.1510 -0.3642
 5714TIP3    H117148   5.498   4.420   1.090  0.0147 -0.5417 -0.2571
 5714TIP3    H217149   5.495   4.342   1.220  2.0607  0.5990  0.5254
 5715TIP3   OH217150   4.206   0.248   0.874 -0.5182  0.1189 -0.2640
 5715TIP3    H117151   4.269   0.223   0.807  0.2581 -0.8473  0.7803
 5715TIP3    H217152   4.236   0.334   0.904 -0.8009  0.4985 -1.0652
 5716TIP3   OH217153   0.205   1.565   1.119  0.1368 -0.2238  0.3792
 5716TIP3    H117154   0.181   1.627   1.188  0.8316 -0.3136  0.7106
 5716TIP3    H217155   0.138   1.497   1.123  0.1967 -0.2486  0.9928
 5717TIP3   OH217156   2.291   2.680   3.050 -0.9917 -0.2567 -0.7351
 5717TIP3    H117157   2.386   2.682   3.061 -1.0436 -0.0309 -0.3308
 5717TIP3    H217158   2.277   2.704   2.959 -0.5417 -2.4526 -1.4529
 5718TIP3   OH217159   4.379   1.990   4.402  0.4980  0.3944 -0.3506
 5718TIP3    H117160   4.375   1.972   4.496  0.2006 -2.6825 -0.8502
 5718TIP3    H217161   4.463   2.033   4.390  1.6052 -1.2041  1.0971
 5719TIP3   OH217162   0.392   2.880   0.874 -0.0217 -0.1990 -0.3554
 5719TIP3    H117163   0.446   2.881   0.953  1.8115 -0.0773 -1.5482
 5719TIP3    H217164   0.359   2.790   0.868 -0.2535 -0.1823  0.5692
 5720TIP3   OH217165   5.608   0.341   3.855 -0.3920 -0.0752  0.3256
 5720TIP3    H117166   5.593   0.430   3.824 -1.6401  0.2696  1.7981
 5720TIP3    H217167   5.660   0.300   3.786 -0.7795  1.4369 -0.9201
 5721TIP3   OH217168   3.381   0.488   3.716 -0.0383 -0.4808  0.0222
 5721TIP3    H117169   3.312   0.458   3.657 -0.8029 -0.1745  0.7413
 5721TIP3    H217170   3.446   0.528   3.659 -0.7896 -0.1498 -0.6118
 5722TIP3   OH217171   3.889   0.155   2.021 -0.4640 -0.3105 -0.1778
 5722TIP3    H117172   3.862   0.214   2.091 -0.1765 -0.4937  0.0922
 5722TIP3    H217173   3.846   0.072   2.042  1.2613 -0.9670  0.9563
 5723TIP3   OH217174   0.292   4.374   1.732  0.2434  0.5159 -0.4465
 5723TIP3    H117175   0.371   4.379   1.786 -0.8756 -2.3075  1.7314
 5723TIP3    H217176   0.315   4.313   1.662 -0.3217 -1.4740  1.0205
 5724TIP3   OH217177   2.606   4.111   3.069  0.0771 -0.8091 -0.3398
 5724TIP3    H117178   2.630   4.201   3.089  2.4696 -1.3258 -0.6112
 5724TIP3    H217179   2.519   4.100   3.108  1.0732  0.6491  2.6365
 5725TIP3   OH217180   5.536   0.429   3.474 -0.7265 -0.2548  0.4448
 5725TIP3    H117181   5.563   0.463   3.559  0.4871 -0.7606  0.2829
 5725TIP3    H217182   5.457   0.479   3.452  0.3927  1.6873  0.6872
 5726TIP3   OH217183   0.098   3.165   1.118  0.0655 -0.2140 -0.0743
 5726TIP3    H117184   0.017   3.169   1.170 -0.4894 -0.4433 -0.9006
 5726TIP3    H217185   0.145   3.245   1.140 -0.0376 -0.4259  0.9688
 5727TIP3   OH217186   5.482   2.597   5.105 -1.0095  0.0056 -0.1606
 5727TIP3    H117187   5.488   2.528   5.171  0.2032  0.8623  0.6626
 5727TIP3    H217188   5.430   2.558   5.035 -0.3553 -1.7444  0.2704
 5728TIP3   OH217189   1.198   3.880   3.927 -0.1119  0.3181 -1.1297
 5728TIP3    H117190   1.210   3.789   3.954 -1.5589 -0.3371 -2.5347
 5728TIP3    H217191   1.266   3.895   3.862  0.9931  0.7081  0.0770
 5729TIP3   OH217192   3.235   4.176   4.233 -0.1747 -0.0679  0.0430
 5729TIP3    H117193   3.277   4.234   4.169  1.1656 -1.2114 -0.1586
 5729TIP3    H217194   3.175   4.233   4.280 -1.9477  0.6355 -2.8352
 5730TIP3   OH217195   5.269   5.062   2.725  0.2742  0.0182 -0.2523
 5730TIP3    H117196   5.229   5.137   2.769 -0.8419 -0.6771 -0.0223
 5730TIP3    H217197   5.361   5.065   2.750 -0.0784  0.3952  1.0450
 5731TIP3   OH217198   4.974   4.234   2.896 -0.2050  0.0241  0.1960
 5731TIP3    H117199   4.990   4.151   2.940  1.4721 -0.9438 -2.0134
 5731TIP3    H217200   4.886   4.259   2.922 -1.0862 -2.8654  0.3354
 5732TIP3   OH217201   2.250   2.386   0.636 -0.0240 -0.0501  0.0568
 5732TIP3    H117202   2.176   2.342   0.594  0.8948 -1.1158 -0.5087
 5732TIP3    H217203   2.218   2.474   0.655 -1.8050 -0.8157  0.8561
 5733TIP3   OH217204   1.604   1.922   5.003 -0.0003  0.2066  0.2039
 5733TIP3    H117205   1.531   1.937   4.943 -0.5612  0.6228  0.9827
 5733TIP3    H217206   1.573   1.854   5.063  0.8765 -0.8513 -0.4867
 5734TIP3   OH217207   4.617   2.041   2.800 -0.4201  0.0600  0.0977
 5734TIP3    H117208   4.704   2.045   2.760 -0.5746  1.4400 -0.1435
 5734TIP3    H217209   4.579   1.960   2.767  0.2866  0.0901 -0.8304
 5735TIP3   OH217210   3.053   2.049   1.883  0.4147  0.1178 -0.1080
 5735TIP3    H117211   3.030   1.957   1.870 -0.7560  0.5054 -0.9113
 5735TIP3    H217212   2.977   2.087   1.925  0.5087  0.9181 -0.6417
 5736TIP3   OH217213   0.258   5.516   3.749 -0.4532  0.4196  0.0349
 5736TIP3    H117214   0.167   5.534   3.727  0.0326 -0.6854 -3.6038
 5736TIP3    H217215   0.304   5.599   3.731 -0.5346  0.6138  0.6798
 5737TIP3   OH217216   1.083   2.396   2.644 -0.2705 -0.2364 -0.1507
 5737TIP3    H117217   1.173   2.421   2.622 -0.4286  2.0845  1.5205
 5737TIP3    H217218   1.041   2.383   2.559  1.3690 -0.4672 -0.9807
 5738TIP3   OH217219   3.707   2.698   1.689 -0.1410  0.1910  0.0310
 5738TIP3    H117220   3.751   2.654   1.616 -1.8453  0.4900 -1.2309
 5738TIP3    H217221   3.776   2.747   1.733  1.2651 -1.4161 -0.2690
 5739TIP3   OH217222   1.767   4.713   2.242  0.0048 -0.4304 -0.0010
 5739TIP3    H117223   1.812   4.628   2.248 -0.9166 -0.9133  0.1544
 5739TIP3    H217224   1.704   4.713   2.314  0.2276  0.5387  0.2113
 5740TIP3   OH217225   0.105   5.219   4.905 -0.2199 -0.3231 -0.5073
 5740TIP3    H117226   0.141   5.135   4.931 -0.7920  0.5100  3.7492
 5740TIP3    H217227   0.181   5.274   4.888  0.3839 -0.4059  1.6867
 5741TIP3   OH217228   2.517   4.295   3.822  0.1007  0.7047 -0.1682
 5741TIP3    H117229   2.587   4.359   3.812  0.5677  0.2205 -0.0676
 5741TIP3    H217230   2.470   4.321   3.901 -0.4338  1.5841 -0.7561
 5742TIP3   OH217231   0.495   4.329   3.096  0.6483 -0.6127 -0.7310
 5742TIP3    H117232   0.403   4.350   3.111  0.6998  0.9282 -2.1997
 5742TIP3    H217233   0.496   4.286   3.011  1.2999 -0.4157 -0.8269
 5743TIP3   OH217234   0.857   4.883   4.680 -0.2482 -0.8281  0.4649
 5743TIP3    H117235   0.898   4.933   4.751 -1.1252  1.0524 -0.2864
 5743TIP3    H217236   0.785   4.939   4.650 -0.3415 -1.8983 -1.4404
 5744TIP3   OH217237   3.724   2.805   0.845  0.0133  0.2414 -0.6883
 5744TIP3    H117238   3.729   2.763   0.930 -0.0628  0.3722 -0.6189
 5744TIP3    H217239   3.685   2.891   0.862 -1.3104 -0.2585 -1.0226
 5745TIP3   OH217240   2.758   0.383   1.394 -0.4932 -0.3615 -0.4413
 5745TIP3    H117241   2.840   0.424   1.366 -0.0815 -1.0385 -0.2573
 5745TIP3    H217242   2.730   0.333   1.317 -0.9729  0.2172 -0.6525
 5746TIP3   OH217243   1.912   1.926   4.678 -0.5552  0.2435 -0.2344
 5746TIP3    H117244   1.977   1.859   4.654  0.8860  1.5281 -0.0497
 5746TIP3    H217245   1.892   1.907   4.770  0.6936  0.7140  0.1516
 5747TIP3   OH217246   4.775   1.934   3.073  0.0127 -0.5773  0.1191
 5747TIP3    H117247   4.811   2.020   3.051  1.2075 -0.2526  2.8600
 5747TIP3    H217248   4.817   1.874   3.012  0.2963  0.6040 -0.8899
 5748TIP3   OH217249   1.809   5.261   4.406 -0.0022  0.6880  0.3941
 5748TIP3    H117250   1.729   5.288   4.450  0.8044  3.1374  0.5176
 5748TIP3    H217251   1.846   5.343   4.371  0.3233 -0.8280 -3.3451
 5749TIP3   OH217252   4.344   4.627   2.124  0.3719  0.0453  0.2717
 5749TIP3    H117253   4.330   4.688   2.196  1.2525  0.2651  0.2635
 5749TIP3    H217254   4.301   4.546   2.153 -0.3117  0.4840  0.5187
 5750TIP3   OH217255   4.344   0.192   1.485  0.4917 -0.6654 -0.1751
 5750TIP3    H117256   4.354   0.279   1.447  1.4537 -0.6117  0.1759
 5750TIP3    H217257   4.426   0.177   1.533  0.8250 -2.1827 -1.1143
 5751TIP3   OH217258   4.882   1.518   3.798 -0.2291 -0.2287  0.0343
 5751TIP3    H117259   4.864   1.590   3.738  0.1571 -0.8976 -0.9188
 5751TIP3    H217260   4.917   1.560   3.877 -1.0783  0.6889 -0.0673
 5752TIP3   OH217261   3.110   1.898   5.086 -0.2561 -0.2753 -0.0025
 5752TIP3    H117262   3.100   1.911   4.991  0.9331  0.1004 -0.0926
 5752TIP3    H217263   3.077   1.980   5.124 -0.2874 -0.2336 -0.1159
 5753TIP3   OH217264   3.843   0.541   2.141 -0.6047 -0.0368  0.0893
 5753TIP3    H117265   3.757   0.499   2.139 -1.0600  0.8858 -0.3842
 5753TIP3    H217266   3.832   0.622   2.091  0.7832 -0.3488 -0.8016
 5754TIP3   OH217267   5.791   2.754   4.561 -0.2930 -0.7735  0.0300
 5754TIP3    H117268   5.788   2.662   4.536  3.7704 -2.4272  4.2316
 5754TIP3    H217269   5.719   2.764   4.624  0.0627 -1.5363  0.5775
 5755TIP3   OH217270   1.597   0.632   4.842  0.2071  0.6258  0.2164
 5755TIP3    H117271   1.509   0.647   4.876 -0.7729  0.0922 -1.9432
 5755TIP3    H217272   1.619   0.544   4.872  0.1339  0.8469  0.9600
 5756TIP3   OH217273   3.189   4.615   0.770 -0.3837 -0.1176 -0.2317
 5756TIP3    H117274   3.155   4.526   0.770 -1.4207  0.2261 -1.5078
 5756TIP3    H217275   3.145   4.658   0.843 -0.5486 -0.4225 -0.1519
 5757TIP3   OH217276   2.619   0.293   2.703 -0.1181  0.1809 -0.3940
 5757TIP3    H117277   2.608   0.199   2.686 -0.8763 -0.1293  1.6137
 5757TIP3    H217278   2.713   0.304   2.717 -0.0648 -0.3238 -0.3443
 5758TIP3   OH217279   2.428   4.046   3.727  0.3051 -0.2631 -0.0058
 5758TIP3    H117280   2.370   4.065   3.800 -2.4976 -0.0323 -2.1149
 5758TIP3    H217281   2.441   4.130   3.684 -1.1265 -0.8694 -1.7648
 5759TIP3   OH217282   1.243   4.958   0.411 -0.7402  0.3403 -0.3531
 5759TIP3    H117283   1.298   4.989   0.483  0.3227 -4.7368  1.4713
 5759TIP3    H217284   1.300   4.899   0.362 -3.2077 -1.3444 -1.3635
 5760TIP3   OH217285   0.111   0.579   4.135 -0.0666 -0.1260 -0.3698
 5760TIP3    H117286   0.054   0.507   4.110 -0.7569 -0.4516  1.9003
 5760TIP3    H217287   0.159   0.601   4.055 -1.4936 -1.5550 -1.6897
 5761TIP3   OH217288   2.598   4.177   2.165  0.0820  0.2879 -0.0969
 5761TIP3    H117289   2.654   4.120   2.218  0.0781 -0.1833 -0.5917
 5761TIP3    H217290   2.597   4.261   2.212 -1.2142 -0.5679  1.5052
 5762TIP3   OH217291   0.190   5.525   4.587 -0.0687 -0.5698 -1.0114
 5762TIP3    H117292   0.127   5.455   4.569  1.4891 -2.1630 -0.4957
 5762TIP3    H217293   0.219   5.509   4.676  0.4433  0.6517 -0.9433
 5763TIP3   OH217294   2.129   0.197   0.906 -0.3560 -0.0707  0.2417
 5763TIP3    H117295   2.093   0.113   0.878  0.1778 -0.9421  1.9766
 5763TIP3    H217296   2.065   0.231   0.969 -0.4889  0.7638 -0.3254
 5764TIP3   OH217297   2.952   3.642   0.833  0.4065  0.1986  0.2050
 5764TIP3    H117298   3.028   3.590   0.809  0.1864 -0.7676  1.4780
 5764TIP3    H217299   2.914   3.596   0.908 -1.7810  0.3132 -0.7569
 5765TIP3   OH217300   2.839   5.248   0.098  0.1064 -0.2881  0.8364
 5765TIP3    H117301   2.858   5.329   0.051  0.8653  0.4519  2.3307
 5765TIP3    H217302   2.863   5.178   0.037 -1.4081  0.5638 -0.8091
 5766TIP3   OH217303   3.034   0.707   1.562  0.1990  0.4315 -0.8338
 5766TIP3    H117304   2.991   0.784   1.525  0.3736  1.5798  1.1844
 5766TIP3    H217305   3.112   0.742   1.605 -0.5710 -0.5854  1.5293
 5767TIP3   OH217306   1.629   1.175   4.037 -0.0275 -1.2191  0.2626
 5767TIP3    H117307   1.576   1.241   4.080 -2.0165 -1.2999 -1.8869
 5767TIP3    H217308   1.602   1.092   4.077 -2.6845 -1.4276 -1.6760
 5768TIP3   OH217309   2.631   5.676   2.150 -0.5600 -0.6938 -0.7159
 5768TIP3    H117310   2.712   5.726   2.149 -1.4999  0.8869 -1.7620
 5768TIP3    H217311   2.628   5.633   2.065 -0.7067 -0.9542 -0.5820
 5769TIP3   OH217312   1.173   4.211   1.538 -0.0068  0.0507  0.1017
 5769TIP3    H117313   1.196   4.271   1.608 -1.9539  1.2911 -0.2302
 5769TIP3    H217314   1.157   4.127   1.581  0.6499  0.3124  0.8649
 5770TIP3   OH217315   0.724   0.812   4.584  0.2838  0.1502  0.5446
 5770TIP3    H117316   0.685   0.821   4.671  0.0334  0.6927  0.3854
 5770TIP3    H217317   0.807   0.860   4.589  1.0576 -1.1952  0.9478
 5771TIP3   OH217318   4.373   2.134   2.374  0.2066 -0.2965 -0.0799
 5771TIP3    H117319   4.448   2.159   2.429  0.7122  0.0651 -0.9201
 5771TIP3    H217320   4.297   2.150   2.429  0.4704  3.3003 -0.5757
 5772TIP3   OH217321   2.308   3.894   2.040 -0.1410 -0.3000  0.0215
 5772TIP3    H117322   2.370   3.898   2.113  2.5078 -0.6686 -2.0528
 5772TIP3    H217323   2.335   3.817   1.991 -2.1374 -0.3079 -1.1270
 5773TIP3   OH217324   1.807   5.092   1.928  0.3452 -0.0063  0.4488
 5773TIP3    H117325   1.816   5.104   1.834  2.6169 -1.2908  0.4209
 5773TIP3    H217326   1.746   5.019   1.938 -0.3444  0.5015  0.0222
 5774TIP3   OH217327   2.109   2.270   2.215 -0.4832  0.1662  0.2151
 5774TIP3    H117328   2.083   2.246   2.126  0.9453 -2.0063  0.3169
 5774TIP3    H217329   2.082   2.361   2.224 -1.8836  0.0320 -1.9558
 5775TIP3   OH217330   1.628   3.972   3.333  0.0776  0.4833  0.5622
 5775TIP3    H117331   1.709   3.956   3.382 -0.5844 -1.3284  1.1559
 5775TIP3    H217332   1.650   4.044   3.274  2.2907 -0.2491  0.3817
 5776TIP3   OH217333   1.535   4.127   2.094 -0.0841 -0.1825  0.2655
 5776TIP3    H117334   1.480   4.074   2.037 -1.1503  0.1985  0.8958
 5776TIP3    H217335   1.473   4.179   2.145  0.8494 -0.1203  1.3894
 5777TIP3   OH217336   0.518   4.867   4.734 -0.0566  0.4841 -0.2094
 5777TIP3    H117337   0.480   4.943   4.778  2.2447  1.4849  0.1797
 5777TIP3    H217338   0.560   4.902   4.656  0.7241 -0.4192 -0.2197
 5778TIP3   OH217339   2.512   5.275   4.890  0.0458  0.5267  0.3463
 5778TIP3    H117340   2.598   5.239   4.911  0.8697  1.7509 -0.8011
 5778TIP3    H217341   2.481   5.313   4.972  1.1240  1.0866  0.5157
 5779TIP3   OH217342   4.306   5.340   1.625  0.1218 -0.5961 -0.7785
 5779TIP3    H117343   4.273   5.250   1.629  0.7914 -0.8690 -1.2096
 5779TIP3    H217344   4.372   5.345   1.694 -0.5795 -0.1458 -0.1251
 5780TIP3   OH217345   2.433   5.099   0.964 -0.1200 -0.3712 -0.1175
 5780TIP3    H117346   2.512   5.085   0.911  0.0861 -1.0721  0.3540
 5780TIP3    H217347   2.459   5.075   1.053 -1.0590 -1.3415 -0.0801
 5781TIP3   OH217348   5.702   2.639   3.037  0.2731 -0.6682 -0.0170
 5781TIP3    H117349   5.705   2.544   3.032 -0.8032 -0.6972 -0.3573
 5781TIP3    H217350   5.669   2.667   2.951  0.6831  0.0163  0.0396
 5782TIP3   OH217351   3.161   1.920   3.652 -0.3989  0.1114  0.0874
 5782TIP3    H117352   3.095   1.860   3.618 -0.6883  0.7397 -0.4925
 5782TIP3    H217353   3.227   1.926   3.582  0.4966 -0.8274  0.8233
 5783TIP3   OH217354   5.226   0.460   3.713 -0.0261  0.3111 -0.2714
 5783TIP3    H117355   5.269   0.477   3.797 -0.2451  0.7000 -0.2378
 5783TIP3    H217356   5.259   0.528   3.655  0.6270 -0.3377 -0.6927
 5784TIP3   OH217357   0.234   5.986   4.431 -0.1776  0.2222  0.1597
 5784TIP3    H117358   0.307   5.986   4.493  0.1017 -1.9980 -0.0730
 5784TIP3    H217359   0.217   5.893   4.414  0.1558  0.6905 -3.5634
 5785TIP3   OH217360   2.576   4.460   4.152 -0.0325 -0.6849  0.0557
 5785TIP3    H117361   2.566   4.552   4.177  1.2742 -0.1211 -1.3970
 5785TIP3    H217362   2.487   4.432   4.130 -0.1439  0.9243 -1.7541
 5786TIP3   OH217363   3.816   4.412   0.936  0.5983 -0.8141  0.1390
 5786TIP3    H117364   3.850   4.397   1.024 -1.5049 -1.6774  0.8831
 5786TIP3    H217365   3.746   4.347   0.926  2.9404 -3.1175 -3.5404
 5787TIP3   OH217366   3.775   4.980   3.575  0.5107  0.4843 -0.3483
 5787TIP3    H117367   3.687   5.018   3.569  0.7763  1.0702 -0.5483
 5787TIP3    H217368   3.816   5.023   3.650  0.1301 -0.8419  0.6629
 5788TIP3   OH217369   1.579   0.177   3.204 -0.0218 -0.3531 -0.3114
 5788TIP3    H117370   1.489   0.169   3.173 -0.4566  0.3929  0.6949
 5788TIP3    H217371   1.591   0.101   3.261  0.3174 -0.9748 -1.1975
 5789TIP3   OH217372   5.827   3.345   2.770  0.0228 -0.0224  0.6100
 5789TIP3    H117373   5.841   3.290   2.847 -0.2781 -1.5065 -0.3597
 5789TIP3    H217374   5.913   3.351   2.729 -0.0443 -0.1613  0.4508
 5790TIP3   OH217375   3.367   1.821   0.420  0.5994 -0.2296  0.1784
 5790TIP3    H117376   3.411   1.877   0.484 -0.7739 -0.8523  1.7279
 5790TIP3    H217377   3.276   1.820   0.447  0.1165 -1.1189 -1.3659
 5791TIP3   OH217378   0.444   3.209   3.365  0.4424  0.0086  0.5153
 5791TIP3    H117379   0.521   3.213   3.309  1.1010  2.9629  1.4739
 5791TIP3    H217380   0.470   3.154   3.438  1.8782  1.3348  1.0577
 5792TIP3   OH217381   4.440   3.637   1.458  0.1095 -0.0914 -0.1355
 5792TIP3    H117382   4.462   3.557   1.411  0.3450  0.0207 -0.2190
 5792TIP3    H217383   4.386   3.687   1.397 -0.2477 -0.3010  0.0125
 5793TIP3   OH217384   1.517   5.061   0.164  0.0480 -0.0982  0.2327
 5793TIP3    H117385   1.496   5.132   0.224  0.6944  0.7363 -0.4948
 5793TIP3    H217386   1.533   5.104   0.080  2.3964 -0.8520  0.2058
 5794TIP3   OH217387   4.630   1.831   3.778 -0.2288 -0.0504  0.3656
 5794TIP3    H117388   4.581   1.879   3.711  0.0064  1.9590  1.5576
 5794TIP3    H217389   4.709   1.800   3.733 -0.8622 -0.1960 -0.6731
 5795TIP3   OH217390   0.376   5.269   4.566 -0.2086 -0.1202 -0.0273
 5795TIP3    H117391   0.307   5.333   4.585  1.0741  0.5982  2.7408
 5795TIP3    H217392   0.338   5.185   4.592 -0.3319  0.1770  0.7983
 5796TIP3   OH217393   5.014   4.172   4.374  0.4438  0.1779 -0.1237
 5796TIP3    H117394   5.077   4.108   4.339  1.3111  1.8470 -1.7776
 5796TIP3    H217395   5.059   4.210   4.449 -0.1251 -1.1718  0.9471
 5797TIP3   OH217396   5.036   4.574   2.487 -0.0940  0.4967  0.2164
 5797TIP3    H117397   5.106   4.619   2.439 -0.1716  0.5400  0.1434
 5797TIP3    H217398   5.074   4.555   2.573 -0.1271  0.8719  0.3158
 5798TIP3   OH217399   2.039   4.106   0.656 -0.2206 -0.3275 -0.4695
 5798TIP3    H117400   2.057   4.012   0.644  0.8083 -0.4292  1.5216
 5798TIP3    H217401   2.112   4.150   0.614 -1.3282 -0.3045 -2.5241
 5799TIP3   OH217402   2.906   0.295   2.723  0.4099 -0.3460  0.1627
 5799TIP3    H117403   2.968   0.228   2.696  0.4758 -0.4612  0.5978
 5799TIP3    H217404   2.903   0.289   2.818 -2.4886 -2.3686  0.0801
 5800TIP3   OH217405   0.657   3.520   5.134  0.0776  0.1565 -0.0553
 5800TIP3    H117406   0.716   3.480   5.071 -0.1292  2.3456 -1.7867
 5800TIP3    H217407   0.582   3.462   5.138  0.1184 -0.0744 -1.8544
 5801TIP3   OH217408   3.366   1.429   4.813 -0.4606  0.2185  0.6671
 5801TIP3    H117409   3.409   1.360   4.762  0.2136  1.5555 -0.6395
 5801TIP3    H217410   3.423   1.442   4.889 -0.0425  0.0331  0.3903
 5802TIP3   OH217411   0.530   4.173   4.163  0.0709 -0.1090  0.7093
 5802TIP3    H117412   0.616   4.140   4.139  0.6575  1.9756 -0.2367
 5802TIP3    H217413   0.539   4.268   4.165 -2.6725  0.3473 -1.5549
 5803TIP3   OH217414   2.553   2.911   4.022 -0.1613  0.0408  0.1120
 5803TIP3    H117415   2.557   2.833   4.077 -0.2762  0.5107  0.7923
 5803TIP3    H217416   2.551   2.985   4.083  1.7041  0.6826 -0.5083
 5804TIP3   OH217417   4.486   1.147   4.654 -0.0566 -0.0502 -0.1758
 5804TIP3    H117418   4.452   1.095   4.581 -1.8815  1.8881 -0.8334
 5804TIP3    H217419   4.457   1.100   4.732  0.8599 -1.5101 -0.6772
 5805TIP3   OH217420   3.263   5.165   2.966 -0.2335 -0.3497  0.0157
 5805TIP3    H117421   3.269   5.260   2.979 -0.9410 -0.2559 -0.3106
 5805TIP3    H217422   3.177   5.151   2.927 -0.5599 -1.2421  1.0065
 5806TIP3   OH217423   6.240   5.026   0.395  0.3749 -0.0145 -0.1084
 5806TIP3    H117424   6.318   5.032   0.450  1.3095 -0.9574 -1.2560
 5806TIP3    H217425   6.258   5.087   0.322 -0.7248  1.0269  0.4583
 5807TIP3   OH217426   3.954   4.937   1.072 -0.4454 -0.2163 -0.3058
 5807TIP3    H117427   4.050   4.944   1.079 -0.5339  0.5967  0.2109
 5807TIP3    H217428   3.940   4.867   1.008  0.4898 -0.7927  0.0845
 5808TIP3   OH217429   0.681   4.124   2.779  0.6355 -0.0115  0.0594
 5808TIP3    H117430   0.738   4.153   2.850  0.0869  0.8776  0.1570
 5808TIP3    H217431   0.618   4.195   2.768  0.6842 -0.1483 -1.2975
 5809TIP3   OH217432   1.402   2.766   1.328  0.2043  0.2358 -0.3316
 5809TIP3    H117433   1.477   2.746   1.384 -1.0489 -0.3492  1.1957
 5809TIP3    H217434   1.434   2.749   1.239  1.7710 -0.3053  0.2983
 5810TIP3   OH217435   1.387   4.696   1.602  0.3946 -0.4780  0.3330
 5810TIP3    H117436   1.456   4.757   1.630  0.1886 -0.1247  0.0859
 5810TIP3    H217437   1.408   4.614   1.646  1.5547 -0.6794 -0.5334
 5811TIP3   OH217438   3.717   1.585   0.297 -0.6513  0.2426 -0.9417
 5811TIP3    H117439   3.752   1.636   0.223  2.8021  1.5697  1.3575
 5811TIP3    H217440   3.702   1.650   0.365  1.5141 -1.3759  1.2678
 5812TIP3   OH217441   5.617   0.292   2.507  0.6684  0.2281 -0.4380
 5812TIP3    H117442   5.576   0.229   2.566  1.3844 -1.2057 -1.4131
 5812TIP3    H217443   5.644   0.240   2.431 -0.6434  2.0922 -2.2727
 5813TIP3   OH217444   5.558   3.545   3.038 -0.4814  0.2017 -0.2153
 5813TIP3    H117445   5.583   3.550   2.946 -0.2044  0.8607 -0.1146
 5813TIP3    H217446   5.569   3.453   3.061 -0.6561  0.0097 -0.8642
 5814TIP3   OH217447   4.859   3.940   4.179 -0.0151 -0.9811  0.1497
 5814TIP3    H117448   4.810   4.022   4.185 -1.3174 -1.7983  1.2447
 5814TIP3    H217449   4.921   3.943   4.252 -1.7521 -1.9835  1.7556
 5815TIP3   OH217450   0.111   5.898   1.621 -0.0513  0.1147 -0.2723
 5815TIP3    H117451   0.190   5.910   1.674  1.0101  1.0718 -1.9766
 5815TIP3    H217452   0.121   5.810   1.583  1.1441  0.9116 -1.9041
 5816TIP3   OH217453   3.414   1.899   0.970 -0.2737  0.4481  0.2203
 5816TIP3    H117454   3.405   1.913   1.064  0.0515  1.4038  0.1170
 5816TIP3    H217455   3.461   1.976   0.938 -1.5010  0.7655 -0.9217
 5817TIP3   OH217456   2.192   1.324   3.691  0.2152  0.2298  0.2066
 5817TIP3    H117457   2.182   1.336   3.597  0.5070  0.6769  0.2313
 5817TIP3    H217458   2.192   1.413   3.727  1.3093  0.1191  0.5023
 5818TIP3   OH217459   2.767   2.108   1.632 -0.1540 -0.2757  0.0333
 5818TIP3    H117460   2.848   2.128   1.585 -0.4656  1.9015  0.3379
 5818TIP3    H217461   2.698   2.120   1.568 -0.3728 -0.1288  0.2937
 5819TIP3   OH217462   2.015   5.687   4.074 -0.2097 -0.3322  0.1444
 5819TIP3    H117463   2.014   5.736   3.991 -0.3628 -0.2262  0.2084
 5819TIP3    H217464   2.052   5.748   4.137 -1.0462 -0.0531  0.3745
 5820TIP3   OH217465   2.620   3.409   3.079 -0.5554 -0.1838  0.1650
 5820TIP3    H117466   2.539   3.366   3.050  0.1033 -0.8494 -0.7217
 5820TIP3    H217467   2.593   3.500   3.095 -1.0444  0.1920 -2.3482
 5821TIP3   OH217468   2.944   4.554   3.612 -0.5417  0.2530 -0.1357
 5821TIP3    H117469   2.935   4.644   3.580  0.4538  0.9271  1.3617
 5821TIP3    H217470   3.029   4.526   3.579 -0.5513  0.1074 -0.0347
 5822TIP3   OH217471   5.274   4.731   4.165 -0.8744 -0.4177  0.5435
 5822TIP3    H117472   5.192   4.779   4.156 -1.2233 -0.8514  1.3465
 5822TIP3    H217473   5.324   4.755   4.086 -1.0121  1.2817  0.9265
 5823TIP3   OH217474   5.605   4.604   5.057  0.2126  0.1306  0.1624
 5823TIP3    H117475   5.645   4.691   5.063  1.3100 -0.3439 -0.0488
 5823TIP3    H217476   5.617   4.578   4.966 -2.0787  0.6479 -0.3354
 5824TIP3   OH217477   4.601   5.093   0.371 -1.1749 -0.0564 -0.9364
 5824TIP3    H117478   4.526   5.150   0.357 -2.9746 -1.6950  1.1844
 5824TIP3    H217479   4.650   5.134   0.443 -0.7343  0.3566 -1.4654
 5825TIP3   OH217480   3.377   4.287   2.840  0.3208  0.0891 -0.3030
 5825TIP3    H117481   3.454   4.284   2.785 -0.5888  0.0639 -1.6266
 5825TIP3    H217482   3.380   4.206   2.891  0.6572 -0.3820 -1.0558
 5826TIP3   OH217483   3.614   2.313   1.925  0.1554 -0.4168  0.1200
 5826TIP3    H117484   3.612   2.289   1.832  1.0151 -3.4344  0.7556
 5826TIP3    H217485   3.702   2.348   1.938  0.1860 -0.3980 -0.1271
 5827TIP3   OH217486   0.127   0.331   4.367 -0.1167 -0.8731 -0.0912
 5827TIP3    H117487   0.194   0.394   4.338 -1.1405 -0.3293 -1.3503
 5827TIP3    H217488   0.055   0.385   4.397 -0.3347 -1.4583  0.4470
 5828TIP3   OH217489   2.201   5.163   4.973  0.1807  0.0717 -0.0494
 5828TIP3    H117490   2.203   5.079   5.020  1.3589  0.3244  0.3807
 5828TIP3    H217491   2.112   5.169   4.939 -0.5104 -0.4193  1.5936
 5829TIP3   OH217492   2.246   3.621   3.646 -0.3189  0.4119  0.3510
 5829TIP3    H117493   2.309   3.587   3.584  0.9478  0.9874  1.2783
 5829TIP3    H217494   2.221   3.546   3.700 -2.7331 -0.4912 -1.8358
 5830TIP3   OH217495   5.303   2.551   3.508 -0.1492  0.0612 -0.3517
 5830TIP3    H117496   5.270   2.637   3.484  0.1356 -0.0116 -1.0232
 5830TIP3    H217497   5.271   2.537   3.598 -0.2997  0.8046 -0.2851
 5831TIP3   OH217498   1.689   4.312   3.647  0.6013 -0.3781  0.4432
 5831TIP3    H117499   1.727   4.264   3.573 -0.4515  0.6451 -0.8075
 5831TIP3    H217500   1.764   4.356   3.688  1.0791 -0.2076 -0.5909
 5832TIP3   OH217501   0.234   2.708   4.945 -0.0094 -0.3502  0.2032
 5832TIP3    H117502   0.312   2.670   4.904 -0.1913 -0.5416  0.0316
 5832TIP3    H217503   0.267   2.749   5.025  0.2863 -0.3238  0.0705
 5833TIP3   OH217504   2.907   3.545   3.145  0.3252  0.0611  0.0988
 5833TIP3    H117505   2.899   3.619   3.084 -0.1430  2.4624  2.8617
 5833TIP3    H217506   2.820   3.506   3.145  0.1672  0.3956 -0.3463
 5834TIP3   OH217507   0.220   2.636   2.713 -0.8188  0.9185 -0.5211
 5834TIP3    H117508   0.130   2.617   2.741 -0.9301  2.1575  0.0240
 5834TIP3    H217509   0.258   2.550   2.694 -1.7878  0.3004  0.2566
 5835TIP3   OH217510   3.769   4.033   4.834 -0.5397  0.2775 -0.0615
 5835TIP3    H117511   3.722   4.065   4.911 -0.0660 -0.3204  0.4883
 5835TIP3    H217512   3.757   3.938   4.837  1.2497  0.0270  0.4864
 5836TIP3   OH217513   3.855   5.369   1.224  0.2539 -0.0169  0.6591
 5836TIP3    H117514   3.769   5.406   1.242  0.2813  0.8566 -0.8080
 5836TIP3    H217515   3.894   5.356   1.311 -1.2417 -0.1872  1.3310
 5837TIP3   OH217516   0.522   2.730   4.572  0.8411 -0.2202 -0.0817
 5837TIP3    H117517   0.552   2.780   4.496  1.2192 -0.5770 -0.1721
 5837TIP3    H217518   0.482   2.651   4.536  1.2768 -0.5261  0.0910
 5838TIP3   OH217519   0.764   3.747   0.934 -0.1557  0.2146 -0.0224
 5838TIP3    H117520   0.779   3.801   1.011 -1.2465 -2.1755  2.0216
 5838TIP3    H217521   0.728   3.807   0.868  2.6580  2.7120  0.5533
 5839TIP3   OH217522   5.880   5.634   1.289 -0.5360  0.1937  0.1516
 5839TIP3    H117523   5.962   5.663   1.329 -0.6150 -0.3849  0.7551
 5839TIP3    H217524   5.864   5.548   1.327 -1.2168  0.1248 -0.2702
 5840TIP3   OH217525   4.464   5.148   3.116 -0.8453 -0.0532  0.1464
 5840TIP3    H117526   4.516   5.159   3.196  0.6257 -1.3086 -0.5709
 5840TIP3    H217527   4.378   5.183   3.138  0.0576  1.3409  1.6646
 5841TIP3   OH217528   0.469   4.580   1.368 -0.0057  0.2865 -0.3502
 5841TIP3    H117529   0.495   4.508   1.310  0.9458  0.8681 -0.6625
 5841TIP3    H217530   0.374   4.585   1.358 -0.0097 -0.4876 -0.8380
 5842TIP3   OH217531   5.716   3.969   4.951 -0.0388 -0.4837 -0.0458
 5842TIP3    H117532   5.693   4.014   5.032  0.4389 -1.4812  0.6483
 5842TIP3    H217533   5.795   3.920   4.971  0.5632 -0.0935 -1.3546
 5843TIP3   OH217534   4.578   3.868   2.656 -0.0802 -0.0455  0.2632
 5843TIP3    H117535   4.596   3.892   2.565 -0.4597  0.0935  0.2211
 5843TIP3    H217536   4.655   3.898   2.704  0.8264 -1.4891 -0.2184
 5844TIP3   OH217537   0.687   5.549   0.323 -0.4111  0.6482  0.5516
 5844TIP3    H117538   0.604   5.500   0.326 -0.2918  0.3820 -0.1533
 5844TIP3    H217539   0.662   5.635   0.290 -0.5811  0.9783  1.5252
 5845TIP3   OH217540   0.648   1.738   1.327  0.4380 -0.8387  0.1455
 5845TIP3    H117541   0.560   1.767   1.350  0.9847  0.3664  0.8538
 5845TIP3    H217542   0.664   1.662   1.383  0.8507  0.6137  2.0941
 5846TIP3   OH217543   0.870   3.826   0.574  0.1373  0.1001 -0.1329
 5846TIP3    H117544   0.814   3.777   0.513 -0.5257  1.4208 -0.6356
 5846TIP3    H217545   0.909   3.894   0.520  0.9025  0.2411  0.5843
 5847TIP3   OH217546   2.391   3.441   4.975  0.3298 -0.3090 -0.6464
 5847TIP3    H117547   2.329   3.513   4.979 -0.9201 -1.3115 -1.3002
 5847TIP3    H217548   2.419   3.437   4.883  0.0396 -0.9248 -0.7167
 5848TIP3   OH217549   4.427   4.632   3.312 -0.1915 -0.2800 -0.0508
 5848TIP3    H117550   4.333   4.648   3.307 -0.0581  1.4421  1.8093
 5848TIP3    H217551   4.466   4.719   3.316  1.5328 -0.9536 -0.9703
 5849TIP3   OH217552   6.099   2.451   2.226 -0.1185 -0.1492 -0.3015
 5849TIP3    H117553   6.177   2.403   2.255 -1.3486 -1.4967  0.9755
 5849TIP3    H217554   6.052   2.388   2.171 -1.6109 -0.3486  1.1375
 5850TIP3   OH217555   3.046   4.733   0.960  0.2991 -0.6708 -0.2301
 5850TIP3    H117556   3.035   4.673   1.034 -1.3164  1.7971  1.7481
 5850TIP3    H217557   3.116   4.792   0.988 -1.0935  0.9808 -0.0597
 5851TIP3   OH217558   4.375  -0.018   4.494 -0.3835  0.1156  0.2824
 5851TIP3    H117559   4.280  -0.009   4.495 -0.4554 -0.5763  0.6429
 5851TIP3    H217560   4.405   0.031   4.571 -0.4932 -0.0616  0.4395
 5852TIP3   OH217561   1.186   4.152   2.869  0.1606  0.6042  0.6648
 5852TIP3    H117562   1.276   4.153   2.901  0.5201  0.6091 -0.2862
 5852TIP3    H217563   1.135   4.112   2.939  1.0983 -0.4894  0.7539
 5853TIP3   OH217564   6.052   1.910   2.112 -0.1829 -0.2254 -0.7242
 5853TIP3    H117565   6.060   1.939   2.021  0.4517  0.3781 -0.4807
 5853TIP3    H217566   5.957   1.903   2.126 -0.3258  0.9060 -1.0516
 5854TIP3   OH217567   2.230   3.472   4.196  0.2047  0.1715 -0.0158
 5854TIP3    H117568   2.238   3.567   4.199  1.6098  0.0732  0.2226
 5854TIP3    H217569   2.261   3.448   4.108  0.6681 -0.1186  0.2225
 5855TIP3   OH217570   2.808   2.869   2.497 -0.4260  0.1415 -0.8778
 5855TIP3    H117571   2.844   2.789   2.459  1.2704 -0.3636  1.5760
 5855TIP3    H217572   2.878   2.934   2.487 -0.0634  0.0784  0.9968
 5856TIP3   OH217573   5.172   5.759   1.839 -0.3015 -0.1465 -0.2971
 5856TIP3    H117574   5.109   5.806   1.784 -0.4148 -1.6220 -1.4890
 5856TIP3    H217575   5.256   5.773   1.795  0.0260  0.6995  0.5513
 5857TIP3   OH217576   4.075   1.266   3.923  0.0872  0.2196 -0.6751
 5857TIP3    H117577   4.050   1.178   3.950  0.3755  0.5024  0.5567
 5857TIP3    H217578   4.075   1.263   3.827 -1.7322 -0.6031 -0.6850
 5858TIP3   OH217579   4.671   2.892   4.301  0.2792  0.1850  0.5513
 5858TIP3    H117580   4.765   2.904   4.306  0.6655 -2.6595  1.6042
 5858TIP3    H217581   4.658   2.828   4.231 -0.8596  0.1667  0.7502
 5859TIP3   OH217582   3.244   5.590   4.247  0.1836 -0.0446  0.0907
 5859TIP3    H117583   3.314   5.631   4.196  3.1090 -3.1613  1.2046
 5859TIP3    H217584   3.231   5.649   4.322  1.4034  0.7484 -0.2931
 5860TIP3   OH217585   4.563   0.108   1.973  0.3106 -0.3970  0.2665
 5860TIP3    H117586   4.474   0.086   1.946  0.7587 -0.5063 -1.2243
 5860TIP3    H217587   4.568   0.204   1.962  0.2528 -0.3408  0.7340
 5861TIP3   OH217588   3.794   5.587   3.502  0.6251  0.0449 -0.2594
 5861TIP3    H117589   3.769   5.507   3.547  1.9874 -0.5434 -0.4954
 5861TIP3    H217590   3.815   5.649   3.572 -0.6963  0.3135 -0.0734
 5862TIP3   OH217591   0.456   5.113   2.711 -0.2507 -0.1152 -0.0565
 5862TIP3    H117592   0.508   5.187   2.681 -0.5622  0.3875  0.6208
 5862TIP3    H217593   0.376   5.118   2.660  0.9781 -1.8779 -2.3418
 5863TIP3   OH217594   5.481   3.937   4.787  0.1362  0.1273  0.0039
 5863TIP3    H117595   5.548   3.998   4.817  0.0273 -0.5978  1.8259
 5863TIP3    H217596   5.529   3.866   4.746  0.6138 -0.8366  2.1041
 5864TIP3   OH217597   2.436   3.805   1.123  0.5247  0.4326  0.0461
 5864TIP3    H117598   2.431   3.722   1.171 -0.3685 -1.3393 -2.8473
 5864TIP3    H217599   2.345   3.832   1.112  0.7177  0.8938 -0.4487
 5865TIP3   OH217600   6.203   1.404   1.388 -0.1268  0.0201  0.2824
 5865TIP3    H117601   6.139   1.346   1.429 -1.6255  1.9709  0.8504
 5865TIP3    H217602   6.254   1.440   1.461  0.5028 -0.2265 -0.0246
 5866TIP3   OH217603   0.196   5.104   2.524  0.0738 -0.0780  0.4158
 5866TIP3    H117604   0.237   5.069   2.444 -0.6057 -0.0104  0.0321
 5866TIP3    H217605   0.237   5.189   2.536 -1.4413  0.9588 -1.1903
 5867TIP3   OH217606   5.804   4.184   0.241  0.6993  0.2238  0.0103
 5867TIP3    H117607   5.747   4.241   0.188  0.5979  0.5081  0.4204
 5867TIP3    H217608   5.743   4.126   0.287  0.8456 -0.9234 -1.1868
 5868TIP3   OH217609   4.907   0.008   1.545  0.1554 -0.4207  0.4629
 5868TIP3    H117610   4.897   0.045   1.633  0.5163 -1.6181  1.0255
 5868TIP3    H217611   4.955   0.075   1.497 -0.3685  0.4088  1.0629
 5869TIP3   OH217612   4.613   3.165   4.603  0.1860 -0.0362 -0.3457
 5869TIP3    H117613   4.613   3.174   4.508  0.1590  2.5979 -0.1650
 5869TIP3    H217614   4.521   3.167   4.628  0.0041 -3.3634 -0.3650
 5870TIP3   OH217615   0.989   3.915   0.797 -0.5745  0.1817 -0.0635
 5870TIP3    H117616   1.000   3.862   0.876 -0.2043 -0.3793 -0.4847
 5870TIP3    H217617   0.940   3.858   0.737  1.0236 -0.2344 -1.0351
 5871TIP3   OH217618   4.791   4.545   3.460  0.1070  0.2132 -0.2113
 5871TIP3    H117619   4.720   4.532   3.523  0.1087  1.6626  0.1351
 5871TIP3    H217620   4.861   4.586   3.510  1.0149 -0.7473 -0.6663
 5872TIP3   OH217621   3.540   5.050   2.470 -0.1407  0.5187 -0.0425
 5872TIP3    H117622   3.604   5.092   2.527  0.5329  0.1596 -0.5112
 5872TIP3    H217623   3.593   5.004   2.404 -0.8921  0.9526 -0.9799
 5873TIP3   OH217624   4.603   4.470   2.192 -0.3817  0.3437  0.8223
 5873TIP3    H117625   4.654   4.524   2.253 -0.9872  0.9733  0.7885
 5873TIP3    H217626   4.533   4.528   2.162 -0.2607 -0.0552 -0.2598
 5874TIP3   OH217627   4.019   3.243   3.107  0.4933  0.1518 -0.6367
 5874TIP3    H117628   4.016   3.201   3.021  0.0012  0.6056 -0.8466
 5874TIP3    H217629   3.928   3.243   3.138  0.9326 -1.8883  0.8226
 5875TIP3   OH217630   5.549   1.779   2.256 -0.3440  0.5319  0.2482
 5875TIP3    H117631   5.491   1.830   2.312 -0.8618  0.3013 -0.0709
 5875TIP3    H217632   5.490   1.732   2.197  0.2102  1.3845 -1.0268
 5876TIP3   OH217633   4.144   3.712   3.067  0.2607 -0.0446  0.3364
 5876TIP3    H117634   4.073   3.716   3.131  1.3851  0.0120  1.6243
 5876TIP3    H217635   4.177   3.622   3.075  0.7543  0.1255  0.2382
 5877TIP3   OH217636   3.397   2.041   2.490  0.5162 -0.6273  0.1148
 5877TIP3    H117637   3.448   1.979   2.541 -0.3345 -1.0830  0.4385
 5877TIP3    H217638   3.387   1.999   2.404 -0.0472 -0.9444  0.3292
 5878TIP3   OH217639   4.313   3.420   4.359 -0.6704 -0.8369  0.2067
 5878TIP3    H117640   4.246   3.391   4.298 -1.0090 -0.4917  0.4101
 5878TIP3    H217641   4.342   3.504   4.325  0.7609 -1.6713 -0.7346
 5879TIP3   OH217642   4.008   0.594   3.448 -0.1056 -0.3261  0.0223
 5879TIP3    H117643   3.964   0.581   3.532 -0.1944 -1.3059 -0.1642
 5879TIP3    H217644   4.101   0.596   3.469 -0.1057 -1.0476  0.0866
 5880TIP3   OH217645   2.589   3.722   0.024  0.4705  0.5253 -0.0759
 5880TIP3    H117646   2.670   3.688   0.062  0.6590 -2.5671 -2.8853
 5880TIP3    H217647   2.526   3.651   0.034 -1.2656  1.9922 -0.0849
 5881TIP3   OH217648   3.362   2.683   0.410  0.0173  0.2370 -0.1073
 5881TIP3    H117649   3.385   2.756   0.466 -1.1989  1.0288 -0.5812
 5881TIP3    H217650   3.393   2.708   0.323  1.9040 -0.9862  0.1463
 5882TIP3   OH217651   3.521   0.342   0.257  0.2082  0.0536 -0.5381
 5882TIP3    H117652   3.598   0.295   0.226 -0.5626  0.0653 -2.6777
 5882TIP3    H217653   3.448   0.301   0.211 -1.1374 -0.1488  1.6569
 5883TIP3   OH217654   3.710   3.843   4.591 -0.3014  0.0938 -0.8381
 5883TIP3    H117655   3.664   3.762   4.573 -0.3908  0.2977 -1.5532
 5883TIP3    H217656   3.641   3.908   4.606 -0.2374  0.1922 -0.9660
 5884TIP3   OH217657   5.478   5.347   0.513 -0.0216 -0.0635  0.2190
 5884TIP3    H117658   5.462   5.375   0.423 -4.3493  0.5135  0.9309
 5884TIP3    H217659   5.458   5.425   0.566 -0.4170 -1.1594  1.7702
 5885TIP3   OH217660   4.897   2.425   4.780  0.2901 -0.1508 -0.1571
 5885TIP3    H117661   4.845   2.460   4.707  0.3890  1.8649  0.6814
 5885TIP3    H217662   4.983   2.465   4.770  0.2533  0.2911  1.1651
 5886TIP3   OH217663   1.858   4.953   4.311  0.8223 -1.1434 -0.1199
 5886TIP3    H117664   1.875   4.859   4.306 -0.0008 -1.2723 -0.6246
 5886TIP3    H217665   1.785   4.961   4.372 -0.2367 -0.9938 -1.3606
 5887TIP3   OH217666   4.300   3.812   5.160  0.4214  0.0270 -0.4475
 5887TIP3    H117667   4.217   3.845   5.129 -0.0099 -1.6356 -1.1876
 5887TIP3    H217668   4.365   3.848   5.100  0.0881  0.2742 -0.6589
 5888TIP3   OH217669   2.205   1.737   3.672 -0.6128 -0.3707 -0.4168
 5888TIP3    H117670   2.182   1.830   3.665  0.4441  0.0215  1.0010
 5888TIP3    H217671   2.188   1.715   3.763 -0.1797 -1.3966 -0.5737
 5889TIP3   OH217672   6.271   3.849   4.325  0.4476 -0.1480 -0.1222
 5889TIP3    H117673   6.355   3.826   4.364 -0.0694  0.8982  1.7504
 5889TIP3    H217674   6.207   3.797   4.373 -0.2466  1.4455  0.7928
 5890TIP3   OH217675   1.889   0.466   3.197  0.2257 -0.3989  0.0950
 5890TIP3    H117676   1.980   0.454   3.170  0.2371 -0.9204  0.3653
 5890TIP3    H217677   1.861   0.545   3.150  0.1073 -1.4900 -1.7841
 5891TIP3   OH217678   6.210   0.359   3.322 -0.3888 -0.1593 -0.6130
 5891TIP3    H117679   6.189   0.405   3.403  1.0527  1.4167 -1.0597
 5891TIP3    H217680   6.195   0.267   3.341 -0.3621  0.2127  1.3556
 5892TIP3   OH217681   4.118   5.102   1.715 -0.1773  0.1790  0.0316
 5892TIP3    H117682   4.083   5.069   1.632 -2.4259  0.2014  0.8774
 5892TIP3    H217683   4.049   5.160   1.748  0.3672 -0.2913  2.1796
 5893TIP3   OH217684   6.114   2.902   4.088 -0.6830  0.2190  0.6606
 5893TIP3    H117685   6.044   2.841   4.114 -0.8151  1.1765  2.7993
 5893TIP3    H217686   6.139   2.945   4.170  3.0548 -0.6941  0.1939
 5894TIP3   OH217687   1.708   2.883   1.085  0.0114 -0.1593  0.0668
 5894TIP3    H117688   1.666   2.961   1.122  0.5508 -0.4364  1.3293
 5894TIP3    H217689   1.635   2.822   1.070 -0.2160 -0.1197  0.9256
 5895TIP3   OH217690   1.357   0.108   0.755 -0.1942 -0.1621 -0.2598
 5895TIP3    H117691   1.342   0.038   0.819 -1.8066 -1.2796 -1.7767
 5895TIP3    H217692   1.430   0.077   0.702 -0.6653 -0.5311 -0.6968
 5896TIP3   OH217693   0.777   2.798   2.918 -0.1872 -0.4784  0.0846
 5896TIP3    H117694   0.756   2.745   2.841  4.3882 -0.8840 -1.1586
 5896TIP3    H217695   0.801   2.734   2.986  0.1079 -0.0823  0.3625
 5897TIP3   OH217696   5.592   4.867   0.391  0.0697  0.6877 -0.0989
 5897TIP3    H117697   5.635   4.902   0.468 -0.0536  1.1104 -0.2205
 5897TIP3    H217698   5.527   4.933   0.367 -0.2431  0.3261 -0.2612
 5898TIP3   OH217699   2.574   2.372   4.190  0.0693  0.2625 -0.0989
 5898TIP3    H117700   2.608   2.405   4.273 -0.7386 -0.3812  0.5108
 5898TIP3    H217701   2.641   2.393   4.126  0.5207  1.1478  0.6430
 5899TIP3   OH217702   4.736   1.777   0.253 -0.0436  0.2121 -0.1422
 5899TIP3    H117703   4.740   1.700   0.310  1.9003  0.7044  0.4894
 5899TIP3    H217704   4.793   1.756   0.179  0.7999  1.1364  0.2105
 5900TIP3   OH217705   2.868   0.773   2.285 -0.0942 -0.1985 -0.3557
 5900TIP3    H117706   2.832   0.842   2.230 -1.0545 -0.4518 -0.0661
 5900TIP3    H217707   2.886   0.701   2.225  1.4204  0.4786 -0.7416
 5901TIP3   OH217708   4.834   1.905   0.695  0.6907  0.1494  0.5544
 5901TIP3    H117709   4.790   1.974   0.745 -0.8045  1.1632 -1.9887
 5901TIP3    H217710   4.894   1.952   0.637 -1.9464 -0.2759 -2.8274
 5902TIP3   OH217711   5.456   4.609   3.196  0.2100  0.3828  0.3685
 5902TIP3    H117712   5.458   4.704   3.183  3.0210  0.2298 -1.1201
 5902TIP3    H217713   5.548   4.583   3.197 -0.4264 -2.2165  2.0145
 5903TIP3   OH217714   5.193   2.004   3.082  0.0225 -0.1386 -0.0449
 5903TIP3    H117715   5.272   2.057   3.083  0.4061 -0.6567 -1.1709
 5903TIP3    H217716   5.122   2.067   3.097  0.5197  0.6065 -0.6969
 5904TIP3   OH217717   5.156   4.022   0.575 -0.1878  0.2580 -0.2884
 5904TIP3    H117718   5.188   4.087   0.637 -2.6657 -0.2276  1.6370
 5904TIP3    H217719   5.140   4.072   0.494  2.0073  1.1211 -0.2418
 5905TIP3   OH217720   1.784   1.203   4.392 -0.1916  0.0971 -0.1038
 5905TIP3    H117721   1.795   1.155   4.310  0.4215 -0.2431  0.1715
 5905TIP3    H217722   1.735   1.144   4.448 -1.7470  0.8173 -0.6305
 5906TIP3   OH217723   0.492   0.158   0.446  0.1629 -0.7288 -0.1212
 5906TIP3    H117724   0.500   0.104   0.368 -2.5614 -1.4224 -0.0277
 5906TIP3    H217725   0.413   0.210   0.432  1.5400  1.7574  0.7128
 5907TIP3   OH217726   4.475   2.367   0.638  0.7842  0.1458  0.8320
 5907TIP3    H117727   4.538   2.339   0.572  0.9707 -0.6302  1.3249
 5907TIP3    H217728   4.494   2.460   0.651  0.8129  0.2822 -0.1240
 5908TIP3   OH217729   0.316   4.582   3.369 -0.0352 -0.1617 -0.8414
 5908TIP3    H117730   0.392   4.632   3.338 -1.1969  1.4823 -1.1338
 5908TIP3    H217731   0.292   4.527   3.295  1.3825 -1.3923 -0.4491
 5909TIP3   OH217732   2.173   3.930   4.938  0.1325  0.2518 -0.3087
 5909TIP3    H117733   2.082   3.958   4.946  0.2402  0.3385  0.6334
 5909TIP3    H217734   2.207   3.929   5.027  0.5703 -1.4144 -0.4428
 5910TIP3   OH217735   3.356   2.760   2.594 -0.0903 -0.0543 -0.1837
 5910TIP3    H117736   3.445   2.779   2.564  0.5121 -3.5275 -0.9412
 5910TIP3    H217737   3.302   2.829   2.554  1.8350  0.3429 -2.2774
 5911TIP3   OH217738   2.325   5.233   1.864  0.0202 -0.1373 -0.0334
 5911TIP3    H117739   2.359   5.151   1.899  0.9385  0.6862  1.0845
 5911TIP3    H217740   2.399   5.274   1.820 -0.2143  0.4395  0.0884
 5912TIP3   OH217741   6.206   5.027   4.438 -0.3854 -0.1662 -0.4953
 5912TIP3    H117742   6.187   5.037   4.531 -0.8396 -1.8984 -0.3626
 5912TIP3    H217743   6.223   5.116   4.407  2.1965  0.2528  1.7337
 5913TIP3   OH217744   4.479   0.291   1.133 -0.3749 -0.6719  0.1208
 5913TIP3    H117745   4.404   0.346   1.114  0.3471  0.4914  0.5592
 5913TIP3    H217746   4.530   0.291   1.052 -0.4971 -0.9070  0.0422
 5914TIP3   OH217747   3.573   5.854   3.193  0.0618 -0.2995  0.4002
 5914TIP3    H117748   3.495   5.900   3.162 -0.5712 -2.0296 -0.7119
 5914TIP3    H217749   3.543   5.764   3.208  1.6968 -0.8389  0.6309
 5915TIP3   OH217750   4.162   4.580   2.985 -0.0531 -0.0908  0.7479
 5915TIP3    H117751   4.190   4.652   2.928 -0.2216 -0.5350  0.1041
 5915TIP3    H217752   4.133   4.511   2.926 -1.4067 -0.0978  1.3773
 5916TIP3   OH217753   3.512   4.664   2.655 -0.0601  0.0340  0.0280
 5916TIP3    H117754   3.467   4.609   2.591  0.4274  0.0789 -0.3651
 5916TIP3    H217755   3.464   4.746   2.656  0.8084  0.5807 -1.3970
 5917TIP3   OH217756   2.047   4.587   3.200 -0.3862  0.0938 -0.0032
 5917TIP3    H117757   2.071   4.537   3.278  1.4063  0.7280 -0.0940
 5917TIP3    H217758   1.953   4.573   3.191 -0.4284 -0.9816  1.5588
 5918TIP3   OH217759   0.790   3.998   1.918  0.6085 -0.1885 -0.0973
 5918TIP3    H117760   0.710   4.009   1.867 -0.2727 -1.6174  0.9323
 5918TIP3    H217761   0.793   3.905   1.940  0.4424  0.4960  3.2376
 5919TIP3   OH217762   0.545   1.435   4.350 -0.4696  0.1900  0.1508
 5919TIP3    H117763   0.605   1.386   4.295 -1.5448  1.1778 -2.0438
 5919TIP3    H217764   0.472   1.374   4.366 -0.9104  0.4050 -0.9459
 5920TIP3   OH217765   5.308   4.470   4.200 -0.4351 -0.1066 -0.2987
 5920TIP3    H117766   5.284   4.561   4.217  0.3775  0.2090 -0.7806
 5920TIP3    H217767   5.341   4.471   4.111  0.2322 -0.7465 -0.0634
 5921TIP3   OH217768   5.446   1.395   2.575 -0.1884  0.1824  0.1301
 5921TIP3    H117769   5.528   1.364   2.613 -0.4665 -0.4422  0.2388
 5921TIP3    H217770   5.383   1.326   2.594 -0.7451  0.6542  0.0512
 5922TIP3   OH217771   4.896   1.993   0.405  0.1874 -0.1876  0.0925
 5922TIP3    H117772   4.989   2.013   0.393  0.0073  0.6568 -0.0018
 5922TIP3    H217773   4.859   1.997   0.317  0.1788 -1.1833  0.0474
 5923TIP3   OH217774   5.432   5.304   2.862  0.0623 -0.2781  0.6721
 5923TIP3    H117775   5.514   5.348   2.880 -0.4587  0.4596  1.3189
 5923TIP3    H217776   5.384   5.364   2.804 -1.0844  0.5519  2.3916
 5924TIP3   OH217777   4.107   0.980   2.661 -0.3666 -0.0117 -0.3367
 5924TIP3    H117778   4.198   1.010   2.670 -0.1241 -0.8507  0.0938
 5924TIP3    H217779   4.055   1.059   2.673  0.2761  0.3341  0.2697
 5925TIP3   OH217780   4.920   4.926   4.840  0.3038 -0.1882 -0.1086
 5925TIP3    H117781   4.989   4.886   4.788 -0.3634 -2.2337  0.4892
 5925TIP3    H217782   4.920   4.877   4.922 -1.8435 -0.2674 -0.0911
 5926TIP3   OH217783   1.410   0.547   1.831  0.1450 -0.3611 -0.8254
 5926TIP3    H117784   1.387   0.474   1.888  0.4099 -0.8000 -1.2711
 5926TIP3    H217785   1.343   0.547   1.763 -1.3795  1.4291  0.5562
 5927TIP3   OH217786   0.981   4.438   1.779  0.0808 -0.0301  0.0700
 5927TIP3    H117787   1.014   4.493   1.708  0.0580 -0.9179 -0.6413
 5927TIP3    H217788   0.980   4.349   1.743  0.1556 -0.5114  1.2114
 5928TIP3   OH217789   4.941   5.588   0.497  0.9632 -0.5695  0.2156
 5928TIP3    H117790   5.022   5.631   0.525  2.9123 -2.6744 -1.7213
 5928TIP3    H217791   4.910   5.542   0.575  1.4518  0.4987  1.0629
 5929TIP3   OH217792   0.295   1.571   0.104 -0.0744  0.1405  0.9027
 5929TIP3    H117793   0.327   1.641   0.048 -1.3073  1.1499  1.4186
 5929TIP3    H217794   0.349   1.577   0.183  0.1019  0.2270  0.7767
 5930TIP3   OH217795   2.346   4.320   4.048 -0.6938 -0.2021 -0.8095
 5930TIP3    H117796   2.359   4.225   4.052  1.8485  0.1190  1.4292
 5930TIP3    H217797   2.263   4.334   4.093 -0.9357 -1.3304 -0.8655
 5931TIP3   OH217798   5.931   1.668   2.952  0.3259 -0.2347 -0.3193
 5931TIP3    H117799   5.855   1.686   2.896  0.0724 -0.0426  0.0846
 5931TIP3    H217800   6.006   1.693   2.899  0.2159 -1.8185 -1.2997
 5932TIP3   OH217801   2.024   5.260   1.562  0.1182  0.4065 -0.0636
 5932TIP3    H117802   2.030   5.346   1.519 -1.9039 -0.0794 -1.4888
 5932TIP3    H217803   2.033   5.197   1.490 -2.5024 -0.4554  0.2459
 5933TIP3   OH217804   4.336   1.287   3.232  0.1468  0.0221  0.3139
 5933TIP3    H117805   4.426   1.312   3.213  0.5638 -1.0471  0.8186
 5933TIP3    H217806   4.283   1.357   3.194  1.1872  0.6784  0.0467
 5934TIP3   OH217807   3.871   5.352   1.485  0.3156  0.3937 -0.4189
 5934TIP3    H117808   3.788   5.328   1.528  0.1402 -0.0015 -0.9712
 5934TIP3    H217809   3.928   5.277   1.500  0.2689  0.2729 -0.8365
 5935TIP3   OH217810   2.387   0.009   3.851  0.1596  0.3580  0.0434
 5935TIP3    H117811   2.306   0.059   3.842 -2.1232 -2.8079  1.2111
 5935TIP3    H217812   2.404   0.009   3.945 -0.2862 -1.5024  0.1572
 5936TIP3   OH217813   5.684   4.088   0.602 -0.3508 -0.1482 -0.0287
 5936TIP3    H117814   5.779   4.102   0.608 -0.3846 -0.3342  1.0233
 5936TIP3    H217815   5.660   4.052   0.687 -1.3205 -0.4039 -0.4052
 5937TIP3   OH217816   4.468   5.653   2.188 -0.1785 -0.7582 -0.1442
 5937TIP3    H117817   4.529   5.727   2.195 -1.3957  0.2427  0.0557
 5937TIP3    H217818   4.523   5.580   2.158  0.9670  0.3249 -0.7632
 5938TIP3   OH217819   5.360   4.046   4.549  0.3877 -0.0978 -0.2544
 5938TIP3    H117820   5.301   3.976   4.519 -0.2573  0.2105  0.2588
 5938TIP3    H217821   5.406   4.008   4.623  3.6515 -1.6640 -2.8135
 5939TIP3   OH217822   4.727   5.220   3.992  0.2887 -0.0411 -0.5975
 5939TIP3    H117823   4.710   5.275   3.915 -0.4422 -0.7421 -0.9484
 5939TIP3    H217824   4.783   5.274   4.048 -0.9902  1.3478 -0.5938
 5940TIP3   OH217825   6.262   0.029   0.064 -0.0210 -0.6137  0.2302
 5940TIP3    H117826   6.355   0.007   0.076  0.4926  1.1775 -0.0566
 5940TIP3    H217827   6.259   0.067  -0.024 -0.8932  0.0252  0.5292
 5941TIP3   OH217828   5.691   2.420   4.186  0.1543 -0.6599  0.8789
 5941TIP3    H117829   5.727   2.463   4.263  0.9938 -0.3171  0.3162
 5941TIP3    H217830   5.627   2.358   4.220 -2.8645  2.5656  1.6934
 5942TIP3   OH217831   2.309   5.864   0.322 -0.3811  0.4407  0.3726
 5942TIP3    H117832   2.276   5.807   0.392 -0.1837 -0.5238 -0.3176
 5942TIP3    H217833   2.356   5.933   0.369  0.3945 -0.6042  1.1730
 5943TIP3   OH217834   1.189   0.910   4.451 -0.0634  0.2552 -0.0865
 5943TIP3    H117835   1.213   0.819   4.468  0.9256  0.4412 -0.4558
 5943TIP3    H217836   1.221   0.958   4.528 -0.8621  0.2583  0.2555
 5944TIP3   OH217837   0.625   0.598   4.463 -0.1713 -0.5655  0.1741
 5944TIP3    H117838   0.666   0.672   4.510 -1.1957 -1.3096  2.4057
 5944TIP3    H217839   0.580   0.639   4.389 -0.2234  1.0056  1.0170
 5945TIP3   OH217840   2.969   0.443   4.117 -0.4136 -0.5194  0.2119
 5945TIP3    H117841   3.019   0.421   4.196  2.0148  1.8411 -0.5252
 5945TIP3    H217842   2.887   0.394   4.126 -0.2048 -0.4548  4.1073
 5946TIP3   OH217843   0.964   3.734   3.980  0.0086  0.4380 -0.7243
 5946TIP3    H117844   0.942   3.677   3.906  0.6570 -0.7214 -0.0453
 5946TIP3    H217845   0.989   3.817   3.939 -0.2263  0.0053 -1.7753
 5947TIP3   OH217846   4.293   2.827   0.083 -0.0911 -0.2843 -0.3328
 5947TIP3    H117847   4.243   2.760   0.128  0.9243 -0.1742  1.0245
 5947TIP3    H217848   4.373   2.838   0.135 -0.3980  2.2836 -0.2341
 5948TIP3   OH217849   2.919   0.191   2.984 -0.3951  0.1181  0.7099
 5948TIP3    H117850   2.881   0.104   2.971 -1.6758  0.0852  3.8590
 5948TIP3    H217851   2.844   0.250   2.983  0.5645  1.5371 -2.7158
 5949TIP3   OH217852   0.358   1.720   4.085  0.7035  0.0594  0.2854
 5949TIP3    H117853   0.335   1.633   4.052 -1.3322  0.6728 -0.0536
 5949TIP3    H217854   0.430   1.749   4.029 -0.2312 -0.4261 -1.2286
 5950TIP3   OH217855   0.730   5.800   0.148 -0.2018 -0.2052  0.6164
 5950TIP3    H117856   0.798   5.826   0.211 -0.7470  1.1276  0.6887
 5950TIP3    H217857   0.753   5.848   0.068 -0.4996 -0.5222  0.3401
 5951TIP3   OH217858   4.582   3.511   1.886  0.3415  0.2133  0.4589
 5951TIP3    H117859   4.609   3.475   1.971  1.3407 -0.6001 -0.1725
 5951TIP3    H217860   4.637   3.465   1.822  0.0098  1.2201 -0.5852
 5952TIP3   OH217861   2.938   5.295   2.661 -0.3760 -0.4625 -0.2707
 5952TIP3    H117862   2.977   5.247   2.734  0.3199 -1.6425 -1.3666
 5952TIP3    H217863   2.974   5.383   2.668 -1.1501 -0.2469  1.3983
 5953TIP3   OH217864   3.261   2.872   4.946  0.0121  0.1936  0.5962
 5953TIP3    H117865   3.249   2.902   5.036  0.2338  1.6796  0.1548
 5953TIP3    H217866   3.303   2.786   4.955 -0.0766  0.2649  1.9020
 5954TIP3   OH217867   2.022   3.515   0.266  0.3611 -0.2351  0.0999
 5954TIP3    H117868   2.096   3.570   0.292  0.5207 -0.0503 -0.6936
 5954TIP3    H217869   1.948   3.575   0.259 -0.0796 -0.5525  1.6862
 5955TIP3   OH217870   0.495   0.510   4.963  0.0670  0.0678  0.3189
 5955TIP3    H117871   0.412   0.546   4.995 -0.2627 -0.0122 -0.4225
 5955TIP3    H217872   0.491   0.417   4.984  0.1686  0.1448  0.6876
 5956TIP3   OH217873   1.028   3.921   2.490 -0.1528 -0.0293 -0.3742
 5956TIP3    H117874   1.058   4.010   2.472 -0.1389  0.0515  0.0504
 5956TIP3    H217875   0.947   3.933   2.540  0.9927 -0.2390  1.6571
 5957TIP3   OH217876   3.798   3.271   4.169  0.0063  0.0674 -0.3798
 5957TIP3    H117877   3.737   3.205   4.201  2.6948 -1.1737  2.6688
 5957TIP3    H217878   3.823   3.239   4.082 -0.5711 -1.6062  0.0200
 5958TIP3   OH217879   2.328   3.414   0.010  0.1127  0.7467  0.1068
 5958TIP3    H117880   2.399   3.396   0.072  0.6874  0.9760 -0.4620
 5958TIP3    H217881   2.255   3.361   0.041  0.4215  0.7712  0.9078
 5959TIP3   OH217882   5.103   4.080   2.701  0.3120  0.5201 -0.1830
 5959TIP3    H117883   5.190   4.106   2.732  0.6205 -1.0882  0.3666
 5959TIP3    H217884   5.042   4.128   2.758  0.8680 -1.8684  2.6485
 5960TIP3   OH217885   1.973   5.145   2.330 -0.0778 -0.1864 -0.0932
 5960TIP3    H117886   1.916   5.157   2.255 -1.6309 -3.1110  0.4843
 5960TIP3    H217887   2.031   5.073   2.305  0.7304  0.1208  0.8135
 5961TIP3   OH217888   2.493   3.150   4.196 -0.0128  0.0995  0.2411
 5961TIP3    H117889   2.401   3.132   4.175  0.0643 -0.7611  0.6084
 5961TIP3    H217890   2.495   3.151   4.292  0.6336 -1.4118  0.2633
 5962TIP3   OH217891   3.649   3.008   4.104  0.3110  0.1305 -0.2254
 5962TIP3    H117892   3.554   3.005   4.109  0.3393 -0.8317 -0.1694
 5962TIP3    H217893   3.671   2.958   4.025  0.7659  0.5278 -0.3623
 5963TIP3   OH217894   0.433   0.913   0.125 -0.5371 -0.0481  0.0983
 5963TIP3    H117895   0.449   0.836   0.071 -0.4701 -0.7273  1.0674
 5963TIP3    H217896   0.365   0.962   0.078 -0.5301 -0.6640 -0.5586
 5964TIP3   OH217897   5.847   5.832   2.621  0.1329 -0.1653 -0.2358
 5964TIP3    H117898   5.935   5.821   2.584  0.2661 -0.4904  0.1665
 5964TIP3    H217899   5.853   5.911   2.675  0.0305  0.1166 -0.6338
 5965TIP3   OH217900   3.553   0.456   0.838 -0.4729 -0.3041  0.0998
 5965TIP3    H117901   3.622   0.394   0.815 -1.3446 -0.9054 -1.0204
 5965TIP3    H217902   3.562   0.527   0.775  0.3767  0.6245  1.2363
 5966TIP3   OH217903   4.407   2.552   0.085 -0.1778  0.1472 -0.0002
 5966TIP3    H117904   4.479   2.503   0.046 -0.1322  0.0029  0.2663
 5966TIP3    H217905   4.443   2.589   0.166 -0.1009  0.9214 -0.3773
 5967TIP3   OH217906   2.153   3.666   2.795 -0.2786 -0.1109  0.0109
 5967TIP3    H117907   2.070   3.704   2.766 -0.2644  0.4559  0.6510
 5967TIP3    H217908   2.133   3.575   2.813 -0.5116 -0.2292 -0.8230
 5968TIP3   OH217909   3.254   5.227   1.986  0.0767 -0.2286  0.1708
 5968TIP3    H117910   3.232   5.269   2.069  0.5889 -0.9407  0.6760
 5968TIP3    H217911   3.348   5.208   1.992  0.4091  0.8887 -1.1081
 5969TIP3   OH217912   6.098   2.634   1.202  0.0477 -0.2170 -0.1602
 5969TIP3    H117913   6.147   2.701   1.155  0.3139 -0.1580  0.1996
 5969TIP3    H217914   6.012   2.674   1.218  0.3530  0.2074  0.4419
 5970TIP3   OH217915   0.392   2.953   4.065 -0.1717 -0.4837  0.2817
 5970TIP3    H117916   0.411   3.046   4.056 -0.3553 -0.6488 -2.6043
 5970TIP3    H217917   0.322   2.949   4.130 -1.2346  1.5544 -0.6479
 5971TIP3   OH217918   5.050   2.949   0.721  0.0581 -0.5186  0.8390
 5971TIP3    H117919   5.092   2.891   0.658 -1.8029 -3.8442  2.3808
 5971TIP3    H217920   4.964   2.966   0.684  0.1608  0.3020  0.9647
 5972TIP3   OH217921   1.425   2.637   4.565  0.1861  0.3312 -0.3538
 5972TIP3    H117922   1.400   2.649   4.473  1.1139  0.1936 -0.6341
 5972TIP3    H217923   1.362   2.574   4.599 -0.2379  0.4723 -0.8645
 5973TIP3   OH217924   2.352   2.099   0.619 -0.1742  0.3049 -0.4864
 5973TIP3    H117925   2.398   2.145   0.689  1.5035 -0.9428 -0.7001
 5973TIP3    H217926   2.268   2.145   0.611 -0.2809  0.7246  2.0736
 5974TIP3   OH217927   2.359   3.986   0.281 -0.1238  0.0636  0.1332
 5974TIP3    H117928   2.406   4.061   0.317  0.4140 -0.0835 -0.2481
 5974TIP3    H217929   2.388   3.981   0.189  1.8239 -2.1006  0.7619
 5975TIP3   OH217930   0.630   1.411   2.188  0.4196  0.6732  0.3081
 5975TIP3    H117931   0.555   1.408   2.129  1.0635 -0.2337 -0.4956
 5975TIP3    H217932   0.593   1.437   2.273 -0.9134 -0.4843  0.1145
 5976TIP3   OH217933   2.878   0.069   1.316 -0.1229  0.2494 -0.3532
 5976TIP3    H117934   2.897   0.102   1.228  0.3790 -1.1237 -0.7742
 5976TIP3    H217935   2.825  -0.009   1.302  0.4025 -0.2849  0.5386
 5977TIP3   OH217936   5.939   2.787   2.840  0.3037  0.1355  0.4775
 5977TIP3    H117937   5.924   2.730   2.914 -2.1438 -0.1772 -0.1727
 5977TIP3    H217938   5.909   2.737   2.764 -0.2814  1.6264 -0.3161
 5978TIP3   OH217939   1.610   1.335   5.136  0.0811  0.1473  0.3700
 5978TIP3    H117940   1.626   1.256   5.086 -0.1267 -0.4764  1.2662
 5978TIP3    H217941   1.520   1.327   5.167  0.5526 -0.0299  1.7699
 5979TIP3   OH217942   5.061   0.604   4.516 -0.2818  0.1417  0.0394
 5979TIP3    H117943   5.127   0.591   4.448 -0.2375  0.1013  0.0903
 5979TIP3    H217944   5.001   0.669   4.479  0.0792  0.5696  0.2097
 5980TIP3   OH217945   0.876   3.767   2.327 -0.1056  0.2285 -0.1115
 5980TIP3    H117946   0.951   3.815   2.362 -0.1860 -0.0872  0.5074
 5980TIP3    H217947   0.831   3.830   2.271  0.7535  0.3537 -0.6846
 5981TIP3   OH217948   2.394   5.167   1.564  0.4440  0.1838 -0.1315
 5981TIP3    H117949   2.438   5.220   1.630 -1.0798  0.4420  0.7091
 5981TIP3    H217950   2.314   5.215   1.543 -0.2519 -1.0555 -0.4324
 5982TIP3   OH217951   1.365   1.421   4.677 -1.0609 -0.3712 -0.0083
 5982TIP3    H117952   1.317   1.428   4.759 -0.7370 -1.0362  0.2393
 5982TIP3    H217953   1.452   1.456   4.696 -1.1481 -0.0346 -0.2112
 5983TIP3   OH217954   5.109   5.268   2.819 -0.5135  0.2398  0.4527
 5983TIP3    H117955   5.025   5.254   2.776 -0.9114  2.6411  0.3289
 5983TIP3    H217956   5.086   5.307   2.904  0.4424  0.0143  0.8277
 5984TIP3   OH217957   5.823   3.331   2.259  0.7955  0.5121  0.2989
 5984TIP3    H117958   5.916   3.355   2.253  1.3912 -1.8704 -1.8226
 5984TIP3    H217959   5.790   3.342   2.170 -0.2402 -1.2031  0.4299
 5985TIP3   OH217960   1.352   2.697   3.484  0.0560 -0.3203 -0.4441
 5985TIP3    H117961   1.378   2.687   3.393 -0.8196 -1.2242 -0.6178
 5985TIP3    H217962   1.284   2.630   3.497  2.2057 -2.2977  1.6755
 5986TIP3   OH217963   3.639   4.229   4.381  0.1073  0.2467  0.4352
 5986TIP3    H117964   3.651   4.276   4.298  0.8649  0.2401  0.5287
 5986TIP3    H217965   3.604   4.143   4.355 -0.4320  0.5371  0.1944
 5987TIP3   OH217966   6.288   3.436   1.336 -0.2581 -0.1809  0.4046
 5987TIP3    H117967   6.296   3.340   1.334  0.7318 -0.1137 -1.8686
 5987TIP3    H217968   6.204   3.452   1.379 -1.2324 -2.1475 -0.6077
 5988TIP3   OH217969   4.384   0.851   3.430 -0.6300 -0.0395 -0.0287
 5988TIP3    H117970   4.335   0.872   3.510 -0.7520 -2.2384  0.5388
 5988TIP3    H217971   4.346   0.769   3.400  2.5796 -1.8322  0.3643
 5989TIP3   OH217972   4.158   5.052   3.737 -0.1957 -0.1258 -0.1941
 5989TIP3    H117973   4.243   5.097   3.730 -0.7160  1.2686  1.6986
 5989TIP3    H217974   4.174   4.965   3.699  2.2519 -0.1028  0.5943
 5990TIP3   OH217975   0.953   0.942   0.285  0.1974  0.2771  0.0568
 5990TIP3    H117976   0.959   0.865   0.341  2.9250  0.4900  0.2156
 5990TIP3    H217977   0.956   0.907   0.196  2.1086  0.1296  0.1225
 5991TIP3   OH217978   5.732   4.839   5.108  0.0057  0.0477 -0.4603
 5991TIP3    H117979   5.727   4.861   5.201 -0.7761  1.1174 -0.7437
 5991TIP3    H217980   5.704   4.918   5.063 -0.6036 -0.7890 -1.5942
 5992TIP3   OH217981   3.662   1.493   3.388 -0.1107  0.8910  0.4881
 5992TIP3    H117982   3.713   1.518   3.465  0.4325 -2.2887  1.3080
 5992TIP3    H217983   3.721   1.438   3.336 -1.5111  0.2297 -0.4982
 5993TIP3   OH217984   5.182   2.364   2.481  0.3552  0.7213  0.5622
 5993TIP3    H117985   5.148   2.285   2.438 -0.1064  2.8060 -3.4129
 5993TIP3    H217986   5.272   2.342   2.504 -0.1638 -1.3398  0.8586
 5994TIP3   OH217987   5.167   3.450   2.465  0.4747  0.1606  0.2516
 5994TIP3    H117988   5.195   3.475   2.554 -1.2469 -1.0931  1.1963
 5994TIP3    H217989   5.078   3.483   2.458 -0.0866 -1.4054 -0.2874
 5995TIP3   OH217990   3.781   0.251   0.149  0.6120  0.8239  0.6124
 5995TIP3    H117991   3.854   0.224   0.093 -0.2871  0.6646 -0.5289
 5995TIP3    H217992   3.772   0.181   0.213  0.9673  0.4687  0.2744
 5996TIP3   OH217993   4.325   0.804   1.905 -0.4887  0.8294 -0.0931
 5996TIP3    H117994   4.406   0.755   1.922 -1.1371  0.0499  0.8312
 5996TIP3    H217995   4.290   0.765   1.825 -1.0030 -0.2434  0.6389
 5997TIP3   OH217996   4.027   0.843   3.201 -0.1316  0.4926 -0.1592
 5997TIP3    H117997   4.011   0.899   3.125  0.8524 -0.2392 -0.9301
 5997TIP3    H217998   4.060   0.761   3.164  1.1415  0.4025  1.0761
 5998TIP3   OH217999   1.624   5.273   2.375  0.1267  0.0731  0.4282
 5998TIP3    H118000   1.549   5.329   2.353  0.4860  0.1606 -0.6650
 5998TIP3    H218001   1.671   5.264   2.292  2.2002  1.3184  1.3827
 5999TIP3   OH218002   2.164   2.824   0.416  0.0450  0.2105  0.2338
 5999TIP3    H118003   2.238   2.762   0.416  1.2728  1.5750  1.7526
 5999TIP3    H218004   2.199   2.902   0.374 -1.0691  0.3452 -0.4626
 6000TIP3   OH218005   5.337   3.669   4.876 -0.1563  0.1711 -0.5642
 6000TIP3    H118006   5.360   3.754   4.838 -1.2948  0.2407 -1.1580
 6000TIP3    H218007   5.252   3.684   4.916 -0.1901 -0.6034 -0.3444
 6001TIP3   OH218008   4.918   3.551   2.486 -0.0035  0.0518 -0.4671
 6001TIP3    H118009   4.876   3.524   2.568 -0.0340  2.0541  0.2363
 6001TIP3    H218010   4.851   3.603   2.441  0.6355  0.5428 -0.8608
 6002TIP3   OH218011   4.089   4.785   2.058  0.8576  0.1257  0.2676
 6002TIP3    H118012   4.177   4.821   2.047  1.0557  0.1262  1.7697
 6002TIP3    H218013   4.040   4.820   1.983  2.2395 -0.2882 -0.8906
 6003TIP3   OH218014   6.230   1.494   3.169 -0.6738  0.4829  0.2648
 6003TIP3    H118015   6.256   1.469   3.081 -0.8716  0.4685  0.2085
 6003TIP3    H218016   6.311   1.522   3.212 -0.5268  0.2016  0.1738
 6004TIP3   OH218017   6.096   1.027   2.072 -0.0680 -0.5872  0.0326
 6004TIP3    H118018   6.094   1.117   2.106 -0.6050 -1.8015  3.5986
 6004TIP3    H218019   6.011   0.991   2.097  0.1240 -2.1324 -1.3831
 6005TIP3   OH218020   3.137   3.615   3.384 -0.4267  0.0982  0.1061
 6005TIP3    H118021   3.107   3.548   3.323 -1.0167  1.5348 -1.2523
 6005TIP3    H218022   3.057   3.657   3.416 -0.0408  1.4102 -0.5736
 6006TIP3   OH218023   3.671   5.703   1.998 -0.6067  0.4856  0.4057
 6006TIP3    H118024   3.618   5.736   2.070 -1.9111 -1.0816  0.2204
 6006TIP3    H218025   3.631   5.741   1.919 -3.9067 -3.3730 -0.0817
 6007TIP3   OH218026   3.754   1.383   1.946  0.6336 -0.0954 -0.1124
 6007TIP3    H118027   3.809   1.317   1.904  0.0660 -0.4870 -0.2453
 6007TIP3    H218028   3.816   1.448   1.980  1.0861  0.5724 -2.0964
 6008TIP3   OH218029   2.818   0.535   4.575  0.5932 -0.3249  0.0787
 6008TIP3    H118030   2.851   0.610   4.525 -1.3260 -0.6259 -1.7366
 6008TIP3    H218031   2.884   0.467   4.561  1.0741  0.2197 -0.3829
 6009TIP3   OH218032   5.769   0.418   4.803  0.1134  0.2952  0.2369
 6009TIP3    H118033   5.689   0.404   4.852 -0.0345 -0.4461 -0.1929
 6009TIP3    H218034   5.752   0.377   4.717  0.1314  2.0955 -0.6726
 6010TIP3   OH218035   3.650   1.042   2.726 -0.3874 -0.3099  0.2090
 6010TIP3    H118036   3.558   1.020   2.734 -0.2551 -0.3470  2.1310
 6010TIP3    H218037   3.680   0.993   2.649 -1.9057 -0.4047 -0.3610
 6011TIP3   OH218038   3.464   1.488   1.209  0.5741 -0.3381 -0.1055
 6011TIP3    H118039   3.541   1.490   1.151  0.8866 -1.3875  0.2534
 6011TIP3    H218040   3.390   1.486   1.149  0.8146  0.5282 -0.4572
 6012TIP3   OH218041   0.290   4.838   1.028 -0.2447  0.2139 -0.3326
 6012TIP3    H118042   0.370   4.793   1.055 -1.2345 -1.0143  0.7473
 6012TIP3    H218043   0.274   4.902   1.097 -0.5643 -0.0393 -0.1697
 6013TIP3   OH218044   0.707   5.671   1.192  0.4901 -0.1709 -0.3522
 6013TIP3    H118045   0.737   5.615   1.119 -0.4649 -1.1328 -0.0291
 6013TIP3    H218046   0.651   5.614   1.244 -0.9674  1.2407 -0.3021
 6014TIP3   OH218047   2.821   4.066   4.086  0.0624  0.0937 -0.5961
 6014TIP3    H118048   2.889   4.003   4.062  0.0502 -1.5185  2.9517
 6014TIP3    H218049   2.740   4.029   4.049  0.5967  0.2661 -2.0070
 6015TIP3   OH218050   6.223   1.528   1.741  0.2319  0.0112 -0.1620
 6015TIP3    H118051   6.264   1.614   1.749  0.6600 -0.2282  0.2611
 6015TIP3    H218052   6.135   1.538   1.777  1.1744 -0.3704  2.4115
 6016TIP3   OH218053   3.097   0.416   1.727  0.5146 -0.0311  0.2185
 6016TIP3    H118054   3.045   0.495   1.710 -0.8891 -0.8768  0.3990
 6016TIP3    H218055   3.033   0.344   1.723  1.4200 -0.9822  1.8835
 6017TIP3   OH218056   2.208   2.997   2.709  0.0113 -0.1236 -0.4441
 6017TIP3    H118057   2.231   2.948   2.787  0.4000 -2.8160 -2.1141
 6017TIP3    H218058   2.126   2.958   2.679  0.0657  0.5853 -1.5977
 6018TIP3   OH218059   1.126   3.256   2.177  0.6711 -0.2135 -0.5423
 6018TIP3    H118060   1.121   3.347   2.147  1.1553 -0.3244 -0.9783
 6018TIP3    H218061   1.035   3.228   2.184  0.4877  0.6805  0.7867
 6019TIP3   OH218062   2.377   0.970   1.867  0.0433 -0.2807 -0.2747
 6019TIP3    H118063   2.392   1.043   1.806 -0.0355  0.3864  0.4930
 6019TIP3    H218064   2.359   1.012   1.951  1.0914 -1.1919  0.4366
 6020TIP3   OH218065   2.668  -0.019   4.932  0.3291 -0.2327  0.2270
 6020TIP3    H118066   2.694   0.072   4.949  0.3393 -0.5132  1.8593
 6020TIP3    H218067   2.624  -0.016   4.847 -0.1293  1.3878  0.4988
 6021TIP3   OH218068   2.548   0.876   2.132 -0.1701  0.2489 -0.0984
 6021TIP3    H118069   2.460   0.852   2.103 -0.2291  0.9387 -0.5094
 6021TIP3    H218070   2.555   0.969   2.112  0.9072  0.0536 -0.7163
 6022TIP3   OH218071   4.910   2.035   3.606  0.4510 -0.3015 -0.1893
 6022TIP3    H118072   4.872   2.096   3.669 -1.5627 -2.2377  0.6009
 6022TIP3    H218073   4.868   2.057   3.523 -0.2390 -0.5503  0.0857
 6023TIP3   OH218074   4.834   1.555   4.563 -0.1176  0.3512 -0.2157
 6023TIP3    H118075   4.863   1.490   4.628  0.1909 -0.7515 -1.4161
 6023TIP3    H218076   4.754   1.517   4.526 -0.0890  0.7947 -0.7412
 6024TIP3   OH218077   1.719   3.588   1.307 -0.5531 -0.5956 -0.1306
 6024TIP3    H118078   1.758   3.675   1.311 -1.5826 -0.1228  0.0962
 6024TIP3    H218079   1.782   3.535   1.258  0.3958  0.0997  0.3159
 6025TIP3   OH218080   5.681   2.116   4.845 -0.0712  0.0606  0.2671
 6025TIP3    H118081   5.724   2.088   4.765  0.7580  0.1639  0.6644
 6025TIP3    H218082   5.651   2.206   4.827 -2.6221 -0.9245 -0.9634
 6026TIP3   OH218083   6.174   5.856   0.726  0.0435 -0.0064  0.6998
 6026TIP3    H118084   6.105   5.922   0.730 -2.9317 -2.8743  1.4826
 6026TIP3    H218085   6.205   5.848   0.816  1.9593  1.6786  0.2567
 6027TIP3   OH218086   1.589   1.238   2.776  0.0724 -0.3434  0.1867
 6027TIP3    H118087   1.565   1.146   2.785  0.6966 -0.4106  1.3518
 6027TIP3    H218088   1.676   1.236   2.735  0.4599 -0.3151  0.9935
 6028TIP3   OH218089   2.732   5.345   0.346  0.4795 -0.2049 -0.1984
 6028TIP3    H118090   2.756   5.332   0.254  2.3731 -1.4688  0.4232
 6028TIP3    H218091   2.659   5.284   0.360  1.7151 -1.7401 -0.2925
 6029TIP3   OH218092   2.998   2.231   3.698  0.0463 -0.3105 -0.3868
 6029TIP3    H118093   3.040   2.310   3.663  1.2596 -0.3944  0.7909
 6029TIP3    H218094   3.021   2.162   3.636  0.2180 -0.0188 -0.6478
 6030TIP3   OH218095   0.546   5.208   0.027 -0.6828 -0.4090 -0.2108
 6030TIP3    H118096   0.585   5.293   0.008 -0.8276 -0.7438 -2.1765
 6030TIP3    H218097   0.604   5.145  -0.016 -2.1430 -1.0725 -1.3068
 6031TIP3   OH218098   0.786   4.787   0.722 -1.1065 -0.1096  0.5666
 6031TIP3    H118099   0.836   4.860   0.687 -0.2185  0.7095  3.2968
 6031TIP3    H218100   0.776   4.727   0.648  0.5799  1.4565 -1.0380
 6032TIP3   OH218101   1.663   5.790   4.986  0.1562 -0.0595  0.2224
 6032TIP3    H118102   1.610   5.858   5.029  1.0356  1.2361 -0.6546
 6032TIP3    H218103   1.630   5.786   4.897  0.9096  0.1066 -0.0748
 6033TIP3   OH218104   5.215   1.204   0.760 -0.1805 -0.0553  0.0642
 6033TIP3    H118105   5.170   1.163   0.686  0.8941 -0.2986 -0.4771
 6033TIP3    H218106   5.236   1.132   0.818  0.4971 -0.0985 -0.2278
 6034TIP3   OH218107   2.259   5.043   0.195  0.2227  0.1759 -0.1573
 6034TIP3    H118108   2.287   5.010   0.280  0.0976  2.1917  0.7091
 6034TIP3    H218109   2.197   4.977   0.164  0.7384 -0.9034  1.0196
 6035TIP3   OH218110   2.368   4.989   4.824  0.6596  0.3800  0.5098
 6035TIP3    H118111   2.439   4.998   4.760  0.3479 -1.0645 -0.0914
 6035TIP3    H218112   2.340   5.078   4.843  1.0966  0.8595 -0.9969
 6036TIP3   OH218113   0.236   0.995   1.475  0.1895  0.3607  0.7963
 6036TIP3    H118114   0.271   0.946   1.400 -1.3543 -1.8173  1.3895
 6036TIP3    H218115   0.247   1.087   1.451  2.6240 -0.2254 -0.7001
 6037TIP3   OH218116   6.302   3.174   1.369 -0.0240 -0.0744  0.2799
 6037TIP3    H118117   6.351   3.099   1.404  0.2327  0.1202  0.3424
 6037TIP3    H218118   6.210   3.148   1.375  0.0383 -0.1925  0.7559
 6038TIP3   OH218119   4.602   0.770   2.631  0.4047 -0.2701 -0.3490
 6038TIP3    H118120   4.668   0.817   2.580  2.1281 -2.1329  0.0238
 6038TIP3    H218121   4.545   0.729   2.566  0.1728  0.5801 -0.6921
 6039TIP3   OH218122   0.836   0.725   4.149 -0.3128 -0.3361  0.5618
 6039TIP3    H118123   0.785   0.806   4.148  0.4484  0.1577  0.8623
 6039TIP3    H218124   0.880   0.723   4.064  0.3851  0.0399  0.9070
 6040TIP3   OH218125   2.610   1.962   1.326  0.1160  0.0136  0.0408
 6040TIP3    H118126   2.616   2.049   1.365 -1.2914  1.1760 -2.1103
 6040TIP3    H218127   2.596   1.903   1.400  0.6141  1.6742  1.5110
 6041TIP3   OH218128   3.247   2.520   4.575 -0.3227 -0.1421 -0.3076
 6041TIP3    H118129   3.152   2.513   4.591 -0.2753  1.8025  1.1756
 6041TIP3    H218130   3.286   2.466   4.644 -0.3462  1.6397  1.2083
 6042TIP3   OH218131   4.099   4.737   5.048  0.1178  0.2030  0.5584
 6042TIP3    H118132   4.055   4.821   5.063 -2.3194 -0.8934  0.0242
 6042TIP3    H218133   4.090   4.721   4.954  1.3278 -0.2869  0.5039
 6043TIP3   OH218134   4.026   0.832   1.807 -0.5418  0.0632  0.6077
 6043TIP3    H118135   4.095   0.898   1.806 -1.0018  0.5500 -0.2276
 6043TIP3    H218136   4.048   0.775   1.733  0.1042 -1.0083  1.5872
 6044TIP3   OH218137   4.641   3.435   4.443 -0.3348  0.1186 -0.0179
 6044TIP3    H118138   4.576   3.458   4.510  0.3387  0.2999  0.5820
 6044TIP3    H218139   4.704   3.507   4.445 -0.5624  0.3709 -1.1979
 6045TIP3   OH218140   4.899   4.895   4.428 -0.7776  0.0024  0.0646
 6045TIP3    H118141   4.814   4.926   4.460 -0.6452  0.2330  0.1938
 6045TIP3    H218142   4.897   4.800   4.443 -0.5500  0.1587  1.1870
 6046TIP3   OH218143   4.686   0.907   0.631 -0.4116  0.3749 -0.0748
 6046TIP3    H118144   4.705   0.964   0.706  2.2530  0.2485 -0.5551
 6046TIP3    H218145   4.764   0.913   0.576 -2.6345  1.3958 -3.5286
 6047TIP3   OH218146   4.509   1.872   0.050 -0.0507 -0.4900 -0.2933
 6047TIP3    H118147   4.500   1.831   0.136  0.4424  0.9109  0.4669
 6047TIP3    H218148   4.603   1.893   0.043  0.1604 -1.6752 -1.7252
 6048TIP3   OH218149   4.841   4.327   2.239  0.2833 -0.2498 -0.2479
 6048TIP3    H118150   4.831   4.343   2.333 -0.6226 -0.4197 -0.3010
 6048TIP3    H218151   4.751   4.327   2.206  0.4824 -1.7854 -0.8524
 6049TIP3   OH218152   3.062   1.221   4.716  0.5276 -0.3741  0.1202
 6049TIP3    H118153   3.134   1.254   4.661 -0.3662  0.6311 -0.4815
 6049TIP3    H218154   3.103   1.203   4.800  1.4113  0.6673 -0.0548
 6050TIP3   OH218155   5.064   5.426   2.404  0.1997  0.7200 -0.1408
 6050TIP3    H118156   5.116   5.481   2.345  3.0394 -2.2825 -0.6982
 6050TIP3    H218157   5.127   5.365   2.442 -2.3969 -0.7922  2.1225
 6051TIP3   OH218158   2.682   2.888   3.492  0.6069  0.0188  0.2619
 6051TIP3    H118159   2.754   2.951   3.487  0.8189 -0.2683 -0.4755
 6051TIP3    H218160   2.658   2.885   3.585  1.3975  0.2816  0.4770
 6052TIP3   OH218161   3.215   2.077   4.455 -0.0170 -0.4841 -0.2812
 6052TIP3    H118162   3.222   2.156   4.401 -1.8556  0.7895  1.1903
 6052TIP3    H218163   3.288   2.084   4.516 -0.5772  0.5184  0.3089
 6053TIP3   OH218164   1.598   2.047   2.836 -0.5611  0.1505  0.3277
 6053TIP3    H118165   1.682   2.054   2.792 -0.8315  1.1047 -0.0496
 6053TIP3    H218166   1.561   1.965   2.804  0.1625 -0.2165  0.4068
 6054TIP3   OH218167   0.320   4.850   1.412  0.0956  0.0270  0.0571
 6054TIP3    H118168   0.288   4.864   1.501 -0.9484  0.4622 -0.3790
 6054TIP3    H218169   0.289   4.763   1.388 -0.6349  0.3867 -0.3099
 6055TIP3   OH218170   1.618   2.601   4.750  0.3927 -0.5294  0.3494
 6055TIP3    H118171   1.581   2.600   4.839  1.9304 -1.4230  1.0180
 6055TIP3    H218172   1.551   2.645   4.697  0.0401  1.3381  2.2075
 6056TIP3   OH218173   4.039   2.237   1.825  0.2370  0.0687 -0.5099
 6056TIP3    H118174   3.995   2.264   1.906 -0.6379 -0.6042 -0.7376
 6056TIP3    H218175   4.089   2.159   1.851 -0.6208 -0.5842 -0.7469
 6057TIP3   OH218176   4.398   1.587   5.193 -0.0735  0.2419  1.0229
 6057TIP3    H118177   4.407   1.617   5.103 -0.0567 -0.5709  0.7556
 6057TIP3    H218178   4.482   1.609   5.234 -0.1625  0.8144  0.9082
 6058TIP3   OH218179   3.118   5.162   1.419 -0.2781 -0.0723 -0.0801
 6058TIP3    H118180   3.086   5.071   1.420  0.2667 -0.2671  0.2256
 6058TIP3    H218181   3.049   5.212   1.463  0.2486 -0.6447  1.4825
 6059TIP3   OH218182   3.547   1.406   5.043 -0.0280 -0.3088  0.1209
 6059TIP3    H118183   3.490   1.407   5.119  1.6016  0.7868  1.3909
 6059TIP3    H218184   3.621   1.352   5.069  0.3120 -0.3632 -0.8920
 6060TIP3   OH218185  -0.010   0.825   1.316 -0.1955  0.3183 -0.7926
 6060TIP3    H118186   0.041   0.783   1.247  1.7862  0.8334  0.2671
 6060TIP3    H218187   0.009   0.918   1.306 -0.4497  0.4649  0.0093
 6061TIP3   OH218188   5.976  -0.006   2.598  0.1492 -0.7804 -0.4582
 6061TIP3    H118189   6.058  -0.042   2.565  1.0923  1.1228 -0.3467
 6061TIP3    H218190   5.972   0.082   2.561 -1.3998 -0.5054  0.2835
 6062TIP3   OH218191   5.220   4.749   0.808  0.3379  0.0160 -0.1052
 6062TIP3    H118192   5.231   4.746   0.903 -1.4247  1.3363  0.1979
 6062TIP3    H218193   5.301   4.787   0.775  0.3164  1.1659  1.0645
 6063TIP3   OH218194   0.575   2.100   1.782  0.7488 -0.0997  0.3381
 6063TIP3    H118195   0.529   2.130   1.860 -2.0862 -0.6007 -1.0387
 6063TIP3    H218196   0.563   2.171   1.718  0.5516 -0.9099 -0.5451
 6064TIP3   OH218197   0.498   2.215   4.623  0.3340  0.2016  0.1562
 6064TIP3    H118198   0.507   2.287   4.560  0.0681  1.5136  1.5454
 6064TIP3    H218199   0.584   2.209   4.664  0.8445 -1.4013 -1.0378
 6065TIP3   OH218200   3.123   2.744   0.067 -0.2044 -0.3232  0.5152
 6065TIP3    H118201   3.113   2.649   0.065  0.0192 -0.3530  0.8000
 6065TIP3    H218202   3.185   2.760   0.138  0.6548 -0.0394 -0.2809
 6066TIP3   OH218203   2.360   4.415   3.592  0.1331  0.1666 -0.6339
 6066TIP3    H118204   2.436   4.362   3.570 -0.4227 -1.7987  1.7040
 6066TIP3    H218205   2.394   4.483   3.651  0.1310 -0.8157  0.5516
 6067TIP3   OH218206   2.818   0.116   1.028 -0.3809 -0.0821  0.1347
 6067TIP3    H118207   2.789   0.196   0.986  0.6795  0.3144  0.1175
 6067TIP3    H218208   2.897   0.090   0.979 -1.0244 -1.4502 -0.2283
 6068TIP3   OH218209   1.904   3.473   3.632 -0.2593  0.1520 -0.1430
 6068TIP3    H118210   1.953   3.550   3.662 -1.8111  1.1714 -0.0936
 6068TIP3    H218211   1.971   3.407   3.615  1.0150  1.0615  1.1232
 6069TIP3   OH218212   2.197   1.014   2.920 -0.2750 -0.3127 -0.4075
 6069TIP3    H118213   2.257   1.054   2.856  0.2250 -0.9701 -0.3621
 6069TIP3    H218214   2.168   0.933   2.877  1.2770 -1.5707  0.7816
 6070TIP3   OH218215   0.659   5.071   0.286 -0.4772  0.6333 -0.3196
 6070TIP3    H118216   0.616   5.138   0.232 -0.4596  0.8498 -0.0685
 6070TIP3    H218217   0.661   5.109   0.374 -1.1219 -0.0030 -0.0211
 6071TIP3   OH218218   1.070   3.608   3.079 -0.1461  0.4399  0.0251
 6071TIP3    H118219   1.140   3.601   3.144  0.2906  0.9093 -0.3811
 6071TIP3    H218220   1.088   3.691   3.034 -1.4711  1.0045  0.5009
 6072TIP3   OH218221   5.117   1.810   2.305 -0.2402 -0.4826  0.3204
 6072TIP3    H118222   5.064   1.783   2.380 -1.3278  0.3906 -0.0971
 6072TIP3    H218223   5.112   1.737   2.244  0.3098 -1.0271  0.9131
 6073TIP3   OH218224   2.884   3.246   4.279 -0.3623 -0.5077  0.1168
 6073TIP3    H118225   2.868   3.175   4.217  1.2148  0.9319 -2.0922
 6073TIP3    H218226   2.844   3.323   4.238  0.3208  0.3911  1.0766
 6074TIP3   OH218227   5.859   5.381   4.856  0.2154  0.0705 -0.8996
 6074TIP3    H118228   5.835   5.313   4.793  0.7568 -1.2396  0.2624
 6074TIP3    H218229   5.949   5.405   4.832  1.0718 -1.6663  0.3617
 6075TIP3   OH218230   0.965   3.191   2.803 -0.1608  0.3609 -0.2881
 6075TIP3    H118231   0.991   3.114   2.752 -1.8760  1.1145 -2.4625
 6075TIP3    H218232   1.039   3.251   2.796  0.8401 -0.7051  0.6996
 6076TIP3   OH218233   0.865   4.555   4.040  0.1353  0.0700  0.3534
 6076TIP3    H118234   0.961   4.560   4.044  0.1233 -0.1330  1.0023
 6076TIP3    H218235   0.847   4.513   3.955  0.6262 -0.0723  0.3149
 6077TIP3   OH218236   1.914   4.456   2.246 -0.4878 -0.5968 -0.2919
 6077TIP3    H118237   1.862   4.382   2.276  0.3882 -0.9138  0.5127
 6077TIP3    H218238   2.005   4.430   2.265  0.0022 -0.2356 -1.9991
 6078TIP3   OH218239   3.489   2.728   4.242 -0.7795 -0.2743 -0.1357
 6078TIP3    H118240   3.473   2.814   4.204  0.2476  0.2778  0.6392
 6078TIP3    H218241   3.579   2.706   4.217 -0.6636 -0.6371  0.5544
 6079TIP3   OH218242   4.804   4.992   1.634  0.5121  0.5734  0.0913
 6079TIP3    H118243   4.888   5.036   1.619  0.9271 -0.3930 -0.5734
 6079TIP3    H218244   4.819   4.903   1.602 -0.6505  0.2802  0.3456
 6080TIP3   OH218245   3.959   4.906   4.217 -0.0610 -0.0539  0.1136
 6080TIP3    H118246   3.902   4.857   4.277 -1.3526  0.7687 -0.3770
 6080TIP3    H218247   3.986   4.983   4.267 -1.8176  1.0642 -0.5564
 6081TIP3   OH218248   6.058   1.427   4.847 -0.3635  0.0063 -0.5530
 6081TIP3    H118249   6.151   1.404   4.852 -0.2361  0.1832 -1.6922
 6081TIP3    H218250   6.034   1.452   4.936 -0.5415 -4.4108  0.8443
 6082TIP3   OH218251   0.317   5.028   0.003  0.6074 -0.0314 -0.6729
 6082TIP3    H118252   0.379   5.093  -0.029  1.5364 -0.5822 -0.0455
 6082TIP3    H218253   0.319   5.038   0.098 -0.3645  0.0194 -0.6469
 6083TIP3   OH218254   2.549   1.667   3.190  0.1153  0.1025  0.3494
 6083TIP3    H118255   2.569   1.592   3.245  0.2724 -0.1692 -0.0718
 6083TIP3    H218256   2.613   1.733   3.214  0.6694 -0.2830 -0.0345
 6084TIP3   OH218257   4.905   3.573   3.461 -0.7613  0.0067 -0.1181
 6084TIP3    H118258   4.994   3.607   3.460 -0.5231 -0.6369 -0.7769
 6084TIP3    H218259   4.870   3.602   3.546 -0.6311  2.0376 -0.6972
 6085TIP3   OH218260   3.130   5.585   0.823  0.9122  0.1027  0.3018
 6085TIP3    H118261   3.106   5.675   0.800  0.4618 -0.1697 -0.3209
 6085TIP3    H218262   3.161   5.591   0.914 -0.3030  0.6818  0.7013
 6086TIP3   OH218263   1.791   0.263   0.708  0.5796 -0.1300 -0.9436
 6086TIP3    H118264   1.801   0.203   0.635  0.3279 -0.3550 -0.7924
 6086TIP3    H218265   1.700   0.294   0.702 -0.0275 -1.5226  0.3149
 6087TIP3   OH218266   1.861   3.543   3.344  0.9599  0.1916  0.0754
 6087TIP3    H118267   1.828   3.488   3.415  0.7780 -1.0780 -0.9508
 6087TIP3    H218268   1.823   3.629   3.360  1.0409 -0.0345  1.5838
 6088TIP3   OH218269   4.639   0.230   4.401 -0.4190 -0.5982 -0.2590
 6088TIP3    H118270   4.692   0.309   4.401  0.0441 -0.7451  2.9439
 6088TIP3    H218271   4.549   0.262   4.396 -0.1940 -0.1587 -2.5026
 6089TIP3   OH218272   5.326   1.225   1.864  0.3084  0.1083 -0.5095
 6089TIP3    H118273   5.321   1.237   1.959  0.8069  1.2645 -0.6106
 6089TIP3    H218274   5.341   1.132   1.852  0.1378 -0.0634  0.5419
 6090TIP3   OH218275   4.980   4.303   4.837  0.4148  0.7656 -0.1263
 6090TIP3    H118276   5.007   4.389   4.869  0.5831 -0.2434  2.6758
 6090TIP3    H218277   5.054   4.246   4.856 -0.5052 -0.4146  0.0096
 6091TIP3   OH218278   0.191   0.120   2.673 -0.3573 -0.4832 -0.2063
 6091TIP3    H118279   0.229   0.169   2.746 -2.9073  1.6398 -0.1116
 6091TIP3    H218280   0.115   0.076   2.711 -1.4297  0.2358 -1.4215
 6092TIP3   OH218281   2.017   2.141   1.310  0.1753 -0.1597 -0.2757
 6092TIP3    H118282   1.987   2.114   1.397  1.1519  0.4450  0.2691
 6092TIP3    H218283   2.107   2.171   1.324 -0.0161  0.9551 -1.3059
 6093TIP3   OH218284   5.854   4.788   2.743  0.5284 -0.1696 -0.2073
 6093TIP3    H118285   5.933   4.808   2.794 -1.1335  2.6271  1.5318
 6093TIP3    H218286   5.836   4.868   2.693 -1.6725 -0.3720  0.1402
 6094TIP3   OH218287   6.050   4.269   1.410  0.5500  0.7444  0.0746
 6094TIP3    H118288   6.140   4.240   1.397  0.4406 -0.1795  1.2046
 6094TIP3    H218289   6.020   4.222   1.488 -0.3124  2.3893  0.8111
 6095TIP3   OH218290   3.112   1.524   4.763  0.3611  0.3372  0.2368
 6095TIP3    H118291   3.195   1.495   4.801  0.1019  0.1659  0.6738
 6095TIP3    H218292   3.125   1.515   4.668  0.1852 -1.5044  0.3587
 6096TIP3   OH218293   1.549   3.184   0.055  0.2786 -0.0123  0.4488
 6096TIP3    H118294   1.639   3.214   0.043 -0.8062  3.2695 -0.5527
 6096TIP3    H218295   1.514   3.240   0.125 -0.7468 -1.9427  1.5654
 6097TIP3   OH218296   0.236   3.239   0.719  0.0100  0.0737 -0.0652
 6097TIP3    H118297   0.270   3.157   0.684 -0.2675  1.1231 -3.1514
 6097TIP3    H218298   0.277   3.248   0.805  2.6154 -1.7156 -0.9963
 6098TIP3   OH218299   5.730   1.026   1.783 -0.1677  0.1561 -0.2602
 6098TIP3    H118300   5.641   1.044   1.751 -0.3377 -0.7295 -0.3358
 6098TIP3    H218301   5.748   1.095   1.846 -0.9799  0.2561 -0.1221
 6099TIP3   OH218302   2.184   5.455   4.859 -0.1008 -0.2958  0.2166
 6099TIP3    H118303   2.135   5.477   4.938  0.1304  1.2378 -0.0289
 6099TIP3    H218304   2.167   5.362   4.845 -2.1454 -0.0489  0.6897
 6100TIP3   OH218305   6.278   3.123   3.173 -0.0325  0.2185 -0.4899
 6100TIP3    H118306   6.249   3.032   3.176 -2.0164  0.7957  3.0432
 6100TIP3    H218307   6.237   3.158   3.094  1.2606 -1.9725 -2.2782
 6101TIP3   OH218308   4.926   5.157   0.370  0.2137 -0.3627  0.5316
 6101TIP3    H118309   4.923   5.077   0.423 -1.3714 -1.2571 -0.7724
 6101TIP3    H218310   4.867   5.138   0.296 -1.0092  2.3921  0.6877
 6102TIP3   OH218311   0.708   5.719   1.583  0.4529  0.2643  0.3432
 6102TIP3    H118312   0.713   5.815   1.576  1.2321  0.2676  0.7768
 6102TIP3    H218313   0.772   5.697   1.650 -0.4574 -0.4861  0.9929
 6103TIP3   OH218314   1.113   5.931   0.576 -0.2670  0.3760 -0.0735
 6103TIP3    H118315   1.128   6.007   0.632  2.4830  0.8079 -1.2415
 6103TIP3    H218316   1.148   5.857   0.627  0.8824  0.5545 -0.5694
 6104TIP3   OH218317   5.768   2.957   4.300 -0.7411 -0.0971  0.3784
 6104TIP3    H118318   5.773   3.051   4.320  2.5232 -0.4276  1.9356
 6104TIP3    H218319   5.707   2.922   4.365 -1.1491  0.8270  0.5040
 6105TIP3   OH218320   2.359   3.854   3.499 -0.1541  0.0331 -0.3917
 6105TIP3    H118321   2.297   3.818   3.563 -1.2920  0.8041 -1.0090
 6105TIP3    H218322   2.440   3.806   3.514 -0.0324  0.9530  2.3861
 6106TIP3   OH218323   0.082   3.203   0.282  0.1369  0.3241 -0.7479
 6106TIP3    H118324   0.045   3.287   0.253  0.2924  0.3319 -0.9224
 6106TIP3    H218325   0.039   3.138   0.227  3.0301  0.5887 -3.5953
 6107TIP3   OH218326   2.349   4.117   1.902  0.4639 -0.6335  0.3322
 6107TIP3    H118327   2.292   4.193   1.889 -0.1130 -1.1379 -0.1397
 6107TIP3    H218328   2.290   4.047   1.929  0.5512 -1.6456 -1.8763
 6108TIP3   OH218329   1.701   3.682   5.042 -0.0408 -0.7369 -0.7780
 6108TIP3    H118330   1.700   3.734   5.123  0.4683  0.5055 -1.5445
 6108TIP3    H218331   1.610   3.657   5.029  0.0664 -2.2755  0.9818
 6109TIP3   OH218332   2.456   5.880   2.985  0.2462  0.3601 -0.3340
 6109TIP3    H118333   2.449   5.823   2.909 -0.5116  1.2062 -0.9239
 6109TIP3    H218334   2.482   5.822   3.057 -0.7824 -0.7781 -0.8538
 6110TIP3   OH218335   4.472   3.464   5.053 -0.4076 -0.2399 -0.0837
 6110TIP3    H118336   4.408   3.482   5.121 -2.9477 -1.1639 -2.0862
 6110TIP3    H218337   4.551   3.439   5.101 -2.2883 -1.6087  2.5217
 6111TIP3   OH218338   0.631   2.943   0.306  0.5850  0.6157  0.9271
 6111TIP3    H118339   0.695   3.003   0.344 -1.2529  1.3644  3.0983
 6111TIP3    H218340   0.548   2.992   0.310 -0.3850 -0.8094 -0.5032
 6112TIP3   OH218341   4.478   5.028   2.034 -0.2459 -0.0867 -0.1350
 6112TIP3    H118342   4.551   4.977   2.000 -0.5069 -1.1945  0.9090
 6112TIP3    H218343   4.400   4.989   1.995 -0.5719 -1.5364  1.8167
 6113TIP3   OH218344   6.009   1.843   0.920  0.9854 -0.3385 -0.0812
 6113TIP3    H118345   5.970   1.756   0.923  0.1652 -0.1611 -2.8438
 6113TIP3    H218346   5.940   1.902   0.952  1.5081 -0.6508  1.6967
 6114TIP3   OH218347   1.137   3.822   4.380 -0.0499 -0.4436  0.0962
 6114TIP3    H118348   1.045   3.845   4.363 -0.8361 -3.6179 -0.5692
 6114TIP3    H218349   1.183   3.906   4.381 -2.8398  1.2069 -0.2038
 6115TIP3   OH218350   4.033   1.959   1.199  0.0104 -0.6922 -0.1228
 6115TIP3    H118351   4.022   1.981   1.292 -0.4347 -1.0384 -0.0915
 6115TIP3    H218352   4.090   2.027   1.165 -2.0712  1.0699 -0.2632
 6116TIP3   OH218353   4.400   3.685   4.313 -0.1573  0.3456 -0.1256
 6116TIP3    H118354   4.437   3.718   4.231  0.8883 -0.3919  0.0219
 6116TIP3    H218355   4.476   3.669   4.369 -0.8028  0.0788  0.7044
 6117TIP3   OH218356   1.519   3.675   3.803 -0.3067  0.0403 -0.3875
 6117TIP3    H118357   1.455   3.642   3.866  0.3694  0.5105  0.5570
 6117TIP3    H218358   1.482   3.758   3.772  0.5766  1.1397  1.3761
 6118TIP3   OH218359   4.950   2.364   3.550  0.2955  0.3408  0.3902
 6118TIP3    H118360   4.881   2.313   3.509  0.3589  0.5168  0.0643
 6118TIP3    H218361   4.995   2.407   3.478  2.1177 -1.4409  0.3769
 6119TIP3   OH218362   0.868   4.883   2.664 -0.2055  0.6743  0.4163
 6119TIP3    H118363   0.889   4.829   2.741  1.3050 -1.2965 -1.2702
 6119TIP3    H218364   0.780   4.853   2.639  0.0873 -0.0942  0.2653
 6120TIP3   OH218365   3.863   2.309   2.768 -0.4990  0.5309 -0.1733
 6120TIP3    H118366   3.798   2.289   2.702  0.7045  0.9955 -1.5427
 6120TIP3    H218367   3.899   2.393   2.742  2.5076 -0.8751 -1.0536
 6121TIP3   OH218368   5.734   3.232   1.768  0.4489 -0.6766 -0.0396
 6121TIP3    H118369   5.700   3.317   1.740 -1.5460 -1.3163  0.3104
 6121TIP3    H218370   5.677   3.205   1.840  0.9353 -2.3873 -0.2417
 6122TIP3   OH218371   6.329   5.099   2.709 -0.8165 -0.6375 -0.0193
 6122TIP3    H118372   6.392   5.094   2.637  0.6519  0.6534  1.1135
 6122TIP3    H218373   6.259   5.155   2.676  0.1510  0.4642 -0.2490
 6123TIP3   OH218374   1.816   0.513   0.279 -0.2562 -0.0674  0.1896
 6123TIP3    H118375   1.881   0.446   0.300  0.1420 -0.0072 -0.7996
 6123TIP3    H218376   1.772   0.481   0.200  1.1856  1.6474 -1.4004
 6124TIP3   OH218377   2.997   3.392   2.920  0.7232 -0.5870 -0.4926
 6124TIP3    H118378   2.975   3.423   3.008 -0.1176  0.1131 -0.9269
 6124TIP3    H218379   2.913   3.388   2.875  1.1027 -1.3004 -1.1569
 6125TIP3   OH218380   1.653   4.764   3.473  0.1472 -0.1828 -0.4702
 6125TIP3    H118381   1.674   4.844   3.520  3.2598 -0.8363 -0.5337
 6125TIP3    H218382   1.604   4.711   3.535 -0.0899  0.9227  0.3020
 6126TIP3   OH218383   2.512   3.219   3.604  0.2388  0.0459  0.0403
 6126TIP3    H118384   2.447   3.158   3.570 -0.4175  1.1613 -0.7811
 6126TIP3    H218385   2.498   3.217   3.699  2.3076 -3.3303  0.4356
 6127TIP3   OH218386   2.671   1.357   4.143  0.0785  0.1216  0.0357
 6127TIP3    H118387   2.658   1.273   4.186  0.1920  0.4599  0.7385
 6127TIP3    H218388   2.727   1.337   4.068  0.4357 -0.3694  0.4285
 6128TIP3   OH218389   0.695   2.684   2.686 -0.2724  0.3038  0.1969
 6128TIP3    H118390   0.629   2.700   2.619 -0.4476 -1.3240 -0.0594
 6128TIP3    H218391   0.683   2.592   2.710 -0.1030  0.7896  2.3506
 6129TIP3   OH218392   3.043   2.736   0.622  0.2538  0.5134 -0.3297
 6129TIP3    H118393   3.007   2.663   0.571  1.2846  0.4608 -1.0198
 6129TIP3    H218394   3.085   2.694   0.697 -0.2785  0.4993 -0.0399
 6130TIP3   OH218395   0.141   5.809   4.734  0.6055 -0.0641 -0.0364
 6130TIP3    H118396   0.109   5.854   4.812  0.7146  0.7733 -0.4612
 6130TIP3    H218397   0.228   5.845   4.719  1.0279 -1.0080  0.0620
 6131TIP3   OH218398   0.005   5.028   1.130  0.0244 -0.0903  1.0053
 6131TIP3    H118399   0.005   5.102   1.070 -0.0066 -0.2282  0.8326
 6131TIP3    H218400   0.090   5.032   1.174  0.2970 -0.3343  0.5141
 6132TIP3   OH218401   4.320   5.584   1.521 -0.3894  0.3407 -0.4995
 6132TIP3    H118402   4.347   5.573   1.430 -0.1460  0.3250 -0.4255
 6132TIP3    H218403   4.302   5.495   1.551 -1.8319  0.4486 -0.9431
 6133TIP3   OH218404   4.899   4.865   2.382 -0.0334 -0.5403  0.6254
 6133TIP3    H118405   4.976   4.878   2.438  0.3869  0.5846 -0.1764
 6133TIP3    H218406   4.923   4.792   2.325  0.2974 -0.4394  0.6321
 6134TIP3   OH218407   3.422   5.253   0.473  0.0944  0.1824  0.3916
 6134TIP3    H118408   3.502   5.200   0.483  0.2852  0.6871  1.7948
 6134TIP3    H218409   3.351   5.188   0.472  0.3267 -0.1474  2.0709
 6135TIP3   OH218410   3.878   2.882   1.746  0.5962  0.1107  0.0704
 6135TIP3    H118411   3.963   2.881   1.790  0.5167  2.3972  0.3969
 6135TIP3    H218412   3.893   2.934   1.667 -0.0502 -1.1670 -0.9383
 6136TIP3   OH218413   0.052   2.199   3.467  0.3445  0.3997  0.3630
 6136TIP3    H118414   0.080   2.223   3.556  0.4559  0.9819  0.1727
 6136TIP3    H218415   0.113   2.244   3.410 -0.0813  0.4867 -0.0254
 6137TIP3   OH218416   0.051   2.807   4.634  0.3366  0.3241 -0.2977
 6137TIP3    H118417   0.051   2.774   4.544  1.3109 -1.8902  0.4460
 6137TIP3    H218418   0.123   2.870   4.637  0.1577  0.5819 -1.0843
 6138TIP3   OH218419   2.723   3.216   1.715  0.5066 -0.4618 -0.4919
 6138TIP3    H118420   2.766   3.290   1.672  1.7143 -0.1379  1.1748
 6138TIP3    H218421   2.726   3.238   1.808 -1.2142 -1.5481 -0.1479
 6139TIP3   OH218422   0.892   4.426   2.044  0.6928  0.1117  0.0723
 6139TIP3    H118423   0.946   4.432   1.966  0.1429 -0.3881 -0.3552
 6139TIP3    H218424   0.814   4.476   2.023  1.0984  1.0805  0.7966
 6140TIP3   OH218425   1.023   5.279   3.726 -0.0206 -0.0843 -0.3009
 6140TIP3    H118426   0.957   5.263   3.658  1.3172 -1.6957 -1.2963
 6140TIP3    H218427   1.077   5.350   3.691 -0.9113  0.9392  0.3250
 6141TIP3   OH218428   5.933   4.524   2.010  0.0107  0.3601 -0.7627
 6141TIP3    H118429   5.935   4.589   2.079 -0.2817  0.0414 -0.4476
 6141TIP3    H218430   5.881   4.564   1.940  2.1882  1.6072 -1.7638
 6142TIP3   OH218431   0.450   5.615   4.558  0.2223  0.3000 -0.0030
 6142TIP3    H118432   0.359   5.593   4.577  0.1775  1.0672  0.6996
 6142TIP3    H218433   0.461   5.704   4.591  1.0006  0.5294 -0.8358
 6143TIP3   OH218434   3.185   5.130   2.630 -0.4169  0.2300  0.3129
 6143TIP3    H118435   3.105   5.105   2.584 -0.2838  0.1655  0.1113
 6143TIP3    H218436   3.213   5.211   2.586  0.7276 -0.8076 -1.0000
 6144TIP3   OH218437   0.781   1.597   0.065  0.0717  0.0629  0.0135
 6144TIP3    H118438   0.812   1.578   0.154  0.8659  1.0877 -0.0264
 6144TIP3    H218439   0.834   1.672   0.037 -1.2242  0.7338 -0.7383
 6145TIP3   OH218440   3.389   5.258   1.447 -0.4123  0.0887  0.0019
 6145TIP3    H118441   3.390   5.226   1.538 -0.3161 -0.5438 -0.2114
 6145TIP3    H218442   3.314   5.213   1.408  0.8873 -1.4409 -0.8370
 6146TIP3   OH218443   2.008   1.623   2.855 -0.0224  0.3508 -0.4297
 6146TIP3    H118444   2.061   1.608   2.776  1.8361  0.6790  0.6887
 6146TIP3    H218445   1.961   1.540   2.868 -1.5857  0.7946 -2.6880
 6147TIP3   OH218446   2.803   0.890   0.803 -0.5662  0.1612 -0.6029
 6147TIP3    H118447   2.789   0.980   0.832  0.6178 -0.2470  1.4481
 6147TIP3    H218448   2.860   0.899   0.726 -0.9603  1.1836 -0.7962
 6148TIP3   OH218449   5.046   2.590   2.024  0.4958 -0.4705  0.4959
 6148TIP3    H118450   5.100   2.558   1.952  0.3442 -1.8585  0.9671
 6148TIP3    H218451   5.108   2.609   2.094  0.5775  0.2202  0.2450
 6149TIP3   OH218452   1.950   4.662   4.406 -0.2368 -0.0569 -0.1246
 6149TIP3    H118453   1.917   4.686   4.493  0.6189 -0.6345  0.3725
 6149TIP3    H218454   2.039   4.699   4.404 -0.2713 -0.0024 -0.7803
 6150TIP3   OH218455   5.821   2.167   2.380 -0.1592 -0.0917  0.3850
 6150TIP3    H118456   5.890   2.101   2.385 -1.3536 -1.3189  1.7601
 6150TIP3    H218457   5.842   2.229   2.450  0.7594  0.8144 -0.6668
 6151TIP3   OH218458   4.811   3.506   1.156  0.4420  0.1593  0.4300
 6151TIP3    H118459   4.879   3.572   1.139  0.5428 -0.3426 -1.3170
 6151TIP3    H218460   4.731   3.545   1.121  0.3792 -0.3772 -0.0349
 6152TIP3   OH218461   3.204   1.494   1.536  0.4028  0.0449  0.0162
 6152TIP3    H118462   3.208   1.573   1.589  0.1862 -0.6199  1.0707
 6152TIP3    H218463   3.295   1.470   1.521  0.4705  0.6943 -0.6289
 6153TIP3   OH218464   2.860   5.342   3.452 -0.5051 -0.2882  0.1949
 6153TIP3    H118465   2.795   5.364   3.385  0.1596 -0.5666 -0.5618
 6153TIP3    H218466   2.942   5.375   3.417 -0.6939  4.0599  3.0118
 6154TIP3   OH218467   0.969   3.776   1.663  0.4300  0.9754 -0.5874
 6154TIP3    H118468   0.896   3.751   1.606  0.5245  1.1971 -0.8068
 6154TIP3    H218469   0.977   3.871   1.652  2.0964  0.6918 -2.1885
 6155TIP3   OH218470   2.059   0.567   2.076  0.2035  0.3322 -0.7211
 6155TIP3    H118471   2.112   0.647   2.081  0.2127  0.2638  0.3694
 6155TIP3    H218472   1.970   0.599   2.063  0.1808  0.5331 -0.0984
 6156TIP3   OH218473   4.771   1.789   2.091 -0.4570  0.5616  0.0850
 6156TIP3    H118474   4.687   1.819   2.126 -0.0465  0.9731  0.7344
 6156TIP3    H218475   4.825   1.775   2.169 -0.5219 -1.5564 -0.1807
 6157TIP3   OH218476   1.670   4.427   3.365 -0.6195  0.5820  0.4082
 6157TIP3    H118477   1.696   4.470   3.284  0.2650 -0.0297  0.3596
 6157TIP3    H218478   1.657   4.498   3.428  1.4808  0.9014  0.5233
 6158TIP3   OH218479   1.168   3.205   1.850 -0.2991 -0.5601 -0.2189
 6158TIP3    H118480   1.248   3.255   1.829 -0.1469 -1.2418 -1.3524
 6158TIP3    H218481   1.173   3.192   1.945 -0.7788  2.2721  0.2971
 6159TIP3   OH218482   3.096   4.308   0.301  0.5468 -0.0946 -0.8376
 6159TIP3    H118483   3.015   4.259   0.284  1.0124 -1.0156 -0.4825
 6159TIP3    H218484   3.165   4.250   0.270  1.1010  0.5096 -0.7475
 6160TIP3   OH218485   2.974   1.615   3.259  0.1724  0.3341 -0.3107
 6160TIP3    H118486   3.011   1.616   3.171 -0.9213 -0.3627 -0.7931
 6160TIP3    H218487   2.881   1.600   3.246 -0.1631  1.2107  0.9274
 6161TIP3   OH218488   5.879   0.650   4.727 -0.5207 -0.2585  0.2175
 6161TIP3    H118489   5.802   0.699   4.699 -0.0255  0.3507 -0.1160
 6161TIP3    H218490   5.844   0.575   4.775 -1.3140  0.0410  0.1229
 6162TIP3   OH218491   1.555   4.384   1.003 -0.3998  0.4433 -0.0111
 6162TIP3    H118492   1.634   4.354   1.048 -0.0633  2.0803  0.5518
 6162TIP3    H218493   1.560   4.343   0.917  0.3513 -0.5676  0.4896
 6163TIP3   OH218494   0.900   2.507   1.097  0.5264 -0.4829  0.2083
 6163TIP3    H118495   0.860   2.448   1.161 -2.2017 -0.2000 -1.1232
 6163TIP3    H218496   0.914   2.589   1.144 -1.5194 -0.2561  0.4855
 6164TIP3   OH218497   0.108   5.728   3.637 -0.3857 -0.2223  0.1906
 6164TIP3    H118498   0.085   5.724   3.730 -0.5277  0.6382  0.1994
 6164TIP3    H218499   0.049   5.794   3.600 -1.8763 -2.0940 -0.9752
 6165TIP3   OH218500   1.211   0.622   3.025  0.1101 -0.0900  0.2956
 6165TIP3    H118501   1.220   0.702   3.078  0.7591  0.3578 -0.4730
 6165TIP3    H218502   1.153   0.647   2.953  1.5651  0.1879 -0.8384
 6166TIP3   OH218503   0.898   2.113   3.321 -0.3866  0.1431 -0.4877
 6166TIP3    H118504   0.814   2.141   3.286  0.8393  1.6070 -2.4591
 6166TIP3    H218505   0.946   2.080   3.245  0.6343 -1.1879  0.6853
 6167TIP3   OH218506   4.110   4.566   3.972  0.5803  0.4177  0.2169
 6167TIP3    H118507   4.058   4.526   4.042  1.5501 -1.2262  0.0472
 6167TIP3    H218508   4.189   4.597   4.016  0.7166  0.3360  0.0303
 6168TIP3   OH218509   0.216   0.951   4.389 -0.3245  0.0532 -0.8875
 6168TIP3    H118510   0.185   1.018   4.449 -0.0361 -0.2006 -0.4499
 6168TIP3    H218511   0.258   0.885   4.445  1.1773  0.4766 -1.4666
 6169TIP3   OH218512   4.340   4.941   4.960  0.3712  0.6442  0.4539
 6169TIP3    H118513   4.250   4.919   4.934  1.1751 -0.4106 -1.6214
 6169TIP3    H218514   4.380   4.857   4.981  1.0446  1.0564  0.8694
 6170TIP3   OH218515   5.417   1.126   4.597 -0.2957 -0.0829 -0.0038
 6170TIP3    H118516   5.494   1.111   4.542 -0.1325  0.8931 -0.0741
 6170TIP3    H218517   5.446   1.104   4.686  0.2093  0.6771  0.0303
 6171TIP3   OH218518   2.831   3.428   0.429 -0.0891  0.3569 -0.0551
 6171TIP3    H118519   2.815   3.334   0.419  1.2668  0.1147 -0.1276
 6171TIP3    H218520   2.785   3.451   0.510  1.3082 -0.8527  1.1540
 6172TIP3   OH218521   0.637   0.369   1.790  0.5253 -0.6349 -0.7266
 6172TIP3    H118522   0.684   0.288   1.811 -0.4838 -0.8166  1.0412
 6172TIP3    H218523   0.549   0.355   1.823  0.7427  1.7853  1.1565
 6173TIP3   OH218524   3.339   1.126   3.681 -0.1601 -0.9111  0.7823
 6173TIP3    H118525   3.388   1.184   3.623  1.3408 -0.1528  2.6896
 6173TIP3    H218526   3.289   1.185   3.738 -2.0850 -1.6443 -0.0658
 6174TIP3   OH218527   3.722   5.121   2.138 -0.1216  0.7308  0.2150
 6174TIP3    H118528   3.699   5.196   2.193 -0.6799  0.6252  0.1260
 6174TIP3    H218529   3.735   5.049   2.200 -2.0590  0.2771  0.1304
 6175TIP3   OH218530   0.242   4.551   2.339 -0.0093 -0.0802 -0.3498
 6175TIP3    H118531   0.153   4.521   2.319  0.4059 -0.6152 -1.4441
 6175TIP3    H218532   0.281   4.570   2.254  0.2354  2.2501  0.2151
 6176TIP3   OH218533   2.835   2.145   2.007  0.0453  0.5030  0.1107
 6176TIP3    H118534   2.784   2.215   1.965 -0.6852  0.3092  0.6448
 6176TIP3    H218535   2.864   2.183   2.090  1.5724  0.9200 -0.5818
 6177TIP3   OH218536   2.961   3.542   4.299  0.4167 -0.6915 -0.4052
 6177TIP3    H118537   2.985   3.631   4.326 -0.8633  0.1190 -1.8002
 6177TIP3    H218538   2.966   3.491   4.379  0.4724  0.7897  0.5814
 6178TIP3   OH218539   0.720   2.187   3.100 -0.9904 -0.1867  0.4198
 6178TIP3    H118540   0.651   2.160   3.160 -2.0026 -0.0774 -0.6456
 6178TIP3    H218541   0.676   2.197   3.015  0.5458 -1.2780 -0.5759
 6179TIP3   OH218542   0.509   4.233   2.477 -0.2616  0.1824  0.2220
 6179TIP3    H118543   0.536   4.156   2.527  1.3903  1.2496  1.0434
 6179TIP3    H218544   0.434   4.203   2.426  1.2442 -2.4003 -0.6373
 6180TIP3   OH218545   3.196   4.346   1.707  0.4476 -0.3322 -0.3270
 6180TIP3    H118546   3.229   4.400   1.778 -1.4899  1.6394 -0.8364
 6180TIP3    H218547   3.173   4.263   1.748 -0.3156  0.6474  1.3144
 6181TIP3   OH218548   5.208   0.211   1.908 -0.1657 -0.4235  0.0347
 6181TIP3    H118549   5.231   0.158   1.832 -0.4799 -0.5885  0.0540
 6181TIP3    H218550   5.266   0.180   1.977  1.2072  0.7770 -0.5337
 6182TIP3   OH218551   4.213   5.328   0.514 -0.1472 -0.3173  0.2961
 6182TIP3    H118552   4.179   5.316   0.603 -1.3526 -0.8904 -0.2194
 6182TIP3    H218553   4.252   5.244   0.492 -0.6325 -0.4571 -0.0353
 6183TIP3   OH218554   2.051   3.206   0.753 -0.8919  0.2876  0.3593
 6183TIP3    H118555   1.994   3.170   0.822 -1.1175  0.1587  0.1084
 6183TIP3    H218556   2.026   3.299   0.748 -0.7316  0.3447  0.5908
 6184TIP3   OH218557   4.087   3.653   1.088  0.5492 -0.5212  0.1598
 6184TIP3    H118558   4.122   3.605   1.163  1.9616 -2.0527 -1.4105
 6184TIP3    H218559   3.996   3.673   1.113  1.1198 -0.4699  2.4724
 6185TIP3   OH218560   1.856   1.033   2.368  0.0541 -0.3250  0.6564
 6185TIP3    H118561   1.832   0.995   2.453  1.0467 -0.2795  0.9818
 6185TIP3    H218562   1.932   0.982   2.340  0.6125  0.5610  0.4902
 6186TIP3   OH218563   3.461   2.893   0.569  0.5035  0.1779  0.4352
 6186TIP3    H118564   3.420   2.958   0.512 -1.0239 -0.5030  0.6884
 6186TIP3    H218565   3.468   2.937   0.654 -0.4719  0.0612  0.5920
 6187TIP3   OH218566   3.582   5.322   3.350 -0.1462  0.8145  0.4271
 6187TIP3    H118567   3.565   5.275   3.432  0.3514  0.7087  0.4738
 6187TIP3    H218568   3.673   5.301   3.329 -0.0401  1.4430  0.2403
 6188TIP3   OH218569   2.588   3.656   5.168 -0.2719  0.0365 -0.1136
 6188TIP3    H118570   2.558   3.577   5.122 -1.3785 -0.1036  0.7942
 6188TIP3    H218571   2.638   3.704   5.102  0.2330 -1.3045 -0.7576
 6189TIP3   OH218572   3.869   4.191   1.884 -0.3330  0.4199 -0.7162
 6189TIP3    H118573   3.815   4.263   1.918  1.4174  0.3347  2.7015
 6189TIP3    H218574   3.954   4.232   1.867  0.2626 -0.5436 -0.1160
 6190TIP3   OH218575   2.433   1.924   0.041  0.7935 -0.3435 -0.3231
 6190TIP3    H118576   2.518   1.887   0.065  1.2743  1.7347  1.5369
 6190TIP3    H218577   2.379   1.912   0.119  0.4929  1.3564 -0.2241
 6191TIP3   OH218578   5.613   1.767   3.292  0.2013  0.3588 -0.4962
 6191TIP3    H118579   5.684   1.811   3.245 -2.9961  3.8827 -2.6145
 6191TIP3    H218580   5.574   1.709   3.226  0.5583 -0.9762  0.4247
 6192TIP3   OH218581   1.581   2.948   1.973  0.5352  0.1508 -0.0406
 6192TIP3    H118582   1.572   2.876   1.910  0.5528 -0.4572  0.6348
 6192TIP3    H218583   1.599   3.025   1.919 -0.4290 -0.1628 -0.8564
 6193TIP3   OH218584   0.349   5.340   2.497  0.6188 -0.3456 -0.1059
 6193TIP3    H118585   0.400   5.420   2.509 -0.0146 -0.0494  0.8416
 6193TIP3    H218586   0.329   5.338   2.404 -0.3400  1.2512  0.0175
 6194TIP3   OH218587   2.844   4.940   0.862 -0.5656 -0.2396  0.2845
 6194TIP3    H118588   2.885   4.857   0.887 -0.3253 -0.0870  0.3990
 6194TIP3    H218589   2.819   4.980   0.945  0.4364  0.3703  0.3153
 6195TIP3   OH218590   1.082   2.445   0.601 -0.2621 -0.3615  0.1942
 6195TIP3    H118591   1.176   2.445   0.582 -0.4559 -0.0060 -0.8157
 6195TIP3    H218592   1.077   2.430   0.696  0.8620  1.0558  0.5188
 6196TIP3   OH218593   6.255   2.923   2.546  0.2053  0.2955 -0.1211
 6196TIP3    H118594   6.240   2.944   2.454  1.3670  1.9374  0.0168
 6196TIP3    H218595   6.278   2.830   2.547  0.2531  0.2787 -1.4766
 6197TIP3   OH218596   6.031   3.799   2.121  0.1307 -0.1903  0.0207
 6197TIP3    H118597   5.939   3.794   2.092 -0.2488  0.2969  1.0788
 6197TIP3    H218598   6.060   3.708   2.124 -0.3747 -0.3652 -0.1726
 6198TIP3   OH218599   5.595   0.534   2.371  0.0853 -0.0056  0.2031
 6198TIP3    H118600   5.519   0.517   2.317  0.2136  1.1985 -0.3969
 6198TIP3    H218601   5.629   0.447   2.394  0.0802 -0.5693 -1.7263
 6199TIP3   OH218602   4.880   2.069   2.769 -0.2897 -0.2094 -0.4161
 6199TIP3    H118603   4.943   2.088   2.700 -1.4298 -2.8090 -2.3105
 6199TIP3    H218604   4.904   1.982   2.801  0.3456  0.9806  2.7626
 6200TIP3   OH218605   5.228   0.305   4.909 -0.5162 -0.4882 -0.2149
 6200TIP3    H118606   5.134   0.284   4.908 -0.5080 -0.5586  0.1627
 6200TIP3    H218607   5.259   0.266   4.991 -0.0679 -0.8554 -0.5565
 6201TIP3   OH218608   1.629   2.698   0.665  0.2970  0.4248  0.6828
 6201TIP3    H118609   1.685   2.712   0.741  0.1533  0.7599  0.7274
 6201TIP3    H218610   1.640   2.605   0.644  0.8350  0.4757  0.7168
 6202TIP3   OH218611   2.434   0.665   3.720 -0.1159  0.0342 -0.1433
 6202TIP3    H118612   2.490   0.690   3.793 -0.5600  1.1934 -0.1848
 6202TIP3    H218613   2.391   0.585   3.750  1.0024 -0.4731  0.1670
 6203TIP3   OH218614   5.690   3.849   4.067  0.3112  0.4366 -0.3735
 6203TIP3    H118615   5.646   3.930   4.095 -0.3546  0.0038 -0.1544
 6203TIP3    H218616   5.703   3.861   3.973 -4.3062 -1.1846 -1.5111
 6204TIP3   OH218617   3.636   4.808   2.034 -0.1222 -0.2350 -0.2741
 6204TIP3    H118618   3.656   4.838   2.122 -0.7467  0.4677 -0.3635
 6204TIP3    H218619   3.541   4.818   2.026  0.2021  2.3898 -1.9635
 6205TIP3   OH218620   0.175   1.164   0.504  0.4508  0.2139  0.5829
 6205TIP3    H118621   0.157   1.104   0.433  1.6711 -0.2148  0.6212
 6205TIP3    H218622   0.096   1.218   0.510  0.4652  0.5175 -1.3306
 6206TIP3   OH218623   4.831   1.215   2.829  0.2246 -0.3216 -0.3157
 6206TIP3    H118624   4.764   1.202   2.762 -0.4453  0.3844  0.1988
 6206TIP3    H218625   4.798   1.168   2.905  0.0896  0.3823  0.0716
 6207TIP3   OH218626   3.494   0.645   4.169  0.8185  0.0374  0.0863
 6207TIP3    H118627   3.513   0.666   4.260 -0.6759 -0.1036  0.4564
 6207TIP3    H218628   3.510   0.726   4.121  1.9927  0.0038  0.3980
 6208TIP3   OH218629   1.034   5.195   3.095  0.0319  0.0054  0.1044
 6208TIP3    H118630   1.118   5.166   3.059  0.7306  1.9900 -0.0162
 6208TIP3    H218631   1.051   5.285   3.125 -2.4240  1.0629 -1.3552
 6209TIP3   OH218632   2.862   5.501   1.300 -0.3097  0.0656  0.1561
 6209TIP3    H118633   2.776   5.501   1.258 -0.9396 -0.6784  1.3753
 6209TIP3    H218634   2.871   5.589   1.336 -1.9550 -0.6315  2.6066
 6210TIP3   OH218635   6.290   5.986   1.812 -0.4426  0.3152  0.3736
 6210TIP3    H118636   6.341   5.951   1.738  0.0791  1.2820  0.2651
 6210TIP3    H218637   6.324   5.938   1.888 -0.9749 -0.6815  0.0112
 6211TIP3   OH218638   3.966   3.577   2.062 -0.2384  0.1664  0.1676
 6211TIP3    H118639   4.054   3.610   2.045  0.4553 -0.4126  2.3116
 6211TIP3    H218640   3.916   3.654   2.089 -0.0290  0.3046  0.1654
 6212TIP3   OH218641   5.067   3.766   4.889 -0.1948  0.1910 -0.0272
 6212TIP3    H118642   4.999   3.721   4.839 -1.0486  2.3359 -0.9602
 6212TIP3    H218643   5.032   3.769   4.979 -0.3278 -0.5777 -0.0481
 6213TIP3   OH218644   3.210   5.695   4.501  0.1585  0.3941 -0.0600
 6213TIP3    H118645   3.284   5.692   4.562  1.0004 -0.9546 -1.0840
 6213TIP3    H218646   3.179   5.786   4.505  1.6546  0.9044  0.6457
 6214TIP3   OH218647   2.492   1.131   2.431 -0.2732  0.3217 -0.5334
 6214TIP3    H118648   2.511   1.210   2.379  1.3660  0.5220  0.3090
 6214TIP3    H218649   2.449   1.072   2.369  1.2439  0.7052 -2.0324
 6215TIP3   OH218650   1.294   2.904   4.344  0.3941 -0.0037  0.1730
 6215TIP3    H118651   1.368   2.910   4.405 -0.5828 -0.1726  1.4008
 6215TIP3    H218652   1.284   2.993   4.310  0.4807  0.2666  0.8349
 6216TIP3   OH218653   5.921  -0.017   0.369 -0.1160  0.2532 -0.0120
 6216TIP3    H118654   5.871   0.048   0.319  0.1966  0.2826 -0.2903
 6216TIP3    H218655   6.004   0.025   0.387  0.1056 -0.0846 -0.2328
 6217TIP3   OH218656   6.043   2.202   3.109 -0.1612  0.1289 -0.6153
 6217TIP3    H118657   6.040   2.221   3.203 -1.3971  0.6781 -0.7426
 6217TIP3    H218658   6.068   2.110   3.104  0.0850  0.1354  0.2432
 6218TIP3   OH218659   2.595   0.793   1.663  0.3608  0.6118 -0.1875
 6218TIP3    H118660   2.527   0.860   1.670 -0.1467  0.0973 -0.1879
 6218TIP3    H218661   2.549   0.710   1.674  1.0141  0.2651  0.0018
 6219TIP3   OH218662   2.152   5.568   3.180 -0.1808 -0.2813  0.3893
 6219TIP3    H118663   2.104   5.504   3.127 -1.2510  0.3387  0.5803
 6219TIP3    H218664   2.229   5.589   3.127 -0.6861 -0.4634 -0.4443
 6220TIP3   OH218665   5.063   2.782   3.224  0.3078 -0.4784  0.6367
 6220TIP3    H118666   5.000   2.853   3.214 -0.8744 -1.1732  2.5994
 6220TIP3    H218667   5.136   2.821   3.272  1.8198  0.5171 -2.2670
 6221TIP3   OH218668   5.686   4.245   2.966  0.6392  0.3922  0.1831
 6221TIP3    H118669   5.673   4.161   3.009  1.1297  0.0557 -0.3108
 6221TIP3    H218670   5.726   4.300   3.033 -0.5850  0.5435  0.8068
 6222TIP3   OH218671   5.690   4.513   4.551  0.0339  0.1075  0.6378
 6222TIP3    H118672   5.682   4.511   4.455  0.0877  0.9484  0.6085
 6222TIP3    H218673   5.731   4.430   4.573 -2.3571 -1.2943  0.1679
 6223TIP3   OH218674   5.199   0.436   0.913  0.1151 -0.0968 -0.2214
 6223TIP3    H118675   5.244   0.397   0.837  0.6951  0.7834 -0.3425
 6223TIP3    H218676   5.250   0.514   0.933  0.1514 -0.4765  1.2820
 6224TIP3   OH218677   1.048   5.118   1.918 -0.3047 -0.0205 -0.4095
 6224TIP3    H118678   1.138   5.100   1.888  0.2935  0.4894  1.0118
 6224TIP3    H218679   1.055   5.123   2.013 -1.5436  1.5640 -0.3560
 6225TIP3   OH218680   6.313   0.926   3.159 -0.0205 -0.3123 -0.2691
 6225TIP3    H118681   6.229   0.954   3.195 -0.2071 -1.4079  0.1708
 6225TIP3    H218682   6.354   0.874   3.228  0.7966 -0.2171 -0.6652
 6226TIP3   OH218683   1.320   4.693   3.041 -0.9308 -0.0100 -0.4134
 6226TIP3    H118684   1.294   4.703   3.133  1.1494  0.3026  0.1899
 6226TIP3    H218685   1.253   4.740   2.992 -2.8009 -1.2400  0.8016
 6227TIP3   OH218686   5.588   2.635   4.713 -0.0859  0.1142  0.6623
 6227TIP3    H118687   5.581   2.552   4.761  0.4921 -0.0289  0.5121
 6227TIP3    H218688   5.592   2.609   4.621  0.0911  0.3041  0.6147
 6228TIP3   OH218689   0.768   3.237   0.196 -0.1074  0.9345  0.6458
 6228TIP3    H118690   0.862   3.227   0.183 -0.3162 -1.7999  0.6038
 6228TIP3    H218691   0.756   3.238   0.291 -0.1290 -0.6448  0.6857
 6229TIP3   OH218692   3.581   3.461   0.674  0.2215  0.3752 -0.1654
 6229TIP3    H118693   3.529   3.536   0.645 -0.3612  0.0934  0.1470
 6229TIP3    H218694   3.638   3.496   0.742  0.0965  0.5773 -0.1642
 6230TIP3   OH218695   5.133   3.828   2.376 -0.0705  0.3261  0.3289
 6230TIP3    H118696   5.193   3.798   2.308 -0.6070  0.3399 -0.1504
 6230TIP3    H218697   5.190   3.873   2.439  0.3260  1.0544 -0.5265
 6231TIP3   OH218698   1.588   2.735   1.519 -0.0092  0.3686 -0.3707
 6231TIP3    H118699   1.669   2.699   1.485  0.3375  1.9979 -1.3513
 6231TIP3    H218700   1.613   2.819   1.556 -0.2606 -1.3345  4.4259
 6232TIP3   OH218701   5.309   1.069   1.401 -0.6929  0.1749 -0.7472
 6232TIP3    H118702   5.250   1.132   1.443 -1.2201  0.2709 -1.6099
 6232TIP3    H218703   5.301   1.088   1.307  1.5631  0.9436 -0.8391
 6233TIP3   OH218704   5.851   2.064   2.771  0.5418  0.2365  0.5000
 6233TIP3    H118705   5.926   2.035   2.824 -0.5859 -1.0157  1.4672
 6233TIP3    H218706   5.871   2.154   2.749  2.0712  0.1110  1.2314
 6234TIP3   OH218707   2.727   1.956   2.707  0.3913 -0.3672  0.2304
 6234TIP3    H118708   2.815   1.945   2.670  0.1029  0.1720 -0.6697
 6234TIP3    H218709   2.742   1.990   2.795  1.0890  0.5113 -0.2023
 6235TIP3   OH218710   3.391   2.278   3.658  0.1778  0.4370  0.2818
 6235TIP3    H118711   3.443   2.301   3.581 -1.4595  1.6594 -0.5190
 6235TIP3    H218712   3.387   2.359   3.710 -1.5040  0.5993 -0.0505
 6236TIP3   OH218713   3.574   0.619   3.190 -0.1588 -0.1255 -0.0555
 6236TIP3    H118714   3.481   0.626   3.167 -0.5544  1.2027  1.7393
 6236TIP3    H218715   3.604   0.710   3.197  0.6920 -0.4900  1.5010
 6237TIP3   OH218716   3.771   3.350   2.898  0.1023 -0.0101  0.7311
 6237TIP3    H118717   3.678   3.333   2.909 -0.7025  2.6247 -1.1585
 6237TIP3    H218718   3.801   3.279   2.841 -1.5200  0.8184 -1.2652
 6238TIP3   OH218719   5.302   2.985   1.361  0.3028  0.2663  0.0110
 6238TIP3    H118720   5.211   2.958   1.344  0.2516  0.4155  0.0384
 6238TIP3    H218721   5.295   3.041   1.439  0.2798  1.0800 -0.5638
 6239TIP3   OH218722   0.473   5.061   3.208  0.7539  0.2437  0.1893
 6239TIP3    H118723   0.503   4.972   3.191  0.4353 -0.3113  2.2748
 6239TIP3    H218724   0.383   5.063   3.174  0.3647 -0.6091  1.1140
 6240TIP3   OH218725   5.242   2.451   3.788  0.2086 -0.3667  0.3718
 6240TIP3    H118726   5.333   2.478   3.802  0.3738 -1.7093  2.2293
 6240TIP3    H218727   5.199   2.466   3.872 -1.4413  0.6530 -0.5943
 6241TIP3   OH218728   1.647   1.744   3.646  0.0194 -0.3597 -0.4951
 6241TIP3    H118729   1.598   1.674   3.689  0.6840 -0.0727  0.7865
 6241TIP3    H218730   1.738   1.729   3.673  0.4398 -0.1013 -1.7379
 6242TIP3   OH218731   2.078   5.301   1.831  0.4116  0.5732 -0.3107
 6242TIP3    H118732   2.162   5.264   1.858 -0.7965 -0.9120  1.7172
 6242TIP3    H218733   2.059   5.259   1.747  0.3023 -1.4990  0.7007
 6243TIP3   OH218734   5.841   0.346   1.659 -0.5576 -0.1391 -0.1796
 6243TIP3    H118735   5.841   0.420   1.720 -0.1608  0.9216 -1.4308
 6243TIP3    H218736   5.819   0.384   1.574 -1.3792 -1.6376 -0.6789
 6244TIP3   OH218737   6.134   0.687   4.794 -0.1501  0.1908  0.1559
 6244TIP3    H118738   6.053   0.639   4.777 -0.0878 -0.1708  0.8432
 6244TIP3    H218739   6.164   0.654   4.879  1.1349 -0.2417 -0.4497
 6245TIP3   OH218740   0.101   5.419   2.270 -0.2668  0.4395  0.1698
 6245TIP3    H118741   0.183   5.395   2.227  0.2354  2.1573  0.0969
 6245TIP3    H218742   0.043   5.445   2.199 -0.5169  0.2247  0.2956
 6246TIP3   OH218743   4.203   2.378   4.144  0.1603  0.3913  1.1145
 6246TIP3    H118744   4.209   2.293   4.188  0.8961  0.9891  2.2368
 6246TIP3    H218745   4.156   2.434   4.206 -2.3538  0.2615 -0.5399
 6247TIP3   OH218746   3.643   2.467   0.807  0.6492 -0.0033  0.1573
 6247TIP3    H118747   3.655   2.546   0.860 -1.3483  0.8740 -0.5965
 6247TIP3    H218748   3.732   2.436   0.791  1.4875  1.9221  0.7332
 6248TIP3   OH218749   0.256   5.722   4.102  0.2215  0.2819 -0.1574
 6248TIP3    H118750   0.325   5.730   4.168 -0.6107 -1.8379  1.0508
 6248TIP3    H218751   0.184   5.776   4.136  0.1541 -0.0218  0.1888
 6249TIP3   OH218752   6.196   4.234   2.646  0.7143  0.4721  0.5041
 6249TIP3    H118753   6.120   4.178   2.663  0.2556  1.5303  2.1972
 6249TIP3    H218754   6.267   4.173   2.626 -0.3008 -0.5912 -0.0024
 6250TIP3   OH218755   6.306   3.822   0.660 -0.0714 -0.0934  0.2547
 6250TIP3    H118756   6.234   3.806   0.599  0.1133 -1.0996  0.2712
 6250TIP3    H218757   6.287   3.907   0.699 -0.3346  0.4446 -1.0079
 6251TIP3   OH218758   3.346   1.352   2.950  0.0887  0.4095 -0.1085
 6251TIP3    H118759   3.280   1.350   3.020 -0.4762 -1.1713 -0.6409
 6251TIP3    H218760   3.428   1.370   2.995 -0.4821  0.8749  0.7723
 6252TIP3   OH218761   4.769   2.548   4.335 -0.3779 -0.0535  0.0403
 6252TIP3    H118762   4.821   2.628   4.329 -0.0857 -0.2358  0.1150
 6252TIP3    H218763   4.813   2.487   4.276  0.9257 -1.0031  1.8949
 6253TIP3   OH218764   2.749   2.539   3.494 -0.1450 -0.4451  0.0753
 6253TIP3    H118765   2.721   2.518   3.583  0.3882  1.7747  0.8045
 6253TIP3    H218766   2.763   2.633   3.493  0.4281 -0.4714 -2.2178
 6254TIP3   OH218767   0.307   5.724   3.440 -0.8075  0.0585 -0.2357
 6254TIP3    H118768   0.241   5.746   3.506 -0.1403 -0.2553  0.5478
 6254TIP3    H218769   0.389   5.755   3.476 -0.4704  0.1400 -1.0568
 6255TIP3   OH218770   1.882   1.526   1.946  0.2543 -0.5860 -1.0122
 6255TIP3    H118771   1.801   1.524   1.997  0.4288 -2.0481 -0.7492
 6255TIP3    H218772   1.891   1.618   1.918 -0.9757 -0.2121 -0.2446
 6256TIP3   OH218773   3.441   5.489   0.352 -0.0103 -0.4066  0.7375
 6256TIP3    H118774   3.418   5.559   0.414  0.2464 -0.7361  1.2144
 6256TIP3    H218775   3.427   5.408   0.402 -0.7610 -0.7200  0.0383
 6257TIP3   OH218776   4.950   1.718   0.509 -0.4564  0.1098  0.4190
 6257TIP3    H118777   4.908   1.793   0.467  1.7163  0.4983 -1.2705
 6257TIP3    H218778   4.922   1.643   0.458 -0.5328  0.1419  0.4142
 6258TIP3   OH218779   4.441   5.653   3.812 -0.0422 -0.2199  0.3917
 6258TIP3    H118780   4.398   5.576   3.849 -0.7542 -0.0231 -0.0050
 6258TIP3    H218781   4.473   5.702   3.888 -0.5891 -0.3338  0.6960
 6259TIP3   OH218782   5.194   2.659   4.954  0.1374 -0.3433 -0.1438
 6259TIP3    H118783   5.138   2.736   4.945 -1.1636 -1.3349 -1.0644
 6259TIP3    H218784   5.159   2.613   5.030  0.6943 -0.1983  0.2006
 6260TIP3   OH218785   3.592   5.843   2.543 -0.0837  0.4132  0.1898
 6260TIP3    H118786   3.610   5.922   2.594  0.1181  0.3566  0.2057
 6260TIP3    H218787   3.677   5.817   2.508 -0.5520  1.7438 -2.0940
 6261TIP3   OH218788   4.495   4.678   4.959 -0.2238 -0.3859  0.2857
 6261TIP3    H118789   4.525   4.671   4.868 -0.9963  0.9646 -0.0945
 6261TIP3    H218790   4.491   4.588   4.990 -0.0285 -0.8699 -1.0461
 6262TIP3   OH218791   2.695   5.236   0.799  0.0179 -0.4243 -0.3221
 6262TIP3    H118792   2.749   5.235   0.720  0.2492  1.1586 -0.2047
 6262TIP3    H218793   2.753   5.202   0.868  0.3598 -0.2049 -0.5002
 6263TIP3   OH218794   2.191   0.081   0.206  0.5006  0.4499  0.0733
 6263TIP3    H118795   2.278   0.121   0.201  0.9040 -0.2850  0.9056
 6263TIP3    H218796   2.206  -0.004   0.248 -0.8882  1.2400  2.3981
 6264TIP3   OH218797   5.395   3.899   0.788  0.2242 -0.7002  0.0870
 6264TIP3    H118798   5.480   3.904   0.834 -0.3251 -1.2846  1.2188
 6264TIP3    H218799   5.397   3.814   0.744  0.4510 -0.4698 -0.3464
 6265TIP3   OH218800   3.768   0.680   5.143  0.1050  0.1180 -0.5187
 6265TIP3    H118801   3.762   0.677   5.238 -1.6289  2.4133 -0.4717
 6265TIP3    H218802   3.748   0.591   5.115 -0.6879 -0.3035  1.2458
 6266TIP3   OH218803   1.156   3.460   2.568 -0.2064 -0.2804 -0.6811
 6266TIP3    H118804   1.209   3.498   2.639 -1.3340  0.1257 -0.0234
 6266TIP3    H218805   1.083   3.522   2.558 -0.5221 -0.7920 -1.6041
 6267TIP3   OH218806   1.295   0.641   5.101  0.0191  0.4733  0.2996
 6267TIP3    H118807   1.285   0.584   5.178  0.3665  1.5146  1.1375
 6267TIP3    H218808   1.233   0.605   5.037  0.0834 -0.7258  0.8661
 6268TIP3   OH218809   5.863   2.547   1.463 -0.1861  0.1238  0.4762
 6268TIP3    H118810   5.858   2.634   1.423  1.8651  0.5719  1.0609
 6268TIP3    H218811   5.887   2.565   1.554  1.1548 -1.0560  0.3888
 6269TIP3   OH218812   3.910   3.610   3.975 -0.0008  0.1073 -0.0577
 6269TIP3    H118813   3.956   3.654   4.047 -0.5228  0.3840  0.1083
 6269TIP3    H218814   3.850   3.676   3.942 -0.9941 -0.5626  0.3666
 6270TIP3   OH218815   4.770   4.248   4.257  0.2367 -0.3116 -0.0439
 6270TIP3    H118816   4.861   4.220   4.267 -0.4438 -3.5611 -1.6984
 6270TIP3    H218817   4.766   4.284   4.168  0.5623  3.2712  1.2430
 6271TIP3   OH218818   1.452   3.418   3.175 -0.3752  0.3329  0.3576
 6271TIP3    H118819   1.508   3.397   3.250  1.4120  2.5777 -0.2204
 6271TIP3    H218820   1.491   3.372   3.102  0.4354  1.4423  0.0643
 6272TIP3   OH218821   5.595   2.177   2.214  0.5520  0.3761 -0.2233
 6272TIP3    H118822   5.584   2.271   2.223 -0.3751  0.1731  1.0695
 6272TIP3    H218823   5.630   2.148   2.298 -0.0777 -0.5398 -0.2547
 6273TIP3   OH218824   6.130   0.851   1.103 -0.3064  0.5757  0.2811
 6273TIP3    H118825   6.201   0.821   1.161 -1.4499 -0.8530  0.9932
 6273TIP3    H218826   6.123   0.782   1.037 -2.2348 -0.2648  1.2884
 6274TIP3   OH218827   5.164   1.440   4.106  0.2650 -0.1903  0.2216
 6274TIP3    H118828   5.164   1.419   4.013  1.8089  0.2987  0.0898
 6274TIP3    H218829   5.250   1.413   4.138 -0.5679 -1.2319  1.7419
 6275TIP3   OH218830   1.598   2.830   0.415  0.2261  1.0209 -0.2981
 6275TIP3    H118831   1.689   2.803   0.426  0.0887  1.0102  1.1144
 6275TIP3    H218832   1.554   2.796   0.494 -1.1284  0.4883 -1.2483
 6276TIP3   OH218833   0.277   3.654   0.515 -0.2829  0.3506 -0.4887
 6276TIP3    H118834   0.290   3.674   0.423  1.8953 -0.0397 -0.3304
 6276TIP3    H218835   0.244   3.564   0.516  1.5577 -0.3769 -0.8889
 6277TIP3   OH218836   3.940   1.922   0.797  0.0920  0.0643 -0.5905
 6277TIP3    H118837   4.023   1.940   0.753  1.0383 -2.4534  0.0019
 6277TIP3    H218838   3.895   1.861   0.740  0.7206 -2.1441  1.1395
 6278TIP3   OH218839   4.097   0.417   2.144  0.3540  0.3336 -0.2302
 6278TIP3    H118840   4.001   0.419   2.144  0.3317  0.5212  1.6302
 6278TIP3    H218841   4.119   0.327   2.166  0.6177  0.2553 -0.7981
 6279TIP3   OH218842   5.784   3.247   3.796 -0.1086  0.6220 -0.3745
 6279TIP3    H118843   5.851   3.192   3.755  2.6481  2.9912  0.6186
 6279TIP3    H218844   5.775   3.213   3.884 -1.0127 -0.3236 -0.8178
 6280TIP3   OH218845   6.181   2.416   2.953  0.1782  0.8166  0.3665
 6280TIP3    H118846   6.136   2.335   2.979  0.5249 -0.0700 -1.6141
 6280TIP3    H218847   6.243   2.433   3.024  0.7654 -1.2179  0.3945
 6281TIP3   OH218848   4.166   3.783   3.734  0.0552 -0.5119  0.4926
 6281TIP3    H118849   4.097   3.719   3.753 -0.5818 -0.4015 -1.2509
 6281TIP3    H218850   4.192   3.764   3.644 -1.6367  2.9217 -0.9279
 6282TIP3   OH218851   3.960   4.756   3.589  0.8321 -0.0723 -0.3992
 6282TIP3    H118852   4.022   4.815   3.547 -1.5721  2.4961 -0.6362
 6282TIP3    H218853   3.900   4.731   3.519 -1.0844  1.3136  0.6611
 6283TIP3   OH218854   1.194   3.274   1.495  0.1097  0.2724  0.2580
 6283TIP3    H118855   1.170   3.196   1.545 -1.0317 -0.4053 -1.2619
 6283TIP3    H218856   1.243   3.240   1.420 -0.0795  1.0547 -0.2337
 6284TIP3   OH218857   0.123   2.246   1.617  0.3046 -0.3496 -0.0968
 6284TIP3    H118858   0.053   2.262   1.680 -0.6996 -1.5623 -0.8793
 6284TIP3    H218859   0.080   2.247   1.532  1.6751  1.4708 -0.8379
 6285TIP3   OH218860   2.776   4.394   1.826  0.2350 -0.7819  0.2253
 6285TIP3    H118861   2.827   4.353   1.896 -0.1543  1.2222  1.7788
 6285TIP3    H218862   2.826   4.472   1.801 -1.1012  0.2089  0.4823
 6286TIP3   OH218863   2.815   0.120   3.666 -0.4410  0.1806  0.4168
 6286TIP3    H118864   2.780   0.152   3.749 -0.3967  1.0583  0.1052
 6286TIP3    H218865   2.762   0.043   3.646 -0.1462 -0.3099  1.4842
 6287TIP3   OH218866   2.766   5.043   0.333  0.7250  0.4627 -0.0713
 6287TIP3    H118867   2.683   5.079   0.366  0.7460  0.4568 -0.0124
 6287TIP3    H218868   2.789   5.100   0.260 -0.8052 -1.1905 -1.9960
 6288TIP3   OH218869   3.538   0.465   4.874 -0.2183  0.2650 -0.0604
 6288TIP3    H118870   3.573   0.553   4.856  0.4356  0.2574  1.1018
 6288TIP3    H218871   3.447   0.481   4.902  0.1672  0.6638  1.0087
 6289TIP3   OH218872   5.881   4.312   4.697 -0.0785  0.6578  0.3255
 6289TIP3    H118873   5.910   4.226   4.667 -0.4985  1.0132 -1.1962
 6289TIP3    H218874   5.935   4.374   4.647  0.1766  1.2964  1.3565
 6290TIP3   OH218875   3.368   4.213   0.931 -0.2881  0.1734 -0.4411
 6290TIP3    H118876   3.294   4.181   0.983 -0.3644  0.7410 -0.2007
 6290TIP3    H218877   3.329   4.238   0.847 -0.2668 -0.1349 -0.5433
 6291TIP3   OH218878   2.977   5.104   4.644 -0.0867 -0.5509 -0.2549
 6291TIP3    H118879   3.007   5.053   4.570 -1.1684  0.0140 -1.1228
 6291TIP3    H218880   2.952   5.189   4.606 -1.5777 -0.5863  0.5648
 6292TIP3   OH218881   5.419   3.518   5.135  0.4419 -0.3949 -0.3298
 6292TIP3    H118882   5.357   3.445   5.139 -0.9295  0.7793  0.7253
 6292TIP3    H218883   5.414   3.549   5.044  1.3410 -1.8163 -0.9000
 6293TIP3   OH218884   0.661   2.417   3.868  0.0725 -0.0372  0.0679
 6293TIP3    H118885   0.740   2.413   3.814 -0.5226 -0.0235 -0.8383
 6293TIP3    H218886   0.678   2.487   3.931  2.0815 -2.1892  2.0719
 6294TIP3   OH218887   1.951   2.583   4.197 -0.2657  0.2743 -0.0492
 6294TIP3    H118888   2.002   2.606   4.119 -1.1588  0.9284 -0.4569
 6294TIP3    H218889   1.860   2.602   4.173 -0.6762 -0.5294  0.7852
 6295TIP3   OH218890   1.136   0.800   1.792 -0.1653  0.4960 -0.1607
 6295TIP3    H118891   1.220   0.838   1.817 -1.1967  1.8582  1.4574
 6295TIP3    H218892   1.083   0.875   1.764 -0.5349 -0.4631 -2.2820
 6296TIP3   OH218893   2.157   0.479   3.110 -0.3477 -0.1109 -0.0745
 6296TIP3    H118894   2.113   0.538   3.049  0.5481  2.0469  1.2457
 6296TIP3    H218895   2.250   0.486   3.088 -0.0371  0.5047  1.3350
 6297TIP3   OH218896   4.722   5.138   2.488 -0.2424 -0.3153  0.0132
 6297TIP3    H118897   4.770   5.135   2.405 -1.2056  0.5831 -0.6079
 6297TIP3    H218898   4.630   5.129   2.462 -0.4824 -1.3408  1.1116
 6298TIP3   OH218899   0.175   3.385   2.523  0.2353 -0.2688  0.4119
 6298TIP3    H118900   0.160   3.473   2.490 -1.0565 -0.8962 -0.7982
 6298TIP3    H218901   0.150   3.328   2.450  1.0265 -1.6290  1.1721
 6299TIP3   OH218902   5.599   5.801   4.674  0.0167  0.2933 -0.3292
 6299TIP3    H118903   5.691   5.783   4.693  0.4480  3.3586  1.0520
 6299TIP3    H218904   5.597   5.824   4.582  1.2089  2.8806  0.2159
 6300TIP3   OH218905   0.564   1.081   2.877 -0.2700 -0.7051  0.3341
 6300TIP3    H118906   0.541   1.038   2.959  0.0202 -2.5835 -0.5117
 6300TIP3    H218907   0.585   1.009   2.817  0.3056  0.6361 -1.1570
 6301TIP3   OH218908   3.459   2.372   3.233  0.2627 -0.1802  0.0409
 6301TIP3    H118909   3.390   2.374   3.167  0.3446 -0.1356 -0.0449
 6301TIP3    H218910   3.440   2.295   3.286 -0.8093  0.7526  1.0648
 6302TIP3   OH218911   5.565   4.665   1.087 -0.9173 -0.4909  0.1109
 6302TIP3    H118912   5.576   4.739   1.147  0.6828 -0.6169  0.0169
 6302TIP3    H218913   5.524   4.597   1.140  0.2749 -0.5262  1.0453
 6303TIP3   OH218914   1.012   5.877   0.905  0.0673 -0.5757 -0.1717
 6303TIP3    H118915   0.954   5.821   0.854 -0.1409 -0.2429 -0.2995
 6303TIP3    H218916   0.991   5.966   0.877  0.5661 -0.4460 -0.1445
 6304TIP3   OH218917   0.241   0.914   3.541 -0.1609 -0.5533  0.1441
 6304TIP3    H118918   0.331   0.942   3.558 -0.2546  0.6129 -1.1299
 6304TIP3    H218919   0.196   0.928   3.625  0.1166  1.9259 -0.0466
 6305TIP3   OH218920   2.652   2.415   2.171 -0.3641 -0.5965 -0.4924
 6305TIP3    H118921   2.648   2.455   2.258 -2.1459  0.4911 -1.0408
 6305TIP3    H218922   2.565   2.378   2.158  0.2943 -1.9694 -1.2991
 6306TIP3   OH218923   2.693   3.803   0.461  0.5152 -0.6771  0.0734
 6306TIP3    H118924   2.700   3.752   0.380 -0.4511  0.1590 -0.5560
 6306TIP3    H218925   2.666   3.739   0.527  0.0885 -1.1374 -0.5357
 6307TIP3   OH218926   3.780   4.390   2.532 -0.3139  0.7645  0.5960
 6307TIP3    H118927   3.874   4.379   2.518 -0.4638 -0.0040  0.1253
 6307TIP3    H218928   3.771   4.478   2.567  0.6700  0.5263  1.4915
 6308TIP3   OH218929   0.476   2.252   2.915 -0.1113  0.2695  0.0151
 6308TIP3    H118930   0.438   2.218   2.997  2.0812  1.1418  1.4979
 6308TIP3    H218931   0.408   2.310   2.880 -1.7895 -1.4401  0.2393
 6309TIP3   OH218932   3.011   5.667   3.504  0.2108  0.1226 -0.6858
 6309TIP3    H118933   3.035   5.704   3.419  1.1625  2.5634  0.5230
 6309TIP3    H218934   2.916   5.659   3.501  0.2950 -0.6154 -2.2359
 6310TIP3   OH218935   1.367   1.351   1.588 -0.1711 -0.3204 -0.4980
 6310TIP3    H118936   1.453   1.391   1.603 -0.3038  0.0512 -0.7073
 6310TIP3    H218937   1.348   1.305   1.670  0.7758 -1.4531 -0.9025
 6311TIP3   OH218938   4.410   1.299   1.620  0.2057 -0.1713  0.4381
 6311TIP3    H118939   4.420   1.205   1.638 -0.5607 -0.4395 -0.4235
 6311TIP3    H218940   4.493   1.325   1.582 -0.9727 -1.6010 -3.6399
 6312TIP3   OH218941   1.087   3.371   3.240  0.8331 -0.3195 -0.0600
 6312TIP3    H118942   1.136   3.398   3.317 -1.4138  0.4977  1.1588
 6312TIP3    H218943   1.072   3.451   3.191  0.3228 -0.4750 -0.1665
 6313TIP3   OH218944   3.649   0.724   2.353 -0.0640  0.7026 -0.2035
 6313TIP3    H118945   3.692   0.661   2.295  0.2252  1.8525 -1.2829
 6313TIP3    H218946   3.574   0.676   2.388  0.0770 -0.2126 -1.0952
 6314TIP3   OH218947   0.998   0.675   0.434  0.2339  0.1664  0.0114
 6314TIP3    H118948   0.903   0.672   0.432  0.1896  0.6528  0.8217
 6314TIP3    H218949   1.025   0.584   0.431 -0.2778  0.0001  0.3455
 6315TIP3   OH218950   1.004   4.029   5.120 -0.3362  0.2365 -0.4289
 6315TIP3    H118951   1.080   3.975   5.098  0.3931  0.4097  1.4428
 6315TIP3    H218952   0.956   4.038   5.038  1.0214 -0.8928 -1.3960
 6316TIP3   OH218953   0.905   4.430   0.616 -0.1217 -0.1337 -0.5607
 6316TIP3    H118954   0.831   4.438   0.556 -0.4122 -1.6941 -0.4615
 6316TIP3    H218955   0.980   4.465   0.568 -0.6638  0.2083 -1.1754
 6317TIP3   OH218956   4.340   1.769   0.998 -0.3942  0.2003  0.0295
 6317TIP3    H118957   4.330   1.816   0.916  0.1891 -0.6433 -0.5459
 6317TIP3    H218958   4.413   1.709   0.982  0.3006  0.6385  1.4517
 6318TIP3   OH218959   2.445   3.183   3.855 -0.8051  0.3552 -0.2672
 6318TIP3    H118960   2.539   3.184   3.872 -0.5558  1.1753 -1.5860
 6318TIP3    H218961   2.418   3.093   3.876  0.4999 -0.2416 -1.0327
 6319TIP3   OH218962   1.994   2.659   5.030 -0.1954 -0.0008 -0.4995
 6319TIP3    H118963   2.071   2.648   4.974 -0.8465 -0.9047 -1.2483
 6319TIP3    H218964   2.018   2.730   5.089  1.5045 -0.7617 -0.2144
 6320TIP3   OH218965   1.514   5.222   4.534  0.1609  0.6742 -0.6220
 6320TIP3    H118966   1.454   5.169   4.480 -2.3488  1.5388  1.1425
 6320TIP3    H218967   1.498   5.312   4.506 -0.4562  1.0415  0.8349
 6321TIP3   OH218968   3.507   4.612   3.798 -0.4586 -0.1156 -0.4444
 6321TIP3    H118969   3.577   4.560   3.837 -2.1099 -0.1008  2.8970
 6321TIP3    H218970   3.434   4.551   3.789 -1.5602  0.9263  0.9555
 6322TIP3   OH218971   6.309   4.728   1.219 -0.0146  0.1183  0.0054
 6322TIP3    H118972   6.319   4.821   1.199  1.2285 -0.3352 -1.6990
 6322TIP3    H218973   6.242   4.725   1.287 -1.5868  2.1200 -1.3448
 6323TIP3   OH218974   0.359   4.116   1.601 -0.1514 -0.0074 -0.1948
 6323TIP3    H118975   0.355   4.165   1.519 -3.0780  0.3739  0.0870
 6323TIP3    H218976   0.345   4.025   1.576  0.4405 -0.0902 -0.2411
 6324TIP3   OH218977   0.276   5.482   2.781  0.4556 -0.0537  0.3506
 6324TIP3    H118978   0.316   5.449   2.701  0.9525 -0.7476  0.8789
 6324TIP3    H218979   0.336   5.550   2.812  1.8077 -1.7549  1.6685
 6325TIP3   OH218980   5.628   4.338   4.084 -0.0763  0.5146  0.1045
 6325TIP3    H118981   5.551   4.291   4.051  0.2823 -0.1234  0.1686
 6325TIP3    H218982   5.701   4.303   4.033  0.5052 -0.5875  1.6432
 6326TIP3   OH218983   2.775   3.169   0.755  0.4844 -0.4881  0.3704
 6326TIP3    H118984   2.857   3.181   0.803  0.2553 -0.7953  0.8482
 6326TIP3    H218985   2.800   3.174   0.663  1.2462 -1.7969  0.4814
 6327TIP3   OH218986   4.879   4.270   3.543  0.0885 -0.4774 -0.0714
 6327TIP3    H118987   4.962   4.302   3.579  1.2861 -1.8773 -1.4195
 6327TIP3    H218988   4.832   4.349   3.517  1.5283  0.3188 -0.3547
 6328TIP3   OH218989   4.558   3.130   1.744  0.3366  0.4061  0.8499
 6328TIP3    H118990   4.582   3.040   1.767 -0.9746 -0.4254 -0.7611
 6328TIP3    H218991   4.474   3.144   1.788 -0.1657  0.2887 -0.0385
 6329TIP3   OH218992   1.431   1.599   3.432  0.3935 -0.1531  0.0394
 6329TIP3    H118993   1.456   1.626   3.520 -0.3127 -1.4027  0.6589
 6329TIP3    H218994   1.339   1.623   3.425  0.4789  0.0527 -0.4080
 6330TIP3   OH218995   5.074   1.242   0.058  0.0834  0.3539 -0.1778
 6330TIP3    H118996   5.000   1.223  -0.000 -0.6684 -1.2366  1.2043
 6330TIP3    H218997   5.144   1.184   0.028  0.8997  1.9937 -1.6056
 6331TIP3   OH218998   0.076   3.468   2.233 -0.1253  0.0093  0.3093
 6331TIP3    H118999   0.036   3.384   2.256 -0.1091  0.3746  1.8046
 6331TIP3    H219000   0.125   3.451   2.152  1.1417 -1.8216  1.3902
 6332TIP3   OH219001   5.851   1.298   1.322  0.1793 -0.0928 -0.1605
 6332TIP3    H119002   5.796   1.310   1.399 -0.0150 -0.7149 -0.1976
 6332TIP3    H219003   5.855   1.385   1.281 -0.0019  0.1604  0.3543
 6333TIP3   OH219004   5.950   3.399   3.561  0.2678 -0.3715 -0.3542
 6333TIP3    H119005   5.858   3.400   3.534  0.1620  2.9197 -0.2542
 6333TIP3    H219006   5.947   3.406   3.656  0.5619  1.0671 -0.4282
 6334TIP3   OH219007   5.917   4.838   4.545  0.0261  0.4407  0.2495
 6334TIP3    H119008   5.828   4.804   4.540 -0.4114  1.5010  0.6153
 6334TIP3    H219009   5.913   4.923   4.502  1.2753 -0.2354 -1.3471
 6335TIP3   OH219010   3.636   3.571   3.522 -0.0415 -0.4044  0.0782
 6335TIP3    H119011   3.588   3.542   3.444 -1.2423 -2.0321  1.3562
 6335TIP3    H219012   3.680   3.493   3.554 -1.1708 -0.2794  2.1246
 6336TIP3   OH219013   1.324   2.285   4.355 -0.3252  0.1375  0.2466
 6336TIP3    H119014   1.259   2.355   4.352  0.5644  0.9716 -0.0550
 6336TIP3    H219015   1.327   2.259   4.447 -1.9291 -0.7559  0.0881
 6337TIP3   OH219016   5.299   5.123   0.782  0.0390 -0.3048  0.3618
 6337TIP3    H119017   5.226   5.082   0.737  0.5556 -1.6962  0.7275
 6337TIP3    H219018   5.261   5.199   0.827 -0.5056  1.0615 -2.2463
 6338TIP3   OH219019   5.733   2.305   1.448  0.2909  0.3409 -0.5154
 6338TIP3    H119020   5.735   2.397   1.424  1.5644  0.4203 -0.1732
 6338TIP3    H219021   5.774   2.301   1.534 -2.9985 -0.1216  1.1790
 6339TIP3   OH219022   0.814   5.876   4.184 -0.4116  0.1922  0.2945
 6339TIP3    H119023   0.745   5.817   4.213 -0.7703  0.8209  0.7388
 6339TIP3    H219024   0.891   5.849   4.234 -0.5546  0.0518  0.4427
 6340TIP3   OH219025   4.230   2.813   4.259 -0.0109 -0.2961  0.0982
 6340TIP3    H119026   4.303   2.795   4.319  1.0870  0.0340 -1.1064
 6340TIP3    H219027   4.267   2.868   4.191 -1.6086  0.5764 -0.1123
 6341TIP3   OH219028   1.200   3.479   0.065  0.3473  0.5688 -0.4916
 6341TIP3    H119029   1.216   3.570   0.089 -3.0207  1.2051 -0.2014
 6341TIP3    H219030   1.264   3.429   0.114  2.5681  2.7586 -0.9789
 6342TIP3   OH219031   1.463   4.267   0.775 -0.9273  0.4060  0.3350
 6342TIP3    H119032   1.508   4.205   0.719 -1.7375  2.6450 -3.0822
 6342TIP3    H219033   1.402   4.214   0.826  2.4896 -2.1746  2.1132
 6343TIP3   OH219034   2.414   0.570   3.023 -0.1475 -0.2260  0.5466
 6343TIP3    H119035   2.468   0.619   3.085  1.1940 -1.6082  0.5079
 6343TIP3    H219036   2.428   0.614   2.939  1.0536 -0.6601  0.5083
 6344TIP3   OH219037   4.852   0.809   1.893 -0.6515 -0.2065 -0.5277
 6344TIP3    H119038   4.758   0.818   1.910 -0.7849 -1.2060 -0.6590
 6344TIP3    H219039   4.869   0.715   1.903  0.5876  0.1167  0.7441
 6345TIP3   OH219040   5.838   1.833   0.187 -0.4403  0.3129 -0.7154
 6345TIP3    H119041   5.881   1.748   0.179 -0.0175  0.2782  1.3574
 6345TIP3    H219042   5.908   1.893   0.213 -1.4164  0.3959  2.0254
 6346TIP3   OH219043   4.348   1.089   5.128 -0.5309 -0.1267 -0.5502
 6346TIP3    H119044   4.263   1.066   5.167 -0.3923  0.2732  0.0010
 6346TIP3    H219045   4.335   1.177   5.093 -0.5552 -0.3545 -1.1231
 6347TIP3   OH219046   5.555   3.615   1.382  0.3175  0.7118  0.4158
 6347TIP3    H119047   5.553   3.662   1.465  0.0762 -0.4229  1.0657
 6347TIP3    H219048   5.468   3.575   1.374  0.3995  0.6486 -0.2922
 6348TIP3   OH219049   2.499   2.662   1.643 -0.2181 -0.0424  0.4283
 6348TIP3    H119050   2.473   2.748   1.677  0.4216  0.1625  0.4076
 6348TIP3    H219051   2.581   2.642   1.688 -2.1993 -2.4381  3.4798
 6349TIP3   OH219052   5.911   0.078   1.760  0.1019  0.1085  0.0007
 6349TIP3    H119053   5.831   0.038   1.726 -0.1370 -0.7011  1.3975
 6349TIP3    H219054   5.909   0.168   1.729 -1.4523  0.1486  0.1399
 6350TIP3   OH219055   4.305   1.688   2.138  0.1438 -0.0154 -0.7154
 6350TIP3    H119056   4.307   1.620   2.071 -0.4931  0.2647 -1.0212
 6350TIP3    H219057   4.244   1.754   2.105 -0.8319 -0.2597  0.5230
 6351TIP3   OH219058   5.530   2.106   1.800 -0.2219 -0.3405 -0.1685
 6351TIP3    H119059   5.467   2.163   1.756  2.0837  0.7719 -2.2511
 6351TIP3    H219060   5.478   2.058   1.864 -2.7967  1.9866 -0.3350
 6352TIP3   OH219061   0.524   1.905   4.396 -0.5452 -0.1584  0.3541
 6352TIP3    H119062   0.541   1.847   4.321 -0.5110 -0.0233  0.2563
 6352TIP3    H219063   0.498   1.846   4.467  0.4847 -0.3823  0.5542
 6353TIP3   OH219064   1.288   3.817   2.145  0.1770  0.1332  0.7677
 6353TIP3    H119065   1.206   3.866   2.155  1.2845  1.9681  1.5724
 6353TIP3    H219066   1.321   3.808   2.234 -0.2377 -2.7141  0.7302
 6354TIP3   OH219067   2.038   5.263   0.613 -0.4048 -0.5124  0.1062
 6354TIP3    H119068   2.003   5.189   0.564 -0.1344 -0.0033 -0.8798
 6354TIP3    H219069   2.133   5.247   0.617 -0.5333 -1.0935  1.4169
 6355TIP3   OH219070   2.229   0.373   4.751  0.3950  0.7058  0.3696
 6355TIP3    H119071   2.212   0.287   4.712  0.3760 -0.0848  2.0481
 6355TIP3    H219072   2.236   0.432   4.676 -1.3788 -0.4250 -0.7686
 6356TIP3   OH219073   4.845   2.757   2.796  0.1734 -0.1295 -0.3679
 6356TIP3    H119074   4.794   2.800   2.727  1.5484 -0.4915 -1.6638
 6356TIP3    H219075   4.835   2.663   2.778  0.3450 -0.2396  0.0888
 6357TIP3   OH219076   5.611   3.152   2.279 -0.2862  0.1159 -0.4038
 6357TIP3    H119077   5.692   3.203   2.291  0.5842 -1.3965  0.4332
 6357TIP3    H219078   5.556   3.178   2.353 -0.5249  1.0100 -0.8723
 6358TIP3   OH219079   5.880   4.905   0.549 -0.6153 -0.1792 -0.0480
 6358TIP3    H119080   5.878   4.950   0.464 -0.8184  1.1214  0.6102
 6358TIP3    H219081   5.813   4.837   0.543  0.4273 -1.1305 -1.4504
 6359TIP3   OH219082   2.214   3.419   3.875 -0.0457 -0.6946  0.0929
 6359TIP3    H119083   2.284   3.355   3.860  0.4155 -0.1192 -0.2363
 6359TIP3    H219084   2.133   3.368   3.867  0.2824 -1.0519 -1.1627
 6360TIP3   OH219085   1.807   0.681   4.024 -0.0994 -0.3642  0.2271
 6360TIP3    H119086   1.837   0.591   4.020 -0.9771 -0.7184  1.1994
 6360TIP3    H219087   1.765   0.696   3.939  2.3488  0.0260 -1.0090
 6361TIP3   OH219088   4.872   3.039   2.945  0.4725  0.2866  0.6558
 6361TIP3    H119089   4.779   3.021   2.943  0.7131 -1.1190  0.9491
 6361TIP3    H219090   4.879   3.132   2.926 -1.0029  0.4857  0.9741
 6362TIP3   OH219091   5.329   1.656   1.163 -0.0624 -0.2603 -0.2735
 6362TIP3    H119092   5.329   1.567   1.198  1.7762  0.5886  2.1660
 6362TIP3    H219093   5.393   1.655   1.092 -0.7974 -1.0591 -0.9535
 6363TIP3   OH219094   4.915   0.889   3.281  0.1418  0.0721  0.2031
 6363TIP3    H119095   4.932   0.974   3.321  0.0124  1.0030 -1.6295
 6363TIP3    H219096   4.846   0.851   3.336 -0.6124  1.6528  0.4312
 6364TIP3   OH219097   5.908   2.315   1.667 -0.2170 -0.3334  0.0712
 6364TIP3    H119098   5.956   2.272   1.737  0.1410 -1.8922 -1.0791
 6364TIP3    H219099   5.902   2.407   1.694  2.9718 -0.1483  0.5331
 6365TIP3   OH219100   5.606   5.960   2.531 -0.0768 -0.3710  0.5957
 6365TIP3    H119101   5.681   5.945   2.589 -0.6418 -1.2857  1.1105
 6365TIP3    H219102   5.639   5.939   2.444 -0.2094 -2.5609  1.0264
 6366TIP3   OH219103   4.999   3.828   0.159 -0.4275  0.0237 -0.2033
 6366TIP3    H119104   5.084   3.872   0.170 -0.9127  0.9194  0.0179
 6366TIP3    H219105   5.001   3.795   0.069  0.0720  0.2190 -0.2687
 6367TIP3   OH219106   5.847   0.740   3.633 -0.2286  0.2075 -0.0696
 6367TIP3    H119107   5.864   0.829   3.602 -0.0409  0.0140 -0.5393
 6367TIP3    H219108   5.794   0.701   3.563  1.2620 -0.6410 -0.7630
 6368TIP3   OH219109   0.683   4.776   4.110  0.3381  0.0640 -0.6165
 6368TIP3    H119110   0.741   4.704   4.084 -0.8127 -1.1761  0.1331
 6368TIP3    H219111   0.595   4.744   4.089 -0.2096  1.1542 -0.0371
 6369TIP3   OH219112   3.565   5.955   1.637 -0.0061  0.3672  0.2539
 6369TIP3    H119113   3.535   5.884   1.694  1.1331 -1.2645 -1.0467
 6369TIP3    H219114   3.534   5.929   1.550  0.9240  1.1871 -0.3316
 6370TIP3   OH219115   6.128   4.322   0.782  0.6464 -0.4482 -0.5971
 6370TIP3    H119116   6.073   4.266   0.728  0.9845 -1.0754 -0.3045
 6370TIP3    H219117   6.218   4.304   0.752  0.8105 -0.5619 -0.0531
 6371TIP3   OH219118   4.358   4.090   4.260 -0.1846  0.4909 -0.3642
 6371TIP3    H119119   4.372   4.106   4.167 -0.6812 -0.1517 -0.5647
 6371TIP3    H219120   4.290   4.022   4.262  0.6416 -0.3423  0.4442
 6372TIP3   OH219121   4.787   4.090   2.562 -0.1288  0.0369 -0.1010
 6372TIP3    H119122   4.799   4.185   2.566  2.4250 -0.1471 -1.3802
 6372TIP3    H219123   4.826   4.058   2.644 -0.1665  0.0355 -0.0838
 6373TIP3   OH219124   5.157   2.223   0.852 -0.2308  0.7674  0.5420
 6373TIP3    H119125   5.245   2.193   0.874 -0.0437 -0.8681 -2.0559
 6373TIP3    H219126   5.169   2.278   0.775 -1.5601 -0.3712 -0.5266
 6374TIP3   OH219127   4.402   5.566   0.713  0.3879 -0.3368 -0.0222
 6374TIP3    H119128   4.376   5.658   0.714  0.9201 -0.1782 -0.6099
 6374TIP3    H219129   4.319   5.518   0.711  0.1142  0.1321 -0.0766
 6375TIP3   OH219130   2.196   4.770   2.018  0.8204 -0.2255  0.5540
 6375TIP3    H119131   2.266   4.707   2.034 -0.5316 -2.3288 -1.2267
 6375TIP3    H219132   2.221   4.812   1.936  0.9570  0.4880  0.9531
 6376TIP3   OH219133   5.637   3.726   0.720  0.1063 -0.0222  0.1395
 6376TIP3    H119134   5.600   3.647   0.680 -1.7660  0.5795  0.6080
 6376TIP3    H219135   5.644   3.788   0.648  0.8392 -0.3389 -0.0731
 6377TIP3   OH219136   1.976   2.217   5.115  0.1780  0.5803 -0.5535
 6377TIP3    H119137   2.050   2.260   5.071  0.0035  1.7072  0.2276
 6377TIP3    H219138   1.921   2.289   5.145 -0.0227 -0.1738  0.9826
 6378TIP3   OH219139   4.791   2.055   2.416 -0.1770 -0.2398  0.4056
 6378TIP3    H119140   4.877   2.081   2.451  0.8182 -1.0723 -1.2727
 6378TIP3    H219141   4.786   1.961   2.435  0.2577 -0.6472 -1.3489
 6379TIP3   OH219142   0.917   4.013   3.431  0.1601  0.0775 -0.3054
 6379TIP3    H119143   0.882   4.092   3.390 -1.0584  0.4904  1.4355
 6379TIP3    H219144   0.841   3.969   3.468  1.0748 -0.8744  0.5261
 6380TIP3   OH219145   1.980   3.075   4.052 -0.0662  0.3710 -0.3139
 6380TIP3    H119146   1.950   3.143   4.113  0.6566  1.2907 -0.9482
 6380TIP3    H219147   1.980   3.118   3.967 -2.0822 -1.1914 -1.1981
 6381TIP3   OH219148   4.974   1.032   4.434  0.1195 -0.2293 -0.1062
 6381TIP3    H119149   5.064   1.016   4.463  0.4444  0.2016 -0.8253
 6381TIP3    H219150   4.979   1.115   4.387 -0.2229 -1.1600 -1.9080
 6382TIP3   OH219151   4.071   2.868   1.128 -0.1668  0.2387 -0.1111
 6382TIP3    H119152   4.013   2.937   1.095 -1.1053 -0.1630  0.6327
 6382TIP3    H219153   4.159   2.904   1.120 -0.5412  1.0326 -0.8859
 6383TIP3   OH219154   4.325   3.390   4.647 -0.3727 -0.3005 -0.1714
 6383TIP3    H119155   4.322   3.389   4.551 -0.5232  0.4912 -0.1827
 6383TIP3    H219156   4.235   3.368   4.674 -0.6519  0.7229 -0.2338
 6384TIP3   OH219157   5.411   1.277   0.051 -0.6691 -0.1117 -0.0653
 6384TIP3    H119158   5.349   1.215   0.013 -0.8019 -0.6131  0.9241
 6384TIP3    H219159   5.384   1.284   0.143 -1.6630  2.6377 -0.4392
 6385TIP3   OH219160   4.130   5.768   3.914 -0.3271 -0.1670 -0.2293
 6385TIP3    H119161   4.063   5.700   3.925 -0.1957 -0.1582  0.7528
 6385TIP3    H219162   4.164   5.781   4.003  1.6091 -0.8035 -0.8352
 6386TIP3   OH219163   3.150   3.850   3.161 -0.1908 -0.0689 -0.0053
 6386TIP3    H119164   3.213   3.846   3.234 -0.1882  0.4374  0.0246
 6386TIP3    H219165   3.109   3.763   3.160 -0.1526 -0.0972  0.5651
 6387TIP3   OH219166   1.744   4.012   1.513 -0.1580 -0.5197  0.4364
 6387TIP3    H119167   1.782   4.038   1.597  0.3549  1.3691 -0.3424
 6387TIP3    H219168   1.668   4.069   1.503 -1.3047 -1.9973  0.4343
 6388TIP3   OH219169   3.053   2.467   4.180  0.0104 -0.4380 -0.1852
 6388TIP3    H119170   3.120   2.531   4.205 -0.2990  0.5241 -1.7131
 6388TIP3    H219171   3.081   2.386   4.222  0.8602  0.4998  1.1158
 6389TIP3   OH219172   4.171   5.453   3.469  0.0506  0.5756  0.0260
 6389TIP3    H119173   4.093   5.481   3.516 -1.0493 -0.5879 -1.0391
 6389TIP3    H219174   4.181   5.360   3.493 -0.2024  0.1120 -1.5487
 6390TIP3   OH219175   5.398   3.062   4.992 -0.4894 -0.8906 -0.2305
 6390TIP3    H119176   5.433   2.998   4.930  1.2000 -0.3770  0.1384
 6390TIP3    H219177   5.370   3.010   5.067  3.5349 -1.1580  1.3290
 6391TIP3   OH219178   5.117   4.021   1.392 -0.0792 -0.3058  0.0764
 6391TIP3    H119179   5.145   4.107   1.425  0.1151  0.0369 -0.9435
 6391TIP3    H219180   5.042   3.998   1.447 -1.2992  1.3647 -0.7927
 6392TIP3   OH219181   1.126   2.109   1.930 -0.1150 -0.1687  0.2320
 6392TIP3    H119182   1.076   2.032   1.904  0.4163 -0.8149  1.0763
 6392TIP3    H219183   1.152   2.091   2.021  1.6215  0.1642 -0.1722
 6393TIP3   OH219184   1.386   4.592   0.279 -0.3517  0.4606 -0.3714
 6393TIP3    H119185   1.364   4.681   0.251 -2.1259  0.1730 -0.0482
 6393TIP3    H219186   1.336   4.580   0.360  1.0213 -0.3300  0.3876
 6394TIP3   OH219187   3.957   2.320   4.360 -0.7071  0.1826  0.1003
 6394TIP3    H119188   3.940   2.363   4.443  0.6138 -0.6842  0.8490
 6394TIP3    H219189   3.880   2.339   4.307 -2.9557 -1.6607  2.4762
 6395TIP3   OH219190   1.786   1.855   0.776  0.1147  0.2698  0.8454
 6395TIP3    H119191   1.836   1.828   0.853  0.8229  0.0679  0.3286
 6395TIP3    H219192   1.832   1.816   0.702 -1.6734 -1.1802  0.4314
 6396TIP3   OH219193   5.591   5.237   0.777  0.0540 -0.1512 -0.1807
 6396TIP3    H119194   5.541   5.204   0.852  2.2114 -1.0469  0.9574
 6396TIP3    H219195   5.525   5.256   0.711 -1.7830 -1.1961  1.2477
 6397TIP3   OH219196   2.049   0.652   0.352  0.0067 -0.6094  0.0428
 6397TIP3    H119197   2.033   0.674   0.443  0.8803  2.2593 -0.3947
 6397TIP3    H219198   1.974   0.599   0.326 -0.9546 -0.3017  2.0237
 6398TIP3   OH219199   3.525   5.488   4.524 -0.2313 -0.5602 -0.0863
 6398TIP3    H119200   3.572   5.566   4.496  1.1579 -1.0779  0.6668
 6398TIP3    H219201   3.458   5.520   4.584 -2.0044  0.3645 -2.4296
 6399TIP3   OH219202   3.886   5.440   3.234 -0.1171  0.0070  0.0203
 6399TIP3    H119203   3.874   5.352   3.270 -1.1353  0.1551  0.0829
 6399TIP3    H219204   3.867   5.498   3.307  1.8588  0.2911  0.3495
 6400TIP3   OH219205   3.030   3.543   1.314  0.8383 -0.3937 -0.1751
 6400TIP3    H119206   3.063   3.509   1.231 -0.8405 -2.7352  0.0310
 6400TIP3    H219207   3.012   3.465   1.367  1.1334  1.0073  2.1268
 6401TIP3   OH219208   2.479   4.356   4.421  0.1647 -0.2447 -0.0189
 6401TIP3    H119209   2.457   4.264   4.436 -0.2098 -0.4696 -1.6745
 6401TIP3    H219210   2.511   4.358   4.331  1.0239  1.1154  0.2983
 6402TIP3   OH219211   4.597   3.550   0.974 -0.0353  0.1528 -0.1443
 6402TIP3    H119212   4.646   3.531   0.894  0.1118 -2.1743  0.4179
 6402TIP3    H219213   4.514   3.504   0.963 -1.2687  2.3192 -0.1905
 6403TIP3   OH219214   0.561   3.193   4.067 -0.1534 -0.3955 -0.7288
 6403TIP3    H119215   0.531   3.273   4.024 -0.1695  0.3505  0.5951
 6403TIP3    H219216   0.648   3.177   4.030 -0.1841  0.1954 -1.0746
 6404TIP3   OH219217   4.628   2.349   3.724 -0.1404 -0.1159 -0.4054
 6404TIP3    H119218   4.636   2.427   3.778 -0.7400 -0.3252 -0.0082
 6404TIP3    H219219   4.711   2.302   3.737 -0.2306 -0.1035  0.2383
 6405TIP3   OH219220   4.919   2.439   4.031  0.0855  0.3041  0.1337
 6405TIP3    H119221   5.000   2.466   4.074 -0.4182  2.5951 -0.2587
 6405TIP3    H219222   4.892   2.515   3.980 -1.1842 -1.1538 -1.4821
 6406TIP3   OH219223   4.324   2.985   1.100  0.0145  0.0669  0.9172
 6406TIP3    H119224   4.357   3.051   1.040 -0.5174  0.0659  0.6151
 6406TIP3    H219225   4.366   2.904   1.072 -1.5510 -0.2722 -0.5911
 6407TIP3   OH219226   0.461   3.468   4.396 -0.2981  0.1439 -0.0240
 6407TIP3    H119227   0.475   3.557   4.363 -0.2256  0.2438  0.2773
 6407TIP3    H219228   0.426   3.421   4.321 -0.6428  0.5058 -0.0976
 6408TIP3   OH219229   1.011   1.209   1.090 -0.0253  0.3580 -0.2062
 6408TIP3    H119230   0.918   1.230   1.091  0.0653  1.0353 -2.4486
 6408TIP3    H219231   1.019   1.136   1.028  0.6527 -1.5340  1.9494
 6409TIP3   OH219232   1.062   2.987   1.207  0.1310  0.2825 -0.3439
 6409TIP3    H119233   1.093   2.897   1.196  1.8486  0.9444 -1.3439
 6409TIP3    H219234   1.116   3.022   1.278  0.0249  0.7483 -0.4887
 6410TIP3   OH219235   5.708   0.145   4.250  0.4607 -0.3227  0.3828
 6410TIP3    H119236   5.624   0.098   4.247 -0.7995  1.8290  0.0490
 6410TIP3    H219237   5.724   0.158   4.343 -0.8551  1.3249  0.4246
 6411TIP3   OH219238   0.287   1.333   2.677  0.0616  0.1874  0.5161
 6411TIP3    H119239   0.229   1.388   2.731  1.5118  1.5093  0.8135
 6411TIP3    H219240   0.301   1.385   2.597  1.4401  0.2717  0.7891
 6412TIP3   OH219241   5.850   5.282   1.315  0.2495  0.1395  0.2009
 6412TIP3    H119242   5.841   5.278   1.220  0.5607  2.7533 -0.0000
 6412TIP3    H219243   5.943   5.265   1.331 -0.0365 -1.6156  0.1958
 6413TIP3   OH219244   5.229   4.478   0.653 -0.0382  0.1118 -0.0368
 6413TIP3    H119245   5.182   4.532   0.716  0.8067  1.1670 -0.2827
 6413TIP3    H219246   5.253   4.399   0.702  0.6781  0.9441  0.9975
 6414TIP3   OH219247   3.299   3.200   0.747  0.0528  0.1836  0.4642
 6414TIP3    H119248   3.345   3.221   0.829  1.5410 -0.2728 -0.2057
 6414TIP3    H219249   3.267   3.111   0.759  1.9888 -0.6575 -0.1021
 6415TIP3   OH219250   1.250   4.576   0.917  0.1552 -0.1272  0.4500
 6415TIP3    H119251   1.203   4.494   0.906 -0.3422  0.1982  0.0919
 6415TIP3    H219252   1.320   4.573   0.853 -0.5200  0.1886 -0.3180
 6416TIP3   OH219253   1.823   3.855   1.292  0.0520 -0.1642 -0.2935
 6416TIP3    H119254   1.821   3.913   1.369 -2.3745 -0.5455  0.0339
 6416TIP3    H219255   1.888   3.894   1.234  1.4561  0.5217  1.6566
 6417TIP3   OH219256   5.712   5.848   1.329 -0.4527 -0.2140  0.2832
 6417TIP3    H119257   5.758   5.930   1.309 -2.0561  0.7983  0.5941
 6417TIP3    H219258   5.777   5.780   1.312  0.6565  1.0563 -0.8367
 6418TIP3   OH219259   2.905   0.729   4.028 -0.1731  0.2889  0.0225
 6418TIP3    H119260   2.870   0.736   3.940 -1.7034 -0.2269  0.5537
 6418TIP3    H219261   2.932   0.638   4.037  3.1592  1.0441 -0.9820
 6419TIP3   OH219262   5.800   0.378   0.550  0.8008 -0.5929  0.2723
 6419TIP3    H119263   5.738   0.447   0.525  1.7919 -0.2738 -1.3949
 6419TIP3    H219264   5.747   0.298   0.553  0.2814 -0.3378 -1.1980
 6420TIP3   OH219265   5.162   5.892   1.271 -0.1907  0.4651 -0.1363
 6420TIP3    H119266   5.101   5.964   1.252 -0.1813  0.6783  0.6221
 6420TIP3    H219267   5.241   5.935   1.302 -0.8418  0.0894  2.1941
 6421TIP3   OH219268   2.622   4.197   3.546 -0.3077 -0.5819 -0.0402
 6421TIP3    H119269   2.703   4.181   3.499 -0.2620  1.3372 -0.6914
 6421TIP3    H219270   2.648   4.246   3.624 -0.9300  1.1916 -0.9048
 6422TIP3   OH219271   3.689   2.636   1.320  0.1336  0.2114  0.5231
 6422TIP3    H119272   3.629   2.687   1.375  0.3270  0.4715  0.4977
 6422TIP3    H219273   3.769   2.628   1.373  0.0166 -0.2843  0.6285
 6423TIP3   OH219274   0.794   2.044   4.830 -0.0741  0.0914 -0.5186
 6423TIP3    H119275   0.827   1.964   4.790  1.9086  0.2949  0.5930
 6423TIP3    H219276   0.847   2.114   4.791  0.2212  0.5329  0.6374
 6424TIP3   OH219277   0.059   5.181   0.576  0.6602 -0.3471 -0.5518
 6424TIP3    H119278   0.114   5.205   0.650  0.3389 -0.5603 -0.2431
 6424TIP3    H219279  -0.027   5.166   0.614  0.9164 -2.3690 -0.6569
 6425TIP3   OH219280   0.132   0.265   2.084  0.4763  0.4696  0.0688
 6425TIP3    H119281   0.117   0.340   2.141 -0.5575  0.8085 -0.6297
 6425TIP3    H219282   0.054   0.259   2.030  0.6212 -1.0079 -0.0219
 6426TIP3   OH219283   5.607   3.503   2.751 -0.2122 -0.0201 -0.5494
 6426TIP3    H119284   5.571   3.501   2.663 -0.8740  1.4663 -0.3273
 6426TIP3    H219285   5.681   3.442   2.747 -1.1174 -1.0974 -1.7166
 6427TIP3   OH219286   1.122   4.260   4.528  0.3867 -0.2358 -0.5040
 6427TIP3    H119287   1.119   4.195   4.458  2.0090 -0.2378 -0.5979
 6427TIP3    H219288   1.162   4.337   4.487  0.1998  0.1941  0.1052
 6428TIP3   OH219289   5.871   1.223   3.860  0.7700  0.0369  0.3268
 6428TIP3    H119290   5.905   1.144   3.902 -0.6369 -2.9186 -3.4235
 6428TIP3    H219291   5.792   1.193   3.814 -1.0567  4.1856  0.3141
 6429TIP3   OH219292   0.915   0.347   2.099 -0.0628 -0.7019 -0.6145
 6429TIP3    H119293   0.933   0.276   2.160 -1.1784 -1.4089 -1.0747
 6429TIP3    H219294   0.958   0.423   2.137  0.4015 -1.4330  0.3475
 6430TIP3   OH219295   2.932   3.844   4.353  0.0261 -0.5679 -0.3773
 6430TIP3    H119296   2.939   3.894   4.435  1.0190 -0.7784 -0.3233
 6430TIP3    H219297   2.838   3.834   4.339 -0.2223  1.6998 -0.6411
 6431TIP3   OH219298   1.696   2.582   2.509 -0.3558 -0.5661 -0.0845
 6431TIP3    H119299   1.636   2.548   2.442 -0.0291 -1.8390  0.2441
 6431TIP3    H219300   1.783   2.577   2.469 -0.3568  0.6146 -0.2958
 6432TIP3   OH219301   3.369   2.857   3.078  0.6761  0.6187 -0.3912
 6432TIP3    H119302   3.326   2.919   3.019  1.4022  1.2969 -0.2205
 6432TIP3    H219303   3.373   2.903   3.162  1.3442  0.3986 -0.3009
 6433TIP3   OH219304   4.859   3.254   5.019 -0.2098  0.0802  0.8127
 6433TIP3    H119305   4.785   3.197   5.041 -1.5481  1.2629 -0.4424
 6433TIP3    H219306   4.840   3.336   5.064 -0.6251  0.9905 -0.9467
 6434TIP3   OH219307   4.410   0.946   2.752 -0.1020  0.6609 -0.0276
 6434TIP3    H119308   4.336   0.885   2.744  0.9236 -1.1388  2.6205
 6434TIP3    H219309   4.482   0.902   2.707  0.0556  1.0702 -0.1784
 6435TIP3   OH219310   4.784   2.568   2.317 -0.1480  0.4151 -0.2204
 6435TIP3    H119311   4.707   2.515   2.336 -1.2825  1.6310 -1.1914
 6435TIP3    H219312   4.823   2.528   2.239 -0.1715  0.1816 -0.1117
 6436TIP3   OH219313   5.318   1.710   2.590 -0.1314 -0.0261 -0.2937
 6436TIP3    H119314   5.344   1.669   2.508 -0.6624 -1.3785  0.1819
 6436TIP3    H219315   5.388   1.686   2.651 -0.2100  0.1688 -0.1281
 6437TIP3   OH219316   1.749   0.029   0.822 -0.1213 -0.4258 -0.2365
 6437TIP3    H119317   1.751   0.124   0.810 -0.0213 -0.5093 -0.8837
 6437TIP3    H219318   1.766   0.017   0.916  0.0010  0.1862 -0.1741
 6438TIP3   OH219319   5.452   5.407   4.211 -0.5196  0.4156  0.1800
 6438TIP3    H119320   5.495   5.486   4.180 -0.1153 -0.2114 -0.9290
 6438TIP3    H219321   5.364   5.411   4.172 -0.3407  0.1033 -0.2660
 6439TIP3   OH219322   4.990   4.688   0.724  0.2036 -0.2004  0.0375
 6439TIP3    H119323   4.958   4.650   0.806 -0.0978  2.7556  1.4455
 6439TIP3    H219324   5.069   4.736   0.750 -0.8259  2.2014 -0.9565
 6440TIP3   OH219325   4.553   1.279   0.775  0.2273 -0.1121  0.1168
 6440TIP3    H119326   4.619   1.257   0.841  0.9715  0.1667 -0.5076
 6440TIP3    H219327   4.469   1.271   0.820  0.7468  0.8345  1.3262
 6441TIP3   OH219328   4.985   5.930   1.692 -0.4418 -0.3016  0.1622
 6441TIP3    H119329   4.977   5.874   1.615  0.6692 -0.7665  0.3689
 6441TIP3    H219330   4.895   5.955   1.713 -0.7705 -0.2372 -1.2293
 6442TIP3   OH219331   1.049   2.616   1.728 -0.8292 -0.6088  0.4297
 6442TIP3    H119332   0.997   2.572   1.795 -0.3236 -1.7419  0.0945
 6442TIP3    H219333   1.098   2.683   1.776 -1.3650 -0.6149  0.9935
 6443TIP3   OH219334   4.317   4.927   2.685 -0.2580 -0.2642 -0.4473
 6443TIP3    H119335   4.407   4.904   2.708 -0.3640  0.5181  0.8692
 6443TIP3    H219336   4.265   4.899   2.760 -0.8673  0.8516 -0.4357
 6444TIP3   OH219337   1.719   0.796   3.342 -0.1912  0.2163  0.2745
 6444TIP3    H119338   1.795   0.843   3.375  0.6194 -1.2950  0.6342
 6444TIP3    H219339   1.753   0.743   3.270 -0.8192 -0.7498  0.6695
 6445TIP3   OH219340   1.381   0.939   3.052  0.3386  0.0547  0.4619
 6445TIP3    H119341   1.346   0.987   3.127  1.9856 -0.3309  1.5244
 6445TIP3    H219342   1.413   0.857   3.089  1.4410 -0.0146 -0.6110
 6446TIP3   OH219343   2.304   5.863   2.410  0.6945 -0.1781 -0.1466
 6446TIP3    H119344   2.351   5.860   2.326 -0.1668  1.2715 -0.7173
 6446TIP3    H219345   2.214   5.839   2.389  0.6269 -0.5310  0.5077
 6447TIP3   OH219346   3.590   2.740   4.689 -0.5625  0.0934  0.2858
 6447TIP3    H119347   3.649   2.791   4.635 -1.6139 -0.5659 -1.5729
 6447TIP3    H219348   3.617   2.759   4.779  1.4620  0.9653 -0.4477
 6448TIP3   OH219349   4.651   4.270   1.334  0.3060  0.2831  0.0853
 6448TIP3    H119350   4.632   4.181   1.363 -0.2508  0.5972  0.6873
 6448TIP3    H219351   4.588   4.285   1.263  2.1080 -0.7335 -1.8557
 6449TIP3   OH219352   3.200   1.863   4.279 -0.0488  0.4804  0.5507
 6449TIP3    H119353   3.200   1.938   4.339  0.4797  0.5827  0.4315
 6449TIP3    H219354   3.114   1.866   4.237 -1.2510 -0.7836  2.7479
 6450TIP3   OH219355   0.235   1.305   0.811 -0.0062 -0.1565  0.1044
 6450TIP3    H119356   0.238   1.394   0.776  0.1100  0.0413  0.6098
 6450TIP3    H219357   0.263   1.249   0.738 -2.4015 -0.0187 -0.9953
 6451TIP3   OH219358   2.256   2.308   2.443 -0.0764 -0.0136  0.0900
 6451TIP3    H119359   2.214   2.297   2.358  1.6817  1.9953 -1.1312
 6451TIP3    H219360   2.290   2.397   2.442  1.9849 -0.6833  1.9886
 6452TIP3   OH219361   3.646   2.940   1.869 -0.0877  0.7255  0.1330
 6452TIP3    H119362   3.733   2.932   1.831  0.3848 -1.2400  1.4670
 6452TIP3    H219363   3.615   2.850   1.878 -1.1571  1.2254  2.0787
 6453TIP3   OH219364   4.615   3.100   5.055  0.2892 -0.2225 -0.2399
 6453TIP3    H119365   4.594   3.010   5.029 -2.1557  0.1908  0.0083
 6453TIP3    H219366   4.564   3.155   4.995  1.3672  0.9879 -0.0813
 6454TIP3   OH219367   1.991   4.095   0.922  0.2968  0.0487 -0.3116
 6454TIP3    H119368   2.007   4.002   0.939  0.2281  0.0029 -0.4998
 6454TIP3    H219369   1.996   4.103   0.827 -0.6731  0.0565 -0.3681
 6455TIP3   OH219370   5.927   2.309   2.081  0.3185  0.0822  0.4894
 6455TIP3    H119371   5.924   2.233   2.022 -0.4948  0.8863 -0.5450
 6455TIP3    H219372   5.888   2.278   2.162 -1.4949 -0.1951 -0.4467
 6456TIP3   OH219373   2.451   5.369   0.765  0.1402 -0.0515 -0.0566
 6456TIP3    H119374   2.542   5.338   0.770 -0.4928 -1.9742  0.2899
 6456TIP3    H219375   2.406   5.301   0.715 -0.8087  1.6935 -1.6767
 6457TIP3   OH219376   1.960   0.734   0.638 -0.2075 -0.8252 -0.6877
 6457TIP3    H119377   1.923   0.821   0.654  0.4895 -0.4313 -1.1821
 6457TIP3    H219378   1.889   0.674   0.661 -0.1367 -0.2110  1.3029
 6458TIP3   OH219379   0.707   3.836   3.521 -0.1369  0.2101 -0.0383
 6458TIP3    H119380   0.614   3.818   3.507 -0.4876  0.0108  2.2966
 6458TIP3    H219381   0.750   3.752   3.507 -0.5672 -0.1688  0.8488
 6459TIP3   OH219382   4.724   5.175   3.277  0.0685  0.0690 -0.4240
 6459TIP3    H119383   4.765   5.121   3.210  0.9154 -0.2440  0.3246
 6459TIP3    H219384   4.740   5.265   3.248  1.4629 -0.0393 -0.0745
 6460TIP3   OH219385   2.852   5.210   0.577 -0.1978 -0.3273  0.0654
 6460TIP3    H119386   2.815   5.220   0.490  0.1863  0.6130  0.0013
 6460TIP3    H219387   2.892   5.295   0.597 -1.5398 -0.0197  1.7530
 6461TIP3   OH219388   0.475   1.698   0.860 -0.2382  1.1075 -0.1416
 6461TIP3    H119389   0.397   1.656   0.825  0.6555 -1.4165  0.6767
 6461TIP3    H219390   0.442   1.763   0.922 -1.7510 -1.1963  1.6186
 6462TIP3   OH219391   6.077   2.700   5.004  0.3386 -0.0797 -0.4209
 6462TIP3    H119392   6.063   2.792   4.983  0.7392  0.2120  0.5457
 6462TIP3    H219393   6.148   2.672   4.947 -0.2588  0.0081 -1.2192
 6463TIP3   OH219394   0.468   5.744   0.257 -0.2315 -0.2847 -0.5831
 6463TIP3    H119395   0.442   5.729   0.348 -1.8341  0.0079 -0.9535
 6463TIP3    H219396   0.547   5.798   0.263 -1.5342  1.6268  0.6653
 6464TIP3   OH219397   2.696   0.988   3.804  0.3428 -0.1421 -0.6681
 6464TIP3    H119398   2.781   0.967   3.766  1.4140  1.6551  0.5856
 6464TIP3    H219399   2.661   1.057   3.748  0.1685 -0.1661 -0.5907
 6465TIP3   OH219400   3.287   1.711   3.810  0.4944 -0.5325  0.1243
 6465TIP3    H119401   3.356   1.718   3.876 -0.0345  1.1316  0.5428
 6465TIP3    H219402   3.275   1.801   3.778 -1.6290 -0.7419  0.2005
 6466TIP3   OH219403   4.280   2.768   1.586 -0.0684 -0.2720  0.4476
 6466TIP3    H119404   4.230   2.748   1.507 -0.3178  2.0277 -0.0583
 6466TIP3    H219405   4.328   2.688   1.605 -1.5346 -1.5390 -0.8579
 6467TIP3   OH219406   1.215   5.912   1.811  0.3919  1.0060 -0.4408
 6467TIP3    H119407   1.145   5.976   1.825 -1.9864 -1.2750 -0.9824
 6467TIP3    H219408   1.245   5.930   1.722 -1.0772  0.6874 -1.0355
 6468TIP3   OH219409   1.792   3.718   0.172  0.1931 -0.0405  0.4302
 6468TIP3    H119410   1.864   3.716   0.108 -0.5033 -1.6816 -0.3762
 6468TIP3    H219411   1.735   3.788   0.140 -0.4946 -1.2738 -1.2288
 6469TIP3   OH219412   3.829   5.862   4.663  0.0137  0.1272 -0.0592
 6469TIP3    H119413   3.742   5.855   4.703  0.8002  0.1386  1.7306
 6469TIP3    H219414   3.860   5.949   4.688  0.7613 -0.0863 -0.2194
 6470TIP3   OH219415   3.296   0.758   1.665  0.5394 -0.1035 -0.4743
 6470TIP3    H119416   3.323   0.787   1.578 -2.4385  0.7702 -1.2173
 6470TIP3    H219417   3.274   0.839   1.712  1.2179 -0.6208  0.7864
 6471TIP3   OH219418   0.940   3.309   1.688  0.5828  0.0338  0.2434
 6471TIP3    H119419   1.008   3.263   1.736 -0.3772 -0.4881  1.1454
 6471TIP3    H219420   0.974   3.398   1.677  0.7937  0.2071  1.9900
 6472TIP3   OH219421   5.354   1.564   1.787 -0.4337 -0.1463 -0.4842
 6472TIP3    H119422   5.273   1.544   1.834 -2.0180  2.4268 -1.9371
 6472TIP3    H219423   5.344   1.654   1.758  3.5099  0.7138  0.2742
 6473TIP3   OH219424   1.122   4.823   2.592  0.1885  0.0321 -0.0516
 6473TIP3    H119425   1.030   4.838   2.572  0.3780 -0.9638 -1.9102
 6473TIP3    H219426   1.122   4.747   2.651 -0.1341 -1.2909 -1.6793
 6474TIP3   OH219427   5.974   4.776   2.185 -0.4573 -0.1332  0.0480
 6474TIP3    H119428   6.003   4.801   2.097 -0.2428  1.4550  0.5496
 6474TIP3    H219429   5.884   4.808   2.191 -0.1350  0.6965  0.7441
 6475TIP3   OH219430   3.063   4.637   1.291  0.9636  0.3679 -0.7425
 6475TIP3    H119431   2.970   4.619   1.297  1.3165 -2.1443 -1.6277
 6475TIP3    H219432   3.096   4.627   1.380  0.7042 -0.9695 -0.7779
 6476TIP3   OH219433   3.927   4.254   1.572 -0.3741 -0.4562  0.3824
 6476TIP3    H119434   3.930   4.226   1.481  0.7553  0.6644  0.0567
 6476TIP3    H219435   3.892   4.178   1.619 -0.2193 -1.3265 -0.8677
 6477TIP3   OH219436   4.721   1.519   1.983  0.2360 -0.2937 -0.0930
 6477TIP3    H119437   4.687   1.462   2.052  1.4776 -0.9771 -0.0064
 6477TIP3    H219438   4.727   1.606   2.023 -1.7926 -0.0366 -0.2641
 6478TIP3   OH219439   1.484   0.650   4.214  0.5453  0.6785  0.4419
 6478TIP3    H119440   1.443   0.711   4.276 -0.6904 -0.4802  0.8024
 6478TIP3    H219441   1.549   0.603   4.267 -0.0269  0.1745  0.7113
 6479TIP3   OH219442   3.044   5.349   3.193  0.1621  0.4965 -0.2565
 6479TIP3    H119443   2.996   5.271   3.168 -1.2621  1.3120 -0.1974
 6479TIP3    H219444   3.099   5.322   3.267  0.6095 -0.7077 -1.0078
 6480TIP3   OH219445   5.193   2.465   4.073 -0.3001  0.2911  0.6016
 6480TIP3    H119446   5.288   2.472   4.076 -0.3186  0.4640  0.8237
 6480TIP3    H219447   5.170   2.414   4.151 -0.2550 -1.3524 -0.4069
 6481TIP3   OH219448   1.053   4.329   1.320 -0.0732  0.0084  0.0516
 6481TIP3    H119449   1.064   4.272   1.397  0.4198  0.2260  0.1467
 6481TIP3    H219450   1.140   4.366   1.305 -0.2597  0.2827 -0.3685
 6482TIP3   OH219451   1.851   4.933   3.293  0.1565  0.4630 -0.3487
 6482TIP3    H119452   1.890   4.967   3.373  1.9261  1.2419 -1.4869
 6482TIP3    H219453   1.828   5.011   3.243  0.6840 -0.0006 -1.3395
 6483TIP3   OH219454   6.192   1.258   2.690  0.3338  0.0996  0.1803
 6483TIP3    H119455   6.193   1.271   2.595  1.5879 -0.2172  0.1222
 6483TIP3    H219456   6.253   1.186   2.704 -0.3384 -0.2969  1.1802
 6484TIP3   OH219457   1.628   0.929   1.721 -0.0114 -0.2810 -0.5138
 6484TIP3    H119458   1.715   0.896   1.741 -0.3253 -0.4133  0.6566
 6484TIP3    H219459   1.616   1.004   1.780 -0.4112  0.1930 -1.1725
 6485TIP3   OH219460   0.932   0.367   4.856 -0.8105  0.8789  0.2734
 6485TIP3    H119461   0.874   0.402   4.788  0.4350 -1.3960 -2.1399
 6485TIP3    H219462   0.874   0.311   4.909 -1.7030  2.3046  0.8560
 6486TIP3   OH219463   2.866   3.151   2.313  0.8474  0.1058  0.1066
 6486TIP3    H119464   2.961   3.150   2.302  0.9945 -1.6732  1.2003
 6486TIP3    H219465   2.831   3.126   2.227  1.4281 -0.6125  0.0743
 6487TIP3   OH219466   3.231   3.730   4.476  0.6287 -0.4670  0.0582
 6487TIP3    H119467   3.189   3.779   4.406  1.3817 -1.6470 -1.2745
 6487TIP3    H219468   3.320   3.714   4.443  1.3762 -0.0889  1.7791
 6488TIP3   OH219469   1.613   0.259   3.931 -0.2525 -0.8115 -0.6786
 6488TIP3    H119470   1.657   0.174   3.936 -0.8190 -1.0443  0.8263
 6488TIP3    H219471   1.556   0.262   4.008 -1.1284  0.4505 -1.3326
 6489TIP3   OH219472   1.565   1.512   0.550 -0.1662 -0.3566  0.5241
 6489TIP3    H119473   1.496   1.469   0.602  0.0578  0.4463  1.5119
 6489TIP3    H219474   1.522   1.535   0.468 -0.6338 -1.3034  0.4822
 6490TIP3   OH219475   2.389   1.493   2.340 -0.3903 -0.0312  0.1758
 6490TIP3    H119476   2.424   1.574   2.375  1.0105 -0.3889 -0.3382
 6490TIP3    H219477   2.294   1.500   2.353 -0.4780  2.3528 -1.2460
 6491TIP3   OH219478   5.108   2.401   3.098 -0.1573 -0.3049 -0.2542
 6491TIP3    H119479   5.200   2.382   3.113 -0.0012 -0.1811 -1.0278
 6491TIP3    H219480   5.106   2.492   3.069 -0.6293  0.0119  0.7305
 6492TIP3   OH219481   2.151   4.950   4.252  0.5312 -0.0844 -0.3177
 6492TIP3    H119482   2.172   4.881   4.189  1.0657  0.0060 -0.2516
 6492TIP3    H219483   2.167   4.910   4.337  0.9097  0.1339 -0.2813
 6493TIP3   OH219484   4.518   4.107   3.266  0.5583  0.1668 -0.1775
 6493TIP3    H119485   4.483   4.183   3.313  0.4480 -0.6045  1.0398
 6493TIP3    H219486   4.561   4.054   3.334  1.4843 -0.3874 -1.1567
 6494TIP3   OH219487   4.291   3.486   1.962 -0.1514 -0.3438 -0.1017
 6494TIP3    H119488   4.326   3.539   1.890 -0.1226 -2.4710 -1.7588
 6494TIP3    H219489   4.367   3.464   2.015 -0.0713  0.6862  0.2374
 6495TIP3   OH219490   5.254   2.925   2.628  0.1333  0.4547  0.4686
 6495TIP3    H119491   5.158   2.915   2.630 -0.0049  1.7350  1.5327
 6495TIP3    H219492   5.281   2.877   2.550 -1.4697  0.8119 -0.3543
 6496TIP3   OH219493   2.725   4.432   3.683  0.4323 -0.1887  0.4288
 6496TIP3    H119494   2.662   4.453   3.614 -1.0089  0.3396  1.8249
 6496TIP3    H219495   2.808   4.468   3.652 -0.2768  0.4518 -0.7999
 6497TIP3   OH219496   0.381   4.399   3.900  0.2136 -0.3011  0.2417
 6497TIP3    H119497   0.288   4.421   3.904 -0.2980 -2.1440 -0.4006
 6497TIP3    H219498   0.409   4.426   3.813  0.2920  0.2766  0.4441
 6498TIP3   OH219499   1.800   0.082   4.632 -0.5937  0.2273 -0.4241
 6498TIP3    H119500   1.855   0.101   4.556  1.6742  0.4584  1.1873
 6498TIP3    H219501   1.745   0.160   4.643 -0.7427  0.3039 -1.6211
 6499TIP3   OH219502   0.336   5.757   3.167  0.1230 -0.2393  0.3602
 6499TIP3    H119503   0.316   5.747   3.260  3.0732 -0.7905  1.0168
 6499TIP3    H219504   0.350   5.668   3.136 -1.4237 -0.1130 -0.8280
 6500TIP3   OH219505   5.881   5.749   4.774  0.2540 -0.1782 -0.0733
 6500TIP3    H119506   5.940   5.714   4.707  0.5354  0.9026 -0.4124
 6500TIP3    H219507   5.913   5.838   4.790 -0.6043  0.0304  0.5580
 6501TIP3   OH219508   0.954   5.006   0.718  0.1060  0.1366 -0.5678
 6501TIP3    H119509   0.930   5.099   0.721 -1.1887 -0.1911 -0.0330
 6501TIP3    H219510   0.982   4.992   0.628  0.9487  1.1859 -0.4921
 6502TIP3   OH219511   4.386   2.492   2.116  0.1321 -0.5619  0.9233
 6502TIP3    H119512   4.420   2.581   2.122  0.0357 -0.0210 -3.4034
 6502TIP3    H219513   4.460   2.436   2.138  1.7039  0.6366 -1.0277
 6503TIP3   OH219514   1.315   2.579   0.332 -0.1445 -0.0439 -0.8091
 6503TIP3    H119515   1.312   2.672   0.355  0.6496 -0.0369 -0.6912
 6503TIP3    H219516   1.301   2.533   0.415  0.3146 -0.0219 -0.7152
 6504TIP3   OH219517   5.217   1.217   3.297 -0.1747  0.2817 -0.3929
 6504TIP3    H119518   5.224   1.312   3.309 -0.3752  0.2687 -0.1658
 6504TIP3    H219519   5.162   1.206   3.220  2.7252  0.3990 -2.6412
 6505TIP3   OH219520   3.005   1.017   0.431 -0.0978 -0.2130 -0.1837
 6505TIP3    H119521   2.985   1.067   0.510 -3.0992  0.8374 -1.4518
 6505TIP3    H219522   3.030   1.083   0.367 -1.5089 -0.5536 -1.1318
 6506TIP3   OH219523   5.389   5.042   4.571  0.1323 -0.0056 -0.1513
 6506TIP3    H119524   5.405   5.123   4.523 -1.5794  0.6848  0.3655
 6506TIP3    H219525   5.304   5.012   4.539 -1.1789  0.5884  2.5201
 6507TIP3   OH219526   0.503   0.215   2.060  0.5209 -0.5337 -0.6759
 6507TIP3    H119527   0.509   0.302   2.101  0.4616 -1.0944  0.5711
 6507TIP3    H219528   0.417   0.215   2.018  1.4690  0.8636 -2.8028
 6508TIP3   OH219529   4.987   4.963   3.437 -0.1896 -0.8342  0.1060
 6508TIP3    H119530   5.051   4.970   3.507  0.6123 -1.8847 -0.4942
 6508TIP3    H219531   5.025   4.900   3.376 -0.6935  0.3057 -1.4513
 6509TIP3   OH219532   6.216   2.772   0.733 -0.3896  0.0418  0.0757
 6509TIP3    H119533   6.179   2.806   0.815  1.2113  1.1116  0.3952
 6509TIP3    H219534   6.294   2.825   0.718 -0.1348 -0.7627 -1.6681
 6510TIP3   OH219535   4.911   1.492   2.896 -0.1152 -0.0657 -0.3421
 6510TIP3    H119536   4.960   1.526   2.821 -0.7247 -0.2756 -0.8470
 6510TIP3    H219537   4.890   1.402   2.873  2.6756 -1.3277  1.5726
 6511TIP3   OH219538   2.565   3.709   3.025  0.1082  0.3720  0.3223
 6511TIP3    H119539   2.508   3.709   2.948  1.2235  3.6076 -0.6562
 6511TIP3    H219540   2.518   3.762   3.089  0.9806  1.1014  0.3618
 6512TIP3   OH219541   0.431   3.858   5.076  0.3274 -0.7052  0.3391
 6512TIP3    H119542   0.372   3.863   5.001  0.3482  1.7860  0.4056
 6512TIP3    H219543   0.514   3.828   5.038 -0.3158 -2.0033 -0.1344
 6513TIP3   OH219544   5.119   4.947   3.132 -0.2820  0.2648  0.4531
 6513TIP3    H119545   5.091   4.912   3.048  0.7001 -1.7871  0.9268
 6513TIP3    H219546   5.215   4.947   3.128 -0.2104  2.3749  0.7369
 6514TIP3   OH219547   1.026   5.466   3.274 -0.4378  0.3532 -0.3814
 6514TIP3    H119548   1.045   5.439   3.363 -0.7318  2.5613  0.4148
 6514TIP3    H219549   1.104   5.513   3.246 -0.1010 -0.8427 -1.5561
 6515TIP3   OH219550   4.579   1.124   3.878 -0.0534  0.4721 -0.5913
 6515TIP3    H119551   4.484   1.131   3.885  0.0929  0.5453  2.1019
 6515TIP3    H219552   4.611   1.214   3.888  0.3876  0.1029  1.9042
 6516TIP3   OH219553   5.780   1.311   3.229 -0.4042  0.1820 -0.3239
 6516TIP3    H119554   5.716   1.344   3.291  1.3939 -0.5514  2.0722
 6516TIP3    H219555   5.864   1.348   3.258  0.8093 -1.8441 -0.9894
 6517TIP3   OH219556   2.844   5.115   3.207 -0.0836 -0.5643 -0.7716
 6517TIP3    H119557   2.814   5.138   3.294  0.0884  0.7841 -1.0423
 6517TIP3    H219558   2.787   5.043   3.179 -2.5409  1.3111 -0.9382
 6518TIP3   OH219559   5.326   2.244   1.616 -0.4943 -0.0213  0.3834
 6518TIP3    H119560   5.410   2.281   1.591 -1.2429  1.3676 -0.1792
 6518TIP3    H219561   5.293   2.204   1.535 -0.4326 -0.4522  0.5706
 6519TIP3   OH219562   4.065   3.815   1.636 -0.1804 -0.2196 -0.6185
 6519TIP3    H119563   4.041   3.885   1.576 -2.3115  1.8492  2.3459
 6519TIP3    H219564   3.998   3.748   1.623 -0.6655  0.2417 -0.5162
 6520TIP3   OH219565   5.487   2.640   3.236 -0.3329  0.2317  0.2599
 6520TIP3    H119566   5.416   2.627   3.173 -0.5170  1.0213  0.2902
 6520TIP3    H219567   5.566   2.645   3.183 -0.6260  2.1920 -0.0626
 6521TIP3   OH219568   5.475   0.949   3.488 -0.0841  0.6962 -0.1576
 6521TIP3    H119569   5.497   1.031   3.443  0.9037  0.7069  0.3124
 6521TIP3    H219570   5.385   0.960   3.518 -0.4760  1.0160 -1.3962
 6522TIP3   OH219571   1.400   2.672   1.945 -0.0166 -0.0195  0.1267
 6522TIP3    H119572   1.460   2.598   1.938  1.2822  1.0509 -0.5192
 6522TIP3    H219573   1.364   2.665   2.034 -0.2161 -1.6190 -0.0591
 6523TIP3   OH219574   4.836   4.705   2.663 -0.1929  0.1092  0.0507
 6523TIP3    H119575   4.928   4.687   2.642 -0.4892 -1.1233 -0.2594
 6523TIP3    H219576   4.796   4.619   2.672 -1.4295  0.6286 -0.2766
 6524TIP3   OH219577   6.194   1.082   0.177  0.0810  0.3907  0.2276
 6524TIP3    H119578   6.208   1.029   0.256  0.6301  0.0666 -0.0816
 6524TIP3    H219579   6.100   1.071   0.158 -0.1759  0.9357  1.1550
 6525TIP3   OH219580   4.513   1.214   2.683 -0.2773 -0.0296  0.0029
 6525TIP3    H119581   4.503   1.129   2.728 -1.1328  0.4752  0.7817
 6525TIP3    H219582   4.429   1.257   2.694  0.2705  1.0785 -0.0736
 6526TIP3   OH219583   1.713   3.342   0.354 -0.0844 -0.5726 -0.4278
 6526TIP3    H119584   1.670   3.263   0.386 -0.9709  1.2005  3.4605
 6526TIP3    H219585   1.798   3.343   0.398  0.0279  0.4670 -0.6399
 6527TIP3   OH219586   0.136   0.351   3.699  0.4253 -0.5537 -0.3635
 6527TIP3    H119587   0.199   0.361   3.770  0.1860  1.5313 -0.3783
 6527TIP3    H219588   0.055   0.388   3.733 -0.2470 -1.3197 -1.0694
 6528TIP3   OH219589   5.809   5.345   0.652 -0.0208 -0.2077 -0.1765
 6528TIP3    H119590   5.747   5.278   0.680  0.3808 -0.1716  0.8594
 6528TIP3    H219591   5.876   5.298   0.603 -0.1324 -0.4559 -0.0932
 6529TIP3   OH219592   3.607   1.613   1.728 -0.8321  0.1133 -0.2750
 6529TIP3    H119593   3.582   1.524   1.751 -0.1626  0.5952  2.6908
 6529TIP3    H219594   3.618   1.611   1.633  1.8437 -3.6664 -0.0856
 6530TIP3   OH219595   1.751   2.024   3.801  0.4313 -0.1869 -0.4235
 6530TIP3    H119596   1.771   1.950   3.858  2.2873  0.9661  0.5296
 6530TIP3    H219597   1.691   2.079   3.853 -1.0093 -1.0020 -1.1606
 6531TIP3   OH219598   2.904   0.217   1.727 -0.2802  0.3598 -0.7353
 6531TIP3    H119599   2.831   0.263   1.768  0.0937 -0.9352  1.5572
 6531TIP3    H219600   2.866   0.139   1.689 -0.1575 -0.1106  0.1005
 6532TIP3   OH219601   1.782   1.350   0.255 -0.2807  0.0908 -0.0245
 6532TIP3    H119602   1.870   1.316   0.267 -0.0501 -0.6733 -2.9411
 6532TIP3    H219603   1.789   1.412   0.182 -2.1301 -0.0507 -0.3979
 6533TIP3   OH219604   3.121   3.478   2.681  0.0823  0.3168 -0.0990
 6533TIP3    H119605   3.087   3.459   2.769  0.4144  1.5835  0.3354
 6533TIP3    H219606   3.216   3.472   2.691  0.0976 -0.3485 -0.5892
 6534TIP3   OH219607   3.507   0.176   1.885 -0.1260 -0.3723 -0.2453
 6534TIP3    H119608   3.451   0.220   1.950 -2.5280 -1.7298 -1.2809
 6534TIP3    H219609   3.525   0.091   1.924  0.3086 -0.3597 -0.4185
 6535TIP3   OH219610   5.632   5.434   3.889 -0.1780  0.1861  0.4290
 6535TIP3    H119611   5.637   5.475   3.976 -2.6407  0.3663  0.5528
 6535TIP3    H219612   5.583   5.497   3.836  0.4186 -0.3783 -0.8351
 6536TIP3   OH219613   4.240   2.295   0.307 -0.5827 -0.0745 -0.2728
 6536TIP3    H119614   4.256   2.374   0.358 -0.6075  0.0725 -0.4942
 6536TIP3    H219615   4.306   2.233   0.338 -0.1980  0.2198 -0.5053
 6537TIP3   OH219616   4.216   3.706   2.536  0.4504 -0.2093  0.0030
 6537TIP3    H119617   4.304   3.714   2.572  0.7239  0.2728 -0.7545
 6537TIP3    H219618   4.159   3.739   2.605  0.9601  0.6340  0.0404
 6538TIP3   OH219619   4.437   4.566   2.680  0.1273  0.3581 -0.2958
 6538TIP3    H119620   4.376   4.597   2.613  0.0996 -0.5024 -0.6794
 6538TIP3    H219621   4.396   4.487   2.715 -1.1924  2.1929  2.6609
 6539TIP3   OH219622   0.752   1.381   4.149  0.0261 -0.0947  0.3551
 6539TIP3    H119623   0.789   1.295   4.127 -2.0353 -0.6830 -1.1314
 6539TIP3    H219624   0.821   1.443   4.126  0.1725 -1.1247 -2.3713
 6540TIP3   OH219625   5.440   3.088   3.889  0.0307  0.0716 -0.3827
 6540TIP3    H119626   5.473   3.058   3.804 -1.6051 -0.3736 -0.8931
 6540TIP3    H219627   5.489   3.168   3.907  2.2535 -1.1834 -0.4947
 6541TIP3   OH219628   5.440   1.974   5.129 -0.3767 -0.3397 -0.0606
 6541TIP3    H119629   5.407   1.917   5.060  0.0093  0.7010 -1.1511
 6541TIP3    H219630   5.367   2.034   5.147  0.0883  0.4690 -0.7999
 6542TIP3   OH219631   0.231   5.337   1.256 -0.5498  0.0207 -0.1156
 6542TIP3    H119632   0.242   5.310   1.165  0.2684 -0.4595  0.1170
 6542TIP3    H219633   0.286   5.277   1.306 -0.6859  0.5240  0.6591
 6543TIP3   OH219634   6.307   3.485   0.394  0.2078  0.3458  0.4298
 6543TIP3    H119635   6.369   3.465   0.464  0.3655  1.1577  0.5301
 6543TIP3    H219636   6.260   3.563   0.425 -1.1695 -0.4925  0.5561
 6544TIP3   OH219637   5.603   4.662   3.943 -0.5684 -0.0861 -0.8311
 6544TIP3    H119638   5.534   4.728   3.951  0.0188  0.3760  0.6922
 6544TIP3    H219639   5.674   4.695   3.997 -0.2971 -2.0232  0.0827
 6545TIP3   OH219640   6.151   3.744   0.294  0.6372 -0.2309 -0.0663
 6545TIP3    H119641   6.096   3.816   0.262 -0.3809 -1.6721 -1.7939
 6545TIP3    H219642   6.228   3.787   0.331  0.1184  1.7492 -1.1180
 6546TIP3   OH219643   2.646   2.254   1.274  0.5053 -0.4926  0.2047
 6546TIP3    H119644   2.680   2.299   1.351  1.7257 -1.5014  0.2977
 6546TIP3    H219645   2.618   2.324   1.215  0.8509  0.3260  0.9938
 6547TIP3   OH219646   5.866   1.303   1.004  0.3132 -0.6538 -0.1393
 6547TIP3    H119647   5.903   1.219   1.031  0.7087 -0.3331  0.3227
 6547TIP3    H219648   5.791   1.316   1.062  0.2760 -0.6709 -0.1836
 6548TIP3   OH219649   5.760   0.002   3.884 -0.3323  0.4207  0.3536
 6548TIP3    H119650   5.714   0.005   3.800 -1.2346 -2.1121  0.6801
 6548TIP3    H219651   5.701   0.047   3.945 -1.3654 -0.8194  0.3031
 6549TIP3   OH219652   6.026   3.805   0.607  0.0605 -0.3785  0.0120
 6549TIP3    H119653   6.030   3.748   0.683  1.5098 -0.8396 -0.3611
 6549TIP3    H219654   5.979   3.755   0.541  0.1681 -0.6149  0.1147
 6550TIP3   OH219655   1.044   0.417   2.906 -0.1381 -0.3297  0.0694
 6550TIP3    H119656   1.001   0.450   2.985  0.6363 -2.1825  1.3626
 6550TIP3    H219657   0.987   0.443   2.834 -2.2175 -0.7148  1.4820
 6551TIP3   OH219658   1.523   4.174   1.652 -0.3818  0.1728  0.0054
 6551TIP3    H119659   1.476   4.091   1.646 -0.2639  0.1120 -0.0814
 6551TIP3    H219660   1.456   4.241   1.639 -0.2253  0.0632 -1.4735
 6552TIP3   OH219661   2.842   1.898   0.668  0.9542  0.4625  0.7390
 6552TIP3    H119662   2.792   1.959   0.614  0.4635 -1.4482 -1.0725
 6552TIP3    H219663   2.851   1.943   0.752 -0.0364  2.6792 -0.2611
 6553TIP3   OH219664   6.178   2.087   2.471  0.2001 -0.4273  0.6436
 6553TIP3    H119665   6.268   2.114   2.487  0.1002 -0.1689  0.7597
 6553TIP3    H219666   6.186   2.015   2.408  0.6476 -1.9333  2.3451
 6554TIP3   OH219667   1.448   3.858   3.164 -0.3541 -0.6309  0.1218
 6554TIP3    H119668   1.517   3.881   3.227 -1.1776 -1.5100  1.3936
 6554TIP3    H219669   1.421   3.942   3.127 -0.4588  0.0250  1.5979
 6555TIP3   OH219670   5.909   1.513   3.948  0.5263 -0.7375 -0.0929
 6555TIP3    H119671   5.891   1.498   3.855  0.9899  0.6961 -0.4434
 6555TIP3    H219672   5.997   1.480   3.962  1.7347  1.8199 -0.9717
 6556TIP3   OH219673   6.144   0.319   1.113  0.2326  0.3633  0.2792
 6556TIP3    H119674   6.158   0.381   1.184  2.9731  1.0941 -0.7525
 6556TIP3    H219675   6.181   0.237   1.146 -0.6001  0.0736  0.5152
 6557TIP3   OH219676   3.106   4.335   0.792 -0.5337  0.8754 -0.2051
 6557TIP3    H119677   3.092   4.283   0.871  0.5154  0.6620 -0.1453
 6557TIP3    H219678   3.018   4.363   0.766 -1.0377 -0.2812  0.1945
 6558TIP3   OH219679   1.384   3.255   2.288 -0.5397  1.0753  0.5618
 6558TIP3    H119680   1.432   3.174   2.271  0.5368  1.5954  1.0434
 6558TIP3    H219681   1.299   3.241   2.246 -0.5182 -0.4392  0.9474
 6559TIP3   OH219682   1.998   5.297   4.731 -0.0385 -0.0232  0.4388
 6559TIP3    H119683   1.979   5.238   4.658  1.3713  2.2358 -1.9434
 6559TIP3    H219684   1.921   5.354   4.737  0.3312  0.5550 -0.1446
 6560TIP3   OH219685   0.747   0.243   4.441 -0.0032 -0.2498 -0.6026
 6560TIP3    H119686   0.785   0.174   4.496  1.2713  0.3694 -0.6849
 6560TIP3    H219687   0.722   0.312   4.502  2.5438  0.9707 -0.8403
 6561TIP3   OH219688   4.081   2.740   1.366  0.1219  0.1523  0.0692
 6561TIP3    H119689   4.083   2.825   1.410 -0.8177 -0.0816  0.6044
 6561TIP3    H219690   4.078   2.762   1.273 -0.5491  0.7305  0.2111
 6562TIP3   OH219691   6.207   4.641   4.639 -0.1617  0.2061 -0.1795
 6562TIP3    H119692   6.237   4.563   4.593  0.5883  0.2647  0.1826
 6562TIP3    H219693   6.136   4.675   4.585  0.5939  0.1899 -1.2285
 6563TIP3   OH219694   2.650   0.307   3.212  0.8562  0.0124  0.7664
 6563TIP3    H119695   2.577   0.346   3.260  0.6519  1.0818 -0.3647
 6563TIP3    H219696   2.677   0.232   3.266 -1.6175 -0.9465  0.8042
 6564TIP3   OH219697   2.855   5.265   1.032  0.3970  0.6244  0.5058
 6564TIP3    H119698   2.778   5.261   1.089  0.3536  0.1937  0.4171
 6564TIP3    H219699   2.918   5.206   1.073  0.1422 -0.1761 -0.2296
 6565TIP3   OH219700   0.302   4.085   3.074 -0.2137 -0.4663  0.4644
 6565TIP3    H119701   0.300   4.054   2.983  0.6437  0.5738  0.0763
 6565TIP3    H219702   0.210   4.088   3.100 -0.6476  1.1113 -1.0477
 6566TIP3   OH219703   0.887   5.221   2.865  0.1378  0.1251 -0.2960
 6566TIP3    H119704   0.875   5.315   2.879  0.2219  0.1039 -0.0869
 6566TIP3    H219705   0.926   5.189   2.946 -3.0224 -0.6938  1.0918
 6567TIP3   OH219706   1.393   2.973   2.439  0.2209 -0.6785 -0.2630
 6567TIP3    H119707   1.452   2.925   2.497  0.5596  0.6095  0.5099
 6567TIP3    H219708   1.449   3.003   2.367  0.2130 -0.6491 -0.2572
 6568TIP3   OH219709   0.852   2.087   2.326  0.1533  0.5795  0.1309
 6568TIP3    H119710   0.942   2.067   2.352  1.3211  1.6998 -2.6136
 6568TIP3    H219711   0.842   2.180   2.346 -0.3541  0.4906  0.2894
 6569TIP3   OH219712   6.177   3.614   1.642  0.1454  0.3617 -0.1758
 6569TIP3    H119713   6.176   3.710   1.635 -0.2337  0.5165  1.3830
 6569TIP3    H219714   6.088   3.588   1.616  0.0968  0.4827 -0.1337
 6570TIP3   OH219715   0.111   2.141   2.481  0.2375  0.2466 -0.1072
 6570TIP3    H119716   0.143   2.072   2.539  2.7257  0.3402 -1.2226
 6570TIP3    H219717   0.128   2.222   2.529  2.4626  0.3357 -0.9026
 6571TIP3   OH219718   5.293   2.185   1.331  0.4476  0.3146  0.4697
 6571TIP3    H119719   5.275   2.093   1.349 -0.9200  0.3141 -0.7889
 6571TIP3    H219720   5.388   2.189   1.319  0.5452 -0.8869  0.7432
 6572TIP3   OH219721   0.375   3.616   3.758  0.3670 -0.5749  0.4551
 6572TIP3    H119722   0.304   3.563   3.723  0.3763 -0.7428  0.6903
 6572TIP3    H219723   0.367   3.700   3.713  0.4682 -0.8387 -0.0551
 6573TIP3   OH219724   2.967   4.201   1.514 -0.3235 -0.4879 -0.4448
 6573TIP3    H119725   2.889   4.147   1.531 -1.2258  0.3259 -1.7570
 6573TIP3    H219726   3.005   4.217   1.600 -0.8530 -2.0029  0.1020
 6574TIP3   OH219727   3.571   1.831   0.224  0.4022 -0.1178 -0.0640
 6574TIP3    H119728   3.605   1.917   0.247  0.2165 -0.0207 -0.1514
 6574TIP3    H219729   3.516   1.806   0.298  0.4885 -0.1786 -0.0206
 6575TIP3   OH219730   0.469   3.494   1.863  0.8079 -0.5288  0.0224
 6575TIP3    H119731   0.499   3.585   1.864  2.7093 -1.1058  0.0529
 6575TIP3    H219732   0.398   3.493   1.799  1.5409  0.7520 -0.8745
 6576TIP3   OH219733   5.717   4.230   1.695 -0.1498 -0.2438 -0.4294
 6576TIP3    H119734   5.788   4.250   1.757  0.8872  0.4242 -1.7634
 6576TIP3    H219735   5.653   4.300   1.709  0.4993  0.4212 -0.7155
 6577TIP3   OH219736  -0.015   5.418   1.316  0.5771  0.6347 -0.3965
 6577TIP3    H119737   0.069   5.386   1.285 -0.0777 -0.9188 -0.6992
 6577TIP3    H219738  -0.049   5.471   1.244  0.3072 -0.6411 -1.2539
 6578TIP3   OH219739   4.863   0.038   1.095  0.0822 -0.3838  0.9449
 6578TIP3    H119740   4.886   0.085   1.015 -0.6460 -0.6774  0.5559
 6578TIP3    H219741   4.883   0.100   1.165 -0.1884  0.2379  0.4798
 6579TIP3   OH219742   3.483   1.718   5.112 -0.3266  0.2025 -0.2177
 6579TIP3    H119743   3.471   1.737   5.018  2.6314  1.1254 -0.4930
 6579TIP3    H219744   3.574   1.690   5.119 -0.2483  0.9150  2.5146
 6580TIP3   OH219745   2.052   4.023   1.752 -0.0082 -0.1719  0.0104
 6580TIP3    H119746   2.082   3.932   1.756 -0.8080 -0.4237  0.6924
 6580TIP3    H219747   1.966   4.022   1.793 -1.1280  0.4702 -2.1726
 6581TIP3   OH219748   0.815   4.941   1.191 -0.0715 -0.9420  0.0270
 6581TIP3    H119749   0.884   4.993   1.234  0.0278 -1.1228  0.0870
 6581TIP3    H219750   0.806   4.864   1.246 -0.9331 -0.5123  0.4985
 6582TIP3   OH219751   1.323   3.984   4.658  0.7447  0.1200  0.4447
 6582TIP3    H119752   1.242   3.943   4.690 -1.6345  3.0205 -1.2867
 6582TIP3    H219753   1.330   3.956   4.567  0.3548  1.6311 -0.0798
 6583TIP3   OH219754   4.707  -0.003   4.548 -0.3930 -0.3459 -0.3853
 6583TIP3    H119755   4.699   0.082   4.505  2.1496 -0.6034 -1.5835
 6583TIP3    H219756   4.712   0.018   4.641 -0.8608  0.7074 -0.5775
 6584TIP3   OH219757   5.454   2.096   3.041 -0.1321 -0.2638 -0.3584
 6584TIP3    H119758   5.454   2.129   2.951  1.5400 -0.7544 -0.5694
 6584TIP3    H219759   5.507   2.158   3.090 -2.7276  1.1715  0.8174
 6585TIP3   OH219760   3.217   4.619   4.582  0.4206 -0.4166 -0.2398
 6585TIP3    H119761   3.187   4.592   4.495  0.7071  0.3027 -0.5730
 6585TIP3    H219762   3.143   4.665   4.620  0.6775  0.3009 -0.5824
 6586TIP3   OH219763   1.784   0.277   3.422  0.0342 -0.4685 -0.7044
 6586TIP3    H119764   1.694   0.253   3.401 -0.4799  1.3100 -0.6628
 6586TIP3    H219765   1.807   0.342   3.356  1.3012 -0.8817 -0.6992
 6587TIP3   OH219766   2.842   4.495   1.037  0.1137  0.1896 -0.0710
 6587TIP3    H119767   2.853   4.439   1.113  0.9474 -0.5999 -0.7534
 6587TIP3    H219768   2.762   4.545   1.055  0.0943 -0.2534  1.1377
 6588TIP3   OH219769   2.383   4.578   2.077  0.9464  0.2146 -0.2418
 6588TIP3    H119770   2.458   4.573   2.019  0.9541 -1.1461 -0.1496
 6588TIP3    H219771   2.345   4.490   2.076 -0.8669  0.9514 -0.5741
 6589TIP3   OH219772   0.764   0.583   1.343  0.3098 -0.2211 -0.3491
 6589TIP3    H119773   0.729   0.504   1.383  0.6337  0.0959  0.6095
 6589TIP3    H219774   0.829   0.552   1.280  1.5600 -0.7240  1.1036
 6590TIP3   OH219775   5.257   3.238   0.275 -0.4151 -0.4929 -0.3523
 6590TIP3    H119776   5.340   3.200   0.246 -0.8254 -1.1250 -0.7148
 6590TIP3    H219777   5.268   3.332   0.261  1.4268 -0.1588  2.5895
 6591TIP3   OH219778   5.724   5.268   0.371 -0.0639 -0.7663 -0.1163
 6591TIP3    H119779   5.694   5.292   0.459 -0.4230 -2.0866  0.1556
 6591TIP3    H219780   5.650   5.291   0.314  0.9549  2.0671 -0.4403
 6592TIP3   OH219781   6.352   5.820   4.170  0.4593 -0.2843 -0.3412
 6592TIP3    H119782   6.347   5.914   4.153  1.7553 -0.4221 -1.7086
 6592TIP3    H219783   6.262   5.789   4.157  0.1217  0.6745 -0.4147
 6593TIP3   OH219784   6.018   2.639   0.588  0.1974 -0.2428 -0.1806
 6593TIP3    H119785   6.091   2.689   0.625  0.5813 -0.1649 -1.0314
 6593TIP3    H219786   6.060   2.572   0.534 -0.3585 -0.2271 -0.6402
 6594TIP3   OH219787   5.672   0.923   2.903  0.4803  0.2505 -0.2247
 6594TIP3    H119788   5.640   0.843   2.861  2.5310 -0.7536  0.0054
 6594TIP3    H219789   5.593   0.972   2.925 -0.9706 -2.5852  1.3752
 6595TIP3   OH219790   3.835   0.767   0.398  0.0681  0.1513 -0.4239
 6595TIP3    H119791   3.796   0.807   0.320 -2.8121  0.1069  0.9003
 6595TIP3    H219792   3.849   0.676   0.373 -0.9795  0.0967 -0.8595
 6596TIP3   OH219793   3.001   2.842   4.834  0.3056  0.3374  0.1103
 6596TIP3    H119794   3.013   2.763   4.782 -0.0583 -1.8148  3.0623
 6596TIP3    H219795   3.090   2.865   4.863  0.3946  0.9681 -0.6318
 6597TIP3   OH219796   3.396   0.698   4.564  0.6573 -0.3783 -0.7502
 6597TIP3    H119797   3.467   0.636   4.550  0.2187 -1.6812  2.1575
 6597TIP3    H219798   3.318   0.653   4.531  0.5540 -0.7645  0.0184
 6598TIP3   OH219799   4.509   1.698   3.303 -0.2883  0.0018  0.0600
 6598TIP3    H119800   4.570   1.628   3.280  0.6393  0.5354  0.8659
 6598TIP3    H219801   4.465   1.719   3.220  0.5827 -0.4247 -0.5215
 6599TIP3   OH219802   1.533   2.994   4.097  0.4292 -0.0370 -0.0968
 6599TIP3    H119803   1.617   2.962   4.130 -0.2226 -0.6794  1.0009
 6599TIP3    H219804   1.508   3.064   4.157 -0.0851 -0.2339 -0.0755
 6600TIP3   OH219805   6.273   0.384   4.090 -0.4149  0.1070 -0.0652
 6600TIP3    H119806   6.253   0.355   4.179 -2.3525  1.4050 -0.0060
 6600TIP3    H219807   6.188   0.387   4.046  0.5978 -1.5092 -2.3280
 6601TIP3   OH219808   1.427   1.096   4.407  0.4824  0.3350 -0.1897
 6601TIP3    H119809   1.353   1.155   4.422  1.3342  1.7178 -1.0830
 6601TIP3    H219810   1.401   1.045   4.330 -1.5864 -2.8517  2.3750
 6602TIP3   OH219811   2.661   2.450   0.382 -0.2425  0.2079 -0.1199
 6602TIP3    H119812   2.651   2.395   0.304  0.9330  0.1697 -0.2501
 6602TIP3    H219813   2.589   2.423   0.439  0.7084 -2.0109  0.1440
 6603TIP3   OH219814   2.648   4.012   4.798  0.0391  0.5804 -0.0705
 6603TIP3    H119815   2.672   3.951   4.868 -1.0265 -0.4535 -0.5713
 6603TIP3    H219816   2.601   4.082   4.841 -0.7737 -0.1453  0.2509
 6604TIP3   OH219817   4.235   1.638   4.803 -0.1519  0.0660  0.7322
 6604TIP3    H119818   4.218   1.683   4.720 -1.0327 -0.3900  0.6517
 6604TIP3    H219819   4.257   1.548   4.778 -1.1556 -0.2707  1.0115
 6605TIP3   OH219820   3.128   0.325   3.925 -0.8723 -0.4116 -0.1624
 6605TIP3    H119821   3.061   0.369   3.976 -1.4433 -1.5645  0.1248
 6605TIP3    H219822   3.199   0.389   3.918 -1.5764  0.4548  0.4070
 6606TIP3   OH219823   1.813   4.349   0.309  0.5347 -0.4359  0.2745
 6606TIP3    H119824   1.882   4.392   0.259  1.2621 -2.4097 -0.5361
 6606TIP3    H219825   1.845   4.349   0.400  0.5766  0.5654  0.2669
 6607TIP3   OH219826   2.421   3.469   3.453 -0.6507 -0.5666 -0.1492
 6607TIP3    H119827   2.439   3.421   3.372  0.1412 -0.2970 -0.1405
 6607TIP3    H219828   2.424   3.402   3.522  0.6940 -0.4897 -0.1073
 6608TIP3   OH219829   3.052   5.793   3.255  1.1431  0.1472  0.9183
 6608TIP3    H119830   2.988   5.782   3.184  0.3347 -0.5386  1.7280
 6608TIP3    H219831   3.058   5.888   3.267  1.0205  0.2562  0.1807
 6609TIP3   OH219832   4.112   0.914   1.150 -0.2044  0.4451 -0.1370
 6609TIP3    H119833   4.154   0.867   1.078 -0.2265 -1.1501  0.8589
 6609TIP3    H219834   4.043   0.856   1.181  0.3616  0.6894  1.7363
 6610TIP3   OH219835   4.737   3.911   0.998  0.5267  0.4652 -0.0469
 6610TIP3    H119836   4.779   3.935   1.081 -0.2431 -0.9975  0.8285
 6610TIP3    H219837   4.777   3.968   0.933  0.9966  1.8145  1.3680
 6611TIP3   OH219838   0.087   1.941  -0.022  0.3506 -0.0192  0.1041
 6611TIP3    H119839   0.180   1.924  -0.037 -0.0779 -3.6834  0.6744
 6611TIP3    H219840   0.084   1.984   0.064  1.4765 -0.5156  0.4100
 6612TIP3   OH219841   3.206   5.464   3.621  0.3627  0.1338  0.5663
 6612TIP3    H119842   3.285   5.495   3.665  0.1397  2.1165 -0.3112
 6612TIP3    H219843   3.165   5.544   3.587 -2.6264 -0.6877  1.9255
 6613TIP3   OH219844   6.047   1.641   1.297 -0.1193 -0.2422  0.0094
 6613TIP3    H119845   6.086   1.563   1.337  0.7895  0.2062  0.0373
 6613TIP3    H219846   6.122   1.691   1.266 -0.6039  1.2115  1.0653
 6614TIP3   OH219847   5.398   0.068   4.210 -0.3891  0.5608  0.2579
 6614TIP3    H119848   5.353   0.148   4.183 -3.1705 -0.2892  1.9532
 6614TIP3    H219849   5.369   0.053   4.300  0.8432 -1.8287  0.3482
 6615TIP3   OH219850   5.257   2.031   3.845  0.3321 -0.9549  0.2312
 6615TIP3    H119851   5.234   2.078   3.764 -2.2058 -2.2293  0.1414
 6615TIP3    H219852   5.316   2.091   3.890 -0.9666  1.3432 -0.9358
 6616TIP3   OH219853   3.318   0.171   0.727  0.0019  0.4853 -0.1187
 6616TIP3    H119854   3.314   0.108   0.799 -1.5514  0.4107 -0.2378
 6616TIP3    H219855   3.314   0.257   0.769  4.1815  0.7227  0.2147
 6617TIP3   OH219856   3.644   1.776   1.465  0.0177  0.1096  0.1532
 6617TIP3    H119857   3.608   1.687   1.460 -0.3550  0.2030  1.0072
 6617TIP3    H219858   3.735   1.767   1.435 -0.2835 -0.3965 -0.6141
 6618TIP3   OH219859   5.297   3.645   0.505 -0.7243 -0.4352 -0.2435
 6618TIP3    H119860   5.209   3.683   0.503  0.1997  1.8161 -1.1549
 6618TIP3    H219861   5.308   3.604   0.419 -0.5246  0.1621 -0.5037
 6619TIP3   OH219862   2.970   2.976   3.111 -0.0226  0.4352 -0.3429
 6619TIP3    H119863   2.888   3.023   3.096  0.0487  0.9228  0.7126
 6619TIP3    H219864   2.944   2.889   3.139 -0.2471  1.1698  1.8921
 6620TIP3   OH219865   1.557   5.113   1.121  0.2348 -0.2811  0.0244
 6620TIP3    H119866   1.550   5.205   1.093  1.4107  0.0374  0.6849
 6620TIP3    H219867   1.467   5.086   1.138  0.0063  1.4269  1.8467
 6621TIP3   OH219868   3.170   1.949   0.834 -0.4135  0.1904  0.3807
 6621TIP3    H119869   3.255   1.934   0.875  0.9876  1.9771 -1.6753
 6621TIP3    H219870   3.110   1.892   0.882  1.8620 -0.9130  2.0936
 6622TIP3   OH219871   5.072   3.711   1.494 -0.0958  0.3854  0.3458
 6622TIP3    H119872   5.008   3.640   1.497  0.4897 -0.2451 -1.1048
 6622TIP3    H219873   5.029   3.784   1.539 -0.9707 -0.6734  1.2676
 6623TIP3   OH219874   2.634   0.308   4.461  0.0568  0.4521 -0.1503
 6623TIP3    H119875   2.590   0.284   4.543  0.2097  1.4593  0.2387
 6623TIP3    H219876   2.706   0.364   4.488 -0.0139  0.9637 -0.9956
 6624TIP3   OH219877   2.931   2.800   5.125  0.0777 -0.6204 -0.3191
 6624TIP3    H119878   3.018   2.784   5.160  1.0200 -0.4457 -2.4067
 6624TIP3    H219879   2.937   2.777   5.032 -2.2807 -1.1940 -0.4075
 6625TIP3   OH219880   2.653   2.498   2.849  0.0991 -0.6017  0.1809
 6625TIP3    H119881   2.727   2.478   2.792 -0.3092  2.1418 -1.4968
 6625TIP3    H219882   2.578   2.505   2.789 -1.3900 -2.2147  1.6947
 6626TIP3   OH219883   1.270   0.145   3.079  0.1602 -0.0580 -0.1399
 6626TIP3    H119884   1.232   0.155   2.991 -2.8146 -0.0626  1.0542
 6626TIP3    H219885   1.233   0.217   3.129  0.7233 -0.8544  1.4822
 6627TIP3   OH219886   1.937   0.324   4.086  0.0612 -0.4123 -0.4020
 6627TIP3    H119887   1.957   0.346   3.994  0.4781 -1.2524 -0.5189
 6627TIP3    H219888   1.966   0.401   4.135  0.0589 -0.0502 -0.9514
 6628TIP3   OH219889   6.206   3.952   2.898  0.3061 -0.2678 -0.2689
 6628TIP3    H119890   6.208   3.920   2.808  0.2762 -1.1449  0.0385
 6628TIP3    H219891   6.247   3.883   2.949 -1.2274 -0.5686  0.6248
 6629TIP3   OH219892   0.665   1.352   0.194 -0.0332  0.6262 -0.3024
 6629TIP3    H119893   0.602   1.303   0.247 -0.2259  1.0848 -0.1005
 6629TIP3    H219894   0.749   1.309   0.211 -0.0556  0.8968  0.5481
 6630TIP3   OH219895   1.540   3.915   2.368 -0.0376 -0.4164  0.6195
 6630TIP3    H119896   1.534   3.990   2.427  0.5531  0.6622 -0.6376
 6630TIP3    H219897   1.461   3.863   2.386  0.1185 -0.1068  2.3043
 6631TIP3   OH219898   3.760   0.238   4.307  0.3909  0.1821 -0.2911
 6631TIP3    H119899   3.752   0.143   4.294 -0.1659 -0.1584  2.1341
 6631TIP3    H219900   3.846   0.249   4.347  0.4073  0.7053 -0.4633
 6632TIP3   OH219901   3.675   1.135   4.001  0.0605  0.0877  0.3976
 6632TIP3    H119902   3.665   1.194   3.926  1.6347 -0.3920 -0.2376
 6632TIP3    H219903   3.730   1.064   3.968 -0.9555 -1.2327  1.4312
 6633TIP3   OH219904   0.389   2.302   0.841 -0.3793 -0.0422  0.1201
 6633TIP3    H119905   0.460   2.295   0.905  0.3823 -0.2830 -0.7190
 6633TIP3    H219906   0.343   2.218   0.847 -1.7885  0.7983  1.9771
 6634TIP3   OH219907   3.680   3.126   2.066  0.3210 -0.0007  0.2793
 6634TIP3    H119908   3.674   3.054   2.004  1.0731  0.6038 -0.5279
 6634TIP3    H219909   3.616   3.190   2.035 -0.1845 -0.2190  0.8604
 6635TIP3   OH219910   1.643   3.055   3.563 -0.0846  0.5960 -0.4999
 6635TIP3    H119911   1.557   3.015   3.572  0.4354 -0.4562  0.0439
 6635TIP3    H219912   1.688   3.033   3.645  0.8591  0.7160 -0.9739
 6636TIP3   OH219913   5.162   0.864   1.472  0.2331  0.4277 -0.2179
 6636TIP3    H119914   5.187   0.777   1.442  1.7092  0.6547  0.2880
 6636TIP3    H219915   5.242   0.917   1.463 -0.3566  1.4666  0.4445
 6637TIP3   OH219916   0.353   0.567   3.695  0.2220 -0.5125  0.8806
 6637TIP3    H119917   0.361   0.494   3.757  2.3807 -0.3497  0.8692
 6637TIP3    H219918   0.425   0.626   3.717 -0.6105  0.9242 -0.0424
 6638TIP3   OH219919   1.535   0.530   1.042 -0.3476  0.4095 -0.4587
 6638TIP3    H119920   1.623   0.562   1.020 -0.9210  1.7731 -0.9155
 6638TIP3    H219921   1.532   0.441   1.007  0.0063  1.2275 -2.7633
 6639TIP3   OH219922   4.085   1.490   0.026 -0.3354  0.3310 -0.1423
 6639TIP3    H119923   4.164   1.468   0.076 -0.5863 -0.2681 -0.0016
 6639TIP3    H219924   4.033   1.544   0.086 -0.2335  0.3505 -0.0716
 6640TIP3   OH219925   0.478   0.669   2.506 -0.4694  0.1354 -0.2622
 6640TIP3    H119926   0.385   0.667   2.485 -0.3425  1.2073 -0.9899
 6640TIP3    H219927   0.519   0.618   2.436 -0.5224 -0.5850  0.2186
   6.34876   5.98566   5.18374   0.00000   0.00000  -2.11625   0.00000  -2.11625  -2.99284
