Title
29212
    1ASP      N    1   1.476   3.636   4.721  0.1675  0.0586  0.1969
    1ASP    HT1    2   1.388   3.629   4.776 -0.6365 -1.3794 -1.1913
    1ASP    HT2    3   1.504   3.732   4.692  1.1074 -0.2358  0.0992
    1ASP    HT3    4   1.549   3.598   4.785  1.6527 -0.8555 -1.9093
    1ASP     CA    5   1.454   3.554   4.597  1.1848  0.2587  0.7379
    1ASP     HA    6   1.431   3.452   4.627 -0.6256  0.2524 -0.4874
    1ASP     CB    7   1.353   3.617   4.504  0.1481  0.9570 -0.4308
    1ASP    HB1    8   1.361   3.576   4.402  3.2351 -1.1042  0.4992
    1ASP    HB2    9   1.361   3.728   4.504  1.6738  0.8835  0.6959
    1ASP     CG   10   1.212   3.576   4.553  0.6447 -0.4135  0.5948
    1ASP    OD1   11   1.207   3.516   4.654  0.4583 -0.0050 -0.1355
    1ASP    OD2   12   1.111   3.605   4.476 -0.3412  0.3478  0.5204
    1ASP      C   13   1.589   3.546   4.525  0.0838  0.2627 -0.1886
    1ASP      O   14   1.688   3.609   4.561 -0.4252  0.0523  0.5240
    2GLY      N   15   1.589   3.473   4.413 -0.3640  0.4072 -0.3555
    2GLY     HN   16   1.514   3.424   4.368  0.3745 -1.3759  0.2557
    2GLY     CA   17   1.706   3.445   4.325  0.1810  0.0115 -0.0865
    2GLY    HA1   18   1.741   3.546   4.309  1.4529 -0.4673 -0.3954
    2GLY    HA2   19   1.669   3.389   4.240  0.0816 -0.4635  0.2678
    2GLY      C   20   1.816   3.383   4.389 -0.3544  0.6951  0.5064
    2GLY      O   21   1.802   3.320   4.492  0.0722 -0.0286 -0.3971
    3ASP      N   22   1.929   3.388   4.327  0.0287  0.0281  0.2845
    3ASP     HN   23   1.932   3.435   4.240  0.7630 -0.9369 -0.2338
    3ASP     CA   24   2.059   3.354   4.385  0.2127  0.1982 -0.0190
    3ASP     HA   25   2.059   3.247   4.401  2.1008  0.1107 -0.3503
    3ASP     CB   26   2.176   3.390   4.283  0.0931 -0.8541 -0.6050
    3ASP    HB1   27   2.276   3.365   4.324  0.0305 -3.9276 -1.9933
    3ASP    HB2   28   2.183   3.496   4.252 -1.6344 -0.7616 -0.7640
    3ASP     CG   29   2.163   3.315   4.153 -0.2036  0.0012 -0.1681
    3ASP    OD1   30   2.159   3.380   4.045 -0.1538  0.3735  0.0863
    3ASP    OD2   31   2.153   3.193   4.148 -0.0056 -0.1092  0.2990
    3ASP      C   32   2.091   3.428   4.509 -0.5719  0.2733 -0.2095
    3ASP      O   33   2.061   3.547   4.518  0.3274 -0.2519  0.4996
    4GLY      N   34   2.158   3.367   4.606  0.1564 -0.0888  0.0924
    4GLY     HN   35   2.192   3.276   4.583  0.6699  0.8104 -3.4052
    4GLY     CA   36   2.201   3.436   4.730  0.1869  0.0490 -0.0585
    4GLY    HA1   37   2.242   3.363   4.798 -1.4666 -1.0279 -0.1772
    4GLY    HA2   38   2.107   3.462   4.776  0.6992 -1.4653  1.9726
    4GLY      C   39   2.303   3.554   4.717 -0.5639  0.6429 -0.0857
    4GLY      O   40   2.325   3.597   4.602  0.3317 -0.4789 -0.2478
    5PRO      N   41   2.362   3.601   4.831  0.4765 -0.5745  0.9807
    5PRO     CD   42   2.327   3.562   4.966  0.5770 -0.1807  0.0732
    5PRO    HD1   43   2.369   3.460   4.980 -1.4472 -1.5836 -2.8005
    5PRO    HD2   44   2.216   3.565   4.976  0.3560 -0.3915 -1.8095
    5PRO     CA   45   2.435   3.733   4.836  0.1217  0.2904 -0.5791
    5PRO     HA   46   2.350   3.796   4.816 -1.0020 -0.9700  0.0337
    5PRO     CB   47   2.488   3.729   4.986 -0.6923 -0.0987  0.4765
    5PRO    HB1   48   2.522   3.827   5.026  0.4727 -0.0375 -0.5971
    5PRO    HB2   49   2.577   3.663   4.984  0.2031  1.0797 -1.4882
    5PRO     CG   50   2.388   3.656   5.061 -0.7332 -0.2703 -0.5714
    5PRO    HG1   51   2.434   3.602   5.147  1.4712  2.4236  0.1089
    5PRO    HG2   52   2.311   3.731   5.091  0.0141  0.3659 -0.1994
    5PRO      C   53   2.538   3.762   4.729  0.9420 -0.9926  0.2463
    5PRO      O   54   2.621   3.681   4.699 -0.0977 -0.6458 -0.1865
    6GLY      N   55   2.533   3.884   4.667 -0.9791  0.7060 -0.0234
    6GLY     HN   56   2.472   3.952   4.706  0.3732  1.1083  1.5128
    6GLY     CA   57   2.620   3.932   4.561 -0.1424 -0.0532  0.2219
    6GLY    HA1   58   2.598   4.037   4.558  1.4047  0.3319  1.0943
    6GLY    HA2   59   2.606   3.872   4.472  1.7471 -3.0434  1.7498
    6GLY      C   60   2.770   3.928   4.589 -0.1562  0.3924 -0.6167
    6GLY      O   61   2.821   3.897   4.693  0.3819 -0.6656  0.2396
    7ASP      N   62   2.850   3.970   4.493  0.3835  0.8115  0.1192
    7ASP     HN   63   2.807   4.017   4.416 -0.6309 -0.6901 -0.2930
    7ASP     CA   64   2.988   3.988   4.492  0.0175  0.5045  0.4878
    7ASP     HA   65   3.027   3.898   4.538  2.8975  1.6826  0.5962
    7ASP     CB   66   3.049   3.993   4.350 -0.3488 -0.2093 -0.6414
    7ASP    HB1   67   3.152   4.035   4.349 -0.3245 -0.2666 -1.2369
    7ASP    HB2   68   2.985   4.061   4.289 -1.2138 -2.0337 -1.8702
    7ASP     CG   69   3.057   3.860   4.279  0.4094  0.0072  0.2988
    7ASP    OD1   70   3.112   3.856   4.168  0.0708  0.3323  0.0889
    7ASP    OD2   71   3.007   3.764   4.338 -0.9192  0.6823 -0.2424
    7ASP      C   72   3.025   4.113   4.580  0.0426 -0.0454 -0.3094
    7ASP      O   73   2.944   4.207   4.591 -0.5964  0.1833 -0.6589
    8PRO      N   74   3.138   4.117   4.640  0.3771  0.4780 -0.1063
    8PRO     CD   75   3.232   3.999   4.649  0.5056 -0.0085 -0.2677
    8PRO    HD1   76   3.271   3.965   4.551  0.5606 -0.7730  0.0150
    8PRO    HD2   77   3.185   3.918   4.708 -1.1045  2.2350  1.6901
    8PRO     CA   78   3.202   4.245   4.692  0.2059 -0.2216  0.3770
    8PRO     HA   79   3.171   4.262   4.794 -0.1610  2.5381 -0.1317
    8PRO     CB   80   3.349   4.204   4.694  0.2170  0.0903  0.3112
    8PRO    HB1   81   3.404   4.271   4.763  0.7871 -1.7192  1.6947
    8PRO    HB2   82   3.385   4.226   4.591 -1.5602  0.4326 -0.2883
    8PRO     CG   83   3.347   4.057   4.726 -0.7733  0.0495  0.6502
    8PRO    HG1   84   3.441   4.004   4.698 -1.0497 -0.5763  0.8732
    8PRO    HG2   85   3.331   4.026   4.832  0.6200 -2.4452  0.2285
    8PRO      C   86   3.166   4.374   4.619 -0.3113  0.0059  0.3938
    8PRO      O   87   3.178   4.364   4.492 -0.5680  0.2058 -0.5577
    9GLY      N   88   3.124   4.475   4.685  0.5149 -0.2588 -0.0952
    9GLY     HN   89   3.147   4.482   4.782  0.8161 -1.0655 -0.1028
    9GLY     CA   90   3.060   4.598   4.628 -0.7578  0.3879 -0.2188
    9GLY    HA1   91   3.025   4.652   4.714 -0.7865  0.9644 -0.5836
    9GLY    HA2   92   2.984   4.571   4.556 -1.0592 -0.8239  0.5423
    9GLY      C   93   3.159   4.685   4.557 -0.5015 -0.4508  0.0389
    9GLY      O   94   3.280   4.652   4.539 -0.2680 -0.1724 -0.1591
   10ASP      N   95   3.115   4.804   4.521  0.2976 -0.4373 -0.0718
   10ASP     HN   96   3.025   4.839   4.543  0.8290 -0.0303  1.6387
   10ASP     CA   97   3.198   4.915   4.464 -0.1623  0.0242  0.0500
   10ASP     HA   98   3.251   4.885   4.375 -2.1784  0.9889 -1.5597
   10ASP     CB   99   3.104   5.035   4.425 -0.5145  0.0117 -0.5063
   10ASP    HB1  100   3.166   5.116   4.382 -0.2538 -0.0448 -0.2377
   10ASP    HB2  101   3.040   5.082   4.502  0.7544 -0.7543  1.0764
   10ASP     CG  102   3.013   4.980   4.319 -0.2904  0.5137  0.5792
   10ASP    OD1  103   2.889   5.009   4.300  0.0250 -0.5430  0.2414
   10ASP    OD2  104   3.072   4.914   4.227  0.5284 -0.5844  0.3808
   10ASP      C  105   3.301   4.972   4.556  0.1735 -0.4829 -0.0549
   10ASP      O  106   3.291   4.980   4.678  0.3462 -0.1858 -0.1458
   11GLY      N  107   3.412   5.011   4.495 -0.5112  0.1949 -0.3045
   11GLY     HN  108   3.420   5.003   4.396  0.6651 -1.8100 -0.1096
   11GLY     CA  109   3.527   5.075   4.559  1.2286 -1.1006 -0.5471
   11GLY    HA1  110   3.618   5.044   4.510  0.4029  0.0187 -2.9432
   11GLY    HA2  111   3.530   5.062   4.667 -2.0289  1.0587 -0.0600
   11GLY      C  112   3.511   5.228   4.541 -0.0481  0.3853 -0.2677
   11GLY    OT1  113   3.440   5.296   4.624 -0.4584 -0.1345  0.3547
   11GLY    OT2  114   3.579   5.289   4.456  0.6023 -0.2043  0.2621
   12LIT    LIT  115   5.702   0.165   5.458  0.0721  0.2656 -1.0212
   13LIT    LIT  116   1.519   4.338   3.557 -0.0684 -1.3762 -0.2344
   14LIT    LIT  117   6.855   3.707   3.504  0.5203 -0.0182  0.3727
   15LIT    LIT  118   1.773   1.809   5.445  0.3158 -0.4563 -0.3036
   16LIT    LIT  119   3.505   5.460   4.542 -0.6844 -0.3054 -0.5558
   17LIT    LIT  120   1.442   4.425   0.538  0.1625 -0.5813  0.0095
   18LIT    LIT  121   6.961   5.273   2.705  0.4813 -0.3484  0.1587
   19LIT    LIT  122   3.849   3.604   0.005  0.5986 -0.7000 -0.2543
   20LIT    LIT  123   3.877   4.364   2.844  0.3186  0.2988  0.4606
   21LIT    LIT  124   6.585   2.719   3.683  0.3471  1.3212 -0.4307
   22LIT    LIT  125   1.207   4.904   0.994 -0.2462  0.0249 -0.9692
   23LIT    LIT  126   1.387   4.004   5.507  0.0368 -0.0471 -0.5471
   24LIT    LIT  127   2.994   0.265   1.627 -1.0160 -0.0671 -0.2948
   25LIT    LIT  128   2.906   3.654   3.659 -1.2636 -0.0792  0.2626
   26LIT    LIT  129   2.875   4.836   4.210 -0.8807 -0.2226  0.3561
   27LIT    LIT  130   4.970   2.954   3.932 -0.0676 -0.6394  0.7363
   28LIT    LIT  131   1.654   0.942   2.480  0.8576  0.7382  0.5972
   29LIT    LIT  132   3.770   2.727   2.504 -1.3476 -0.4502 -0.8249
   30LIT    LIT  133   2.250   0.296   0.227 -0.4783 -0.6821 -0.1089
   31LIT    LIT  134   4.979   4.847   0.899 -0.9019 -0.0411 -0.7530
   32LIT    LIT  135   1.164   4.899   4.364  0.0039  0.7677  0.7281
   33LIT    LIT  136   2.656   1.250   1.055 -0.6017  0.2268 -0.4443
   34LIT    LIT  137   2.614   5.320   0.640 -0.3508  0.3970 -1.3312
   35LIT    LIT  138   2.929   3.639   4.454  0.0464  0.1856 -0.5066
   36LIT    LIT  139   5.842   6.374   0.973 -0.3669  1.0248 -0.2577
   37LIT    LIT  140   4.758   5.211   2.957 -0.0664 -0.0727 -0.3255
   38LIT    LIT  141   4.993   4.576   4.757 -0.4140  0.4635 -1.0512
   39LIT    LIT  142   1.041   3.705   4.345 -0.3485 -0.5730  0.3408
   40LIT    LIT  143   5.385   1.649   3.954 -0.3667 -1.4394 -0.3605
   41LIT    LIT  144   3.134   2.180   1.259 -0.3575 -0.6516 -0.5209
   42LIT    LIT  145   2.182   3.210   3.942 -0.8401 -0.2842 -1.2725
   43CLA    CLA  146   5.869   4.533   5.828  0.5049  0.0921 -0.0506
   44CLA    CLA  147   2.297   5.077   0.392  0.0771  0.1742  0.0839
   45CLA    CLA  148   6.151   4.297   1.851  0.4646  0.2004 -0.2535
   46CLA    CLA  149   7.189   5.193   4.796  0.1573  0.5350  0.0507
   47CLA    CLA  150   1.610   4.650   5.205  0.2923  0.1222 -0.1832
   48CLA    CLA  151   4.550   2.817   4.114 -0.0693 -0.2276 -0.2511
   49CLA    CLA  152   2.047   0.700   0.442  0.1273  0.0642  0.0923
   50CLA    CLA  153   1.578   1.264   4.646  0.2003 -0.6193  0.4441
   51CLA    CLA  154   5.546   5.770   2.181 -0.1600 -0.1533 -0.1991
   52CLA    CLA  155   2.175   1.723   2.234 -0.2723 -0.2777  0.1718
   53CLA    CLA  156   5.204   0.852   2.953 -0.2799 -0.0727  0.1545
   54CLA    CLA  157   2.852   3.109   4.315 -0.2514 -0.2076 -0.1876
   55CLA    CLA  158   5.645   6.713   1.679  0.0384  0.3660 -0.1633
   56CLA    CLA  159   1.024   3.672   4.116 -0.4791  0.1814  0.0133
   57CLA    CLA  160   3.499   4.934   0.003  0.5060  0.3588 -0.0319
   58CLA    CLA  161   6.296   6.555   3.360  0.4292  0.1472  0.1320
   59CLA    CLA  162   5.414   1.674   4.923 -0.1672  0.3364 -0.1462
   60CLA    CLA  163   5.996   0.922   5.294 -0.0138 -0.3698 -0.7826
   61CLA    CLA  164   1.070   5.403   1.329 -0.1654 -0.2345 -0.2423
   62CLA    CLA  165   2.186   5.471   2.923 -0.0188 -0.3378  0.0726
   63CLA    CLA  166   1.179   3.087   3.067  0.0222 -0.3975 -0.2761
   64CLA    CLA  167   5.835   3.829   3.934 -0.0095  0.0095  0.1254
   65CLA    CLA  168   5.328   0.330   1.195 -0.1951 -0.1688  0.5968
   66CLA    CLA  169   6.004   6.282   0.807 -0.2212 -0.2596 -0.3573
   67CLA    CLA  170   4.587   2.823   5.802 -0.2108  0.1129 -0.0988
   68CLA    CLA  171   6.762   4.835   1.803 -0.4936  0.2217  0.2156
   69CLA    CLA  172   3.707   4.245   2.257 -0.2225 -0.2683 -0.2271
   70TIP3   OH2  173   4.415   5.352   3.738  0.0044  0.4627  0.2321
   70TIP3    H1  174   4.484   5.296   3.772  0.7401  1.3421  0.2286
   70TIP3    H2  175   4.458   5.406   3.672 -0.5737  1.3761  0.5881
   71TIP3   OH2  176   4.035   3.996   0.088  0.0540 -0.1256  0.0730
   71TIP3    H1  177   3.990   3.959   0.012 -0.7142 -0.8099  0.8551
   71TIP3    H2  178   4.068   3.921   0.137  1.0395  0.3270  0.1393
   72TIP3   OH2  179   4.843   5.335   2.450  0.4194 -0.1860  0.1002
   72TIP3    H1  180   4.852   5.281   2.529  1.4368  0.8665  0.7504
   72TIP3    H2  181   4.922   5.318   2.400 -0.3312 -1.0273 -0.8485
   73TIP3   OH2  182   2.201   6.280   1.913 -0.1093 -0.1684  0.3852
   73TIP3    H1  183   2.205   6.355   1.854  0.1526 -0.3851  0.1249
   73TIP3    H2  184   2.224   6.205   1.859 -1.1700 -0.5602  0.4528
   74TIP3   OH2  185   5.753   5.862   1.436  0.3660  0.3069  0.0014
   74TIP3    H1  186   5.761   5.808   1.357  0.2634 -2.8316  1.9393
   74TIP3    H2  187   5.666   5.841   1.471  2.1388 -2.4226  3.4244
   75TIP3   OH2  188   5.119   5.226   3.784  0.2055  0.1691 -0.2334
   75TIP3    H1  189   5.150   5.316   3.781 -2.8973  1.4892  1.7265
   75TIP3    H2  190   5.119   5.204   3.878  0.8863 -1.9080 -0.6672
   76TIP3   OH2  191   5.518   0.907   4.839  0.0885 -0.5160 -0.4091
   76TIP3    H1  192   5.614   0.910   4.833  0.3821 -0.5795  2.5907
   76TIP3    H2  193   5.495   0.816   4.818  0.8739 -0.9221  0.4364
   77TIP3   OH2  194   4.175   1.079   2.839  0.0320  0.3426  0.3246
   77TIP3    H1  195   4.095   1.124   2.865  1.3362  2.1968  1.3002
   77TIP3    H2  196   4.179   1.091   2.744 -0.5882  0.6504  0.3312
   78TIP3   OH2  197   2.894   6.679   1.897  0.0606  0.0369  0.0152
   78TIP3    H1  198   2.961   6.744   1.917  1.6464 -1.1625 -1.0600
   78TIP3    H2  199   2.842   6.671   1.977  2.0769  0.0370  1.4033
   79TIP3   OH2  200   2.422   6.304   2.090 -0.1258 -0.3278 -0.2292
   79TIP3    H1  201   2.345   6.312   2.034  0.4032  0.0115 -0.9185
   79TIP3    H2  202   2.445   6.211   2.086 -0.1362 -0.3187 -0.5004
   80TIP3   OH2  203   4.400   0.172   5.733 -0.6550 -0.5903  0.5852
   80TIP3    H1  204   4.421   0.223   5.654 -0.4990 -0.0956  0.9443
   80TIP3    H2  205   4.318   0.127   5.711  0.1331 -1.5925 -0.3918
   81TIP3   OH2  206   1.047   2.274   0.506  0.2980  0.1827 -0.2142
   81TIP3    H1  207   1.105   2.223   0.449  0.4127 -1.9179  1.6450
   81TIP3    H2  208   1.080   2.364   0.499  1.2050 -0.2475 -2.2813
   82TIP3   OH2  209   0.007   5.420   3.358  0.0986 -0.4933 -0.2008
   82TIP3    H1  210  -0.069   5.403   3.415 -0.2894 -0.6347 -0.7594
   82TIP3    H2  211   0.081   5.429   3.419 -0.1377 -1.6348  0.2679
   83TIP3   OH2  212   3.601   6.350   1.615 -0.0711  0.5494  0.0687
   83TIP3    H1  213   3.506   6.353   1.622 -0.0304 -0.3472  1.2997
   83TIP3    H2  214   3.623   6.257   1.620  0.9034  0.7807  0.4668
   84TIP3   OH2  215   1.826   1.154   2.955  0.2331 -0.3200  0.0805
   84TIP3    H1  216   1.894   1.108   2.907  1.0064  1.1060 -0.2465
   84TIP3    H2  217   1.744   1.113   2.927  0.9279 -2.1685  0.6018
   85TIP3   OH2  218   5.755   1.541   5.760 -0.5352 -0.3055 -0.8624
   85TIP3    H1  219   5.670   1.497   5.763 -0.7031  0.0847  0.9701
   85TIP3    H2  220   5.815   1.474   5.729 -0.8728 -1.7594  1.3759
   86TIP3   OH2  221   6.854   0.274   3.094  0.0474 -0.8090  0.0217
   86TIP3    H1  222   6.889   0.363   3.095  0.6108 -1.0305  0.1917
   86TIP3    H2  223   6.854   0.249   3.001  0.8657 -1.0116  0.0724
   87TIP3   OH2  224   2.107   2.887   4.515  0.4932  0.5041 -0.3047
   87TIP3    H1  225   2.093   2.856   4.604  1.9386 -1.7414 -0.7699
   87TIP3    H2  226   2.050   2.831   4.461  2.1233 -0.5550 -1.0385
   88TIP3   OH2  227   6.473   5.013   1.239  0.1141 -0.3863  0.1909
   88TIP3    H1  228   6.386   5.038   1.206 -1.2059 -1.4796  2.5975
   88TIP3    H2  229   6.507   4.952   1.174 -0.7801  0.2446 -0.9113
   89TIP3   OH2  230   1.332   2.763   5.331 -0.2041  0.3536  0.2023
   89TIP3    H1  231   1.426   2.767   5.316 -0.0338  3.3669  1.3121
   89TIP3    H2  232   1.321   2.796   5.420 -2.4254  3.5066 -1.0250
   90TIP3   OH2  233   5.670   2.757   2.878 -0.3348  0.0821 -0.3952
   90TIP3    H1  234   5.585   2.713   2.868 -0.5288  0.8608 -2.6164
   90TIP3    H2  235   5.733   2.695   2.842 -0.2030  0.2699 -0.4894
   91TIP3   OH2  236   5.854   0.136   4.915 -0.0292 -0.1046 -0.2031
   91TIP3    H1  237   5.920   0.182   4.966  0.0950 -0.1189 -0.3509
   91TIP3    H2  238   5.771   0.168   4.949  0.0498 -0.3419  0.2196
   92TIP3   OH2  239   7.128   2.814   1.336 -0.0454  0.0338  0.5823
   92TIP3    H1  240   7.042   2.774   1.348  0.5375 -2.0314 -1.4167
   92TIP3    H2  241   7.187   2.740   1.325  1.6017  1.4329 -0.4593
   93TIP3   OH2  242   4.634   2.156   2.421  0.7075  0.6168  0.3111
   93TIP3    H1  243   4.594   2.148   2.335 -0.0483  1.9423  0.5033
   93TIP3    H2  244   4.664   2.068   2.443 -0.9852 -0.1706 -0.3988
   94TIP3   OH2  245   0.687   2.818   3.077  0.2046  0.3723 -0.4126
   94TIP3    H1  246   0.606   2.787   3.036  0.0037 -1.2172  1.0660
   94TIP3    H2  247   0.664   2.902   3.116 -1.3467 -0.9326  1.6624
   95TIP3   OH2  248   0.950   1.139   0.553  0.4402 -0.5511  0.7896
   95TIP3    H1  249   0.916   1.206   0.493  0.9687  1.1963  2.3772
   95TIP3    H2  250   0.935   1.057   0.506  0.5836  0.6935 -1.6278
   96TIP3   OH2  251   1.385   1.979   4.909 -0.3892 -0.2703 -0.1335
   96TIP3    H1  252   1.354   2.070   4.910  0.2066 -0.0366 -1.3922
   96TIP3    H2  253   1.437   1.972   4.829  2.3288 -0.8103  1.5530
   97TIP3   OH2  254   5.051   4.077   4.685 -0.2583 -0.6029 -0.2925
   97TIP3    H1  255   5.131   4.127   4.700 -0.9102  1.3429 -2.6399
   97TIP3    H2  256   5.012   4.068   4.772  0.9073  1.2819  0.4930
   98TIP3   OH2  257   6.995   6.394   1.931  0.3787  0.6068  0.0847
   98TIP3    H1  258   6.917   6.346   1.904  1.3313  0.1464 -2.0861
   98TIP3    H2  259   7.031   6.342   2.003 -0.3379 -0.1799 -0.1019
   99TIP3   OH2  260   1.287   1.133   1.856 -0.0378 -0.0292 -0.0397
   99TIP3    H1  261   1.262   1.182   1.934  0.1196 -0.1700  0.1012
   99TIP3    H2  262   1.213   1.075   1.838  0.3002 -0.6668  0.5562
  100TIP3   OH2  263   4.230   5.799   4.289 -0.5519  0.1125  0.2993
  100TIP3    H1  264   4.224   5.866   4.221  1.1512  0.6077  0.6012
  100TIP3    H2  265   4.314   5.756   4.273 -1.6958 -2.1751 -0.0603
  101TIP3   OH2  266   1.598   4.496   4.501 -0.3725 -0.4817 -0.3181
  101TIP3    H1  267   1.661   4.443   4.551  0.6873  1.0473  0.0651
  101TIP3    H2  268   1.585   4.574   4.555 -1.3220 -0.0218 -1.1828
  102TIP3   OH2  269   4.787   0.227   1.456 -0.1674 -0.0209  0.6383
  102TIP3    H1  270   4.814   0.135   1.468  1.1411  0.3197  0.4404
  102TIP3    H2  271   4.825   0.273   1.531  0.4448  0.5979 -0.0335
  103TIP3   OH2  272   4.225   6.609   0.876  0.2025  0.3199  0.0428
  103TIP3    H1  273   4.232   6.515   0.861 -2.3986  0.3987 -2.3715
  103TIP3    H2  274   4.289   6.627   0.945  0.7848 -3.1852  0.5880
  104TIP3   OH2  275   3.731   1.396   0.877 -0.1830  0.0210 -0.5781
  104TIP3    H1  276   3.802   1.432   0.824  1.7121 -0.7740  1.3085
  104TIP3    H2  277   3.695   1.325   0.823  1.4157 -0.5042 -0.9997
  105TIP3   OH2  278   6.000   2.524   4.528  0.0280  0.0670 -0.4251
  105TIP3    H1  279   6.012   2.619   4.516 -2.8079  0.4855 -0.6935
  105TIP3    H2  280   5.923   2.503   4.476  1.1445 -2.6417 -1.1518
  106TIP3   OH2  281   3.082   1.714   3.330  0.4729  0.1654  0.0142
  106TIP3    H1  282   3.048   1.784   3.385  0.2929 -0.6077  0.9086
  106TIP3    H2  283   3.133   1.759   3.262 -1.0837  1.2689 -0.4917
  107TIP3   OH2  284   5.292   0.212   2.840  0.0550  0.5551  0.1075
  107TIP3    H1  285   5.254   0.212   2.752  1.8851  0.4919 -0.7358
  107TIP3    H2  286   5.234   0.156   2.891 -1.0675  0.6157 -1.0456
  108TIP3   OH2  287   6.362   0.399   5.234 -0.3930  0.5644 -0.2253
  108TIP3    H1  288   6.293   0.385   5.298  1.0204 -2.1415  0.8802
  108TIP3    H2  289   6.340   0.483   5.192 -2.1519  1.7448  2.7720
  109TIP3   OH2  290   4.067   1.987   0.919 -0.3226  0.5127 -0.2655
  109TIP3    H1  291   4.108   1.960   0.837 -0.7476  1.3627 -0.7747
  109TIP3    H2  292   4.085   2.081   0.924 -1.4857  0.7345 -0.0803
  110TIP3   OH2  293   0.671   3.814   2.704 -0.2251  0.8320  0.3855
  110TIP3    H1  294   0.766   3.806   2.692 -0.3207 -0.1305  0.2282
  110TIP3    H2  295   0.648   3.893   2.655  0.1287 -0.3383 -1.8174
  111TIP3   OH2  296   0.063   5.756   0.646  0.2170  0.2842  0.3743
  111TIP3    H1  297   0.021   5.794   0.569  0.4154 -1.2126 -0.5077
  111TIP3    H2  298   0.022   5.801   0.720 -0.9806  0.7728 -0.5547
  112TIP3   OH2  299   6.438   5.099   0.184  0.4245  0.2445 -0.4332
  112TIP3    H1  300   6.363   5.158   0.196  1.2871  1.1416  0.8037
  112TIP3    H2  301   6.405   5.014   0.212  0.0768  0.7923  0.9315
  113TIP3   OH2  302   1.265   4.516   4.004  0.2088  0.1106  0.1602
  113TIP3    H1  303   1.176   4.482   4.017 -0.0247 -0.0482 -1.6210
  113TIP3    H2  304   1.307   4.450   3.948  0.7487  1.2306 -0.7846
  114TIP3   OH2  305   3.832   5.998   4.741  0.2648 -0.0465 -0.0838
  114TIP3    H1  306   3.826   5.903   4.751 -1.2888  0.0238 -0.1614
  114TIP3    H2  307   3.910   6.022   4.791  0.2520 -1.2693  0.5649
  115TIP3   OH2  308   4.524   3.035   0.305 -0.3019 -0.3096  0.2863
  115TIP3    H1  309   4.605   3.001   0.345  1.5035  0.9642 -2.0204
  115TIP3    H2  310   4.516   3.123   0.341  0.1271  0.0600 -0.5112
  116TIP3   OH2  311   2.416   1.734   4.976 -0.0478  0.0159 -0.4565
  116TIP3    H1  312   2.437   1.641   4.980  1.8005  0.4196  0.1789
  116TIP3    H2  313   2.329   1.738   4.936 -0.0670 -1.9593 -0.6706
  117TIP3   OH2  314   4.370   6.266   0.372 -0.0847 -0.1634 -0.0067
  117TIP3    H1  315   4.351   6.216   0.293 -1.0302  1.2065 -0.6902
  117TIP3    H2  316   4.400   6.351   0.339  1.0709 -0.1038  1.1162
  118TIP3   OH2  317   7.202   1.987   4.284 -0.3690 -0.0753  0.0915
  118TIP3    H1  318   7.135   2.054   4.293  1.9089  2.5004 -0.9182
  118TIP3    H2  319   7.208   1.947   4.371 -0.9237  1.9250  1.1135
  119TIP3   OH2  320   5.146   4.207   2.399 -0.5073  0.5995  0.0683
  119TIP3    H1  321   5.174   4.149   2.470 -2.3458  1.6558  1.7732
  119TIP3    H2  322   5.089   4.153   2.344 -1.1162  0.4223  0.8645
  120TIP3   OH2  323   2.088   5.812   0.998 -0.1784  0.3047  0.0618
  120TIP3    H1  324   2.111   5.871   1.070 -0.3616  0.5383 -0.0728
  120TIP3    H2  325   1.994   5.796   1.010 -0.0697 -0.1963  0.2745
  121TIP3   OH2  326   2.545   6.676   3.787 -0.2496  0.1016  0.1155
  121TIP3    H1  327   2.478   6.718   3.732  0.1768 -0.5544 -0.9498
  121TIP3    H2  328   2.520   6.697   3.876  0.2876  3.1937 -0.3450
  122TIP3   OH2  329   4.465   6.555   4.546 -0.6530 -0.8253 -0.6259
  122TIP3    H1  330   4.392   6.600   4.504 -1.8534 -2.0610  0.0374
  122TIP3    H2  331   4.496   6.616   4.613 -0.7717 -0.1094 -1.2153
  123TIP3   OH2  332   0.758   2.414   1.789 -0.1337 -0.3049  0.0258
  123TIP3    H1  333   0.762   2.370   1.704  1.6677  0.5015 -0.3584
  123TIP3    H2  334   0.846   2.401   1.826 -0.4014  0.7185  1.0485
  124TIP3   OH2  335   7.026   1.090   2.824 -0.2757  0.1205 -0.3393
  124TIP3    H1  336   7.113   1.124   2.844 -0.5573  0.5138  0.2229
  124TIP3    H2  337   7.043   1.013   2.768  0.3475  1.3688 -1.9522
  125TIP3   OH2  338   5.935   4.012   4.356 -0.3479  0.0162 -0.3485
  125TIP3    H1  339   5.915   4.003   4.449 -2.8218 -0.8701 -0.8812
  125TIP3    H2  340   5.963   3.924   4.329  0.5747  0.3210 -0.4136
  126TIP3   OH2  341   3.354   2.980   5.238  0.0722 -0.0702  0.3275
  126TIP3    H1  342   3.418   2.927   5.285  2.0642 -1.0646 -3.1057
  126TIP3    H2  343   3.315   2.920   5.174 -1.8613  1.3321  0.0975
  127TIP3   OH2  344   2.459   2.759   0.156  0.2821 -0.1077 -0.2327
  127TIP3    H1  345   2.363   2.755   0.158  0.2683  0.2629  1.4654
  127TIP3    H2  346   2.482   2.823   0.223  1.7831 -1.9916  1.1866
  128TIP3   OH2  347   4.225   1.138   4.081  0.1600  0.5074  0.6203
  128TIP3    H1  348   4.183   1.157   4.165  0.3328  0.5614  0.6959
  128TIP3    H2  349   4.273   1.057   4.096  1.1841  1.1498  0.9398
  129TIP3   OH2  350   3.805   0.068   3.774 -0.1677 -0.1386  0.0596
  129TIP3    H1  351   3.880   0.024   3.813  0.7529  0.0008 -1.4601
  129TIP3    H2  352   3.742  -0.003   3.757 -0.4484 -0.2380  1.4433
  130TIP3   OH2  353   2.002   6.345   3.045  0.6808  0.2478  0.1800
  130TIP3    H1  354   2.014   6.262   2.999  0.3577  0.1080  0.3525
  130TIP3    H2  355   2.089   6.367   3.078  1.1486  0.8449 -1.3443
  131TIP3   OH2  356   2.979   4.216   2.152  0.2115 -0.4823  0.1018
  131TIP3    H1  357   2.946   4.300   2.185  1.8371  0.0133  0.5483
  131TIP3    H2  358   2.907   4.155   2.168  0.4509 -0.0534  3.6086
  132TIP3   OH2  359   5.271   3.496   3.910 -0.2203 -0.0816  1.1386
  132TIP3    H1  360   5.193   3.480   3.962  0.1174 -4.1973  0.6844
  132TIP3    H2  361   5.329   3.423   3.931  1.5286  0.2204 -2.0717
  133TIP3   OH2  362   2.068   5.349   0.847 -0.3975  0.6054  0.5906
  133TIP3    H1  363   2.128   5.423   0.845 -0.8529  0.9777 -1.2935
  133TIP3    H2  364   2.088   5.304   0.929  0.0086  2.6828  1.6988
  134TIP3   OH2  365   3.810   0.351   3.845  0.1763 -0.0707 -0.0330
  134TIP3    H1  366   3.895   0.382   3.812 -1.0380  1.4609 -1.9979
  134TIP3    H2  367   3.810   0.257   3.828  1.8802 -0.2973  1.0292
  135TIP3   OH2  368   5.191   1.905   2.614  0.3496  0.2674 -0.3279
  135TIP3    H1  369   5.164   1.996   2.619  1.6138  0.6436 -0.2149
  135TIP3    H2  370   5.185   1.873   2.704  1.1178  0.6016 -0.1529
  136TIP3   OH2  371   5.739   3.352   1.572 -0.2788  0.2702 -0.0104
  136TIP3    H1  372   5.756   3.412   1.645 -2.9535 -2.0372  2.7851
  136TIP3    H2  373   5.657   3.384   1.533 -0.9259 -0.6451  0.5526
  137TIP3   OH2  374   1.104   0.769   3.510  0.6980  0.0207  0.3275
  137TIP3    H1  375   1.108   0.743   3.418 -0.0787  1.5950 -0.1823
  137TIP3    H2  376   1.061   0.695   3.554  0.2112 -0.3450 -0.7349
  138TIP3   OH2  377   3.556   2.315   3.629  0.0095 -0.6564  0.0749
  138TIP3    H1  378   3.475   2.365   3.625  1.8587  2.9394  2.1992
  138TIP3    H2  379   3.604   2.341   3.551  0.3739 -0.2546  0.4276
  139TIP3   OH2  380   6.182   0.729   4.270  0.3759  0.0227  0.2619
  139TIP3    H1  381   6.140   0.790   4.209 -0.0361 -0.9547 -0.4491
  139TIP3    H2  382   6.273   0.759   4.274  0.0923  0.9163  0.2312
  140TIP3   OH2  383   0.564   1.943   3.298 -0.1637 -0.3396  0.2233
  140TIP3    H1  384   0.548   1.856   3.261  0.0823  0.6078 -2.2610
  140TIP3    H2  385   0.612   1.925   3.379  0.6223 -2.4813 -0.6324
  141TIP3   OH2  386   3.839   0.606   2.592 -0.3414  0.1584 -0.2910
  141TIP3    H1  387   3.891   0.633   2.516  0.4200  0.1330  0.2073
  141TIP3    H2  388   3.833   0.684   2.646 -0.3080 -0.0011 -0.0569
  142TIP3   OH2  389   5.219   0.111   5.853 -0.4140  0.1551 -0.5155
  142TIP3    H1  390   5.160   0.089   5.926  2.5970 -2.9077  1.2665
  142TIP3    H2  391   5.225   0.207   5.855 -2.7165  0.3613  1.2866
  143TIP3   OH2  392   2.883   5.395   2.821  0.2098 -0.6564  0.3367
  143TIP3    H1  393   2.852   5.439   2.741 -0.0604 -1.7183 -0.1625
  143TIP3    H2  394   2.816   5.415   2.887 -1.7970 -3.1067 -0.7789
  144TIP3   OH2  395   6.946   0.524   2.207  0.2301  0.4826 -0.8003
  144TIP3    H1  396   6.894   0.481   2.139 -1.6140  2.0948 -0.5139
  144TIP3    H2  397   6.881   0.572   2.259  1.7783  0.5722  1.1305
  145TIP3   OH2  398   4.656   2.929   4.365  0.5170 -0.4700 -0.7213
  145TIP3    H1  399   4.624   2.884   4.287  2.4049 -0.1257 -1.7427
  145TIP3    H2  400   4.604   3.009   4.370 -2.2512 -2.1619  0.5995
  146TIP3   OH2  401   0.533   6.451   1.803 -0.5834 -0.1154 -0.3244
  146TIP3    H1  402   0.564   6.375   1.853 -2.4349  0.2693  1.5414
  146TIP3    H2  403   0.591   6.522   1.830 -0.9400 -0.1383  0.5407
  147TIP3   OH2  404   1.558   1.661   1.879  0.2943 -0.0127  0.5443
  147TIP3    H1  405   1.495   1.677   1.808 -1.0219  0.3674  1.7397
  147TIP3    H2  406   1.588   1.748   1.905  1.2577 -0.1891  0.0538
  148TIP3   OH2  407   4.134   0.919   3.631  0.1395 -0.0838  0.2478
  148TIP3    H1  408   4.048   0.909   3.673  0.0869 -1.7694 -0.2086
  148TIP3    H2  409   4.186   0.968   3.695 -1.0496  0.6759  0.6691
  149TIP3   OH2  410   6.500   3.429   5.371 -0.2404  0.1697  0.3512
  149TIP3    H1  411   6.483   3.365   5.440  2.1446 -1.3095 -0.3007
  149TIP3    H2  412   6.465   3.389   5.292 -1.6132  1.1765  0.4215
  150TIP3   OH2  413   0.925   6.491   2.412 -0.1782 -0.1285 -0.1213
  150TIP3    H1  414   0.965   6.498   2.325 -0.4951 -1.9332 -0.4545
  150TIP3    H2  415   0.832   6.508   2.397 -0.5181 -2.0194 -0.4843
  151TIP3   OH2  416   0.561   4.209   4.115  0.6214  0.0315 -0.6441
  151TIP3    H1  417   0.587   4.199   4.023  1.3331  1.0040 -0.5789
  151TIP3    H2  418   0.636   4.253   4.155 -0.6080  1.7940 -0.1436
  152TIP3   OH2  419   5.642   5.459   3.267  0.5703  0.2772  0.6821
  152TIP3    H1  420   5.548   5.470   3.281  0.2771  0.8809 -1.4301
  152TIP3    H2  421   5.682   5.486   3.350 -1.1139 -0.5701  1.8399
  153TIP3   OH2  422   6.665   1.518   5.251 -0.2876 -0.3348  0.4250
  153TIP3    H1  423   6.662   1.560   5.165 -1.0089 -1.5351 -0.1591
  153TIP3    H2  424   6.754   1.482   5.256  0.0295  0.4288  0.5503
  154TIP3   OH2  425   2.505   3.051   2.951 -0.6557 -0.2952 -0.0409
  154TIP3    H1  426   2.418   3.091   2.953  0.3078  1.8555  1.2137
  154TIP3    H2  427   2.530   3.053   2.859 -1.2776  0.5632 -0.2025
  155TIP3   OH2  428   3.360   4.190   1.544 -0.6391  0.5619 -0.3539
  155TIP3    H1  429   3.332   4.099   1.549  0.7633  0.1617  1.0433
  155TIP3    H2  430   3.324   4.231   1.623  0.7347  0.5856  0.2888
  156TIP3   OH2  431   4.972   0.030   0.172  0.2131  0.3884 -0.4530
  156TIP3    H1  432   5.065   0.043   0.191  0.3291 -0.6846 -0.2146
  156TIP3    H2  433   4.971  -0.029   0.097 -0.2691  2.7565 -2.4591
  157TIP3   OH2  434   3.400   4.150   4.174 -0.0823  0.4106  0.3008
  157TIP3    H1  435   3.480   4.202   4.178 -0.2962  0.8413 -0.7094
  157TIP3    H2  436   3.422   4.069   4.220  0.5713  0.9684  1.0059
  158TIP3   OH2  437   3.576   3.758   1.489  0.1216 -0.1889  0.5252
  158TIP3    H1  438   3.606   3.849   1.494 -1.2597  0.4273 -1.2785
  158TIP3    H2  439   3.636   3.717   1.426 -0.4973  0.0410 -0.2250
  159TIP3   OH2  440   3.034   1.003  -0.003  0.2677 -0.1248 -0.5521
  159TIP3    H1  441   3.107   1.013  -0.063  0.7631  1.8475  0.3209
  159TIP3    H2  442   3.067   1.033   0.082 -0.6126 -2.1806  0.6175
  160TIP3   OH2  443   4.273   4.772   1.970  0.6993  0.5641  0.5395
  160TIP3    H1  444   4.231   4.745   2.052  0.4881  0.5704  0.4349
  160TIP3    H2  445   4.273   4.692   1.917 -0.1699  0.8266  0.1276
  161TIP3   OH2  446   5.751   3.576   0.376 -0.2032 -0.0340 -0.0812
  161TIP3    H1  447   5.669   3.621   0.355 -0.0199 -0.3323 -1.4726
  161TIP3    H2  448   5.725   3.485   0.389 -0.2214  0.0365  0.3977
  162TIP3   OH2  449   0.549   1.087   0.297 -0.1296 -0.5479 -0.5475
  162TIP3    H1  450   0.460   1.109   0.272 -0.3939  1.6683  1.9188
  162TIP3    H2  451   0.566   1.140   0.375  2.4597 -2.7764  0.5824
  163TIP3   OH2  452   7.067   4.080   5.710  0.1929  0.1003 -0.2592
  163TIP3    H1  453   7.118   4.160   5.724  0.7899  0.2720 -2.8650
  163TIP3    H2  454   7.105   4.017   5.771  0.8087  1.3446  0.6946
  164TIP3   OH2  455   3.583   6.224   2.184 -0.1847  0.0766  0.0619
  164TIP3    H1  456   3.494   6.238   2.216  0.3937  0.4679  1.6071
  164TIP3    H2  457   3.631   6.304   2.210  1.0373 -0.8967  0.9203
  165TIP3   OH2  458   3.365   2.004   4.961 -0.6878 -0.2365 -0.0844
  165TIP3    H1  459   3.422   2.058   4.906 -2.4810 -0.2783 -2.1181
  165TIP3    H2  460   3.408   2.004   5.047  1.5119  1.0002 -1.0848
  166TIP3   OH2  461   5.188   4.926   3.068  0.4513  0.0778  0.2402
  166TIP3    H1  462   5.126   4.855   3.052  0.1921  0.8815 -2.7698
  166TIP3    H2  463   5.149   4.976   3.139 -0.4937 -1.4552  0.8679
  167TIP3   OH2  464   1.093   1.399   1.376  0.0424  0.0215 -0.0847
  167TIP3    H1  465   1.012   1.441   1.405 -0.5858 -1.7300  0.8668
  167TIP3    H2  466   1.081   1.384   1.283 -0.5211  0.2372 -0.0492
  168TIP3   OH2  467   2.017   4.551   0.583  0.2500  0.1890 -0.2902
  168TIP3    H1  468   1.969   4.528   0.663  0.2434  0.0454 -0.3369
  168TIP3    H2  469   1.957   4.609   0.536  0.9273  1.7151  0.6352
  169TIP3   OH2  470   4.930   1.357   3.932 -0.2781 -0.1917  0.3591
  169TIP3    H1  471   4.853   1.300   3.924 -0.3431 -0.0960  0.3140
  169TIP3    H2  472   4.899   1.444   3.906 -0.8106  0.3960  2.7584
  170TIP3   OH2  473   6.468   1.830   2.535 -0.1084  0.4322  0.4251
  170TIP3    H1  474   6.497   1.916   2.507 -1.3721  1.0722  0.9985
  170TIP3    H2  475   6.544   1.792   2.579  0.9514  0.5992 -1.1891
  171TIP3   OH2  476   0.223   1.697   3.438 -0.1767 -0.6968  0.9188
  171TIP3    H1  477   0.305   1.648   3.447 -0.2879 -1.0639 -0.0119
  171TIP3    H2  478   0.219   1.720   3.345 -0.0975  1.1370  1.3312
  172TIP3   OH2  479   4.760   5.222   1.819 -0.3855  0.1859 -0.1816
  172TIP3    H1  480   4.716   5.141   1.843 -1.2292  0.7659  0.2937
  172TIP3    H2  481   4.836   5.226   1.877 -0.1726 -0.4015 -0.4126
  173TIP3   OH2  482   5.489   4.556   1.890  0.3411  0.1941  0.2726
  173TIP3    H1  483   5.556   4.622   1.873  0.3091  0.2437  0.3400
  173TIP3    H2  484   5.434   4.556   1.812  0.8649 -0.3808 -0.1098
  174TIP3   OH2  485   0.033   3.881   0.274 -0.0591  0.6443 -0.1837
  174TIP3    H1  486  -0.060   3.902   0.270 -0.0850  0.4869 -0.4292
  174TIP3    H2  487   0.039   3.815   0.344  0.2718  2.7365  1.8980
  175TIP3   OH2  488   6.461   0.823   1.320  0.2222 -0.6078 -0.1622
  175TIP3    H1  489   6.373   0.843   1.354  0.3995 -1.8831  1.1329
  175TIP3    H2  490   6.509   0.906   1.327 -0.4723 -0.2406  0.4265
  176TIP3   OH2  491   6.954   4.309   3.474 -0.0794  0.4044  0.7568
  176TIP3    H1  492   6.901   4.268   3.406 -0.7517  0.1655  1.4030
  176TIP3    H2  493   6.969   4.398   3.443  1.1949 -0.2238 -0.5502
  177TIP3   OH2  494   4.180   3.578   4.752  0.4336  0.1008 -0.0207
  177TIP3    H1  495   4.179   3.656   4.696  0.8325 -1.5623 -2.4616
  177TIP3    H2  496   4.268   3.577   4.790  0.1201  1.3101  0.8070
  178TIP3   OH2  497   3.867   0.480   2.931  0.0222 -0.6592  0.8262
  178TIP3    H1  498   3.781   0.465   2.891  0.8568 -0.5784 -1.1322
  178TIP3    H2  499   3.928   0.439   2.870  1.5509  1.5189  0.7974
  179TIP3   OH2  500   5.394   1.552   2.168  0.7097 -0.2267  0.2725
  179TIP3    H1  501   5.364   1.535   2.257 -1.8589  0.1230 -0.4516
  179TIP3    H2  502   5.447   1.631   2.175  1.8089 -1.0459  1.6859
  180TIP3   OH2  503   5.497   2.739   5.263 -0.2559 -0.3446  0.0212
  180TIP3    H1  504   5.572   2.798   5.271  0.2772 -0.9936 -0.0699
  180TIP3    H2  505   5.527   2.657   5.302 -0.8382 -0.6859 -0.2348
  181TIP3   OH2  506   3.784   6.826   5.095 -0.1728  0.2066 -0.1441
  181TIP3    H1  507   3.739   6.766   5.035  0.6677  0.1599 -0.7350
  181TIP3    H2  508   3.869   6.785   5.111  0.2193  0.9980 -0.1637
  182TIP3   OH2  509   3.468   5.193   3.241 -0.2731  0.1582  0.1585
  182TIP3    H1  510   3.508   5.136   3.176 -0.5947 -2.0844  1.8194
  182TIP3    H2  511   3.542   5.222   3.295 -0.2251  0.6058 -0.1410
  183TIP3   OH2  512   5.945   2.212   5.797 -0.6429 -0.1625  0.5142
  183TIP3    H1  513   5.995   2.143   5.840  0.5029  0.3047 -0.0170
  183TIP3    H2  514   6.007   2.285   5.788 -0.8082 -0.2318 -1.8722
  184TIP3   OH2  515   2.845   6.392   2.347 -0.4185  0.3188 -0.1870
  184TIP3    H1  516   2.836   6.330   2.275 -1.4335 -0.2639  0.4099
  184TIP3    H2  517   2.940   6.401   2.359 -0.2455 -0.1252 -1.1132
  185TIP3   OH2  518   6.351   2.642   2.395 -0.3474  0.3649 -0.3731
  185TIP3    H1  519   6.341   2.549   2.417 -2.3935  0.8300  0.8743
  185TIP3    H2  520   6.422   2.643   2.330  0.0940 -1.9944 -0.0270
  186TIP3   OH2  521   1.458   3.056   0.931  0.7337  0.0759  0.4766
  186TIP3    H1  522   1.375   3.048   0.977  0.9238 -1.5246  0.5942
  186TIP3    H2  523   1.434   3.074   0.840  0.3283  1.6688  0.8723
  187TIP3   OH2  524   1.629   5.443   3.482  0.0554  0.2179  0.3804
  187TIP3    H1  525   1.723   5.464   3.476  0.4476 -1.1292  1.3006
  187TIP3    H2  526   1.612   5.386   3.407 -0.3607  1.4974 -0.5321
  188TIP3   OH2  527   3.447   1.170   4.630 -0.1267 -0.7930 -0.3844
  188TIP3    H1  528   3.456   1.265   4.639 -0.2083 -0.8320  0.2000
  188TIP3    H2  529   3.406   1.157   4.545 -0.0093 -0.3109 -0.5183
  189TIP3   OH2  530   0.125   3.311   3.181 -0.0231 -0.5108  0.5540
  189TIP3    H1  531   0.206   3.346   3.217 -0.2557  0.5289  0.1224
  189TIP3    H2  532   0.129   3.331   3.088 -0.7165 -0.5554  0.5063
  190TIP3   OH2  533   0.272   1.378   5.560 -0.5174 -0.0384 -0.0322
  190TIP3    H1  534   0.251   1.337   5.644 -0.3681  0.5818  0.3238
  190TIP3    H2  535   0.244   1.316   5.494  0.6728 -1.1760  0.4942
  191TIP3   OH2  536   3.648   1.970   1.819 -0.5160  0.4768  0.3600
  191TIP3    H1  537   3.692   1.917   1.885  1.4767  0.4907 -0.8399
  191TIP3    H2  538   3.612   1.907   1.757  1.6962  0.3781 -0.9682
  192TIP3   OH2  539   2.919   0.832   0.552  0.0993 -0.5594 -0.3459
  192TIP3    H1  540   2.860   0.848   0.477  0.4422 -0.2250 -0.5471
  192TIP3    H2  541   2.864   0.787   0.616 -0.5091  0.1342 -0.3558
  193TIP3   OH2  542   6.370   1.368   5.894 -0.3700 -0.3563  0.3506
  193TIP3    H1  543   6.461   1.355   5.920  0.1346  1.6783 -0.1720
  193TIP3    H2  544   6.371   1.353   5.799 -0.7164 -0.8911  0.4275
  194TIP3   OH2  545   6.398   0.843   1.712 -0.3251  0.2969 -0.1951
  194TIP3    H1  546   6.342   0.813   1.641 -1.3880 -2.4424  1.6051
  194TIP3    H2  547   6.480   0.794   1.700 -0.7321 -0.6563  0.7391
  195TIP3   OH2  548   4.394   2.604   1.834  0.3597  0.6849 -0.1889
  195TIP3    H1  549   4.464   2.547   1.865  0.2638 -0.0612 -1.2845
  195TIP3    H2  550   4.364   2.563   1.752 -0.8897  1.3548 -0.0959
  196TIP3   OH2  551   1.775   2.810   3.069 -0.2463  0.0066 -0.2347
  196TIP3    H1  552   1.807   2.720   3.075  3.5986  1.0761 -1.5135
  196TIP3    H2  553   1.763   2.837   3.160 -0.1616 -1.3622  0.2139
  197TIP3   OH2  554   4.171   6.064   3.318  0.4037  0.5327 -0.6900
  197TIP3    H1  555   4.235   6.109   3.373 -1.0762  2.4551 -0.4007
  197TIP3    H2  556   4.207   6.071   3.229  1.9005 -0.9411 -0.2585
  198TIP3   OH2  557   1.308   3.770   3.719 -0.9992 -0.3295 -0.0942
  198TIP3    H1  558   1.306   3.829   3.794 -2.2004  0.5548 -0.7885
  198TIP3    H2  559   1.365   3.814   3.656  0.3410 -1.2653  0.4160
  199TIP3   OH2  560   7.064   5.145   3.113  0.4372 -0.5499  0.2161
  199TIP3    H1  561   6.999   5.084   3.079  0.0250  0.0531 -0.1070
  199TIP3    H2  562   7.017   5.197   3.178  0.6050 -0.1496  0.0250
  200TIP3   OH2  563   4.901   4.817   1.083  0.1302 -0.1546 -0.0228
  200TIP3    H1  564   4.830   4.753   1.074  1.1204 -1.2549 -0.1482
  200TIP3    H2  565   4.898   4.844   1.175 -0.8289  0.2747 -0.1673
  201TIP3   OH2  566   3.892   3.827   2.621  0.2201  0.2649 -0.3093
  201TIP3    H1  567   3.927   3.899   2.567  0.2811 -0.7915 -1.7448
  201TIP3    H2  568   3.800   3.823   2.597  0.2550 -0.2379 -0.3546
  202TIP3   OH2  569   6.059   0.516   5.659 -0.0706  0.4855 -0.0293
  202TIP3    H1  570   6.090   0.607   5.649 -0.5017  0.7571  1.0095
  202TIP3    H2  571   5.964   0.523   5.657 -0.1191 -0.1451 -1.4264
  203TIP3   OH2  572   4.712   1.243   5.606  0.3353 -0.4001 -0.4448
  203TIP3    H1  573   4.741   1.301   5.677 -0.5297  0.3969 -0.7297
  203TIP3    H2  574   4.775   1.258   5.535  1.2772 -1.2877  0.1555
  204TIP3   OH2  575   0.191   5.938   3.848  0.2657  0.5772 -0.2748
  204TIP3    H1  576   0.160   5.900   3.931  1.6328  0.8604  0.3992
  204TIP3    H2  577   0.235   5.865   3.804 -0.0258  0.5493 -0.5164
  205TIP3   OH2  578   5.289   6.534   5.753 -0.1488 -0.2687  0.4573
  205TIP3    H1  579   5.278   6.629   5.756 -0.8156 -0.3754  2.0611
  205TIP3    H2  580   5.357   6.516   5.817  0.3022 -0.8488 -0.1722
  206TIP3   OH2  581   1.838   5.751   1.057  0.8171  0.0392  0.0068
  206TIP3    H1  582   1.839   5.705   1.141  0.3055 -0.0419 -0.0280
  206TIP3    H2  583   1.793   5.692   0.997  0.8261  0.2645 -0.2260
  207TIP3   OH2  584   0.375   3.044   2.137  0.7777 -0.0507  0.3338
  207TIP3    H1  585   0.413   2.958   2.151  2.5346  0.8592  1.5785
  207TIP3    H2  586   0.450   3.101   2.118 -0.2010  1.4020  0.6224
  208TIP3   OH2  587   1.324   3.692   2.768 -0.9099 -0.4580 -0.4381
  208TIP3    H1  588   1.396   3.662   2.824  0.2185  1.2105 -0.9340
  208TIP3    H2  589   1.331   3.637   2.689  0.6584  0.5081 -1.0248
  209TIP3   OH2  590   1.086   3.306   3.616 -0.0964 -0.0147 -0.3210
  209TIP3    H1  591   1.017   3.303   3.682  0.1044  2.8943  0.1235
  209TIP3    H2  592   1.064   3.234   3.556 -2.6246 -0.1369  0.6231
  210TIP3   OH2  593   0.266   5.027   2.395  0.2414 -0.1263 -0.3803
  210TIP3    H1  594   0.182   5.058   2.428 -0.3065 -2.7804  1.0411
  210TIP3    H2  595   0.243   4.951   2.340  1.5285  1.1176 -2.8089
  211TIP3   OH2  596   5.957   2.257   3.364  0.2090  0.0587  0.4590
  211TIP3    H1  597   5.884   2.281   3.421  1.6962 -0.0132  2.5021
  211TIP3    H2  598   5.968   2.333   3.307  0.3272  1.2778  2.0456
  212TIP3   OH2  599   3.433   6.435   4.927  0.0400  0.4608  0.0855
  212TIP3    H1  600   3.420   6.346   4.894 -0.5658  0.0365  1.3711
  212TIP3    H2  601   3.477   6.481   4.856  1.1804 -1.1141 -0.3062
  213TIP3   OH2  602   1.307   0.405   3.050  0.5469  0.2004  0.6467
  213TIP3    H1  603   1.259   0.322   3.053  1.0757 -0.1640 -0.3192
  213TIP3    H2  604   1.374   0.397   3.117 -0.8197  0.7883  2.1411
  214TIP3   OH2  605   5.836   5.636   0.894  0.2241  0.3466  0.2934
  214TIP3    H1  606   5.825   5.709   0.834  0.4931  0.4967  0.4232
  214TIP3    H2  607   5.765   5.647   0.958  0.0604  0.3014  0.1204
  215TIP3   OH2  608   0.887   1.052   4.199  0.2438 -0.5985  0.2227
  215TIP3    H1  609   0.971   1.098   4.209 -0.5277  0.8755  0.2550
  215TIP3    H2  610   0.910   0.968   4.160  1.7295 -0.1790  0.1332
  216TIP3   OH2  611   5.671   0.038   1.097  0.3004  0.5008  0.3056
  216TIP3    H1  612   5.681  -0.055   1.079  0.1592  0.6912 -0.8984
  216TIP3    H2  613   5.761   0.072   1.097  0.4561  0.1497  2.1579
  217TIP3   OH2  614   6.449   0.905   0.350  0.1912  0.2772  0.3187
  217TIP3    H1  615   6.504   0.902   0.427  1.1766 -1.3786 -0.3906
  217TIP3    H2  616   6.389   0.831   0.361 -0.8447  1.0996  0.3222
  218TIP3   OH2  617   3.938   6.677   4.349 -0.1560 -0.4065  0.0553
  218TIP3    H1  618   3.945   6.718   4.263 -0.1611 -0.0645  0.2192
  218TIP3    H2  619   4.003   6.606   4.346 -0.3584 -0.5813 -0.3326
  219TIP3   OH2  620   2.397   2.249   0.765  0.7520  0.4525  1.3509
  219TIP3    H1  621   2.447   2.330   0.779  2.3160 -0.4194  0.9626
  219TIP3    H2  622   2.388   2.243   0.670 -0.0312  0.5440  1.4125
  220TIP3   OH2  623   5.900   5.953   3.222  0.2920 -0.5733  0.4288
  220TIP3    H1  624   5.973   5.927   3.277  2.1633  2.4483 -0.4141
  220TIP3    H2  625   5.883   5.877   3.166  3.4360 -1.0769  0.0198
  221TIP3   OH2  626   6.550   4.663   3.658 -0.5149  0.3342 -0.9114
  221TIP3    H1  627   6.626   4.674   3.715 -1.7911 -1.4801  1.3557
  221TIP3    H2  628   6.517   4.751   3.644 -1.6633  0.8514  3.5373
  222TIP3   OH2  629   4.955   2.015   0.123 -0.0935  0.6692  0.3308
  222TIP3    H1  630   4.874   2.032   0.171 -0.1825 -1.3318  0.9775
  222TIP3    H2  631   4.935   1.940   0.067  1.4126 -0.2179  0.8959
  223TIP3   OH2  632   5.314   4.578   5.554 -0.2952  0.6638  0.3187
  223TIP3    H1  633   5.322   4.527   5.474 -0.1143 -2.4348  2.1449
  223TIP3    H2  634   5.377   4.650   5.543  0.2203 -0.0409 -1.9874
  224TIP3   OH2  635   5.475   4.287   1.587 -0.3364 -0.3409 -0.2161
  224TIP3    H1  636   5.538   4.238   1.640 -2.2505 -2.3253  0.3761
  224TIP3    H2  637   5.495   4.379   1.605  2.5711 -0.8444 -0.3632
  225TIP3   OH2  638   6.183   4.448   0.888 -0.4788 -0.1813  0.0624
  225TIP3    H1  639   6.269   4.417   0.915 -0.6123  0.6302  1.5327
  225TIP3    H2  640   6.122   4.399   0.943 -0.7819  1.2378  1.0381
  226TIP3   OH2  641   4.764   6.697   2.246 -0.1396 -0.2846 -0.1679
  226TIP3    H1  642   4.810   6.653   2.317  0.8269 -0.2871 -0.7782
  226TIP3    H2  643   4.737   6.627   2.187  0.8407 -0.1368 -0.8161
  227TIP3   OH2  644   2.535   3.399   4.505  0.1199 -0.0979 -0.5464
  227TIP3    H1  645   2.467   3.466   4.512  0.7728  0.6292 -1.0254
  227TIP3    H2  646   2.564   3.385   4.596 -1.5306 -1.3565 -0.1687
  228TIP3   OH2  647   6.036   2.522   4.016  0.2397  0.1639  0.5296
  228TIP3    H1  648   6.094   2.492   3.946 -0.4604  0.0256  0.0015
  228TIP3    H2  649   6.033   2.449   4.078 -1.4019 -0.8661 -0.7171
  229TIP3   OH2  650   0.845   3.968   4.860  0.4396  0.2542  0.0631
  229TIP3    H1  651   0.918   4.018   4.823 -0.4835  1.7176  0.1049
  229TIP3    H2  652   0.885   3.889   4.895  1.9248  0.7733 -0.3757
  230TIP3   OH2  653   6.258   5.823   4.574  0.5371 -0.1949 -0.6083
  230TIP3    H1  654   6.282   5.739   4.613 -0.8269 -0.4910 -0.3414
  230TIP3    H2  655   6.341   5.863   4.550  1.2783 -1.0980  0.3456
  231TIP3   OH2  656   2.741   6.601   2.090 -0.0781  0.1041  0.2205
  231TIP3    H1  657   2.661   6.578   2.138 -0.9743  2.6422  0.1333
  231TIP3    H2  658   2.792   6.654   2.152  0.5421  0.2528 -0.4003
  232TIP3   OH2  659   2.942   5.853   3.610  0.4519 -0.3981 -0.1534
  232TIP3    H1  660   3.036   5.834   3.609  0.3138 -1.0905 -0.4788
  232TIP3    H2  661   2.936   5.940   3.649  1.2691 -0.1463 -0.5526
  233TIP3   OH2  662   2.272   5.786   2.508 -0.1359  0.3527 -0.1138
  233TIP3    H1  663   2.201   5.827   2.458  2.5392  0.5216 -4.2644
  233TIP3    H2  664   2.290   5.704   2.461  1.8251 -0.1414  1.3613
  234TIP3   OH2  665   4.208   2.794   1.916 -0.7038  0.0821  0.1436
  234TIP3    H1  666   4.184   2.796   1.824  1.2549  0.6184 -0.4166
  234TIP3    H2  667   4.272   2.723   1.923 -1.2233 -0.3066  1.2095
  235TIP3   OH2  668   2.827   3.002   3.477 -0.1021  0.6191  0.6003
  235TIP3    H1  669   2.898   2.967   3.530  1.3765  0.4000 -1.3980
  235TIP3    H2  670   2.791   2.926   3.431  0.9672  1.1912 -1.2947
  236TIP3   OH2  671   2.034   3.299   1.135 -0.3384 -0.7374 -0.0653
  236TIP3    H1  672   2.056   3.208   1.115 -0.5973 -0.6183 -0.9578
  236TIP3    H2  673   2.099   3.351   1.087 -0.4662 -0.4477  0.0720
  237TIP3   OH2  674   6.099   5.018   3.037  0.1672 -0.2176  0.3320
  237TIP3    H1  675   6.053   4.946   2.994 -1.3561  0.5575  0.6109
  237TIP3    H2  676   6.109   5.084   2.969  1.4757 -0.6111  0.1042
  238TIP3   OH2  677   3.699   1.546   2.643  0.3413 -0.2002  0.2339
  238TIP3    H1  678   3.789   1.515   2.628 -0.1692 -0.9036 -1.6077
  238TIP3    H2  679   3.644   1.474   2.615 -0.8317  0.3473  1.0640
  239TIP3   OH2  680   6.310   2.035   3.221  0.2147  0.3481 -0.5489
  239TIP3    H1  681   6.336   2.112   3.171 -0.6438 -0.3807 -2.2039
  239TIP3    H2  682   6.362   1.964   3.185 -0.1416 -0.1335 -0.1261
  240TIP3   OH2  683   5.324   0.387   0.090 -0.3597 -0.4586 -0.3689
  240TIP3    H1  684   5.309   0.328   0.016 -1.0285  1.5558 -1.9208
  240TIP3    H2  685   5.419   0.389   0.101 -0.2864 -1.1752 -0.8023
  241TIP3   OH2  686   2.113   3.001   1.045  0.8386  0.3875  0.2084
  241TIP3    H1  687   2.082   2.912   1.064  1.0317  0.4459  0.8103
  241TIP3    H2  688   2.079   3.019   0.957 -0.3400  0.2375  0.6114
  242TIP3   OH2  689   6.125   1.875   1.621  0.2396 -0.4569 -0.6540
  242TIP3    H1  690   6.047   1.848   1.573 -0.0933  0.9344 -0.9474
  242TIP3    H2  691   6.134   1.969   1.601 -0.1097  0.2772  2.2680
  243TIP3   OH2  692   3.722   6.491   0.109  0.5353 -0.5465 -0.3445
  243TIP3    H1  693   3.639   6.463   0.147  0.4623 -0.6742 -0.5899
  243TIP3    H2  694   3.788   6.471   0.175  0.3041  0.0653  0.0738
  244TIP3   OH2  695   3.069   1.870   2.923 -0.5987  0.2353 -0.1159
  244TIP3    H1  696   3.085   1.931   2.995 -0.3270  0.1584 -0.1083
  244TIP3    H2  697   3.026   1.923   2.856  1.6441  1.0305 -1.0372
  245TIP3   OH2  698   5.266   3.618   2.093 -0.3109  0.0591  0.3300
  245TIP3    H1  699   5.219   3.535   2.086 -0.0806  0.0382 -3.7324
  245TIP3    H2  700   5.224   3.663   2.166 -1.6059 -2.8872  1.5793
  246TIP3   OH2  701   2.054   0.944   3.752 -0.3033  0.0282 -0.0709
  246TIP3    H1  702   1.990   1.015   3.749 -0.9938 -0.5873 -0.2949
  246TIP3    H2  703   2.013   0.878   3.807  0.4856 -0.0530  0.4206
  247TIP3   OH2  704   4.183   2.910   5.494  0.3599  0.1380  1.0065
  247TIP3    H1  705   4.209   2.868   5.412 -2.0890 -0.7302  0.5908
  247TIP3    H2  706   4.110   2.967   5.470 -1.9009 -1.7614  2.7918
  248TIP3   OH2  707   6.903   3.132   0.247  0.2235  0.0916 -0.9247
  248TIP3    H1  708   6.996   3.133   0.269 -0.2682 -0.0433  1.5143
  248TIP3    H2  709   6.874   3.044   0.271 -0.3713 -0.1718 -2.5404
  249TIP3   OH2  710   3.704   4.768   5.430 -0.6038 -0.1037 -0.3013
  249TIP3    H1  711   3.703   4.682   5.472  0.9758  0.8766  1.9881
  249TIP3    H2  712   3.723   4.829   5.502  2.9362  1.6571 -2.4291
  250TIP3   OH2  713   3.324   5.533   4.524 -0.0610  1.0581  0.2668
  250TIP3    H1  714   3.315   5.610   4.468  0.3707 -0.4981 -2.1017
  250TIP3    H2  715   3.241   5.485   4.512  0.7005 -0.1391 -0.4818
  251TIP3   OH2  716   5.094   5.105   5.786  0.0647  1.1345  0.2002
  251TIP3    H1  717   5.106   5.042   5.714  1.3909  0.8358  0.6607
  251TIP3    H2  718   5.053   5.181   5.744 -2.1086 -0.1824 -0.2691
  252TIP3   OH2  719   2.928   2.544   2.409  0.2668 -0.0908  0.4452
  252TIP3    H1  720   2.890   2.630   2.421  0.4722  0.2943 -1.3703
  252TIP3    H2  721   2.950   2.540   2.316 -0.6595 -2.4832  0.2581
  253TIP3   OH2  722   2.717   3.343   2.110  0.1736  0.1083 -0.0366
  253TIP3    H1  723   2.751   3.397   2.038  0.5298 -0.7029 -0.4939
  253TIP3    H2  724   2.670   3.272   2.066 -1.4255  0.7413  0.5752
  254TIP3   OH2  725   0.484   1.683   2.460 -0.3565  0.6579  0.4221
  254TIP3    H1  726   0.439   1.697   2.544 -0.3626 -1.8769  0.9216
  254TIP3    H2  727   0.417   1.700   2.394 -1.4597 -0.8998  1.0866
  255TIP3   OH2  728   3.495   1.816   0.743 -0.1241  0.0685  0.0176
  255TIP3    H1  729   3.494   1.722   0.727 -0.5161 -0.1225  1.1170
  255TIP3    H2  730   3.440   1.853   0.674 -1.9468 -0.7548  0.9794
  256TIP3   OH2  731   5.736   2.640   1.664  0.1359 -0.0589 -0.2270
  256TIP3    H1  732   5.814   2.669   1.616  0.6742 -0.3013  0.4988
  256TIP3    H2  733   5.702   2.566   1.613  0.2222  0.2152 -0.6876
  257TIP3   OH2  734   5.638   3.463   5.197 -0.0441  0.0086  0.1367
  257TIP3    H1  735   5.662   3.496   5.283 -1.0376  1.8478 -0.2314
  257TIP3    H2  736   5.542   3.458   5.199  0.0078 -2.0253 -0.1727
  258TIP3   OH2  737   6.330   0.002   3.343 -0.1490  0.4315 -0.4829
  258TIP3    H1  738   6.405  -0.044   3.381 -0.6323 -0.3461 -0.4562
  258TIP3    H2  739   6.364   0.088   3.320  0.4713  0.5016  0.5976
  259TIP3   OH2  740   6.092   3.148   0.301 -0.0180  0.5937  0.1400
  259TIP3    H1  741   6.149   3.160   0.378  1.6894  0.0233 -0.9741
  259TIP3    H2  742   6.090   3.234   0.259 -0.9260  0.8978  0.7728
  260TIP3   OH2  743   6.645   1.122   0.733  0.3630  0.3042 -0.1849
  260TIP3    H1  744   6.628   1.184   0.662 -2.0757 -0.0174  0.0133
  260TIP3    H2  745   6.714   1.163   0.785 -0.2812  2.2626 -0.7691
  261TIP3   OH2  746   4.705   5.832   0.529 -0.0661  0.5465  0.0904
  261TIP3    H1  747   4.651   5.909   0.550 -1.9179 -0.0748 -2.0155
  261TIP3    H2  748   4.708   5.782   0.610 -2.1657  0.9222  0.4496
  262TIP3   OH2  749   3.816   4.583   4.500  0.1115 -0.6967  0.0888
  262TIP3    H1  750   3.773   4.667   4.485  0.6358 -0.7365 -1.8160
  262TIP3    H2  751   3.909   4.603   4.505  0.0714 -0.8031  2.7890
  263TIP3   OH2  752   4.585   4.241   2.956 -0.2229  0.0804 -0.1222
  263TIP3    H1  753   4.604   4.331   2.982  1.6715 -0.1381 -0.6308
  263TIP3    H2  754   4.559   4.247   2.864  2.1507 -0.0517 -0.8808
  264TIP3   OH2  755   1.425   3.770   5.174 -0.2297  0.5977  0.3196
  264TIP3    H1  756   1.487   3.715   5.221  0.4158  1.1397  0.1030
  264TIP3    H2  757   1.477   3.842   5.139 -0.7796  0.4609 -0.8298
  265TIP3   OH2  758   3.973   2.277   2.211 -0.1178 -0.1797 -0.2931
  265TIP3    H1  759   3.969   2.369   2.236 -1.2826 -0.6102  1.3089
  265TIP3    H2  760   4.066   2.257   2.208  0.1306  0.8719  0.0646
  266TIP3   OH2  761   0.693   1.577   2.745  0.0368  0.1112 -0.1298
  266TIP3    H1  762   0.728   1.557   2.832 -2.7852  0.6059  1.2315
  266TIP3    H2  763   0.717   1.669   2.730 -1.4619  0.7697  1.2493
  267TIP3   OH2  764   0.117   5.718   1.448 -0.3519 -0.3607  0.0825
  267TIP3    H1  765   0.072   5.742   1.366 -0.4839 -1.6544 -0.2495
  267TIP3    H2  766   0.201   5.684   1.420 -0.0193  0.0469  0.5651
  268TIP3   OH2  767   6.595   6.328   1.293  0.2443 -0.3946  0.1496
  268TIP3    H1  768   6.681   6.305   1.257 -0.2403  0.1608 -1.4345
  268TIP3    H2  769   6.573   6.411   1.250 -0.8462 -0.2457  0.9654
  269TIP3   OH2  770   6.643   6.332   3.723  0.1876 -0.8703 -0.2223
  269TIP3    H1  771   6.677   6.376   3.645 -0.4939 -1.0678 -0.6376
  269TIP3    H2  772   6.715   6.338   3.787  0.8162 -0.8576 -0.9123
  270TIP3   OH2  773   3.254   3.811   2.268  0.3523  0.0324 -0.1096
  270TIP3    H1  774   3.185   3.784   2.207 -0.1231  1.3313 -0.1786
  270TIP3    H2  775   3.211   3.816   2.353  0.3988  0.6072 -0.1108
  271TIP3   OH2  776   2.420   3.452   1.360 -0.5155  0.1351  0.3943
  271TIP3    H1  777   2.459   3.365   1.351  0.0624  0.3355  0.9366
  271TIP3    H2  778   2.339   3.436   1.409 -0.3000 -0.0689  0.6866
  272TIP3   OH2  779   1.486   5.122   4.943 -0.0466 -0.3807 -0.6802
  272TIP3    H1  780   1.466   5.042   4.893  3.0866  0.2042 -3.2366
  272TIP3    H2  781   1.537   5.091   5.018 -0.3447 -0.9227 -0.6966
  273TIP3   OH2  782   4.755   0.059   3.715  0.2505  0.3757 -0.1702
  273TIP3    H1  783   4.667   0.089   3.738  0.3001  0.6197 -0.2925
  273TIP3    H2  784   4.810   0.137   3.722  0.4208  0.2667 -0.2836
  274TIP3   OH2  785   4.804   4.566   4.806  0.0292  0.0440 -0.2809
  274TIP3    H1  786   4.737   4.510   4.768  0.5324 -0.3713 -0.5687
  274TIP3    H2  787   4.755   4.637   4.848 -0.7228 -1.6057  1.7974
  275TIP3   OH2  788   2.591   5.286   2.599 -0.3037 -0.4239  0.2624
  275TIP3    H1  789   2.651   5.250   2.664  0.3256  0.8259  0.3973
  275TIP3    H2  790   2.504   5.270   2.636  0.0507  0.4567  1.5260
  276TIP3   OH2  791   5.682   6.673   2.200  1.0126  0.0990 -0.0945
  276TIP3    H1  792   5.749   6.667   2.268  1.8869  1.1758 -0.8347
  276TIP3    H2  793   5.722   6.636   2.122 -0.2098 -1.7322  0.0809
  277TIP3   OH2  794   3.821   1.674   5.226  0.0987 -0.3197  0.5681
  277TIP3    H1  795   3.858   1.647   5.309  0.4386  1.7602  1.1654
  277TIP3    H2  796   3.732   1.702   5.246 -0.4115 -1.3957 -0.1028
  278TIP3   OH2  797   0.634   4.348   1.187 -0.1942 -0.1649  0.2733
  278TIP3    H1  798   0.666   4.421   1.134  0.1467 -0.1660  0.4734
  278TIP3    H2  799   0.595   4.389   1.265 -0.7021 -0.1624  0.0237
  279TIP3   OH2  800   3.074   0.617   1.600 -0.2821 -0.4320 -0.5485
  279TIP3    H1  801   3.036   0.552   1.660 -1.4142 -1.3237 -2.1644
  279TIP3    H2  802   3.009   0.686   1.594  0.4645  0.3833  0.3347
  280TIP3   OH2  803   4.112   1.989   2.530 -0.2156 -0.3800 -0.2123
  280TIP3    H1  804   4.107   1.964   2.438 -0.7348 -1.1344  0.0018
  280TIP3    H2  805   4.036   2.046   2.544  0.2939  0.3545 -0.4252
  281TIP3   OH2  806   3.417   1.304   2.560 -0.1621 -0.1447  0.2331
  281TIP3    H1  807   3.420   1.319   2.655  1.2977  0.4171  0.1350
  281TIP3    H2  808   3.339   1.251   2.546  0.5247 -1.7126  1.9637
  282TIP3   OH2  809   0.251   6.178   5.767 -0.6276  0.2022  0.0978
  282TIP3    H1  810   0.333   6.128   5.768 -1.4368 -1.1627  0.7872
  282TIP3    H2  811   0.240   6.207   5.858 -2.1107 -1.7327  0.6010
  283TIP3   OH2  812   6.674   2.374   4.048 -0.0365 -0.0594 -0.4198
  283TIP3    H1  813   6.611   2.444   4.061  1.5032  1.2777  0.2472
  283TIP3    H2  814   6.752   2.403   4.095  0.9221 -1.8559 -0.8112
  284TIP3   OH2  815   4.461   0.066   1.947 -0.1382  0.4817  0.6303
  284TIP3    H1  816   4.503   0.028   1.871  1.8680  0.3669  1.7068
  284TIP3    H2  817   4.465   0.161   1.932 -2.3915  0.4376 -0.6651
  285TIP3   OH2  818   6.779   6.765   5.802  0.0239  1.2279 -0.2336
  285TIP3    H1  819   6.862   6.720   5.813 -1.1646 -0.9152  0.5575
  285TIP3    H2  820   6.763   6.764   5.708  0.4968  0.8598 -0.3118
  286TIP3   OH2  821   2.936   0.585   5.806  0.0619  0.5336  0.2042
  286TIP3    H1  822   2.994   0.521   5.849  0.5789 -0.0387 -1.3000
  286TIP3    H2  823   2.861   0.533   5.777  0.5420  0.5744 -1.1341
  287TIP3   OH2  824   5.614   4.999   1.378 -0.6886  0.6864  0.4375
  287TIP3    H1  825   5.521   5.016   1.395 -0.9882  0.2862 -0.6840
  287TIP3    H2  826   5.646   5.081   1.341 -0.4500  1.0047  1.3292
  288TIP3   OH2  827   5.012   6.070   5.177 -0.1479  0.5706  0.6612
  288TIP3    H1  828   4.959   6.138   5.219 -0.1663  0.3933  0.9233
  288TIP3    H2  829   5.011   6.093   5.084 -2.2210 -0.4521  0.3685
  289TIP3   OH2  830   5.611   2.544   1.341  0.0291  0.0792  0.0889
  289TIP3    H1  831   5.686   2.600   1.322 -0.9507  1.0925 -0.9263
  289TIP3    H2  832   5.583   2.511   1.256 -1.0056  0.1585  0.3845
  290TIP3   OH2  833   1.861   1.523   5.717  0.1153 -0.8006  0.1100
  290TIP3    H1  834   1.781   1.534   5.768 -0.6054 -1.0933 -0.9123
  290TIP3    H2  835   1.909   1.453   5.761 -0.1548 -0.5666  0.7795
  291TIP3   OH2  836   5.939   2.821   2.793 -0.5216  0.1186 -0.2181
  291TIP3    H1  837   5.847   2.846   2.793 -0.3237  0.8773  0.2674
  291TIP3    H2  838   5.969   2.836   2.883 -0.4893 -2.3271  0.2541
  292TIP3   OH2  839   6.892   0.284   2.061 -0.1222  0.0778  0.0204
  292TIP3    H1  840   6.883   0.239   1.977 -0.2693 -0.3503  0.2617
  292TIP3    H2  841   6.824   0.246   2.116 -1.1289  1.5524 -0.1650
  293TIP3   OH2  842   5.878   1.063   2.352  0.2191  0.2891  0.3575
  293TIP3    H1  843   5.813   1.039   2.418  2.0198 -1.2713  1.6564
  293TIP3    H2  844   5.929   0.983   2.338  0.1037  0.6081 -2.7758
  294TIP3   OH2  845   1.129   3.343   4.375 -0.0813  0.1238  0.6037
  294TIP3    H1  846   1.122   3.431   4.411 -0.2467  0.3777 -0.0398
  294TIP3    H2  847   1.043   3.304   4.390 -0.1340  0.2118  0.5328
  295TIP3   OH2  848   0.949   3.413   4.608 -0.0006  0.8155 -0.0562
  295TIP3    H1  849   0.955   3.443   4.518 -1.8125  2.1383  0.2002
  295TIP3    H2  850   1.038   3.425   4.644  0.9292 -0.4196 -1.7965
  296TIP3   OH2  851   6.336   3.092   2.548  0.6747 -0.8896  0.0741
  296TIP3    H1  852   6.293   3.007   2.536  0.0179 -0.5331 -0.1534
  296TIP3    H2  853   6.429   3.072   2.550  0.6213 -1.4389 -1.6240
  297TIP3   OH2  854   1.406   0.990   1.090 -0.0390  0.5493 -0.1093
  297TIP3    H1  855   1.471   0.986   1.020 -0.9757  0.1560 -0.9815
  297TIP3    H2  856   1.375   0.900   1.099  1.3856  0.1883  2.1299
  298TIP3   OH2  857   1.238   2.530   2.306 -0.6758 -0.0699  0.0530
  298TIP3    H1  858   1.193   2.578   2.236  0.4544  1.6644  0.4289
  298TIP3    H2  859   1.275   2.599   2.362  0.6151 -1.4078  0.9265
  299TIP3   OH2  860   3.898   0.996   0.019  0.0345 -0.2703 -0.9018
  299TIP3    H1  861   3.880   0.931  -0.048 -0.0178 -0.1904 -0.9666
  299TIP3    H2  862   3.985   0.973   0.053  0.1738 -0.1601 -1.1769
  300TIP3   OH2  863   3.356   0.950   5.221 -0.1324  0.1940  0.4821
  300TIP3    H1  864   3.447   0.961   5.194  0.0124 -1.6587  0.0804
  300TIP3    H2  865   3.338   0.857   5.209 -2.3227  0.6363 -0.1605
  301TIP3   OH2  866   0.309   4.525   3.012 -0.1561  0.1987  0.0331
  301TIP3    H1  867   0.271   4.482   3.089 -2.0652 -2.1018 -2.0432
  301TIP3    H2  868   0.263   4.608   3.006  0.4627  0.7065  1.6550
  302TIP3   OH2  869   6.008   5.528   5.499  0.4086  0.7654 -0.3786
  302TIP3    H1  870   6.083   5.565   5.453  1.6830  0.9540  1.6874
  302TIP3    H2  871   6.047   5.468   5.563 -1.2026  0.7717  0.6616
  303TIP3   OH2  872   7.172   0.102   3.415  0.3282 -0.3517 -0.4451
  303TIP3    H1  873   7.099   0.135   3.363 -0.6191 -2.3689 -0.4640
  303TIP3    H2  874   7.166   0.007   3.408  2.4595 -0.5906  0.2687
  304TIP3   OH2  875   3.566   5.466   5.060  0.2047 -0.4550 -0.5169
  304TIP3    H1  876   3.569   5.399   4.992 -1.2960 -1.9220  0.7709
  304TIP3    H2  877   3.474   5.490   5.066  0.7126  1.8400 -0.9771
  305TIP3   OH2  878   3.954   4.362   1.312 -0.1866 -0.5252  1.2757
  305TIP3    H1  879   3.860   4.373   1.300  0.1441  0.1233 -1.5274
  305TIP3    H2  880   3.981   4.304   1.241  1.7660  0.8089  0.8416
  306TIP3   OH2  881   0.979   4.935   3.176  0.2183 -0.0254  0.2437
  306TIP3    H1  882   0.913   4.878   3.216 -1.1564  1.1584 -0.2454
  306TIP3    H2  883   0.985   4.904   3.085 -0.4519  0.5092  0.0065
  307TIP3   OH2  884   5.070   5.826   0.571  0.0800 -0.2150 -0.1331
  307TIP3    H1  885   5.028   5.836   0.486 -1.4652  1.6622  0.7624
  307TIP3    H2  886   5.040   5.740   0.603  1.1167 -1.1866 -1.6440
  308TIP3   OH2  887   6.684   5.611   2.650 -0.5762 -0.4459 -0.4163
  308TIP3    H1  888   6.655   5.651   2.568 -1.1286  1.1719  0.5304
  308TIP3    H2  889   6.604   5.573   2.687 -0.2214 -1.6739 -0.8803
  309TIP3   OH2  890   0.974   1.914   2.954 -0.0983  0.3640 -0.1145
  309TIP3    H1  891   1.052   1.937   2.903  0.9921 -0.8226  0.9432
  309TIP3    H2  892   0.938   1.998   2.983  2.6121  0.9406  1.9923
  310TIP3   OH2  893   4.440   2.742   0.210 -0.1615  0.7112 -0.0330
  310TIP3    H1  894   4.529   2.777   0.215 -0.1135  0.6693 -0.5086
  310TIP3    H2  895   4.453   2.649   0.192 -0.2962  0.5724  0.5776
  311TIP3   OH2  896   3.821   4.289   5.728  0.1928 -0.1427  0.3638
  311TIP3    H1  897   3.858   4.202   5.717  0.0483 -0.4958  2.2860
  311TIP3    H2  898   3.729   4.275   5.749 -0.2012  0.5611 -0.8166
  312TIP3   OH2  899   6.676   5.409   1.521  0.4744  0.4762 -0.1772
  312TIP3    H1  900   6.622   5.333   1.500 -0.3564  0.7500  0.8525
  312TIP3    H2  901   6.686   5.456   1.439  0.0472 -0.1638 -0.6011
  313TIP3   OH2  902   1.210   5.671   0.498 -0.0124 -0.1058  0.0160
  313TIP3    H1  903   1.291   5.716   0.522  0.8561 -0.7676 -1.5237
  313TIP3    H2  904   1.236   5.580   0.489 -1.2022 -0.5154  0.6246
  314TIP3   OH2  905   0.144   3.296   5.041  0.4524  0.1893 -0.2962
  314TIP3    H1  906   0.053   3.293   5.069  0.4919  3.0757  0.4199
  314TIP3    H2  907   0.146   3.361   4.971  1.8372 -0.5335 -0.9821
  315TIP3   OH2  908   4.096   1.997   2.258  0.1696  0.9241 -0.0636
  315TIP3    H1  909   4.122   2.056   2.187 -0.4288 -0.3946 -1.4421
  315TIP3    H2  910   4.076   1.915   2.214  0.3675 -0.1318  1.7334
  316TIP3   OH2  911   4.016   6.386   2.303 -0.3226  0.7707 -0.2648
  316TIP3    H1  912   3.982   6.398   2.392 -1.0285  0.3134 -0.4661
  316TIP3    H2  913   3.939   6.368   2.250  0.0113  1.6792 -1.1018
  317TIP3   OH2  914   5.776   0.723   2.725  0.2506  0.1188  0.1385
  317TIP3    H1  915   5.860   0.701   2.765  0.6438 -0.8560 -1.1534
  317TIP3    H2  916   5.726   0.642   2.727 -0.6005  0.6415  0.7059
  318TIP3   OH2  917   1.270   6.809   0.042  0.4533 -0.8540  0.2113
  318TIP3    H1  918   1.202   6.784  -0.020 -0.4230 -0.3076  0.9169
  318TIP3    H2  919   1.349   6.767   0.010 -0.2001 -1.4347 -0.6811
  319TIP3   OH2  920   3.976   3.217   3.326 -0.5049  0.0934 -0.5891
  319TIP3    H1  921   4.007   3.198   3.237 -2.6211  0.2864 -1.4315
  319TIP3    H2  922   3.894   3.168   3.333 -1.3974  1.6632  0.5155
  320TIP3   OH2  923   5.112   1.705   0.752  0.0576  0.1917 -0.1889
  320TIP3    H1  924   5.047   1.635   0.753 -0.2875  0.4871 -0.8788
  320TIP3    H2  925   5.155   1.695   0.667 -0.4123  1.1871 -0.5557
  321TIP3   OH2  926   3.046   0.941   1.441  0.4572  0.1112 -0.1508
  321TIP3    H1  927   3.121   0.896   1.403  0.0416 -0.8739  0.1781
  321TIP3    H2  928   3.074   0.962   1.530 -0.3448 -2.1129  0.7006
  322TIP3   OH2  929   4.762   2.487   5.345  0.0618 -0.0531 -0.5645
  322TIP3    H1  930   4.786   2.418   5.406 -1.5102 -0.0003  0.1755
  322TIP3    H2  931   4.677   2.518   5.377 -0.5047  0.4103 -2.4317
  323TIP3   OH2  932   5.719   1.775   2.528  0.1759 -0.3506 -0.7251
  323TIP3    H1  933   5.742   1.845   2.588  1.5668 -0.2937 -1.2777
  323TIP3    H2  934   5.624   1.774   2.526  0.1159 -0.0049  1.0537
  324TIP3   OH2  935   4.592   2.717   1.560  0.3786  0.0950 -0.7018
  324TIP3    H1  936   4.568   2.682   1.474  0.6040 -2.0891  0.0557
  324TIP3    H2  937   4.531   2.675   1.620  0.8700  0.8159  0.3224
  325TIP3   OH2  938   3.282   4.854   5.599  0.0495  0.0960 -0.2049
  325TIP3    H1  939   3.209   4.800   5.567 -0.0242 -0.6275  1.0837
  325TIP3    H2  940   3.240   4.917   5.659  0.3521  0.4268 -0.3395
  326TIP3   OH2  941   5.537   2.858   3.298 -0.3749 -0.0545 -0.5616
  326TIP3    H1  942   5.557   2.769   3.269  2.1742  0.8850 -1.9947
  326TIP3    H2  943   5.490   2.898   3.225 -2.8724 -0.5852  0.6604
  327TIP3   OH2  944   1.616   5.543   0.287 -0.3302  0.0013  0.2856
  327TIP3    H1  945   1.699   5.585   0.309 -0.5454  0.5920 -0.0227
  327TIP3    H2  946   1.626   5.453   0.320  1.0707 -0.4416 -1.1716
  328TIP3   OH2  947   2.919   5.554   1.450 -0.6426  0.1363  0.1096
  328TIP3    H1  948   2.991   5.491   1.454  0.5724  1.4239 -0.5018
  328TIP3    H2  949   2.841   5.504   1.475  0.7929 -0.7503  3.1753
  329TIP3   OH2  950   3.740   6.211   4.893  0.2437  0.2822 -0.2147
  329TIP3    H1  951   3.745   6.135   4.836  1.5038  0.1288  0.0583
  329TIP3    H2  952   3.687   6.182   4.967  0.1088 -0.0995 -0.4573
  330TIP3   OH2  953   6.751   0.544   4.154  0.6534 -0.0840  0.0977
  330TIP3    H1  954   6.799   0.465   4.180 -0.6277 -0.5249  1.1915
  330TIP3    H2  955   6.670   0.541   4.203  0.7028  2.1206  0.4261
  331TIP3   OH2  956   5.326   6.395   4.686 -0.3695 -0.2752 -0.1810
  331TIP3    H1  957   5.357   6.347   4.609  0.1635  0.4326 -0.4156
  331TIP3    H2  958   5.317   6.485   4.657 -0.3646 -0.0333  0.5304
  332TIP3   OH2  959   7.223   1.438   4.110 -0.0934  0.6748  0.1705
  332TIP3    H1  960   7.249   1.438   4.018 -0.2521 -1.3477  0.0866
  332TIP3    H2  961   7.129   1.417   4.108 -0.0997  0.6233  0.7969
  333TIP3   OH2  962   5.716   1.374   2.834  0.1873 -0.5023 -0.7207
  333TIP3    H1  963   5.648   1.433   2.802 -0.3755 -0.0035  1.2278
  333TIP3    H2  964   5.668   1.304   2.879  0.9365 -0.5200  0.0814
  334TIP3   OH2  965   1.590   6.117   4.013  0.0396  0.5153  0.2345
  334TIP3    H1  966   1.621   6.031   4.041 -2.0644 -0.1622  0.6638
  334TIP3    H2  967   1.495   6.115   4.028 -0.4618  2.0040 -2.0988
  335TIP3   OH2  968   0.895   4.545   0.779 -0.0281 -0.1519  0.9757
  335TIP3    H1  969   0.982   4.571   0.811  0.1916 -0.2378  0.4612
  335TIP3    H2  970   0.839   4.548   0.857  0.1966  0.9618  1.1129
  336TIP3   OH2  971   3.640   1.773   5.777  0.0010 -0.1985 -0.2816
  336TIP3    H1  972   3.635   1.867   5.797 -1.3210 -0.3490  0.1503
  336TIP3    H2  973   3.653   1.732   5.863  0.2834 -0.4455 -0.4406
  337TIP3   OH2  974   6.914   0.066   0.925 -0.3085  0.0671 -0.2127
  337TIP3    H1  975   6.838   0.118   0.898 -0.7190 -0.7342 -0.6518
  337TIP3    H2  976   6.958   0.044   0.843 -0.5029 -0.8062 -0.0908
  338TIP3   OH2  977   5.438   4.308   0.711 -0.0864  0.0768 -0.4485
  338TIP3    H1  978   5.479   4.392   0.732 -0.6976  0.3998 -0.5103
  338TIP3    H2  979   5.510   4.252   0.684  0.1391  1.0808 -2.0257
  339TIP3   OH2  980   1.814   4.635   0.406  0.0591 -0.3993  0.5436
  339TIP3    H1  981   1.784   4.716   0.448  3.1796  0.9239  0.4934
  339TIP3    H2  982   1.828   4.660   0.315  0.5717 -1.1355  0.4179
  340TIP3   OH2  983   2.147   2.137   4.514  0.5013 -0.0153  0.1749
  340TIP3    H1  984   2.135   2.087   4.434  2.2261 -0.3187  0.0702
  340TIP3    H2  985   2.058   2.154   4.546 -0.2172  0.3150 -1.8974
  341TIP3   OH2  986   6.846   3.261   1.273 -0.4686 -0.3158  0.5546
  341TIP3    H1  987   6.862   3.317   1.349  0.3949  0.5540 -0.2348
  341TIP3    H2  988   6.850   3.172   1.307  1.9435 -0.0396  1.2348
  342TIP3   OH2  989   0.425   0.865   2.642 -0.7972  0.3549 -0.1616
  342TIP3    H1  990   0.503   0.916   2.621 -0.0422 -0.6328  0.1526
  342TIP3    H2  991   0.354   0.908   2.594  0.2227  0.3370 -1.7465
  343TIP3   OH2  992   2.645   2.761   0.678 -0.0403 -0.8905  0.3080
  343TIP3    H1  993   2.671   2.787   0.766  2.2682 -1.4098 -0.1628
  343TIP3    H2  994   2.605   2.839   0.641  0.3127 -0.2082  1.3175
  344TIP3   OH2  995   3.687   1.090   5.313  0.4182  0.1089  0.5218
  344TIP3    H1  996   3.751   1.109   5.245  0.5601 -1.3454  0.2006
  344TIP3    H2  997   3.734   1.034   5.375 -0.3570 -0.4921  0.5829
  345TIP3   OH2  998   6.493   2.858   3.808 -0.6496  0.0045  0.4783
  345TIP3    H1  999   6.522   2.898   3.890  1.7769  1.5301 -1.0201
  345TIP3    H2 1000   6.402   2.886   3.798  0.4508  4.0750  0.2874
  346TIP3   OH2 1001   6.609   1.331   3.380  0.2001 -0.1721  0.1330
  346TIP3    H1 1002   6.692   1.319   3.334  0.3666 -2.6006  0.9219
  346TIP3    H2 1003   6.551   1.266   3.341 -0.0128 -1.4765  2.4308
  347TIP3   OH2 1004   1.992   3.977   5.163  0.4370 -0.3758 -0.4115
  347TIP3    H1 1005   2.086   3.991   5.154  0.3019  1.2652  0.4432
  347TIP3    H2 1006   1.965   4.034   5.235 -0.9291 -2.1341  0.5628
  348TIP3   OH2 1007   0.649   4.021   3.234  0.3144 -0.4208  0.0983
  348TIP3    H1 1008   0.744   4.019   3.243  0.4671  0.4944 -1.0457
  348TIP3    H2 1009   0.631   3.970   3.156 -0.0138  0.4566 -0.4134
  349TIP3   OH2 1010   6.005   0.691   3.373  0.5934  0.6003 -0.1743
  349TIP3    H1 1011   6.084   0.637   3.383 -0.1873 -0.2875  1.7954
  349TIP3    H2 1012   5.941   0.648   3.429 -1.2724  1.3831 -1.6264
  350TIP3   OH2 1013   4.229   3.952   1.736  0.2247 -0.3199  0.2676
  350TIP3    H1 1014   4.245   3.864   1.771  1.6809 -0.4658 -0.7146
  350TIP3    H2 1015   4.211   4.005   1.814 -1.9101 -1.6905  0.8060
  351TIP3   OH2 1016   2.778   1.176   2.337 -0.6949 -0.2847 -0.4275
  351TIP3    H1 1017   2.736   1.173   2.251 -0.3986  0.0823 -0.5894
  351TIP3    H2 1018   2.828   1.095   2.342 -0.8768 -0.4034 -0.5182
  352TIP3   OH2 1019   1.119   5.764   0.253 -0.6392 -0.1784  0.4373
  352TIP3    H1 1020   1.214   5.771   0.240 -0.3678 -2.3520  0.8760
  352TIP3    H2 1021   1.109   5.757   0.348 -1.1435 -0.9290  0.3336
  353TIP3   OH2 1022   3.745   2.247   2.827 -0.3773 -0.2719  0.2311
  353TIP3    H1 1023   3.773   2.243   2.919  0.4885  1.7057  0.0863
  353TIP3    H2 1024   3.696   2.329   2.821 -1.4356 -0.9523 -0.8398
  354TIP3   OH2 1025   5.912   5.174   3.906 -0.4044  0.2522 -0.0607
  354TIP3    H1 1026   5.877   5.234   3.973  1.7449  1.0735  0.4033
  354TIP3    H2 1027   5.916   5.227   3.827  1.1079  0.6488  0.2507
  355TIP3   OH2 1028   3.306   4.854   3.162  0.0758 -0.2021 -0.5980
  355TIP3    H1 1029   3.396   4.855   3.195  0.1450 -0.8138 -0.7515
  355TIP3    H2 1030   3.263   4.926   3.208  0.7065  0.2545 -0.7017
  356TIP3   OH2 1031   3.247   1.501   3.355  0.0179 -0.3650 -0.1781
  356TIP3    H1 1032   3.170   1.557   3.355 -0.0931 -0.5097  0.8207
  356TIP3    H2 1033   3.267   1.488   3.262 -0.3349  0.7996 -0.4332
  357TIP3   OH2 1034   1.904   2.188   0.620 -0.3913 -0.1412 -0.0373
  357TIP3    H1 1035   1.857   2.265   0.648 -1.8522 -1.4404  1.2463
  357TIP3    H2 1036   1.970   2.173   0.687 -0.4888 -0.3245  0.0200
  358TIP3   OH2 1037   3.073   3.734   2.745 -0.3445 -0.4703  0.0323
  358TIP3    H1 1038   3.048   3.730   2.653  0.7022 -0.0575 -0.2890
  358TIP3    H2 1039   2.992   3.717   2.793 -1.1572  0.4776 -0.9502
  359TIP3   OH2 1040   2.290   4.841   0.019  0.1147  0.2040  0.6925
  359TIP3    H1 1041   2.207   4.868   0.059 -0.4357  0.6132 -0.6989
  359TIP3    H2 1042   2.345   4.918   0.026  0.1195  0.1828  0.9096
  360TIP3   OH2 1043   1.591   2.070   1.728  0.3446 -0.0593 -0.1430
  360TIP3    H1 1044   1.664   2.121   1.693  0.5773  0.2161  0.7106
  360TIP3    H2 1045   1.535   2.135   1.772 -0.7301 -0.1783 -1.2768
  361TIP3   OH2 1046   3.786   4.916   5.815 -0.1909 -0.5671  0.5821
  361TIP3    H1 1047   3.710   4.956   5.773  0.2042  1.1535  1.3875
  361TIP3    H2 1048   3.848   4.900   5.744  0.0560  1.3113  0.3171
  362TIP3   OH2 1049   2.842   5.237   1.815 -0.4423  0.3309  0.1826
  362TIP3    H1 1050   2.848   5.270   1.904  0.4630 -0.8887  0.5999
  362TIP3    H2 1051   2.765   5.281   1.778 -2.9389 -1.6212  2.6327
  363TIP3   OH2 1052   6.447   1.634   3.405  0.3295  0.0644  0.1452
  363TIP3    H1 1053   6.398   1.686   3.341  1.0249  0.6254  0.0509
  363TIP3    H2 1054   6.477   1.698   3.469  0.8657 -0.2764  0.2374
  364TIP3   OH2 1055   0.306   5.946   4.820  0.0271  0.2796 -0.4182
  364TIP3    H1 1056   0.287   5.867   4.870 -0.8718  2.4474  2.9574
  364TIP3    H2 1057   0.283   5.923   4.730 -0.7384 -3.0729  0.4927
  365TIP3   OH2 1058   2.009   6.144   4.029  0.0801 -0.2269  0.1331
  365TIP3    H1 1059   2.046   6.200   3.961  0.6054 -1.1110 -0.3230
  365TIP3    H2 1060   1.963   6.204   4.087 -0.0112  0.5857 -0.7644
  366TIP3   OH2 1061   3.156   4.252   4.209  0.0933 -0.0717  0.7672
  366TIP3    H1 1062   3.250   4.238   4.197 -0.1625 -0.6257 -0.9561
  366TIP3    H2 1063   3.144   4.262   4.303  1.6728 -1.4821  1.1555
  367TIP3   OH2 1064   4.706   6.813   4.007  0.1079 -0.2131  0.1615
  367TIP3    H1 1065   4.658   6.784   3.929  0.1038  0.2553 -0.0138
  367TIP3    H2 1066   4.674   6.757   4.077 -0.4242 -0.1558 -0.0305
  368TIP3   OH2 1067   0.296   0.106   1.898  0.1583  0.4684 -0.4599
  368TIP3    H1 1068   0.351   0.098   1.976 -1.6680 -2.2539  0.7167
  368TIP3    H2 1069   0.358   0.115   1.825  2.1393 -1.1408  0.9106
  369TIP3   OH2 1070   6.489   3.139   0.199 -0.3983 -0.1286  0.0215
  369TIP3    H1 1071   6.552   3.141   0.128 -0.1097  0.2513  0.2782
  369TIP3    H2 1072   6.494   3.227   0.237  0.5666 -0.7489  1.4609
  370TIP3   OH2 1073   2.382   6.687   4.028 -0.4491  0.0141  0.5352
  370TIP3    H1 1074   2.343   6.773   4.040  0.2255  0.3931  0.0706
  370TIP3    H2 1075   2.362   6.640   4.109  0.5639  1.1589  1.4974
  371TIP3   OH2 1076   3.663   3.470   0.697  0.0969  0.0061  0.3187
  371TIP3    H1 1077   3.720   3.535   0.655 -0.0845 -0.6854 -1.0388
  371TIP3    H2 1078   3.641   3.509   0.782 -0.2502  1.8647 -0.5792
  372TIP3   OH2 1079   5.817   6.335   4.846 -0.4584 -0.5990 -0.0818
  372TIP3    H1 1080   5.864   6.383   4.914  0.2437 -0.7620 -0.4444
  372TIP3    H2 1081   5.744   6.393   4.822 -0.1100 -0.0828  0.0798
  373TIP3   OH2 1082   0.321   6.048   2.670  0.3610 -0.2505  0.0180
  373TIP3    H1 1083   0.260   6.014   2.735  0.1926  2.2574  1.3115
  373TIP3    H2 1084   0.406   6.047   2.714  0.7454 -0.9552 -0.7053
  374TIP3   OH2 1085   4.954   6.352   0.571  0.4226 -0.6013  0.4150
  374TIP3    H1 1086   5.033   6.354   0.624  0.5126 -1.1209  0.3000
  374TIP3    H2 1087   4.887   6.315   0.628 -0.3454  1.9508  1.3085
  375TIP3   OH2 1088   3.962   4.413   2.163 -0.0304  0.0112  0.2697
  375TIP3    H1 1089   4.015   4.406   2.084 -0.0309  1.3756  0.1171
  375TIP3    H2 1090   3.886   4.357   2.147  0.2066 -0.0933 -0.4903
  376TIP3   OH2 1091   4.855   5.072   2.561 -0.0417 -0.3955 -0.1978
  376TIP3    H1 1092   4.856   5.048   2.468  1.0906 -1.7253  0.1349
  376TIP3    H2 1093   4.939   5.043   2.595 -0.7903 -0.7706  1.4537
  377TIP3   OH2 1094   6.013   3.854   5.401 -0.6258 -0.0102  0.1597
  377TIP3    H1 1095   5.941   3.912   5.425  0.3055  0.8222  1.0206
  377TIP3    H2 1096   5.987   3.769   5.435 -0.9271  0.4096  0.9989
  378TIP3   OH2 1097   6.837   6.555   1.345  0.4329 -0.0208 -0.0481
  378TIP3    H1 1098   6.813   6.508   1.425  1.2114  2.2536  1.6139
  378TIP3    H2 1099   6.765   6.538   1.284  0.5539 -3.0836  0.5123
  379TIP3   OH2 1100   1.146   2.005   2.470 -0.1775 -0.0432 -0.1169
  379TIP3    H1 1101   1.063   1.972   2.505 -1.9363  0.9062 -3.0197
  379TIP3    H2 1102   1.165   1.950   2.395  1.2022  0.5443 -0.2408
  380TIP3   OH2 1103   2.582   0.457   0.831  0.2300  0.4576 -0.0120
  380TIP3    H1 1104   2.524   0.383   0.853  0.6405 -0.5076 -1.9399
  380TIP3    H2 1105   2.669   0.417   0.823  0.7617  1.4780  0.5436
  381TIP3   OH2 1106   6.684   5.385   0.872 -0.1509  0.0078 -0.0254
  381TIP3    H1 1107   6.709   5.348   0.787 -1.3532  1.5222 -1.0941
  381TIP3    H2 1108   6.651   5.310   0.922 -0.3033 -0.7643 -1.2469
  382TIP3   OH2 1109   1.359   6.746   4.525 -0.1015 -0.2014 -0.1386
  382TIP3    H1 1110   1.360   6.825   4.471 -0.6741  0.1320  0.3344
  382TIP3    H2 1111   1.325   6.678   4.467 -0.8497  0.1842 -0.1622
  383TIP3   OH2 1112   1.135   6.440   0.813 -0.5407  0.7166  0.1188
  383TIP3    H1 1113   1.223   6.405   0.827  0.3648  1.6401 -2.6136
  383TIP3    H2 1114   1.144   6.497   0.737 -3.4419  1.1908  0.0293
  384TIP3   OH2 1115   0.907   2.334   4.216  0.6511 -0.7066  0.3333
  384TIP3    H1 1116   0.926   2.427   4.210  0.9671 -0.7182  1.0267
  384TIP3    H2 1117   0.863   2.324   4.300  4.6282 -1.7808  2.5283
  385TIP3   OH2 1118   0.425   2.172   0.711  0.1761 -0.0169  0.2503
  385TIP3    H1 1119   0.478   2.093   0.700  0.4504  0.1713  0.2143
  385TIP3    H2 1120   0.435   2.196   0.803 -0.4186 -0.3836  0.4164
  386TIP3   OH2 1121   1.524   5.704   1.185 -0.4248 -0.7486 -0.5262
  386TIP3    H1 1122   1.480   5.620   1.175  0.0406 -0.9330 -1.0588
  386TIP3    H2 1123   1.505   5.751   1.104 -0.2270 -0.5532 -0.4611
  387TIP3   OH2 1124   4.290   6.303   2.280 -0.2607 -0.2115 -0.6195
  387TIP3    H1 1125   4.203   6.313   2.319  0.2457  1.5323  0.1409
  387TIP3    H2 1126   4.275   6.316   2.186 -0.7512  0.6431 -0.4369
  388TIP3   OH2 1127   0.605   4.985   1.943 -0.0856 -0.7826 -0.0142
  388TIP3    H1 1128   0.662   4.942   2.007 -1.1588 -2.6907 -0.2496
  388TIP3    H2 1129   0.518   4.948   1.960 -0.6184 -0.4265 -1.7846
  389TIP3   OH2 1130   2.465   2.456   5.005 -0.6192 -0.2773 -0.7391
  389TIP3    H1 1131   2.401   2.527   5.017  0.3093  0.7656 -1.7519
  389TIP3    H2 1132   2.461   2.436   4.912  0.8369  0.1347 -0.9190
  390TIP3   OH2 1133   3.049   1.322   3.200 -0.2360 -0.2183  0.4009
  390TIP3    H1 1134   2.955   1.335   3.213 -0.0189  2.1497  0.0835
  390TIP3    H2 1135   3.080   1.285   3.283 -1.3324 -0.3970  0.7480
  391TIP3   OH2 1136   5.976   5.333   5.277 -0.3260 -0.4340 -0.0243
  391TIP3    H1 1137   5.936   5.343   5.363  1.0063  0.5953  0.5211
  391TIP3    H2 1138   6.070   5.345   5.293  0.0731 -1.4552 -1.4402
  392TIP3   OH2 1139   3.332   6.602   2.338 -0.0432  0.0252 -0.3093
  392TIP3    H1 1140   3.426   6.618   2.332 -0.0805  0.8882  1.0650
  392TIP3    H2 1141   3.292   6.672   2.286  0.0337  0.6016  0.3908
  393TIP3   OH2 1142   0.190   0.641   4.876 -0.2964  0.2427  0.3601
  393TIP3    H1 1143   0.252   0.665   4.945 -1.3987  0.2685  1.3606
  393TIP3    H2 1144   0.245   0.628   4.799  0.8783  1.0115  1.0317
  394TIP3   OH2 1145   7.046   1.605   0.342  0.8735  0.0172 -0.7704
  394TIP3    H1 1146   7.083   1.522   0.371  1.7644  0.9370  0.8599
  394TIP3    H2 1147   7.105   1.672   0.378 -0.0954  1.3806 -1.6152
  395TIP3   OH2 1148   5.736   3.625   1.237 -0.6538 -0.1402 -0.0868
  395TIP3    H1 1149   5.786   3.678   1.175 -3.1428  0.8242 -1.4341
  395TIP3    H2 1150   5.729   3.680   1.315 -0.1811 -0.0118 -0.1302
  396TIP3   OH2 1151   1.608   5.588   4.794 -0.0959  0.3434 -0.4096
  396TIP3    H1 1152   1.650   5.659   4.746 -1.2815  1.3070 -0.0529
  396TIP3    H2 1153   1.559   5.631   4.864  0.0699 -0.9036  0.5096
  397TIP3   OH2 1154   6.663   0.427   2.905 -0.0161  0.3455 -0.6010
  397TIP3    H1 1155   6.656   0.495   2.973  1.0981 -0.5700  0.4715
  397TIP3    H2 1156   6.748   0.444   2.863  0.3996 -0.5488 -0.1340
  398TIP3   OH2 1157   7.205   4.195   1.054  0.1057 -0.7377  0.0141
  398TIP3    H1 1158   7.251   4.252   0.992  1.4197 -1.5563  0.2029
  398TIP3    H2 1159   7.147   4.254   1.102 -0.3978  0.0345 -1.4702
  399TIP3   OH2 1160   5.563   1.020   3.556 -0.1435  0.5164  0.1499
  399TIP3    H1 1161   5.631   0.962   3.522 -0.6777  0.0348 -0.1231
  399TIP3    H2 1162   5.527   1.063   3.478 -1.1224 -0.3196  0.1070
  400TIP3   OH2 1163   5.548   6.609   3.552 -0.4581 -0.6232  0.0458
  400TIP3    H1 1164   5.625   6.587   3.499  0.9711 -0.9174  2.1106
  400TIP3    H2 1165   5.558   6.703   3.569 -0.6166 -0.6452  0.2521
  401TIP3   OH2 1166   5.006   5.735   5.069 -0.2596  0.2136 -0.3929
  401TIP3    H1 1167   5.083   5.734   5.125  0.0567  2.8396 -0.6271
  401TIP3    H2 1168   5.036   5.702   4.985  0.2558 -0.1201 -0.0783
  402TIP3   OH2 1169   4.503   2.216   2.669  0.1242  0.6546 -0.2488
  402TIP3    H1 1170   4.542   2.230   2.582  2.0983 -0.7129  0.3288
  402TIP3    H2 1171   4.453   2.135   2.660 -0.0420  0.7572 -0.2349
  403TIP3   OH2 1172   1.882   3.173   4.070 -0.3772 -0.2686  0.1404
  403TIP3    H1 1173   1.974   3.170   4.046 -0.5027  0.3761 -0.4159
  403TIP3    H2 1174   1.872   3.101   4.133 -0.2278 -2.5712 -2.2786
  404TIP3   OH2 1175   1.606   2.407   5.778 -0.0660  0.0474  0.2204
  404TIP3    H1 1176   1.551   2.340   5.736  0.6721 -1.0112  0.8783
  404TIP3    H2 1177   1.690   2.363   5.794 -0.0833  0.6055  2.1476
  405TIP3   OH2 1178   2.548   0.326   0.572  0.1453 -0.0042  0.1261
  405TIP3    H1 1179   2.570   0.234   0.586 -0.9608 -0.2070  0.6569
  405TIP3    H2 1180   2.576   0.370   0.652  0.6699  0.1265 -0.1258
  406TIP3   OH2 1181   4.411   6.617   1.075 -0.1592 -0.4718  0.1711
  406TIP3    H1 1182   4.481   6.559   1.105 -0.0904 -1.6301 -2.0578
  406TIP3    H2 1183   4.455   6.700   1.054 -0.2151  0.4122  3.0752
  407TIP3   OH2 1184   5.659   3.900   0.217  0.5605 -0.2229 -0.4510
  407TIP3    H1 1185   5.615   3.853   0.288  0.0492  0.1013 -0.5458
  407TIP3    H2 1186   5.593   3.904   0.147  0.5398  0.7455 -0.3979
  408TIP3   OH2 1187   0.814   3.770   3.299 -0.1807  0.1700 -0.4615
  408TIP3    H1 1188   0.808   3.675   3.295 -1.1609  0.1663  0.3573
  408TIP3    H2 1189   0.882   3.787   3.364 -1.4260 -0.0258  0.9540
  409TIP3   OH2 1190   2.244   5.040   4.935  0.6434  0.3115  0.5725
  409TIP3    H1 1191   2.157   5.054   4.973  1.0346 -1.5078  2.3178
  409TIP3    H2 1192   2.276   5.128   4.915 -1.6643  1.0142 -0.3424
  410TIP3   OH2 1193   2.612   5.776   3.108  0.1359 -0.4709  0.3133
  410TIP3    H1 1194   2.694   5.741   3.074  0.7999  0.5546  0.7830
  410TIP3    H2 1195   2.545   5.716   3.077  0.5430  0.7786 -3.5292
  411TIP3   OH2 1196   6.724   4.785   2.965 -0.3233 -0.5952 -0.4160
  411TIP3    H1 1197   6.740   4.765   2.873  1.5015 -0.7483 -0.0967
  411TIP3    H2 1198   6.631   4.809   2.968  0.1806  2.1939 -2.8039
  412TIP3   OH2 1199   0.830   1.470   1.379 -0.1240  0.0433 -0.3522
  412TIP3    H1 1200   0.744   1.427   1.386 -0.2310  0.0908 -1.2404
  412TIP3    H2 1201   0.838   1.491   1.286  2.0778 -2.5340 -0.8746
  413TIP3   OH2 1202   6.740   1.530   3.542 -0.3177 -0.1670 -0.5799
  413TIP3    H1 1203   6.698   1.460   3.492 -1.0703  1.0152 -1.6549
  413TIP3    H2 1204   6.671   1.594   3.557  0.8442  1.4334 -1.6732
  414TIP3   OH2 1205   4.174   3.267   4.695  0.0995  0.1619  0.1895
  414TIP3    H1 1206   4.225   3.349   4.697 -0.5370  0.5509  0.8651
  414TIP3    H2 1207   4.236   3.201   4.663  0.3999  1.0608 -1.1911
  415TIP3   OH2 1208   0.618   1.540   5.241  0.8108  0.4581 -0.4288
  415TIP3    H1 1209   0.605   1.573   5.152 -1.7370 -0.6706 -0.5545
  415TIP3    H2 1210   0.589   1.449   5.238 -1.6074  1.0198  2.0069
  416TIP3   OH2 1211   5.925   6.363   1.154  0.2311 -0.4992  0.4372
  416TIP3    H1 1212   5.888   6.384   1.240 -0.2093 -1.7648  0.5872
  416TIP3    H2 1213   6.008   6.411   1.152  0.6059 -1.0067  1.8958
  417TIP3   OH2 1214   3.547   6.161   3.719 -0.1369 -0.2030  0.1694
  417TIP3    H1 1215   3.573   6.160   3.626  0.1784 -1.5781  0.2534
  417TIP3    H2 1216   3.568   6.249   3.748  2.0671 -0.4614 -0.4516
  418TIP3   OH2 1217   2.420   3.147   0.153 -0.7703 -0.1506  0.4927
  418TIP3    H1 1218   2.335   3.187   0.173 -1.6072 -1.7626  0.2627
  418TIP3    H2 1219   2.433   3.082   0.222  0.5191  0.3814  0.7861
  419TIP3   OH2 1220   1.813   6.752   1.764 -0.3464 -0.1000  0.1396
  419TIP3    H1 1221   1.881   6.717   1.706  1.5373  2.3397  0.7198
  419TIP3    H2 1222   1.835   6.717   1.850 -0.3175  0.0463  0.1916
  420TIP3   OH2 1223   4.785   0.811   4.370 -0.3576  0.2907  0.2093
  420TIP3    H1 1224   4.872   0.801   4.408  0.0142  0.1764 -0.6667
  420TIP3    H2 1225   4.799   0.815   4.276 -1.3497 -0.3791  0.0095
  421TIP3   OH2 1226   3.845   3.841   0.684  0.0887  0.1624 -0.1234
  421TIP3    H1 1227   3.894   3.911   0.726  0.6835  0.6336 -1.5244
  421TIP3    H2 1228   3.898   3.763   0.698 -0.7372 -0.1179  1.7272
  422TIP3   OH2 1229   7.003   0.972   4.153  0.3811 -0.3051  0.1911
  422TIP3    H1 1230   6.941   0.900   4.140  0.1032 -0.2152  0.9981
  422TIP3    H2 1231   7.067   0.938   4.215  1.9346 -0.8696 -1.6236
  423TIP3   OH2 1232   3.943   0.097   3.053  0.0135  0.6062  0.6229
  423TIP3    H1 1233   3.860   0.145   3.058 -0.5442 -0.1703 -0.6457
  423TIP3    H2 1234   4.007   0.164   3.030 -0.5894  0.9363 -0.1616
  424TIP3   OH2 1235   2.088   3.290   3.782  0.6865 -0.0247  0.3025
  424TIP3    H1 1236   2.019   3.267   3.720  0.8755 -1.5368  0.6128
  424TIP3    H2 1237   2.164   3.307   3.728  0.4501  0.1885  0.0354
  425TIP3   OH2 1238   6.041   3.402   3.154  0.4680 -0.6541 -0.0410
  425TIP3    H1 1239   6.044   3.447   3.070  2.2111 -0.3516  0.1411
  425TIP3    H2 1240   5.971   3.446   3.202  0.4366  0.1606 -0.8054
  426TIP3   OH2 1241   6.175   5.180   3.783 -0.0414  0.0778  0.6913
  426TIP3    H1 1242   6.226   5.102   3.804  2.9596  1.6286 -0.2964
  426TIP3    H2 1243   6.148   5.214   3.868  2.2303  0.1730  1.4414
  427TIP3   OH2 1244   6.847   2.055   5.418 -0.0530 -0.0697 -0.5068
  427TIP3    H1 1245   6.885   2.005   5.490 -1.4785 -0.3839  0.0770
  427TIP3    H2 1246   6.852   1.996   5.342  1.3682  0.2264 -0.6587
  428TIP3   OH2 1247   4.258   0.382   2.817  0.1079 -0.3570  0.2534
  428TIP3    H1 1248   4.325   0.339   2.872 -0.8699  1.1990  2.8379
  428TIP3    H2 1249   4.253   0.471   2.851 -2.5222 -0.1211 -0.5500
  429TIP3   OH2 1250   2.262   3.590   3.920 -0.2135 -0.0706 -0.1532
  429TIP3    H1 1251   2.247   3.506   3.963 -0.9030  0.4688  0.7033
  429TIP3    H2 1252   2.276   3.652   3.991 -2.9228  1.1576 -0.5165
  430TIP3   OH2 1253   1.248   6.580   2.781 -0.2183 -0.0972  0.0837
  430TIP3    H1 1254   1.254   6.675   2.776 -0.6130 -0.1160 -1.1936
  430TIP3    H2 1255   1.236   6.561   2.874  0.6039  1.0442  0.4409
  431TIP3   OH2 1256   5.968   5.862   5.736  0.3582 -0.1632  0.0293
  431TIP3    H1 1257   6.039   5.811   5.697 -0.2437 -0.6884 -0.4043
  431TIP3    H2 1258   5.888   5.815   5.711 -0.1839  0.7545 -0.0082
  432TIP3   OH2 1259   1.028   3.139   4.724  0.0476 -0.3980 -0.2908
  432TIP3    H1 1260   0.996   3.055   4.693 -0.1068 -0.8698  1.0616
  432TIP3    H2 1261   0.970   3.204   4.685 -0.9403 -1.0586  0.0476
  433TIP3   OH2 1262   0.791   0.766   3.312  0.1475 -0.5706  0.1608
  433TIP3    H1 1263   0.716   0.811   3.351  0.8444 -0.4909  1.4609
  433TIP3    H2 1264   0.786   0.788   3.219 -1.5543 -0.7504  0.1900
  434TIP3   OH2 1265   4.059   1.871   0.087 -0.0556  0.1348  0.1391
  434TIP3    H1 1266   3.965   1.854   0.087  0.1940 -1.3938  0.8397
  434TIP3    H2 1267   4.069   1.948   0.030 -1.6640  0.0344 -0.3366
  435TIP3   OH2 1268   2.011   5.481   5.333 -0.1969  0.0809 -0.7715
  435TIP3    H1 1269   1.960   5.423   5.389  2.7567 -0.8814  1.1439
  435TIP3    H2 1270   2.014   5.435   5.248 -0.3609 -1.1207 -0.1513
  436TIP3   OH2 1271   0.528   4.797   1.000  0.0752 -0.2710  0.2140
  436TIP3    H1 1272   0.590   4.800   1.072 -0.4206 -2.3307  0.8075
  436TIP3    H2 1273   0.470   4.871   1.014  1.5520  0.8745  0.4161
  437TIP3   OH2 1274   6.348   6.489   2.639 -0.2594  0.2166 -0.0286
  437TIP3    H1 1275   6.406   6.446   2.576 -1.4213 -1.0641 -0.2582
  437TIP3    H2 1276   6.338   6.426   2.709 -0.4429  0.9094  0.5794
  438TIP3   OH2 1277   6.790   3.545   0.788  0.2171 -0.1981 -0.0110
  438TIP3    H1 1278   6.883   3.564   0.790  0.4219 -1.2296  0.6098
  438TIP3    H2 1279   6.750   3.626   0.756  1.1968  0.6875  0.9357
  439TIP3   OH2 1280   2.192   1.193   2.588 -0.4435 -0.3214  0.0370
  439TIP3    H1 1281   2.167   1.285   2.577 -2.0033 -0.7372 -0.1053
  439TIP3    H2 1282   2.237   1.171   2.507  1.9789  0.8970  0.9519
  440TIP3   OH2 1283   1.018   2.644   4.485 -0.4626 -0.1696  0.2177
  440TIP3    H1 1284   0.944   2.658   4.544 -0.4567  1.2830 -0.0718
  440TIP3    H2 1285   0.995   2.692   4.405  0.1839 -0.8553 -0.4013
  441TIP3   OH2 1286   5.316   4.965   0.033  0.5810 -0.0499 -0.0701
  441TIP3    H1 1287   5.291   4.933  -0.053  0.6150 -3.0572  0.9247
  441TIP3    H2 1288   5.407   4.993   0.023  0.7048 -0.7384 -0.9378
  442TIP3   OH2 1289   4.324   3.482   5.020 -0.0779 -0.5182  0.5715
  442TIP3    H1 1290   4.234   3.513   5.011 -0.2751 -1.2918 -0.3094
  442TIP3    H2 1291   4.376   3.562   5.026 -0.7632 -0.0446  0.3930
  443TIP3   OH2 1292   0.510   5.710   1.109 -0.0310  0.1790  0.0151
  443TIP3    H1 1293   0.548   5.784   1.157  1.1814 -0.4327  0.0066
  443TIP3    H2 1294   0.584   5.655   1.085 -0.8274 -0.5743 -0.8045
  444TIP3   OH2 1295   0.618   0.163   5.372  0.2008 -0.6148  0.0273
  444TIP3    H1 1296   0.547   0.211   5.414 -0.8995 -2.0400 -0.0955
  444TIP3    H2 1297   0.663   0.120   5.445  2.2407  1.8264  0.3204
  445TIP3   OH2 1298   0.700   3.716   0.251  0.3455  0.7581  0.3534
  445TIP3    H1 1299   0.679   3.808   0.236 -1.6210  0.3470  0.3601
  445TIP3    H2 1300   0.745   3.715   0.335  0.7040  1.7472  0.1840
  446TIP3   OH2 1301   0.444   4.194   5.009  0.0555  0.2722 -0.1340
  446TIP3    H1 1302   0.408   4.218   5.095 -1.0810 -0.0606 -0.5001
  446TIP3    H2 1303   0.428   4.270   4.954  1.7708  0.9153  0.2034
  447TIP3   OH2 1304   5.270   3.071   4.147 -0.1653 -0.3558 -0.0971
  447TIP3    H1 1305   5.261   2.988   4.193  0.8434  0.1293  1.0284
  447TIP3    H2 1306   5.347   3.112   4.186  1.4609 -0.3978 -2.9704
  448TIP3   OH2 1307   1.901   0.962   5.349  0.3581  0.4754  0.4699
  448TIP3    H1 1308   1.920   0.888   5.407  2.7027 -0.2400 -1.0738
  448TIP3    H2 1309   1.854   0.923   5.276 -0.5742  0.9782  0.7839
  449TIP3   OH2 1310   1.364   5.478   1.245 -0.2559 -0.4878  0.0048
  449TIP3    H1 1311   1.388   5.392   1.209 -0.7005 -1.2058  1.3608
  449TIP3    H2 1312   1.281   5.463   1.289 -0.8758  0.9027 -0.6428
  450TIP3   OH2 1313   0.040   3.884   5.843 -0.6964  0.0652 -0.2349
  450TIP3    H1 1314  -0.042   3.836   5.857  0.2119 -1.0812  1.4021
  450TIP3    H2 1315   0.107   3.816   5.835  0.3293  1.0115  0.0621
  451TIP3   OH2 1316   3.871   5.509   4.951  0.0260  0.3761 -0.3517
  451TIP3    H1 1317   3.912   5.474   5.030  0.6934  1.3175 -0.2667
  451TIP3    H2 1318   3.780   5.481   4.957  0.2924 -0.4026  0.2469
  452TIP3   OH2 1319   3.642   2.755   5.677 -0.5935  0.6434  0.5083
  452TIP3    H1 1320   3.595   2.814   5.737 -0.3805 -1.7427  3.1865
  452TIP3    H2 1321   3.573   2.703   5.636 -0.5576 -0.3283  1.6379
  453TIP3   OH2 1322   4.897   3.047   2.256 -0.0778 -0.2217 -0.1775
  453TIP3    H1 1323   4.903   3.137   2.286  1.1792 -0.2832 -0.1852
  453TIP3    H2 1324   4.809   3.019   2.281 -0.8650  1.3086 -1.0891
  454TIP3   OH2 1325   5.880   0.451   1.422  0.3536  0.3153 -0.2838
  454TIP3    H1 1326   5.848   0.457   1.512 -0.3525  1.6577 -0.6005
  454TIP3    H2 1327   5.854   0.533   1.382  3.4269  1.1365 -0.8434
  455TIP3   OH2 1328   3.134   6.587   1.285 -0.6510 -0.5761  0.2345
  455TIP3    H1 1329   3.178   6.581   1.370  2.1014 -1.1326 -1.1155
  455TIP3    H2 1330   3.069   6.656   1.297  0.7595  0.5077  2.3535
  456TIP3   OH2 1331   1.937   3.302   1.383  0.4382  0.1037 -0.4407
  456TIP3    H1 1332   1.965   3.309   1.292 -1.3624  0.1121 -1.0172
  456TIP3    H2 1333   1.843   3.318   1.382  0.1789 -0.9435  1.2731
  457TIP3   OH2 1334   0.612   5.831   2.426  0.8494  0.0781  0.0403
  457TIP3    H1 1335   0.583   5.912   2.467  0.0616 -0.8828  1.4625
  457TIP3    H2 1336   0.608   5.849   2.332 -0.2720  1.3601  0.3078
  458TIP3   OH2 1337   3.880   4.470   4.204 -0.0143  0.1346 -0.0497
  458TIP3    H1 1338   3.887   4.520   4.124  1.8074 -0.0409 -0.0393
  458TIP3    H2 1339   3.899   4.533   4.274 -1.3281  0.2277  0.2462
  459TIP3   OH2 1340   1.490   2.766   2.153  0.2588 -0.6449 -0.2442
  459TIP3    H1 1341   1.550   2.733   2.220  0.0279 -0.6565 -0.0398
  459TIP3    H2 1342   1.456   2.688   2.110 -0.7725 -0.7249  0.6623
  460TIP3   OH2 1343   4.384   6.059   4.323 -0.1419 -0.5396 -0.1428
  460TIP3    H1 1344   4.328   6.005   4.380  0.0603 -0.0822  0.5072
  460TIP3    H2 1345   4.472   6.025   4.337 -0.4041 -2.3378 -2.3999
  461TIP3   OH2 1346   3.255   6.742   3.211 -0.3885  0.0926 -0.3806
  461TIP3    H1 1347   3.293   6.676   3.269 -0.9792  0.4276  0.3894
  461TIP3    H2 1348   3.326   6.805   3.198 -0.7377  0.8927  1.3240
  462TIP3   OH2 1349   6.801   5.609   4.698 -0.2256  0.1598  0.0971
  462TIP3    H1 1350   6.748   5.538   4.734 -0.3171 -0.9054 -1.9948
  462TIP3    H2 1351   6.877   5.565   4.660 -1.2842  0.8679 -3.1278
  463TIP3   OH2 1352   1.357   5.457   0.934  0.5111 -0.0378  0.4222
  463TIP3    H1 1353   1.286   5.477   0.872  1.5046 -1.1674 -1.1523
  463TIP3    H2 1354   1.321   5.481   1.019 -2.3286 -1.8796 -0.1064
  464TIP3   OH2 1355   1.612   5.810   4.613  0.4910 -0.0708  0.2927
  464TIP3    H1 1356   1.597   5.756   4.536  0.1879  1.2195 -0.5688
  464TIP3    H2 1357   1.526   5.816   4.655  0.3259  0.4823 -0.1138
  465TIP3   OH2 1358   6.230   4.826   3.632 -0.8418 -0.7036 -0.4974
  465TIP3    H1 1359   6.287   4.900   3.654 -2.2352  1.1561 -2.7242
  465TIP3    H2 1360   6.147   4.845   3.676 -0.5229 -2.2459  0.8807
  466TIP3   OH2 1361   3.430   3.306   1.857 -0.3910  0.2289 -0.0084
  466TIP3    H1 1362   3.439   3.372   1.926  0.6457  0.5762 -0.4690
  466TIP3    H2 1363   3.478   3.342   1.783 -0.7021 -0.5758 -0.6107
  467TIP3   OH2 1364   2.381   5.195   4.287  0.6037 -0.1500  0.3028
  467TIP3    H1 1365   2.464   5.156   4.259  0.1298  0.7312 -2.6997
  467TIP3    H2 1366   2.393   5.289   4.270 -1.3688 -0.1428 -1.3950
  468TIP3   OH2 1367   6.636   5.531   1.781 -0.3539  0.2205  0.2418
  468TIP3    H1 1368   6.546   5.498   1.781 -0.2767  0.0114  0.4366
  468TIP3    H2 1369   6.674   5.495   1.700 -0.6780  0.9545 -0.2494
  469TIP3   OH2 1370   3.587   2.164   0.700 -0.4253 -0.2269  0.0038
  469TIP3    H1 1371   3.636   2.239   0.734 -0.6144 -0.4317  0.7269
  469TIP3    H2 1372   3.505   2.202   0.668 -0.2280 -0.0311 -0.2821
  470TIP3   OH2 1373   4.260   6.187   4.090  0.0780  0.5960  0.3087
  470TIP3    H1 1374   4.304   6.193   4.175  1.2622  0.2780 -0.2534
  470TIP3    H2 1375   4.209   6.106   4.094  4.1281 -2.3469 -0.9779
  471TIP3   OH2 1376   4.849   0.089   2.081 -0.1119 -0.4954 -0.1063
  471TIP3    H1 1377   4.899   0.042   2.148 -0.5705  0.0167  0.6112
  471TIP3    H2 1378   4.771   0.121   2.126 -1.8815 -2.4926 -1.5351
  472TIP3   OH2 1379   5.274   1.903   3.390 -0.1809 -0.9365 -0.1301
  472TIP3    H1 1380   5.192   1.952   3.395 -0.9150 -2.0908 -0.3737
  472TIP3    H2 1381   5.264   1.833   3.454  2.1372  0.9831  2.5158
  473TIP3   OH2 1382   6.934   4.425   0.926 -0.6813 -0.4678 -0.3401
  473TIP3    H1 1383   6.890   4.341   0.941 -2.0094  0.4299  1.0625
  473TIP3    H2 1384   6.862   4.489   0.921  0.3828  0.8356  0.4069
  474TIP3   OH2 1385   0.546   5.693   4.467  0.1309  0.3318 -0.1963
  474TIP3    H1 1386   0.572   5.671   4.556  2.1474  2.1839 -0.2470
  474TIP3    H2 1387   0.509   5.782   4.474  0.7761  0.7113 -1.2463
  475TIP3   OH2 1388   3.201   1.642   3.963 -0.9406 -0.5910  0.0607
  475TIP3    H1 1389   3.107   1.648   3.945 -0.6016  0.9035 -1.4850
  475TIP3    H2 1390   3.237   1.725   3.932  1.0083 -1.4325 -0.0993
  476TIP3   OH2 1391   6.594   1.339   3.947  0.3714  0.6109  0.3789
  476TIP3    H1 1392   6.642   1.309   4.024  1.2862  1.8092  0.2999
  476TIP3    H2 1393   6.659   1.386   3.894 -0.5111  0.8325 -0.5500
  477TIP3   OH2 1394   4.685   4.987   1.570 -0.0898 -0.2136 -0.1739
  477TIP3    H1 1395   4.753   5.053   1.580  0.3010 -0.8034  1.3587
  477TIP3    H2 1396   4.732   4.905   1.557 -0.5701 -0.2071 -2.1870
  478TIP3   OH2 1397   0.385   0.185   0.601 -0.3727  0.1323  0.2802
  478TIP3    H1 1398   0.306   0.132   0.615  0.1336 -0.9018 -0.5930
  478TIP3    H2 1399   0.362   0.242   0.527 -0.3541 -0.0599  0.1253
  479TIP3   OH2 1400   5.004   3.291   2.315 -0.2333  0.0756 -0.3803
  479TIP3    H1 1401   5.095   3.278   2.289  0.3458  0.9525  1.0757
  479TIP3    H2 1402   4.971   3.357   2.254 -0.3093 -1.1820 -1.7327
  480TIP3   OH2 1403   0.907   4.564   3.990 -0.4692 -0.0842  0.7452
  480TIP3    H1 1404   0.853   4.642   3.975  2.3023  1.9037  0.2909
  480TIP3    H2 1405   0.917   4.526   3.903  0.9968  1.1360  0.3350
  481TIP3   OH2 1406   3.356   3.847   0.853 -0.1965 -0.1826  0.6318
  481TIP3    H1 1407   3.435   3.841   0.800 -0.5686  1.0624 -0.1258
  481TIP3    H2 1408   3.301   3.774   0.824 -0.4228  0.5117 -0.7864
  482TIP3   OH2 1409   1.970   5.034   5.030 -0.1018 -0.1954 -0.0354
  482TIP3    H1 1410   1.892   5.066   4.984 -0.6292  0.3642  1.2150
  482TIP3    H2 1411   1.940   4.958   5.078  0.8014 -1.7328 -1.7646
  483TIP3   OH2 1412   6.753   6.525   2.560 -0.4919  0.2457  0.4241
  483TIP3    H1 1413   6.762   6.616   2.533 -1.7244  0.1097 -0.5478
  483TIP3    H2 1414   6.804   6.518   2.640  3.2611  0.7664 -1.6632
  484TIP3   OH2 1415   1.153   6.284   2.701 -0.1796  0.4115  0.0126
  484TIP3    H1 1416   1.211   6.357   2.722  0.6397  0.0072 -0.7911
  484TIP3    H2 1417   1.162   6.223   2.774  0.9711  0.0128 -0.4560
  485TIP3   OH2 1418   1.738   2.263   2.905 -0.3845 -0.2162 -0.4085
  485TIP3    H1 1419   1.643   2.251   2.899 -0.6722  1.7649 -0.6538
  485TIP3    H2 1420   1.748   2.350   2.943  1.3977 -1.6012  2.6887
  486TIP3   OH2 1421   6.689   2.059   2.921 -0.1102  0.2899 -0.0146
  486TIP3    H1 1422   6.606   2.015   2.903 -0.1749  0.6573 -0.6614
  486TIP3    H2 1423   6.695   2.127   2.853  0.1227  1.0840  0.7801
  487TIP3   OH2 1424   5.499   1.981   4.258  0.1210  0.3008  0.5212
  487TIP3    H1 1425   5.522   2.058   4.206 -1.8578  1.1159  0.7785
  487TIP3    H2 1426   5.496   2.013   4.348 -0.3574 -0.1501  0.6715
  488TIP3   OH2 1427   5.499   3.125   0.611  0.2901  0.3739  0.1163
  488TIP3    H1 1428   5.503   3.033   0.637  0.1148  0.4977  0.5999
  488TIP3    H2 1429   5.494   3.123   0.516 -2.1873 -0.2216  0.1859
  489TIP3   OH2 1430   5.781   2.902   5.838 -0.1797 -0.0605  0.6050
  489TIP3    H1 1431   5.695   2.928   5.804 -0.3630  0.1690  1.2259
  489TIP3    H2 1432   5.765   2.816   5.879 -0.5667  0.8024  2.3945
  490TIP3   OH2 1433   3.526   1.221   1.280 -0.0186 -0.0187  0.3375
  490TIP3    H1 1434   3.432   1.223   1.295 -0.1647  0.6636 -0.6127
  490TIP3    H2 1435   3.559   1.155   1.341 -1.3399 -1.5945 -0.5940
  491TIP3   OH2 1436   0.265   2.825   3.077  0.1731  0.3854  0.0366
  491TIP3    H1 1437   0.356   2.838   3.051  0.1911  0.9526  0.3725
  491TIP3    H2 1438   0.252   2.884   3.151 -0.3826  0.0880  0.1862
  492TIP3   OH2 1439   0.314   5.235   2.144 -0.0342  0.2902  0.2325
  492TIP3    H1 1440   0.252   5.280   2.086 -1.1729 -2.5489 -0.9182
  492TIP3    H2 1441   0.385   5.298   2.156 -0.4847  1.6187 -2.9666
  493TIP3   OH2 1442   3.950   5.834   3.207 -0.1670 -0.5176 -0.2785
  493TIP3    H1 1443   3.930   5.823   3.300  0.1150  0.9327 -0.0243
  493TIP3    H2 1444   3.900   5.911   3.180  2.6775  1.4539 -0.3204
  494TIP3   OH2 1445   6.372   4.757   4.021 -0.1321  0.1517 -0.7392
  494TIP3    H1 1446   6.462   4.763   4.052 -0.0692 -0.3656 -0.8151
  494TIP3    H2 1447   6.360   4.665   3.999 -0.6914  0.2110 -0.7022
  495TIP3   OH2 1448   1.440   4.331   3.731  0.3284 -0.5690  0.3571
  495TIP3    H1 1449   1.482   4.339   3.817  0.5755  1.2148  0.1052
  495TIP3    H2 1450   1.359   4.283   3.749 -0.2708  0.8853  1.8545
  496TIP3   OH2 1451   0.883   1.630   2.025  0.4991 -0.0971  0.0509
  496TIP3    H1 1452   0.855   1.651   2.114 -0.0376  0.9065 -0.3413
  496TIP3    H2 1453   0.962   1.681   2.011 -0.2350  0.9052 -0.5458
  497TIP3   OH2 1454   2.307   5.613   4.542 -0.0772  0.3646 -0.2459
  497TIP3    H1 1455   2.295   5.705   4.564 -0.0959 -0.0999  2.0374
  497TIP3    H2 1456   2.234   5.569   4.585  1.4518 -0.9595  1.1680
  498TIP3   OH2 1457   1.812   4.943   0.504  0.5139 -0.1667 -0.5395
  498TIP3    H1 1458   1.796   4.964   0.412  1.3176  1.0413 -0.4279
  498TIP3    H2 1459   1.899   4.981   0.522  0.6099 -0.8778  0.5613
  499TIP3   OH2 1460   1.070   0.399   4.977  0.0091 -0.1981  0.9565
  499TIP3    H1 1461   1.100   0.397   4.886  0.3988 -0.5700  1.0930
  499TIP3    H2 1462   0.975   0.405   4.970 -0.2195 -3.1229  0.4966
  500TIP3   OH2 1463   5.001   0.268   0.023  0.2420  0.2628  0.1678
  500TIP3    H1 1464   5.016   0.222  -0.060 -0.7338 -0.8143  0.5492
  500TIP3    H2 1465   4.983   0.198   0.086  1.1069  1.0575  1.3334
  501TIP3   OH2 1466   0.225   6.631   5.603 -0.1624  0.5580  0.0588
  501TIP3    H1 1467   0.189   6.543   5.597  0.9657 -0.1415  2.3034
  501TIP3    H2 1468   0.171   6.684   5.544 -0.8876 -1.5996 -1.2950
  502TIP3   OH2 1469   7.060   3.898   5.071  0.0710 -0.6489 -0.0459
  502TIP3    H1 1470   7.125   3.841   5.030  0.4409  0.4160 -0.9824
  502TIP3    H2 1471   6.975   3.860   5.047  0.3123 -1.1781 -0.0798
  503TIP3   OH2 1472   2.013   3.187   4.974  0.1609 -0.4385  0.2592
  503TIP3    H1 1473   1.971   3.242   4.908  1.1539  2.6074  1.9399
  503TIP3    H2 1474   2.096   3.160   4.933 -0.1533 -0.3325 -0.4568
  504TIP3   OH2 1475   0.921   4.278   1.560 -0.5395 -0.1469 -0.2423
  504TIP3    H1 1476   0.985   4.231   1.614 -2.4995 -1.0730  1.3826
  504TIP3    H2 1477   0.908   4.361   1.605 -0.0186  0.3272 -0.9429
  505TIP3   OH2 1478   4.191   1.131   5.750  0.2903  0.3409  0.0282
  505TIP3    H1 1479   4.278   1.152   5.785  1.4885 -0.7547 -2.0714
  505TIP3    H2 1480   4.193   1.036   5.735 -0.5817  0.5498 -1.7157
  506TIP3   OH2 1481   2.967   1.509   4.839  0.1716  0.0202  0.3157
  506TIP3    H1 1482   2.994   1.589   4.794 -1.5606  0.2857 -0.3378
  506TIP3    H2 1483   2.890   1.536   4.890  0.9088 -0.7337  1.8770
  507TIP3   OH2 1484   4.367   3.816   5.677  0.5170 -0.1808 -0.1952
  507TIP3    H1 1485   4.349   3.836   5.769 -0.8164  0.2382 -0.5222
  507TIP3    H2 1486   4.436   3.750   5.679  0.1830 -0.5095  1.1204
  508TIP3   OH2 1487   6.301   3.264   1.630 -0.5648  0.0060 -0.1850
  508TIP3    H1 1488   6.386   3.286   1.593 -0.5505 -1.3639 -1.0038
  508TIP3    H2 1489   6.320   3.227   1.716 -0.4130  0.4916 -0.0019
  509TIP3   OH2 1490   2.742   5.934   4.446  0.2834 -0.5572  0.1405
  509TIP3    H1 1491   2.793   5.859   4.415  0.7647  0.5320 -1.9286
  509TIP3    H2 1492   2.747   5.998   4.374 -2.2018  0.4661  0.7388
  510TIP3   OH2 1493   3.961   2.770   4.825  0.6324 -0.0076 -0.1699
  510TIP3    H1 1494   3.949   2.854   4.780 -0.8811 -0.3397 -0.4538
  510TIP3    H2 1495   3.988   2.710   4.756  0.8154  0.0445 -0.1437
  511TIP3   OH2 1496   0.581   5.150   5.441 -0.4201 -0.1239 -0.6801
  511TIP3    H1 1497   0.560   5.066   5.400 -1.6796  0.4796 -1.3368
  511TIP3    H2 1498   0.498   5.177   5.482  0.0450  0.6706 -0.2498
  512TIP3   OH2 1499   2.583   4.130   3.999 -0.4037  0.0857  0.2066
  512TIP3    H1 1500   2.603   4.120   3.906 -0.9740 -0.0448  0.0921
  512TIP3    H2 1501   2.516   4.063   4.016 -0.3091  0.1159  0.7069
  513TIP3   OH2 1502   2.266   0.051   5.561  0.0594  0.0827 -0.8747
  513TIP3    H1 1503   2.283   0.022   5.472 -0.3070 -0.2384 -0.8457
  513TIP3    H2 1504   2.283  -0.026   5.615  2.4926  0.8780 -0.4126
  514TIP3   OH2 1505   3.447   6.671   1.549 -0.2257  0.0005  0.0811
  514TIP3    H1 1506   3.401   6.755   1.542  0.2931  0.2148 -0.9719
  514TIP3    H2 1507   3.377   6.605   1.546 -0.5737  0.3664  0.0300
  515TIP3   OH2 1508   7.061   2.720   2.242 -0.3275  0.2575 -0.7271
  515TIP3    H1 1509   7.071   2.625   2.243  0.4803  0.1843 -3.8541
  515TIP3    H2 1510   7.142   2.754   2.281 -0.1277 -0.3311 -0.6188
  516TIP3   OH2 1511   6.218   5.299   3.543  0.4135 -0.0612  0.2750
  516TIP3    H1 1512   6.175   5.248   3.474  1.9463 -1.4303  0.2857
  516TIP3    H2 1513   6.200   5.250   3.623  0.9961  0.0023  0.4448
  517TIP3   OH2 1514   4.270   0.448   0.228  0.2189 -0.4895 -0.3411
  517TIP3    H1 1515   4.361   0.476   0.235  0.2275  0.2831 -2.6402
  517TIP3    H2 1516   4.250   0.455   0.135 -1.2000 -3.8379 -0.4302
  518TIP3   OH2 1517   6.397   1.748   0.527  0.0898  0.0912 -0.2048
  518TIP3    H1 1518   6.414   1.811   0.456 -0.1329  0.3942  0.0107
  518TIP3    H2 1519   6.349   1.797   0.592 -1.8442 -0.7980 -0.8898
  519TIP3   OH2 1520   2.332   3.603   2.020  0.2954 -0.6468  0.4294
  519TIP3    H1 1521   2.387   3.573   2.092  1.9812 -1.3903 -1.0857
  519TIP3    H2 1522   2.392   3.651   1.963 -1.1153  0.4107 -0.2103
  520TIP3   OH2 1523   1.393   5.794   5.758 -0.0188 -0.1073 -0.3778
  520TIP3    H1 1524   1.355   5.864   5.705 -0.3174  1.3455  1.6202
  520TIP3    H2 1525   1.392   5.829   5.847  2.0958 -1.7026  0.3539
  521TIP3   OH2 1526   4.607   3.450   1.565 -0.2064 -0.1233 -0.2699
  521TIP3    H1 1527   4.624   3.370   1.614 -0.0442 -0.5888 -1.0710
  521TIP3    H2 1528   4.642   3.433   1.477 -1.4950  0.2556 -0.8846
  522TIP3   OH2 1529   4.232   4.478   5.302 -0.3225  0.5866  0.4191
  522TIP3    H1 1530   4.205   4.554   5.353  1.4583 -0.0427  2.4203
  522TIP3    H2 1531   4.278   4.421   5.364  1.5658 -0.4660 -1.7737
  523TIP3   OH2 1532   6.129   0.471   4.168 -0.1022  0.0781 -0.1263
  523TIP3    H1 1533   6.192   0.413   4.210 -0.5820 -0.5714 -0.2915
  523TIP3    H2 1534   6.137   0.554   4.215  2.1724  0.5963 -1.3230
  524TIP3   OH2 1535   4.217   0.796   5.733 -0.5596 -0.3302  0.1522
  524TIP3    H1 1536   4.135   0.815   5.780 -1.6649 -0.4278 -1.6168
  524TIP3    H2 1537   4.206   0.839   5.648  1.5691  0.2731  0.1295
  525TIP3   OH2 1538   0.827   4.119   2.631  0.1633  0.3130 -0.0305
  525TIP3    H1 1539   0.800   4.166   2.552 -0.3978  1.5826  0.8910
  525TIP3    H2 1540   0.907   4.072   2.604 -1.1011 -0.9023 -1.8852
  526TIP3   OH2 1541   3.999   0.890   4.165 -0.3201 -0.0012  0.1332
  526TIP3    H1 1542   4.030   0.823   4.104 -0.2003  0.5339 -0.3984
  526TIP3    H2 1543   3.906   0.899   4.146 -0.0594  0.9579 -0.7444
  527TIP3   OH2 1544   5.316   5.293   3.373  0.0788  0.3425  0.4682
  527TIP3    H1 1545   5.347   5.375   3.335  0.5979  0.7057  1.6259
  527TIP3    H2 1546   5.321   5.307   3.468 -1.8455 -0.2740  0.7084
  528TIP3   OH2 1547   0.501   4.957   1.610  0.4244  0.0930  0.5976
  528TIP3    H1 1548   0.463   5.041   1.635  0.8740 -0.0936  1.9744
  528TIP3    H2 1549   0.429   4.894   1.618 -0.4170  0.5490 -2.1584
  529TIP3   OH2 1550   5.909   3.846   1.163 -0.6459  0.1592  0.5807
  529TIP3    H1 1551   5.871   3.932   1.180 -0.2320  0.0850  2.0375
  529TIP3    H2 1552   5.984   3.841   1.222 -0.1935 -0.8984 -0.0525
  530TIP3   OH2 1553   1.173   6.631   1.003  0.4025 -0.6976 -0.3487
  530TIP3    H1 1554   1.102   6.688   0.973 -0.5270 -0.6730  1.7494
  530TIP3    H2 1555   1.162   6.551   0.951 -0.6637 -0.3806 -0.6299
  531TIP3   OH2 1556   5.283   3.938   0.795 -0.7809 -0.0903 -0.2552
  531TIP3    H1 1557   5.300   3.897   0.879 -1.3150 -1.9398 -0.9910
  531TIP3    H2 1558   5.239   4.020   0.817  1.1645  0.6139  1.3097
  532TIP3   OH2 1559   3.930   4.211   1.586 -0.2622 -0.3918 -0.2002
  532TIP3    H1 1560   3.839   4.220   1.614  0.2662  1.3875  1.1641
  532TIP3    H2 1561   3.933   4.258   1.502 -0.3745  0.6445  0.3552
  533TIP3   OH2 1562   3.876   0.130   5.072  0.6546  0.1065 -0.2932
  533TIP3    H1 1563   3.923   0.203   5.113  0.1561 -0.5519  1.5404
  533TIP3    H2 1564   3.841   0.080   5.145 -0.9269 -0.7324 -1.5604
  534TIP3   OH2 1565   0.533   0.750   4.572 -0.7720 -0.4967 -0.3135
  534TIP3    H1 1566   0.610   0.791   4.613 -1.3591  1.1021 -0.7516
  534TIP3    H2 1567   0.554   0.748   4.479 -0.8607 -0.9856 -0.3255
  535TIP3   OH2 1568   0.380   6.406   0.135  0.0138 -0.1345  0.3656
  535TIP3    H1 1569   0.350   6.390   0.046  0.7007 -0.5877  0.2065
  535TIP3    H2 1570   0.340   6.336   0.187  1.6510 -1.4447 -0.0401
  536TIP3   OH2 1571   2.904   5.526   4.905 -0.3332  0.1033  0.0525
  536TIP3    H1 1572   2.900   5.509   4.999  0.0086 -0.1322  0.0253
  536TIP3    H2 1573   2.816   5.505   4.873 -0.6397  0.7981  0.4175
  537TIP3   OH2 1574   0.075   0.386   4.661 -0.1190  0.0920 -0.5899
  537TIP3    H1 1575   0.155   0.367   4.709 -0.7805  2.2817  1.6197
  537TIP3    H2 1576   0.098   0.460   4.604  0.6950 -2.5528 -4.0578
  538TIP3   OH2 1577   5.301   5.954   1.023 -0.0917 -0.4102 -0.0396
  538TIP3    H1 1578   5.247   5.937   0.946  0.2861  0.4711 -0.5179
  538TIP3    H2 1579   5.245   6.007   1.080 -0.1195 -0.4419 -0.0375
  539TIP3   OH2 1580   5.920   4.221   5.826  0.3552  0.7402 -0.0024
  539TIP3    H1 1581   6.006   4.180   5.816 -0.2591 -1.2222  1.8962
  539TIP3    H2 1582   5.937   4.315   5.823  2.1690  0.4172 -2.2399
  540TIP3   OH2 1583   1.925   6.582   2.842  0.0798 -0.4793 -0.1707
  540TIP3    H1 1584   2.010   6.566   2.802  1.4992  1.0974  2.0058
  540TIP3    H2 1585   1.925   6.530   2.922 -0.6748  0.1476  0.2534
  541TIP3   OH2 1586   7.089   0.305   0.614 -0.0419 -0.1034 -0.1060
  541TIP3    H1 1587   7.074   0.339   0.526  0.1363 -1.0486 -0.5144
  541TIP3    H2 1588   7.153   0.366   0.652  0.7434 -0.3143 -1.0317
  542TIP3   OH2 1589   3.865   5.958   1.121  0.1299 -0.2794  0.4618
  542TIP3    H1 1590   3.811   5.882   1.099 -0.6546 -0.1263  1.7512
  542TIP3    H2 1591   3.838   5.982   1.210  0.9481  1.0123  0.3914
  543TIP3   OH2 1592   3.024   1.022   2.163  0.3085  0.0614 -0.3456
  543TIP3    H1 1593   2.963   0.972   2.217 -0.7784  3.3385  1.7137
  543TIP3    H2 1594   3.102   1.033   2.218 -0.3563  2.4569  0.2086
  544TIP3   OH2 1595   1.041   3.289   5.585  0.1862 -0.0522 -0.5145
  544TIP3    H1 1596   1.125   3.259   5.551  0.0501 -1.3452  0.2166
  544TIP3    H2 1597   1.056   3.300   5.679 -0.5722 -0.7564 -0.3013
  545TIP3   OH2 1598   2.506   0.465   4.428 -0.1845  0.0993 -0.0081
  545TIP3    H1 1599   2.422   0.445   4.471 -1.2296 -1.1838 -2.4190
  545TIP3    H2 1600   2.570   0.414   4.477 -0.7340  1.1893  1.9647
  546TIP3   OH2 1601   5.905   0.023   5.851 -0.4432  0.2280  0.5386
  546TIP3    H1 1602   5.994   0.014   5.819 -0.0171 -0.9258  1.9550
  546TIP3    H2 1603   5.851  -0.023   5.786  0.4398 -2.4463  1.5965
  547TIP3   OH2 1604   1.234   1.527   1.858 -0.0604  0.0099  0.5052
  547TIP3    H1 1605   1.280   1.573   1.788 -0.9493  1.2703  0.7129
  547TIP3    H2 1606   1.196   1.450   1.815  1.0971 -0.3332  0.0553
  548TIP3   OH2 1607   2.175   3.857   1.414  0.2500  0.0424  0.5106
  548TIP3    H1 1608   2.192   3.889   1.326  0.1517 -2.6224 -0.5687
  548TIP3    H2 1609   2.257   3.873   1.462  0.1989  1.7823  0.0474
  549TIP3   OH2 1610   6.018   3.595   5.509 -0.4951  0.7313 -0.3377
  549TIP3    H1 1611   6.113   3.589   5.499 -0.3511 -0.3382  1.2658
  549TIP3    H2 1612   5.987   3.506   5.492 -0.8482  0.3232  2.0815
  550TIP3   OH2 1613   2.140   3.030   3.912  0.1455 -0.0999  0.6369
  550TIP3    H1 1614   2.152   2.966   3.982 -0.5235  0.5484  1.3707
  550TIP3    H2 1615   2.132   2.978   3.832 -1.4607 -1.0059  1.3500
  551TIP3   OH2 1616   0.248   1.786   5.111  0.0882 -0.2399  0.4033
  551TIP3    H1 1617   0.290   1.872   5.107  1.7605 -1.0384 -0.6224
  551TIP3    H2 1618   0.320   1.724   5.095 -0.8900 -1.8809  1.9978
  552TIP3   OH2 1619   1.485   1.752   2.889  0.0528 -0.6697 -0.2632
  552TIP3    H1 1620   1.433   1.751   2.970 -0.5756 -1.1711 -0.6617
  552TIP3    H2 1621   1.426   1.790   2.824  1.2510  1.7114 -0.0621
  553TIP3   OH2 1622   6.041   1.213   0.829  0.5063 -0.1475 -0.4745
  553TIP3    H1 1623   5.960   1.260   0.808  0.6296 -0.2256 -1.1698
  553TIP3    H2 1624   6.069   1.176   0.745  1.8885  0.8463 -0.4846
  554TIP3   OH2 1625   1.074   4.410   4.365 -0.1174  0.3546 -0.6087
  554TIP3    H1 1626   1.010   4.472   4.400  0.2489  0.9104 -0.9206
  554TIP3    H2 1627   1.067   4.334   4.423  1.6315  1.8419  1.7569
  555TIP3   OH2 1628   4.494   3.143   4.393  0.1613  0.0823  0.4455
  555TIP3    H1 1629   4.483   3.105   4.480 -0.3287 -0.6645  0.0676
  555TIP3    H2 1630   4.409   3.131   4.351  0.2604  0.8267  0.0075
  556TIP3   OH2 1631   4.475   5.216   2.423 -0.1285 -0.5212  0.6419
  556TIP3    H1 1632   4.542   5.269   2.379  0.6227 -1.3465  0.7538
  556TIP3    H2 1633   4.492   5.127   2.393 -0.5496 -0.8838  1.4507
  557TIP3   OH2 1634   5.033   2.122   2.236 -0.1759  0.0259  0.4332
  557TIP3    H1 1635   4.980   2.202   2.232  0.8233  0.7563  1.1502
  557TIP3    H2 1636   4.994   2.064   2.171  0.8792  2.1837 -2.2951
  558TIP3   OH2 1637   5.872   6.435   1.683  0.2258  0.0957 -0.1386
  558TIP3    H1 1638   5.791   6.438   1.734 -0.0355 -1.8392 -0.3455
  558TIP3    H2 1639   5.938   6.404   1.745  0.5399  0.4709 -0.2823
  559TIP3   OH2 1640   3.303   2.095   1.182 -0.1910  0.6112  0.1965
  559TIP3    H1 1641   3.357   2.044   1.122 -0.8694 -0.9931  0.8880
  559TIP3    H2 1642   3.363   2.161   1.218  0.7676  0.1852 -0.5608
  560TIP3   OH2 1643   1.139   4.733   2.641  0.0682 -0.2449 -0.0528
  560TIP3    H1 1644   1.114   4.643   2.660  2.0612 -1.4570 -2.4865
  560TIP3    H2 1645   1.075   4.762   2.576 -0.6811  0.1864  0.8640
  561TIP3   OH2 1646   0.164   2.499   2.669  0.3014  0.1255  0.0785
  561TIP3    H1 1647   0.200   2.491   2.758 -0.3099  0.2773  0.3447
  561TIP3    H2 1648   0.117   2.582   2.670  0.3206  0.1428 -0.4038
  562TIP3   OH2 1649   5.149   0.560   5.297  0.4200  0.0644 -0.2151
  562TIP3    H1 1650   5.081   0.552   5.229  0.2290  2.2237 -0.3687
  562TIP3    H2 1651   5.108   0.525   5.376 -0.8387  1.1231 -0.3592
  563TIP3   OH2 1652   5.916   2.177   2.674 -0.0645  0.0289  0.1914
  563TIP3    H1 1653   5.883   2.179   2.584  0.8967 -0.8291 -0.1994
  563TIP3    H2 1654   5.887   2.093   2.708  0.5915 -0.1734  0.2686
  564TIP3   OH2 1655   2.128   1.669   0.297 -0.0568  0.1194 -0.3383
  564TIP3    H1 1656   2.103   1.649   0.207  2.6514 -0.5970 -1.0181
  564TIP3    H2 1657   2.141   1.764   0.298 -1.5554  0.3603 -0.2290
  565TIP3   OH2 1658   1.958   1.857   0.763 -0.1789 -0.0519  0.1281
  565TIP3    H1 1659   1.991   1.774   0.799  0.6257  0.7186  1.2462
  565TIP3    H2 1660   2.034   1.898   0.723 -0.0653  1.0801  1.4345
  566TIP3   OH2 1661   4.149   2.258   0.955  0.6452  0.3367 -0.4538
  566TIP3    H1 1662   4.234   2.297   0.934  0.1650  0.4731 -2.3124
  566TIP3    H2 1663   4.117   2.309   1.029  1.9922  0.5344  0.0242
  567TIP3   OH2 1664   3.844   6.454   1.405 -0.4782 -0.1854  0.4501
  567TIP3    H1 1665   3.780   6.429   1.472 -1.5644 -2.0787 -1.1564
  567TIP3    H2 1666   3.928   6.449   1.449 -0.8963 -3.9713  1.1950
  568TIP3   OH2 1667   1.584   1.170   3.600  0.0512 -0.2882  0.2923
  568TIP3    H1 1668   1.614   1.250   3.557  0.9997  0.7153  2.5874
  568TIP3    H2 1669   1.590   1.102   3.533  0.8551  1.2522 -1.2747
  569TIP3   OH2 1670   1.797   6.779   2.577 -0.3710  0.1061 -0.0287
  569TIP3    H1 1671   1.714   6.743   2.610 -0.0374  0.0047  0.7183
  569TIP3    H2 1672   1.830   6.832   2.649  0.3770 -0.1163 -0.2025
  570TIP3   OH2 1673   4.623   1.242   2.670 -0.4809  0.0724 -0.2715
  570TIP3    H1 1674   4.657   1.153   2.683 -0.8686 -0.0247  0.0983
  570TIP3    H2 1675   4.686   1.283   2.611  0.8057  0.1907  1.1086
  571TIP3   OH2 1676   6.534   4.204   5.530 -0.3325 -0.4021 -0.4018
  571TIP3    H1 1677   6.506   4.296   5.535 -0.9305 -0.4645 -1.9641
  571TIP3    H2 1678   6.587   4.191   5.609 -0.6697  1.1285  0.1258
  572TIP3   OH2 1679   2.480   4.067   0.648  0.1957 -0.1285  0.2305
  572TIP3    H1 1680   2.483   4.161   0.632 -0.9844  0.0435  0.8303
  572TIP3    H2 1681   2.412   4.034   0.589  0.5116 -0.5866  0.1134
  573TIP3   OH2 1682   2.808   2.729   3.887  0.1345  0.6667 -0.7234
  573TIP3    H1 1683   2.727   2.680   3.899  0.5610  0.1668  0.2628
  573TIP3    H2 1684   2.781   2.821   3.886 -0.5299  0.4684 -1.2888
  574TIP3   OH2 1685   1.205   2.696   5.629 -0.1253  0.3067 -0.5731
  574TIP3    H1 1686   1.289   2.653   5.644 -0.3349 -0.6072 -1.8748
  574TIP3    H2 1687   1.225   2.790   5.636  0.5121  0.0577  1.4270
  575TIP3   OH2 1688   2.362   1.935   5.320 -0.8132  0.1288  0.0184
  575TIP3    H1 1689   2.403   1.965   5.239 -0.7770 -0.0596 -0.0329
  575TIP3    H2 1690   2.277   1.980   5.322 -0.6458  0.4477  0.0800
  576TIP3   OH2 1691   7.014  -0.029   2.797  0.4553  0.7494 -0.1203
  576TIP3    H1 1692   7.093  -0.018   2.850  0.3598 -0.1037  0.2203
  576TIP3    H2 1693   6.964   0.051   2.811  1.1642  1.2030 -0.1721
  577TIP3   OH2 1694   6.038   4.790   5.772 -0.0514 -0.0675  0.0194
  577TIP3    H1 1695   5.980   4.724   5.811 -2.2169  0.6082 -1.8092
  577TIP3    H2 1696   6.105   4.739   5.727 -1.5531 -1.0969 -1.1693
  578TIP3   OH2 1697   6.571   1.754   3.611  0.3128 -0.4747  0.3350
  578TIP3    H1 1698   6.487   1.740   3.655 -0.6685 -0.4076 -1.4077
  578TIP3    H2 1699   6.586   1.848   3.618  0.1308 -0.4537  0.4500
  579TIP3   OH2 1700   5.429   0.052   1.264  0.5564  0.1711 -0.0327
  579TIP3    H1 1701   5.511   0.050   1.214  0.4993 -1.3099 -0.0950
  579TIP3    H2 1702   5.391   0.137   1.242  0.3920 -0.5205 -2.7574
  580TIP3   OH2 1703   0.703   6.178   3.262  0.1355  0.5958 -0.0633
  580TIP3    H1 1704   0.629   6.167   3.322  1.5506 -2.3638  1.4026
  580TIP3    H2 1705   0.768   6.226   3.313  0.6949 -0.4068  0.2034
  581TIP3   OH2 1706   1.624   1.702   3.206 -0.9179 -0.9350  0.2084
  581TIP3    H1 1707   1.678   1.632   3.241 -0.1910 -1.1549 -1.2731
  581TIP3    H2 1708   1.543   1.659   3.179 -1.2681 -0.8502  1.0817
  582TIP3   OH2 1709   1.943   2.237   1.304 -0.4688  0.5168 -0.3740
  582TIP3    H1 1710   1.985   2.168   1.356  0.3547  0.5867 -0.9280
  582TIP3    H2 1711   1.948   2.315   1.360 -1.0399  0.2233  0.0897
  583TIP3   OH2 1712   1.817   3.532   1.632  0.1868 -0.5319  0.0768
  583TIP3    H1 1713   1.813   3.438   1.649  0.7435 -0.6947 -0.6616
  583TIP3    H2 1714   1.886   3.564   1.689  1.5417 -0.9569 -1.2563
  584TIP3   OH2 1715   2.246   6.210   0.975 -0.2011 -0.0096  0.3969
  584TIP3    H1 1716   2.281   6.124   0.998 -2.3522 -0.8111  0.8669
  584TIP3    H2 1717   2.303   6.240   0.904  2.9964 -0.0379  2.7336
  585TIP3   OH2 1718   1.585   3.967   2.842  0.3763 -0.3251  0.1016
  585TIP3    H1 1719   1.577   3.880   2.804  0.6501 -0.1709 -0.3213
  585TIP3    H2 1720   1.604   3.952   2.935 -2.1475 -0.7085  0.6152
  586TIP3   OH2 1721   3.652   2.796   3.850  0.1193  0.0508  0.2323
  586TIP3    H1 1722   3.686   2.866   3.795  0.5463  0.0537  0.4951
  586TIP3    H2 1723   3.693   2.810   3.935 -3.1830  2.1738  1.6614
  587TIP3   OH2 1724   0.351   2.255   0.445  0.2678  0.3052  0.3635
  587TIP3    H1 1725   0.303   2.335   0.467  0.4751 -0.1229  2.5932
  587TIP3    H2 1726   0.409   2.240   0.520  1.4577 -1.0183 -0.7646
  588TIP3   OH2 1727   0.949   1.835   0.014 -0.9100  0.3312 -0.0888
  588TIP3    H1 1728   0.873   1.787  -0.018  0.2272  0.4987 -3.4098
  588TIP3    H2 1729   0.920   1.874   0.097 -3.2059 -2.5316  0.5930
  589TIP3   OH2 1730   5.958   6.261   5.112 -0.3084  0.5074  0.1168
  589TIP3    H1 1731   5.953   6.184   5.055 -3.0129  0.3375  0.4541
  589TIP3    H2 1732   6.028   6.239   5.175  1.1107 -0.2920 -1.6353
  590TIP3   OH2 1733   1.280   4.512   0.613 -0.2850  0.6329  0.2119
  590TIP3    H1 1734   1.247   4.493   0.700  0.6139  1.3898  0.7360
  590TIP3    H2 1735   1.242   4.597   0.590 -0.3102  0.5597 -0.0248
  591TIP3   OH2 1736   3.753   5.734   2.678  0.4492  0.0303  0.4006
  591TIP3    H1 1737   3.748   5.692   2.764  1.3666  0.0604  0.4703
  591TIP3    H2 1738   3.840   5.773   2.674  0.1306  0.7160 -0.2335
  592TIP3   OH2 1739   6.872   2.138   3.703  0.1424  0.7648 -0.5531
  592TIP3    H1 1740   6.943   2.118   3.643 -1.1934 -1.9824 -1.3891
  592TIP3    H2 1741   6.913   2.189   3.773  2.8032 -0.2305 -1.2753
  593TIP3   OH2 1742   1.613   5.303   4.509  0.0104  0.1740  0.1189
  593TIP3    H1 1743   1.563   5.246   4.567  0.0161  0.5388  0.4827
  593TIP3    H2 1744   1.547   5.355   4.464 -0.0530 -0.7125 -0.8623
  594TIP3   OH2 1745   2.750   0.587   0.144 -0.0110  0.4267 -0.0774
  594TIP3    H1 1746   2.694   0.551   0.213 -0.3898  0.7348 -0.2231
  594TIP3    H2 1747   2.771   0.676   0.174 -0.6620  0.7764 -0.6379
  595TIP3   OH2 1748   1.906   0.008   3.677  0.4976 -0.1347  0.3220
  595TIP3    H1 1749   1.839  -0.024   3.617 -0.7461 -1.2604  2.1929
  595TIP3    H2 1750   1.893   0.103   3.680 -1.7090 -0.4128  1.3574
  596TIP3   OH2 1751   4.183   3.978   5.510  0.1242 -0.0657 -0.3083
  596TIP3    H1 1752   4.245   3.904   5.514  0.6439  0.4074  1.0913
  596TIP3    H2 1753   4.111   3.946   5.456  1.2469 -0.8934 -1.3809
  597TIP3   OH2 1754   3.956   1.818   0.688 -0.2855 -0.4346 -0.4217
  597TIP3    H1 1755   3.983   1.732   0.657 -3.1164 -2.2470  1.6515
  597TIP3    H2 1756   3.860   1.817   0.681 -0.4786  2.2258  0.5095
  598TIP3   OH2 1757   4.677   1.383   0.736  0.1850 -0.1945  0.4047
  598TIP3    H1 1758   4.599   1.393   0.791 -0.6075 -0.9277 -0.5301
  598TIP3    H2 1759   4.713   1.298   0.761 -1.1429 -1.3310 -1.3021
  599TIP3   OH2 1760   5.831   2.699   2.463  0.4761 -0.1551  0.4904
  599TIP3    H1 1761   5.744   2.672   2.491 -0.1561  0.2525 -1.0190
  599TIP3    H2 1762   5.889   2.629   2.496 -0.5729 -1.1218  0.3594
  600TIP3   OH2 1763   3.191   0.852   3.916  0.0359 -0.0945 -0.2639
  600TIP3    H1 1764   3.246   0.779   3.887 -1.0435 -0.6088 -1.0599
  600TIP3    H2 1765   3.215   0.864   4.008  1.2376 -0.5139 -0.4950
  601TIP3   OH2 1766   0.288   6.786   0.118 -0.8243  0.3292  0.1350
  601TIP3    H1 1767   0.341   6.731   0.176 -0.9982 -0.6653 -0.6213
  601TIP3    H2 1768   0.263   6.861   0.172 -0.3600 -0.2020  1.1125
  602TIP3   OH2 1769   4.006   2.486   1.547  0.3318 -0.2962  0.0044
  602TIP3    H1 1770   3.938   2.477   1.481 -0.2783  0.9442  0.4457
  602TIP3    H2 1771   3.967   2.450   1.627  0.7289 -0.9159 -0.0710
  603TIP3   OH2 1772   1.742   2.281   3.232 -0.1542 -0.1479  0.0850
  603TIP3    H1 1773   1.677   2.274   3.162  1.2680  1.9670 -1.5767
  603TIP3    H2 1774   1.793   2.200   3.226 -0.3165 -0.1829 -1.0629
  604TIP3   OH2 1775   3.955   4.013   4.999 -0.1006 -0.4327 -0.4761
  604TIP3    H1 1776   3.927   3.931   4.958 -0.4052  1.1498 -3.7338
  604TIP3    H2 1777   4.050   4.006   5.007 -0.2624 -1.6272  0.6210
  605TIP3   OH2 1778   4.753   0.888   3.280  0.6124  0.0308  0.2787
  605TIP3    H1 1779   4.709   0.816   3.234  0.2736  0.2662  0.2269
  605TIP3    H2 1780   4.772   0.853   3.367  1.3616 -0.4555 -0.0796
  606TIP3   OH2 1781   3.383   5.028   0.278 -0.0500 -0.0753 -0.1941
  606TIP3    H1 1782   3.383   5.123   0.266 -0.6498 -0.1961 -1.3055
  606TIP3    H2 1783   3.435   4.994   0.205 -0.8769 -0.6700 -0.5182
  607TIP3   OH2 1784   6.631   4.591   4.784 -0.1184 -0.3486 -0.3756
  607TIP3    H1 1785   6.574   4.539   4.728 -0.4461 -0.7554  0.3203
  607TIP3    H2 1786   6.715   4.544   4.783 -0.0757 -0.2690 -0.6400
  608TIP3   OH2 1787   6.313   0.070   1.780 -0.2758  1.0985  0.3414
  608TIP3    H1 1788   6.227   0.029   1.783  0.4880 -0.6233  0.0613
  608TIP3    H2 1789   6.310   0.129   1.705 -0.7835 -0.0147 -0.5426
  609TIP3   OH2 1790  -0.030   0.788   4.301  0.3133 -0.0013  0.2272
  609TIP3    H1 1791   0.040   0.843   4.338  0.0342 -0.8434  2.1031
  609TIP3    H2 1792   0.013   0.738   4.232  1.2816  0.3533  0.5520
  610TIP3   OH2 1793   6.816   1.231   3.236  0.1202 -0.3615 -0.3771
  610TIP3    H1 1794   6.899   1.268   3.206  0.7096 -1.3673 -0.0396
  610TIP3    H2 1795   6.840   1.172   3.307 -0.8100 -1.2201 -0.7502
  611TIP3   OH2 1796   6.743   4.999   2.520  0.2663 -0.1878 -0.0713
  611TIP3    H1 1797   6.760   5.061   2.449  0.2761 -1.1676 -0.9396
  611TIP3    H2 1798   6.650   4.980   2.514  0.5305 -1.3825 -0.7713
  612TIP3   OH2 1799   2.705   2.273   5.109 -0.4413  0.1713  0.0338
  612TIP3    H1 1800   2.732   2.352   5.156 -1.3450  0.8625 -0.5745
  612TIP3    H2 1801   2.624   2.298   5.066 -0.1556 -0.7597 -1.0745
  613TIP3   OH2 1802   3.183   6.298   5.732  0.5496 -0.3452  0.0868
  613TIP3    H1 1803   3.245   6.302   5.660  1.2370 -0.9508  0.6281
  613TIP3    H2 1804   3.217   6.229   5.789 -1.4167 -1.7710 -0.3466
  614TIP3   OH2 1805   6.791   3.581   4.659  0.4298  0.1429  0.3982
  614TIP3    H1 1806   6.801   3.529   4.579  0.0775  0.9622 -0.1919
  614TIP3    H2 1807   6.804   3.519   4.730 -1.8194 -1.1622 -0.2498
  615TIP3   OH2 1808   2.559   3.546   0.935 -0.0301 -0.4297  0.3151
  615TIP3    H1 1809   2.510   3.513   0.860 -0.1039  0.5733 -0.0911
  615TIP3    H2 1810   2.597   3.468   0.974  1.4867 -0.8536 -1.8064
  616TIP3   OH2 1811   1.452   5.081   0.044 -0.4095 -0.0467 -0.2519
  616TIP3    H1 1812   1.367   5.042   0.026 -0.5143 -0.0111  0.1392
  616TIP3    H2 1813   1.512   5.041  -0.019 -0.6508 -0.3187 -0.3095
  617TIP3   OH2 1814   2.759   0.799   3.136  0.3188 -0.3412  0.4281
  617TIP3    H1 1815   2.778   0.763   3.049 -1.1615 -2.2449  0.8133
  617TIP3    H2 1816   2.760   0.722   3.193 -1.1289  0.5306  1.6644
  618TIP3   OH2 1817   4.549   3.276   3.972 -0.2755 -0.4035  0.3520
  618TIP3    H1 1818   4.532   3.336   4.045  1.7575 -1.1556  1.5340
  618TIP3    H2 1819   4.622   3.315   3.925 -1.2552 -0.1768 -1.0489
  619TIP3   OH2 1820   1.354   0.193   3.681  0.0630 -0.2948  0.3502
  619TIP3    H1 1821   1.306   0.191   3.764 -0.4445 -2.2697  0.0715
  619TIP3    H2 1822   1.288   0.176   3.614  0.7486 -0.5665 -0.2725
  620TIP3   OH2 1823   0.763   5.520   4.035 -0.4649  0.2279  0.1671
  620TIP3    H1 1824   0.716   5.568   4.103  0.0833  0.1153  0.6334
  620TIP3    H2 1825   0.816   5.586   3.990  0.5051  0.0319  0.9917
  621TIP3   OH2 1826   5.583   0.383   0.263  0.2305 -0.0808 -0.2191
  621TIP3    H1 1827   5.651   0.410   0.324 -0.7636 -0.9771  1.3881
  621TIP3    H2 1828   5.608   0.295   0.237 -0.1768 -0.3226  0.1929
  622TIP3   OH2 1829   2.200   5.761   5.209 -0.4149  0.0399 -0.3477
  622TIP3    H1 1830   2.140   5.734   5.140 -0.7562  0.5063 -0.2391
  622TIP3    H2 1831   2.156   5.739   5.290 -0.1423 -0.2364 -0.2733
  623TIP3   OH2 1832   6.021   2.770   2.284 -0.0798 -0.0600 -0.1197
  623TIP3    H1 1833   5.980   2.734   2.205 -0.6029  0.0307  0.1068
  623TIP3    H2 1834   5.957   2.753   2.353  0.4029 -0.1880  0.2965
  624TIP3   OH2 1835   2.107   0.306   2.653  0.2641 -0.0400  0.5383
  624TIP3    H1 1836   2.073   0.298   2.564  1.0083 -0.1526  0.2583
  624TIP3    H2 1837   2.080   0.226   2.697 -0.1803  0.0554  0.4434
  625TIP3   OH2 1838   5.267   4.116   1.638 -0.0595  0.1371 -0.1513
  625TIP3    H1 1839   5.293   4.026   1.655 -0.0979  0.4228  1.5052
  625TIP3    H2 1840   5.343   4.155   1.593  0.3392 -0.4448  0.0074
  626TIP3   OH2 1841   4.716   2.203   1.876 -0.0382 -0.4282  0.1135
  626TIP3    H1 1842   4.651   2.154   1.824  0.6302 -0.6741 -0.5030
  626TIP3    H2 1843   4.800   2.178   1.839  0.3449  0.9675 -0.0202
  627TIP3   OH2 1844   2.137   3.957   4.189 -0.5707  0.5294  0.3083
  627TIP3    H1 1845   2.082   3.887   4.225 -0.8618  0.7766  0.3491
  627TIP3    H2 1846   2.112   4.035   4.238  1.2423  0.2743  1.7202
  628TIP3   OH2 1847   6.529   3.340   3.678 -0.3097  0.1438 -0.4099
  628TIP3    H1 1848   6.556   3.364   3.590  0.9761  1.6277  0.3357
  628TIP3    H2 1849   6.562   3.251   3.690  1.3270  0.6834 -0.7298
  629TIP3   OH2 1850   3.095   5.494   2.157 -0.2578 -0.2548  0.3755
  629TIP3    H1 1851   3.154   5.560   2.122 -0.4985 -1.2170 -2.0036
  629TIP3    H2 1852   3.151   5.437   2.210  0.3372  0.6020  0.6928
  630TIP3   OH2 1853   3.669   1.529   3.209 -0.2537  0.2642  0.1592
  630TIP3    H1 1854   3.638   1.555   3.295  0.2639 -2.3914  1.2271
  630TIP3    H2 1855   3.603   1.467   3.177  0.6986 -0.5147 -0.3449
  631TIP3   OH2 1856   1.580   5.527   2.112 -0.0312 -0.2005 -0.2037
  631TIP3    H1 1857   1.539   5.597   2.163 -3.5788 -0.7906 -1.9656
  631TIP3    H2 1858   1.515   5.457   2.110  2.8761 -3.2324  0.4894
  632TIP3   OH2 1859   4.237   3.750   3.114 -0.0222  0.5515 -0.3327
  632TIP3    H1 1860   4.146   3.722   3.108  0.6295 -1.4931 -1.3900
  632TIP3    H2 1861   4.245   3.819   3.048 -0.0533 -1.5603 -2.6407
  633TIP3   OH2 1862   6.203   2.250   1.159 -0.3849 -0.2004 -0.0336
  633TIP3    H1 1863   6.283   2.291   1.193  0.9040 -3.5850  1.4457
  633TIP3    H2 1864   6.229   2.213   1.074 -0.2949 -1.4187  0.5065
  634TIP3   OH2 1865   6.833   0.637   0.398 -0.6207  0.0408 -0.2425
  634TIP3    H1 1866   6.918   0.594   0.393  0.8196  2.7840 -2.7606
  634TIP3    H2 1867   6.772   0.578   0.354  0.5162 -0.8472 -0.6482
  635TIP3   OH2 1868   5.011   3.172   4.434  0.4418  0.0110  0.2716
  635TIP3    H1 1869   4.999   3.114   4.358  1.8950 -1.5953  1.1835
  635TIP3    H2 1870   4.922   3.197   4.459 -0.0941  0.2440 -1.6785
  636TIP3   OH2 1871   5.779   0.585   4.923 -0.0046  0.5617 -0.1087
  636TIP3    H1 1872   5.798   0.514   4.984 -0.4661  0.6033  0.0844
  636TIP3    H2 1873   5.686   0.578   4.905  0.2211  0.2302 -1.2231
  637TIP3   OH2 1874   3.055   5.765   1.993  0.1260  0.3261  0.3950
  637TIP3    H1 1875   3.023   5.848   2.028  0.4019  0.1358  1.1162
  637TIP3    H2 1876   3.143   5.756   2.029  0.0973 -0.2829  0.3226
  638TIP3   OH2 1877   2.802   2.116   3.567 -0.0554 -0.1982 -0.2058
  638TIP3    H1 1878   2.764   2.151   3.647 -0.8616  1.3497 -1.2001
  638TIP3    H2 1879   2.855   2.188   3.532  1.3290 -1.2762 -0.4367
  639TIP3   OH2 1880   2.456   4.561   3.589 -0.3401  1.2500 -0.1718
  639TIP3    H1 1881   2.395   4.533   3.521 -0.7075  1.6160  0.0060
  639TIP3    H2 1882   2.401   4.595   3.659 -0.0800 -0.9309  1.1657
  640TIP3   OH2 1883   6.022   2.201   4.621  0.0896 -0.1796 -0.3514
  640TIP3    H1 1884   5.974   2.237   4.696  0.5471  0.6311 -0.4363
  640TIP3    H2 1885   6.110   2.184   4.655  0.3272  0.2828 -0.7146
  641TIP3   OH2 1886   3.094   3.715   0.576  0.1144 -0.2382  0.0579
  641TIP3    H1 1887   3.102   3.654   0.503  0.2197  1.6385 -1.5739
  641TIP3    H2 1888   3.149   3.789   0.552 -0.7290  0.9247  1.5253
  642TIP3   OH2 1889   4.351   1.910   4.034  0.1173  0.3988  0.1965
  642TIP3    H1 1890   4.285   1.874   4.093 -0.9669  1.1231 -0.5177
  642TIP3    H2 1891   4.379   1.991   4.076 -1.2864  1.3663 -0.6170
  643TIP3   OH2 1892   2.860   2.561   1.820 -0.4297  0.7616  0.3214
  643TIP3    H1 1893   2.784   2.527   1.772  1.3250 -0.9911 -1.4374
  643TIP3    H2 1894   2.926   2.575   1.752  0.3834  3.7508  1.5737
  644TIP3   OH2 1895   3.659   0.414   2.717 -0.8685  0.2666  0.2292
  644TIP3    H1 1896   3.720   0.485   2.696 -1.0998  0.2430 -0.5273
  644TIP3    H2 1897   3.678   0.346   2.652 -1.7674  0.2954 -0.0706
  645TIP3   OH2 1898   5.356   0.957   5.533 -0.4950  0.8816 -0.3101
  645TIP3    H1 1899   5.449   0.954   5.552 -0.5326  0.2733 -0.2113
  645TIP3    H2 1900   5.345   0.899   5.458 -0.9647 -0.0057  0.4228
  646TIP3   OH2 1901   2.484   0.750   5.347 -0.3128  0.0663  0.1712
  646TIP3    H1 1902   2.405   0.749   5.293  0.0177  0.5285 -0.3177
  646TIP3    H2 1903   2.532   0.671   5.321 -0.6983 -0.3248  0.6121
  647TIP3   OH2 1904   0.198   2.795   1.441  0.4491 -0.3338  0.1232
  647TIP3    H1 1905   0.250   2.735   1.387 -0.4839 -0.9556 -0.0966
  647TIP3    H2 1906   0.151   2.738   1.501 -1.0247  0.1109 -0.5760
  648TIP3   OH2 1907   7.109   4.774   0.590 -0.3356 -0.2704  0.2461
  648TIP3    H1 1908   7.031   4.730   0.557 -1.3000  0.9525  0.8307
  648TIP3    H2 1909   7.123   4.736   0.677 -0.5960 -0.1095  0.3583
  649TIP3   OH2 1910   5.479   4.107   3.372  0.6510 -0.2048 -0.2692
  649TIP3    H1 1911   5.462   4.016   3.347 -1.3449  0.3798 -1.2911
  649TIP3    H2 1912   5.407   4.128   3.431 -0.0172  1.2380 -1.5396
  650TIP3   OH2 1913   5.249   4.225   5.231 -0.4599  0.6066 -0.1223
  650TIP3    H1 1914   5.174   4.285   5.229 -0.7378  0.3833  1.6737
  650TIP3    H2 1915   5.210   4.139   5.245  0.0966  0.5196  1.0877
  651TIP3   OH2 1916   4.292   2.989   4.231 -0.3165 -0.4584  0.5468
  651TIP3    H1 1917   4.359   2.930   4.197  0.4176 -0.5627  2.1140
  651TIP3    H2 1918   4.233   3.003   4.156  0.6547 -1.4782 -0.4558
  652TIP3   OH2 1919   1.847   2.874   5.197 -0.3630 -0.3295 -0.3342
  652TIP3    H1 1920   1.935   2.865   5.234 -0.2460  0.0568 -0.5112
  652TIP3    H2 1921   1.862   2.892   5.104 -0.4182  4.0106  0.2778
  653TIP3   OH2 1922   5.206   3.915   2.147  0.4025  0.3731 -0.0510
  653TIP3    H1 1923   5.173   3.992   2.101 -0.2222  0.0227 -0.1883
  653TIP3    H2 1924   5.220   3.850   2.078 -0.7647 -0.2386  0.2616
  654TIP3   OH2 1925   5.619   3.643   3.165  0.4122  0.1479 -0.2700
  654TIP3    H1 1926   5.576   3.582   3.105  0.5849 -0.1275 -0.1172
  654TIP3    H2 1927   5.547   3.689   3.207  0.2937  0.5599 -0.9047
  655TIP3   OH2 1928   4.717   5.524   2.896 -0.0734  0.3723  0.8094
  655TIP3    H1 1929   4.638   5.481   2.929 -0.4197 -0.1807 -0.6730
  655TIP3    H2 1930   4.687   5.577   2.823  1.1692 -1.5570 -1.2314
  656TIP3   OH2 1931   3.222   2.294   2.342 -0.2579  0.7955 -0.1933
  656TIP3    H1 1932   3.312   2.274   2.368  0.3004 -0.0574 -2.4747
  656TIP3    H2 1933   3.193   2.360   2.404  1.0022 -0.7667  2.1961
  657TIP3   OH2 1934   6.053   6.261   5.785  0.2343 -0.1795 -0.1569
  657TIP3    H1 1935   5.999   6.236   5.860  2.5529 -0.2039  1.6208
  657TIP3    H2 1936   5.990   6.280   5.715 -2.0920  1.1193  2.1330
  658TIP3   OH2 1937   2.803   0.848   1.923 -0.3145 -0.1862  0.1709
  658TIP3    H1 1938   2.777   0.926   1.873  1.6798  0.5819  0.2636
  658TIP3    H2 1939   2.734   0.838   1.989 -0.7534  1.3370 -0.0270
  659TIP3   OH2 1940   1.888   0.787   5.125 -0.8383 -0.2646 -0.2929
  659TIP3    H1 1941   1.925   0.704   5.093  0.0455  0.3254 -0.8445
  659TIP3    H2 1942   1.931   0.854   5.072 -1.9403  0.5221 -0.2161
  660TIP3   OH2 1943   5.583   2.590   3.251 -0.1566  0.4172  0.0051
  660TIP3    H1 1944   5.580   2.519   3.187  3.3757 -0.7381  0.8711
  660TIP3    H2 1945   5.534   2.557   3.326 -0.5886 -0.0476 -0.4736
  661TIP3   OH2 1946   6.897   2.932   3.596 -0.1666 -0.2852 -0.0016
  661TIP3    H1 1947   6.968   2.982   3.556  0.3828 -1.3818 -0.4604
  661TIP3    H2 1948   6.940   2.855   3.634 -0.9990 -0.5163  0.5115
  662TIP3   OH2 1949   2.031   4.519   5.482  0.1473  0.1036  0.1094
  662TIP3    H1 1950   1.936   4.509   5.470 -0.0768  0.8421  1.1332
  662TIP3    H2 1951   2.057   4.443   5.534  0.3962 -0.8701 -1.3644
  663TIP3   OH2 1952   0.700   2.099   4.953 -0.5083  0.4398  0.4804
  663TIP3    H1 1953   0.697   2.192   4.975  0.7284  0.4157  0.7843
  663TIP3    H2 1954   0.788   2.071   4.978 -1.2686 -1.1066  1.5502
  664TIP3   OH2 1955   5.243   2.885   5.217 -0.1197 -0.0221  0.4682
  664TIP3    H1 1956   5.305   2.814   5.202  0.4405  0.3334  1.0472
  664TIP3    H2 1957   5.203   2.865   5.302 -0.7491 -0.2047  0.1390
  665TIP3   OH2 1958   5.739   0.033   1.860  0.5203  0.0391 -0.5139
  665TIP3    H1 1959   5.750  -0.062   1.866 -1.6819 -0.3156 -0.9679
  665TIP3    H2 1960   5.659   0.050   1.911  0.4490  1.5313 -1.0927
  666TIP3   OH2 1961   6.575   5.876   3.873 -0.1688  0.0168  0.3307
  666TIP3    H1 1962   6.652   5.924   3.842  0.0962 -1.6452 -1.8195
  666TIP3    H2 1963   6.606   5.786   3.884 -1.6064 -0.5267  0.1179
  667TIP3   OH2 1964   0.804   2.174   5.601 -0.0833  0.6451  0.0428
  667TIP3    H1 1965   0.808   2.080   5.614 -0.9338  0.7323  1.0449
  667TIP3    H2 1966   0.884   2.208   5.641  0.1210  0.3728 -0.1331
  668TIP3   OH2 1967   0.245   5.631   3.334  0.0809 -0.0099  0.5995
  668TIP3    H1 1968   0.217   5.584   3.413 -1.5521  1.6742  1.1013
  668TIP3    H2 1969   0.170   5.687   3.312  0.9033  0.3195 -1.5601
  669TIP3   OH2 1970   1.609   5.635   4.384 -0.5326 -0.3521 -0.8206
  669TIP3    H1 1971   1.669   5.595   4.320  1.7357  2.4171 -0.6291
  669TIP3    H2 1972   1.552   5.691   4.331 -0.0911  0.2697 -0.6527
  670TIP3   OH2 1973   5.772   6.783   4.931  0.6458  0.0135  0.1474
  670TIP3    H1 1974   5.723   6.742   5.002 -0.7731 -0.6413 -1.1594
  670TIP3    H2 1975   5.852   6.815   4.973 -0.8187  1.0426  2.3338
  671TIP3   OH2 1976   0.895   1.211   1.093  0.1206  0.2783 -0.2460
  671TIP3    H1 1977   0.896   1.218   0.997  2.2056 -1.6234 -0.4325
  671TIP3    H2 1978   0.811   1.170   1.112  0.0095 -0.0570 -1.3504
  672TIP3   OH2 1979   3.716   0.527   1.552  0.1551 -0.5219 -0.0504
  672TIP3    H1 1980   3.783   0.476   1.598  0.3845 -0.1229  0.0595
  672TIP3    H2 1981   3.725   0.501   1.460  0.9581  0.0652 -0.1539
  673TIP3   OH2 1982   4.067   3.445   0.812 -0.5053  0.1360 -0.0904
  673TIP3    H1 1983   4.059   3.375   0.748 -0.5659 -0.7236  0.8407
  673TIP3    H2 1984   4.094   3.521   0.761 -0.5135 -0.5398 -1.1237
  674TIP3   OH2 1985   2.548   3.432   5.761  0.0189 -0.3192  0.4889
  674TIP3    H1 1986   2.517   3.418   5.672 -0.1728 -1.3157  0.6970
  674TIP3    H2 1987   2.641   3.410   5.757  0.7050  2.3930 -0.0730
  675TIP3   OH2 1988   4.772   5.617   1.109  0.3552 -0.3272 -0.1491
  675TIP3    H1 1989   4.800   5.525   1.109 -1.3496 -0.8706  0.0638
  675TIP3    H2 1990   4.854   5.666   1.119  1.1187 -1.9155  2.8742
  676TIP3   OH2 1991   6.995   4.546   0.251 -0.2453 -0.7781  0.4371
  676TIP3    H1 1992   7.029   4.528   0.339  1.5221 -1.5182 -0.3559
  676TIP3    H2 1993   7.072   4.550   0.195 -1.0842  2.2403 -0.7139
  677TIP3   OH2 1994   3.544   5.289   2.397 -0.4706  0.5613  0.2775
  677TIP3    H1 1995   3.595   5.208   2.384 -1.1502  0.0466  0.7722
  677TIP3    H2 1996   3.605   5.359   2.375  0.0762 -0.0902 -0.3473
  678TIP3   OH2 1997   6.870   3.338   3.209  0.4044 -0.1089  0.0356
  678TIP3    H1 1998   6.775   3.349   3.213  0.4120 -0.3346  1.4338
  678TIP3    H2 1999   6.902   3.425   3.184 -0.1737 -0.0985 -0.7056
  679TIP3   OH2 2000   3.331   5.546   1.099  0.5194  0.1532  0.3640
  679TIP3    H1 2001   3.245   5.587   1.097  1.1868  1.6363  0.8456
  679TIP3    H2 2002   3.336   5.504   1.185 -1.1296 -3.2536 -1.0175
  680TIP3   OH2 2003   2.760   2.570   2.939 -0.0620 -0.7749  0.0936
  680TIP3    H1 2004   2.694   2.639   2.935  0.1535 -0.6375 -1.2806
  680TIP3    H2 2005   2.843   2.614   2.921  0.0479 -1.4222 -1.0659
  681TIP3   OH2 2006   4.044   3.964   4.040  0.0990  0.0096  0.3055
  681TIP3    H1 2007   4.053   4.036   4.102  2.5438  1.3497 -1.4338
  681TIP3    H2 2008   4.098   3.894   4.076 -1.7272 -0.8046  1.6404
  682TIP3   OH2 2009   0.393   2.953   3.873  0.0942  0.6753 -0.2195
  682TIP3    H1 2010   0.479   2.959   3.913  1.0536  1.3144 -2.2225
  682TIP3    H2 2011   0.358   3.042   3.876  0.5569  0.9273 -1.4881
  683TIP3   OH2 2012   0.229   4.718   0.237  0.1977 -0.3688  0.3865
  683TIP3    H1 2013   0.296   4.652   0.256 -0.2513 -0.5619  1.3336
  683TIP3    H2 2014   0.210   4.758   0.321  0.8171  1.3485 -0.2492
  684TIP3   OH2 2015   4.804   0.280   5.130  0.3111  0.6295  0.1498
  684TIP3    H1 2016   4.715   0.244   5.133  0.9209 -1.1314 -1.0396
  684TIP3    H2 2017   4.853   0.227   5.193  0.6920  1.0351  0.1919
  685TIP3   OH2 2018   0.758   4.072   2.012 -0.3529 -0.7213  0.0336
  685TIP3    H1 2019   0.737   4.056   2.104  0.6295  2.3163  0.8886
  685TIP3    H2 2020   0.755   4.167   2.002  0.3729 -0.8961 -2.9043
  686TIP3   OH2 2021   3.491   1.937   5.328  0.3378 -0.0638  0.5147
  686TIP3    H1 2022   3.493   1.869   5.261 -0.3207  1.3188 -0.9564
  686TIP3    H2 2023   3.583   1.965   5.335  0.4919 -0.5642  0.5888
  687TIP3   OH2 2024   4.790   0.469   2.091  0.1167  0.2070 -0.5130
  687TIP3    H1 2025   4.709   0.455   2.139  0.0019  1.3387 -0.3524
  687TIP3    H2 2026   4.852   0.500   2.157  0.8081 -0.9969 -0.5592
  688TIP3   OH2 2027   4.398   2.818   2.393 -0.2836 -0.5703  0.0548
  688TIP3    H1 2028   4.393   2.842   2.301  2.4801  0.5133  0.0724
  688TIP3    H2 2029   4.377   2.725   2.395 -0.0368 -0.6890 -1.7341
  689TIP3   OH2 2030   4.125   1.394   2.329  0.0266  0.4433  0.0355
  689TIP3    H1 2031   4.111   1.456   2.401  0.8397 -0.9597  1.4906
  689TIP3    H2 2032   4.138   1.449   2.252  0.3620  2.0617  1.1862
  690TIP3   OH2 2033   2.972   6.353   3.143 -0.2284 -0.3440  0.8689
  690TIP3    H1 2034   2.999   6.443   3.124  0.7165 -0.5240  1.2599
  690TIP3    H2 2035   2.877   6.355   3.142 -0.2139  0.6204  0.6882
  691TIP3   OH2 2036   3.746   5.399   1.188  0.6785  0.0400  0.4456
  691TIP3    H1 2037   3.794   5.479   1.208 -0.9594  1.4390 -0.9491
  691TIP3    H2 2038   3.755   5.346   1.267  0.6607  2.1776  1.9731
  692TIP3   OH2 2039   2.853   5.181   0.090 -0.2197 -0.0741 -0.4004
  692TIP3    H1 2040   2.810   5.264   0.109  1.4960  1.2203 -1.7682
  692TIP3    H2 2041   2.888   5.192   0.001 -0.1392 -2.3605 -0.7069
  693TIP3   OH2 2042   6.396   5.554   2.431  0.2634 -0.0228 -0.3799
  693TIP3    H1 2043   6.388   5.593   2.344 -0.7809 -0.2228 -0.3916
  693TIP3    H2 2044   6.380   5.461   2.416  0.8178 -0.1677 -0.0761
  694TIP3   OH2 2045   5.002   3.443   3.207 -0.1105  0.5932  0.2474
  694TIP3    H1 2046   5.021   3.536   3.207 -0.9648  0.8265 -2.0252
  694TIP3    H2 2047   4.912   3.437   3.174  0.3194 -1.0858 -0.7051
  695TIP3   OH2 2048   5.553   5.779   1.038  0.4007 -0.8861  1.1233
  695TIP3    H1 2049   5.469   5.813   1.008  0.9970 -2.5990 -3.1499
  695TIP3    H2 2050   5.607   5.857   1.051 -0.9467  0.1317  0.7792
  696TIP3   OH2 2051   0.561   6.695   3.735 -0.0711 -0.5132 -0.4553
  696TIP3    H1 2052   0.652   6.678   3.763  0.2698  0.7252 -0.7710
  696TIP3    H2 2053   0.543   6.784   3.765 -1.8524 -1.3627  1.2493
  697TIP3   OH2 2054   1.893   1.474   0.387 -0.5094 -0.1622  0.2466
  697TIP3    H1 2055   1.909   1.483   0.481  0.3494  0.8785  0.0219
  697TIP3    H2 2056   1.929   1.388   0.365  3.1507  1.1896  0.1715
  698TIP3   OH2 2057   5.425   4.846   3.280  0.1386  0.0887 -0.1340
  698TIP3    H1 2058   5.506   4.818   3.238 -0.3057  0.0740 -0.9928
  698TIP3    H2 2059   5.452   4.914   3.342  0.8602 -0.2602 -0.0573
  699TIP3   OH2 2060   6.064   3.992   0.541 -0.2321 -0.0300  0.0312
  699TIP3    H1 2061   6.141   3.990   0.484 -0.5702  0.9693 -0.4971
  699TIP3    H2 2062   5.991   3.971   0.483 -0.3702 -0.9180  0.5181
  700TIP3   OH2 2063   1.024   4.567   3.175 -0.8013 -0.2022  0.1666
  700TIP3    H1 2064   1.038   4.616   3.094 -0.0444  0.6112  0.7740
  700TIP3    H2 2065   1.104   4.515   3.186 -0.5602  0.2935  0.7972
  701TIP3   OH2 2066   4.443   2.641   3.119 -0.5936 -0.0341 -0.1812
  701TIP3    H1 2067   4.431   2.710   3.054 -0.2214  1.1579  0.9648
  701TIP3    H2 2068   4.465   2.563   3.068 -0.2733  0.8649 -1.4658
  702TIP3   OH2 2069   7.107   0.479   4.239  0.1742 -0.3905  0.0475
  702TIP3    H1 2070   7.074   0.404   4.190  1.6460 -1.3279  0.4183
  702TIP3    H2 2071   7.031   0.536   4.251 -1.0182 -1.8996 -0.1023
  703TIP3   OH2 2072   4.899   6.099   4.072 -0.0235  0.2827  0.1791
  703TIP3    H1 2073   4.985   6.093   4.032 -0.8426  1.9437 -2.0505
  703TIP3    H2 2074   4.842   6.129   4.001 -2.1912  0.4687  1.9021
  704TIP3   OH2 2075   5.328   0.111   5.593 -0.0178 -0.1200  1.1151
  704TIP3    H1 2076   5.281   0.077   5.669  2.1025  0.0188  2.5489
  704TIP3    H2 2077   5.370   0.191   5.624  1.6013 -0.5193  0.0727
  705TIP3   OH2 2078   0.389   4.371   3.855 -0.0091  0.0616 -0.1339
  705TIP3    H1 2079   0.335   4.292   3.851  1.7022 -1.2433  1.2624
  705TIP3    H2 2080   0.356   4.425   3.783 -0.8629 -2.1449 -1.5323
  706TIP3   OH2 2081   4.441   4.193   1.254 -0.7036 -0.3414 -0.4240
  706TIP3    H1 2082   4.372   4.235   1.304 -0.5012 -1.8671  1.2736
  706TIP3    H2 2083   4.432   4.100   1.275  1.2484 -0.6858 -0.9191
  707TIP3   OH2 2084   6.981   3.862   4.248  0.0563 -0.3476 -0.2502
  707TIP3    H1 2085   6.995   3.821   4.333 -0.0632  1.5611  0.7308
  707TIP3    H2 2086   6.887   3.853   4.232 -0.1010  0.2226  0.3307
  708TIP3   OH2 2087   3.496   0.651   4.857  0.9601 -0.2003 -0.5628
  708TIP3    H1 2088   3.502   0.704   4.777  1.2660 -1.3942 -1.3583
  708TIP3    H2 2089   3.440   0.702   4.915  2.3210  1.6392 -0.7651
  709TIP3   OH2 2090   6.058   4.383   5.637  0.2693  0.5914  0.2062
  709TIP3    H1 2091   5.987   4.414   5.693  0.0783  0.4410  0.0496
  709TIP3    H2 2092   6.122   4.454   5.637  1.1369 -0.1440  2.1157
  710TIP3   OH2 2093   4.881   3.709   0.459 -0.6318  0.3721 -0.4038
  710TIP3    H1 2094   4.794   3.673   0.475  0.3976 -2.6420 -1.0160
  710TIP3    H2 2095   4.902   3.757   0.539 -2.5456  0.5268  0.0404
  711TIP3   OH2 2096   4.098   3.466   2.035  0.1386 -0.0945 -0.1273
  711TIP3    H1 2097   4.125   3.547   2.077  1.4955 -0.4753 -0.2406
  711TIP3    H2 2098   4.163   3.451   1.967 -0.3103 -1.0873 -0.3584
  712TIP3   OH2 2099   1.552   4.574   2.240 -0.0753 -0.5458  0.0598
  712TIP3    H1 2100   1.482   4.577   2.175 -0.9707 -0.5728  0.9898
  712TIP3    H2 2101   1.600   4.655   2.228 -0.1617 -0.5976 -0.6942
  713TIP3   OH2 2102   1.163   2.739   3.012 -0.3985  0.2869  0.8332
  713TIP3    H1 2103   1.229   2.787   2.962 -0.4200  0.6385  1.1386
  713TIP3    H2 2104   1.156   2.787   3.094 -0.3438 -0.3074  1.1877
  714TIP3   OH2 2105   7.115   1.550   4.914 -0.0432 -0.2355  0.0833
  714TIP3    H1 2106   7.107   1.489   4.987  0.6556 -0.5482 -0.0881
  714TIP3    H2 2107   7.158   1.499   4.845  0.3885  0.3918 -0.1243
  715TIP3   OH2 2108   6.355   6.806   4.207  0.2821  0.4780  0.2714
  715TIP3    H1 2109   6.331   6.813   4.115 -0.4637  0.0567  0.4192
  715TIP3    H2 2110   6.281   6.760   4.247  1.1372 -0.4358  0.8486
  716TIP3   OH2 2111   5.104   5.525   5.253  0.4347  0.1506  0.1936
  716TIP3    H1 2112   5.029   5.480   5.291  0.2564 -0.0586 -0.3955
  716TIP3    H2 2113   5.101   5.613   5.291  0.2086 -0.0222  0.5847
  717TIP3   OH2 2114   1.526   3.854   1.213 -0.4692  0.2330  0.5874
  717TIP3    H1 2115   1.531   3.758   1.207  0.6797  0.2109  1.4973
  717TIP3    H2 2116   1.470   3.871   1.288 -1.2886  0.3058 -0.0207
  718TIP3   OH2 2117   4.984   1.836   3.770  0.4087 -0.1650  0.1170
  718TIP3    H1 2118   4.925   1.887   3.714  0.9625  0.3372 -0.0172
  718TIP3    H2 2119   4.983   1.882   3.854  0.7292 -0.0615  0.0658
  719TIP3   OH2 2120   2.199   4.948   4.625  0.1063  0.6760 -0.1055
  719TIP3    H1 2121   2.293   4.966   4.621  0.4897 -0.9674  0.8487
  719TIP3    H2 2122   2.174   4.929   4.534  0.6368  1.2841 -0.3899
  720TIP3   OH2 2123   3.261   0.734   4.479 -0.0350  0.4087 -0.4327
  720TIP3    H1 2124   3.248   0.771   4.567  2.4629 -1.5533  0.9099
  720TIP3    H2 2125   3.242   0.640   4.490 -0.4424  0.2669 -2.1901
  721TIP3   OH2 2126   5.062   5.771   5.334  0.2253  0.2134 -0.1532
  721TIP3    H1 2127   5.053   5.861   5.303 -0.2500  0.1870 -0.0930
  721TIP3    H2 2128   5.044   5.775   5.428  1.3233  0.2358  0.0649
  722TIP3   OH2 2129   2.945   6.755   2.199  0.2782  0.3371 -0.0614
  722TIP3    H1 2130   2.982   6.771   2.286  2.9671 -1.3588 -0.7441
  722TIP3    H2 2131   2.989   6.819   2.142  0.5793 -0.2935 -0.5546
  723TIP3   OH2 2132   2.150   5.133   2.149 -0.1399  0.5160 -0.1839
  723TIP3    H1 2133   2.085   5.203   2.143  0.2399  0.9429  0.5141
  723TIP3    H2 2134   2.222   5.161   2.093  0.0313  0.7136  0.1305
  724TIP3   OH2 2135   6.084   5.650   2.840 -0.2201 -0.7428  0.1757
  724TIP3    H1 2136   6.136   5.589   2.788  0.0779  0.2371 -0.6924
  724TIP3    H2 2137   6.051   5.714   2.777 -0.4015  0.0891  1.0887
  725TIP3   OH2 2138   4.951   0.235   4.820  0.0132 -0.3357  0.5215
  725TIP3    H1 2139   4.942   0.330   4.833  0.5187 -0.0080 -1.3137
  725TIP3    H2 2140   4.865   0.207   4.788  0.2707 -0.2395 -0.2730
  726TIP3   OH2 2141   3.353   3.390   1.369 -0.0137  0.4236  0.4630
  726TIP3    H1 2142   3.401   3.438   1.301 -0.9499 -1.1847 -1.4208
  726TIP3    H2 2143   3.303   3.324   1.321  0.7267 -2.0399  2.8482
  727TIP3   OH2 2144   0.351   5.812   0.623  0.5739  0.1350  0.4731
  727TIP3    H1 2145   0.321   5.902   0.613  0.5319  0.1878  1.0467
  727TIP3    H2 2146   0.273   5.758   0.609  0.6521  0.1698 -0.1293
  728TIP3   OH2 2147   5.034   2.100   4.929 -0.0608  0.3419 -0.1661
  728TIP3    H1 2148   5.026   2.005   4.943  1.1389  0.1712 -0.5777
  728TIP3    H2 2149   4.964   2.137   4.983  0.5589 -0.6708  1.4321
  729TIP3   OH2 2150   5.902   5.729   3.018 -0.0385 -0.2828 -0.5898
  729TIP3    H1 2151   5.837   5.745   2.950 -0.6624 -3.6068 -0.9479
  729TIP3    H2 2152   5.984   5.714   2.970  0.1485  0.1267 -0.4013
  730TIP3   OH2 2153   0.451   3.827   4.636 -0.1600 -0.3566 -0.4196
  730TIP3    H1 2154   0.374   3.885   4.631  1.6835  2.1835 -1.6759
  730TIP3    H2 2155   0.427   3.753   4.581 -2.6477 -0.9567  1.2860
  731TIP3   OH2 2156   6.117   6.218   2.627  0.1509  0.0582 -0.2407
  731TIP3    H1 2157   6.207   6.203   2.600  0.2563 -0.9225  0.5676
  731TIP3    H2 2158   6.124   6.246   2.719 -0.2373  2.4570 -0.8795
  732TIP3   OH2 2159   1.570   2.397   4.260  0.1782 -0.5475  0.1372
  732TIP3    H1 2160   1.548   2.474   4.313  1.1106 -1.1116  1.3877
  732TIP3    H2 2161   1.594   2.433   4.175  0.1367  0.5145  0.5604
  733TIP3   OH2 2162   2.064   3.692   3.348  0.8026  0.1753 -0.4849
  733TIP3    H1 2163   2.006   3.641   3.292  1.8404  0.7521 -2.1304
  733TIP3    H2 2164   2.011   3.768   3.374  0.4405  0.0970 -0.9882
  734TIP3   OH2 2165   2.113   2.179   0.793  0.1515  0.2137  0.0130
  734TIP3    H1 2166   2.207   2.166   0.778  0.3955 -0.6310  1.9830
  734TIP3    H2 2167   2.097   2.142   0.880 -1.9183  0.8202 -0.0548
  735TIP3   OH2 2168   0.485   4.170   1.628  0.0229 -0.2392  0.0797
  735TIP3    H1 2169   0.401   4.205   1.599 -0.0399  2.0096  2.6123
  735TIP3    H2 2170   0.545   4.192   1.557 -0.8590  1.4105 -0.2231
  736TIP3   OH2 2171   3.243   3.439   4.064 -0.1366 -0.1486  0.4500
  736TIP3    H1 2172   3.175   3.507   4.063  0.2872  0.3698 -2.6096
  736TIP3    H2 2173   3.209   3.373   4.125 -2.3752  1.0342  0.6174
  737TIP3   OH2 2174   5.478   3.762   0.034  0.3034 -0.3789 -0.1618
  737TIP3    H1 2175   5.525   3.684   0.004 -1.3861 -1.3534 -0.4115
  737TIP3    H2 2176   5.407   3.727   0.089  0.4533  1.0995  1.0277
  738TIP3   OH2 2177   0.846   4.205   3.994 -0.0989  0.0361  0.2474
  738TIP3    H1 2178   0.882   4.118   4.013  1.8098  0.8341  0.5323
  738TIP3    H2 2179   0.895   4.264   4.051 -1.2298  1.3281 -0.0718
  739TIP3   OH2 2180   0.128   2.197   3.929 -0.4408 -0.1280  0.5268
  739TIP3    H1 2181   0.129   2.290   3.903 -1.5006 -0.1642  0.2908
  739TIP3    H2 2182   0.209   2.161   3.893  0.2844  0.8390  1.1548
  740TIP3   OH2 2183   5.873   4.137   3.974 -0.4842  0.4455  0.1250
  740TIP3    H1 2184   5.879   4.048   3.940 -1.1584  1.0204 -1.6297
  740TIP3    H2 2185   5.959   4.155   4.011  0.0899 -0.4930 -0.7033
  741TIP3   OH2 2186   4.504   6.523   4.983 -0.2637 -0.2660 -0.4081
  741TIP3    H1 2187   4.577   6.584   4.973 -1.0484  0.6995 -0.4485
  741TIP3    H2 2188   4.427   6.573   4.956 -0.9972 -1.1352 -0.0023
  742TIP3   OH2 2189   4.566   2.243   4.203  0.0731  0.2668  0.1877
  742TIP3    H1 2190   4.638   2.185   4.176 -1.2750 -0.7192 -1.5324
  742TIP3    H2 2191   4.604   2.331   4.199  1.6235 -0.3340  0.9176
  743TIP3   OH2 2192   2.298   6.723   3.297 -0.0143  0.1872  0.2198
  743TIP3    H1 2193   2.214   6.752   3.260 -0.4553 -2.1596 -0.7772
  743TIP3    H2 2194   2.274   6.676   3.377  0.4647  0.4294  0.5106
  744TIP3   OH2 2195   7.066   1.334   3.889 -0.1750  0.4980 -0.6646
  744TIP3    H1 2196   6.991   1.383   3.854 -1.1609 -0.7026 -0.3460
  744TIP3    H2 2197   7.143   1.380   3.856 -1.0596  1.3671 -1.6029
  745TIP3   OH2 2198   3.575   5.875   5.674  0.8956 -0.1740  0.2125
  745TIP3    H1 2199   3.579   5.956   5.725  2.2429  0.1993 -0.4426
  745TIP3    H2 2200   3.649   5.881   5.613  1.1132 -1.9726  0.2539
  746TIP3   OH2 2201   2.368   3.214   3.881  0.1172 -0.5148  0.2309
  746TIP3    H1 2202   2.453   3.219   3.924  1.0563 -0.8778 -1.5023
  746TIP3    H2 2203   2.388   3.200   3.789 -1.8465 -1.7878 -0.0624
  747TIP3   OH2 2204   1.647   1.306   0.389  0.3905 -0.0893  0.2700
  747TIP3    H1 2205   1.699   1.386   0.387  0.5389 -0.1610  1.1938
  747TIP3    H2 2206   1.697   1.244   0.336  0.4033  0.3445 -0.2340
  748TIP3   OH2 2207   1.753   2.369   5.114  0.2037  0.0786  0.0955
  748TIP3    H1 2208   1.769   2.447   5.060 -1.3821  0.5032  0.1760
  748TIP3    H2 2209   1.729   2.301   5.051 -2.1142  0.6978  0.1975
  749TIP3   OH2 2210   3.333   0.030   1.456 -0.7389 -0.3026  0.3659
  749TIP3    H1 2211   3.369   0.119   1.451 -1.6659  0.0168 -1.5564
  749TIP3    H2 2212   3.401  -0.026   1.419 -0.2487 -0.3898  1.3635
  750TIP3   OH2 2213   2.346   3.152   5.779  0.5284 -0.2041 -0.0989
  750TIP3    H1 2214   2.433   3.114   5.790  0.5954  0.7255  4.1172
  750TIP3    H2 2215   2.355   3.243   5.808 -1.9524 -0.3461  1.4486
  751TIP3   OH2 2216  -0.022   5.584   4.152 -0.1543  0.2845  0.3915
  751TIP3    H1 2217   0.052   5.580   4.214  0.9831  0.3249 -0.9140
  751TIP3    H2 2218  -0.023   5.497   4.112 -0.2944  0.5618 -0.2033
  752TIP3   OH2 2219   2.290   2.867   5.138  0.0384 -0.3745  0.2245
  752TIP3    H1 2220   2.309   2.829   5.224  2.0235  0.2657  0.1126
  752TIP3    H2 2221   2.310   2.960   5.147  0.6693 -0.3599 -1.0212
  753TIP3   OH2 2222   5.616   3.013   0.146  0.2824 -0.4481  0.1553
  753TIP3    H1 2223   5.692   2.962   0.175  0.7073 -0.2932 -0.6565
  753TIP3    H2 2224   5.567   2.954   0.090 -2.1114 -1.7654  3.2915
  754TIP3   OH2 2225   2.101   1.790   2.647 -0.5681  0.8927  0.1362
  754TIP3    H1 2226   2.022   1.737   2.659  0.6615 -0.6441  1.9650
  754TIP3    H2 2227   2.115   1.832   2.732  0.0899  1.8941 -0.4452
  755TIP3   OH2 2228   1.458   2.984   5.003  0.1420 -0.2993  0.0523
  755TIP3    H1 2229   1.382   2.980   4.945  0.0126 -2.3050  0.2991
  755TIP3    H2 2230   1.428   3.036   5.078  0.0886  1.7086 -1.2787
  756TIP3   OH2 2231   6.386   1.161   0.467  0.1872 -0.0635  0.6685
  756TIP3    H1 2232   6.414   1.104   0.395 -0.2461  1.0600 -0.4462
  756TIP3    H2 2233   6.463   1.214   0.488  0.3606 -0.5044  1.1518
  757TIP3   OH2 2234   2.359   1.841   3.326 -0.3673 -0.4455 -0.1339
  757TIP3    H1 2235   2.379   1.787   3.250 -3.1219 -2.6192  0.5148
  757TIP3    H2 2236   2.423   1.815   3.392  0.9238  0.1845 -1.0895
  758TIP3   OH2 2237   5.212   6.309   0.736 -0.2678  0.2088 -0.2584
  758TIP3    H1 2238   5.259   6.379   0.779 -1.8000  0.4499  1.1475
  758TIP3    H2 2239   5.264   6.288   0.658 -0.5558  3.9669 -1.6454
  759TIP3   OH2 2240   0.348   0.937   4.358  0.1114  0.0411  0.0281
  759TIP3    H1 2241   0.325   0.919   4.449  0.9832  2.1295  0.7314
  759TIP3    H2 2242   0.426   0.883   4.342  0.9054  0.8268  1.0807
  760TIP3   OH2 2243   6.198   5.693   5.740  0.3904 -0.3588 -0.4508
  760TIP3    H1 2244   6.263   5.701   5.810  0.3799 -0.9296 -0.3750
  760TIP3    H2 2245   6.132   5.634   5.774  0.4530 -0.7502 -0.9872
  761TIP3   OH2 2246   4.661   5.103   0.030 -0.5034  0.5665 -0.2440
  761TIP3    H1 2247   4.686   5.180   0.081  0.3962  1.3912 -1.8308
  761TIP3    H2 2248   4.575   5.078   0.064 -0.8752  2.3602  0.2464
  762TIP3   OH2 2249   2.329   0.305   3.356  0.1456 -0.1859 -0.0843
  762TIP3    H1 2250   2.391   0.240   3.322  0.4296  0.2334 -0.3934
  762TIP3    H2 2251   2.328   0.291   3.450  0.1532 -0.6803 -0.1547
  763TIP3   OH2 2252   4.779   4.571   5.255 -0.5185  0.0914  0.0767
  763TIP3    H1 2253   4.836   4.640   5.222 -1.1123  0.3527 -0.4307
  763TIP3    H2 2254   4.707   4.567   5.192  0.2480 -2.0096 -0.7431
  764TIP3   OH2 2255   6.729   0.686   2.231 -0.0317  0.3016 -0.5878
  764TIP3    H1 2256   6.679   0.742   2.290  0.6307 -0.7324  1.0031
  764TIP3    H2 2257   6.664   0.637   2.182 -0.5796  0.9544 -0.5308
  765TIP3   OH2 2258   1.578   6.604   4.674  0.4925  0.1734  0.6649
  765TIP3    H1 2259   1.488   6.579   4.651  0.3075  0.0890  1.4228
  765TIP3    H2 2260   1.606   6.662   4.604  0.0375 -0.2269  0.1433
  766TIP3   OH2 2261   2.046   1.839   3.560  0.0646 -0.4379 -0.0623
  766TIP3    H1 2262   2.130   1.878   3.537 -1.3552  2.4840 -0.7571
  766TIP3    H2 2263   2.003   1.823   3.476 -0.6923 -0.3499  0.2928
  767TIP3   OH2 2264   0.467   0.336   2.647  0.0337 -0.1674  0.4177
  767TIP3    H1 2265   0.480   0.394   2.571  1.1550 -0.1489  0.6077
  767TIP3    H2 2266   0.554   0.324   2.683 -0.3187 -1.2056  0.9652
  768TIP3   OH2 2267   4.818   4.774   0.790 -0.5445 -0.0554  0.0913
  768TIP3    H1 2268   4.761   4.801   0.717  0.0714 -0.2120 -0.4481
  768TIP3    H2 2269   4.779   4.692   0.821 -1.3617  0.4882  0.5606
  769TIP3   OH2 2270   2.203   3.230   1.490  0.3408  0.0859  0.0359
  769TIP3    H1 2271   2.222   3.259   1.579  0.1907 -2.0595  0.8258
  769TIP3    H2 2272   2.116   3.266   1.470  0.4801  0.7718  0.6503
  770TIP3   OH2 2273   0.943   0.034   1.090 -0.6384 -0.3728 -0.0684
  770TIP3    H1 2274   0.871   0.003   1.145 -0.3408  1.9057  1.7653
  770TIP3    H2 2275   0.985   0.103   1.142  1.1833  0.2506 -2.2054
  771TIP3   OH2 2276   6.626   1.764   5.536  0.8041  0.5226 -0.0045
  771TIP3    H1 2277   6.566   1.787   5.465  1.4593  1.8586 -0.1468
  771TIP3    H2 2278   6.654   1.675   5.515  0.5209  0.6720 -1.1086
  772TIP3   OH2 2279   6.199   6.448   5.349 -0.0326  0.4404  0.7727
  772TIP3    H1 2280   6.241   6.365   5.371  0.0637 -0.5421 -2.6192
  772TIP3    H2 2281   6.272   6.505   5.321 -0.4759  0.1076 -1.1802
  773TIP3   OH2 2282   4.112   5.925   3.827 -0.1466 -0.3015 -0.6610
  773TIP3    H1 2283   4.115   5.933   3.732 -1.8093 -1.8009 -0.8993
  773TIP3    H2 2284   4.047   5.989   3.855  0.5444  0.3338 -0.4921
  774TIP3   OH2 2285   6.582   5.783   5.708  0.1926  0.0790 -0.1171
  774TIP3    H1 2286   6.569   5.873   5.737  1.3899 -0.3504  1.9861
  774TIP3    H2 2287   6.673   5.780   5.679  0.6882 -0.7987  1.4277
  775TIP3   OH2 2288   2.409   5.113   5.349 -0.6483 -0.1916  0.3653
  775TIP3    H1 2289   2.424   5.136   5.440 -0.5970  2.2481 -0.1741
  775TIP3    H2 2290   2.334   5.054   5.350  1.6826 -3.4146  2.2103
  776TIP3   OH2 2291   6.476   5.682   0.263  0.3917 -0.3966 -0.1421
  776TIP3    H1 2292   6.527   5.720   0.192  0.6197  0.2308  0.3440
  776TIP3    H2 2293   6.501   5.733   0.340 -0.3978 -0.5881  0.2488
  777TIP3   OH2 2294   6.015   2.000   3.262  0.3986 -0.2325  0.8448
  777TIP3    H1 2295   6.000   2.087   3.300  0.7146  0.9716 -1.5947
  777TIP3    H2 2296   6.104   2.004   3.227 -0.3224 -0.7304 -1.2019
  778TIP3   OH2 2297   0.999   0.471   0.395 -0.3347 -0.2847  0.2649
  778TIP3    H1 2298   1.040   0.519   0.467 -0.7082  0.2534  0.1255
  778TIP3    H2 2299   1.073   0.436   0.345 -0.0534  0.2751  0.2852
  779TIP3   OH2 2300   1.909   4.764   4.281  0.6746  0.2282 -0.0619
  779TIP3    H1 2301   1.852   4.717   4.343  1.1188  0.7910  0.7871
  779TIP3    H2 2302   1.857   4.839   4.254  0.4456 -0.0662 -0.4435
  780TIP3   OH2 2303   2.788   6.526   5.590 -0.3528 -0.2588 -0.0817
  780TIP3    H1 2304   2.778   6.562   5.501 -2.2694 -1.8544 -0.5946
  780TIP3    H2 2305   2.737   6.586   5.645  1.5692  1.2484  0.1661
  781TIP3   OH2 2306   1.059   3.648   0.561 -0.0393  0.0428 -0.0506
  781TIP3    H1 2307   1.012   3.596   0.496 -1.2031  0.9018  0.0709
  781TIP3    H2 2308   0.995   3.712   0.591  0.4842 -0.2940  1.9198
  782TIP3   OH2 2309   5.422   3.737   2.694  0.0890  0.3280  0.4929
  782TIP3    H1 2310   5.401   3.663   2.751 -1.6414  0.4333  0.0655
  782TIP3    H2 2311   5.498   3.779   2.735 -0.4286 -0.2418  2.1182
  783TIP3   OH2 2312   1.235   1.758   0.939 -0.1154  0.2029  0.2319
  783TIP3    H1 2313   1.275   1.672   0.928 -0.9051 -0.3287  1.3260
  783TIP3    H2 2314   1.141   1.743   0.928 -0.1022  1.4535 -2.4600
  784TIP3   OH2 2315   6.700   2.214   0.054  0.0778 -0.3528 -0.7540
  784TIP3    H1 2316   6.691   2.309   0.041  1.6398  0.1980  1.4750
  784TIP3    H2 2317   6.653   2.196   0.135  0.1991 -1.4101 -0.9004
  785TIP3   OH2 2318   4.530   6.247   1.748  0.8890 -0.0294  0.1308
  785TIP3    H1 2319   4.466   6.175   1.745  0.5866  0.2086 -2.9638
  785TIP3    H2 2320   4.573   6.244   1.662  3.1626  1.5203  1.1200
  786TIP3   OH2 2321   4.301   1.376   1.695 -0.0649  0.1821  0.3761
  786TIP3    H1 2322   4.382   1.426   1.702  0.4994 -0.6097 -0.2721
  786TIP3    H2 2323   4.329   1.288   1.670 -1.2752  0.6212 -3.0025
  787TIP3   OH2 2324   6.609   0.605   4.741  0.0475  0.0979  0.2424
  787TIP3    H1 2325   6.565   0.675   4.789  2.4720  0.3409  2.3214
  787TIP3    H2 2326   6.576   0.525   4.780 -1.0765  0.1204 -0.6158
  788TIP3   OH2 2327   3.773   1.612   1.946 -0.0775  0.2536 -0.2143
  788TIP3    H1 2328   3.698   1.621   1.888 -0.8650  1.2851  0.8964
  788TIP3    H2 2329   3.758   1.529   1.992  0.8809 -0.8988 -1.8602
  789TIP3   OH2 2330   6.168   1.742   0.830  0.2796  0.2419  0.0814
  789TIP3    H1 2331   6.114   1.744   0.909 -0.6179 -2.2156 -0.3801
  789TIP3    H2 2332   6.254   1.771   0.858 -0.9949  3.6314  1.0030
  790TIP3   OH2 2333   2.969   3.607   2.325 -1.0224 -0.9353 -0.5561
  790TIP3    H1 2334   3.021   3.551   2.382  1.2877  0.9864 -0.6380
  790TIP3    H2 2335   2.986   3.575   2.237 -0.1340 -0.4698 -0.5613
  791TIP3   OH2 2336   5.208   6.032   2.219  0.3929  0.2410 -0.2766
  791TIP3    H1 2337   5.151   6.109   2.212 -0.3300 -0.0818  1.5548
  791TIP3    H2 2338   5.279   6.059   2.277  1.4192  0.2012 -1.4523
  792TIP3   OH2 2339   3.428   2.889   2.775 -0.1477 -0.0712 -0.2355
  792TIP3    H1 2340   3.439   2.974   2.818 -0.2798  0.0674 -0.4761
  792TIP3    H2 2341   3.334   2.872   2.778 -0.3250  0.5604 -1.6560
  793TIP3   OH2 2342   0.260   6.369   1.820  0.3273 -0.3011 -0.4938
  793TIP3    H1 2343   0.293   6.291   1.865 -0.7656 -0.7272 -0.4256
  793TIP3    H2 2344   0.340   6.417   1.795  0.9958 -1.1790 -0.1001
  794TIP3   OH2 2345   5.021   2.046   2.792  0.2136 -0.4115  0.0636
  794TIP3    H1 2346   5.067   2.054   2.875 -0.7693  1.0609  0.5006
  794TIP3    H2 2347   4.936   2.088   2.806 -0.1740 -0.5681 -1.5373
  795TIP3   OH2 2348   4.556   4.196   2.142 -0.1549  0.1423  0.0483
  795TIP3    H1 2349   4.594   4.283   2.149 -0.5387  0.4056 -0.9386
  795TIP3    H2 2350   4.466   4.211   2.114  0.7342 -0.5830 -3.8152
  796TIP3   OH2 2351   0.907   1.166   1.579  0.2090 -0.6889 -0.0674
  796TIP3    H1 2352   0.929   1.117   1.658 -2.0495 -0.7396  0.6166
  796TIP3    H2 2353   0.957   1.124   1.509  3.0445 -0.0049  1.4337
  797TIP3   OH2 2354   1.020   6.623   2.636  0.1486  0.1235  0.4205
  797TIP3    H1 2355   1.106   6.591   2.664  0.7926  0.8345 -0.6718
  797TIP3    H2 2356   0.989   6.557   2.573 -0.2087 -0.2423  0.9754
  798TIP3   OH2 2357   6.432   3.065   4.482 -0.3511 -0.1920  0.3256
  798TIP3    H1 2358   6.454   3.008   4.556 -1.1932 -0.3502  0.4566
  798TIP3    H2 2359   6.382   3.136   4.521  0.1049  0.2856  0.0544
  799TIP3   OH2 2360   3.525   6.651  -0.032  0.0584  0.1112 -0.2573
  799TIP3    H1 2361   3.609   6.614  -0.002  0.7547  0.8964 -1.1659
  799TIP3    H2 2362   3.476   6.667   0.049  0.2798 -1.4770  0.2261
  800TIP3   OH2 2363   7.057   0.242   2.336  1.2105  0.0607  0.4251
  800TIP3    H1 2364   6.989   0.174   2.333  1.9629 -0.6952 -1.2748
  800TIP3    H2 2365   7.030   0.305   2.269  2.3701 -0.4867 -0.5998
  801TIP3   OH2 2366   3.793   0.291   1.318 -0.2350 -0.1050 -0.2970
  801TIP3    H1 2367   3.863   0.246   1.365 -0.8918 -0.0291  0.7919
  801TIP3    H2 2368   3.720   0.230   1.320 -1.1926  1.0083  1.3358
  802TIP3   OH2 2369   6.879   2.414   3.629 -0.2431  0.0514  0.3040
  802TIP3    H1 2370   6.974   2.405   3.619 -0.2818 -0.2585  0.2180
  802TIP3    H2 2371   6.846   2.325   3.634 -0.5678  0.1512 -0.0178
  803TIP3   OH2 2372   5.572   0.975   5.211  0.2011  0.1046 -0.0221
  803TIP3    H1 2373   5.590   1.048   5.270  1.5657 -0.8621  0.7992
  803TIP3    H2 2374   5.479   0.983   5.191  0.4379  2.4382 -0.4711
  804TIP3   OH2 2375   3.386   0.563   5.777  0.2682 -0.1054  0.0074
  804TIP3    H1 2376   3.446   0.502   5.820  1.2791  1.4396  0.8709
  804TIP3    H2 2377   3.425   0.582   5.692  1.4703  1.4828  0.8662
  805TIP3   OH2 2378   4.302   1.179   3.486 -0.2119  0.1146  0.0639
  805TIP3    H1 2379   4.343   1.238   3.421  0.6221  0.0837  0.5448
  805TIP3    H2 2380   4.225   1.227   3.515  0.6971  1.2145  0.7849
  806TIP3   OH2 2381   0.740   4.438   4.184 -0.1297  0.0936  0.3847
  806TIP3    H1 2382   0.821   4.474   4.147  0.3626 -0.1056  1.2646
  806TIP3    H2 2383   0.671   4.468   4.124  0.6827 -0.4850 -0.8802
  807TIP3   OH2 2384   2.797   0.738   5.238  0.0492 -0.3941 -0.9122
  807TIP3    H1 2385   2.861   0.769   5.174  1.7036 -1.4201  0.1360
  807TIP3    H2 2386   2.713   0.770   5.207  0.9660  0.2726 -2.8395
  808TIP3   OH2 2387   6.564   0.223   3.476 -0.5273 -0.0114 -0.1986
  808TIP3    H1 2388   6.565   0.153   3.410 -0.7824  0.0354 -0.2533
  808TIP3    H2 2389   6.656   0.239   3.496 -0.4759 -1.2294  0.7258
  809TIP3   OH2 2390   3.703   4.796   1.721 -0.6612  0.2960  0.1779
  809TIP3    H1 2391   3.762   4.731   1.759  0.1219  1.0861  0.3312
  809TIP3    H2 2392   3.657   4.833   1.797  0.0391  1.0286  0.2564
  810TIP3   OH2 2393   5.913   6.067   1.412  0.4390 -0.2616  0.1670
  810TIP3    H1 2394   5.853   5.996   1.437  1.1065 -0.4013  1.4462
  810TIP3    H2 2395   5.942   6.043   1.325  0.0481 -1.1582  0.2677
  811TIP3   OH2 2396   0.029   0.810   3.911 -0.0324  0.3925  0.0041
  811TIP3    H1 2397   0.056   0.743   3.973 -1.2163  0.3088  0.4705
  811TIP3    H2 2398  -0.021   0.873   3.964 -1.7955 -0.1157 -0.9585
  812TIP3   OH2 2399   3.192   3.427   2.401  0.7316  0.0710  0.3408
  812TIP3    H1 2400   3.272   3.467   2.434  0.9694 -0.7401  0.7969
  812TIP3    H2 2401   3.221   3.365   2.334  0.3320  0.9644 -0.6830
  813TIP3   OH2 2402   0.027   6.494   1.640  0.1300 -0.3685  0.2072
  813TIP3    H1 2403  -0.011   6.552   1.574  0.3640  1.1831  1.3743
  813TIP3    H2 2404   0.115   6.476   1.609 -0.2896 -0.9693 -0.6780
  814TIP3   OH2 2405   1.773   6.215   3.476  0.3510  0.0923 -0.1921
  814TIP3    H1 2406   1.834   6.187   3.409  0.1443  0.1305 -0.3970
  814TIP3    H2 2407   1.707   6.267   3.429 -1.0724 -1.7615 -0.3555
  815TIP3   OH2 2408   0.341   2.464   3.663  0.1492 -0.0582 -0.2674
  815TIP3    H1 2409   0.270   2.419   3.618  0.0372  0.7768 -0.9687
  815TIP3    H2 2410   0.298   2.511   3.735  0.1879 -0.6078  0.1198
  816TIP3   OH2 2411   6.769   5.354   5.837  0.0071  0.5037 -0.4578
  816TIP3    H1 2412   6.752   5.262   5.816  1.0793  0.2217 -0.1282
  816TIP3    H2 2413   6.681   5.392   5.847 -0.4515 -0.5312 -0.3766
  817TIP3   OH2 2414   3.301   5.631   1.829 -0.0387  0.1247 -0.2598
  817TIP3    H1 2415   3.280   5.654   1.920  0.5673 -2.5838  0.6785
  817TIP3    H2 2416   3.218   5.638   1.783 -0.3854  1.4276  0.5156
  818TIP3   OH2 2417   2.918   4.245   4.886 -0.0685  0.0044  0.0352
  818TIP3    H1 2418   2.944   4.247   4.794  1.2706  0.4212  0.3939
  818TIP3    H2 2419   2.822   4.248   4.884 -0.0516  0.5273 -1.3225
  819TIP3   OH2 2420   3.641   1.897   3.495 -0.3413  0.2147  0.0402
  819TIP3    H1 2421   3.614   1.808   3.513 -0.0372  0.2273  0.5677
  819TIP3    H2 2422   3.723   1.888   3.447 -1.3569  0.1704 -1.7770
  820TIP3   OH2 2423   6.977   6.413   3.543  0.1317  0.5484 -0.1501
  820TIP3    H1 2424   6.958   6.322   3.565 -0.2146  0.1503 -1.9941
  820TIP3    H2 2425   6.897   6.446   3.502  0.5391  1.4402 -0.2563
  821TIP3   OH2 2426   4.025   2.964   4.088 -0.3716  0.1291  0.0421
  821TIP3    H1 2427   4.063   3.001   4.008 -0.9345  0.2157 -0.1905
  821TIP3    H2 2428   4.076   2.885   4.104 -0.5455 -0.1337 -0.6626
  822TIP3   OH2 2429   0.251   1.321   3.150 -0.8447  0.1169  0.3896
  822TIP3    H1 2430   0.205   1.298   3.231  0.0974 -1.4925  0.5224
  822TIP3    H2 2431   0.213   1.404   3.123 -2.4555 -0.2108  1.5077
  823TIP3   OH2 2432   4.091   6.249   4.718 -0.0634 -0.4541 -0.3903
  823TIP3    H1 2433   4.081   6.171   4.773 -0.5542 -0.7115 -0.8370
  823TIP3    H2 2434   4.185   6.254   4.701  0.4413  0.8818  2.2653
  824TIP3   OH2 2435   6.468   4.402   1.218  1.1176  0.4120 -0.0031
  824TIP3    H1 2436   6.564   4.411   1.212  1.0650  0.9641 -0.1087
  824TIP3    H2 2437   6.436   4.433   1.133  0.8722 -0.2587 -0.1578
  825TIP3   OH2 2438   3.870   4.036   5.643 -0.8487 -0.1757  0.2560
  825TIP3    H1 2439   3.875   4.073   5.555  1.9538 -1.0755 -0.0742
  825TIP3    H2 2440   3.799   3.972   5.639 -0.9294 -0.0214 -1.2802
  826TIP3   OH2 2441   6.947   4.368   1.929 -0.0520 -0.2070 -0.0279
  826TIP3    H1 2442   6.912   4.417   1.855  1.3639 -0.9921 -1.2532
  826TIP3    H2 2443   6.877   4.306   1.952 -0.9703  0.8484  0.1057
  827TIP3   OH2 2444   0.087   1.834   0.927 -0.1471 -0.1567  0.0288
  827TIP3    H1 2445   0.002   1.799   0.901  0.2105 -0.2515 -1.0520
  827TIP3    H2 2446   0.104   1.905   0.866  1.2375 -1.1410 -0.7627
  828TIP3   OH2 2447   3.178   5.065   5.732 -0.1449 -1.1061 -0.2439
  828TIP3    H1 2448   3.132   5.142   5.699  1.9767  0.7512  0.9069
  828TIP3    H2 2449   3.116   5.025   5.793 -0.9042  0.2960 -0.0578
  829TIP3   OH2 2450   0.105   0.949   0.480  0.8038 -0.4044 -0.1502
  829TIP3    H1 2451   0.052   1.007   0.424  0.6006  0.0725  0.5292
  829TIP3    H2 2452   0.182   1.001   0.502 -0.3559  0.4337  2.1991
  830TIP3   OH2 2453   3.994   6.557   0.428  0.5377  0.1436  0.5726
  830TIP3    H1 2454   3.957   6.618   0.492 -1.2812 -1.4559  1.1490
  830TIP3    H2 2455   4.068   6.518   0.473  0.3661  0.3367  1.0338
  831TIP3   OH2 2456   0.319   5.589   2.103  0.2388  0.1188 -0.3781
  831TIP3    H1 2457   0.368   5.624   2.029  1.7281  0.0833  0.5372
  831TIP3    H2 2458   0.384   5.541   2.154 -0.7975 -0.0689  0.8192
  832TIP3   OH2 2459   1.328   4.294   1.186 -0.3033 -0.7041  0.2328
  832TIP3    H1 2460   1.243   4.284   1.230 -0.5917 -2.2960 -0.6562
  832TIP3    H2 2461   1.330   4.225   1.120  1.5805 -0.5181  0.0491
  833TIP3   OH2 2462   1.232   0.827   4.016  0.1132  0.2956  0.3445
  833TIP3    H1 2463   1.228   0.762   3.946  2.1946  1.0609 -0.5808
  833TIP3    H2 2464   1.248   0.777   4.096  0.9946 -0.3976 -0.2497
  834TIP3   OH2 2465   0.065   6.066   4.849  0.0526 -0.3428 -0.0754
  834TIP3    H1 2466   0.145   6.031   4.810 -0.7137 -0.1310 -1.9773
  834TIP3    H2 2467   0.009   5.990   4.862 -0.2287 -0.2662 -0.7761
  835TIP3   OH2 2468   6.410   6.496   4.964  0.0648  0.1231 -0.0408
  835TIP3    H1 2469   6.385   6.496   5.056  0.2836  0.9299  0.0228
  835TIP3    H2 2470   6.448   6.582   4.949 -0.2243  0.1050 -0.9556
  836TIP3   OH2 2471   6.374   4.702   1.294  0.1577  0.2291  0.3154
  836TIP3    H1 2472   6.356   4.641   1.365  1.6573  0.1441  0.6600
  836TIP3    H2 2473   6.318   4.672   1.222  2.7734 -3.4090 -0.5329
  837TIP3   OH2 2474   2.558   4.150   5.815 -0.0441  0.0411 -0.3062
  837TIP3    H1 2475   2.490   4.138   5.749  0.1217  1.2536 -0.7256
  837TIP3    H2 2476   2.515   4.196   5.887  0.0173 -0.3904  0.0117
  838TIP3   OH2 2477   0.958   0.305   5.678 -0.1277  0.4075  0.0849
  838TIP3    H1 2478   0.908   0.368   5.627 -0.3875  0.8535  0.8735
  838TIP3    H2 2479   0.895   0.238   5.704  0.1345 -0.1504 -0.6986
  839TIP3   OH2 2480   1.497   0.961   2.010 -0.3233  0.2562  0.1626
  839TIP3    H1 2481   1.567   1.026   2.013  0.6223 -0.7274  0.1643
  839TIP3    H2 2482   1.422   1.008   1.973  0.8070  0.9461 -1.3849
  840TIP3   OH2 2483   6.508   5.489   5.197  0.4195 -0.3900 -0.0836
  840TIP3    H1 2484   6.523   5.546   5.273 -0.3930  0.4529 -0.5421
  840TIP3    H2 2485   6.596   5.470   5.165  0.7492 -0.2810  0.7218
  841TIP3   OH2 2486   3.763   3.090   0.098 -0.1656 -0.0461  0.3783
  841TIP3    H1 2487   3.669   3.103   0.096 -0.4114 -1.2822  1.8627
  841TIP3    H2 2488   3.775   2.995   0.091  1.2513  0.2297 -4.4587
  842TIP3   OH2 2489   5.847   6.323   2.898  1.0453  0.0230 -0.0552
  842TIP3    H1 2490   5.883   6.295   2.983 -0.9429  0.2042  0.9187
  842TIP3    H2 2491   5.786   6.393   2.920  2.2204  1.7277 -1.9362
  843TIP3   OH2 2492   1.229   4.039   2.888 -0.7059  0.0601  0.1292
  843TIP3    H1 2493   1.182   3.956   2.878 -0.3394 -0.1251 -0.0301
  843TIP3    H2 2494   1.321   4.017   2.878 -0.6566  0.6106 -0.6927
  844TIP3   OH2 2495   0.304   0.493   0.974  0.4561  0.1146  0.0514
  844TIP3    H1 2496   0.336   0.422   0.918  0.4404  1.4350 -1.7060
  844TIP3    H2 2497   0.268   0.448   1.051  2.1990 -1.6627 -0.0867
  845TIP3   OH2 2498   0.152   6.130   3.660 -0.1664 -0.3548  0.2197
  845TIP3    H1 2499   0.138   6.195   3.729  4.7257  0.1064  1.1120
  845TIP3    H2 2500   0.170   6.048   3.708 -1.2864 -1.2167 -0.7602
  846TIP3   OH2 2501   6.965   5.985   2.228  0.1158  0.3285 -0.2551
  846TIP3    H1 2502   6.954   5.892   2.212 -0.6216  0.7323 -2.3137
  846TIP3    H2 2503   7.042   6.010   2.176  0.5261  0.8337  0.5524
  847TIP3   OH2 2504   1.463   0.448   3.285 -0.4999  0.1344 -0.3804
  847TIP3    H1 2505   1.374   0.433   3.318 -0.0487 -2.1356  0.0010
  847TIP3    H2 2506   1.509   0.489   3.358 -0.8509 -0.0322 -0.0579
  848TIP3   OH2 2507   6.813   6.045   4.921  0.5409  0.5207  0.3236
  848TIP3    H1 2508   6.784   6.065   5.010 -1.0489 -1.2774  0.2558
  848TIP3    H2 2509   6.742   6.076   4.865  0.7502  0.0773 -0.1898
  849TIP3   OH2 2510   6.150   1.804   4.721  0.3597  0.4709  0.5389
  849TIP3    H1 2511   6.209   1.814   4.796  1.4856  1.9884 -0.4819
  849TIP3    H2 2512   6.063   1.795   4.760  0.8540  1.7504  2.0548
  850TIP3   OH2 2513   1.632   0.291   0.945  0.3280  0.0190  0.2058
  850TIP3    H1 2514   1.590   0.227   0.887  0.4443  1.2471 -1.3151
  850TIP3    H2 2515   1.559   0.330   0.993  0.1850 -0.7277  0.6143
  851TIP3   OH2 2516   6.021   5.083   1.115  0.3200 -0.0322  0.6164
  851TIP3    H1 2517   5.994   5.060   1.204  1.2650  1.4580  1.3308
  851TIP3    H2 2518   5.965   5.157   1.091  1.3683  0.8211  0.7435
  852TIP3   OH2 2519   3.831   2.374   3.693  0.0604  0.2709  0.1421
  852TIP3    H1 2520   3.763   2.331   3.640 -0.6156  1.7005 -0.1867
  852TIP3    H2 2521   3.783   2.414   3.766  0.9550 -1.4886  1.7817
  853TIP3   OH2 2522   0.651   2.507   4.288 -0.5092 -0.2652 -0.1307
  853TIP3    H1 2523   0.618   2.555   4.365 -0.6511  1.1666 -1.0513
  853TIP3    H2 2524   0.590   2.434   4.278  0.0023 -1.0009  1.6088
  854TIP3   OH2 2525   5.960   2.268   1.263 -0.0947  0.0581 -0.2847
  854TIP3    H1 2526   5.931   2.180   1.287  0.0430  0.1905  0.3824
  854TIP3    H2 2527   6.050   2.256   1.234  0.2220  0.1009  0.6525
  855TIP3   OH2 2528   4.511   3.377   5.287 -0.5487 -0.1491 -0.4984
  855TIP3    H1 2529   4.461   3.367   5.206 -0.2814  0.3670 -0.7305
  855TIP3    H2 2530   4.542   3.288   5.307 -1.3546 -0.4377 -0.4721
  856TIP3   OH2 2531   6.114   5.852   3.379  0.0867 -0.0782 -0.1700
  856TIP3    H1 2532   6.103   5.770   3.427 -1.9287 -0.1918 -0.7385
  856TIP3    H2 2533   6.119   5.919   3.447 -1.2366 -0.3936  0.2712
  857TIP3   OH2 2534   6.207   5.989   3.159  0.5728 -0.2922 -0.0717
  857TIP3    H1 2535   6.181   5.935   3.235  0.1404  0.3070  0.2131
  857TIP3    H2 2536   6.200   6.079   3.190  1.1298 -0.0617 -0.6009
  858TIP3   OH2 2537   3.748   5.085   2.571 -0.6408 -0.5866  0.1361
  858TIP3    H1 2538   3.744   5.167   2.620 -0.1776  0.0500 -0.8340
  858TIP3    H2 2539   3.821   5.037   2.610 -0.8836 -0.5213  0.6804
  859TIP3   OH2 2540   2.013   3.691   1.867 -0.0582  0.1697 -0.3898
  859TIP3    H1 2541   2.059   3.607   1.862  2.1265  1.3547 -1.0784
  859TIP3    H2 2542   2.051   3.734   1.943 -2.6353 -0.2137  1.2506
  860TIP3   OH2 2543   0.377   1.573   2.977  0.0817 -0.0945 -0.1027
  860TIP3    H1 2544   0.343   1.495   2.935 -0.5124  0.0200  0.1510
  860TIP3    H2 2545   0.433   1.614   2.911 -0.9021  0.1344 -0.8208
  861TIP3   OH2 2546   4.929   2.478   5.109  0.1037  0.2759  0.4373
  861TIP3    H1 2547   4.856   2.446   5.162  0.8428 -0.3791  1.0870
  861TIP3    H2 2548   5.005   2.432   5.143  0.6205 -0.1330 -1.1625
  862TIP3   OH2 2549   6.899   0.992   4.504 -0.0703  0.0931 -0.0541
  862TIP3    H1 2550   6.847   1.030   4.575  1.0245  1.0380  0.2819
  862TIP3    H2 2551   6.985   1.034   4.512  0.8186 -1.5600 -0.4677
  863TIP3   OH2 2552   6.857   6.434   1.665 -0.2319 -0.1962 -0.1462
  863TIP3    H1 2553   6.820   6.347   1.653 -0.0423 -0.2547 -0.3142
  863TIP3    H2 2554   6.931   6.437   1.604 -0.3459  0.1446 -0.2694
  864TIP3   OH2 2555   0.189   0.054   5.205 -0.0239 -0.7768 -0.3577
  864TIP3    H1 2556   0.211   0.133   5.156  1.3651 -1.3704 -0.7279
  864TIP3    H2 2557   0.167  -0.011   5.138 -0.1815 -0.9987 -0.0952
  865TIP3   OH2 2558   1.764   0.066   2.769  0.2790 -0.1431 -0.4213
  865TIP3    H1 2559   1.713   0.126   2.823  1.3057  0.4983 -0.1341
  865TIP3    H2 2560   1.705   0.042   2.698 -1.0808 -0.9568  0.9253
  866TIP3   OH2 2561   0.858   0.348   3.672 -0.1206  0.0339 -0.0020
  866TIP3    H1 2562   0.827   0.357   3.762 -0.7309 -0.8951 -0.0981
  866TIP3    H2 2563   0.783   0.374   3.617  0.4826  1.2974 -0.2575
  867TIP3   OH2 2564   2.866   3.144   0.454 -0.1230  0.4089 -0.4918
  867TIP3    H1 2565   2.899   3.136   0.364 -0.6278  0.6197 -0.7003
  867TIP3    H2 2566   2.875   3.237   0.474  0.1050  0.3412 -0.2743
  868TIP3   OH2 2567   4.262   5.121   4.495 -0.1649 -0.0134 -0.7972
  868TIP3    H1 2568   4.188   5.181   4.482 -1.6144 -1.6080 -0.2082
  868TIP3    H2 2569   4.338   5.169   4.460 -1.1687  2.3291  0.0380
  869TIP3   OH2 2570   0.875   0.695   4.896  0.7127 -0.1290  0.1184
  869TIP3    H1 2571   0.937   0.728   4.831  0.8332 -0.9201 -0.1886
  869TIP3    H2 2572   0.818   0.636   4.845 -0.4843  0.8170  0.3271
  870TIP3   OH2 2573   2.399   4.252   3.234  0.8851  0.5175 -0.3266
  870TIP3    H1 2574   2.318   4.200   3.240  2.3234 -1.8552 -0.4044
  870TIP3    H2 2575   2.421   4.251   3.141  1.4790  0.3991 -0.1855
  871TIP3   OH2 2576   2.717   3.740   3.905 -0.2957 -0.1824  0.1170
  871TIP3    H1 2577   2.713   3.755   3.810 -3.2699 -1.9498 -0.1692
  871TIP3    H2 2578   2.785   3.800   3.936 -0.1198  1.4006 -2.9317
  872TIP3   OH2 2579   2.759   6.360   1.924 -0.7074  0.3814 -0.5886
  872TIP3    H1 2580   2.827   6.404   1.873 -2.1085  1.8686 -1.2795
  872TIP3    H2 2581   2.717   6.431   1.973 -0.9193 -0.6945  0.8541
  873TIP3   OH2 2582   3.505   2.959   3.111  0.1524  0.0515  0.2113
  873TIP3    H1 2583   3.535   3.048   3.129  0.5083 -0.2128  0.9420
  873TIP3    H2 2584   3.553   2.904   3.173  0.0253 -0.6679 -0.3142
  874TIP3   OH2 2585   4.210   3.845   1.030 -0.0348  0.3221 -0.3204
  874TIP3    H1 2586   4.242   3.883   0.948 -0.1070  1.3908  0.1347
  874TIP3    H2 2587   4.223   3.751   1.019  1.7612  0.5855 -0.7899
  875TIP3   OH2 2588   1.031   4.967   3.431  0.4050  0.6481 -0.0994
  875TIP3    H1 2589   1.010   4.881   3.466 -1.9792  1.7117  1.3082
  875TIP3    H2 2590   1.028   4.955   3.336 -1.0170 -0.5796  0.0661
  876TIP3   OH2 2591   4.623   1.877   1.316  0.1827  0.1429  0.1394
  876TIP3    H1 2592   4.544   1.831   1.345  0.7695 -0.6644  0.5050
  876TIP3    H2 2593   4.686   1.807   1.300  0.3420  0.6623 -1.6840
  877TIP3   OH2 2594   0.337   5.706   0.292 -0.0726  0.0235  0.4191
  877TIP3    H1 2595   0.313   5.645   0.363 -1.3871  0.7416  0.6168
  877TIP3    H2 2596   0.393   5.653   0.234 -0.4188 -1.0992  1.0630
  878TIP3   OH2 2597   4.158   0.076   0.467 -0.1106  0.3101  0.1911
  878TIP3    H1 2598   4.150   0.064   0.373  2.2410 -2.2221  0.2021
  878TIP3    H2 2599   4.186   0.167   0.478  0.2871  0.4360 -1.6010
  879TIP3   OH2 2600   5.495   3.485   1.208 -0.3417 -0.3230  0.6581
  879TIP3    H1 2601   5.583   3.523   1.200 -1.2978  1.8334 -0.3048
  879TIP3    H2 2602   5.459   3.489   1.119 -2.1908  0.8889  1.3974
  880TIP3   OH2 2603   2.344   1.292   5.408 -0.0848  0.2404 -0.4844
  880TIP3    H1 2604   2.426   1.327   5.442  0.0477 -1.0775  0.6231
  880TIP3    H2 2605   2.284   1.297   5.482  0.1851 -2.6327  0.0274
  881TIP3   OH2 2606   0.186   3.022   4.477 -0.5613 -0.0774  0.1446
  881TIP3    H1 2607   0.205   3.116   4.478 -1.8761  0.1957  1.2678
  881TIP3    H2 2608   0.147   3.006   4.391  0.4139  0.2231 -0.3733
  882TIP3   OH2 2609   2.615   5.961   1.106 -0.4909 -0.0808 -0.1828
  882TIP3    H1 2610   2.636   5.966   1.199 -1.5814 -0.0129  0.0785
  882TIP3    H2 2611   2.661   6.035   1.067 -0.4778  0.2288  0.4057
  883TIP3   OH2 2612   7.127   1.317   5.052 -0.1146 -0.1484 -0.4782
  883TIP3    H1 2613   7.128   1.297   5.146 -2.4936  0.2904 -0.2884
  883TIP3    H2 2614   7.075   1.246   5.013 -0.2239  0.3566 -1.2740
  884TIP3   OH2 2615   4.041   1.565   2.749  0.7874 -0.3841 -0.6307
  884TIP3    H1 2616   4.056   1.659   2.761 -0.2011 -0.1996 -0.6905
  884TIP3    H2 2617   3.962   1.547   2.801  1.1139 -1.2344 -0.4162
  885TIP3   OH2 2618   4.285   6.063   5.680  0.5971 -0.3986 -0.1694
  885TIP3    H1 2619   4.291   6.126   5.608  2.0876 -0.3111  0.0145
  885TIP3    H2 2620   4.237   5.989   5.642  0.0470  0.2713 -0.7954
  886TIP3   OH2 2621   1.980   0.652   4.623  0.1244 -0.5847 -0.0664
  886TIP3    H1 2622   1.887   0.658   4.600  0.5572  1.2332 -1.5577
  886TIP3    H2 2623   2.011   0.742   4.625  2.1404 -1.1957 -0.8686
  887TIP3   OH2 2624   4.860   0.790   2.065  0.2573  0.8736  0.4458
  887TIP3    H1 2625   4.942   0.744   2.048  0.0503  0.1707  1.2626
  887TIP3    H2 2626   4.851   0.788   2.160 -0.6937  0.9684  0.3695
  888TIP3   OH2 2627   1.183   5.553   1.763 -0.4850 -0.2944 -0.4975
  888TIP3    H1 2628   1.204   5.464   1.793 -1.6543 -0.5761 -0.4474
  888TIP3    H2 2629   1.144   5.595   1.840 -0.5880  0.0337 -0.7283
  889TIP3   OH2 2630   3.996   2.108   4.630  0.0502  0.4290 -0.3246
  889TIP3    H1 2631   3.948   2.034   4.594  0.1848  0.0426  0.2948
  889TIP3    H2 2632   4.016   2.084   4.720  2.1389  0.2158 -0.7956
  890TIP3   OH2 2633   4.939   1.244   2.620  0.0392  0.3092  0.2611
  890TIP3    H1 2634   4.916   1.218   2.709 -1.0992 -1.0533 -0.3900
  890TIP3    H2 2635   5.025   1.284   2.629  0.3784 -0.6668  1.8437
  891TIP3   OH2 2636   6.902   3.131   2.791 -0.4306  0.1541 -0.8208
  891TIP3    H1 2637   6.878   3.103   2.879 -1.1917 -1.4881 -1.5085
  891TIP3    H2 2638   6.969   3.068   2.763 -1.1067 -0.1243 -1.8668
  892TIP3   OH2 2639   1.296   4.947   4.780 -0.4401  0.2844 -0.4383
  892TIP3    H1 2640   1.251   4.865   4.801  1.0895 -0.8255 -1.2955
  892TIP3    H2 2641   1.283   4.958   4.686  0.3075  0.4040 -0.5365
  893TIP3   OH2 2642   2.515   3.497   2.199 -0.3179 -0.0578 -0.5789
  893TIP3    H1 2643   2.581   3.455   2.144  0.2357  1.6741 -1.3022
  893TIP3    H2 2644   2.565   3.559   2.252 -0.7919 -1.8253  2.1446
  894TIP3   OH2 2645   6.150   4.286   2.379 -0.8965  0.6337 -0.2283
  894TIP3    H1 2646   6.228   4.338   2.398 -1.0250  0.7065  0.1172
  894TIP3    H2 2647   6.163   4.205   2.427 -0.9972  0.6136 -0.2338
  895TIP3   OH2 2648   4.243   6.627   5.684  0.4245 -0.3161  0.1635
  895TIP3    H1 2649   4.280   6.692   5.743 -0.6823 -0.2859  0.8525
  895TIP3    H2 2650   4.304   6.623   5.610  0.6149  1.3699  0.2016
  896TIP3   OH2 2651   0.909   0.780   2.719 -0.2374  0.1685  0.1345
  896TIP3    H1 2652   0.853   0.802   2.793  0.8470  0.6209  0.8427
  896TIP3    H2 2653   0.888   0.689   2.699  0.9267 -0.6535  2.3627
  897TIP3   OH2 2654   5.350   5.796   2.452 -0.0104 -0.5058 -0.2585
  897TIP3    H1 2655   5.397   5.794   2.369 -1.3955 -1.1158 -1.0737
  897TIP3    H2 2656   5.334   5.889   2.469  1.3223 -0.3010 -0.0284
  898TIP3   OH2 2657   2.998   2.692   2.924 -0.4872  0.1862 -0.2944
  898TIP3    H1 2658   3.074   2.736   2.963 -0.8780 -2.1537  3.6286
  898TIP3    H2 2659   3.033   2.645   2.849  2.0632 -0.7749  1.3514
  899TIP3   OH2 2660   1.616   5.249   3.297 -0.2555  0.1379  0.0813
  899TIP3    H1 2661   1.658   5.163   3.291  2.8229  1.4401  0.8146
  899TIP3    H2 2662   1.655   5.300   3.226 -0.5531  1.4583  0.8210
  900TIP3   OH2 2663   4.563   0.173   5.178 -0.0304 -0.6705 -0.1833
  900TIP3    H1 2664   4.608   0.101   5.221  3.1295  0.1160 -1.9142
  900TIP3    H2 2665   4.498   0.130   5.122  0.7762 -2.0945 -0.0810
  901TIP3   OH2 2666   2.556   1.165   5.697  0.9997  0.0803 -0.2394
  901TIP3    H1 2667   2.606   1.085   5.681  2.4169  1.0403 -0.8923
  901TIP3    H2 2668   2.514   1.185   5.614  0.3766 -0.1452  0.0140
  902TIP3   OH2 2669   6.873   1.577   4.026 -0.1046 -0.7659 -0.8006
  902TIP3    H1 2670   6.822   1.649   4.063 -0.2927 -0.8806 -0.8374
  902TIP3    H2 2671   6.959   1.586   4.067  0.0644 -0.1397 -1.2804
  903TIP3   OH2 2672   3.316   6.405   5.186  0.1764 -0.6840 -0.1172
  903TIP3    H1 2673   3.383   6.442   5.243 -0.0624  0.3157 -0.4679
  903TIP3    H2 2674   3.359   6.397   5.100 -0.5242  1.3214 -0.7190
  904TIP3   OH2 2675   5.393   5.437   4.705  0.1407 -0.2548 -0.2826
  904TIP3    H1 2676   5.463   5.381   4.739  0.1144  0.7121  1.4512
  904TIP3    H2 2677   5.408   5.522   4.745 -1.2643  0.3335 -0.9224
  905TIP3   OH2 2678   4.337   1.943   5.738 -0.0572  0.4916  0.0924
  905TIP3    H1 2679   4.353   1.897   5.655 -2.6788  0.2181 -0.3540
  905TIP3    H2 2680   4.339   1.874   5.804 -2.9445 -0.2330 -0.4473
  906TIP3   OH2 2681   1.460   4.985   3.632  0.6356 -0.4621  0.1463
  906TIP3    H1 2682   1.551   5.015   3.635 -0.1828  2.6545 -1.3733
  906TIP3    H2 2683   1.420   5.039   3.563 -2.0299 -2.7607 -0.2705
  907TIP3   OH2 2684   0.228   6.449   0.794  0.4005  0.5236  0.5386
  907TIP3    H1 2685   0.313   6.411   0.817  0.0923 -1.2613 -1.0696
  907TIP3    H2 2686   0.170   6.422   0.866  0.3851 -1.4647 -0.1587
  908TIP3   OH2 2687   6.387   3.546   0.107 -0.5949  0.3170  0.2881
  908TIP3    H1 2688   6.479   3.545   0.131 -1.0614  0.5914  2.2235
  908TIP3    H2 2689   6.379   3.620   0.046  0.4144  0.4377  0.2871
  909TIP3   OH2 2690   1.866   3.935   2.460  1.0836 -0.2025  0.2732
  909TIP3    H1 2691   1.853   3.953   2.553  0.6934 -0.5649  0.2919
  909TIP3    H2 2692   1.845   4.017   2.416 -1.2899 -0.7242  0.3018
  910TIP3   OH2 2693   4.733   5.882   0.266 -0.1618  0.0320  0.6168
  910TIP3    H1 2694   4.717   5.885   0.360  0.8412  1.1888  0.7862
  910TIP3    H2 2695   4.823   5.851   0.257  0.1697  1.0573  0.1287
  911TIP3   OH2 2696   7.225   4.303   2.989 -0.6878 -0.3194  0.6039
  911TIP3    H1 2697   7.197   4.388   2.955 -0.5266  0.3292  2.0188
  911TIP3    H2 2698   7.177   4.240   2.936 -0.7982  0.6460 -0.4897
  912TIP3   OH2 2699   2.086   2.482   5.717 -0.6735  0.0369  0.5874
  912TIP3    H1 2700   2.094   2.491   5.812  0.8776 -0.7519  0.5681
  912TIP3    H2 2701   2.167   2.519   5.682 -1.3241  0.5289 -0.4588
  913TIP3   OH2 2702   6.551   6.019   1.266 -0.8167 -0.1350 -0.4973
  913TIP3    H1 2703   6.482   6.066   1.220 -0.7598 -1.1986 -1.7410
  913TIP3    H2 2704   6.594   6.085   1.321 -0.6752  1.2948 -2.2534
  914TIP3   OH2 2705   3.601   5.586   4.405  0.4361 -0.8586  0.2567
  914TIP3    H1 2706   3.649   5.569   4.324  0.1914 -0.2585 -0.0149
  914TIP3    H2 2707   3.657   5.646   4.454 -0.4116  0.5459 -0.4443
  915TIP3   OH2 2708   5.909   0.941   3.307 -0.1848 -0.3388 -0.1999
  915TIP3    H1 2709   5.947   0.982   3.230  0.5730 -0.1895  0.2350
  915TIP3    H2 2710   5.875   0.857   3.276  0.6836 -0.5632 -0.5765
  916TIP3   OH2 2711   0.211   2.557   2.966  0.3459  0.6821 -0.1800
  916TIP3    H1 2712   0.163   2.507   3.033  0.4170  0.1458 -0.5276
  916TIP3    H2 2713   0.191   2.649   2.986 -2.0953  0.4528 -1.2252
  917TIP3   OH2 2714   0.608   0.121   4.784 -0.5479  0.0202  0.2678
  917TIP3    H1 2715   0.659   0.184   4.836  1.0062 -0.8649 -0.1193
  917TIP3    H2 2716   0.556   0.073   4.848 -0.7412  0.7831  0.7017
  918TIP3   OH2 2717   6.574   0.085   0.952 -0.0263  0.3575  0.1872
  918TIP3    H1 2718   6.592   0.159   0.894  0.5857  0.8706  1.0007
  918TIP3    H2 2719   6.607   0.009   0.904 -0.0561  0.6957 -0.3812
  919TIP3   OH2 2720   6.811   0.880   3.114 -0.6507  0.5324  0.1509
  919TIP3    H1 2721   6.783   0.885   3.023 -1.9166 -1.1494  0.4098
  919TIP3    H2 2722   6.739   0.919   3.164  0.0130  1.4025  0.4781
  920TIP3   OH2 2723   2.959   6.155   3.656 -0.5152 -0.4157  0.5131
  920TIP3    H1 2724   2.865   6.171   3.650 -0.3528  0.2855 -0.4150
  920TIP3    H2 2725   2.998   6.242   3.661  0.2100 -0.5623 -1.5208
  921TIP3   OH2 2726   5.256   1.038   0.107  0.3136 -0.1322 -0.1493
  921TIP3    H1 2727   5.255   1.133   0.106  0.6894 -0.1126  0.4783
  921TIP3    H2 2728   5.291   1.013   0.022  0.2854  0.2938 -0.2846
  922TIP3   OH2 2729   0.107   3.331   3.680 -0.3901 -0.2510 -0.1084
  922TIP3    H1 2730   0.183   3.380   3.712  0.3908 -0.8245 -1.0333
  922TIP3    H2 2731   0.035   3.362   3.734  0.3998  0.6806  0.4570
  923TIP3   OH2 2732   5.027   5.392   5.670 -0.9692 -0.2263  0.4861
  923TIP3    H1 2733   4.935   5.367   5.660 -1.1364 -0.1022  1.5786
  923TIP3    H2 2734   5.025   5.485   5.693 -0.5718 -0.2610  0.6698
  924TIP3   OH2 2735   3.515   4.800   3.323 -0.0367  0.7187 -0.7306
  924TIP3    H1 2736   3.594   4.747   3.324 -0.7080 -0.3027 -0.4690
  924TIP3    H2 2737   3.517   4.848   3.406  0.1300  0.4345 -0.5710
  925TIP3   OH2 2738   0.240   5.378   0.849  0.1823 -0.2376 -0.4943
  925TIP3    H1 2739   0.336   5.386   0.855  0.0527  1.8042 -0.6387
  925TIP3    H2 2740   0.226   5.315   0.778  1.4161 -0.3252 -0.6848
  926TIP3   OH2 2741   1.454   1.923   0.701 -1.1908 -0.0744  0.5519
  926TIP3    H1 2742   1.476   1.982   0.629 -2.7031 -0.0716  0.0725
  926TIP3    H2 2743   1.533   1.869   0.713 -0.7006  0.3439 -0.6786
  927TIP3   OH2 2744   2.389   0.064   3.215  0.4587 -0.1378  0.6041
  927TIP3    H1 2745   2.390   0.099   3.126  1.5743 -0.2767  0.5459
  927TIP3    H2 2746   2.345  -0.021   3.207  1.3376 -0.5493  0.0136
  928TIP3   OH2 2747   5.661   4.694   3.445  0.2602  0.9920 -0.1273
  928TIP3    H1 2748   5.655   4.762   3.379  1.2737  1.3274  0.1039
  928TIP3    H2 2749   5.694   4.618   3.398 -0.7012  0.6911 -0.3484
  929TIP3   OH2 2750   3.591   1.437   1.577 -0.2856 -0.3082  0.4539
  929TIP3    H1 2751   3.680   1.411   1.555  0.4686  2.6925 -0.6075
  929TIP3    H2 2752   3.580   1.413   1.669  1.5427 -0.8863  0.5539
  930TIP3   OH2 2753   2.926   3.890   0.737  0.4862  0.1762  0.0326
  930TIP3    H1 2754   2.983   3.957   0.774 -0.2525 -0.1706  1.9061
  930TIP3    H2 2755   2.986   3.828   0.695  1.3671  0.6254  0.6006
  931TIP3   OH2 2756   0.710   1.506   3.024 -0.0428  0.1226 -0.2737
  931TIP3    H1 2757   0.710   1.599   3.043  0.8512 -0.0642  0.7711
  931TIP3    H2 2758   0.633   1.492   2.970  0.1208  1.5524 -0.9268
  932TIP3   OH2 2759   6.716   0.706   3.348  0.1816 -0.6817  0.0350
  932TIP3    H1 2760   6.646   0.728   3.287 -0.2786 -0.4221  0.6499
  932TIP3    H2 2761   6.789   0.762   3.321 -0.0429 -0.5085 -0.2236
  933TIP3   OH2 2762   4.629   3.362   0.835 -0.3200 -0.5051  0.1221
  933TIP3    H1 2763   4.721   3.337   0.830 -0.8564 -2.6174  0.0005
  933TIP3    H2 2764   4.623   3.414   0.915  0.8129 -1.1573  0.6604
  934TIP3   OH2 2765   0.337   5.512   3.093  0.0080 -0.7092 -0.2429
  934TIP3    H1 2766   0.317   5.573   3.164  1.2390  2.1450 -2.1539
  934TIP3    H2 2767   0.388   5.443   3.135  1.0874  1.0918  1.6356
  935TIP3   OH2 2768   4.114   5.963   4.117 -0.3470  0.9534  0.2034
  935TIP3    H1 2769   4.032   5.978   4.164  0.1976  0.0041  1.5449
  935TIP3    H2 2770   4.088   5.933   4.030 -1.5422 -1.7697  1.3667
  936TIP3   OH2 2771   6.506   0.173   5.181 -0.6728  0.4714 -0.1376
  936TIP3    H1 2772   6.443   0.101   5.179 -1.1166  0.8469 -0.0027
  936TIP3    H2 2773   6.452   0.251   5.195 -0.0277  0.5988  1.9584
  937TIP3   OH2 2774   2.325   0.824   0.505 -0.0959  0.1802 -0.0433
  937TIP3    H1 2775   2.359   0.793   0.588  0.9664 -1.9165 -1.1922
  937TIP3    H2 2776   2.246   0.773   0.489 -0.4447  0.7541 -0.2243
  938TIP3   OH2 2777   6.620   3.084   3.678  0.3577  0.4983  0.2819
  938TIP3    H1 2778   6.566   3.012   3.709 -1.3639  1.7180  0.2700
  938TIP3    H2 2779   6.638   3.064   3.586  0.0969 -0.0247  0.3466
  939TIP3   OH2 2780   2.813   0.486   2.676 -0.2834 -0.5500 -0.0209
  939TIP3    H1 2781   2.879   0.458   2.613  1.6064 -1.6885  2.2889
  939TIP3    H2 2782   2.775   0.405   2.709  1.2011 -0.2927  2.6479
  940TIP3   OH2 2783   0.385   1.755   2.694 -0.1471 -0.1469 -0.1512
  940TIP3    H1 2784   0.417   1.795   2.775 -0.4144  2.1561 -1.0916
  940TIP3    H2 2785   0.297   1.725   2.715 -0.2552  0.5374  0.4207
  941TIP3   OH2 2786   2.208   1.255   0.156 -0.5610  0.1591 -0.3449
  941TIP3    H1 2787   2.214   1.159   0.156  1.4013  0.2436 -0.5232
  941TIP3    H2 2788   2.118   1.273   0.130 -1.5219 -1.6421  1.3985
  942TIP3   OH2 2789   2.654   4.863   1.192  0.0856  0.4461 -0.4594
  942TIP3    H1 2790   2.626   4.916   1.117  0.0016 -0.6193 -1.1956
  942TIP3    H2 2791   2.573   4.849   1.242  0.3602  2.2850  0.6042
  943TIP3   OH2 2792   4.854   2.755   2.452  0.3118 -0.1639 -0.3270
  943TIP3    H1 2793   4.875   2.700   2.376 -1.6611 -0.9577 -0.3634
  943TIP3    H2 2794   4.786   2.814   2.419  1.5929  1.6002  0.0282
  944TIP3   OH2 2795   0.618   4.489   2.654  0.2933 -0.3427  0.0039
  944TIP3    H1 2796   0.607   4.508   2.747 -0.7462 -0.9006  0.0124
  944TIP3    H2 2797   0.580   4.402   2.643 -0.8686  0.2827 -1.1888
  945TIP3   OH2 2798   4.619   0.407   4.119  0.3213 -0.9957  0.0432
  945TIP3    H1 2799   4.553   0.398   4.050  0.9310 -1.4948 -0.4856
  945TIP3    H2 2800   4.571   0.444   4.193 -0.5189 -1.2084 -0.3807
  946TIP3   OH2 2801   6.738   5.917   1.039  0.4405  0.0603  0.3194
  946TIP3    H1 2802   6.684   5.946   1.112 -0.2284 -0.5320  0.0764
  946TIP3    H2 2803   6.746   5.822   1.051 -0.4186 -0.1880 -0.8342
  947TIP3   OH2 2804   4.630   5.938   2.107 -0.0851 -0.1425  0.5411
  947TIP3    H1 2805   4.646   5.884   2.029 -1.7921 -0.3895  0.3155
  947TIP3    H2 2806   4.620   6.027   2.073 -1.2396 -0.3123  0.4083
  948TIP3   OH2 2807   6.514   2.725   0.869  0.4614 -0.1240  0.3687
  948TIP3    H1 2808   6.545   2.661   0.933  1.0040  0.3735  0.6169
  948TIP3    H2 2809   6.545   2.809   0.903  0.4530  0.1827 -0.3744
  949TIP3   OH2 2810   1.102   5.919   1.197  0.0543 -0.0098 -0.5084
  949TIP3    H1 2811   1.061   5.844   1.154  0.4092  0.0799 -1.0095
  949TIP3    H2 2812   1.194   5.894   1.204 -0.0921 -0.2664  0.7217
  950TIP3   OH2 2813   6.680   4.494   5.866  0.4567 -0.8092  0.1686
  950TIP3    H1 2814   6.679   4.528   5.777  0.6333 -0.5138  0.2757
  950TIP3    H2 2815   6.620   4.552   5.914  0.9905 -0.4549  0.4201
  951TIP3   OH2 2816   5.689   2.387   3.026  0.1442  0.5969  0.4921
  951TIP3    H1 2817   5.673   2.409   2.934  1.1419 -0.6793 -0.0332
  951TIP3    H2 2818   5.660   2.296   3.034 -0.6768  0.9488  1.6570
  952TIP3   OH2 2819   4.817   4.349   1.623 -0.0338  0.6569  0.2168
  952TIP3    H1 2820   4.855   4.281   1.678 -0.7034  0.7354  0.7978
  952TIP3    H2 2821   4.879   4.359   1.550 -0.4598 -1.3418 -0.4835
  953TIP3   OH2 2822   5.786   4.621   2.387 -0.5281  0.0104  0.5014
  953TIP3    H1 2823   5.839   4.583   2.457 -1.7796 -1.1350  0.8853
  953TIP3    H2 2824   5.800   4.563   2.312  0.5371  1.0358 -0.1235
  954TIP3   OH2 2825   1.744   2.765   5.815  0.5722  0.3215  0.5250
  954TIP3    H1 2826   1.765   2.748   5.907  0.7239 -0.5293  0.3503
  954TIP3    H2 2827   1.780   2.689   5.769  0.1791  0.5640 -0.1934
  955TIP3   OH2 2828   2.098   6.536   1.372  0.1664  0.0148  0.4136
  955TIP3    H1 2829   2.053   6.556   1.289  0.6241 -1.1091 -0.1355
  955TIP3    H2 2830   2.117   6.442   1.366  0.7650  0.0500  1.5347
  956TIP3   OH2 2831   4.153   1.387   1.042 -0.2797 -0.2497  0.2257
  956TIP3    H1 2832   4.167   1.417   1.131  0.1129 -1.3476  0.5495
  956TIP3    H2 2833   4.162   1.466   0.988  2.3307  0.0068  0.8858
  957TIP3   OH2 2834   6.281   1.260   2.779 -0.2094 -0.4221 -0.2574
  957TIP3    H1 2835   6.211   1.196   2.791 -0.4959 -0.2751 -1.0429
  957TIP3    H2 2836   6.275   1.317   2.855 -0.9178 -0.4387 -0.2925
  958TIP3   OH2 2837   1.038   4.161   3.045  0.3253  0.2507 -0.0460
  958TIP3    H1 2838   0.955   4.158   2.998  0.3065  1.4080 -0.1162
  958TIP3    H2 2839   1.104   4.144   2.977  0.1876 -0.1159 -0.0925
  959TIP3   OH2 2840   0.998   1.962   4.964 -0.3119  0.7025 -0.2358
  959TIP3    H1 2841   1.062   1.896   4.991  0.1390  0.6116 -1.4327
  959TIP3    H2 2842   1.004   2.030   5.031  0.6576  0.4418 -0.0323
  960TIP3   OH2 2843   4.040   5.914   4.457  0.0969  0.4242  0.0313
  960TIP3    H1 2844   4.097   5.863   4.399 -0.1996  0.8725 -0.6604
  960TIP3    H2 2845   4.052   5.873   4.543  0.2583 -0.4897 -0.4085
  961TIP3   OH2 2846   4.424   0.713   0.941  0.4290 -0.2281 -0.2200
  961TIP3    H1 2847   4.369   0.691   1.016 -0.2068  1.8873  0.0075
  961TIP3    H2 2848   4.501   0.756   0.979  0.6720 -0.2040 -0.7262
  962TIP3   OH2 2849   2.205   2.516   1.084 -0.1113 -0.9084  0.4913
  962TIP3    H1 2850   2.130   2.572   1.104  0.2418 -0.5651  0.8704
  962TIP3    H2 2851   2.211   2.518   0.989  1.8899  2.4315  0.5350
  963TIP3   OH2 2852   0.458   4.281   0.943  0.4280 -0.1327 -0.2750
  963TIP3    H1 2853   0.543   4.248   0.916  0.8591  1.7138 -1.3225
  963TIP3    H2 2854   0.448   4.364   0.896 -1.5362  0.1549  0.5508
  964TIP3   OH2 2855   1.004   6.732   4.578 -0.1432 -0.3952  0.2597
  964TIP3    H1 2856   1.012   6.654   4.522 -1.8603 -0.2581 -0.2388
  964TIP3    H2 2857   1.003   6.805   4.516  2.1225  0.1232  0.7589
  965TIP3   OH2 2858   2.802   0.168   0.439  0.1903 -0.0153  0.6322
  965TIP3    H1 2859   2.890   0.205   0.449  0.3159 -0.2101  0.2628
  965TIP3    H2 2860   2.802   0.090   0.494  0.0476  0.3256  1.1174
  966TIP3   OH2 2861   6.414   0.472   3.765 -0.0460  0.5091  0.2419
  966TIP3    H1 2862   6.450   0.555   3.731  1.8318  0.0146  0.9336
  966TIP3    H2 2863   6.443   0.469   3.856 -0.8947 -0.4828  0.4903
  967TIP3   OH2 2864   6.274   6.562   3.018 -0.6776 -0.4875  0.2074
  967TIP3    H1 2865   6.308   6.477   2.990  0.5550  0.3250 -0.8606
  967TIP3    H2 2866   6.269   6.555   3.114  2.0970 -0.8510  0.4220
  968TIP3   OH2 2867   2.732   6.234   0.783  0.3923 -0.2049  0.4292
  968TIP3    H1 2868   2.815   6.194   0.760  1.2019  1.5420  0.0903
  968TIP3    H2 2869   2.741   6.326   0.756 -2.1892 -0.2565 -1.0020
  969TIP3   OH2 2870   5.674   1.424   0.520  0.0416 -0.8506  0.0412
  969TIP3    H1 2871   5.684   1.425   0.425 -0.6125 -0.9916 -0.0353
  969TIP3    H2 2872   5.701   1.511   0.548 -2.9020  0.4052 -0.6442
  970TIP3   OH2 2873   5.088   4.484   4.327 -0.2176 -0.6498 -0.1906
  970TIP3    H1 2874   5.076   4.400   4.283 -0.6329  0.9274 -3.4055
  970TIP3    H2 2875   5.159   4.526   4.279 -1.0876  1.4449  0.2294
  971TIP3   OH2 2876   4.573   3.220   3.047 -0.1058 -0.1900 -0.3790
  971TIP3    H1 2877   4.592   3.127   3.059  0.7562  0.0875  0.4971
  971TIP3    H2 2878   4.510   3.222   2.975  0.7408 -1.3660 -1.1827
  972TIP3   OH2 2879   4.091   4.535   2.525 -0.3472  0.2378 -0.7723
  972TIP3    H1 2880   4.029   4.470   2.491  0.2019 -0.7316  0.0132
  972TIP3    H2 2881   4.036   4.607   2.554 -1.1704 -0.7566  0.2432
  973TIP3   OH2 2882   3.093   5.646   1.662 -0.1386  0.2697 -0.1511
  973TIP3    H1 2883   3.014   5.606   1.699 -0.8771  2.5847  0.9969
  973TIP3    H2 2884   3.108   5.598   1.580 -2.0235 -1.0343  0.1932
  974TIP3   OH2 2885   3.263   2.786   1.707  0.3421  0.4493  0.1319
  974TIP3    H1 2886   3.249   2.876   1.736  1.8182  0.2785  1.6021
  974TIP3    H2 2887   3.332   2.753   1.766 -0.0100 -1.5681 -0.4971
  975TIP3   OH2 2888   5.354   3.018   1.468  0.0133  0.0918 -0.1808
  975TIP3    H1 2889   5.286   3.083   1.452 -1.7319 -1.1219  1.8128
  975TIP3    H2 2890   5.316   2.935   1.439  0.3673 -0.7082  1.5207
  976TIP3   OH2 2891   3.951   4.256   1.015  0.0369 -0.3117  0.0155
  976TIP3    H1 2892   4.041   4.265   0.985  0.8127 -1.7439  1.7600
  976TIP3    H2 2893   3.941   4.163   1.033 -1.2786  0.0584  1.3738
  977TIP3   OH2 2894   7.120   4.677   5.546  0.6193 -0.0689  0.3669
  977TIP3    H1 2895   7.113   4.625   5.626  0.5316  0.8562  0.9743
  977TIP3    H2 2896   7.103   4.767   5.574 -0.1519  0.1805 -0.8212
  978TIP3   OH2 2897   7.167   1.606   3.396  0.3176 -0.0686 -0.3588
  978TIP3    H1 2898   7.261   1.626   3.391  0.3369  0.0918  0.5321
  978TIP3    H2 2899   7.139   1.646   3.478 -0.3891 -0.7080 -0.2877
  979TIP3   OH2 2900   6.717   4.678   5.032  0.4220  0.8492  0.5656
  979TIP3    H1 2901   6.662   4.628   5.092  0.4817  1.3028  1.0038
  979TIP3    H2 2902   6.687   4.653   4.945 -1.2458  1.9161  0.7949
  980TIP3   OH2 2903   6.284   4.070   0.107 -0.4794  0.5870  0.2640
  980TIP3    H1 2904   6.283   4.033   0.195 -0.4273  0.3245  0.1533
  980TIP3    H2 2905   6.355   4.024   0.062 -2.1175 -1.1023 -0.7112
  981TIP3   OH2 2906   5.013   3.576   0.819 -0.0817  0.4122 -0.1162
  981TIP3    H1 2907   4.926   3.599   0.852 -0.6500  1.8067 -2.4211
  981TIP3    H2 2908   5.053   3.528   0.892 -2.6212  0.0085  1.1564
  982TIP3   OH2 2909   3.953   3.592   4.215 -0.8135  0.2811  0.1906
  982TIP3    H1 2910   3.993   3.620   4.133  0.1060 -0.1564  0.4749
  982TIP3    H2 2911   3.989   3.504   4.230 -0.7138  0.4902  1.2328
  983TIP3   OH2 2912   3.017   6.642   4.469 -0.3520  0.6243 -0.2082
  983TIP3    H1 2913   3.016   6.579   4.541 -0.0067  1.8639  0.9223
  983TIP3    H2 2914   3.075   6.603   4.404 -0.5653 -0.4625  0.2351
  984TIP3   OH2 2915   1.386   5.741   1.805 -0.0242 -0.1930  0.2903
  984TIP3    H1 2916   1.336   5.665   1.775  0.6600  0.2385 -2.1268
  984TIP3    H2 2917   1.356   5.813   1.749  0.9306  0.8113  1.0327
  985TIP3   OH2 2918   1.475   5.872   2.034 -0.1171  0.9922  0.2627
  985TIP3    H1 2919   1.469   5.794   1.980  0.4623  0.3027  1.1585
  985TIP3    H2 2920   1.391   5.917   2.021 -0.1302  0.6641 -0.8970
  986TIP3   OH2 2921   0.231   3.530   5.247  0.6070 -0.7003  0.7176
  986TIP3    H1 2922   0.222   3.446   5.292 -0.4485 -0.7623  0.4041
  986TIP3    H2 2923   0.146   3.573   5.256  1.5918  1.0591  2.2374
  987TIP3   OH2 2924   2.272   1.436   4.361  0.5997 -0.0942  0.4153
  987TIP3    H1 2925   2.252   1.416   4.269  0.4865 -0.1826  0.4593
  987TIP3    H2 2926   2.364   1.412   4.371 -0.1415 -3.0221  1.1212
  988TIP3   OH2 2927   0.639   0.102   3.484  0.3616  0.5394  0.1637
  988TIP3    H1 2928   0.604   0.110   3.395  0.7701  0.8059  0.0210
  988TIP3    H2 2929   0.724   0.145   3.479  0.6219  0.0618  0.5515
  989TIP3   OH2 2930   4.534   5.985   1.380  0.0601  0.1042  0.4273
  989TIP3    H1 2931   4.472   5.996   1.453 -0.5724 -0.2789 -0.0444
  989TIP3    H2 2932   4.558   5.892   1.383  0.1562  0.1230  0.2447
  990TIP3   OH2 2933   6.402   1.333   5.390 -0.0409  0.4159  0.3689
  990TIP3    H1 2934   6.375   1.251   5.348  3.2554 -0.9637  0.6842
  990TIP3    H2 2935   6.367   1.401   5.334 -0.5492 -1.2707 -1.4630
  991TIP3   OH2 2936   5.872   1.195   0.574 -0.6649 -0.4066 -0.6666
  991TIP3    H1 2937   5.880   1.245   0.492  2.6524  0.2300 -0.0757
  991TIP3    H2 2938   5.923   1.116   0.559  0.7133  0.1153  1.0367
  992TIP3   OH2 2939   2.043   2.759   1.685  0.2567  0.0506  0.0437
  992TIP3    H1 2940   1.986   2.804   1.624  1.2589  1.4369  0.0715
  992TIP3    H2 2941   2.120   2.816   1.693  1.5916 -1.6508  0.1060
  993TIP3   OH2 2942   1.395   6.777   2.429  0.2310 -0.4215  0.4547
  993TIP3    H1 2943   1.439   6.843   2.482 -0.2502  0.6235 -0.3887
  993TIP3    H2 2944   1.408   6.695   2.475  0.5303  0.3273  1.7364
  994TIP3   OH2 2945   6.904   2.514   2.007  0.3712  0.3034 -0.4476
  994TIP3    H1 2946   6.932   2.506   1.916  1.5438 -2.2312  0.0421
  994TIP3    H2 2947   6.985   2.526   2.056 -0.0387 -0.3238  0.4145
  995TIP3   OH2 2948   3.532   1.982   0.230  0.0641  0.1863  0.0046
  995TIP3    H1 2949   3.563   1.896   0.257  1.5043  0.3054 -1.1204
  995TIP3    H2 2950   3.462   2.003   0.291 -1.0934 -2.2659 -0.3869
  996TIP3   OH2 2951   6.269   2.736   4.034 -0.0373 -0.7570 -0.0265
  996TIP3    H1 2952   6.219   2.779   4.104  0.1638  0.0075 -0.3423
  996TIP3    H2 2953   6.210   2.736   3.959  0.7855  1.1924 -0.7492
  997TIP3   OH2 2954   4.792   6.795   0.959  0.6960  0.0025  0.0873
  997TIP3    H1 2955   4.763   6.707   0.933  0.9617 -0.3273  0.8747
  997TIP3    H2 2956   4.719   6.830   1.010  1.3840 -0.5762  1.5201
  998TIP3   OH2 2957   2.905   5.600   0.777  0.1690 -0.1723  0.3433
  998TIP3    H1 2958   2.843   5.618   0.847 -0.2492 -1.1513  0.2395
  998TIP3    H2 2959   2.861   5.536   0.721  1.0181 -0.4099 -0.0855
  999TIP3   OH2 2960   7.056   2.095   3.471  0.5679 -0.4183 -0.1875
  999TIP3    H1 2961   7.079   2.028   3.407 -0.5339 -0.6103 -0.3994
  999TIP3    H2 2962   7.074   2.178   3.427  3.5194 -0.5086  0.6483
 1000TIP3   OH2 2963   5.670   0.911   4.463  0.4165  0.0685 -0.0086
 1000TIP3    H1 2964   5.751   0.941   4.505 -1.7394  2.0182  3.1539
 1000TIP3    H2 2965   5.654   0.825   4.502 -0.3122  0.8150  1.4029
 1001TIP3   OH2 2966   2.168   2.588   4.180  0.2476  0.2474  0.1638
 1001TIP3    H1 2967   2.244   2.645   4.166  0.6228  0.3526  2.2636
 1001TIP3    H2 2968   2.204   2.512   4.226 -0.7835 -0.1002  0.4258
 1002TIP3   OH2 2969   2.624   1.209   3.941 -0.0180 -0.0408 -0.1648
 1002TIP3    H1 2970   2.657   1.201   4.030 -0.8220  0.5819  0.1947
 1002TIP3    H2 2971   2.693   1.256   3.894  0.2929 -0.1482  0.1820
 1003TIP3   OH2 2972   0.460   2.120   0.170  0.9050 -0.0825  0.3722
 1003TIP3    H1 2973   0.525   2.160   0.228 -1.5908  0.0713  3.3453
 1003TIP3    H2 2974   0.392   2.186   0.162  0.3564 -0.8214 -1.3514
 1004TIP3   OH2 2975   0.820   2.729   1.638 -0.0863  0.2798  0.0355
 1004TIP3    H1 2976   0.760   2.804   1.630  1.4231  1.6330  0.7780
 1004TIP3    H2 2977   0.766   2.660   1.677 -2.2963 -0.0663 -3.2204
 1005TIP3   OH2 2978   1.428   3.916   0.959  0.3377  0.5024  0.0211
 1005TIP3    H1 2979   1.499   3.908   1.022 -0.4869 -0.4179  0.8902
 1005TIP3    H2 2980   1.406   3.825   0.937 -0.0022  0.7941 -0.8763
 1006TIP3   OH2 2981   3.757   6.742   5.741 -0.5194  0.5074  0.0938
 1006TIP3    H1 2982   3.839   6.721   5.698 -0.4687 -1.6708  1.1376
 1006TIP3    H2 2983   3.698   6.671   5.716 -1.0551  0.2255  2.0477
 1007TIP3   OH2 2984   1.436   0.613   0.797  0.0399  0.1421  0.3060
 1007TIP3    H1 2985   1.446   0.589   0.889 -0.1945 -0.5146  0.1630
 1007TIP3    H2 2986   1.383   0.693   0.798 -0.1013  0.0428  0.7288
 1008TIP3   OH2 2987   5.325   6.427   3.538  0.0793  0.0762 -0.1043
 1008TIP3    H1 2988   5.360   6.515   3.545 -0.7106  0.4422 -0.5862
 1008TIP3    H2 2989   5.391   6.378   3.488 -0.4934  0.9916 -1.8222
 1009TIP3   OH2 2990   2.207   1.925   1.161 -0.0082 -0.0858 -0.6392
 1009TIP3    H1 2991   2.227   2.009   1.121 -0.6315  0.1877 -0.3908
 1009TIP3    H2 2992   2.256   1.924   1.243 -1.2619  0.7374  0.1497
 1010TIP3   OH2 2993   6.704   4.604   0.956 -0.0627 -0.0198  0.5301
 1010TIP3    H1 2994   6.626   4.609   0.901 -0.1874 -2.0627  0.4637
 1010TIP3    H2 2995   6.683   4.659   1.032 -1.3009 -0.0323  0.2166
 1011TIP3   OH2 2996   4.129   3.019   0.778  0.1796 -0.1896  0.1819
 1011TIP3    H1 2997   4.195   2.949   0.777 -2.9722 -3.4903  0.3149
 1011TIP3    H2 2998   4.108   3.034   0.686 -1.0860 -1.5664  0.2113
 1012TIP3   OH2 2999   0.110   1.889   2.935  0.8341 -0.2015 -0.4017
 1012TIP3    H1 3000   0.050   1.953   2.896 -0.3540 -0.4557  0.9233
 1012TIP3    H2 3001   0.172   1.869   2.865 -1.3839 -0.9300 -2.2949
 1013TIP3   OH2 3002   6.391   6.681   0.133  0.5493 -0.1988  0.1290
 1013TIP3    H1 3003   6.408   6.759   0.081 -1.8506  0.1789 -0.2276
 1013TIP3    H2 3004   6.339   6.712   0.207 -1.5558 -1.5309 -0.6816
 1014TIP3   OH2 3005   5.975   0.744   1.650  0.2467  0.4853  0.2261
 1014TIP3    H1 3006   6.071   0.744   1.643  0.4644  1.6695  2.3326
 1014TIP3    H2 3007   5.957   0.694   1.729 -0.8560  0.5302  0.0108
 1015TIP3   OH2 3008   5.486   6.477   2.214  0.2336 -0.2259 -0.3215
 1015TIP3    H1 3009   5.536   6.555   2.190 -0.6508  0.4729  0.0171
 1015TIP3    H2 3010   5.529   6.405   2.169  0.3331  0.6403 -1.6609
 1016TIP3   OH2 3011   3.022   1.018   4.883 -0.3544  0.1963 -0.2624
 1016TIP3    H1 3012   2.947   0.984   4.931  0.0638 -0.8341 -0.3165
 1016TIP3    H2 3013   2.994   1.105   4.853 -1.4241 -0.0692 -0.0656
 1017TIP3   OH2 3014   0.010   5.079   0.019 -0.2621 -0.1449  0.3392
 1017TIP3    H1 3015  -0.043   5.147   0.062 -0.1717 -1.2111  2.2145
 1017TIP3    H2 3016   0.083   5.064   0.078  0.9636 -0.3104 -1.1501
 1018TIP3   OH2 3017   2.260   2.852   3.469 -0.2016 -0.6916 -0.1165
 1018TIP3    H1 3018   2.347   2.891   3.462 -0.9563  1.7922  2.6755
 1018TIP3    H2 3019   2.208   2.897   3.402  0.0582 -0.2989 -0.0564
 1019TIP3   OH2 3020   1.657   0.543   2.927 -0.8380 -0.0326  0.0561
 1019TIP3    H1 3021   1.566   0.574   2.935 -0.1518  2.4656 -0.8556
 1019TIP3    H2 3022   1.690   0.543   3.016 -1.5385 -0.3532  0.3289
 1020TIP3   OH2 3023   0.176   1.100   5.818 -0.2646  0.2890  0.2633
 1020TIP3    H1 3024   0.115   1.121   5.889  0.6924  0.9795  0.9075
 1020TIP3    H2 3025   0.253   1.154   5.837  0.0316  0.4342 -1.2763
 1021TIP3   OH2 3026   2.557   0.490   0.377  0.0840  0.0097 -0.1411
 1021TIP3    H1 3027   2.543   0.433   0.453 -1.1555  0.1746 -0.2392
 1021TIP3    H2 3028   2.583   0.574   0.415  0.6899 -0.2585  0.0479
 1022TIP3   OH2 3029   0.682   3.988   1.765  0.1966 -0.5671 -0.2502
 1022TIP3    H1 3030   0.709   4.002   1.856 -0.7443 -2.9432  0.4636
 1022TIP3    H2 3031   0.630   4.066   1.744 -1.3082 -0.8785  1.9893
 1023TIP3   OH2 3032   3.918   3.290   2.148  1.3721  0.1349  0.3223
 1023TIP3    H1 3033   3.988   3.341   2.107  1.1051  0.2904  0.0538
 1023TIP3    H2 3034   3.963   3.231   2.208  1.6650  0.8681  0.8317
 1024TIP3   OH2 3035   5.190   5.701   2.892  0.9523  0.0734  0.1937
 1024TIP3    H1 3036   5.133   5.732   2.821  0.1499 -0.0212  0.7846
 1024TIP3    H2 3037   5.133   5.648   2.947  1.2733  1.1134  1.5691
 1025TIP3   OH2 3038   2.409   1.835   4.392 -0.1217  0.4728 -0.0440
 1025TIP3    H1 3039   2.368   1.811   4.475 -1.1285  0.0402 -0.6459
 1025TIP3    H2 3040   2.436   1.752   4.353  0.2273  0.6624 -0.2171
 1026TIP3   OH2 3041   3.573   3.779   0.703  0.3002  0.1205  0.3246
 1026TIP3    H1 3042   3.560   3.762   0.609  0.8432  1.4963 -0.0176
 1026TIP3    H2 3043   3.656   3.825   0.708 -0.0849  0.7306  1.4118
 1027TIP3   OH2 3044   5.093   0.691  -0.024  0.2835 -0.0930 -0.4715
 1027TIP3    H1 3045   4.999   0.671  -0.025  0.5108 -1.3557 -2.3947
 1027TIP3    H2 3046   5.115   0.695   0.069 -1.7298  0.6137  0.0450
 1028TIP3   OH2 3047   6.640   5.704   5.330 -0.0539  0.2156 -0.4235
 1028TIP3    H1 3048   6.717   5.725   5.383 -0.9941  1.6512  0.4709
 1028TIP3    H2 3049   6.591   5.787   5.325 -1.2086 -0.4890 -1.5180
 1029TIP3   OH2 3050   2.674   4.656   2.015 -0.1677  0.2864  0.2179
 1029TIP3    H1 3051   2.680   4.610   1.931  0.7747  0.3585  0.2319
 1029TIP3    H2 3052   2.580   4.665   2.031 -0.3636  0.4032 -0.9050
 1030TIP3   OH2 3053   4.151   1.234   0.187  0.5138 -0.1463 -0.2320
 1030TIP3    H1 3054   4.209   1.205   0.257  0.7455  1.0746  0.0971
 1030TIP3    H2 3055   4.118   1.318   0.216 -0.9360 -0.5152 -0.7082
 1031TIP3   OH2 3056   6.385   1.569   5.270  0.6928  0.1144  0.1217
 1031TIP3    H1 3057   6.480   1.561   5.264  0.7698  1.5018 -4.1925
 1031TIP3    H2 3058   6.371   1.655   5.310  1.1852 -0.2347  1.0854
 1032TIP3   OH2 3059   0.383   3.896   5.663 -0.1233  0.5226  0.0608
 1032TIP3    H1 3060   0.297   3.881   5.623 -0.7115  1.3016  0.9775
 1032TIP3    H2 3061   0.362   3.932   5.750  1.0704 -1.7768  1.3904
 1033TIP3   OH2 3062   6.533   2.063   2.426  0.2111 -0.3206 -0.1948
 1033TIP3    H1 3063   6.520   2.122   2.500  0.6260 -0.2522 -0.1751
 1033TIP3    H2 3064   6.592   2.110   2.367  0.5110 -0.6952 -0.1974
 1034TIP3   OH2 3065   5.767   3.747   0.604 -0.2075 -0.2471  0.2158
 1034TIP3    H1 3066   5.675   3.773   0.603 -0.3626 -0.5031  2.2758
 1034TIP3    H2 3067   5.778   3.693   0.526 -2.6220 -2.7325  1.4168
 1035TIP3   OH2 3068   1.321   4.255   3.472  0.1569 -0.3487  0.4256
 1035TIP3    H1 3069   1.256   4.235   3.539 -0.4500  1.4066  0.4315
 1035TIP3    H2 3070   1.285   4.219   3.391 -0.9105  0.7033  0.4111
 1036TIP3   OH2 3071   0.127   6.205   0.707 -0.2122  0.6964  0.3701
 1036TIP3    H1 3072   0.135   6.167   0.619 -2.5002  1.7939 -0.4021
 1036TIP3    H2 3073   0.168   6.291   0.700  1.4328  0.0058  1.0092
 1037TIP3   OH2 3074   1.027   5.027   3.887 -0.3297 -0.1066  0.3999
 1037TIP3    H1 3075   1.117   5.005   3.862  0.6498  4.4174 -0.9891
 1037TIP3    H2 3076   1.034   5.064   3.975 -0.9514 -0.2001  0.4971
 1038TIP3   OH2 3077   1.841   5.833   2.300  0.6191 -0.4183 -0.1949
 1038TIP3    H1 3078   1.918   5.889   2.300 -1.3568  2.5258 -0.9696
 1038TIP3    H2 3079   1.801   5.847   2.214 -2.8426  1.3654  1.5066
 1039TIP3   OH2 3080   2.498   5.208   3.478 -0.4930 -0.6218 -0.1539
 1039TIP3    H1 3081   2.568   5.178   3.420 -0.7726 -1.2644 -0.1721
 1039TIP3    H2 3082   2.494   5.302   3.464  0.7243 -0.4831  0.2429
 1040TIP3   OH2 3083   5.339   4.907   2.493 -0.3702  0.3293 -0.0558
 1040TIP3    H1 3084   5.417   4.860   2.464 -0.4349 -0.6951  1.3103
 1040TIP3    H2 3085   5.370   4.963   2.564 -1.1921 -2.0545  2.4008
 1041TIP3   OH2 3086   2.425   5.660   2.891  0.3999  0.5271 -0.0691
 1041TIP3    H1 3087   2.339   5.618   2.891  0.1434  0.9775 -1.5330
 1041TIP3    H2 3088   2.442   5.679   2.798  2.3832 -0.1657  0.1118
 1042TIP3   OH2 3089   3.196   2.501   0.541 -0.3683 -0.3349  0.6608
 1042TIP3    H1 3090   3.181   2.407   0.556  0.4381 -0.0908  3.4566
 1042TIP3    H2 3091   3.108   2.540   0.545 -0.4359 -0.6110  2.8365
 1043TIP3   OH2 3092   1.684   5.558   0.904 -0.1282 -0.2383  0.3747
 1043TIP3    H1 3093   1.665   5.504   0.980 -0.0763  0.4571  0.8977
 1043TIP3    H2 3094   1.621   5.630   0.909 -0.8955 -0.7808 -0.8914
 1044TIP3   OH2 3095   6.466   3.705   2.624 -0.0007 -0.6039  0.1854
 1044TIP3    H1 3096   6.510   3.643   2.566  1.3594  0.4017  0.0914
 1044TIP3    H2 3097   6.423   3.767   2.566  1.5516  0.5376  0.1886
 1045TIP3   OH2 3098   6.820   0.298   5.870 -0.2148  0.0469 -0.2944
 1045TIP3    H1 3099   6.865   0.365   5.923 -1.2671 -0.8166  1.8317
 1045TIP3    H2 3100   6.745   0.344   5.833  0.1671  0.5196 -0.4868
 1046TIP3   OH2 3101   4.720   4.594   5.520  0.2726  0.3492 -0.5426
 1046TIP3    H1 3102   4.791   4.637   5.568  1.1207  0.2154 -1.6370
 1046TIP3    H2 3103   4.751   4.591   5.429 -1.2113  0.4276 -1.0744
 1047TIP3   OH2 3104   2.609   3.751   2.305  0.3751 -0.5046  0.2773
 1047TIP3    H1 3105   2.692   3.763   2.351  0.5047 -0.8826  0.1537
 1047TIP3    H2 3106   2.576   3.839   2.290  0.4157 -0.3736  0.9409
 1048TIP3   OH2 3107   4.477   1.426   2.141  0.1131 -0.3850 -0.4666
 1048TIP3    H1 3108   4.485   1.381   2.225  0.7526 -1.4795 -1.0856
 1048TIP3    H2 3109   4.485   1.356   2.076 -0.4134  0.4378 -1.4372
 1049TIP3   OH2 3110   5.895   1.890   4.827 -0.4425 -0.1961 -0.0287
 1049TIP3    H1 3111   5.834   1.830   4.872 -1.0179  0.8263  0.5838
 1049TIP3    H2 3112   5.838   1.955   4.786  0.1149 -0.6660 -1.6373
 1050TIP3   OH2 3113   2.241   3.810   1.713 -0.0389 -0.1581 -0.1208
 1050TIP3    H1 3114   2.293   3.816   1.793 -1.7435 -1.2308  1.1106
 1050TIP3    H2 3115   2.164   3.759   1.737 -1.2155  0.5427 -2.1386
 1051TIP3   OH2 3116   1.229   3.420   1.768  0.2222  0.0406  0.2241
 1051TIP3    H1 3117   1.189   3.362   1.703  1.2776 -0.3909 -0.0735
 1051TIP3    H2 3118   1.172   3.497   1.770  0.1143  0.0308 -1.1571
 1052TIP3   OH2 3119   3.578   5.343   4.180  0.2568 -0.1895 -0.4972
 1052TIP3    H1 3120   3.580   5.331   4.275 -0.3979 -3.4706 -0.7519
 1052TIP3    H2 3121   3.486   5.363   4.160 -0.1430 -1.8546 -0.5345
 1053TIP3   OH2 3122   6.106   1.844   1.079 -0.0032 -0.1490 -0.2141
 1053TIP3    H1 3123   6.165   1.865   1.151 -1.5961  0.6842  0.9231
 1053TIP3    H2 3124   6.059   1.766   1.107  0.1224 -0.4555 -0.8356
 1054TIP3   OH2 3125   2.662   1.584   5.569  0.1180  0.0568 -0.0998
 1054TIP3    H1 3126   2.629   1.597   5.480 -0.8821 -0.2355  0.2209
 1054TIP3    H2 3127   2.712   1.664   5.587  2.4034 -0.8825 -1.7983
 1055TIP3   OH2 3128   5.460   6.242   3.387 -0.0020  0.4247 -0.0739
 1055TIP3    H1 3129   5.542   6.225   3.434 -0.5343 -0.3225  0.6085
 1055TIP3    H2 3130   5.420   6.156   3.378 -1.7987  1.0136  1.6287
 1056TIP3   OH2 3131   5.332   0.750   5.370 -0.3785 -0.2454 -0.3079
 1056TIP3    H1 3132   5.257   0.708   5.327  0.8840 -2.5940 -0.4155
 1056TIP3    H2 3133   5.408   0.716   5.323  0.9248 -0.6815  1.9582
 1057TIP3   OH2 3134   1.318   4.854   2.255  0.2329  0.0440 -0.1061
 1057TIP3    H1 3135   1.351   4.943   2.253  2.5854 -0.7605 -1.8497
 1057TIP3    H2 3136   1.339   4.823   2.343  1.1184  0.6525 -0.0859
 1058TIP3   OH2 3137   6.626   0.057   1.991  0.3185 -0.4764  0.5002
 1058TIP3    H1 3138   6.668   0.097   2.067  0.2751  0.4168  0.0651
 1058TIP3    H2 3139   6.570  -0.012   2.028  1.4208 -1.0558  1.1559
 1059TIP3   OH2 3140   5.326   0.983   1.107 -0.2870 -0.1088  0.1413
 1059TIP3    H1 3141   5.235   1.011   1.101 -0.5321 -0.9600 -0.2230
 1059TIP3    H2 3142   5.342   0.936   1.026  0.6827  0.5899 -0.0902
 1060TIP3   OH2 3143   5.406   6.045   0.599 -0.2078  0.2777 -0.3063
 1060TIP3    H1 3144   5.340   6.104   0.561 -0.4384 -0.5647 -1.2628
 1060TIP3    H2 3145   5.452   6.009   0.523  0.7635  0.1647  0.3206
 1061TIP3   OH2 3146   2.992   0.003   5.287 -0.2819  0.1523  0.0407
 1061TIP3    H1 3147   2.954  -0.032   5.368 -2.2527  0.8869 -0.4923
 1061TIP3    H2 3148   2.929   0.070   5.259  1.9996  2.2957 -0.3552
 1062TIP3   OH2 3149   4.487   5.321   0.517 -0.1089  0.1688  0.3836
 1062TIP3    H1 3150   4.532   5.406   0.526 -0.6591  0.3784  1.2249
 1062TIP3    H2 3151   4.470   5.293   0.607 -1.9783  0.2576  0.0967
 1063TIP3   OH2 3152   5.867   5.584   2.166  0.2627 -0.1459  0.4146
 1063TIP3    H1 3153   5.937   5.622   2.113  0.6219  0.1156  1.0606
 1063TIP3    H2 3154   5.885   5.615   2.255 -1.0096  0.4015  0.4987
 1064TIP3   OH2 3155   2.561   0.583   5.004 -0.2269 -0.3948 -0.2491
 1064TIP3    H1 3156   2.485   0.599   5.060 -0.3140 -2.4813  0.3093
 1064TIP3    H2 3157   2.561   0.656   4.942 -1.4298  0.7812  1.0576
 1065TIP3   OH2 3158   6.031   1.971   0.044  1.0914 -0.0764 -0.6772
 1065TIP3    H1 3159   5.937   1.989   0.051  1.2211  0.0700  1.6173
 1065TIP3    H2 3160   6.065   1.989   0.132  3.0123 -1.6624 -1.0279
 1066TIP3   OH2 3161   0.825   1.908   0.539 -0.1924  0.0436 -0.1879
 1066TIP3    H1 3162   0.835   1.828   0.590  1.7687  0.1945 -0.2865
 1066TIP3    H2 3163   0.905   1.958   0.555 -0.6692  1.2718 -1.3794
 1067TIP3   OH2 3164   6.577   3.398   0.964  0.0376 -0.3309 -0.3684
 1067TIP3    H1 3165   6.588   3.325   0.903 -2.7340  1.2775 -3.0605
 1067TIP3    H2 3166   6.591   3.476   0.911  3.8851  1.3031  2.6249
 1068TIP3   OH2 3167   6.360   0.788   0.644  0.5270 -0.6623 -0.1304
 1068TIP3    H1 3168   6.399   0.731   0.578  0.8179  1.3918 -1.8761
 1068TIP3    H2 3169   6.431   0.806   0.706  0.4994 -1.9208  0.2943
 1069TIP3   OH2 3170   5.914   0.366   2.720  0.2070 -0.0675  0.1341
 1069TIP3    H1 3171   5.886   0.406   2.803  0.7683 -0.0814  0.3412
 1069TIP3    H2 3172   5.849   0.394   2.656  0.0599  0.3895  0.4769
 1070TIP3   OH2 3173   2.820   3.501   3.754  0.3698 -0.2319 -0.2924
 1070TIP3    H1 3174   2.732   3.499   3.792  0.7999 -1.0210  0.7342
 1070TIP3    H2 3175   2.836   3.410   3.726  1.2032 -0.3246  0.4167
 1071TIP3   OH2 3176   0.574   6.468   5.328 -0.2223  0.3521  0.4233
 1071TIP3    H1 3177   0.647   6.414   5.359 -0.8976 -0.1565  1.1734
 1071TIP3    H2 3178   0.615   6.550   5.300  0.5672  0.3454  1.4973
 1072TIP3   OH2 3179   0.781   3.275   0.273 -0.8512 -0.2773 -0.0477
 1072TIP3    H1 3180   0.835   3.198   0.258 -1.4043 -0.8028  0.6037
 1072TIP3    H2 3181   0.793   3.328   0.194  0.1193 -0.6713 -0.1715
 1073TIP3   OH2 3182   4.913   6.336   5.497 -0.2654  0.3849  0.2006
 1073TIP3    H1 3183   5.008   6.335   5.513  0.1393  0.0824 -1.8074
 1073TIP3    H2 3184   4.873   6.336   5.583  1.5675  2.0131  1.1251
 1074TIP3   OH2 3185   3.222   2.493   0.220  0.5831 -0.0890  0.4101
 1074TIP3    H1 3186   3.172   2.417   0.192  1.1913  0.1040 -1.3449
 1074TIP3    H2 3187   3.253   2.471   0.307 -0.1105 -1.4081  0.3485
 1075TIP3   OH2 3188   4.139   5.877   1.170 -0.2164  0.1944  0.1959
 1075TIP3    H1 3189   4.139   5.783   1.185  0.1284 -0.3457 -2.6768
 1075TIP3    H2 3190   4.046   5.902   1.172 -0.4381 -0.5222 -0.5614
 1076TIP3   OH2 3191   5.676   0.694   4.635 -0.5216 -0.4288  0.3017
 1076TIP3    H1 3192   5.744   0.753   4.666 -0.9839 -0.1134  0.7426
 1076TIP3    H2 3193   5.633   0.661   4.715  1.3227 -3.3741  0.2243
 1077TIP3   OH2 3194   1.867   2.210   4.598  0.3824 -0.8828  0.1211
 1077TIP3    H1 3195   1.861   2.236   4.507 -1.2004 -3.3761 -0.5890
 1077TIP3    H2 3196   1.813   2.273   4.645  0.0689 -0.3851 -0.8827
 1078TIP3   OH2 3197   6.724   3.905   4.470 -0.0355  0.0388 -0.2052
 1078TIP3    H1 3198   6.810   3.938   4.495  0.1706 -1.1462  0.6783
 1078TIP3    H2 3199   6.690   3.864   4.549  0.2783 -3.0474 -1.5477
 1079TIP3   OH2 3200   0.817   1.872   1.500  0.1585  0.4598  0.2563
 1079TIP3    H1 3201   0.820   1.836   1.411  0.8938 -0.2644  0.5531
 1079TIP3    H2 3202   0.849   1.961   1.491 -0.5307  0.6572 -0.3200
 1080TIP3   OH2 3203   3.798   2.222   2.019  0.4429  0.8313  0.1627
 1080TIP3    H1 3204   3.705   2.211   2.038  0.6614 -0.6032  0.5001
 1080TIP3    H2 3205   3.838   2.243   2.104  0.7273 -0.7952  0.4625
 1081TIP3   OH2 3206   6.864   0.760   4.034  0.1910 -0.1137 -0.8224
 1081TIP3    H1 3207   6.832   0.686   4.086  0.8013 -0.8585 -1.4664
 1081TIP3    H2 3208   6.816   0.754   3.952 -1.7734  1.8731  0.1023
 1082TIP3   OH2 3209   6.776   0.427   2.473 -0.4666  0.5151 -0.1085
 1082TIP3    H1 3210   6.707   0.492   2.488 -0.4623  0.7122 -0.8960
 1082TIP3    H2 3211   6.732   0.343   2.486 -0.3347  0.6615  1.4789
 1083TIP3   OH2 3212   4.888   0.417   2.455  0.2752 -0.0562  0.1532
 1083TIP3    H1 3213   4.849   0.330   2.463  0.3090 -0.0864 -0.0054
 1083TIP3    H2 3214   4.844   0.469   2.522 -0.6139  0.1166 -0.5469
 1084TIP3   OH2 3215   5.985   0.607   5.325  0.1780 -0.5774 -0.1381
 1084TIP3    H1 3216   6.008   0.698   5.303  1.0312 -0.5333  0.8525
 1084TIP3    H2 3217   6.066   0.569   5.358 -0.5653 -1.1946  1.0498
 1085TIP3   OH2 3218   2.193   1.111   0.930 -0.2893  0.0733 -0.1741
 1085TIP3    H1 3219   2.217   1.172   0.999 -0.7957 -0.0361  0.1050
 1085TIP3    H2 3220   2.209   1.158   0.849  0.8167  0.0221 -0.0077
 1086TIP3   OH2 3221   2.797   3.336   2.930  0.2388  0.2574  0.2904
 1086TIP3    H1 3222   2.751   3.379   3.001 -2.3226 -0.1109 -1.0438
 1086TIP3    H2 3223   2.734   3.275   2.893  2.4559 -1.7522 -0.4403
 1087TIP3   OH2 3224   0.420   6.169   2.450  0.3350  0.6378  0.3580
 1087TIP3    H1 3225   0.469   6.232   2.502 -0.3024  0.8773  0.6894
 1087TIP3    H2 3226   0.364   6.125   2.513 -0.0176  0.5129 -0.0363
 1088TIP3   OH2 3227   5.360   5.414   2.918  0.1410 -0.2352  0.1550
 1088TIP3    H1 3228   5.454   5.426   2.923 -0.0347  0.9533  1.0969
 1088TIP3    H2 3229   5.331   5.474   2.849  0.1506 -1.1465 -0.6520
 1089TIP3   OH2 3230   6.173   4.464   0.007  0.3014  0.1838 -0.1972
 1089TIP3    H1 3231   6.175   4.529  -0.063  0.7605  1.8496  1.2902
 1089TIP3    H2 3232   6.224   4.504   0.077  1.9105 -2.4392  0.2558
 1090TIP3   OH2 3233   1.820   4.478   5.707 -0.0710  0.1018 -0.7510
 1090TIP3    H1 3234   1.860   4.400   5.743  0.1049  0.5558  0.0523
 1090TIP3    H2 3235   1.727   4.458   5.702 -0.1967  0.2865  0.6332
 1091TIP3   OH2 3236   1.266   2.172   1.683 -0.0131 -0.3394 -0.1065
 1091TIP3    H1 3237   1.172   2.193   1.688 -0.2001 -0.7271 -1.4923
 1091TIP3    H2 3238   1.291   2.196   1.594  1.3994  0.4437  0.4687
 1092TIP3   OH2 3239   6.992   1.359   2.937 -0.1527  0.2063 -0.1699
 1092TIP3    H1 3240   7.062   1.294   2.938 -0.6998 -0.3922  0.7460
 1092TIP3    H2 3241   6.956   1.354   2.849  1.6725  1.3544 -1.0573
 1093TIP3   OH2 3242   6.768   3.506   2.513 -0.4113 -0.3796 -0.1420
 1093TIP3    H1 3243   6.825   3.432   2.494 -2.7091 -2.4246  0.4399
 1093TIP3    H2 3244   6.746   3.497   2.606 -1.0300  0.8177 -0.1436
 1094TIP3   OH2 3245   1.043   2.480   5.203 -0.1820  0.4849  0.0034
 1094TIP3    H1 3246   1.129   2.452   5.233 -0.0343  0.2125 -0.6523
 1094TIP3    H2 3247   1.018   2.549   5.264 -0.2146 -0.5229  1.1776
 1095TIP3   OH2 3248   5.880   2.348   1.007  0.9346  0.1188 -0.1197
 1095TIP3    H1 3249   5.932   2.271   0.983  0.5397  0.0755 -0.8914
 1095TIP3    H2 3250   5.881   2.349   1.102  1.3179 -0.5928 -0.1061
 1096TIP3   OH2 3251   6.072   6.532   4.017 -0.2044 -0.8491  0.8869
 1096TIP3    H1 3252   6.146   6.472   4.005  0.5017  0.0075  0.8103
 1096TIP3    H2 3253   6.004   6.479   4.058 -0.3000 -2.1789 -0.8805
 1097TIP3   OH2 3254   7.043   2.874   5.709  0.4701 -0.3329  0.3126
 1097TIP3    H1 3255   6.997   2.828   5.638  0.1661 -0.4800  0.6021
 1097TIP3    H2 3256   7.134   2.878   5.679  0.2240  0.2183 -0.4014
 1098TIP3   OH2 3257   3.269   3.011   3.891  0.1133  0.6457  0.2016
 1098TIP3    H1 3258   3.215   2.991   3.968 -0.8066 -2.4797 -1.0658
 1098TIP3    H2 3259   3.328   2.936   3.883  0.9262  1.4159 -1.5336
 1099TIP3   OH2 3260   6.783   0.950   5.124 -0.3209 -0.2783  0.2802
 1099TIP3    H1 3261   6.757   0.925   5.035 -0.0867 -0.2922  0.2148
 1099TIP3    H2 3262   6.700   0.962   5.171 -0.5212 -3.1600  0.8735
 1100TIP3   OH2 3263   2.331   3.812   2.842 -0.0470  0.3390  0.0865
 1100TIP3    H1 3264   2.275   3.885   2.868 -0.2547  0.5477 -0.8976
 1100TIP3    H2 3265   2.385   3.794   2.919  0.2089  1.7214  0.2499
 1101TIP3   OH2 3266   5.585   0.701   5.286  0.2219  0.0958 -0.3252
 1101TIP3    H1 3267   5.655   0.712   5.350 -0.5116 -0.3248  0.5733
 1101TIP3    H2 3268   5.589   0.780   5.232  0.5367  0.6992  0.5676
 1102TIP3   OH2 3269   0.903   1.750   5.552  0.1062  0.3514  1.0429
 1102TIP3    H1 3270   0.871   1.770   5.464  1.7009  3.6245  1.0591
 1102TIP3    H2 3271   0.967   1.680   5.540 -0.3214  0.1743 -0.2658
 1103TIP3   OH2 3272   2.200   2.335   4.690  0.5381 -0.1178  0.1365
 1103TIP3    H1 3273   2.176   2.279   4.616  0.3091  0.7803 -0.4915
 1103TIP3    H2 3274   2.256   2.403   4.652  0.9997 -0.0519  0.9207
 1104TIP3   OH2 3275   6.392   0.281   1.973  0.5912 -0.0523 -0.1636
 1104TIP3    H1 3276   6.374   0.196   1.932 -1.2359  0.6017 -0.8226
 1104TIP3    H2 3277   6.412   0.339   1.900 -0.1948  0.5434  0.0845
 1105TIP3   OH2 3278   1.257   1.895   2.766  0.4790 -0.1961  0.4335
 1105TIP3    H1 3279   1.222   1.983   2.777  1.1315  0.3300 -1.4161
 1105TIP3    H2 3280   1.201   1.854   2.700 -0.1029 -1.3645  1.6046
 1106TIP3   OH2 3281   6.320   3.736   3.025  0.3463  0.0036  0.3491
 1106TIP3    H1 3282   6.346   3.665   3.084  1.7874 -0.4244 -0.7411
 1106TIP3    H2 3283   6.311   3.813   3.082  0.5175 -0.6546  1.2888
 1107TIP3   OH2 3284   0.935   1.333   2.815 -0.1801  0.2203 -0.1073
 1107TIP3    H1 3285   1.016   1.352   2.768 -0.6486 -1.2308 -1.5934
 1107TIP3    H2 3286   0.900   1.419   2.841  0.7979  0.9665 -1.2099
 1108TIP3   OH2 3287   2.026   2.684   3.235  0.3620  0.5407 -0.6184
 1108TIP3    H1 3288   1.989   2.638   3.310  2.3117  1.1014  0.7575
 1108TIP3    H2 3289   2.004   2.629   3.159  0.0960 -1.0853  0.5982
 1109TIP3   OH2 3290   6.993   3.604   0.067  0.0373 -0.0034 -0.3088
 1109TIP3    H1 3291   6.932   3.579  -0.002 -0.8165 -0.1393  0.4823
 1109TIP3    H2 3292   7.002   3.526   0.121  0.3067  0.2481  0.0186
 1110TIP3   OH2 3293   2.694   4.425   0.953 -0.0425 -0.0800 -0.1977
 1110TIP3    H1 3294   2.773   4.477   0.971 -1.0227  1.6788 -0.7638
 1110TIP3    H2 3295   2.644   4.428   1.034  0.2062 -0.7376 -0.0141
 1111TIP3   OH2 3296   1.243   5.344   5.312  0.1358 -0.3206  0.1728
 1111TIP3    H1 3297   1.161   5.294   5.317 -0.2560  0.4306  2.4130
 1111TIP3    H2 3298   1.309   5.279   5.289 -0.7992 -1.3019  0.1457
 1112TIP3   OH2 3299   3.125   6.596   2.047  0.1196  0.4119 -1.0388
 1112TIP3    H1 3300   3.165   6.678   2.079 -0.0130  0.3736 -0.7746
 1112TIP3    H2 3301   3.031   6.613   2.051  0.0432 -0.1566  0.1240
 1113TIP3   OH2 3302   1.800   1.656   0.207  0.3569  0.0774 -0.1680
 1113TIP3    H1 3303   1.834   1.596   0.273  2.0762  0.3345 -0.7498
 1113TIP3    H2 3304   1.739   1.604   0.156  1.1896 -0.9541 -0.1547
 1114TIP3   OH2 3305   4.084   4.626   4.524 -0.0360  0.2211  0.1617
 1114TIP3    H1 3306   4.079   4.636   4.619 -2.3547  1.4190 -0.0066
 1114TIP3    H2 3307   4.150   4.689   4.497 -0.5444  1.0813  0.8611
 1115TIP3   OH2 3308   4.353   2.477   0.461 -0.6562 -0.2903 -0.4483
 1115TIP3    H1 3309   4.383   2.491   0.371 -2.6763  3.9043 -0.7387
 1115TIP3    H2 3310   4.258   2.486   0.456 -0.8753 -0.5426  2.0410
 1116TIP3   OH2 3311   5.628   6.187   5.633  0.0101  0.4193  0.0688
 1116TIP3    H1 3312   5.553   6.169   5.577 -0.8856 -0.5990  1.5207
 1116TIP3    H2 3313   5.615   6.130   5.709  2.2078  0.2950  0.4165
 1117TIP3   OH2 3314   0.954   1.630   0.845  0.1654  0.3161 -0.1146
 1117TIP3    H1 3315   0.869   1.586   0.846 -0.5739  1.7041  0.9283
 1117TIP3    H2 3316   0.981   1.627   0.753 -1.0910  0.0378 -0.4984
 1118TIP3   OH2 3317   1.073   1.774   3.539 -0.0362 -0.1702 -0.1377
 1118TIP3    H1 3318   1.022   1.695   3.520  0.2260 -0.2096 -0.6776
 1118TIP3    H2 3319   1.159   1.757   3.501 -0.3537  0.8811 -1.4140
 1119TIP3   OH2 3320   6.100   1.936   5.143  0.1155  0.7059 -0.1141
 1119TIP3    H1 3321   6.166   1.986   5.190  0.5001 -0.3989  0.5685
 1119TIP3    H2 3322   6.103   1.970   5.054 -0.1553  2.3806  0.4871
 1120TIP3   OH2 3323   0.871   1.577   4.874  0.2280 -0.2523 -0.3054
 1120TIP3    H1 3324   0.936   1.547   4.810  0.9782  0.7936 -0.0503
 1120TIP3    H2 3325   0.902   1.542   4.957  1.1467  1.2384  0.0051
 1121TIP3   OH2 3326   4.002   4.800   1.442  0.1776 -0.5996 -0.1574
 1121TIP3    H1 3327   3.954   4.856   1.381  0.0583 -1.4121 -0.8308
 1121TIP3    H2 3328   4.089   4.840   1.448 -0.0981  0.0038 -0.1391
 1122TIP3   OH2 3329   5.751   4.171   3.505  0.6488  0.0800  0.3253
 1122TIP3    H1 3330   5.686   4.217   3.452  0.5463 -0.3926  0.0280
 1122TIP3    H2 3331   5.737   4.078   3.484  1.1723 -0.0497  0.5415
 1123TIP3   OH2 3332   0.923   4.283   0.729 -0.0939  0.0256 -0.7008
 1123TIP3    H1 3333   0.842   4.259   0.773  0.1842 -1.1294 -0.7801
 1123TIP3    H2 3334   0.934   4.376   0.747 -1.4592  0.2143 -0.7378
 1124TIP3   OH2 3335   4.131   4.601   3.018  0.0115  0.4044 -0.3069
 1124TIP3    H1 3336   4.130   4.542   3.093  0.0467  1.3862  0.4813
 1124TIP3    H2 3337   4.043   4.639   3.015  0.1077  0.6141 -0.5502
 1125TIP3   OH2 3338   0.215   4.358   1.842 -0.2606 -0.0999  1.0267
 1125TIP3    H1 3339   0.233   4.276   1.795  1.0249  0.5995  0.2159
 1125TIP3    H2 3340   0.290   4.368   1.901 -0.5410  0.3700  1.3042
 1126TIP3   OH2 3341   3.703   4.865   4.047  0.2453 -0.2213  0.3158
 1126TIP3    H1 3342   3.697   4.827   3.960 -0.5126  2.3414 -0.8524
 1126TIP3    H2 3343   3.796   4.863   4.068  0.3411 -1.5786 -0.1882
 1127TIP3   OH2 3344   0.860   4.927   4.728  0.0763  0.0663 -0.0871
 1127TIP3    H1 3345   0.797   4.999   4.732 -0.5513 -0.4403 -0.5476
 1127TIP3    H2 3346   0.918   4.940   4.803 -1.3755 -0.1874  1.1184
 1128TIP3   OH2 3347   3.811   3.848   0.408  0.1465 -0.2840  0.7250
 1128TIP3    H1 3348   3.832   3.837   0.501 -0.8430 -0.4975  0.9286
 1128TIP3    H2 3349   3.772   3.935   0.403 -0.7557 -0.6849  0.6877
 1129TIP3   OH2 3350   5.210   3.853   4.096  0.5855  0.1055 -0.2357
 1129TIP3    H1 3351   5.148   3.899   4.153  0.1768  1.3583 -1.6464
 1129TIP3    H2 3352   5.219   3.766   4.137 -2.9417 -0.5620 -0.4970
 1130TIP3   OH2 3353   3.031   3.961   1.255 -0.4380  0.5269  0.0206
 1130TIP3    H1 3354   2.993   3.874   1.268  2.4087 -0.6855  1.0176
 1130TIP3    H2 3355   3.107   3.946   1.199  1.8586  1.8069  2.5854
 1131TIP3   OH2 3356   1.294   5.268   4.454 -0.4932  0.2288  0.3823
 1131TIP3    H1 3357   1.305   5.344   4.511 -1.0280  0.7985 -0.2462
 1131TIP3    H2 3358   1.253   5.304   4.375  0.6729 -0.4458 -0.5593
 1132TIP3   OH2 3359   4.684   6.184   2.625  0.3780 -0.6139  0.6780
 1132TIP3    H1 3360   4.702   6.093   2.603  0.0239 -0.5711  0.1846
 1132TIP3    H2 3361   4.609   6.208   2.569  0.1292 -0.1818  1.1915
 1133TIP3   OH2 3362   4.473   5.451   2.617  0.1425  0.8478  0.1833
 1133TIP3    H1 3363   4.402   5.480   2.674 -0.0581  0.3495  0.1912
 1133TIP3    H2 3364   4.439   5.372   2.574  0.3968  1.0599 -0.4144
 1134TIP3   OH2 3365   4.636   5.197   4.042 -0.4536 -0.3748 -0.0953
 1134TIP3    H1 3366   4.610   5.256   3.971  0.7482  0.5260  0.1658
 1134TIP3    H2 3367   4.648   5.112   4.000 -2.6960 -0.6061 -0.3887
 1135TIP3   OH2 3368   5.892   6.575   3.812  0.1431  0.5700  0.2661
 1135TIP3    H1 3369   5.951   6.556   3.740 -0.4559 -0.1601 -0.0506
 1135TIP3    H2 3370   5.949   6.605   3.883  1.1549 -1.8351  0.5907
 1136TIP3   OH2 3371   4.767   0.886   0.609  0.1140 -0.3369 -0.1108
 1136TIP3    H1 3372   4.839   0.844   0.562 -0.9515 -1.3367 -0.9096
 1136TIP3    H2 3373   4.718   0.814   0.647 -1.6339  0.1555 -1.3191
 1137TIP3   OH2 3374   6.756   5.239   2.322  0.1900  0.1745  0.5746
 1137TIP3    H1 3375   6.841   5.197   2.317  0.9742  1.6205  1.0906
 1137TIP3    H2 3376   6.698   5.184   2.269  1.7659 -0.0579 -0.9872
 1138TIP3   OH2 3377   5.573   3.120   4.854 -0.0739 -0.2769  0.1750
 1138TIP3    H1 3378   5.576   3.153   4.944  0.7464  0.9267 -0.2568
 1138TIP3    H2 3379   5.612   3.191   4.802  1.3305 -1.7541 -0.8743
 1139TIP3   OH2 3380   2.802   1.188   1.882  0.6136  0.7697 -0.0077
 1139TIP3    H1 3381   2.740   1.171   1.953  1.5487  0.1072  0.6707
 1139TIP3    H2 3382   2.876   1.230   1.924 -0.1383  3.4193 -1.1094
 1140TIP3   OH2 3383   5.318   1.236   1.635  0.3214  0.5767 -0.5094
 1140TIP3    H1 3384   5.223   1.228   1.622  0.1346  2.3981 -0.5864
 1140TIP3    H2 3385   5.333   1.200   1.722 -0.5596  0.8298 -0.2342
 1141TIP3   OH2 3386   2.386   0.231   3.615  0.0150 -0.1751 -0.2371
 1141TIP3    H1 3387   2.395   0.228   3.710  1.8977  2.2949 -0.2586
 1141TIP3    H2 3388   2.349   0.145   3.592  1.6595 -1.7438  2.4826
 1142TIP3   OH2 3389   1.516   6.087   4.640  0.6481  0.2701  0.2203
 1142TIP3    H1 3390   1.454   6.031   4.593 -0.6152  0.7609  1.2469
 1142TIP3    H2 3391   1.549   6.147   4.573 -0.4559  0.3925 -0.2403
 1143TIP3   OH2 3392   3.742   2.630   3.506 -0.1439 -0.3374 -0.3456
 1143TIP3    H1 3393   3.780   2.687   3.572 -0.2371  0.1054 -0.6710
 1143TIP3    H2 3394   3.812   2.618   3.442 -0.4050  0.1152 -0.7179
 1144TIP3   OH2 3395   6.520   0.950   0.097  0.4022  0.1092 -0.8382
 1144TIP3    H1 3396   6.485   0.938   0.185  0.5273  0.7258 -0.6988
 1144TIP3    H2 3397   6.458   1.009   0.054  1.5338  1.6918 -0.3980
 1145TIP3   OH2 3398   1.938   0.909   1.956  0.9103 -0.4460  0.5320
 1145TIP3    H1 3399   1.931   0.954   1.872 -0.1697 -0.4140  0.6195
 1145TIP3    H2 3400   1.873   0.952   2.012  0.3165 -1.6775  0.8168
 1146TIP3   OH2 3401   3.126   4.939   0.224  0.2155 -0.0607  0.0933
 1146TIP3    H1 3402   3.211   4.966   0.258 -0.0202 -1.1187  1.6526
 1146TIP3    H2 3403   3.135   4.845   0.208 -0.8762 -0.3679  1.0837
 1147TIP3   OH2 3404   6.069   4.164   3.263  0.0411 -0.0551  0.4199
 1147TIP3    H1 3405   6.041   4.082   3.302 -0.4432 -0.3406 -0.4916
 1147TIP3    H2 3406   5.993   4.194   3.212  0.4342  0.6162  0.2047
 1148TIP3   OH2 3407   6.254   6.679   0.719 -0.0906 -0.3164  0.5207
 1148TIP3    H1 3408   6.212   6.623   0.653  0.5377 -1.6659  1.2241
 1148TIP3    H2 3409   6.310   6.620   0.768  1.1559  1.0853  0.8584
 1149TIP3   OH2 3410   6.345   3.190   5.349  0.4705 -0.6517  0.9136
 1149TIP3    H1 3411   6.251   3.177   5.364  0.5274 -1.5167  0.5517
 1149TIP3    H2 3412   6.350   3.238   5.266  0.3578 -0.9044  0.7594
 1150TIP3   OH2 3413   3.630   5.163   3.482 -0.3764 -0.5163  0.2612
 1150TIP3    H1 3414   3.595   5.140   3.568  0.6549  0.2585  0.9186
 1150TIP3    H2 3415   3.675   5.085   3.452 -0.5725 -0.7249  0.5051
 1151TIP3   OH2 3416   0.374   2.028   5.133 -0.5416  0.3455 -0.6578
 1151TIP3    H1 3417   0.340   2.117   5.146  0.0884  0.6266 -0.9133
 1151TIP3    H2 3418   0.452   2.024   5.188 -0.0558  0.2528 -1.3410
 1152TIP3   OH2 3419   1.532   3.590   1.203 -0.1501  0.0347  0.0692
 1152TIP3    H1 3420   1.492   3.548   1.279  0.7353 -1.1931 -0.1161
 1152TIP3    H2 3421   1.510   3.534   1.129 -0.7395  1.0517 -0.5569
 1153TIP3   OH2 3422   0.822   0.818   0.747 -0.5447  0.5784 -0.0584
 1153TIP3    H1 3423   0.752   0.870   0.787 -0.5749  0.4143  0.1043
 1153TIP3    H2 3424   0.838   0.747   0.810 -0.4973  0.3985 -0.2723
 1154TIP3   OH2 3425   0.388   4.234   4.349 -0.8605  0.1712 -0.2973
 1154TIP3    H1 3426   0.326   4.303   4.329 -1.0064 -0.0713 -0.6957
 1154TIP3    H2 3427   0.452   4.237   4.278 -0.1308  0.7437  0.3709
 1155TIP3   OH2 3428   3.931   4.709   5.671 -0.0846 -0.7554 -0.3563
 1155TIP3    H1 3429   3.882   4.645   5.619  0.2433 -0.3327 -1.1960
 1155TIP3    H2 3430   3.940   4.667   5.757 -0.8726 -1.3442 -0.5467
 1156TIP3   OH2 3431   6.544   6.387   3.284 -0.0629 -0.1502 -0.4247
 1156TIP3    H1 3432   6.470   6.442   3.310 -0.7618 -0.9726 -0.6301
 1156TIP3    H2 3433   6.529   6.304   3.329  1.4623  0.0956  0.6210
 1157TIP3   OH2 3434   2.410   5.758   0.801  0.6356  0.1663  0.5254
 1157TIP3    H1 3435   2.420   5.729   0.710  0.0775  0.3955  0.3904
 1157TIP3    H2 3436   2.467   5.834   0.809  0.7116  0.1252  0.3817
 1158TIP3   OH2 3437   2.893   5.981   0.829  0.3490  0.7710  0.2363
 1158TIP3    H1 3438   2.954   6.010   0.897 -0.5528 -0.0128  1.4224
 1158TIP3    H2 3439   2.835   5.920   0.873 -0.2921  0.2487 -1.2510
 1159TIP3   OH2 3440   0.025   3.120   3.829  0.4479  0.0534 -0.1421
 1159TIP3    H1 3441   0.003   3.039   3.784  0.0272 -0.3137  0.7065
 1159TIP3    H2 3442   0.069   3.174   3.762  0.1823 -0.6239 -0.8711
 1160TIP3   OH2 3443   3.354   5.036   3.516  0.5419 -0.0841 -0.3311
 1160TIP3    H1 3444   3.429   4.979   3.534 -0.0727 -1.2288 -1.2556
 1160TIP3    H2 3445   3.293   5.017   3.587  1.5876  1.7697  1.1351
 1161TIP3   OH2 3446   4.708   0.141   4.111 -0.3689  0.4378 -0.0825
 1161TIP3    H1 3447   4.783   0.178   4.159 -1.4195  0.7967  1.3371
 1161TIP3    H2 3448   4.651   0.216   4.094 -0.8208  0.0286 -0.3943
 1162TIP3   OH2 3449   6.168   2.129   2.017  0.3358 -0.4993 -0.4561
 1162TIP3    H1 3450   6.155   2.053   1.960 -0.5065 -0.7686  0.0736
 1162TIP3    H2 3451   6.207   2.092   2.097  2.8820  0.0598 -1.3481
 1163TIP3   OH2 3452   2.235   6.333   4.754  0.0417  0.5058 -0.1348
 1163TIP3    H1 3453   2.317   6.294   4.726  1.1766  2.1468  0.7193
 1163TIP3    H2 3454   2.177   6.325   4.678  0.7632 -1.2068 -0.5445
 1164TIP3   OH2 3455   2.897   5.342   2.072 -0.2426  0.0736 -0.1632
 1164TIP3    H1 3456   2.876   5.293   2.152 -1.1413  1.1863  0.3100
 1164TIP3    H2 3457   2.963   5.405   2.100 -1.3952  1.2468  0.0115
 1165TIP3   OH2 3458   6.762   6.778   5.502 -0.1208 -0.4985  0.4967
 1165TIP3    H1 3459   6.854   6.772   5.480 -0.3312  0.1413 -0.6258
 1165TIP3    H2 3460   6.717   6.784   5.418 -1.1073  0.2214  1.0547
 1166TIP3   OH2 3461   3.515   5.281   0.019 -0.5732  0.5393  0.1277
 1166TIP3    H1 3462   3.435   5.276   0.071  0.2604  0.0023  1.4036
 1166TIP3    H2 3463   3.545   5.191   0.012 -0.1356  0.7232 -0.4414
 1167TIP3   OH2 3464   0.586   0.938   1.760 -0.0973 -0.5936 -0.3217
 1167TIP3    H1 3465   0.558   0.959   1.671  2.1243  2.2208 -0.5305
 1167TIP3    H2 3466   0.526   0.986   1.816  0.8738  0.9526 -0.5415
 1168TIP3   OH2 3467   4.484   5.332   4.439 -0.5143  0.6141  0.0706
 1168TIP3    H1 3468   4.579   5.333   4.447 -0.5434 -0.3652  0.6819
 1168TIP3    H2 3469   4.463   5.414   4.394  0.7672 -0.1080 -1.9711
 1169TIP3   OH2 3470   0.568   1.824   5.497  0.6207 -0.1533 -0.0996
 1169TIP3    H1 3471   0.532   1.736   5.504  0.7610 -0.1045  2.1655
 1169TIP3    H2 3472   0.647   1.815   5.443 -0.2554 -1.0819 -1.2625
 1170TIP3   OH2 3473   4.599   4.497   5.047 -0.1031  0.4623  0.1750
 1170TIP3    H1 3474   4.549   4.431   5.000 -0.6744  0.1985  1.1276
 1170TIP3    H2 3475   4.636   4.553   4.978 -1.3136  0.3779 -0.5775
 1171TIP3   OH2 3476   1.873  -0.014   5.237 -0.2655 -0.6035  1.0158
 1171TIP3    H1 3477   1.807   0.048   5.206 -1.4627 -2.9484 -1.6144
 1171TIP3    H2 3478   1.937  -0.019   5.166  0.7485 -1.0933  1.9332
 1172TIP3   OH2 3479   5.778   0.671   0.852 -0.3548  0.4297  0.2009
 1172TIP3    H1 3480   5.737   0.681   0.766  0.6264  0.3613 -0.2799
 1172TIP3    H2 3481   5.728   0.731   0.909  0.2761  2.0199 -0.8620
 1173TIP3   OH2 3482   2.758   3.670   5.793  0.7046 -0.3563  0.2266
 1173TIP3    H1 3483   2.833   3.729   5.785  0.1279  0.1371 -2.6985
 1173TIP3    H2 3484   2.789   3.586   5.760  0.4995 -0.6779  0.8424
 1174TIP3   OH2 3485   2.582   0.212   4.634  0.8179 -0.5540 -0.7356
 1174TIP3    H1 3486   2.597   0.204   4.728 -1.1847 -0.1549 -0.3397
 1174TIP3    H2 3487   2.666   0.189   4.594  1.4767 -1.5274  1.1120
 1175TIP3   OH2 3488   1.987   6.122   4.371  0.0756  0.3423  0.7028
 1175TIP3    H1 3489   2.043   6.095   4.443 -2.9327  1.1791  3.5918
 1175TIP3    H2 3490   1.928   6.048   4.358 -0.3232  0.7707  0.0566
 1176TIP3   OH2 3491   4.730   2.177   0.029 -0.8722  0.8958 -0.4025
 1176TIP3    H1 3492   4.762   2.086   0.028 -0.0026  1.0957  2.0928
 1176TIP3    H2 3493   4.636   2.169   0.039 -0.7898  0.2600 -0.0614
 1177TIP3   OH2 3494   5.511   0.658   0.099  0.4397  0.0450 -0.0289
 1177TIP3    H1 3495   5.482   0.750   0.101 -2.7807 -0.8487  1.9915
 1177TIP3    H2 3496   5.520   0.634   0.191  4.1891 -1.0019 -0.4794
 1178TIP3   OH2 3497   0.770   4.079   4.412  0.0935 -0.4615 -0.4921
 1178TIP3    H1 3498   0.768   4.173   4.395  0.3171 -0.2118  0.7543
 1178TIP3    H2 3499   0.754   4.072   4.506  2.1092 -1.5395 -0.1722
 1179TIP3   OH2 3500   3.640   6.098   1.683 -0.1026  0.3307 -0.4614
 1179TIP3    H1 3501   3.603   6.031   1.625 -0.4662  1.4444 -1.5545
 1179TIP3    H2 3502   3.624   6.065   1.771 -2.0331 -0.1126 -0.9320
 1180TIP3   OH2 3503   1.933   2.688   2.188 -0.0008  0.2120  0.0267
 1180TIP3    H1 3504   1.847   2.685   2.232 -0.7463 -0.6199 -1.4110
 1180TIP3    H2 3505   1.988   2.628   2.239 -0.5458  0.0435  0.4320
 1181TIP3   OH2 3506   1.306   1.514   0.223  0.2557 -0.5103 -0.5897
 1181TIP3    H1 3507   1.311   1.598   0.269 -2.8898 -0.7518  0.4101
 1181TIP3    H2 3508   1.328   1.536   0.132  1.3777  0.9756 -0.0142
 1182TIP3   OH2 3509   0.889   1.299   0.780 -0.1631 -0.4524  0.3259
 1182TIP3    H1 3510   0.953   1.371   0.782  1.4201 -1.7968 -0.0103
 1182TIP3    H2 3511   0.933   1.230   0.731 -1.7270 -1.5959  0.4983
 1183TIP3   OH2 3512   2.196   6.355   0.100  0.1027  0.3431 -0.6411
 1183TIP3    H1 3513   2.226   6.286   0.041  1.3297 -0.7850  1.2008
 1183TIP3    H2 3514   2.268   6.417   0.104 -0.6756  1.3351 -1.6611
 1184TIP3   OH2 3515   4.500   6.792   5.127  0.1865 -0.9134 -0.4001
 1184TIP3    H1 3516   4.584   6.753   5.151 -0.7209 -1.8464  1.4472
 1184TIP3    H2 3517   4.462   6.820   5.210 -1.4135 -0.6614 -1.1786
 1185TIP3   OH2 3518   5.809   1.446   4.028  0.3113 -0.4176 -0.8054
 1185TIP3    H1 3519   5.732   1.390   4.031  0.4324 -0.6471 -1.8441
 1185TIP3    H2 3520   5.795   1.508   4.100 -1.3441  0.1940 -1.5932
 1186TIP3   OH2 3521   0.978   0.324   1.283 -0.2548  0.1452  0.4371
 1186TIP3    H1 3522   0.978   0.277   1.366  0.4940 -2.3664 -0.8914
 1186TIP3    H2 3523   1.055   0.381   1.288 -0.2167  0.0173  1.4567
 1187TIP3   OH2 3524   5.565   1.128   2.839 -0.1382 -0.0659 -0.7555
 1187TIP3    H1 3525   5.472   1.125   2.861 -0.0089 -1.2559 -0.3226
 1187TIP3    H2 3526   5.602   1.051   2.881  0.7093 -0.6239 -2.4170
 1188TIP3   OH2 3527   6.779   2.638   4.069  0.3738 -0.2408  0.0555
 1188TIP3    H1 3528   6.849   2.588   4.111  1.7915  1.5733 -0.0376
 1188TIP3    H2 3529   6.732   2.679   4.142  0.3555 -0.2488  0.0481
 1189TIP3   OH2 3530   6.818   0.431   0.651  0.3790 -0.8775  0.9338
 1189TIP3    H1 3531   6.895   0.389   0.613  1.8289  0.7306  1.9522
 1189TIP3    H2 3532   6.820   0.521   0.619 -0.5135 -0.5375  1.7562
 1190TIP3   OH2 3533   0.495   6.733   5.552  0.6260 -0.0778  0.2659
 1190TIP3    H1 3534   0.402   6.753   5.546  0.9205  0.8694 -2.6551
 1190TIP3    H2 3535   0.500   6.638   5.541 -0.0129 -0.2980  1.6503
 1191TIP3   OH2 3536   0.343   3.943   4.278  0.4761 -0.1621  0.4597
 1191TIP3    H1 3537   0.271   3.922   4.337  0.5421 -1.9092 -0.0273
 1191TIP3    H2 3538   0.390   4.014   4.322 -2.7605  2.6363 -0.2341
 1192TIP3   OH2 3539   2.559   0.815   2.088 -0.1105  0.1804  0.3426
 1192TIP3    H1 3540   2.493   0.794   2.155  0.2793  0.2941  0.7700
 1192TIP3    H2 3541   2.517   0.792   2.005 -1.3939  1.9784  0.4408
 1193TIP3   OH2 3542   0.945   3.713   5.000 -0.6047 -0.0642  0.4553
 1193TIP3    H1 3543   0.930   3.632   5.048 -0.7913 -0.4117 -0.1897
 1193TIP3    H2 3544   0.972   3.686   4.913 -1.1401  0.5669  0.0866
 1194TIP3   OH2 3545   6.088   1.815   4.213  0.2152  0.8147 -0.2731
 1194TIP3    H1 3546   6.112   1.729   4.247 -1.8548  0.2452 -0.0998
 1194TIP3    H2 3547   6.154   1.874   4.248 -0.1009 -0.2250  2.3109
 1195TIP3   OH2 3548   2.954   1.242   0.636 -0.5016  0.0376 -0.1669
 1195TIP3    H1 3549   2.997   1.321   0.669 -0.2389 -0.3774  0.5009
 1195TIP3    H2 3550   2.873   1.274   0.597 -0.5535  0.6067  0.3908
 1196TIP3   OH2 3551   0.839   3.832   0.509 -0.0170  0.0632 -0.5297
 1196TIP3    H1 3552   0.881   3.917   0.501  1.7293 -0.3879  2.4494
 1196TIP3    H2 3553   0.768   3.845   0.571 -0.2807 -0.4966 -0.7026
 1197TIP3   OH2 3554   6.240   6.289   2.047  0.1509  0.5130 -0.1673
 1197TIP3    H1 3555   6.188   6.277   2.127  1.8150 -1.6493  0.7154
 1197TIP3    H2 3556   6.177   6.276   1.976 -0.8332 -0.6064  0.8360
 1198TIP3   OH2 3557   1.356   2.770   0.802  0.1443  0.5274  0.0645
 1198TIP3    H1 3558   1.313   2.848   0.838  0.8500  1.4435 -1.0241
 1198TIP3    H2 3559   1.316   2.697   0.849 -1.2279  1.4787  0.4289
 1199TIP3   OH2 3560   5.599   2.537   4.951 -0.3559  0.2997 -1.1663
 1199TIP3    H1 3561   5.539   2.464   4.969 -0.8880  0.4543 -2.2438
 1199TIP3    H2 3562   5.551   2.615   4.978 -0.0950  0.3218 -0.7545
 1200TIP3   OH2 3563   5.459   1.841   2.548  0.5723 -0.6967  0.4922
 1200TIP3    H1 3564   5.366   1.835   2.570 -0.5908  0.1846 -3.3639
 1200TIP3    H2 3565   5.475   1.934   2.538  1.1641 -0.9355 -1.1542
 1201TIP3   OH2 3566   5.292   0.287   2.133  0.1450  0.3674  0.1746
 1201TIP3    H1 3567   5.210   0.309   2.089  1.3249  2.3600 -1.1900
 1201TIP3    H2 3568   5.280   0.320   2.222 -0.9161 -0.3150  0.2944
 1202TIP3   OH2 3569   6.730   2.800   3.262  0.0832 -0.0203  0.0413
 1202TIP3    H1 3570   6.688   2.838   3.185  1.9147 -0.6544 -1.3716
 1202TIP3    H2 3571   6.818   2.839   3.263  0.7254 -1.4020  0.6939
 1203TIP3   OH2 3572   6.029   3.890   3.640  0.0451 -0.0954 -0.1424
 1203TIP3    H1 3573   6.091   3.911   3.709  1.0029 -1.7565 -0.4480
 1203TIP3    H2 3574   5.943   3.914   3.676  0.8825  4.6208 -0.6321
 1204TIP3   OH2 3575   4.521   0.765   5.520 -0.3866 -0.1464  0.1379
 1204TIP3    H1 3576   4.531   0.798   5.609  0.9702 -0.6334  0.1837
 1204TIP3    H2 3577   4.433   0.728   5.518  0.6947 -3.1907  2.3481
 1205TIP3   OH2 3578   5.981   4.317   2.129  0.2679 -0.8581  0.8260
 1205TIP3    H1 3579   6.036   4.325   2.051  0.5487  1.5104  1.1895
 1205TIP3    H2 3580   6.041   4.330   2.202 -0.2736 -1.4420  1.3950
 1206TIP3   OH2 3581   6.256   0.550   0.509 -0.8143 -0.1321  0.0777
 1206TIP3    H1 3582   6.181   0.555   0.568 -0.2135  0.5024  0.8024
 1206TIP3    H2 3583   6.236   0.613   0.440  0.3603  2.3576  1.8434
 1207TIP3   OH2 3584   2.716   6.498   2.724  0.2725  0.2907 -0.1292
 1207TIP3    H1 3585   2.735   6.562   2.655 -1.0031  1.7701  0.8096
 1207TIP3    H2 3586   2.659   6.545   2.785  1.6313 -0.8262  2.1383
 1208TIP3   OH2 3587   0.219   3.949   2.998  0.0800 -0.0321 -0.1999
 1208TIP3    H1 3588   0.265   3.919   3.077 -1.4392  0.6108  0.9757
 1208TIP3    H2 3589   0.259   4.034   2.979  0.1032  0.0443  0.1780
 1209TIP3   OH2 3590   3.830   1.431   3.906 -0.5221 -0.3876 -0.1411
 1209TIP3    H1 3591   3.860   1.341   3.891  0.7687  0.0787 -0.4292
 1209TIP3    H2 3592   3.869   1.456   3.989 -0.2236  0.1860 -0.4532
 1210TIP3   OH2 3593   2.874   0.473   5.084 -0.4005  0.3127 -0.3328
 1210TIP3    H1 3594   2.801   0.534   5.098 -0.4230  0.5553 -1.3867
 1210TIP3    H2 3595   2.915   0.504   5.003  0.1798 -0.5039 -0.3609
 1211TIP3   OH2 3596   2.488   4.133   3.445 -0.1643 -0.1521 -0.5950
 1211TIP3    H1 3597   2.519   4.175   3.364  0.4936  0.4605 -0.0421
 1211TIP3    H2 3598   2.442   4.054   3.415  0.0297  0.0868 -1.5672
 1212TIP3   OH2 3599   3.866   4.707   3.100 -0.1528 -0.2990 -0.3911
 1212TIP3    H1 3600   3.919   4.753   3.166 -0.9704  1.0758 -0.6737
 1212TIP3    H2 3601   3.839   4.775   3.039 -0.0063 -1.4435 -1.7772
 1213TIP3   OH2 3602   2.290   2.549   3.436  0.0019  0.6054  0.5104
 1213TIP3    H1 3603   2.358   2.560   3.502 -0.2026  1.6507  0.5718
 1213TIP3    H2 3604   2.267   2.639   3.410 -1.7829  0.3339  0.9558
 1214TIP3   OH2 3605   3.412   2.385   0.798  0.0592 -0.6757 -0.4652
 1214TIP3    H1 3606   3.413   2.473   0.761  2.3038 -1.0259 -1.4442
 1214TIP3    H2 3607   3.465   2.391   0.877  2.4537 -1.5445 -1.8765
 1215TIP3   OH2 3608   3.773   5.807   5.476  0.4757 -0.6028 -0.4437
 1215TIP3    H1 3609   3.784   5.734   5.537 -0.5266  1.0542  1.8703
 1215TIP3    H2 3610   3.737   5.767   5.397 -0.2136 -2.5935  0.8014
 1216TIP3   OH2 3611   5.046   1.477   3.558 -0.0349  0.0505 -0.7466
 1216TIP3    H1 3612   4.966   1.448   3.602  0.7385 -1.0308  0.0386
 1216TIP3    H2 3613   5.057   1.416   3.485 -0.4097  0.7830 -1.4296
 1217TIP3   OH2 3614   4.027   0.684   1.542 -1.2830  0.0873  0.0512
 1217TIP3    H1 3615   4.027   0.589   1.534  0.2121  0.0021  0.5911
 1217TIP3    H2 3616   3.972   0.715   1.471 -0.5554 -1.1395 -1.0934
 1218TIP3   OH2 3617   1.121   2.496   2.899 -0.1574  0.4034 -0.4810
 1218TIP3    H1 3618   1.197   2.514   2.843  0.8718  0.2628  0.8038
 1218TIP3    H2 3619   1.111   2.575   2.953 -1.0062  0.4622 -0.7107
 1219TIP3   OH2 3620   6.918   5.751   2.538  0.3999 -0.2020 -0.5108
 1219TIP3    H1 3621   6.847   5.763   2.475 -0.9686 -1.0467  0.7911
 1219TIP3    H2 3622   6.876   5.707   2.613  1.9050  0.8789  1.0492
 1220TIP3   OH2 3623   7.165   3.901   2.738  0.1151  0.6239  0.4571
 1220TIP3    H1 3624   7.249   3.893   2.692 -0.0287 -1.0900  0.4414
 1220TIP3    H2 3625   7.179   3.859   2.822 -1.0822 -0.8839 -0.0576
 1221TIP3   OH2 3626   0.345   5.871   5.122 -0.1044  0.2463  0.1121
 1221TIP3    H1 3627   0.287   5.820   5.065 -0.3817  0.6535  0.0233
 1221TIP3    H2 3628   0.433   5.857   5.086 -0.1246 -0.5038  0.3442
 1222TIP3   OH2 3629   2.680   4.334   4.132  0.0963 -0.4126  0.5443
 1222TIP3    H1 3630   2.648   4.258   4.083 -0.0183  0.3507 -0.6130
 1222TIP3    H2 3631   2.679   4.406   4.068  0.6641  0.4540  1.4767
 1223TIP3   OH2 3632   2.798   3.852   1.425  0.0969 -0.0385  0.1506
 1223TIP3    H1 3633   2.749   3.888   1.499 -0.2869 -2.1725  0.9917
 1223TIP3    H2 3634   2.757   3.767   1.408  1.0037 -0.1529 -1.6987
 1224TIP3   OH2 3635   3.725   6.464   0.739 -0.4298  0.1587 -0.0509
 1224TIP3    H1 3636   3.729   6.398   0.669  1.3278  1.3388 -1.1250
 1224TIP3    H2 3637   3.807   6.455   0.786 -0.7759  0.6597  0.6674
 1225TIP3   OH2 3638   3.286   6.481   5.919 -0.4493  0.4284 -0.4127
 1225TIP3    H1 3639   3.251   6.401   5.879 -0.3326  0.8947 -1.4640
 1225TIP3    H2 3640   3.289   6.544   5.848  0.6467  1.0007  0.1255
 1226TIP3   OH2 3641   5.752   5.021   5.682 -0.2657 -0.5830  0.0663
 1226TIP3    H1 3642   5.727   4.999   5.593 -1.8444  0.0597  0.3269
 1226TIP3    H2 3643   5.739   4.940   5.732 -3.0235 -0.0148  0.4077
 1227TIP3   OH2 3644   0.588   1.992   1.815 -0.0620  0.1912  1.0280
 1227TIP3    H1 3645   0.519   1.965   1.876  0.6765 -0.3174  1.6666
 1227TIP3    H2 3646   0.579   1.932   1.741 -1.1723  1.0196  0.4545
 1228TIP3   OH2 3647   0.778   1.277   2.593  0.1596  0.1402 -0.0392
 1228TIP3    H1 3648   0.812   1.263   2.682  0.6635 -0.6582 -0.3536
 1228TIP3    H2 3649   0.747   1.368   2.594  0.6988  0.3280  0.7764
 1229TIP3   OH2 3650   6.034   5.424   0.635  0.1289 -0.5025  0.7750
 1229TIP3    H1 3651   6.106   5.477   0.669  0.6884 -0.3477 -0.5854
 1229TIP3    H2 3652   5.986   5.483   0.578  0.2552 -1.1964 -0.0839
 1230TIP3   OH2 3653   0.020   2.153   2.095 -0.0647  0.1857 -0.0039
 1230TIP3    H1 3654   0.101   2.152   2.043 -0.2524  0.5705 -0.3092
 1230TIP3    H2 3655  -0.019   2.239   2.077 -0.4347  0.0863  0.3098
 1231TIP3   OH2 3656   3.653   3.244   1.465 -0.6748 -0.3166 -0.0982
 1231TIP3    H1 3657   3.728   3.207   1.512 -0.6972  0.1760  0.3340
 1231TIP3    H2 3658   3.692   3.295   1.394 -0.6291 -0.6967 -0.3512
 1232TIP3   OH2 3659   2.638   5.898   4.994 -0.6568  0.0278  0.2665
 1232TIP3    H1 3660   2.581   5.831   5.033 -0.7278 -1.3539 -1.9868
 1232TIP3    H2 3661   2.578   5.963   4.959 -0.9146 -1.0914 -1.5162
 1233TIP3   OH2 3662   1.683   2.475   1.888  0.0833 -0.4448 -0.4149
 1233TIP3    H1 3663   1.596   2.449   1.858 -1.7161  3.1593  1.0284
 1233TIP3    H2 3664   1.700   2.419   1.964 -1.7402 -0.2246  0.2153
 1234TIP3   OH2 3665   0.553   1.300   3.778  0.2876 -0.2354  0.4018
 1234TIP3    H1 3666   0.497   1.310   3.702 -1.9754  0.6010  2.0597
 1234TIP3    H2 3667   0.566   1.389   3.811 -0.2958 -0.6936  1.9694
 1235TIP3   OH2 3668   2.678   5.430   4.811 -0.3678 -0.0682  0.7747
 1235TIP3    H1 3669   2.613   5.443   4.880 -0.7632  2.1331  0.0841
 1235TIP3    H2 3670   2.626   5.417   4.732  0.0752 -0.9856  0.6224
 1236TIP3   OH2 3671   5.150   5.011   2.271  0.2171 -0.4195 -0.9379
 1236TIP3    H1 3672   5.184   5.022   2.182 -0.7019 -3.8282 -1.8387
 1236TIP3    H2 3673   5.225   4.979   2.321  0.4755  0.5242 -0.7011
 1237TIP3   OH2 3674   6.036   4.618   5.369  0.3578 -0.0534  0.0440
 1237TIP3    H1 3675   6.125   4.612   5.335  1.0891  1.4269  1.5618
 1237TIP3    H2 3676   6.041   4.683   5.440 -1.6381 -0.9463  1.0996
 1238TIP3   OH2 3677   1.725   1.438   1.815 -0.8293 -0.5637  0.4273
 1238TIP3    H1 3678   1.809   1.477   1.793 -1.6143  1.2591  0.5401
 1238TIP3    H2 3679   1.666   1.512   1.827 -2.7243 -1.8117 -0.6829
 1239TIP3   OH2 3680   4.865   3.974   2.320 -0.2908 -0.3832 -0.4825
 1239TIP3    H1 3681   4.852   4.060   2.360 -0.9575  0.0169 -1.5053
 1239TIP3    H2 3682   4.836   3.911   2.386 -1.4035  0.2559 -0.3348
 1240TIP3   OH2 3683   3.246   2.781   4.913  0.1056  0.5322 -0.0494
 1240TIP3    H1 3684   3.172   2.838   4.931  0.2577  0.7374 -0.0698
 1240TIP3    H2 3685   3.323   2.832   4.938  0.2988  0.6792 -0.9058
 1241TIP3   OH2 3686   7.163   3.026   2.468 -0.4748  0.1387  0.1572
 1241TIP3    H1 3687   7.193   2.954   2.412 -1.9957  0.2448 -0.8637
 1241TIP3    H2 3688   7.070   3.036   2.446 -0.5543  1.7028  1.0684
 1242TIP3   OH2 3689   7.101   6.745   3.558  0.0135 -0.4227 -0.2238
 1242TIP3    H1 3690   7.074   6.723   3.647 -1.3210 -0.8715 -0.7074
 1242TIP3    H2 3691   7.095   6.662   3.510 -0.1528 -0.0202 -0.9226
 1243TIP3   OH2 3692   1.459   1.227   1.675 -0.5591  0.0588  0.5308
 1243TIP3    H1 3693   1.436   1.212   1.766  1.2850 -0.6110  0.9226
 1243TIP3    H2 3694   1.375   1.234   1.630 -1.5113  0.6460  2.2942
 1244TIP3   OH2 3695   4.283   2.976   1.298 -0.2750 -0.2271  0.1178
 1244TIP3    H1 3696   4.280   2.884   1.322  0.8026 -0.1860  0.4485
 1244TIP3    H2 3697   4.377   2.996   1.290 -0.5082  0.6691 -0.6011
 1245TIP3   OH2 3698   3.200   1.646   0.845  0.5834 -0.2993  0.5672
 1245TIP3    H1 3699   3.253   1.628   0.767 -0.1907  0.6522 -0.2176
 1245TIP3    H2 3700   3.125   1.587   0.837  1.4398 -1.5506  1.6062
 1246TIP3   OH2 3701   0.023   6.345   1.342 -0.5867 -0.4342 -0.0477
 1246TIP3    H1 3702   0.103   6.292   1.341  0.0146  0.3549 -2.6825
 1246TIP3    H2 3703   0.048   6.426   1.385  0.1395 -0.1215 -1.0093
 1247TIP3   OH2 3704   3.642   4.990   1.158  0.1523 -0.4621 -0.3146
 1247TIP3    H1 3705   3.637   5.068   1.214 -0.3275  0.0467 -1.0414
 1247TIP3    H2 3706   3.627   4.917   1.217  1.0868 -0.0442  0.4698
 1248TIP3   OH2 3707   4.191   5.139   1.940 -0.2387  0.3721  0.1733
 1248TIP3    H1 3708   4.185   5.123   1.846  2.4182 -1.0081  0.1193
 1248TIP3    H2 3709   4.251   5.214   1.948  1.5160 -1.0129  0.7229
 1249TIP3   OH2 3710   3.850   0.636   3.620  0.2745 -0.0165 -0.0937
 1249TIP3    H1 3711   3.910   0.561   3.626  0.0656 -0.0989  1.5941
 1249TIP3    H2 3712   3.805   0.637   3.705  0.9826  2.5950  0.3320
 1250TIP3   OH2 3713   3.140   2.674   3.175 -0.2355 -0.5973  0.5605
 1250TIP3    H1 3714   3.176   2.615   3.241  0.0131 -3.4321 -1.8472
 1250TIP3    H2 3715   3.197   2.663   3.099 -1.6046  0.9506 -0.7986
 1251TIP3   OH2 3716   2.587   3.577   1.702 -0.8707 -0.4744  0.2925
 1251TIP3    H1 3717   2.589   3.617   1.614  3.2283 -2.1080 -0.6262
 1251TIP3    H2 3718   2.570   3.650   1.761 -0.1791  1.4233 -1.6951
 1252TIP3   OH2 3719   7.099   4.620   5.289 -0.4303  0.5152 -0.8542
 1252TIP3    H1 3720   7.051   4.682   5.234 -0.7956  1.7462  0.7693
 1252TIP3    H2 3721   7.092   4.656   5.378  1.5073 -0.5308 -0.2190
 1253TIP3   OH2 3722   2.440   4.807   3.840 -0.1123  0.2914  0.1732
 1253TIP3    H1 3723   2.451   4.895   3.805 -1.4064 -0.4905 -2.4757
 1253TIP3    H2 3724   2.527   4.784   3.873  0.2137  2.5766  1.0729
 1254TIP3   OH2 3725   5.796   3.588   2.297 -0.4386  0.6032  0.5838
 1254TIP3    H1 3726   5.778   3.498   2.269  1.2735  0.1303  0.8301
 1254TIP3    H2 3727   5.886   3.604   2.269 -1.0371  2.6395 -0.3623
 1255TIP3   OH2 3728   5.322   0.131   4.418  0.2085 -0.2264  0.2667
 1255TIP3    H1 3729   5.417   0.132   4.429  0.3474 -0.8698 -0.7231
 1255TIP3    H2 3730   5.291   0.208   4.466  1.4537  1.3593 -1.3556
 1256TIP3   OH2 3731   3.983   0.081   4.292 -0.2877  0.2749 -0.1828
 1256TIP3    H1 3732   3.903   0.115   4.332 -0.5557 -0.8729  0.2898
 1256TIP3    H2 3733   4.050   0.095   4.358 -0.0153  1.5170 -0.6974
 1257TIP3   OH2 3734   3.015   2.261   4.776  0.2751 -0.0117 -0.2930
 1257TIP3    H1 3735   2.931   2.303   4.794  0.0567  1.5940 -4.0413
 1257TIP3    H2 3736   3.059   2.321   4.716  2.2231 -2.7970 -1.8640
 1258TIP3   OH2 3737   6.140   4.330   2.894  0.0965 -0.4573 -0.5505
 1258TIP3    H1 3738   6.090   4.391   2.839  0.0320 -1.2009 -1.3299
 1258TIP3    H2 3739   6.220   4.378   2.917 -0.8215  0.6557  0.4971
 1259TIP3   OH2 3740   5.133   0.192   3.997  0.5495  0.0968  0.1958
 1259TIP3    H1 3741   5.113   0.122   4.059 -0.0936 -1.0480 -1.2333
 1259TIP3    H2 3742   5.098   0.271   4.037  0.8954 -0.4606  1.6489
 1260TIP3   OH2 3743   5.184   4.520   3.542 -0.6320  0.0815  0.0896
 1260TIP3    H1 3744   5.165   4.502   3.634 -1.2333 -0.3194 -0.1088
 1260TIP3    H2 3745   5.267   4.475   3.525 -1.4577 -1.4539 -0.0541
 1261TIP3   OH2 3746   7.211   1.011   1.809  0.1518 -0.0309  0.1033
 1261TIP3    H1 3747   7.155   1.008   1.731 -0.8971 -1.5624  0.8799
 1261TIP3    H2 3748   7.158   0.974   1.879  0.1372  3.5357  2.2329
 1262TIP3   OH2 3749   6.024   5.971   4.733  0.1043  0.0189  0.3889
 1262TIP3    H1 3750   5.957   5.977   4.666 -0.3929  2.3270  0.9896
 1262TIP3    H2 3751   6.107   5.977   4.685 -0.1228 -1.3778 -0.2232
 1263TIP3   OH2 3752   5.531   4.391   4.732 -0.3855  0.8235  0.0422
 1263TIP3    H1 3753   5.547   4.484   4.749  0.5223  0.9008 -1.1458
 1263TIP3    H2 3754   5.609   4.361   4.686 -1.5976  0.0034 -1.5664
 1264TIP3   OH2 3755   3.258   6.665   0.471  0.3954  0.0988 -0.3348
 1264TIP3    H1 3756   3.238   6.754   0.442  2.2706  0.1973 -1.5191
 1264TIP3    H2 3757   3.329   6.675   0.535 -1.0184 -0.4228  1.4056
 1265TIP3   OH2 3758   0.185   2.351   4.187  0.1018 -0.0593 -0.0529
 1265TIP3    H1 3759   0.151   2.323   4.272  1.1194  0.3928  0.5212
 1265TIP3    H2 3760   0.143   2.292   4.124 -0.7919 -0.2975  0.7366
 1266TIP3   OH2 3761   4.956   5.035   0.071 -0.2453  0.0772 -0.3257
 1266TIP3    H1 3762   4.920   5.107   0.019 -1.5523 -0.4972 -0.2679
 1266TIP3    H2 3763   4.943   4.958   0.016 -0.0012 -0.2900  0.1242
 1267TIP3   OH2 3764   1.291   5.343   1.573 -0.0806  0.4341 -0.1595
 1267TIP3    H1 3765   1.242   5.363   1.494 -0.2621 -0.1430 -0.1928
 1267TIP3    H2 3766   1.341   5.423   1.591  0.1293  0.4906 -0.9792
 1268TIP3   OH2 3767   3.647   6.042   1.996  0.1864  0.9258  0.5254
 1268TIP3    H1 3768   3.741   6.036   1.984 -0.1048 -0.7437 -1.5746
 1268TIP3    H2 3769   3.635   6.100   2.071  2.8977  0.1746  1.6316
 1269TIP3   OH2 3770   2.759   0.811   4.167  0.2732 -0.2487 -0.1891
 1269TIP3    H1 3771   2.669   0.817   4.134  0.4711  1.1750 -0.5369
 1269TIP3    H2 3772   2.807   0.765   4.098 -0.1840 -1.1009  0.0395
 1270TIP3   OH2 3773   5.231   2.731   2.565  0.8870 -0.1171  0.4687
 1270TIP3    H1 3774   5.224   2.766   2.653 -1.6695 -0.6022  0.5457
 1270TIP3    H2 3775   5.177   2.652   2.567 -0.2029  0.4851 -1.7847
 1271TIP3   OH2 3776   3.747   1.281   1.145 -0.6573 -0.6729 -0.0601
 1271TIP3    H1 3777   3.660   1.253   1.173 -0.8479 -0.4216 -0.3903
 1271TIP3    H2 3778   3.731   1.353   1.083 -0.2138 -0.5636 -0.0561
 1272TIP3   OH2 3779   3.536   0.865   0.473  0.0902 -0.3276  0.3472
 1272TIP3    H1 3780   3.522   0.810   0.395 -0.1252  0.6208 -0.2942
 1272TIP3    H2 3781   3.510   0.809   0.546  1.0717 -1.5268 -0.1847
 1273TIP3   OH2 3782   1.754   1.879   4.468  0.2525 -0.3747  0.2481
 1273TIP3    H1 3783   1.750   1.798   4.417 -0.4000  0.6971 -1.5051
 1273TIP3    H2 3784   1.823   1.864   4.533  1.0113 -1.8686 -0.8555
 1274TIP3   OH2 3785   4.279   6.674   2.477  0.4760 -0.2738  0.2155
 1274TIP3    H1 3786   4.192   6.690   2.515  0.1078  1.9990 -1.3752
 1274TIP3    H2 3787   4.260   6.637   2.391  1.1622 -1.1329  0.4188
 1275TIP3   OH2 3788   2.920   2.776   1.967 -0.3590  0.5706  0.2492
 1275TIP3    H1 3789   2.836   2.792   2.011 -0.7869  0.1501 -0.3895
 1275TIP3    H2 3790   2.901   2.704   1.907  0.3304  0.8368 -0.2894
 1276TIP3   OH2 3791   2.792   1.724   0.401 -0.7669  0.1184  0.7153
 1276TIP3    H1 3792   2.768   1.757   0.487 -2.1445 -0.6681  0.6673
 1276TIP3    H2 3793   2.788   1.800   0.344 -0.4221  0.5298  1.2296
 1277TIP3   OH2 3794   4.296   3.131   0.162 -0.1680 -0.3744 -0.4359
 1277TIP3    H1 3795   4.316   3.225   0.162 -0.8482 -0.0624  3.3390
 1277TIP3    H2 3796   4.380   3.089   0.181 -0.2621 -0.3089  0.1518
 1278TIP3   OH2 3797   5.207   1.764   5.295 -0.5394  0.1976  0.5455
 1278TIP3    H1 3798   5.239   1.732   5.210 -2.0436 -1.5053  0.5717
 1278TIP3    H2 3799   5.267   1.725   5.359 -0.7137 -0.3340  0.3912
 1279TIP3   OH2 3800   5.425   6.753   2.482  0.3130  0.7033  0.0497
 1279TIP3    H1 3801   5.349   6.810   2.469  0.3394  0.6965 -0.1324
 1279TIP3    H2 3802   5.497   6.813   2.502 -0.2575  0.6009  2.7835
 1280TIP3   OH2 3803   2.904   5.370   3.750 -0.2434  0.0708 -0.2070
 1280TIP3    H1 3804   2.860   5.445   3.711  1.0988  1.0532  0.1113
 1280TIP3    H2 3805   2.964   5.339   3.683 -0.0193 -0.0397  0.0407
 1281TIP3   OH2 3806   2.352   2.313   2.097  0.2425 -0.1727  0.0890
 1281TIP3    H1 3807   2.273   2.281   2.139 -1.9647  2.6477 -1.5878
 1281TIP3    H2 3808   2.414   2.326   2.169 -2.5461  2.1904  2.3094
 1282TIP3   OH2 3809   6.743   4.182   2.427 -0.5865  0.0579 -0.3696
 1282TIP3    H1 3810   6.770   4.104   2.380 -0.2555 -0.4265  0.5861
 1282TIP3    H2 3811   6.718   4.150   2.514 -1.0649  0.9311 -0.1731
 1283TIP3   OH2 3812   1.545   1.922   2.495  0.1160  0.6104  0.0394
 1283TIP3    H1 3813   1.518   1.833   2.515 -1.5365  1.4509  1.9165
 1283TIP3    H2 3814   1.615   1.940   2.557  0.6490  0.5453 -0.5328
 1284TIP3   OH2 3815   0.246   5.538   0.472  0.5375  0.3563  0.1078
 1284TIP3    H1 3816   0.289   5.462   0.510 -1.5563 -0.4341  1.0365
 1284TIP3    H2 3817   0.164   5.547   0.520  0.9087  3.5369  0.3978
 1285TIP3   OH2 3818   6.970   5.079   2.656  0.1468 -0.4749 -0.5431
 1285TIP3    H1 3819   7.009   5.007   2.705  0.5770 -0.0745 -0.2801
 1285TIP3    H2 3820   6.896   5.040   2.610 -0.0447 -0.9352  0.1382
 1286TIP3   OH2 3821   0.582   3.313   1.752 -0.2905  0.1676  0.2232
 1286TIP3    H1 3822   0.542   3.229   1.776 -0.0248 -0.5460 -1.6431
 1286TIP3    H2 3823   0.628   3.340   1.831  1.2210 -2.4318  0.3634
 1287TIP3   OH2 3824   3.829   0.905   2.678 -0.1939 -0.2214 -0.3373
 1287TIP3    H1 3825   3.852   0.875   2.766 -2.0094  0.7297  0.5049
 1287TIP3    H2 3826   3.740   0.939   2.686  0.0671  1.0992 -2.2600
 1288TIP3   OH2 3827   1.604   2.627   0.091 -0.0800  0.2073 -0.2900
 1288TIP3    H1 3828   1.669   2.562   0.062  0.6564  0.9315 -0.2934
 1288TIP3    H2 3829   1.529   2.612   0.033 -0.6908 -1.9146  0.9552
 1289TIP3   OH2 3830   2.351   1.809   4.642 -0.0979  0.4846 -0.2553
 1289TIP3    H1 3831   2.282   1.805   4.709 -0.1814  1.8451 -0.2251
 1289TIP3    H2 3832   2.406   1.733   4.660 -0.7738  0.1782  0.6310
 1290TIP3   OH2 3833   4.450   2.271   5.350 -0.2352  0.2044  0.6267
 1290TIP3    H1 3834   4.427   2.267   5.257  0.2281 -0.4015  0.5348
 1290TIP3    H2 3835   4.390   2.210   5.392 -1.8935  2.0083  1.0523
 1291TIP3   OH2 3836   0.117   2.267   3.358 -0.0205  0.0280  0.1053
 1291TIP3    H1 3837   0.063   2.229   3.289 -0.7656  0.5851  0.3709
 1291TIP3    H2 3838   0.185   2.316   3.311 -0.0125 -0.3023 -0.2316
 1292TIP3   OH2 3839   5.044   5.385   2.754  0.1441  0.0783  0.0265
 1292TIP3    H1 3840   5.039   5.303   2.803  0.5433 -0.5107 -0.8825
 1292TIP3    H2 3841   5.113   5.370   2.690  0.3265  1.1871 -0.0551
 1293TIP3   OH2 3842   6.650   2.543   0.686  0.2425 -0.2984 -0.1741
 1293TIP3    H1 3843   6.608   2.607   0.743  2.2275  1.6293 -0.7485
 1293TIP3    H2 3844   6.655   2.463   0.739 -1.6140  0.2058  0.8362
 1294TIP3   OH2 3845   1.162   2.117   3.891  0.3778  0.7043  0.0423
 1294TIP3    H1 3846   1.088   2.130   3.950 -0.7065 -0.4773 -0.9977
 1294TIP3    H2 3847   1.140   2.168   3.813 -0.6360 -1.6708 -1.3086
 1295TIP3   OH2 3848   5.021   5.895   3.234 -0.4137 -0.2078  0.2461
 1295TIP3    H1 3849   5.100   5.845   3.218  0.0419  0.6086 -0.1176
 1295TIP3    H2 3850   5.035   5.978   3.188 -0.6157  0.7597  1.8389
 1296TIP3   OH2 3851   1.091   0.761   2.998 -0.0244  0.3788  0.3043
 1296TIP3    H1 3852   1.053   0.818   2.931 -0.5398  0.7153  0.8752
 1296TIP3    H2 3853   1.125   0.686   2.949  0.5614  1.1115 -0.4473
 1297TIP3   OH2 3854   5.076   5.120   4.054  0.2922  0.9401  0.1677
 1297TIP3    H1 3855   5.128   5.042   4.036 -1.5026 -0.0906 -0.8005
 1297TIP3    H2 3856   5.113   5.155   4.135 -0.0616 -2.0403  1.7545
 1298TIP3   OH2 3857   6.941   3.411   2.895  0.4559  0.1291 -0.1350
 1298TIP3    H1 3858   6.936   3.336   2.836  1.2679 -0.1671  0.1629
 1298TIP3    H2 3859   7.027   3.404   2.936  0.5538  1.2356 -0.1213
 1299TIP3   OH2 3860   1.032   2.317   5.844 -0.3223 -0.2818 -0.1044
 1299TIP3    H1 3861   1.117   2.289   5.878 -0.3067  0.3645  0.4060
 1299TIP3    H2 3862   1.053   2.376   5.771 -0.3345 -0.1439  0.0039
 1300TIP3   OH2 3863   2.210   3.642   2.682 -0.5209  0.3592  0.2281
 1300TIP3    H1 3864   2.236   3.702   2.751 -0.7130 -0.9703  1.5165
 1300TIP3    H2 3865   2.279   3.648   2.616  0.1722  0.9370  0.9973
 1301TIP3   OH2 3866   5.674   4.821   3.151  0.1334  0.4754  0.1890
 1301TIP3    H1 3867   5.735   4.893   3.169 -0.1371  0.4786  1.1247
 1301TIP3    H2 3868   5.729   4.751   3.116  0.3709  1.2096 -1.0001
 1302TIP3   OH2 3869   2.436   1.394   0.120 -0.1125  0.8133  0.4811
 1302TIP3    H1 3870   2.359   1.357   0.162 -1.4033  2.0434 -0.6834
 1302TIP3    H2 3871   2.486   1.319   0.088 -0.2431 -0.0352  2.1877
 1303TIP3   OH2 3872   6.703   2.143   0.617 -0.3133 -0.2376  0.6036
 1303TIP3    H1 3873   6.618   2.167   0.654 -0.7433 -1.9548  0.8032
 1303TIP3    H2 3874   6.711   2.198   0.539 -0.9865  0.8991  1.3020
 1304TIP3   OH2 3875   5.466   3.308   3.943 -0.3006  0.4265 -0.0531
 1304TIP3    H1 3876   5.526   3.382   3.936  0.7695 -0.2390  1.4622
 1304TIP3    H2 3877   5.514   3.243   3.996 -1.3212 -1.2231 -1.0695
 1305TIP3   OH2 3878   4.978   1.907   5.512  0.1754 -0.3372  0.8077
 1305TIP3    H1 3879   5.073   1.912   5.524  0.7925 -1.7850 -2.3563
 1305TIP3    H2 3880   4.960   1.813   5.501 -1.2379  0.0699 -0.8606
 1306TIP3   OH2 3881   3.232   5.025   1.914  0.1952  0.2485  0.9823
 1306TIP3    H1 3882   3.275   5.050   1.995  0.4972 -0.6674  1.1067
 1306TIP3    H2 3883   3.218   4.931   1.921 -0.6026  0.3084  0.3621
 1307TIP3   OH2 3884   5.429   0.817   2.533  0.0768  0.2270 -0.3021
 1307TIP3    H1 3885   5.337   0.799   2.552 -0.0141 -1.0057 -1.6601
 1307TIP3    H2 3886   5.428   0.852   2.443  0.7565  2.4139  0.4878
 1308TIP3   OH2 3887   6.115   0.572   2.664  0.0145  0.0703 -0.1581
 1308TIP3    H1 3888   6.063   0.500   2.700 -0.4022  1.1519  1.5465
 1308TIP3    H2 3889   6.159   0.534   2.588 -1.7939 -1.4005 -0.5548
 1309TIP3   OH2 3890   1.962   1.325   3.543 -0.4688  0.4213 -0.1288
 1309TIP3    H1 3891   1.976   1.408   3.498  0.5736  1.0705  1.2957
 1309TIP3    H2 3892   2.022   1.264   3.500 -1.6005  0.2398 -1.5156
 1310TIP3   OH2 3893   5.174   3.260   0.717  0.7676  0.8287  0.0750
 1310TIP3    H1 3894   5.140   3.205   0.646 -0.4962  0.2274  1.1117
 1310TIP3    H2 3895   5.099   3.310   0.747  1.3446  1.2590  0.8307
 1311TIP3   OH2 3896   1.234   4.194   3.797  0.0228 -0.2211  0.5291
 1311TIP3    H1 3897   1.144   4.192   3.765  1.2258 -1.0825 -3.4854
 1311TIP3    H2 3898   1.241   4.115   3.851 -1.7939  0.3422  1.6784
 1312TIP3   OH2 3899   0.272   3.234   2.309  0.1822 -0.4541 -0.3897
 1312TIP3    H1 3900   0.241   3.304   2.252 -0.1961  0.1189  0.5151
 1312TIP3    H2 3901   0.298   3.164   2.248  0.9035  0.5854 -1.3199
 1313TIP3   OH2 3902   0.618   4.798   2.955 -0.0460  0.6117 -0.5415
 1313TIP3    H1 3903   0.605   4.797   3.050 -0.2724 -0.7123 -0.5686
 1313TIP3    H2 3904   0.543   4.847   2.921 -0.6662 -0.0152 -0.1150
 1314TIP3   OH2 3905   6.712   4.582   5.604 -0.0193  0.1607 -0.2421
 1314TIP3    H1 3906   6.785   4.563   5.544 -0.6008  0.8796 -1.2178
 1314TIP3    H2 3907   6.722   4.675   5.624 -0.0860  0.0208  0.4409
 1315TIP3   OH2 3908   1.673   3.342   5.207 -0.6630  0.3412 -0.2222
 1315TIP3    H1 3909   1.648   3.289   5.131 -0.1116  0.1879 -0.3050
 1315TIP3    H2 3910   1.766   3.320   5.221 -0.3716  1.4279 -0.3783
 1316TIP3   OH2 3911   5.986   2.674   1.520  0.0812  0.6535  0.1909
 1316TIP3    H1 3912   6.051   2.707   1.581  1.9674 -0.3012 -1.1705
 1316TIP3    H2 3913   6.027   2.596   1.481 -1.0966  1.0562 -2.0746
 1317TIP3   OH2 3914   4.326   3.722   2.609 -0.0372  0.0725  0.2085
 1317TIP3    H1 3915   4.270   3.757   2.678  0.1850  0.1064  0.3714
 1317TIP3    H2 3916   4.414   3.749   2.632  0.0486  0.0257 -0.0524
 1318TIP3   OH2 3917   4.986   2.527   0.608  0.1379  0.1609 -0.3605
 1318TIP3    H1 3918   5.058   2.464   0.602 -0.3178 -0.3154 -0.9581
 1318TIP3    H2 3919   4.909   2.479   0.576 -1.1899 -0.4548  3.2795
 1319TIP3   OH2 3920   6.613   6.115   0.465 -0.5358 -0.1026 -0.6366
 1319TIP3    H1 3921   6.557   6.147   0.536 -1.5642  1.2796 -2.0115
 1319TIP3    H2 3922   6.611   6.185   0.400  0.6173 -1.2099 -1.9075
 1320TIP3   OH2 3923   1.060   5.190   3.013 -0.5490  0.6269 -0.2043
 1320TIP3    H1 3924   1.003   5.265   3.001 -0.8145  0.4862  0.1917
 1320TIP3    H2 3925   1.001   5.115   3.017 -0.3523  0.5018  0.4143
 1321TIP3   OH2 3926   7.048   4.313   1.553 -0.0801 -0.0633 -0.4114
 1321TIP3    H1 3927   7.057   4.217   1.553 -0.0134 -0.0916  1.0795
 1321TIP3    H2 3928   7.003   4.331   1.636  3.9070  1.5095  1.6773
 1322TIP3   OH2 3929   0.692   1.519   0.828 -0.5053  0.6054  0.6693
 1322TIP3    H1 3930   0.605   1.547   0.856 -0.4665 -0.7670  2.3428
 1322TIP3    H2 3931   0.689   1.423   0.830  0.8582  0.5212  0.1392
 1323TIP3   OH2 3932   5.486   1.806   1.685 -0.1898  0.3579  0.1945
 1323TIP3    H1 3933   5.526   1.790   1.600 -0.2944 -0.2076  0.2468
 1323TIP3    H2 3934   5.414   1.742   1.690  1.3909 -1.4123  1.7730
 1324TIP3   OH2 3935   2.260   4.348   2.765  0.1220  0.4628 -0.2858
 1324TIP3    H1 3936   2.212   4.329   2.684 -1.1713  1.4204  0.2282
 1324TIP3    H2 3937   2.309   4.427   2.746  0.5888  0.1466 -0.4271
 1325TIP3   OH2 3938   4.369   3.853   3.357  0.2674  0.8164 -0.0600
 1325TIP3    H1 3939   4.354   3.844   3.263  1.0366 -1.0952 -0.0568
 1325TIP3    H2 3940   4.462   3.873   3.365  1.3518 -3.3405  0.2927
 1326TIP3   OH2 3941   3.601   0.276   4.645 -0.7778 -0.0293 -0.0338
 1326TIP3    H1 3942   3.628   0.245   4.732 -2.1989 -0.0261  0.4365
 1326TIP3    H2 3943   3.667   0.241   4.585  0.1434 -0.1571  1.0247
 1327TIP3   OH2 3944   3.060   3.827   5.068  0.2531  0.0432 -0.0354
 1327TIP3    H1 3945   2.988   3.822   5.130 -0.4864  0.0741 -0.8765
 1327TIP3    H2 3946   3.116   3.897   5.102 -0.7317  0.8365 -0.0053
 1328TIP3   OH2 3947   4.136   1.138   5.369 -0.5423 -0.6777 -0.5187
 1328TIP3    H1 3948   4.071   1.128   5.299 -0.1271 -0.1636 -0.9828
 1328TIP3    H2 3949   4.088   1.181   5.440 -1.6729 -3.3894  0.5420
 1329TIP3   OH2 3950   4.180   4.534   5.608  0.3519 -0.0694  0.2484
 1329TIP3    H1 3951   4.245   4.496   5.667  1.2660 -1.1745 -1.4189
 1329TIP3    H2 3952   4.125   4.460   5.582  2.1145 -0.4340 -2.9902
 1330TIP3   OH2 3953   0.411   5.730   3.838 -0.3127  0.2622 -0.1775
 1330TIP3    H1 3954   0.493   5.713   3.792 -1.0923 -2.6511 -0.7108
 1330TIP3    H2 3955   0.344   5.726   3.769 -0.8628  4.8453 -0.1675
 1331TIP3   OH2 3956   7.097   6.236   0.859  0.1892  0.5716  0.5094
 1331TIP3    H1 3957   7.126   6.326   0.843  0.8573  0.5268  1.4397
 1331TIP3    H2 3958   7.166   6.181   0.821  0.2993  0.4585  0.8691
 1332TIP3   OH2 3959   0.027   3.402   4.613  0.8156 -0.3942 -0.0251
 1332TIP3    H1 3960   0.073   3.459   4.675  1.4210  0.3873 -1.1771
 1332TIP3    H2 3961   0.096   3.368   4.556  0.1366 -0.2008 -0.9830
 1333TIP3   OH2 3962   0.135   4.337   0.057 -0.6154 -0.0812 -0.2854
 1333TIP3    H1 3963   0.121   4.255   0.104 -1.1111  0.1069 -0.0995
 1333TIP3    H2 3964   0.147   4.311  -0.034 -2.3482 -0.2633 -0.4992
 1334TIP3   OH2 3965   4.502   1.933   4.922  0.0114 -0.0864 -0.2388
 1334TIP3    H1 3966   4.508   1.905   4.830  0.4520 -2.2666  0.3846
 1334TIP3    H2 3967   4.592   1.929   4.954 -0.0208  1.4616  0.1029
 1335TIP3   OH2 3968   1.624   2.090   0.523  0.0590 -0.1312 -0.5359
 1335TIP3    H1 3969   1.716   2.110   0.542 -0.1176  1.1813 -0.9653
 1335TIP3    H2 3970   1.618   2.095   0.428 -0.1765 -1.5551 -0.6115
 1336TIP3   OH2 3971   6.040   4.273   5.381  0.8141  0.5530 -0.2584
 1336TIP3    H1 3972   6.127   4.235   5.392  0.7550  0.9822  2.3399
 1336TIP3    H2 3973   6.022   4.317   5.465 -1.7150  0.8687 -0.8823
 1337TIP3   OH2 3974   6.107   1.643   1.997 -0.0378  0.0145  0.1240
 1337TIP3    H1 3975   6.110   1.627   2.091 -1.0866  1.1842  0.3793
 1337TIP3    H2 3976   6.097   1.556   1.958  1.2148 -0.5623  1.0242
 1338TIP3   OH2 3977   3.567   2.749   0.893 -0.0312 -0.1288 -0.1834
 1338TIP3    H1 3978   3.659   2.775   0.881 -0.0507  0.1512  0.2299
 1338TIP3    H2 3979   3.523   2.782   0.815 -0.4134  2.8730  1.1312
 1339TIP3   OH2 3980   0.645   6.140   5.147  0.7220 -0.5048  0.1309
 1339TIP3    H1 3981   0.555   6.147   5.179  0.8078 -2.1911  0.8239
 1339TIP3    H2 3982   0.698   6.169   5.220  0.7675  0.0040 -0.1008
 1340TIP3   OH2 3983   1.876   5.853   1.733 -0.3265 -0.3100  0.1393
 1340TIP3    H1 3984   1.924   5.775   1.705  0.0959 -0.0707  0.1903
 1340TIP3    H2 3985   1.790   5.844   1.693 -0.4548 -1.0630  0.5643
 1341TIP3   OH2 3986   5.006   2.351   2.759 -0.6850 -0.4592  0.6155
 1341TIP3    H1 3987   5.000   2.261   2.727  0.3035  0.2957 -1.8838
 1341TIP3    H2 3988   4.917   2.385   2.751 -0.4805 -0.3171 -1.3961
 1342TIP3   OH2 3989   5.133   3.301   4.892 -0.1762  0.0891 -0.0412
 1342TIP3    H1 3990   5.078   3.227   4.918  0.2324 -0.9289 -1.8687
 1342TIP3    H2 3991   5.217   3.285   4.935  0.2516 -1.1516 -1.2461
 1343TIP3   OH2 3992   0.810   3.560   1.629 -0.3558 -0.5507  0.1687
 1343TIP3    H1 3993   0.739   3.557   1.565  0.5718 -2.7383 -0.8655
 1343TIP3    H2 3994   0.818   3.470   1.661  2.0707 -0.4533  0.0639
 1344TIP3   OH2 3995   1.831   4.291   0.408  0.0420  0.5314  0.0583
 1344TIP3    H1 3996   1.759   4.315   0.350 -0.4253 -0.0635  0.3829
 1344TIP3    H2 3997   1.896   4.360   0.395 -0.0879  0.4462 -1.1073
 1345TIP3   OH2 3998   4.225   0.077   2.304  0.4874 -0.2593 -0.0508
 1345TIP3    H1 3999   4.140   0.061   2.264  0.3082  0.6524 -0.0486
 1345TIP3    H2 4000   4.210   0.062   2.398  0.3655 -0.2450 -0.0676
 1346TIP3   OH2 4001   2.249   4.514   3.818 -0.0967 -0.5041 -0.0925
 1346TIP3    H1 4002   2.297   4.432   3.807 -0.3980 -0.9759  1.7773
 1346TIP3    H2 4003   2.253   4.532   3.912 -0.7608  1.1894 -0.3572
 1347TIP3   OH2 4004  -0.003   0.597   1.206 -0.2670 -0.3994 -0.0584
 1347TIP3    H1 4005   0.050   0.654   1.150  2.2087 -2.0843  0.3946
 1347TIP3    H2 4006  -0.018   0.647   1.286  0.5375  0.1730 -0.2640
 1348TIP3   OH2 4007   5.855   5.232   5.052  0.6246  0.7194 -0.1432
 1348TIP3    H1 4008   5.859   5.283   5.133  0.2045  1.5857 -0.6500
 1348TIP3    H2 4009   5.771   5.186   5.058  0.6894  0.6208  0.0095
 1349TIP3   OH2 4010   0.734   4.367   4.433  0.4277  0.1335  0.2436
 1349TIP3    H1 4011   0.707   4.398   4.347  1.9401 -0.7900 -0.6144
 1349TIP3    H2 4012   0.796   4.432   4.464  0.4459  0.0843  0.3104
 1350TIP3   OH2 4013   6.800   4.504   1.733  0.1801 -0.3237 -0.1376
 1350TIP3    H1 4014   6.780   4.597   1.730  1.8597  0.0482 -1.9262
 1350TIP3    H2 4015   6.756   4.467   1.657 -1.3626 -1.2522  1.1417
 1351TIP3   OH2 4016   6.558   0.687   3.561  0.1518 -0.3570 -0.5657
 1351TIP3    H1 4017   6.616   0.717   3.631 -2.4189  0.6652  1.3146
 1351TIP3    H2 4018   6.603   0.710   3.480  3.0561 -1.1574  0.6714
 1352TIP3   OH2 4019   5.077   1.384   1.810  0.2806 -0.1649 -0.3051
 1352TIP3    H1 4020   5.113   1.449   1.870 -0.3920  0.0533 -0.1241
 1352TIP3    H2 4021   5.135   1.309   1.818  0.5797  0.1080  0.1243
 1353TIP3   OH2 4022   0.992   2.957   5.198 -0.3481 -0.6306  0.7675
 1353TIP3    H1 4023   0.899   2.974   5.211  0.0411  0.0312  3.0013
 1353TIP3    H2 4024   1.015   2.897   5.269  1.0821 -0.2171  0.6663
 1354TIP3   OH2 4025   6.339   5.760   1.049  0.7070  0.0925 -0.2593
 1354TIP3    H1 4026   6.301   5.752   1.136  0.5869  0.0071 -0.3197
 1354TIP3    H2 4027   6.390   5.680   1.037  1.0454  0.2816 -0.1120
 1355TIP3   OH2 4028   7.093   0.299   4.009 -0.4946  0.2824  0.6128
 1355TIP3    H1 4029   7.070   0.217   4.052 -2.3719  0.4287 -0.0196
 1355TIP3    H2 4030   7.186   0.290   3.987 -0.5868 -1.5217  0.8378
 1356TIP3   OH2 4031   4.296   0.614   5.453 -0.3764 -0.1958  0.2682
 1356TIP3    H1 4032   4.289   0.565   5.371 -1.5908  2.6531 -1.5004
 1356TIP3    H2 4033   4.206   0.620   5.485 -0.3660  1.3590  0.0699
 1357TIP3   OH2 4034   1.107   4.969   5.807 -0.4105 -0.0200 -0.8465
 1357TIP3    H1 4035   1.161   4.912   5.752  1.2311  2.6716 -2.1911
 1357TIP3    H2 4036   1.167   4.999   5.875 -1.2561  0.1558 -0.1678
 1358TIP3   OH2 4037   0.488   3.180   5.749  0.2129 -0.1165 -0.0216
 1358TIP3    H1 4038   0.539   3.231   5.686 -1.6848  2.0086  0.0087
 1358TIP3    H2 4039   0.537   3.189   5.831  0.5361  0.7267 -0.2891
 1359TIP3   OH2 4040   4.535   3.910   3.081  0.3247  0.1472  0.0506
 1359TIP3    H1 4041   4.611   3.878   3.130 -0.8282 -1.8697  0.6579
 1359TIP3    H2 4042   4.511   3.992   3.125  1.2273  0.0145  0.8281
 1360TIP3   OH2 4043   5.924   3.452   2.672 -0.2453 -0.4529  0.1727
 1360TIP3    H1 4044   5.996   3.407   2.628 -0.2255 -0.2962  0.0420
 1360TIP3    H2 4045   5.875   3.382   2.716 -0.2749 -0.6147 -0.1141
 1361TIP3   OH2 4046   3.835   2.657   2.685  0.0561 -0.7407  0.4737
 1361TIP3    H1 4047   3.768   2.668   2.753  1.8902  2.1568  2.0297
 1361TIP3    H2 4048   3.882   2.578   2.711  0.8277  0.4022  2.7736
 1362TIP3   OH2 4049   6.335   5.130   5.650 -0.0229 -0.3340  0.4372
 1362TIP3    H1 4050   6.300   5.216   5.676  1.8341  1.6258 -2.9376
 1362TIP3    H2 4051   6.392   5.149   5.576  0.3121 -4.5792 -0.6027
 1363TIP3   OH2 4052   5.577   2.804   4.928 -0.1032  0.8593 -0.2541
 1363TIP3    H1 4053   5.548   2.890   4.898  0.2573  1.3375  0.7012
 1363TIP3    H2 4054   5.668   2.818   4.955 -0.0457  0.1780 -0.0710
 1364TIP3   OH2 4055   5.569   5.072   3.718  0.6402 -0.5133 -0.1025
 1364TIP3    H1 4056   5.629   5.032   3.781  0.7488  0.4399  0.4083
 1364TIP3    H2 4057   5.515   5.131   3.770 -1.3662 -1.9804 -0.3791
 1365TIP3   OH2 4058   0.866   6.704   2.982 -0.4269 -0.2041 -0.1739
 1365TIP3    H1 4059   0.869   6.767   2.910 -1.3993 -2.8267 -2.6645
 1365TIP3    H2 4060   0.954   6.706   3.019  0.0417  1.3856 -1.2757
 1366TIP3   OH2 4061   5.123   0.037   0.569  0.4989 -0.4109  0.6535
 1366TIP3    H1 4062   5.038  -0.002   0.548  0.2264 -0.8841  2.4787
 1366TIP3    H2 4063   5.111   0.076   0.656  2.0588 -0.1717  0.7908
 1367TIP3   OH2 4064   2.305   4.580   0.624 -0.2924 -0.2268 -0.6022
 1367TIP3    H1 4065   2.210   4.581   0.608 -0.4189  2.2647 -0.2155
 1367TIP3    H2 4066   2.342   4.621   0.546  0.5468 -1.6757 -0.9830
 1368TIP3   OH2 4067   1.233   4.509   1.512  0.1346 -0.2285 -0.1474
 1368TIP3    H1 4068   1.174   4.436   1.495  0.7706 -0.3918 -1.9443
 1368TIP3    H2 4069   1.305   4.470   1.562 -0.9145 -0.1531  1.5107
 1369TIP3   OH2 4070   4.077   3.619   5.017 -0.0444 -0.1843  0.0704
 1369TIP3    H1 4071   4.069   3.578   4.931  1.2723  0.3329 -0.3306
 1369TIP3    H2 4072   4.012   3.690   5.016  0.2708  0.1072 -0.6907
 1370TIP3   OH2 4073   5.486   5.099   5.816 -0.6224 -0.0550 -0.0975
 1370TIP3    H1 4074   5.574   5.134   5.804 -0.8712  0.7062  0.2077
 1370TIP3    H2 4075   5.485   5.067   5.907 -1.0766  1.2470  0.3851
 1371TIP3   OH2 4076   0.379   3.772   4.067  0.0392  0.6673 -0.1461
 1371TIP3    H1 4077   0.341   3.818   4.142 -1.2566 -1.5549  0.6333
 1371TIP3    H2 4078   0.407   3.843   4.008 -0.7426  2.4518  1.5029
 1372TIP3   OH2 4079   6.899   5.233   3.304 -0.1988 -0.3753  0.1805
 1372TIP3    H1 4080   6.807   5.255   3.320  0.4624  2.3071  0.6806
 1372TIP3    H2 4081   6.949   5.296   3.356  1.9600 -1.4875 -0.4135
 1373TIP3   OH2 4082   3.870   5.867   5.763 -0.7352  0.3651  0.2384
 1373TIP3    H1 4083   3.851   5.790   5.816 -1.4198 -0.3268 -0.9676
 1373TIP3    H2 4084   3.956   5.850   5.725 -0.1496  0.9538  1.2310
 1374TIP3   OH2 4085   4.230   0.549   3.290  0.2292  0.1522 -0.8435
 1374TIP3    H1 4086   4.159   0.510   3.240 -0.1504  1.8055 -1.6714
 1374TIP3    H2 4087   4.187   0.607   3.352  0.7613 -0.8793  0.5170
 1375TIP3   OH2 4088   1.170   4.957   0.490 -0.0142  0.9537  0.0531
 1375TIP3    H1 4089   1.237   5.002   0.540 -2.0942  0.5891  3.4838
 1375TIP3    H2 4090   1.124   5.027   0.442  0.2282  1.7664  0.9780
 1376TIP3   OH2 4091   3.812   6.444   4.223  0.4008 -0.0838  0.0223
 1376TIP3    H1 4092   3.805   6.379   4.293  1.3534 -0.4567 -0.2101
 1376TIP3    H2 4093   3.745   6.419   4.159 -0.2354  0.0528  0.6214
 1377TIP3   OH2 4094   2.032   4.543   0.035  0.4504 -0.3317  0.0015
 1377TIP3    H1 4095   2.004   4.461  -0.007 -0.3169 -0.6145  1.0059
 1377TIP3    H2 4096   2.075   4.515   0.116  0.6352  0.2382  0.1049
 1378TIP3   OH2 4097   3.895   0.780   2.927  0.4493 -0.1365  0.0751
 1378TIP3    H1 4098   3.919   0.806   3.016  0.3161  0.1372  0.0335
 1378TIP3    H2 4099   3.889   0.684   2.930  2.0904 -0.2653 -0.0565
 1379TIP3   OH2 4100   6.610   2.972   3.083  0.1618 -0.2058  0.1181
 1379TIP3    H1 4101   6.550   2.976   3.008  1.8062 -1.8485 -1.3599
 1379TIP3    H2 4102   6.655   3.057   3.081 -1.5373  0.7844  0.8512
 1380TIP3   OH2 4103   3.215   0.343   4.256  0.0258  0.0849 -0.2260
 1380TIP3    H1 4104   3.136   0.291   4.237  0.4993 -0.6866 -0.0905
 1380TIP3    H2 4105   3.288   0.283   4.242  0.5677  0.5972  0.3346
 1381TIP3   OH2 4106   3.361   0.278   1.772 -0.1916  0.0134  0.4505
 1381TIP3    H1 4107   3.313   0.266   1.853  0.6069  0.8804  1.0718
 1381TIP3    H2 4108   3.425   0.346   1.791 -0.6089  0.9241 -1.1798
 1382TIP3   OH2 4109   5.094   1.644   5.721 -0.2485  0.1656 -0.3565
 1382TIP3    H1 4110   5.008   1.669   5.753 -0.2318  1.5553 -1.2899
 1382TIP3    H2 4111   5.080   1.558   5.680 -0.9415 -0.1116  0.4260
 1383TIP3   OH2 4112   4.779   4.171   2.510  0.1229  0.3342  0.2452
 1383TIP3    H1 4113   4.844   4.141   2.573  0.5541  0.9224  0.0907
 1383TIP3    H2 4114   4.791   4.266   2.506  0.9580  0.1865 -1.6406
 1384TIP3   OH2 4115   2.956   6.303   4.234 -0.4475 -0.1650 -0.3353
 1384TIP3    H1 4116   2.955   6.346   4.148  1.4805  0.5880 -0.0343
 1384TIP3    H2 4117   3.047   6.278   4.247 -0.9359 -1.4127  0.9696
 1385TIP3   OH2 4118   4.873   5.198   2.096  0.1976 -0.2369 -0.6394
 1385TIP3    H1 4119   4.948   5.225   2.149  0.8746  2.0268 -2.5663
 1385TIP3    H2 4120   4.803   5.259   2.120 -0.0870 -0.4359 -0.9467
 1386TIP3   OH2 4121   4.812   5.827   4.462  0.3235  0.1853 -0.0493
 1386TIP3    H1 4122   4.779   5.864   4.380 -0.8305 -1.4426 -0.3824
 1386TIP3    H2 4123   4.742   5.770   4.492  1.6296 -1.0081  0.8836
 1387TIP3   OH2 4124   3.904   3.908   4.596  0.0818 -0.3666  0.4087
 1387TIP3    H1 4125   3.974   3.843   4.585  0.0262 -0.1132 -2.2054
 1387TIP3    H2 4126   3.946   3.991   4.573 -0.6540  0.0272  0.4752
 1388TIP3   OH2 4127   5.896   0.958   5.666  0.1749  0.2206 -0.2094
 1388TIP3    H1 4128   5.984   0.919   5.673  1.4859  2.6400 -1.9186
 1388TIP3    H2 4129   5.900   1.034   5.723 -1.5075 -0.6341  1.1295
 1389TIP3   OH2 4130   4.690   3.710   4.569  0.1082  0.0685 -0.0841
 1389TIP3    H1 4131   4.709   3.774   4.638  0.7755 -0.0842 -0.1194
 1389TIP3    H2 4132   4.770   3.657   4.563 -0.5951 -1.0576  0.2494
 1390TIP3   OH2 4133   1.556   3.298   2.151 -0.0816 -0.2105 -0.2976
 1390TIP3    H1 4134   1.583   3.222   2.099  1.4952  0.2562 -0.2320
 1390TIP3    H2 4135   1.627   3.309   2.215 -0.9380  0.5205  0.5496
 1391TIP3   OH2 4136   1.281   5.016   4.235  0.3671 -0.7553  0.0726
 1391TIP3    H1 4137   1.238   5.091   4.193 -0.2124 -0.8185  0.5503
 1391TIP3    H2 4138   1.372   5.042   4.244  0.0424  0.1550  0.8244
 1392TIP3   OH2 4139   2.242   6.255   5.229  0.0790  0.0292  0.6330
 1392TIP3    H1 4140   2.228   6.200   5.153 -0.7499 -0.9470  1.4655
 1392TIP3    H2 4141   2.154   6.274   5.263  0.3134  2.0468  0.2693
 1393TIP3   OH2 4142   0.593   0.376   4.600  0.1296 -0.3737 -0.0148
 1393TIP3    H1 4143   0.555   0.296   4.634 -1.0468 -0.5166 -1.5623
 1393TIP3    H2 4144   0.569   0.377   4.507  0.9841  1.2592 -0.2618
 1394TIP3   OH2 4145   2.746   3.205   1.526 -0.2640  0.2134 -0.1182
 1394TIP3    H1 4146   2.829   3.243   1.553 -0.4706  0.7805 -0.2646
 1394TIP3    H2 4147   2.768   3.153   1.448  0.2893 -1.2365  0.9601
 1395TIP3   OH2 4148   4.307   5.603   2.773  0.2272  0.2838  0.4867
 1395TIP3    H1 4149   4.293   5.697   2.757 -2.3067 -0.1090 -0.0480
 1395TIP3    H2 4150   4.221   5.571   2.801  0.7988 -2.0665 -0.2592
 1396TIP3   OH2 4151   5.686   2.839   3.823 -0.9797 -0.3836 -0.0302
 1396TIP3    H1 4152   5.776   2.808   3.815 -0.6246 -0.4269  3.0580
 1396TIP3    H2 4153   5.672   2.893   3.745  1.1297 -1.6851 -1.4048
 1397TIP3   OH2 4154   4.941   5.518   0.427  0.3363 -0.5714  0.3271
 1397TIP3    H1 4155   4.933   5.424   0.412  0.1910 -0.2465 -2.2247
 1397TIP3    H2 4156   5.001   5.526   0.501 -1.0767 -2.6584  1.8072
 1398TIP3   OH2 4157   6.374   0.578   3.185 -0.0984  0.3918  0.3792
 1398TIP3    H1 4158   6.418   0.631   3.118  1.5821  0.6362  1.6161
 1398TIP3    H2 4159   6.286   0.563   3.149 -0.5817  3.7572 -0.1791
 1399TIP3   OH2 4160   6.372   0.857   2.498 -0.5788  0.1079  0.8030
 1399TIP3    H1 4161   6.444   0.916   2.518 -1.7384  2.1337 -0.6577
 1399TIP3    H2 4162   6.357   0.868   2.404 -1.0121 -2.3736  0.5151
 1400TIP3   OH2 4163   1.569   0.476   1.418 -0.1558 -0.2216  0.0189
 1400TIP3    H1 4164   1.569   0.459   1.512  3.3347 -0.8504  0.0130
 1400TIP3    H2 4165   1.623   0.554   1.408 -1.4657  0.5614 -1.4387
 1401TIP3   OH2 4166   0.718   4.005   2.294  0.7557  0.2324  0.4012
 1401TIP3    H1 4167   0.770   3.924   2.294  0.1873 -0.1439 -0.1528
 1401TIP3    H2 4168   0.676   4.006   2.380 -0.3736 -0.8341 -0.0969
 1402TIP3   OH2 4169   1.507   6.122   4.376  0.3555 -0.1339 -0.2373
 1402TIP3    H1 4170   1.474   6.151   4.291  0.2304  0.6661  0.0715
 1402TIP3    H2 4171   1.443   6.058   4.407  1.3445 -1.8302 -1.5515
 1403TIP3   OH2 4172   1.145   1.171   3.762  0.4497  0.3507 -0.0352
 1403TIP3    H1 4173   1.233   1.158   3.798  0.5403 -1.8212 -0.9182
 1403TIP3    H2 4174   1.101   1.227   3.827  1.6667 -0.6385  1.7301
 1404TIP3   OH2 4175   0.169   4.429   4.351 -0.0637  0.4463  0.1074
 1404TIP3    H1 4176   0.157   4.524   4.345  1.4317  0.5796 -1.5058
 1404TIP3    H2 4177   0.170   4.411   4.445  0.0932  2.0875  0.4566
 1405TIP3   OH2 4178   5.120   5.154   1.357 -0.4696  0.1860 -0.5284
 1405TIP3    H1 4179   5.116   5.206   1.277  0.8072  0.6403 -0.3305
 1405TIP3    H2 4180   5.138   5.218   1.426  0.7550 -0.4496 -0.2261
 1406TIP3   OH2 4181   5.594   4.959   2.097 -0.0353  0.8355 -0.2550
 1406TIP3    H1 4182   5.526   4.894   2.112  1.8964 -0.7775  2.2615
 1406TIP3    H2 4183   5.625   4.942   2.008  0.3695 -1.7340  0.3157
 1407TIP3   OH2 4184   0.780   1.385   0.161 -0.2482  0.1913 -0.0601
 1407TIP3    H1 4185   0.874   1.388   0.144 -0.5583  0.1004 -2.1432
 1407TIP3    H2 4186   0.740   1.397   0.074 -2.1034 -3.4521  0.0803
 1408TIP3   OH2 4187   1.329   2.268   0.648 -0.5808  0.4428 -0.1915
 1408TIP3    H1 4188   1.325   2.197   0.584 -1.6040 -0.3325  0.6907
 1408TIP3    H2 4189   1.284   2.341   0.605 -0.6946  0.1359 -0.6041
 1409TIP3   OH2 4190   5.622   2.229   5.120  0.5768  0.2163  0.0051
 1409TIP3    H1 4191   5.561   2.165   5.156  0.3096  0.7786  0.5662
 1409TIP3    H2 4192   5.604   2.310   5.169  2.1746  0.2392  0.6354
 1410TIP3   OH2 4193   5.042   1.834   2.401 -0.2102 -0.1690  0.2058
 1410TIP3    H1 4194   5.040   1.927   2.378  0.2144 -0.3050 -0.4227
 1410TIP3    H2 4195   5.093   1.831   2.482 -0.4354  0.1685  0.3633
 1411TIP3   OH2 4196   0.034   5.515   3.115 -0.8456 -0.1553 -0.3617
 1411TIP3    H1 4197   0.124   5.548   3.111 -1.5114  1.7373 -1.4253
 1411TIP3    H2 4198   0.025   5.480   3.203  0.2174  1.9338  0.6639
 1412TIP3   OH2 4199   5.450   0.351   5.648 -0.7468  0.1441  0.2400
 1412TIP3    H1 4200   5.420   0.429   5.601 -1.1718  0.4607  1.0256
 1412TIP3    H2 4201   5.411   0.359   5.735 -0.2286 -0.5960  0.5467
 1413TIP3   OH2 4202   0.386   2.948   4.689  0.7267  0.1602 -0.3057
 1413TIP3    H1 4203   0.302   2.958   4.645  0.7260  0.4887 -0.2333
 1413TIP3    H2 4204   0.387   2.857   4.718  1.0737 -0.3132 -1.6947
 1414TIP3   OH2 4205   3.874   1.722   1.589 -0.0192  0.0019  0.0848
 1414TIP3    H1 4206   3.880   1.628   1.607  0.2507  0.0436  0.2277
 1414TIP3    H2 4207   3.916   1.763   1.666 -1.0949  0.2802  0.5338
 1415TIP3   OH2 4208   1.375   1.056   4.531 -0.4750 -0.5009  0.1395
 1415TIP3    H1 4209   1.297   1.056   4.587 -0.9267 -0.3427 -0.4630
 1415TIP3    H2 4210   1.437   1.112   4.576 -0.6510 -0.7590  0.7131
 1416TIP3   OH2 4211   3.352   5.732   3.185  0.5927  0.1465  0.6685
 1416TIP3    H1 4212   3.414   5.667   3.218  0.5339 -1.4712 -2.0601
 1416TIP3    H2 4213   3.398   5.775   3.113  0.2576  2.5360  1.7643
 1417TIP3   OH2 4214   1.997   2.507   4.767  0.6182 -0.1222  0.0170
 1417TIP3    H1 4215   1.959   2.463   4.844  0.3651  1.4233  0.8232
 1417TIP3    H2 4216   2.051   2.440   4.726 -0.1479 -1.3324  0.8896
 1418TIP3   OH2 4217   0.746   2.785   2.665  0.1627 -0.0423 -0.1398
 1418TIP3    H1 4218   0.656   2.753   2.649 -0.0577  0.1397  0.7225
 1418TIP3    H2 4219   0.735   2.861   2.721  0.6944  1.5525 -2.0621
 1419TIP3   OH2 4220   4.213   0.031   4.709 -0.0914 -0.2227 -0.0640
 1419TIP3    H1 4221   4.124   0.065   4.722  0.4774  1.2676  0.0580
 1419TIP3    H2 4222   4.216  -0.048   4.763 -2.1455 -1.7607 -2.0386
 1420TIP3   OH2 4223   1.691   2.245   5.500  0.4324  0.4213  0.5881
 1420TIP3    H1 4224   1.728   2.241   5.589  1.2841  0.8061  0.2609
 1420TIP3    H2 4225   1.728   2.325   5.462  0.7471 -0.1773 -0.4031
 1421TIP3   OH2 4226   5.845   6.797   4.070  0.3446  0.1584 -0.2018
 1421TIP3    H1 4227   5.775   6.809   4.006  2.7860 -0.1634 -3.1774
 1421TIP3    H2 4228   5.839   6.704   4.094 -0.0945  0.0655 -0.6471
 1422TIP3   OH2 4229   2.960   1.658   1.360 -0.6558  0.0062 -0.2483
 1422TIP3    H1 4230   2.961   1.563   1.351  0.6095  0.0980 -1.3845
 1422TIP3    H2 4231   3.041   1.679   1.407 -1.0517  0.5173  0.2303
 1423TIP3   OH2 4232   0.212   1.590   2.460 -0.5615 -0.2245 -0.4986
 1423TIP3    H1 4233   0.183   1.611   2.548 -3.5155 -0.5484 -1.2950
 1423TIP3    H2 4234   0.246   1.500   2.467  0.1930  0.1155  0.4510
 1424TIP3   OH2 4235   1.048   5.337   0.648 -0.5047 -1.1853  0.4184
 1424TIP3    H1 4236   1.054   5.244   0.672  1.6185 -1.4727 -0.9714
 1424TIP3    H2 4237   1.006   5.337   0.562  0.5488 -0.9825 -0.1104
 1425TIP3   OH2 4238   4.270   4.428   3.569 -0.2153  0.2865 -0.0876
 1425TIP3    H1 4239   4.346   4.382   3.605  0.1329  1.0696  0.2169
 1425TIP3    H2 4240   4.204   4.360   3.556  0.2108 -0.2624  0.5491
 1426TIP3   OH2 4241   1.343   3.944   1.824  0.1831  0.5130  0.1147
 1426TIP3    H1 4242   1.406   3.876   1.800 -1.2264 -0.7973 -0.0730
 1426TIP3    H2 4243   1.310   3.916   1.910  1.0378  2.0855  0.9982
 1427TIP3   OH2 4244   4.180   0.136   3.837 -0.4457  0.1438 -0.1113
 1427TIP3    H1 4245   4.199   0.167   3.926  1.6704  0.5637 -0.6793
 1427TIP3    H2 4246   4.130   0.056   3.851  0.4854 -0.2027  1.4919
 1428TIP3   OH2 4247   3.542   3.300   3.168 -0.4952  0.2255 -0.0059
 1428TIP3    H1 4248   3.634   3.325   3.175 -0.8862  2.2869 -1.2797
 1428TIP3    H2 4249   3.502   3.371   3.117 -2.4254 -1.5057 -1.0336
 1429TIP3   OH2 4250   6.475   4.457   4.598 -0.0400 -0.0260  0.3828
 1429TIP3    H1 4251   6.494   4.376   4.550  0.2706  1.1725 -1.6329
 1429TIP3    H2 4252   6.408   4.501   4.547 -0.8470  0.6175  1.9178
 1430TIP3   OH2 4253   6.430   3.341   5.111 -0.7423  0.3367 -0.0206
 1430TIP3    H1 4254   6.495   3.298   5.056 -0.5347  0.2355  0.2961
 1430TIP3    H2 4255   6.362   3.370   5.051 -0.7741 -0.2361 -0.2620
 1431TIP3   OH2 4256   0.961   3.956   0.880  1.0911  0.7689  0.9000
 1431TIP3    H1 4257   0.915   3.971   0.963 -1.8030  2.0699 -0.7905
 1431TIP3    H2 4258   0.925   3.873   0.847  0.6446  1.3162 -0.0112
 1432TIP3   OH2 4259   5.887   5.826   0.251  0.0113 -0.3906 -0.0394
 1432TIP3    H1 4260   5.922   5.915   0.254 -1.6802  0.3068  0.2406
 1432TIP3    H2 4261   5.919   5.790   0.168 -1.6334  1.5588 -1.6239
 1433TIP3   OH2 4262   6.508   3.264   4.812 -0.7730  0.1696  0.0830
 1433TIP3    H1 4263   6.526   3.355   4.788  2.4243  0.3835  2.6417
 1433TIP3    H2 4264   6.580   3.214   4.774 -1.9223 -1.1856 -0.4069
 1434TIP3   OH2 4265   3.299   4.101   1.814 -0.3626  0.1720  0.0602
 1434TIP3    H1 4266   3.283   4.159   1.889  0.9865  1.4047 -0.5552
 1434TIP3    H2 4267   3.224   4.042   1.813 -0.8943  0.7521  1.7941
 1435TIP3   OH2 4268   2.370   2.203   0.488  0.0219 -0.2184 -0.2679
 1435TIP3    H1 4269   2.378   2.118   0.444 -0.8504 -0.5830  0.2468
 1435TIP3    H2 4270   2.317   2.256   0.428  1.2566  0.2564 -0.9738
 1436TIP3   OH2 4271   5.829   0.408   4.145  0.2767  0.5530 -0.1638
 1436TIP3    H1 4272   5.924   0.418   4.152  0.6996 -2.7617  0.5423
 1436TIP3    H2 4273   5.816   0.335   4.085 -1.7499 -0.0019  0.8352
 1437TIP3   OH2 4274   2.343   4.424   1.070 -0.4088  0.1145  0.3531
 1437TIP3    H1 4275   2.325   4.356   1.005 -0.1924 -1.2194  1.6399
 1437TIP3    H2 4276   2.420   4.393   1.117 -0.3389  1.2327  1.0186
 1438TIP3   OH2 4277   2.002   1.579   3.150 -0.3386  0.3322 -0.0036
 1438TIP3    H1 4278   1.995   1.675   3.144 -1.1763  0.2931  0.2186
 1438TIP3    H2 4279   2.021   1.562   3.242  1.4364  0.3539 -0.3344
 1439TIP3   OH2 4280   0.073   1.523   2.987 -0.1329 -0.4847 -0.6436
 1439TIP3    H1 4281   0.099   1.574   2.910  1.9611 -3.2961 -1.9661
 1439TIP3    H2 4282  -0.020   1.504   2.972 -0.3847  1.0236 -1.2117
 1440TIP3   OH2 4283   4.816   6.485   0.922  0.1066 -0.3078  0.4284
 1440TIP3    H1 4284   4.765   6.473   1.003  1.1807 -1.1459  1.0126
 1440TIP3    H2 4285   4.752   6.472   0.852 -0.6872 -0.3701  1.1374
 1441TIP3   OH2 4286   5.668   2.848   0.417 -0.1270 -0.2863 -0.3287
 1441TIP3    H1 4287   5.739   2.887   0.367 -0.1089  0.7221  0.4409
 1441TIP3    H2 4288   5.623   2.923   0.457 -0.2302 -1.0282  1.0203
 1442TIP3   OH2 4289   5.856   0.606   3.583 -0.5990  0.1055 -0.0660
 1442TIP3    H1 4290   5.899   0.521   3.594  1.3519  1.0329 -0.0434
 1442TIP3    H2 4291   5.868   0.651   3.667  0.3185  1.1832 -0.7305
 1443TIP3   OH2 4292   5.560   4.084   1.806 -0.2011 -0.7324 -0.1016
 1443TIP3    H1 4293   5.518   4.161   1.844 -0.5938 -0.3617 -1.2384
 1443TIP3    H2 4294   5.596   4.036   1.881  0.9589  1.0810  0.5533
 1444TIP3   OH2 4295   4.588   3.987   4.262 -0.0986 -0.3889  0.0751
 1444TIP3    H1 4296   4.602   4.017   4.352  1.8089  0.5171 -0.4535
 1444TIP3    H2 4297   4.570   4.067   4.213  2.5274 -0.3196 -0.9265
 1445TIP3   OH2 4298   3.738   3.088   2.876  0.1714  0.0849 -0.7077
 1445TIP3    H1 4299   3.645   3.090   2.898  0.1629 -0.0149 -0.7350
 1445TIP3    H2 4300   3.748   3.158   2.811 -0.0786 -0.5464 -1.4505
 1446TIP3   OH2 4301   4.897   0.631   0.508  0.4405  0.1694 -0.4555
 1446TIP3    H1 4302   4.982   0.673   0.494  0.6264 -0.3969 -1.0964
 1446TIP3    H2 4303   4.918   0.538   0.515  0.0208  0.1491  0.7879
 1447TIP3   OH2 4304   3.682   1.787   0.381  0.5554  0.3352 -0.1135
 1447TIP3    H1 4305   3.688   1.693   0.397 -3.1921  0.1293  1.0698
 1447TIP3    H2 4306   3.659   1.825   0.466  0.3218  2.0935 -0.9060
 1448TIP3   OH2 4307   3.282   6.683   5.703 -0.2889 -0.0015 -0.0616
 1448TIP3    H1 4308   3.213   6.734   5.747 -0.2963  0.2306 -0.3447
 1448TIP3    H2 4309   3.267   6.698   5.610  1.0390  1.2390 -0.1032
 1449TIP3   OH2 4310   6.529   0.926   4.620  0.1448  0.1804 -0.3019
 1449TIP3    H1 4311   6.513   1.017   4.597 -1.0819  0.0155 -0.1836
 1449TIP3    H2 4312   6.458   0.903   4.681  0.5086 -0.8038 -0.2192
 1450TIP3   OH2 4313   3.802   2.488   0.955  0.3543 -0.2276 -0.5337
 1450TIP3    H1 4314   3.882   2.538   0.974  0.2510 -0.4291  0.5132
 1450TIP3    H2 4315   3.823   2.398   0.982 -0.3939 -0.1772  0.2483
 1451TIP3   OH2 4316   5.704   5.050   0.683 -0.9626  0.0989  0.0774
 1451TIP3    H1 4317   5.737   4.991   0.615 -1.1012  1.3339 -1.0970
 1451TIP3    H2 4318   5.780   5.069   0.738 -0.4769  0.3296 -0.6663
 1452TIP3   OH2 4319   5.262   4.966   3.714  0.1255 -0.1594 -0.1627
 1452TIP3    H1 4320   5.352   4.995   3.699 -0.3272  0.9801 -0.8248
 1452TIP3    H2 4321   5.234   4.932   3.629 -0.3194  0.2290 -0.1758
 1453TIP3   OH2 4322   6.473   2.370   0.130 -0.0789  0.1722 -0.1584
 1453TIP3    H1 4323   6.437   2.326   0.207 -0.3971  1.9637  0.7953
 1453TIP3    H2 4324   6.397   2.384   0.073 -0.4101  1.3855  0.5423
 1454TIP3   OH2 4325   5.769   4.667   0.721  0.5428  0.0566 -0.0538
 1454TIP3    H1 4326   5.709   4.741   0.725  0.6571  0.1811 -0.5709
 1454TIP3    H2 4327   5.726   4.604   0.662  0.6772 -0.0729 -0.0142
 1455TIP3   OH2 4328   7.143   1.537   2.414  0.4873 -0.0494 -0.0707
 1455TIP3    H1 4329   7.105   1.598   2.351  0.3237  0.6697  0.7074
 1455TIP3    H2 4330   7.235   1.531   2.389  0.8907  1.8176  0.8214
 1456TIP3   OH2 4331   6.631   4.292   5.286 -0.1462 -0.0115  0.3968
 1456TIP3    H1 4332   6.710   4.342   5.308  0.4112 -0.9830  0.6128
 1456TIP3    H2 4333   6.602   4.254   5.369  0.1858 -1.1248  0.0130
 1457TIP3   OH2 4334   3.140   6.254   0.278 -0.2862 -0.2620 -0.3596
 1457TIP3    H1 4335   3.061   6.244   0.224  0.0506 -2.3005 -0.5585
 1457TIP3    H2 4336   3.208   6.209   0.229  0.4112 -0.7331  0.9977
 1458TIP3   OH2 4337   2.269   3.207   2.331  0.2641 -0.6703 -0.0594
 1458TIP3    H1 4338   2.227   3.266   2.267  0.2028  0.4661  0.9871
 1458TIP3    H2 4339   2.348   3.177   2.287 -0.5004 -1.0643 -1.2117
 1459TIP3   OH2 4340   4.457   5.336  -0.028 -0.2609  0.1287  0.3095
 1459TIP3    H1 4341   4.442   5.247   0.002 -2.2311  0.2114 -0.3091
 1459TIP3    H2 4342   4.403   5.390   0.029 -1.3208  0.6198 -1.1021
 1460TIP3   OH2 4343   6.949   3.858   3.585  0.1998 -0.2492 -0.0717
 1460TIP3    H1 4344   6.993   3.936   3.552 -0.7373  0.4726  0.3204
 1460TIP3    H2 4345   6.946   3.871   3.680 -1.8762  0.3411 -0.1473
 1461TIP3   OH2 4346   5.492   6.108   0.920 -0.0609 -0.2187 -0.0446
 1461TIP3    H1 4347   5.427   6.052   0.962  1.0176 -0.7238  1.0188
 1461TIP3    H2 4348   5.575   6.080   0.957  0.8427  0.0161 -1.7953
 1462TIP3   OH2 4349   5.519   5.130   4.608 -0.9813 -0.0305 -0.2857
 1462TIP3    H1 4350   5.583   5.157   4.674  0.3206  1.3039 -2.0080
 1462TIP3    H2 4351   5.496   5.040   4.633  3.1717 -1.4340 -0.6699
 1463TIP3   OH2 4352   3.511   0.046   0.757 -0.1729 -0.5953  0.2812
 1463TIP3    H1 4353   3.442  -0.019   0.772  0.8696 -2.3206 -1.7542
 1463TIP3    H2 4354   3.488   0.087   0.674  0.2677  0.1980  0.5390
 1464TIP3   OH2 4355   5.171   4.424   0.436 -0.0270 -0.0308 -0.4984
 1464TIP3    H1 4356   5.254   4.469   0.422 -0.7180  1.1578 -0.8945
 1464TIP3    H2 4357   5.105   4.490   0.417 -1.1445 -1.8114 -3.4625
 1465TIP3   OH2 4358   6.895   3.989   2.177 -0.2017 -0.1463  0.2429
 1465TIP3    H1 4359   6.925   3.903   2.208  0.4077  0.8321  2.6005
 1465TIP3    H2 4360   6.973   4.044   2.180 -0.6277  0.5653 -1.0634
 1466TIP3   OH2 4361   5.482   4.478   2.592 -0.0762  0.3363  0.6086
 1466TIP3    H1 4362   5.535   4.506   2.667  1.6720 -1.9421  0.3143
 1466TIP3    H2 4363   5.405   4.437   2.631 -0.8370  2.0685  1.0521
 1467TIP3   OH2 4364   6.097   5.778   4.355 -0.0505 -0.0834 -0.3561
 1467TIP3    H1 4365   6.144   5.797   4.436  0.3820 -0.4537 -0.5106
 1467TIP3    H2 4366   6.148   5.707   4.314  0.0775  0.4969 -1.2323
 1468TIP3   OH2 4367   1.782   5.924   4.349  0.0246  0.1757  0.4564
 1468TIP3    H1 4368   1.694   5.910   4.316 -0.0305  0.5243  0.4549
 1468TIP3    H2 4369   1.782   5.886   4.437  0.1829 -0.7987  0.0476
 1469TIP3   OH2 4370   2.095   4.783   5.510  0.1462  0.1480 -0.1927
 1469TIP3    H1 4371   2.064   4.697   5.481  0.8251  0.0062 -0.5174
 1469TIP3    H2 4372   2.145   4.817   5.435  1.1310  0.1866  0.4651
 1470TIP3   OH2 4373   3.028   0.399   3.960  0.1184 -0.6461  0.6055
 1470TIP3    H1 4374   3.077   0.475   3.993  0.5409 -1.0425  0.9051
 1470TIP3    H2 4375   3.033   0.407   3.865 -1.0944  0.4989  0.5992
 1471TIP3   OH2 4376   4.802   6.230   5.261  0.0693  0.1033 -0.0462
 1471TIP3    H1 4377   4.847   6.270   5.336  0.5706 -0.2175 -0.1716
 1471TIP3    H2 4378   4.750   6.160   5.299 -0.7582  0.8225  0.1671
 1472TIP3   OH2 4379   5.721   5.138   2.687 -0.5780 -0.2979  0.2553
 1472TIP3    H1 4380   5.627   5.127   2.704 -0.6489  0.1109  0.1625
 1472TIP3    H2 4381   5.725   5.214   2.627 -0.1499  0.0683  0.7383
 1473TIP3   OH2 4382   5.729   1.414   0.256 -0.0240 -0.5679  0.3619
 1473TIP3    H1 4383   5.791   1.487   0.260  0.1363 -0.7268  0.9216
 1473TIP3    H2 4384   5.718   1.396   0.163  0.6028 -0.3940  0.2535
 1474TIP3   OH2 4385   5.027   4.005   3.237  0.2538 -0.2182  0.6438
 1474TIP3    H1 4386   5.041   3.997   3.331 -0.5974  1.7636  1.0091
 1474TIP3    H2 4387   5.089   4.073   3.210 -0.2512 -0.0123 -0.0163
 1475TIP3   OH2 4388   2.533   1.774   0.920  0.1234 -0.2516  0.2465
 1475TIP3    H1 4389   2.491   1.860   0.921 -1.4007 -0.9195 -1.3166
 1475TIP3    H2 4390   2.485   1.723   0.985 -0.0514 -0.3774  0.0211
 1476TIP3   OH2 4391   1.209   6.086   1.470  0.4859 -0.1931 -0.3350
 1476TIP3    H1 4392   1.227   6.017   1.407 -0.8986 -0.0357 -0.9377
 1476TIP3    H2 4393   1.221   6.167   1.421  1.6030  0.0034  0.2308
 1477TIP3   OH2 4394   0.690   2.211   0.331  0.2146  0.4457  0.4969
 1477TIP3    H1 4395   0.685   2.302   0.302  0.8873  0.4292  0.3156
 1477TIP3    H2 4396   0.713   2.217   0.424 -3.0087  0.5297  1.4124
 1478TIP3   OH2 4397   7.176   0.678   2.868 -0.1175  0.4429  0.4449
 1478TIP3    H1 4398   7.205   0.599   2.914 -1.4692 -1.2629 -1.4408
 1478TIP3    H2 4399   7.166   0.743   2.937  0.6150 -1.1574  2.1582
 1479TIP3   OH2 4400   1.711   4.404   3.635 -0.1439 -0.7415  0.3147
 1479TIP3    H1 4401   1.802   4.379   3.619 -0.2616 -0.2924 -1.2080
 1479TIP3    H2 4402   1.714   4.460   3.712  0.8938 -0.5696  0.1568
 1480TIP3   OH2 4403   3.940   2.815   2.441  0.3696  0.1899 -0.0676
 1480TIP3    H1 4404   4.034   2.812   2.457  0.3453  0.6124  0.1501
 1480TIP3    H2 4405   3.928   2.880   2.372  0.0147  2.0478  1.6474
 1481TIP3   OH2 4406   0.805   4.650   4.734  0.2377  0.0667  0.4838
 1481TIP3    H1 4407   0.726   4.655   4.788  0.6093  1.3350  0.9467
 1481TIP3    H2 4408   0.833   4.741   4.724  2.6592 -0.4309  1.8927
 1482TIP3   OH2 4409   4.033   6.211   4.439  0.1283  0.3977 -0.4812
 1482TIP3    H1 4410   4.056   6.119   4.432 -1.0271 -0.0090  0.6309
 1482TIP3    H2 4411   4.050   6.233   4.531 -1.8837  0.6048 -0.1169
 1483TIP3   OH2 4412   4.484   5.866   5.795  0.1968  0.1849  0.4459
 1483TIP3    H1 4413   4.474   5.837   5.885 -1.5431 -0.4038  0.1145
 1483TIP3    H2 4414   4.445   5.953   5.792 -0.5518 -0.1499  0.1056
 1484TIP3   OH2 4415   2.796   0.198   5.761  0.4738  0.5461 -0.0594
 1484TIP3    H1 4416   2.865   0.141   5.793 -0.8494 -0.3857  1.2616
 1484TIP3    H2 4417   2.779   0.259   5.832 -1.0966 -0.2355  0.2933
 1485TIP3   OH2 4418   3.440   6.168   4.826  0.1034  0.0086 -0.5039
 1485TIP3    H1 4419   3.352   6.142   4.800  0.4874 -0.9988 -0.8161
 1485TIP3    H2 4420   3.498   6.124   4.764  0.8460  0.4352 -0.1288
 1486TIP3   OH2 4421   1.083   6.428   4.953 -0.1465  0.3940 -0.4535
 1486TIP3    H1 4422   0.997   6.388   4.962 -0.2187  0.6638  0.0941
 1486TIP3    H2 4423   1.089   6.453   4.861 -1.3343  1.9099 -0.1563
 1487TIP3   OH2 4424   1.893   0.227   0.649 -0.0090  0.3515 -1.1150
 1487TIP3    H1 4425   1.856   0.311   0.622 -1.2983  0.7867  1.6845
 1487TIP3    H2 4426   1.817   0.172   0.665  0.6950 -0.2982  0.1544
 1488TIP3   OH2 4427   5.708   5.453   2.462 -0.5766  0.2992  0.4366
 1488TIP3    H1 4428   5.719   5.523   2.526  1.7625 -0.1033  0.5777
 1488TIP3    H2 4429   5.683   5.497   2.381 -0.8468  1.0888  0.9386
 1489TIP3   OH2 4430   3.717   0.034   3.394 -0.5702 -0.1074  0.0687
 1489TIP3    H1 4431   3.737   0.093   3.467 -0.4360  0.7875 -0.6790
 1489TIP3    H2 4432   3.719   0.090   3.317 -2.1838 -0.7396 -0.4659
 1490TIP3   OH2 4433   0.637   3.235   5.308 -0.0312 -0.2708  0.3565
 1490TIP3    H1 4434   0.604   3.293   5.239 -0.3263  0.6951  1.2878
 1490TIP3    H2 4435   0.710   3.283   5.347  1.1385 -1.4669 -0.2610
 1491TIP3   OH2 4436   6.335   5.074   4.910 -0.0310  0.3093 -0.1133
 1491TIP3    H1 4437   6.240   5.081   4.907 -0.0783 -0.5650 -1.5669
 1491TIP3    H2 4438   6.357   5.087   5.002 -1.4726  1.3280  0.1215
 1492TIP3   OH2 4439   1.805   6.592   4.013  0.2358  0.1246  0.1725
 1492TIP3    H1 4440   1.858   6.605   4.092  3.0322 -1.4901 -1.2855
 1492TIP3    H2 4441   1.810   6.497   3.997 -0.0718  0.4455 -2.0425
 1493TIP3   OH2 4442   6.895   4.518   4.623 -0.2224 -0.8967 -0.3655
 1493TIP3    H1 4443   6.855   4.458   4.686 -0.1939  0.6507  1.1885
 1493TIP3    H2 4444   6.989   4.507   4.635 -0.2045  0.2386  0.7642
 1494TIP3   OH2 4445   4.994   6.626   4.603  0.1805 -0.1639  0.5680
 1494TIP3    H1 4446   4.946   6.630   4.686 -0.8957 -0.6652 -0.0159
 1494TIP3    H2 4447   4.993   6.717   4.571 -0.9570 -0.2772  0.2512
 1495TIP3   OH2 4448   4.872   0.477   3.845 -0.2797 -1.0551  0.0053
 1495TIP3    H1 4449   4.826   0.433   3.774 -2.0632  0.5889  0.0680
 1495TIP3    H2 4450   4.872   0.414   3.917 -1.5698 -1.4673 -0.3416
 1496TIP3   OH2 4451   0.206   5.452   3.547  0.1787  0.3097  0.0574
 1496TIP3    H1 4452   0.282   5.406   3.512 -1.4186 -2.1563 -0.4600
 1496TIP3    H2 4453   0.208   5.435   3.641 -1.3832 -2.6944 -0.3184
 1497TIP3   OH2 4454   4.256   0.518   1.902  0.5405  0.3546  0.0552
 1497TIP3    H1 4455   4.268   0.432   1.943  0.0356  0.8764  1.3492
 1497TIP3    H2 4456   4.345   0.550   1.887  0.7488  0.3012  1.1122
 1498TIP3   OH2 4457   2.616   4.951   1.549  0.0127 -0.1447 -0.0945
 1498TIP3    H1 4458   2.655   4.872   1.512  1.7214  1.5436 -2.1454
 1498TIP3    H2 4459   2.661   4.963   1.633  1.0258 -0.4117 -0.5884
 1499TIP3   OH2 4460   4.873   5.038   4.263 -0.0090  0.3335 -0.5817
 1499TIP3    H1 4461   4.825   4.956   4.251 -1.6561  1.1326  0.3531
 1499TIP3    H2 4462   4.929   5.044   4.186  0.2770 -1.7496 -0.5882
 1500TIP3   OH2 4463   7.014   2.935   0.655 -0.2466  0.2468 -0.4843
 1500TIP3    H1 4464   6.922   2.908   0.660 -0.6208  1.4377 -0.7453
 1500TIP3    H2 4465   7.023   2.973   0.568  0.9092 -1.2513 -1.0775
 1501TIP3   OH2 4466   7.106   6.561   4.917 -0.4196  0.0725  0.3863
 1501TIP3    H1 4467   7.041   6.536   4.851  0.9043 -1.6775 -0.3344
 1501TIP3    H2 4468   7.078   6.515   4.996  0.8704 -2.2597 -0.4051
 1502TIP3   OH2 4469   0.640   4.416   3.699 -0.2352  0.0208  0.3052
 1502TIP3    H1 4470   0.730   4.418   3.731  0.4637 -0.0669 -1.5467
 1502TIP3    H2 4471   0.591   4.374   3.770  1.6398 -2.3744  0.3186
 1503TIP3   OH2 4472   0.435   3.991   1.978  0.4271  0.0342  0.1145
 1503TIP3    H1 4473   0.393   3.957   2.057  0.2376  0.1348  0.0562
 1503TIP3    H2 4474   0.481   3.916   1.941  0.7405  0.0486  0.4675
 1504TIP3   OH2 4475   2.437   3.311   2.756 -0.1245 -0.2119 -0.1938
 1504TIP3    H1 4476   2.499   3.249   2.718  1.4768  1.8032 -1.0808
 1504TIP3    H2 4477   2.371   3.324   2.688  1.4002  1.5218 -1.4618
 1505TIP3   OH2 4478   6.844   6.051   0.298 -0.5601 -0.0422 -0.0353
 1505TIP3    H1 4479   6.789   6.065   0.376 -4.0817  2.7924 -2.6796
 1505TIP3    H2 4480   6.803   5.976   0.254  0.3314 -0.5151 -0.0758
 1506TIP3   OH2 4481   2.241   1.515   2.982  0.4136  0.2897  0.1508
 1506TIP3    H1 4482   2.204   1.466   3.055  1.5322 -0.6366  0.1096
 1506TIP3    H2 4483   2.171   1.519   2.917  0.3095 -1.2816  0.1483
 1507TIP3   OH2 4484   4.969   2.757   2.714  0.3354  0.6407  0.0598
 1507TIP3    H1 4485   4.920   2.754   2.632 -1.8294 -0.1165  1.2726
 1507TIP3    H2 4486   4.999   2.848   2.721  0.8705  0.6241 -1.6972
 1508TIP3   OH2 4487   0.864   6.044   0.470 -0.1392  0.2167  0.4515
 1508TIP3    H1 4488   0.842   5.981   0.401  2.2619  0.1402 -0.3390
 1508TIP3    H2 4489   0.913   5.993   0.534  0.2586  0.9212  0.7174
 1509TIP3   OH2 4490   1.978   6.233   1.684  0.0946 -0.5081  0.3874
 1509TIP3    H1 4491   1.946   6.279   1.761 -1.6605 -1.8886  0.5587
 1509TIP3    H2 4492   2.070   6.213   1.704 -0.4001 -1.0912  2.2710
 1510TIP3   OH2 4493   2.422   2.692   4.220 -0.0447  0.1529 -0.3112
 1510TIP3    H1 4494   2.487   2.758   4.242 -2.3472  1.5371  3.3118
 1510TIP3    H2 4495   2.458   2.610   4.254  0.0925  0.7875  1.1155
 1511TIP3   OH2 4496   4.081   6.769   4.725  0.3726 -0.0353 -0.3444
 1511TIP3    H1 4497   4.139   6.755   4.799  1.0619  0.4954 -0.7658
 1511TIP3    H2 4498   3.992   6.764   4.762  0.6804 -0.8432  0.3046
 1512TIP3   OH2 4499   2.805   2.137   1.484 -0.8523  0.3441  0.3862
 1512TIP3    H1 4500   2.747   2.198   1.529 -1.8927  0.2462 -0.7674
 1512TIP3    H2 4501   2.893   2.168   1.505 -1.3222  0.9927  1.4988
 1513TIP3   OH2 4502   6.927   2.447   5.545 -0.3120  0.1094  0.6810
 1513TIP3    H1 4503   6.975   2.445   5.462 -0.2887 -2.0973  0.7097
 1513TIP3    H2 4504   6.840   2.416   5.523 -1.5354  3.0479  0.8500
 1514TIP3   OH2 4505   1.434   4.035   3.946 -0.3563  0.5468 -0.8603
 1514TIP3    H1 4506   1.502   3.968   3.941  2.3315  3.0814 -0.3763
 1514TIP3    H2 4507   1.354   3.985   3.963  1.3230 -2.5764 -1.3027
 1515TIP3   OH2 4508   5.379   6.373   2.956  0.2718 -0.0992  0.3689
 1515TIP3    H1 4509   5.435   6.386   2.880  1.6259 -1.5174  1.0742
 1515TIP3    H2 4510   5.292   6.399   2.926  1.2076  1.8413 -0.8563
 1516TIP3   OH2 4511   2.697   2.990   3.148  0.0235 -0.2472  0.1203
 1516TIP3    H1 4512   2.676   3.071   3.195  0.8701  0.9423 -1.4125
 1516TIP3    H2 4513   2.646   2.996   3.067  2.9239  0.7148 -1.7844
 1517TIP3   OH2 4514   6.254   3.355   1.996 -0.2006 -0.2139  0.0731
 1517TIP3    H1 4515   6.278   3.439   2.034  0.5271  0.4920 -1.8333
 1517TIP3    H2 4516   6.166   3.369   1.960 -0.5565 -0.6343  0.7561
 1518TIP3   OH2 4517   1.693   6.780   0.718  0.5836  0.2813 -0.4646
 1518TIP3    H1 4518   1.614   6.727   0.705  0.4319  0.3694  0.0691
 1518TIP3    H2 4519   1.712   6.817   0.632 -0.5735  1.1063 -0.3900
 1519TIP3   OH2 4520   0.775   1.423   1.665  0.5096 -0.7198  0.2465
 1519TIP3    H1 4521   0.805   1.455   1.580 -1.3271 -2.6376 -1.2170
 1519TIP3    H2 4522   0.835   1.351   1.685  0.2325 -1.0276 -0.0166
 1520TIP3   OH2 4523   5.608   6.746   3.904  0.4069  0.1315  0.1351
 1520TIP3    H1 4524   5.594   6.651   3.908 -0.5434  0.1214 -2.1170
 1520TIP3    H2 4525   5.531   6.783   3.947  0.3751 -0.0862  0.2693
 1521TIP3   OH2 4526   5.669   6.049   4.496  0.0626 -0.7185  0.0033
 1521TIP3    H1 4527   5.728   6.123   4.479 -1.6220 -0.0174 -4.1122
 1521TIP3    H2 4528   5.708   5.976   4.447 -1.2463 -0.8762 -0.8422
 1522TIP3   OH2 4529   1.498   3.376   1.021 -0.5467 -0.0556  0.1823
 1522TIP3    H1 4530   1.580   3.397   0.978 -0.2452  1.0559  1.2638
 1522TIP3    H2 4531   1.498   3.280   1.025  0.8805 -0.0681  0.5124
 1523TIP3   OH2 4532   4.224   4.780   5.079 -0.0074 -0.3391  0.1917
 1523TIP3    H1 4533   4.310   4.822   5.079 -0.1513 -0.0373  0.0456
 1523TIP3    H2 4534   4.169   4.838   5.132 -0.2892 -0.1680 -0.2829
 1524TIP3   OH2 4535   3.239   6.487   1.567  0.3506 -0.2430 -0.1762
 1524TIP3    H1 4536   3.258   6.396   1.544  1.1501 -0.1531  0.0860
 1524TIP3    H2 4537   3.178   6.481   1.640 -1.5685 -0.5386 -1.7196
 1525TIP3   OH2 4538   4.391   4.226   0.326  0.1373 -0.1679  0.2611
 1525TIP3    H1 4539   4.338   4.250   0.250 -0.4953 -0.7567  0.5009
 1525TIP3    H2 4540   4.480   4.219   0.293  1.0182  5.0617  0.5877
 1526TIP3   OH2 4541   0.785   5.907   1.762 -0.5133 -0.4447 -0.0486
 1526TIP3    H1 4542   0.708   5.956   1.789  0.2322  0.4285  0.5790
 1526TIP3    H2 4543   0.854   5.935   1.823 -0.0084 -2.1509  0.2307
 1527TIP3   OH2 4544   2.170   4.221   5.393  0.2382 -0.6647  0.5429
 1527TIP3    H1 4545   2.190   4.273   5.471 -0.1680 -0.4081  0.4786
 1527TIP3    H2 4546   2.074   4.215   5.392  0.2736 -1.3181  0.4866
 1528TIP3   OH2 4547   6.459   4.349   0.920  0.3102  0.0421  0.4297
 1528TIP3    H1 4548   6.416   4.263   0.927 -0.6155  0.5707  1.6188
 1528TIP3    H2 4549   6.550   4.332   0.942 -0.0738 -0.4868  1.7041
 1529TIP3   OH2 4550   6.035   3.136   2.616  0.1971 -0.2666 -0.3624
 1529TIP3    H1 4551   6.087   3.191   2.556 -0.1069  0.0229 -0.3634
 1529TIP3    H2 4552   6.079   3.051   2.614 -1.1438 -1.0300 -2.8906
 1530TIP3   OH2 4553   6.504   4.889   0.927 -0.0021  0.0782 -0.5531
 1530TIP3    H1 4554   6.525   4.839   0.848  0.4176  0.8621 -0.9449
 1530TIP3    H2 4555   6.415   4.862   0.949  0.8181 -2.1868  0.2842
 1531TIP3   OH2 4556   6.294   2.013   5.590  0.4513 -0.3926  0.3231
 1531TIP3    H1 4557   6.220   1.955   5.607  0.1328 -0.2923 -0.6365
 1531TIP3    H2 4558   6.332   2.030   5.676  0.4843 -1.9174  0.6251
 1532TIP3   OH2 4559   5.249   1.719   0.124  0.2930  0.0794  0.2179
 1532TIP3    H1 4560   5.296   1.643   0.160 -0.8034 -0.4611  0.5621
 1532TIP3    H2 4561   5.316   1.771   0.081  1.4828  0.1256  2.0239
 1533TIP3   OH2 4562   0.700   3.266   0.732  0.0140 -0.7286  0.3824
 1533TIP3    H1 4563   0.704   3.212   0.653 -1.6694  2.0043 -1.7570
 1533TIP3    H2 4564   0.627   3.229   0.783 -0.1133 -1.3946 -0.2662
 1534TIP3   OH2 4565   5.983   0.750   2.963 -0.0317 -0.0561  0.2363
 1534TIP3    H1 4566   6.003   0.768   2.871 -1.7082 -2.3700 -0.6711
 1534TIP3    H2 4567   6.067   0.761   3.008  1.1413 -0.2165 -1.7902
 1535TIP3   OH2 4568   3.399   3.237   3.777 -0.0792  0.5294  0.1288
 1535TIP3    H1 4569   3.491   3.258   3.795  0.3438 -0.0658 -1.2005
 1535TIP3    H2 4570   3.383   3.158   3.829 -0.7628  2.2328  2.6865
 1536TIP3   OH2 4571   3.607   0.224   5.521 -0.0268  0.3872  0.3515
 1536TIP3    H1 4572   3.624   0.201   5.430  1.8754  0.3705  0.6798
 1536TIP3    H2 4573   3.513   0.242   5.524 -0.5518 -1.7742 -1.1231
 1537TIP3   OH2 4574   1.360   1.773   3.511 -0.1333  0.3567  0.1240
 1537TIP3    H1 4575   1.373   1.835   3.439  0.9695 -0.1277 -0.1026
 1537TIP3    H2 4576   1.430   1.708   3.501 -0.4758 -0.1952  1.1345
 1538TIP3   OH2 4577   6.255   0.124   3.845  0.0724 -0.4389  0.5906
 1538TIP3    H1 4578   6.177   0.137   3.899 -0.0857  0.0745  0.2438
 1538TIP3    H2 4579   6.249   0.191   3.777  0.2916 -1.0493 -0.0417
 1539TIP3   OH2 4580   5.623   6.532   4.803  0.2151  0.3761 -0.5971
 1539TIP3    H1 4581   5.638   6.591   4.877  1.6167  0.1323 -0.6539
 1539TIP3    H2 4582   5.542   6.486   4.824  1.9919 -1.7628  2.2345
 1540TIP3   OH2 4583   5.809   4.668   1.009 -0.1317  0.5217 -0.5945
 1540TIP3    H1 4584   5.744   4.725   1.051  0.5972  0.1618  1.0821
 1540TIP3    H2 4585   5.778   4.661   0.918 -0.5197  3.1563 -0.7594
 1541TIP3   OH2 4586   0.047   5.813   1.194  0.1265  0.5339 -0.1987
 1541TIP3    H1 4587   0.111   5.801   1.124  0.5740 -0.1289  0.3134
 1541TIP3    H2 4588  -0.033   5.771   1.160  0.3170  0.2852 -0.3448
 1542TIP3   OH2 4589   5.911   4.371   0.944  0.1316 -0.0370  0.0613
 1542TIP3    H1 4590   5.898   4.337   1.033 -0.8031 -0.2239 -0.1366
 1542TIP3    H2 4591   5.891   4.464   0.951  1.3147  0.2161  0.3049
 1543TIP3   OH2 4592   5.884   1.570   2.646  0.2402  0.2885 -0.4827
 1543TIP3    H1 4593   5.813   1.617   2.604 -1.1710 -1.0198  0.3290
 1543TIP3    H2 4594   5.842   1.521   2.717  1.6998 -1.6918 -0.8972
 1544TIP3   OH2 4595   0.064   4.286   0.477  0.1769 -0.1162 -0.2424
 1544TIP3    H1 4596   0.056   4.246   0.563  0.2651 -1.8914 -1.0045
 1544TIP3    H2 4597  -0.010   4.346   0.471 -2.4968 -3.1574 -0.5133
 1545TIP3   OH2 4598   4.321   6.117   2.638 -0.2449  0.5309 -0.3734
 1545TIP3    H1 4599   4.384   6.152   2.575 -0.9574  0.6554 -1.0312
 1545TIP3    H2 4600   4.284   6.194   2.681 -1.3954  0.5864 -1.4157
 1546TIP3   OH2 4601   6.014   3.137   4.154 -0.4789 -0.1916 -0.0426
 1546TIP3    H1 4602   6.018   3.163   4.062 -0.3866 -0.8382 -0.2282
 1546TIP3    H2 4603   5.944   3.191   4.191 -0.1774  0.4350 -0.3658
 1547TIP3   OH2 4604   6.245   1.059   0.140  0.3186 -0.5531 -0.1759
 1547TIP3    H1 4605   6.160   1.072   0.181  0.0590 -1.0445 -0.5509
 1547TIP3    H2 4606   6.264   1.142   0.095 -0.0461 -0.5060 -0.2415
 1548TIP3   OH2 4607   6.582   3.797   3.923  0.2756  0.1947  0.1210
 1548TIP3    H1 4608   6.542   3.714   3.898 -0.4370  0.7045 -0.4628
 1548TIP3    H2 4609   6.542   3.819   4.007  0.5542 -0.1001  0.3356
 1549TIP3   OH2 4610   4.961   5.374   4.440 -0.3179  0.5160 -0.8148
 1549TIP3    H1 4611   4.994   5.421   4.516 -1.3418  0.5828 -0.4008
 1549TIP3    H2 4612   4.880   5.419   4.417 -1.5578 -1.2724 -0.1471
 1550TIP3   OH2 4613   1.945   1.693   4.083  0.1689  0.0350 -0.0779
 1550TIP3    H1 4614   1.926   1.669   4.174 -1.6813 -1.5570 -0.8204
 1550TIP3    H2 4615   2.032   1.656   4.067 -0.7201 -2.3594  0.1950
 1551TIP3   OH2 4616   3.033   1.789   2.237  0.3694 -0.2459 -1.2065
 1551TIP3    H1 4617   2.970   1.734   2.189 -0.3841  0.8021 -1.4523
 1551TIP3    H2 4618   3.098   1.727   2.270 -0.8401 -1.3940 -0.8598
 1552TIP3   OH2 4619   4.962   0.893   5.350  0.5139 -0.5311 -0.4503
 1552TIP3    H1 4620   4.969   0.935   5.436  0.0876  0.5476 -0.9261
 1552TIP3    H2 4621   4.875   0.916   5.319  0.6932 -0.8480 -1.2129
 1553TIP3   OH2 4622   0.009   4.777   0.961  0.0661 -0.7870  0.6823
 1553TIP3    H1 4623  -0.022   4.701   0.912  2.0235 -0.6972 -0.8278
 1553TIP3    H2 4624   0.077   4.742   1.019  1.8731 -0.0914 -0.9195
 1554TIP3   OH2 4625   3.955   3.664   1.237  0.8367 -0.1754 -0.6732
 1554TIP3    H1 4626   3.889   3.725   1.271  1.6777 -1.2285  3.3892
 1554TIP3    H2 4627   4.038   3.710   1.247  1.4407 -1.5987  2.0902
 1555TIP3   OH2 4628   4.320   4.718   0.933 -0.1818 -0.0616 -0.8695
 1555TIP3    H1 4629   4.272   4.796   0.908  1.6013  1.0107 -1.0859
 1555TIP3    H2 4630   4.336   4.728   1.027 -1.4973 -1.0753 -0.5040
 1556TIP3   OH2 4631   3.609   0.647   3.796 -0.0757  0.8197 -0.7241
 1556TIP3    H1 4632   3.543   0.686   3.738 -1.2413 -0.6675 -0.4579
 1556TIP3    H2 4633   3.563   0.576   3.841  1.7604 -0.3743 -0.6257
 1557TIP3   OH2 4634   4.425   2.560   2.627 -0.1316 -0.1947 -0.1021
 1557TIP3    H1 4635   4.481   2.522   2.560  1.5930 -0.1457  1.2345
 1557TIP3    H2 4636   4.458   2.649   2.639 -1.8536  0.5719 -0.7167
 1558TIP3   OH2 4637   0.757   4.336   2.926 -0.3088  0.2744  0.3054
 1558TIP3    H1 4638   0.704   4.415   2.941 -0.1885  0.3684  0.2374
 1558TIP3    H2 4639   0.816   4.360   2.855 -0.1054  0.2029  0.4477
 1559TIP3   OH2 4640   3.280   2.398   4.691  0.4316 -0.4126  0.1947
 1559TIP3    H1 4641   3.271   2.317   4.643  0.5092 -0.0451 -0.4453
 1559TIP3    H2 4642   3.316   2.461   4.628 -0.6944  0.4256  0.3617
 1560TIP3   OH2 4643   0.163   4.065   1.777 -0.5756  0.5180  0.3882
 1560TIP3    H1 4644   0.253   4.032   1.776 -0.8319 -0.2582 -1.9873
 1560TIP3    H2 4645   0.124   4.032   1.697 -3.0813  0.6623  1.4486
 1561TIP3   OH2 4646   0.814   4.353   1.992 -0.3748  0.1816  0.5442
 1561TIP3    H1 4647   0.801   4.411   2.067 -0.3268  2.7418 -1.2793
 1561TIP3    H2 4648   0.770   4.399   1.919 -0.1843 -2.0319 -1.0606
 1562TIP3   OH2 4649   1.645   4.901   3.904  0.5662 -0.3238 -0.9994
 1562TIP3    H1 4650   1.630   4.856   3.820  0.3233 -0.9815 -0.6073
 1562TIP3    H2 4651   1.655   4.830   3.967  1.8616  0.1425 -0.6488
 1563TIP3   OH2 4652   3.006   2.911   0.291  0.2196 -0.4859 -0.4142
 1563TIP3    H1 4653   3.074   2.905   0.358 -1.1568 -2.9637  0.8830
 1563TIP3    H2 4654   3.026   2.839   0.231 -1.0312 -1.0173 -0.2110
 1564TIP3   OH2 4655   0.594   2.070   1.420 -0.2837 -0.1456 -0.1884
 1564TIP3    H1 4656   0.587   2.038   1.330  0.5167  0.1253 -0.3496
 1564TIP3    H2 4657   0.584   1.992   1.474  1.3706 -0.6451 -0.5702
 1565TIP3   OH2 4658   5.056   6.602   1.201  0.3546 -0.3919  0.2353
 1565TIP3    H1 4659   5.016   6.681   1.239 -0.1775 -0.7870  0.5087
 1565TIP3    H2 4660   5.006   6.530   1.239  0.3501 -0.8324 -0.6031
 1566TIP3   OH2 4661   6.205   3.464   0.416 -0.0243 -0.1367  0.1760
 1566TIP3    H1 4662   6.156   3.420   0.485 -0.7191  1.6672  0.8850
 1566TIP3    H2 4663   6.142   3.479   0.347 -0.1272  0.8412  0.4650
 1567TIP3   OH2 4664   1.454   4.273   5.816  0.1739  0.0629 -0.5619
 1567TIP3    H1 4665   1.368   4.232   5.804 -0.2161  1.2722 -2.1822
 1567TIP3    H2 4666   1.448   4.318   5.900  0.1476 -1.9830  0.6018
 1568TIP3   OH2 4667   7.137   2.368   5.722 -0.2117 -0.3424  0.1530
 1568TIP3    H1 4668   7.194   2.424   5.669  1.5443 -3.9377 -2.1356
 1568TIP3    H2 4669   7.048   2.394   5.699  0.5100  1.6372 -0.5556
 1569TIP3   OH2 4670   1.615   3.026   2.088  0.3185  0.2232 -0.7069
 1569TIP3    H1 4671   1.617   3.009   2.182 -1.8756  0.6436 -0.5149
 1569TIP3    H2 4672   1.706   3.017   2.059  0.7624 -1.9004  1.0842
 1570TIP3   OH2 4673   7.066   6.459   3.789  0.3461 -0.3817 -0.3257
 1570TIP3    H1 4674   7.043   6.452   3.696 -2.5779  0.0675  0.2867
 1570TIP3    H2 4675   7.102   6.547   3.798  0.8794 -0.5172 -1.0644
 1571TIP3   OH2 4676   4.927   1.068   4.581 -0.1213 -0.0926 -0.3071
 1571TIP3    H1 4677   5.011   1.026   4.601  1.4875  1.2884 -3.5449
 1571TIP3    H2 4678   4.912   1.126   4.656  1.7916 -0.4364  0.4168
 1572TIP3   OH2 4679   1.435   6.640   4.922 -0.0098 -0.2921 -0.2276
 1572TIP3    H1 4680   1.490   6.646   4.844  1.1893  0.0327  0.6205
 1572TIP3    H2 4681   1.348   6.664   4.891  0.8518  2.1318 -1.0626
 1573TIP3   OH2 4682   1.720   2.484   4.054 -0.4246  0.0718  0.1374
 1573TIP3    H1 4683   1.765   2.435   3.985  0.0793  0.4825  0.1668
 1573TIP3    H2 4684   1.645   2.524   4.011 -0.1514  0.2707 -0.1592
 1574TIP3   OH2 4685   3.504   6.550   3.191  0.4724  0.2873  0.1959
 1574TIP3    H1 4686   3.586   6.600   3.185  0.9978 -0.4662  0.9106
 1574TIP3    H2 4687   3.473   6.544   3.101 -0.7723  3.7640  0.2355
 1575TIP3   OH2 4688   5.302   2.400   0.834 -0.1530  0.4598  0.0766
 1575TIP3    H1 4689   5.376   2.343   0.854 -0.4790  0.5039  1.5277
 1575TIP3    H2 4690   5.268   2.368   0.750  1.4408  0.3900 -0.5653
 1576TIP3   OH2 4691   6.101   2.488   1.994 -0.2615  0.3980 -0.4551
 1576TIP3    H1 4692   6.119   2.443   2.077 -0.3731  1.5845  0.2405
 1576TIP3    H2 4693   6.007   2.507   1.997  0.0799  2.1665  0.0730
 1577TIP3   OH2 4694   1.642   2.781   0.625  0.3735  0.0199 -0.1179
 1577TIP3    H1 4695   1.647   2.875   0.643 -1.3462  0.5167 -1.9493
 1577TIP3    H2 4696   1.553   2.756   0.651 -0.3215 -0.3550 -2.6122
 1578TIP3   OH2 4697   0.026   4.557   0.138 -0.3149  0.1663 -0.2604
 1578TIP3    H1 4698   0.063   4.474   0.110  0.8404  0.6722 -0.2947
 1578TIP3    H2 4699   0.090   4.592   0.200 -1.8300  0.0276  1.4545
 1579TIP3   OH2 4700   6.574   0.308   1.308  0.0877 -0.5145 -0.2865
 1579TIP3    H1 4701   6.518   0.262   1.245 -0.3490  0.1104 -0.3666
 1579TIP3    H2 4702   6.516   0.373   1.348 -0.1138 -2.0253  2.0400
 1580TIP3   OH2 4703   1.375   0.779   2.822  0.3596  0.2343  0.6503
 1580TIP3    H1 4704   1.319   0.709   2.788 -0.3035  1.1050 -0.0681
 1580TIP3    H2 4705   1.410   0.743   2.904 -1.0415 -0.4196  0.9945
 1581TIP3   OH2 4706   2.065   0.222   5.228 -0.6993 -0.2509  0.1744
 1581TIP3    H1 4707   2.141   0.280   5.228  0.3696 -1.5933  0.2839
 1581TIP3    H2 4708   2.010   0.255   5.299 -0.1714  0.6826  0.1636
 1582TIP3   OH2 4709   1.164   2.204   4.294  0.5042  0.3776  0.2719
 1582TIP3    H1 4710   1.082   2.216   4.247 -0.8935  1.0325  2.6868
 1582TIP3    H2 4711   1.159   2.115   4.329  2.2570 -0.7156 -1.9581
 1583TIP3   OH2 4712   5.102   1.082   2.131 -0.5224 -0.4505 -0.8018
 1583TIP3    H1 4713   5.110   1.169   2.170 -0.2369 -0.5849 -0.5494
 1583TIP3    H2 4714   5.028   1.088   2.070 -1.8951 -0.6080  0.7802
 1584TIP3   OH2 4715   7.107   2.446   0.612  0.4959 -0.3826  0.7056
 1584TIP3    H1 4716   7.013   2.438   0.594  0.4967 -1.5530  1.1549
 1584TIP3    H2 4717   7.138   2.510   0.547 -0.2897 -1.2816 -0.6192
 1585TIP3   OH2 4718   4.470   2.459   2.885  0.1371 -0.1484 -0.3500
 1585TIP3    H1 4719   4.450   2.494   2.799 -1.3361 -0.3386 -0.1032
 1585TIP3    H2 4720   4.498   2.369   2.868  1.3598  0.2753 -0.7389
 1586TIP3   OH2 4721   0.473   3.094   1.848  0.3848  0.1624 -0.3600
 1586TIP3    H1 4722   0.389   3.063   1.814  1.1833  0.1847 -2.5493
 1586TIP3    H2 4723   0.504   3.023   1.904 -1.4281  0.5053  1.1530
 1587TIP3   OH2 4724   6.624   2.161   1.813 -0.2569  0.0259  0.1330
 1587TIP3    H1 4725   6.670   2.219   1.874  0.8486 -0.3663 -0.3006
 1587TIP3    H2 4726   6.582   2.095   1.869  0.2341  0.0309  0.5064
 1588TIP3   OH2 4727   5.212   0.585   3.932  0.3222  0.2378  0.3286
 1588TIP3    H1 4728   5.254   0.554   4.012  1.0180 -1.7438 -0.7368
 1588TIP3    H2 4729   5.281   0.583   3.866 -1.2556 -3.2501 -1.5153
 1589TIP3   OH2 4730   6.735   5.409   1.250 -0.4235 -0.3168  0.5285
 1589TIP3    H1 4731   6.780   5.329   1.225  0.2254  0.1967  0.0097
 1589TIP3    H2 4732   6.668   5.422   1.183  0.4109  0.3217 -0.2135
 1590TIP3   OH2 4733   5.037   2.612   3.518 -0.0956  0.5400 -0.1694
 1590TIP3    H1 4734   4.966   2.671   3.492  0.5209  0.4185 -2.3054
 1590TIP3    H2 4735   5.115   2.649   3.478  1.0915  0.6124  2.0622
 1591TIP3   OH2 4736   6.555   4.323   4.288  0.1693  0.5033  0.1997
 1591TIP3    H1 4737   6.596   4.408   4.271  0.8946  0.4725  1.6578
 1591TIP3    H2 4738   6.475   4.324   4.236  0.8557  1.5106 -0.8949
 1592TIP3   OH2 4739   0.317   4.646   3.962  0.4284  0.3102 -0.5206
 1592TIP3    H1 4740   0.288   4.657   3.872  0.9832  0.1016 -0.7291
 1592TIP3    H2 4741   0.280   4.562   3.989 -1.3345  1.2445  0.0904
 1593TIP3   OH2 4742   1.729   0.768   0.673  0.3628 -0.9379 -0.3232
 1593TIP3    H1 4743   1.737   0.680   0.636 -0.2192 -0.9811 -0.3565
 1593TIP3    H2 4744   1.637   0.791   0.660  0.3047 -0.6786  0.4872
 1594TIP3   OH2 4745   1.963   5.025   5.519 -0.2380  0.6695 -0.3188
 1594TIP3    H1 4746   2.011   4.942   5.530 -2.1816 -0.3139  1.5416
 1594TIP3    H2 4747   2.006   5.085   5.579  0.0767  0.4593 -0.3306
 1595TIP3   OH2 4748   2.970   1.508   0.479  0.4982  0.6388  0.3776
 1595TIP3    H1 4749   2.964   1.417   0.449  1.0589  0.3516  1.1002
 1595TIP3    H2 4750   2.898   1.553   0.435 -1.7350 -0.8148  2.3614
 1596TIP3   OH2 4751   0.316   0.300   5.130  0.1716  0.0848  0.3296
 1596TIP3    H1 4752   0.300   0.354   5.207  0.1322  1.3231 -0.5112
 1596TIP3    H2 4753   0.403   0.263   5.143  0.5542  1.0332  0.5524
 1597TIP3   OH2 4754   0.347   4.320   1.213 -0.1058  0.1275  0.0684
 1597TIP3    H1 4755   0.434   4.314   1.174 -0.8152 -0.7363 -1.4609
 1597TIP3    H2 4756   0.288   4.333   1.139 -1.3350  0.3209  1.0430
 1598TIP3   OH2 4757   1.060   4.634   0.361 -0.0263 -0.4543 -0.0520
 1598TIP3    H1 4758   1.027   4.648   0.450  2.0183 -2.2113  1.1064
 1598TIP3    H2 4759   1.027   4.547   0.337 -0.4396 -0.0549 -0.9569
 1599TIP3   OH2 4760   6.772   6.084   2.813 -0.5685 -0.1221  0.2728
 1599TIP3    H1 4761   6.748   6.046   2.728 -0.3935  1.3706 -0.4758
 1599TIP3    H2 4762   6.701   6.144   2.833  0.3898  1.0856  0.1548
 1600TIP3   OH2 4763   4.639   2.543   1.275 -0.0015 -0.1783 -0.2089
 1600TIP3    H1 4764   4.720   2.515   1.318 -0.3291 -1.4843 -0.3801
 1600TIP3    H2 4765   4.583   2.465   1.278 -0.6974  0.2585 -1.3990
 1601TIP3   OH2 4766   2.296   5.914   3.222  0.0377 -0.3369 -0.0938
 1601TIP3    H1 4767   2.274   5.930   3.130  0.1897 -1.4442 -0.3322
 1601TIP3    H2 4768   2.301   5.819   3.229  1.5757 -0.2239  0.6935
 1602TIP3   OH2 4769   5.431   0.652   1.265  0.1551 -0.2740  0.0119
 1602TIP3    H1 4770   5.403   0.564   1.241  2.8189 -1.7112  1.7819
 1602TIP3    H2 4771   5.509   0.669   1.212  0.4849  0.4430  0.6984
 1603TIP3   OH2 4772   0.592   6.728   3.012 -0.5764  0.2334 -0.1368
 1603TIP3    H1 4773   0.688   6.726   3.016 -0.5270  0.4898 -1.0057
 1603TIP3    H2 4774   0.565   6.637   3.028 -0.1496  0.0186 -0.6141
 1604TIP3   OH2 4775   6.282   4.142   5.753  0.6334  0.5439  0.6168
 1604TIP3    H1 4776   6.323   4.163   5.670 -0.3833  1.8715  0.4226
 1604TIP3    H2 4777   6.210   4.083   5.730 -0.3222  1.7718  0.4062
 1605TIP3   OH2 4778   5.058   6.442   3.633 -0.1290 -0.6190  0.0094
 1605TIP3    H1 4779   5.153   6.444   3.622 -0.1755  0.2991 -0.2895
 1605TIP3    H2 4780   5.024   6.412   3.548 -0.0963 -1.1285  0.1768
 1606TIP3   OH2 4781   2.452   4.249   2.949  0.4233  0.3770 -0.1650
 1606TIP3    H1 4782   2.500   4.176   2.908 -0.3377 -0.6814  0.7630
 1606TIP3    H2 4783   2.406   4.291   2.876  0.0490 -0.7183 -0.5910
 1607TIP3   OH2 4784   4.733   3.443   3.092 -0.3579 -0.1087 -0.0926
 1607TIP3    H1 4785   4.680   3.517   3.063 -0.7546  0.8689  2.7934
 1607TIP3    H2 4786   4.690   3.366   3.055 -1.7562  0.8919 -0.6123
 1608TIP3   OH2 4787   1.670   3.713   3.209 -0.2510 -0.0254 -0.7671
 1608TIP3    H1 4788   1.578   3.691   3.194  0.1885 -1.1490 -2.0369
 1608TIP3    H2 4789   1.674   3.808   3.202 -1.2721  0.0123 -0.9472
 1609TIP3   OH2 4790   0.751   3.600   2.956 -0.4984  0.2668 -0.1721
 1609TIP3    H1 4791   0.709   3.670   2.906 -1.0532  0.1566  0.1412
 1609TIP3    H2 4792   0.682   3.562   3.009 -0.4841 -1.2885 -1.1648
 1610TIP3   OH2 4793   5.878   1.504   4.411  0.3038  0.0664  0.2030
 1610TIP3    H1 4794   5.892   1.533   4.321 -1.3415  0.6967  0.1207
 1610TIP3    H2 4795   5.863   1.409   4.404 -0.7529  0.2612 -0.3171
 1611TIP3   OH2 4796   5.701   0.936   2.576  0.1794 -0.5545  0.3900
 1611TIP3    H1 4797   5.608   0.920   2.592 -0.0496  2.1056  2.2275
 1611TIP3    H2 4798   5.746   0.881   2.640 -0.1288 -1.1157  0.1388
 1612TIP3   OH2 4799   6.878   4.122   0.864  0.1310 -0.0249 -0.5276
 1612TIP3    H1 4800   6.841   4.074   0.939  0.0128 -0.1492 -0.6656
 1612TIP3    H2 4801   6.812   4.113   0.795  0.8863 -1.1521 -1.1222
 1613TIP3   OH2 4802   0.665   0.615   1.382  0.0808 -0.5119  0.3163
 1613TIP3    H1 4803   0.708   0.575   1.306 -0.6199  0.1132 -0.4452
 1613TIP3    H2 4804   0.571   0.611   1.361 -0.0961  0.0784  0.9370
 1614TIP3   OH2 4805   5.960   2.397   0.634  0.0600  0.1410 -0.5088
 1614TIP3    H1 4806   5.883   2.340   0.639 -0.4883  0.7774 -1.3316
 1614TIP3    H2 4807   5.925   2.485   0.645  0.8218  0.3679  0.1776
 1615TIP3   OH2 4808   2.418   0.690   0.739 -0.3378 -0.5453 -0.0225
 1615TIP3    H1 4809   2.476   0.622   0.774 -1.0578 -1.3878 -0.4317
 1615TIP3    H2 4810   2.331   0.652   0.742 -0.9434  0.8215  0.8527
 1616TIP3   OH2 4811   5.519   3.890   1.213 -0.0605  0.4745 -0.2318
 1616TIP3    H1 4812   5.534   3.834   1.289 -0.5038  1.4238  0.5780
 1616TIP3    H2 4813   5.441   3.940   1.235  1.1750  2.5243 -0.2312
 1617TIP3   OH2 4814   0.799   5.303   5.381  0.0576  0.0548 -0.0632
 1617TIP3    H1 4815   0.835   5.347   5.458 -1.5615  0.7274  0.3412
 1617TIP3    H2 4816   0.723   5.255   5.413  1.5942 -2.9268 -0.5487
 1618TIP3   OH2 4817   2.123   4.797   1.348 -0.1756  0.4175  0.0921
 1618TIP3    H1 4818   2.029   4.790   1.331 -0.1483 -0.3812  0.2413
 1618TIP3    H2 4819   2.131   4.794   1.443  0.0769 -0.7670  0.0553
 1619TIP3   OH2 4820   3.648   3.146   0.843  0.5646 -0.3791 -0.3405
 1619TIP3    H1 4821   3.712   3.105   0.785  0.8694  0.1927 -0.4180
 1619TIP3    H2 4822   3.701   3.197   0.905  0.2904 -1.5576  0.9185
 1620TIP3   OH2 4823   5.347   3.644   2.412  0.6372  0.0948 -0.3106
 1620TIP3    H1 4824   5.401   3.680   2.482  0.8531 -0.7833 -0.0139
 1620TIP3    H2 4825   5.257   3.657   2.441  0.7301 -0.7686  0.4017
 1621TIP3   OH2 4826   1.453   2.386   2.137  0.1357 -0.2507 -0.1851
 1621TIP3    H1 4827   1.438   2.382   2.043  2.5524  1.9133 -0.7771
 1621TIP3    H2 4828   1.374   2.428   2.172  0.1087  0.9459 -1.5708
 1622TIP3   OH2 4829   3.394   5.450   5.678  0.2112  0.1428  0.1290
 1622TIP3    H1 4830   3.446   5.455   5.758 -0.0507 -1.7013  0.4570
 1622TIP3    H2 4831   3.376   5.356   5.666  0.7007  0.2906 -2.3922
 1623TIP3   OH2 4832   5.068   4.947   5.417  0.0004  0.2980  0.1790
 1623TIP3    H1 4833   5.107   4.893   5.487 -0.0451 -1.2117 -0.9143
 1623TIP3    H2 4834   5.079   5.037   5.448 -1.3276 -0.3357  2.8353
 1624TIP3   OH2 4835   3.547   3.544   1.243  0.2968  0.3993  0.1109
 1624TIP3    H1 4836   3.545   3.559   1.148 -0.7210 -0.6113 -0.0489
 1624TIP3    H2 4837   3.624   3.489   1.257 -0.2387 -0.4969 -0.3256
 1625TIP3   OH2 4838   7.015   3.219   1.819  0.2966 -0.0740 -0.5356
 1625TIP3    H1 4839   7.073   3.168   1.876  0.1488  0.3748  0.0273
 1625TIP3    H2 4840   6.927   3.196   1.847  0.1896 -0.8236 -1.4526
 1626TIP3   OH2 4841   2.458   4.546   3.148  0.5275 -0.4647 -0.4907
 1626TIP3    H1 4842   2.521   4.610   3.179  0.4569 -1.2381  1.3766
 1626TIP3    H2 4843   2.510   4.469   3.125  0.2425 -1.9322  3.1789
 1627TIP3   OH2 4844   6.400   1.795   2.208  0.7555  0.7250 -0.5798
 1627TIP3    H1 4845   6.422   1.783   2.300  1.9069  2.2583 -0.6281
 1627TIP3    H2 4846   6.313   1.835   2.209 -0.1046 -1.0163 -0.2658
 1628TIP3   OH2 4847   3.107   3.062   1.724  0.5596 -0.1691  0.4101
 1628TIP3    H1 4848   3.177   3.108   1.676 -0.1703 -0.3031 -0.8044
 1628TIP3    H2 4849   3.062   3.132   1.773  0.5843  0.1416 -0.0080
 1629TIP3   OH2 4850   2.905   3.996   2.598  0.2790  0.2774 -0.0600
 1629TIP3    H1 4851   2.868   3.913   2.570  2.6207 -0.9684  0.2823
 1629TIP3    H2 4852   2.885   4.001   2.692 -0.5441  0.5022 -0.2426
 1630TIP3   OH2 4853   6.856   3.419   0.245 -0.2180 -0.4397  0.1583
 1630TIP3    H1 4854   6.817   3.401   0.330 -0.4090 -0.8044 -0.0055
 1630TIP3    H2 4855   6.869   3.333   0.206  0.5512 -0.3146  0.1201
 1631TIP3   OH2 4856   5.429   4.187   5.696 -0.2535  0.0405 -0.4453
 1631TIP3    H1 4857   5.389   4.233   5.770 -0.0789 -1.3397  0.5497
 1631TIP3    H2 4858   5.503   4.243   5.670  0.2093  0.1444  0.9951
 1632TIP3   OH2 4859   6.071   4.207   0.013 -0.1695 -0.7831  0.2129
 1632TIP3    H1 4860   6.118   4.290   0.016 -1.0002 -0.3139  0.7045
 1632TIP3    H2 4861   6.120   4.149   0.071 -1.2820  0.3073  2.3702
 1633TIP3   OH2 4862   6.950   5.521   2.271  0.3176  0.4785  0.2308
 1633TIP3    H1 4863   6.867   5.514   2.319 -0.1739  0.5570 -0.5769
 1633TIP3    H2 4864   6.935   5.593   2.210  1.1017  0.7010  0.3002
 1634TIP3   OH2 4865   6.576   3.020   4.990 -0.5550  0.1523  0.3925
 1634TIP3    H1 4866   6.508   2.953   4.991  0.3900 -0.8673 -0.5569
 1634TIP3    H2 4867   6.537   3.093   4.942 -1.7094  0.4560  1.7260
 1635TIP3   OH2 4868   4.892   5.410   3.494  0.1673 -0.4119  0.1100
 1635TIP3    H1 4869   4.914   5.325   3.533 -3.1621 -1.9397 -0.9544
 1635TIP3    H2 4870   4.951   5.417   3.418  0.2989 -1.9290  0.0365
 1636TIP3   OH2 4871   2.876   0.897   1.193  0.3181 -0.3241  0.5369
 1636TIP3    H1 4872   2.958   0.859   1.163 -0.0341 -0.2707 -0.5475
 1636TIP3    H2 4873   2.895   0.930   1.281  1.5864  0.1217  0.1100
 1637TIP3   OH2 4874   2.109   1.136   1.613  0.1418 -0.3368  0.0181
 1637TIP3    H1 4875   2.195   1.117   1.575 -0.6405 -0.6224 -1.6775
 1637TIP3    H2 4876   2.100   1.231   1.608  1.0321 -0.1030  1.8100
 1638TIP3   OH2 4877   2.650   3.416   4.774 -0.1957  0.1187  0.3606
 1638TIP3    H1 4878   2.650   3.511   4.767  0.3565  0.4520  3.3892
 1638TIP3    H2 4879   2.736   3.389   4.741  0.3275  0.8901  1.0368
 1639TIP3   OH2 4880   2.278   3.713   4.176  0.2257  0.1714  0.8555
 1639TIP3    H1 4881   2.320   3.749   4.254 -0.2176  1.8219  0.3749
 1639TIP3    H2 4882   2.186   3.739   4.184 -0.4465 -2.1126  1.1640
 1640TIP3   OH2 4883   1.746   4.562   1.893  0.5261 -0.0971  0.3129
 1640TIP3    H1 4884   1.748   4.478   1.847  0.0020  0.4557 -0.7485
 1640TIP3    H2 4885   1.657   4.595   1.880  0.6198  0.4638  1.0197
 1641TIP3   OH2 4886   3.454   3.513   2.993 -0.3874  0.3145  0.0497
 1641TIP3    H1 4887   3.391   3.541   2.927 -1.1470  1.5698  1.2719
 1641TIP3    H2 4888   3.479   3.593   3.038 -0.8787 -0.6443  2.1493
 1642TIP3   OH2 4889   1.296   2.478   5.373 -0.0953 -0.0702  0.2115
 1642TIP3    H1 4890   1.358   2.471   5.445  1.0999  0.9742 -0.6723
 1642TIP3    H2 4891   1.279   2.572   5.365  1.4298  0.0968 -2.1446
 1643TIP3   OH2 4892   5.957   5.163   0.551 -0.4660 -0.3475  0.1913
 1643TIP3    H1 4893   5.997   5.238   0.594  1.1348 -1.5180  0.8611
 1643TIP3    H2 4894   6.014   5.090   0.573 -1.3261 -1.5613 -1.4017
 1644TIP3   OH2 4895   5.979   1.187   0.170  0.1397  0.6138 -0.1295
 1644TIP3    H1 4896   6.030   1.265   0.190  0.9801  0.4122 -1.3786
 1644TIP3    H2 4897   5.943   1.203   0.083  0.4450 -0.4407 -0.4674
 1645TIP3   OH2 4898   2.688   2.051   5.264  0.5440 -0.5168  0.1941
 1645TIP3    H1 4899   2.708   2.113   5.193  2.1928 -1.2788 -0.0536
 1645TIP3    H2 4900   2.695   2.103   5.344 -1.1150  0.2980 -0.1401
 1646TIP3   OH2 4901   6.955   5.592   0.765  0.1593  0.1645 -0.2006
 1646TIP3    H1 4902   6.908   5.662   0.810 -0.9301 -0.5007 -0.2716
 1646TIP3    H2 4903   6.960   5.521   0.830 -0.3228 -0.3383 -0.6991
 1647TIP3   OH2 4904   3.699   0.195   3.140 -0.6807  0.7778  0.2480
 1647TIP3    H1 4905   3.711   0.270   3.197 -1.3962  1.1378 -0.0632
 1647TIP3    H2 4906   3.635   0.224   3.075 -0.0368  0.3122 -0.6164
 1648TIP3   OH2 4907   6.681   5.345   3.729  0.4336 -0.3052 -0.0169
 1648TIP3    H1 4908   6.752   5.281   3.737  0.6844 -0.0544 -0.2317
 1648TIP3    H2 4909   6.723   5.424   3.695  0.0343 -0.1892 -0.2467
 1649TIP3   OH2 4910   1.223   4.734   4.425 -0.1428  0.1675 -0.2862
 1649TIP3    H1 4911   1.209   4.691   4.509 -1.7583  0.7270 -0.2405
 1649TIP3    H2 4912   1.268   4.668   4.371  2.7976  0.4628  1.5863
 1650TIP3   OH2 4913   1.410   2.152   3.736 -0.6573  0.1071  0.1003
 1650TIP3    H1 4914   1.322   2.114   3.734 -0.1329 -1.2811  1.6770
 1650TIP3    H2 4915   1.465   2.087   3.693 -0.5177  1.4845 -1.9508
 1651TIP3   OH2 4916   1.116   3.420   5.051 -0.1583 -0.3199  0.0389
 1651TIP3    H1 4917   1.027   3.456   5.056 -0.0719  0.0200 -0.7738
 1651TIP3    H2 4918   1.106   3.335   5.010  0.0856  0.5156 -1.8322
 1652TIP3   OH2 4919   5.772   0.515   5.621 -0.1223 -0.0666  0.5807
 1652TIP3    H1 4920   5.723   0.463   5.557  0.8113 -0.7894  0.4199
 1652TIP3    H2 4921   5.779   0.602   5.582  0.3958 -0.4877 -0.2936
 1653TIP3   OH2 4922   1.254   2.494   4.045  0.3367 -0.4325  0.6317
 1653TIP3    H1 4923   1.234   2.458   3.959  0.5962  1.0739 -0.0895
 1653TIP3    H2 4924   1.313   2.429   4.085  0.9930 -0.6947 -0.7107
 1654TIP3   OH2 4925   3.562   4.297   3.978  0.0275 -0.1972  0.1807
 1654TIP3    H1 4926   3.481   4.347   3.993 -2.1978 -3.0471 -1.2358
 1654TIP3    H2 4927   3.533   4.219   3.930  3.6477 -1.4890 -0.2088
 1655TIP3   OH2 4928   1.492   5.959   2.840 -0.4717 -0.3648 -0.0100
 1655TIP3    H1 4929   1.508   5.922   2.753  0.5954  1.0513 -0.4564
 1655TIP3    H2 4930   1.407   6.003   2.833  0.0126  0.5011 -0.6261
 1656TIP3   OH2 4931   1.169   3.783   3.192  0.1427 -0.1513 -0.1004
 1656TIP3    H1 4932   1.126   3.797   3.108  1.5160  0.7789 -0.6801
 1656TIP3    H2 4933   1.242   3.724   3.173  0.1153 -0.4117  0.5590
 1657TIP3   OH2 4934   4.583   1.170   2.269 -0.0227  0.6294  0.0948
 1657TIP3    H1 4935   4.506   1.212   2.307  0.5534  2.8113 -1.0142
 1657TIP3    H2 4936   4.547   1.102   2.212 -1.0283  0.2563  1.1384
 1658TIP3   OH2 4937   3.268   1.027   5.484  0.0218  0.1780 -0.2904
 1658TIP3    H1 4938   3.212   1.086   5.433  1.9506  0.0050 -2.7843
 1658TIP3    H2 4939   3.275   0.948   5.430  1.2197 -0.5131  0.8290
 1659TIP3   OH2 4940   4.377   1.870   1.895  0.1705  0.2053  0.4751
 1659TIP3    H1 4941   4.414   1.792   1.936  0.4380 -0.1120 -0.3546
 1659TIP3    H2 4942   4.347   1.841   1.809 -1.5908  0.5651  0.9211
 1660TIP3   OH2 4943   2.314   3.148   2.041  0.4204  0.2575  0.0441
 1660TIP3    H1 4944   2.295   3.230   2.086  2.5003  0.4810  0.6147
 1660TIP3    H2 4945   2.233   3.098   2.047 -0.6122  1.9141  0.4477
 1661TIP3   OH2 4946   6.344   2.843   5.047  0.2551 -0.1396 -0.1930
 1661TIP3    H1 4947   6.301   2.871   4.965  0.1939 -0.7013 -0.3568
 1661TIP3    H2 4948   6.388   2.761   5.024  0.0639 -0.4088  0.3932
 1662TIP3   OH2 4949   5.877   2.966   0.279  0.2545  0.0805 -0.2622
 1662TIP3    H1 4950   5.914   2.900   0.221  1.1375 -0.1063  0.4878
 1662TIP3    H2 4951   5.949   3.027   0.296 -0.4033  0.9644 -0.5353
 1663TIP3   OH2 4952   6.621   3.898   5.184  0.2725  0.2220 -0.5347
 1663TIP3    H1 4953   6.619   3.874   5.276  1.7130 -2.4146 -1.1059
 1663TIP3    H2 4954   6.660   3.985   5.183  0.1152  0.3543  1.3241
 1664TIP3   OH2 4955   2.562   1.962   1.758  0.3702 -0.2117 -0.0787
 1664TIP3    H1 4956   2.502   1.894   1.789  0.4473  0.1006  0.7734
 1664TIP3    H2 4957   2.621   1.978   1.832  1.3396 -0.3126 -0.7989
 1665TIP3   OH2 4958   3.220   4.854   2.152 -0.7364 -0.1520 -0.5789
 1665TIP3    H1 4959   3.302   4.893   2.123  0.0482 -0.6015  0.9866
 1665TIP3    H2 4960   3.162   4.929   2.167 -0.2923  0.2180 -0.6894
 1666TIP3   OH2 4961   5.528   2.919   4.341  0.0909  0.3296 -0.4914
 1666TIP3    H1 4962   5.514   2.830   4.372 -1.2792  0.2613 -1.2070
 1666TIP3    H2 4963   5.519   2.974   4.418  0.0434 -0.0814 -0.2042
 1667TIP3   OH2 4964   4.986   1.744   0.042 -0.2527  0.0103 -0.0415
 1667TIP3    H1 4965   5.079   1.752   0.064 -0.4396  1.0367  0.4318
 1667TIP3    H2 4966   4.953   1.677   0.102 -0.2887  1.2527  1.3839
 1668TIP3   OH2 4967   3.125   0.651   0.018 -0.0226 -0.3704  0.5889
 1668TIP3    H1 4968   3.112   0.701  -0.063 -0.6758 -0.4525  0.6397
 1668TIP3    H2 4969   3.165   0.713   0.078  0.5486 -0.3308  0.1810
 1669TIP3   OH2 4970   7.034   1.677   4.220  0.1297  0.7270  0.4723
 1669TIP3    H1 4971   6.988   1.737   4.278  0.9367  0.9393  0.9139
 1669TIP3    H2 4972   7.112   1.651   4.270 -2.1938 -4.1375  2.1846
 1670TIP3   OH2 4973   0.676   0.259   0.919  0.4001 -0.6581  0.4966
 1670TIP3    H1 4974   0.664   0.241   1.012  0.2055 -3.1598  0.0470
 1670TIP3    H2 4975   0.587   0.260   0.883  0.5333 -0.9437  0.1505
 1671TIP3   OH2 4976   2.525   0.863   4.784 -0.3366  0.2058  0.6514
 1671TIP3    H1 4977   2.567   0.837   4.702 -1.1946  0.6488  0.0555
 1671TIP3    H2 4978   2.435   0.829   4.777 -1.4059  2.8899 -0.0154
 1672TIP3   OH2 4979   6.106   2.672   3.751 -0.0486  0.0285  0.0968
 1672TIP3    H1 4980   6.048   2.642   3.681  0.2032  0.1913 -0.1875
 1672TIP3    H2 4981   6.068   2.754   3.780  0.5902  0.6690 -0.8005
 1673TIP3   OH2 4982   4.715   2.883   3.616  0.6850  0.2747  0.0923
 1673TIP3    H1 4983   4.659   2.961   3.611  0.4552  0.1984  1.2590
 1673TIP3    H2 4984   4.756   2.877   3.529  0.3575  1.4343 -0.1549
 1674TIP3   OH2 4985   2.984   4.418   4.061 -0.1890 -0.4379 -0.2092
 1674TIP3    H1 4986   3.053   4.352   4.062  0.4815  0.2559 -0.1496
 1674TIP3    H2 4987   2.953   4.422   4.151 -1.5806 -2.0334 -0.5533
 1675TIP3   OH2 4988   3.660   5.665   0.130  0.1074 -0.5058 -0.6117
 1675TIP3    H1 4989   3.662   5.738   0.191  3.4147 -0.1236 -1.0175
 1675TIP3    H2 4990   3.604   5.600   0.173  1.4016  0.1716  2.3195
 1676TIP3   OH2 4991   2.699   2.707   5.755 -0.4701 -0.1531  0.1841
 1676TIP3    H1 4992   2.700   2.629   5.810  0.3273  0.5833  1.2510
 1676TIP3    H2 4993   2.611   2.708   5.717 -1.2997 -0.3164  2.0036
 1677TIP3   OH2 4994   4.553   0.734   4.136 -0.2718  0.6603  0.1245
 1677TIP3    H1 4995   4.636   0.765   4.102 -0.0165  0.3964  0.5023
 1677TIP3    H2 4996   4.569   0.715   4.228 -0.1821 -1.3318 -0.2390
 1678TIP3   OH2 4997   6.620   0.701   3.881  0.0851  0.2127 -0.4524
 1678TIP3    H1 4998   6.557   0.772   3.884  0.4003  0.5063 -0.7387
 1678TIP3    H2 4999   6.588   0.637   3.945 -1.6163 -0.5790 -2.0043
 1679TIP3   OH2 5000   4.781   3.541   4.159  0.3166  0.1852 -0.0775
 1679TIP3    H1 5001   4.778   3.628   4.198  2.2633 -0.0694  0.7553
 1679TIP3    H2 5002   4.716   3.491   4.208 -0.0617  0.8973  0.1543
 1680TIP3   OH2 5003   1.100   3.797   2.915  0.3140 -0.3607 -0.4263
 1680TIP3    H1 5004   1.161   3.744   2.864  1.4102  0.8512 -0.4135
 1680TIP3    H2 5005   1.028   3.816   2.854  1.3877  0.6903 -1.4093
 1681TIP3   OH2 5006   0.680   0.785   2.052 -0.8189  0.1991 -0.3255
 1681TIP3    H1 5007   0.692   0.877   2.072  3.6681 -0.4446  1.2219
 1681TIP3    H2 5008   0.716   0.775   1.963 -0.1976 -0.1887 -0.0392
 1682TIP3   OH2 5009   4.063   5.409   0.848 -0.1966  0.0917 -0.0976
 1682TIP3    H1 5010   4.060   5.498   0.813  0.3985 -0.0613 -0.5416
 1682TIP3    H2 5011   4.152   5.399   0.882 -0.2404 -0.3619 -0.1055
 1683TIP3   OH2 5012   2.016   2.019   0.976  0.0639  0.1526 -0.5828
 1683TIP3    H1 5013   2.069   1.955   1.023  0.9660  0.1850 -1.5147
 1683TIP3    H2 5014   1.974   1.968   0.906 -0.5887  0.2560 -0.2660
 1684TIP3   OH2 5015   5.099   3.891   1.591  0.2870  0.6604  0.4618
 1684TIP3    H1 5016   5.011   3.861   1.571  0.5799  1.2556 -2.0032
 1684TIP3    H2 5017   5.134   3.824   1.650 -0.9390 -0.9366 -0.5364
 1685TIP3   OH2 5018   4.971   0.778   1.089 -0.3091  0.3678 -0.0089
 1685TIP3    H1 5019   4.972   0.843   1.020 -2.2517 -0.1686 -0.5832
 1685TIP3    H2 5020   5.004   0.698   1.048  0.2643  0.4874  0.1982
 1686TIP3   OH2 5021   4.354   5.858   5.326 -0.3586  0.0282 -0.1782
 1686TIP3    H1 5022   4.417   5.849   5.397  0.4232  1.2214 -0.6788
 1686TIP3    H2 5023   4.353   5.773   5.284  1.1554  0.0535 -0.3261
 1687TIP3   OH2 5024   2.556   3.047   4.503 -0.0914  0.1092 -0.3208
 1687TIP3    H1 5025   2.565   3.034   4.597 -0.7337  0.4814 -0.2083
 1687TIP3    H2 5026   2.611   3.122   4.484  0.6027 -0.3964 -0.3648
 1688TIP3   OH2 5027   0.047   6.702   0.506  0.4986  0.2065  0.2318
 1688TIP3    H1 5028   0.069   6.688   0.414  1.7152  1.6888  0.2471
 1688TIP3    H2 5029   0.024   6.615   0.539  2.4372 -0.7926 -0.8676
 1689TIP3   OH2 5030   0.960   0.140   5.364  0.0281 -1.1539 -0.4623
 1689TIP3    H1 5031   0.888   0.087   5.398 -0.5880 -0.7520 -1.1091
 1689TIP3    H2 5032   0.917   0.219   5.331  0.8277 -0.6715 -0.3762
 1690TIP3   OH2 5033   3.738   1.676   3.753  0.2876 -0.2279  0.1990
 1690TIP3    H1 5034   3.714   1.589   3.784  0.8382 -1.0303 -1.4916
 1690TIP3    H2 5035   3.833   1.679   3.765  0.2822  0.0984  0.1536
 1691TIP3   OH2 5036   1.197   5.363   2.704 -0.0283 -0.2458 -0.2257
 1691TIP3    H1 5037   1.170   5.441   2.656  1.1644  0.7211  0.6363
 1691TIP3    H2 5038   1.178   5.383   2.796  2.1336 -0.1275  0.2317
 1692TIP3   OH2 5039   0.782   3.501   3.268 -0.9225 -0.0986  0.1036
 1692TIP3    H1 5040   0.845   3.437   3.237 -0.0180  0.8301 -0.0260
 1692TIP3    H2 5041   0.707   3.492   3.208 -0.9472 -1.2276  0.2837
 1693TIP3   OH2 5042   0.363   6.304   5.422  0.3562 -0.6546 -0.4118
 1693TIP3    H1 5043   0.390   6.228   5.371  0.6550 -1.5959  1.1137
 1693TIP3    H2 5044   0.433   6.368   5.409  1.4329 -1.6353  0.4002
 1694TIP3   OH2 5045   0.591   6.121   0.486 -0.2639 -0.1575 -0.1522
 1694TIP3    H1 5046   0.578   6.026   0.479 -0.5715 -0.0537 -1.1016
 1694TIP3    H2 5047   0.686   6.132   0.486 -0.2277 -0.4546 -0.1947
 1695TIP3   OH2 5048   1.490   5.540   5.205  0.1632  0.3058  0.2881
 1695TIP3    H1 5049   1.428   5.543   5.278 -0.3946 -1.3990 -0.0606
 1695TIP3    H2 5050   1.499   5.447   5.185  1.4806  0.6391 -0.8347
 1696TIP3   OH2 5051   1.947   0.754   5.510 -0.0254 -0.6012  0.2341
 1696TIP3    H1 5052   1.890   0.726   5.583 -0.6269  2.3462  1.0091
 1696TIP3    H2 5053   2.035   0.731   5.539 -0.2539  0.5503  1.9599
 1697TIP3   OH2 5054   5.235   1.485   3.239 -0.2761  0.3223  0.6235
 1697TIP3    H1 5055   5.245   1.494   3.144  0.7680  1.1164  0.7896
 1697TIP3    H2 5056   5.322   1.502   3.274 -0.7502  0.5022  1.7630
 1698TIP3   OH2 5057   0.049   5.687   2.908  0.3721  0.2088 -0.6166
 1698TIP3    H1 5058   0.037   5.764   2.964  0.1869  1.5057 -2.3657
 1698TIP3    H2 5059   0.010   5.615   2.958 -1.0228  1.5502  0.3353
 1699TIP3   OH2 5060   0.710   1.574   1.100 -0.0507  0.0338 -0.7492
 1699TIP3    H1 5061   0.676   1.485   1.102  0.7972 -0.3262 -1.3870
 1699TIP3    H2 5062   0.778   1.572   1.032  0.0738  1.1322 -0.6804
 1700TIP3   OH2 5063   6.530   3.671   0.818 -0.1268 -0.2533 -0.5873
 1700TIP3    H1 5064   6.465   3.704   0.756  0.9471 -2.2964 -2.9651
 1700TIP3    H2 5065   6.606   3.728   0.804 -1.1833  2.0314  2.0768
 1701TIP3   OH2 5066   1.664   5.052   2.445 -0.3147  0.0952 -0.1170
 1701TIP3    H1 5067   1.733   5.073   2.383 -1.3382  0.4269 -1.1834
 1701TIP3    H2 5068   1.705   4.994   2.509  0.4388 -1.4304 -1.8970
 1702TIP3   OH2 5069   5.816   1.434   5.232  0.4869 -0.0538  0.5777
 1702TIP3    H1 5070   5.879   1.480   5.176 -0.3094  1.7341  1.1082
 1702TIP3    H2 5071   5.731   1.455   5.194  0.0722 -0.5971  1.1971
 1703TIP3   OH2 5072   0.895   2.825   3.787 -0.0307 -0.3433 -0.1618
 1703TIP3    H1 5073   0.930   2.742   3.818 -1.9788 -1.2703 -0.2420
 1703TIP3    H2 5074   0.821   2.800   3.731 -0.1803  1.4303 -0.8190
 1704TIP3   OH2 5075   3.821   6.466   4.828 -0.2080  0.5406  0.1581
 1704TIP3    H1 5076   3.793   6.378   4.854  1.4462 -0.5489 -1.5132
 1704TIP3    H2 5077   3.915   6.457   4.811  0.3925  3.0843  1.6577
 1705TIP3   OH2 5078   5.755   1.980   5.270  0.3197 -0.7146  0.4008
 1705TIP3    H1 5079   5.667   1.987   5.306  0.2282  0.1374  0.0393
 1705TIP3    H2 5080   5.796   2.065   5.290 -0.1223  0.2635 -2.4949
 1706TIP3   OH2 5081   2.251   4.892   1.600 -0.2523 -0.0549  0.3032
 1706TIP3    H1 5082   2.193   4.914   1.674 -0.6580 -0.1743  0.0257
 1706TIP3    H2 5083   2.308   4.823   1.634 -0.0492  0.2883  0.6813
 1707TIP3   OH2 5084   2.438   1.331   3.593  0.5930  0.8231 -0.1560
 1707TIP3    H1 5085   2.379   1.302   3.524 -1.0186  0.7802  1.1780
 1707TIP3    H2 5086   2.520   1.351   3.548  0.2812 -1.2405 -1.7569
 1708TIP3   OH2 5087   0.508   4.437   3.265  0.2923  0.7689 -0.0678
 1708TIP3    H1 5088   0.596   4.469   3.246  1.0573 -0.9255  0.4335
 1708TIP3    H2 5089   0.474   4.407   3.181  0.6653  0.3380 -0.0674
 1709TIP3   OH2 5090   5.241   6.386   1.954 -0.0430 -0.3123  0.9736
 1709TIP3    H1 5091   5.255   6.453   1.888 -1.5081  0.0387  1.0061
 1709TIP3    H2 5092   5.313   6.399   2.016 -0.4697  1.4265  1.1446
 1710TIP3   OH2 5093   0.971   5.098   0.703 -0.0633  0.1030 -0.2768
 1710TIP3    H1 5094   0.931   5.033   0.644  1.9165  0.0060 -1.6144
 1710TIP3    H2 5095   1.017   5.045   0.769 -2.0669  0.2129  1.2862
 1711TIP3   OH2 5096   0.222   4.303   3.180 -0.3107 -0.1097  0.7711
 1711TIP3    H1 5097   0.162   4.277   3.109 -0.5606  2.5455 -0.1294
 1711TIP3    H2 5098   0.269   4.223   3.202 -1.7211 -1.5159 -0.9344
 1712TIP3   OH2 5099   0.278   2.309   1.988 -0.4752  0.3278  0.2403
 1712TIP3    H1 5100   0.204   2.275   1.938  0.1149  0.2148 -0.5587
 1712TIP3    H2 5101   0.297   2.241   2.053  1.6239 -1.6487 -2.2515
 1713TIP3   OH2 5102   1.695   1.476   3.333 -0.1364  0.1023  0.5910
 1713TIP3    H1 5103   1.740   1.398   3.302  0.6412 -0.4357  2.9155
 1713TIP3    H2 5104   1.606   1.446   3.354 -0.7173  0.5041 -1.1411
 1714TIP3   OH2 5105   3.165   0.916   4.664  0.2682  1.0537  0.1999
 1714TIP3    H1 5106   3.117   0.947   4.741  0.8163  1.7096  0.2825
 1714TIP3    H2 5107   3.161   0.990   4.603 -0.8619  0.2561 -0.7390
 1715TIP3   OH2 5108   4.244   2.024   1.439  0.2932 -0.1538 -0.9453
 1715TIP3    H1 5109   4.192   2.006   1.517  2.0571  0.8605  0.5364
 1715TIP3    H2 5110   4.183   2.067   1.379 -1.1622 -1.1928 -0.2761
 1716TIP3   OH2 5111   5.431   6.245   3.749 -0.2656  0.3422 -0.0107
 1716TIP3    H1 5112   5.501   6.304   3.723  0.0172 -0.0712 -0.1962
 1716TIP3    H2 5113   5.352   6.283   3.712 -0.5715  2.2235  2.3272
 1717TIP3   OH2 5114   0.995   2.587   4.146  0.5316  0.4715 -0.5579
 1717TIP3    H1 5115   1.086   2.560   4.161  0.4100  0.8670  0.9409
 1717TIP3    H2 5116   0.984   2.667   4.196 -0.8505  0.0514 -0.1419
 1718TIP3   OH2 5117   5.268   5.895   1.379 -0.3294  0.7459 -0.8191
 1718TIP3    H1 5118   5.331   5.868   1.312  2.0991  0.4787  1.4302
 1718TIP3    H2 5119   5.215   5.817   1.394  1.1040 -0.1821 -0.3525
 1719TIP3   OH2 5120   1.791   6.549   3.669 -0.4552  0.3725  0.6977
 1719TIP3    H1 5121   1.849   6.494   3.617 -1.8923  0.0810 -0.6420
 1719TIP3    H2 5122   1.848   6.587   3.736  0.6636 -2.5259  1.5684
 1720TIP3   OH2 5123   4.614   1.832   5.314 -0.1259  0.5854  0.1742
 1720TIP3    H1 5124   4.703   1.827   5.279 -0.1359  0.7837  0.1214
 1720TIP3    H2 5125   4.624   1.879   5.397 -0.3466  1.6788 -0.4048
 1721TIP3   OH2 5126   2.623   5.698   2.272 -0.4435 -0.4194 -0.0066
 1721TIP3    H1 5127   2.617   5.790   2.246 -1.5067 -0.3405  0.4825
 1721TIP3    H2 5128   2.708   5.691   2.315 -0.7353  0.5490  0.7688
 1722TIP3   OH2 5129   6.368   4.919   0.586 -0.2071 -0.1840  0.6110
 1722TIP3    H1 5130   6.374   4.829   0.620 -0.4446 -1.1287 -1.6978
 1722TIP3    H2 5131   6.458   4.952   0.591 -0.1735 -0.3819  1.7846
 1723TIP3   OH2 5132   1.701   3.386   3.740 -0.0222 -0.8373 -0.5844
 1723TIP3    H1 5133   1.608   3.389   3.716  0.0906 -0.1498 -0.9692
 1723TIP3    H2 5134   1.710   3.305   3.791 -0.9171 -0.6788 -0.1609
 1724TIP3   OH2 5135   1.248   0.863   0.742 -0.3615  0.1371 -0.0930
 1724TIP3    H1 5136   1.199   0.838   0.820  0.4214  0.5197  0.5347
 1724TIP3    H2 5137   1.183   0.861   0.672 -0.7815 -1.6188  0.2897
 1725TIP3   OH2 5138   6.255   0.520   2.105  0.3353  0.0932  0.2723
 1725TIP3    H1 5139   6.256   0.427   2.084 -0.4425  0.2419 -0.4597
 1725TIP3    H2 5140   6.276   0.524   2.198  2.2453 -0.6790 -0.0947
 1726TIP3   OH2 5141   5.373   5.394   0.909 -0.4388  0.2659 -0.1196
 1726TIP3    H1 5142   5.313   5.450   0.957 -0.9546 -0.5066  0.1460
 1726TIP3    H2 5143   5.424   5.454   0.855 -0.1434  1.1008  1.0710
 1727TIP3   OH2 5144   2.509   4.420   0.409 -0.1048 -0.0343 -0.3446
 1727TIP3    H1 5145   2.594   4.425   0.452 -0.1479  1.7306 -0.3567
 1727TIP3    H2 5146   2.450   4.384   0.475  0.5497 -0.8113 -0.1745
 1728TIP3   OH2 5147   1.937   6.040   5.496 -0.4391  0.2340 -0.0522
 1728TIP3    H1 5148   1.869   6.104   5.473 -0.7818 -0.2944 -0.5650
 1728TIP3    H2 5149   1.985   6.027   5.414 -0.6318 -0.4570 -0.0617
 1729TIP3   OH2 5150   0.998   0.764   1.888 -0.0050 -0.0846  0.1045
 1729TIP3    H1 5151   1.014   0.691   1.948  0.7526  1.6093  2.1015
 1729TIP3    H2 5152   0.908   0.751   1.858 -1.3984  0.1834  3.5888
 1730TIP3   OH2 5153   0.909   4.765   5.341  0.1420 -0.5241 -0.0685
 1730TIP3    H1 5154   0.916   4.846   5.392 -0.6330 -0.0181 -0.7386
 1730TIP3    H2 5155   0.825   4.728   5.366  0.8854 -1.6109  0.9017
 1731TIP3   OH2 5156   3.441   5.045   1.723 -0.5794  0.0438  0.6346
 1731TIP3    H1 5157   3.465   4.955   1.743 -1.3071 -0.2900  0.0805
 1731TIP3    H2 5158   3.357   5.058   1.767  0.6168  1.2460  2.6935
 1732TIP3   OH2 5159   1.058   0.619   2.388 -0.8318 -0.1242  0.1250
 1732TIP3    H1 5160   1.147   0.591   2.365 -0.4383 -0.3527  1.8006
 1732TIP3    H2 5161   1.007   0.538   2.388 -1.6033  0.2486 -2.9342
 1733TIP3   OH2 5162   0.757   0.516   0.805 -0.5934  0.3070 -0.4071
 1733TIP3    H1 5163   0.732   0.436   0.852  0.2468 -0.5306 -1.3356
 1733TIP3    H2 5164   0.697   0.519   0.730  0.1123 -0.0899 -1.0006
 1734TIP3   OH2 5165   1.641   5.859   0.097  0.2074 -0.0693  0.1852
 1734TIP3    H1 5166   1.579   5.804   0.145  1.3704  0.0596  1.8990
 1734TIP3    H2 5167   1.725   5.816   0.107  0.7277  0.7476 -0.5408
 1735TIP3   OH2 5168   5.373   5.854   1.841  0.4837 -0.1072 -0.2459
 1735TIP3    H1 5169   5.322   5.821   1.916 -0.3189  0.0266 -0.7222
 1735TIP3    H2 5170   5.434   5.917   1.880 -0.3299  0.4087  0.2246
 1736TIP3   OH2 5171   3.594   2.799   3.309  0.3069  0.3251  0.2882
 1736TIP3    H1 5172   3.591   2.704   3.323 -0.3975  0.2724 -0.1916
 1736TIP3    H2 5173   3.600   2.836   3.397  1.8320 -0.1923  0.4448
 1737TIP3   OH2 5174   6.963   2.441   4.148 -0.1193  0.2536  0.2415
 1737TIP3    H1 5175   6.961   2.466   4.240 -0.2078  0.8186  0.0932
 1737TIP3    H2 5176   7.050   2.469   4.117  0.4679 -1.1967  0.4824
 1738TIP3   OH2 5177   6.431   1.844   5.342 -0.3844 -0.6444  0.3101
 1738TIP3    H1 5178   6.374   1.876   5.412 -0.2449  3.2890 -1.1612
 1738TIP3    H2 5179   6.403   1.891   5.264  1.9046 -2.0770 -1.5112
 1739TIP3   OH2 5180   4.170   5.002   0.300  0.2794  0.1382  0.2350
 1739TIP3    H1 5181   4.086   5.041   0.276 -0.5831 -1.4346  0.4873
 1739TIP3    H2 5182   4.165   4.994   0.396  0.0769 -1.2225  0.1406
 1740TIP3   OH2 5183   2.874   5.815   1.401  0.2539  0.0463 -0.4684
 1740TIP3    H1 5184   2.901   5.724   1.413 -2.1510 -0.7887 -0.8905
 1740TIP3    H2 5185   2.877   5.852   1.489  2.2326 -0.0849 -0.4270
 1741TIP3   OH2 5186   5.060   5.255   1.032  0.0885  0.0772 -0.5708
 1741TIP3    H1 5187   5.121   5.193   0.992 -0.1892  0.7929 -2.1430
 1741TIP3    H2 5188   5.099   5.341   1.018 -0.1366  0.3753  0.5080
 1742TIP3   OH2 5189   2.589   4.138   3.699  0.6862  0.2415 -0.2691
 1742TIP3    H1 5190   2.676   4.113   3.669  1.0653  2.5838 -1.3490
 1742TIP3    H2 5191   2.534   4.131   3.621  0.4860  1.1856 -0.2285
 1743TIP3   OH2 5192   4.562   0.358   2.214 -0.2655  0.1361  0.3624
 1743TIP3    H1 5193   4.478   0.399   2.236 -0.3365 -0.2868  0.9057
 1743TIP3    H2 5194   4.573   0.289   2.280  1.0544  0.9145  1.0059
 1744TIP3   OH2 5195   2.915   1.870   1.171  0.1095 -0.2598  0.3699
 1744TIP3    H1 5196   2.821   1.866   1.184 -0.2098 -0.6267 -1.6097
 1744TIP3    H2 5197   2.950   1.798   1.224 -1.0007 -1.6061 -0.6246
 1745TIP3   OH2 5198   0.758   0.336   4.943  0.1325 -0.1013  0.6406
 1745TIP3    H1 5199   0.778   0.347   5.036  4.6505 -0.2628 -0.0819
 1745TIP3    H2 5200   0.736   0.425   4.913  0.9949  0.4266  1.4940
 1746TIP3   OH2 5201   5.461   4.881   5.072  0.3846  0.0394 -0.1677
 1746TIP3    H1 5202   5.405   4.917   5.141  0.5096  0.1059 -0.1008
 1746TIP3    H2 5203   5.485   4.793   5.104 -0.5201 -0.3989 -0.6658
 1747TIP3   OH2 5204   0.525   1.918   4.407 -0.4454  0.1253  0.3616
 1747TIP3    H1 5205   0.569   1.832   4.409  0.6799  0.6534 -0.5276
 1747TIP3    H2 5206   0.568   1.968   4.476 -1.5338 -0.1980  1.3072
 1748TIP3   OH2 5207   4.142   5.001   3.471 -0.3435  0.4131  0.8005
 1748TIP3    H1 5208   4.130   4.907   3.471 -1.4007  0.5368  0.7951
 1748TIP3    H2 5209   4.060   5.036   3.506 -1.3712  1.4703 -2.3358
 1749TIP3   OH2 5210   1.080   5.272   1.053  0.3104  0.2149 -0.4178
 1749TIP3    H1 5211   1.083   5.307   1.141  1.2180 -0.7292 -0.0492
 1749TIP3    H2 5212   0.999   5.308   1.015  0.3317  1.2799  0.4990
 1750TIP3   OH2 5213   4.882   3.844   0.699  0.2482 -0.2441  0.0633
 1750TIP3    H1 5214   4.857   3.828   0.790  0.0954  0.0914  0.0821
 1750TIP3    H2 5215   4.842   3.928   0.678  1.0233  0.1138 -0.0284
 1751TIP3   OH2 5216   2.983   5.735   4.382 -0.0203  0.1991 -0.6535
 1751TIP3    H1 5217   2.992   5.716   4.476  1.5700  0.4202 -0.7335
 1751TIP3    H2 5218   2.990   5.650   4.340 -0.2760  0.1519 -0.6029
 1752TIP3   OH2 5219   6.300   2.355   2.462  0.6069 -0.0585 -0.8330
 1752TIP3    H1 5220   6.246   2.276   2.458 -2.9766  2.0895  0.1866
 1752TIP3    H2 5221   6.325   2.362   2.554  0.0208  0.4492 -0.6988
 1753TIP3   OH2 5222   2.156   5.550   0.477 -0.1899  0.4417  0.6355
 1753TIP3    H1 5223   2.189   5.475   0.526  0.7339 -0.5701 -1.4157
 1753TIP3    H2 5224   2.064   5.531   0.462  0.0687 -0.3716  0.0274
 1754TIP3   OH2 5225   0.739   4.776   3.945  0.3688  0.7096  0.1701
 1754TIP3    H1 5226   0.705   4.855   3.987 -0.7537  1.6873 -2.3724
 1754TIP3    H2 5227   0.661   4.727   3.921  1.0375 -0.6815  0.7747
 1755TIP3   OH2 5228   6.669   1.145   2.146 -0.2753 -0.4888  0.1977
 1755TIP3    H1 5229   6.678   1.199   2.068  0.2051  0.1499  0.6932
 1755TIP3    H2 5230   6.581   1.165   2.180 -0.3427 -0.4992  0.0270
 1756TIP3   OH2 5231   5.351   3.946   5.011  0.7102 -0.0541  0.2948
 1756TIP3    H1 5232   5.406   3.880   4.968  1.6897  0.7130  0.3330
 1756TIP3    H2 5233   5.290   3.974   4.943  1.7291  0.5745 -0.4019
 1757TIP3   OH2 5234   0.635   2.204   3.241 -0.0744  0.0492  0.0454
 1757TIP3    H1 5235   0.585   2.237   3.315  3.2237  0.8342  2.1486
 1757TIP3    H2 5236   0.631   2.109   3.249  0.4771  0.1218  1.4882
 1758TIP3   OH2 5237   1.440   1.451   0.932 -0.1139 -0.1728 -0.5231
 1758TIP3    H1 5238   1.481   1.369   0.905  0.9592 -0.1845  0.9743
 1758TIP3    H2 5239   1.465   1.514   0.865  0.4222 -0.7196 -0.8415
 1759TIP3   OH2 5240   2.306   0.416   5.807 -0.2592 -0.5861 -0.2996
 1759TIP3    H1 5241   2.325   0.493   5.752 -0.8459 -0.0085  0.2899
 1759TIP3    H2 5242   2.226   0.380   5.769  0.1758 -1.0991 -0.7592
 1760TIP3   OH2 5243   5.374   1.336   3.587  0.2624 -0.0272 -0.8830
 1760TIP3    H1 5244   5.360   1.244   3.564 -0.0086  0.4402 -2.7105
 1760TIP3    H2 5245   5.308   1.355   3.654  0.5704 -1.2382 -0.2027
 1761TIP3   OH2 5246   2.218   6.809   2.961 -0.0989  0.6548  0.3273
 1761TIP3    H1 5247   2.166   6.807   3.042 -0.1357 -0.7659  0.2908
 1761TIP3    H2 5248   2.222   6.718   2.933  2.5147  0.7059  0.3708
 1762TIP3   OH2 5249   3.694   4.514   0.648  0.3904 -0.2523  0.5134
 1762TIP3    H1 5250   3.776   4.494   0.692  0.5696  0.3587  0.4575
 1762TIP3    H2 5251   3.641   4.560   0.713  0.4123  0.0863  0.2976
 1763TIP3   OH2 5252   6.336   3.697   0.419  0.3816  0.3907  0.0691
 1763TIP3    H1 5253   6.406   3.676   0.358  0.5301 -0.4914  0.5356
 1763TIP3    H2 5254   6.282   3.618   0.422 -0.5745  1.0208 -0.1976
 1764TIP3   OH2 5255   5.795   6.614   1.966  0.6913 -0.1856  0.3514
 1764TIP3    H1 5256   5.768   6.682   1.903  1.2564 -0.8108 -0.5900
 1764TIP3    H2 5257   5.890   6.608   1.955  0.6779 -0.9467  0.6172
 1765TIP3   OH2 5258   2.031   4.560   2.694  0.4809 -0.1698  0.1591
 1765TIP3    H1 5259   2.016   4.471   2.724 -0.9460  0.1764  0.5324
 1765TIP3    H2 5260   2.043   4.552   2.599  1.6627 -0.8814  0.3499
 1766TIP3   OH2 5261   2.588   6.055   5.323 -0.0942  1.0003  0.5220
 1766TIP3    H1 5262   2.520   6.056   5.390  1.2172  2.4470  1.9373
 1766TIP3    H2 5263   2.641   5.978   5.342 -1.1389  0.0169 -0.4255
 1767TIP3   OH2 5264   4.044   4.437   0.460  0.2213  0.0079  0.3478
 1767TIP3    H1 5265   4.101   4.480   0.523  0.7578 -0.1291 -0.0337
 1767TIP3    H2 5266   4.006   4.363   0.508  0.3200  0.1336  0.6211
 1768TIP3   OH2 5267   1.643   4.154   4.828  0.3225 -0.4130 -0.5356
 1768TIP3    H1 5268   1.684   4.215   4.766  2.6108  0.6630  1.8456
 1768TIP3    H2 5269   1.675   4.183   4.914 -1.1045 -3.0389  0.9799
 1769TIP3   OH2 5270   4.584   6.409   5.748 -0.1096  0.2293 -0.2160
 1769TIP3    H1 5271   4.496   6.389   5.780  0.4920 -1.7285  0.3521
 1769TIP3    H2 5272   4.579   6.395   5.654 -0.3168 -0.3248 -0.1310
 1770TIP3   OH2 5273   3.486   0.637   2.771  0.0314  0.3678 -0.0745
 1770TIP3    H1 5274   3.394   0.615   2.759 -0.0047  1.2698 -1.8138
 1770TIP3    H2 5275   3.533   0.556   2.749 -0.3099  0.2264 -0.2922
 1771TIP3   OH2 5276   4.033   5.470   2.529 -0.7712 -0.0942  0.0363
 1771TIP3    H1 5277   4.090   5.419   2.471  0.7986  0.4491  1.0380
 1771TIP3    H2 5278   3.945   5.443   2.504 -0.1611 -0.2649 -2.2420
 1772TIP3   OH2 5279   7.224   5.235   5.256 -0.4370  0.6104 -0.8563
 1772TIP3    H1 5280   7.154   5.206   5.198 -1.6314 -0.3592  0.9859
 1772TIP3    H2 5281   7.179   5.278   5.329  0.6454 -1.6785  1.3246
 1773TIP3   OH2 5282   1.455   4.046   1.435 -0.2878 -0.4342 -0.5987
 1773TIP3    H1 5283   1.453   4.142   1.433 -0.6827 -0.4237 -0.0031
 1773TIP3    H2 5284   1.534   4.024   1.484 -0.5878 -0.4016 -0.1013
 1774TIP3   OH2 5285   0.995   4.784   0.148 -0.2982 -0.6141  0.5914
 1774TIP3    H1 5286   0.977   4.742   0.233 -4.2359 -0.9617 -0.2335
 1774TIP3    H2 5287   0.987   4.878   0.166  0.0168 -0.6309  0.8245
 1775TIP3   OH2 5288   3.966   2.791   2.034  0.6806  0.1657 -0.3701
 1775TIP3    H1 5289   3.933   2.881   2.025  1.3524  0.4243 -0.3549
 1775TIP3    H2 5290   4.060   2.799   2.014  0.3273 -0.9209 -2.7809
 1776TIP3   OH2 5291   1.054   0.703   3.250 -0.2466 -0.2060 -0.1276
 1776TIP3    H1 5292   0.968   0.740   3.270 -1.4551 -2.7957 -0.0329
 1776TIP3    H2 5293   1.068   0.722   3.157 -2.1008 -1.7248 -0.7915
 1777TIP3   OH2 5294   4.178   6.546   3.238  0.3093  0.1772  0.0344
 1777TIP3    H1 5295   4.198   6.509   3.152  1.0241  0.3776  0.1092
 1777TIP3    H2 5296   4.087   6.576   3.230  0.6608  1.0637 -0.9709
 1778TIP3   OH2 5297   2.112   5.871   3.421  0.0716 -0.1890  0.0532
 1778TIP3    H1 5298   2.176   5.878   3.351  0.4548 -1.3006  0.2770
 1778TIP3    H2 5299   2.040   5.929   3.394  0.1254 -0.7527 -1.3518
 1779TIP3   OH2 5300   5.880   4.262   1.192 -0.7070 -0.3903  0.1090
 1779TIP3    H1 5301   5.816   4.193   1.176  0.2890 -1.6150  1.1575
 1779TIP3    H2 5302   5.942   4.223   1.255  0.7444  0.9249 -0.4391
 1780TIP3   OH2 5303   1.871   1.714   2.257  0.3493 -0.0027  0.1448
 1780TIP3    H1 5304   1.963   1.691   2.246 -0.2367 -1.9992 -0.9574
 1780TIP3    H2 5305   1.860   1.720   2.352  1.7496  0.9451  0.2735
 1781TIP3   OH2 5306   2.899   1.870   4.371 -0.7428  0.4422  0.1709
 1781TIP3    H1 5307   2.902   1.805   4.300  0.8419 -0.2843  0.8661
 1781TIP3    H2 5308   2.808   1.867   4.402 -0.7744 -1.2923  0.0149
 1782TIP3   OH2 5309   2.624   2.812   4.375  0.2066  0.6042 -0.0790
 1782TIP3    H1 5310   2.695   2.839   4.317  1.0044  1.0062  1.0442
 1782TIP3    H2 5311   2.594   2.893   4.416  0.5874  0.1870  1.0774
 1783TIP3   OH2 5312   2.669   3.175   3.350  0.4186 -0.2724 -0.1324
 1783TIP3    H1 5313   2.729   3.112   3.391  1.5835  0.9469  0.0838
 1783TIP3    H2 5314   2.719   3.255   3.343 -0.6325  0.2920 -1.5962
 1784TIP3   OH2 5315   2.246   0.626   4.165  0.0615 -0.0782 -0.6034
 1784TIP3    H1 5316   2.265   0.547   4.113 -0.3823 -0.0805 -0.7674
 1784TIP3    H2 5317   2.205   0.686   4.102  1.7230  0.8525 -0.8450
 1785TIP3   OH2 5318   0.266   0.599   1.583 -0.6076 -0.1085  0.1890
 1785TIP3    H1 5319   0.326   0.655   1.631 -1.3607  1.4030 -0.5754
 1785TIP3    H2 5320   0.276   0.513   1.624  1.7428  0.1802  0.3533
 1786TIP3   OH2 5321   1.460   4.289   4.041  0.2216 -0.1910  0.0528
 1786TIP3    H1 5322   1.377   4.309   4.085 -0.3612  1.5790 -1.7395
 1786TIP3    H2 5323   1.452   4.197   4.016 -0.5940 -0.4311  1.1393
 1787TIP3   OH2 5324   0.657   3.385   4.721  0.6004  0.0166  0.2891
 1787TIP3    H1 5325   0.627   3.329   4.649 -0.7859  2.1714 -0.9631
 1787TIP3    H2 5326   0.747   3.408   4.698  0.4644 -0.0331 -0.3105
 1788TIP3   OH2 5327   4.110   2.061   4.379 -0.6652  0.1700  0.0815
 1788TIP3    H1 5328   4.065   2.106   4.451 -1.1703 -0.4557  0.1650
 1788TIP3    H2 5329   4.200   2.093   4.384 -0.0822 -1.6076  2.4967
 1789TIP3   OH2 5330   5.343   1.900   2.032 -0.3744  0.6955 -0.2952
 1789TIP3    H1 5331   5.364   1.905   2.125  1.4994  3.3224 -0.7285
 1789TIP3    H2 5332   5.425   1.872   1.990 -0.2596  2.4428 -1.3384
 1790TIP3   OH2 5333   1.668   4.694   4.059  0.4655 -0.4304 -0.0638
 1790TIP3    H1 5334   1.672   4.599   4.075 -0.2922 -1.3894 -4.3224
 1790TIP3    H2 5335   1.614   4.728   4.131  3.8157 -2.4289  3.7886
 1791TIP3   OH2 5336   3.836   3.023   0.687  0.6451 -0.3661 -0.5778
 1791TIP3    H1 5337   3.869   3.033   0.598  0.1201  1.0243 -0.6405
 1791TIP3    H2 5338   3.913   3.007   0.740  1.3799  1.9889 -0.8380
 1792TIP3   OH2 5339   4.551   0.202   2.468  0.2346 -0.2857  0.2382
 1792TIP3    H1 5340   4.511   0.144   2.534 -0.0642  0.2434  0.5252
 1792TIP3    H2 5341   4.534   0.290   2.501 -1.0721  0.0348 -1.1849
 1793TIP3   OH2 5342   1.517   6.066   0.835  0.2523  0.9922 -0.1156
 1793TIP3    H1 5343   1.455   6.121   0.787 -0.1088  1.0156  0.3734
 1793TIP3    H2 5344   1.602   6.088   0.798  0.0199  1.2887 -0.4806
 1794TIP3   OH2 5345   3.754   1.962   5.311 -0.9103  0.1651 -0.1809
 1794TIP3    H1 5346   3.827   1.899   5.303  0.0022  1.0037  1.2133
 1794TIP3    H2 5347   3.794   2.041   5.346 -2.4256  0.8168  0.1572
 1795TIP3   OH2 5348   2.422   1.230   5.028 -0.0338  0.1673 -0.7820
 1795TIP3    H1 5349   2.397   1.156   4.971  0.1038 -0.8557  0.4410
 1795TIP3    H2 5350   2.445   1.189   5.111  0.8954  1.5405 -0.3394
 1796TIP3   OH2 5351   1.289   0.774   2.242 -0.4216 -0.6009  0.5919
 1796TIP3    H1 5352   1.274   0.680   2.229  0.9017 -0.9112  1.1009
 1796TIP3    H2 5353   1.384   0.782   2.251 -0.6523  0.5141  2.6245
 1797TIP3   OH2 5354   0.652   0.343   3.888  0.5010 -0.2417  0.2777
 1797TIP3    H1 5355   0.599   0.302   3.956 -0.8837  2.7465  1.1380
 1797TIP3    H2 5356   0.595   0.348   3.812  0.4339  0.5936  0.3737
 1798TIP3   OH2 5357   1.450   0.665   5.187  0.6920 -0.1002  0.5492
 1798TIP3    H1 5358   1.536   0.653   5.226  0.4011  0.2037  1.3237
 1798TIP3    H2 5359   1.389   0.639   5.256  0.1627 -1.1337 -0.2811
 1799TIP3   OH2 5360   2.528   3.296   1.696  0.0350  0.0823  0.0834
 1799TIP3    H1 5361   2.573   3.380   1.682 -0.1663 -0.0209 -1.3479
 1799TIP3    H2 5362   2.543   3.247   1.615  2.2333 -2.2818  1.7470
 1800TIP3   OH2 5363   5.433   3.834   3.331 -0.3133  0.2751  0.4935
 1800TIP3    H1 5364   5.457   3.797   3.416  2.1090  0.0450 -0.2234
 1800TIP3    H2 5365   5.364   3.777   3.298  0.8934 -1.5284  0.9614
 1801TIP3   OH2 5366   5.940   5.149   2.357 -0.3132 -0.3414  0.1012
 1801TIP3    H1 5367   5.920   5.060   2.330  2.3262 -0.8465 -0.4693
 1801TIP3    H2 5368   5.874   5.203   2.313 -1.5453 -1.9230 -0.0665
 1802TIP3   OH2 5369   3.844   3.480   3.152 -0.0639 -0.3081  0.4090
 1802TIP3    H1 5370   3.906   3.549   3.175  1.5417 -1.8475  0.8672
 1802TIP3    H2 5371   3.863   3.461   3.060 -0.7746  0.0784  0.1654
 1803TIP3   OH2 5372   1.761   3.304   0.138  0.1455  0.1246  0.5191
 1803TIP3    H1 5373   1.743   3.360   0.214 -0.0695  0.1358  0.4588
 1803TIP3    H2 5374   1.816   3.358   0.081 -1.6343  1.0101 -0.4513
 1804TIP3   OH2 5375   1.933   2.852   0.546  0.3076 -0.0051 -0.1884
 1804TIP3    H1 5376   1.872   2.789   0.508  0.1300  0.2204 -0.2841
 1804TIP3    H2 5377   1.964   2.810   0.626  2.1765 -1.3338 -1.5312
 1805TIP3   OH2 5378   3.988   3.613   1.643  0.2450  0.2591 -0.3561
 1805TIP3    H1 5379   4.022   3.523   1.642 -3.6368 -1.4099 -0.8589
 1805TIP3    H2 5380   3.953   3.627   1.555 -0.2652  1.8059  0.0549
 1806TIP3   OH2 5381   6.806   6.289   0.152 -0.1824 -0.4399 -0.0138
 1806TIP3    H1 5382   6.859   6.232   0.208  2.0032  1.2575 -0.1638
 1806TIP3    H2 5383   6.858   6.298   0.072 -0.0369  2.1969  0.2743
 1807TIP3   OH2 5384   4.485   2.417   4.404  0.1914 -0.2317 -0.2670
 1807TIP3    H1 5385   4.490   2.510   4.426 -0.8056 -0.6392  1.9813
 1807TIP3    H2 5386   4.444   2.415   4.318  1.1909  1.4388 -0.8201
 1808TIP3   OH2 5387   5.467   3.074   0.356 -0.6450  0.2230 -0.1260
 1808TIP3    H1 5388   5.415   2.994   0.361 -1.5060  0.7617 -0.2643
 1808TIP3    H2 5389   5.524   3.061   0.280  0.6412 -1.0597  1.0061
 1809TIP3   OH2 5390   3.859   6.412   3.812  0.5289 -0.0407 -0.5080
 1809TIP3    H1 5391   3.864   6.366   3.728 -0.1982 -0.4592 -0.3327
 1809TIP3    H2 5392   3.926   6.370   3.866 -0.3858 -1.1923 -0.2229
 1810TIP3   OH2 5393   0.977   0.863   1.412  0.5929  0.3746  0.1301
 1810TIP3    H1 5394   1.001   0.848   1.321 -0.3309  0.8822 -0.2110
 1810TIP3    H2 5395   1.059   0.885   1.456  0.8773  1.2927 -0.8263
 1811TIP3   OH2 5396   3.864   2.902   5.563  0.4768 -0.1289  0.2788
 1811TIP3    H1 5397   3.870   2.851   5.483 -1.2018  1.1700 -0.7492
 1811TIP3    H2 5398   3.804   2.853   5.619 -3.2115  1.6502 -1.6821
 1812TIP3   OH2 5399   5.755   5.443   5.683 -0.1652 -0.3377  0.2031
 1812TIP3    H1 5400   5.840   5.474   5.652 -0.2358  0.0447  0.3834
 1812TIP3    H2 5401   5.710   5.522   5.713 -1.7148 -0.0764 -2.4771
 1813TIP3   OH2 5402   0.358   2.780   5.885 -0.0030 -0.1720  0.5212
 1813TIP3    H1 5403   0.392   2.740   5.805 -0.8806 -1.3698  0.7175
 1813TIP3    H2 5404   0.414   2.857   5.900  1.9577 -1.4984  0.3218
 1814TIP3   OH2 5405   0.658   0.251   3.092 -0.1290  0.2849  0.3668
 1814TIP3    H1 5406   0.582   0.299   3.059 -1.5515 -2.2511 -0.2876
 1814TIP3    H2 5407   0.624   0.200   3.166  0.0528 -3.1482 -1.6902
 1815TIP3   OH2 5408   2.583   4.808   3.534  0.3200  0.4587  0.3594
 1815TIP3    H1 5409   2.654   4.844   3.587 -0.2672  0.9677  0.8096
 1815TIP3    H2 5410   2.546   4.739   3.588  1.0114 -0.3982 -0.2301
 1816TIP3   OH2 5411   0.974   1.937   2.662  0.3201 -0.1227  0.3605
 1816TIP3    H1 5412   0.893   1.889   2.679  0.9790 -1.3918  0.0694
 1816TIP3    H2 5413   0.968   2.016   2.715 -1.2739 -0.0115  0.0466
 1817TIP3   OH2 5414   0.911   3.102   2.907  0.0627  0.5963  0.0510
 1817TIP3    H1 5415   0.930   3.008   2.908 -1.1267  0.3296  1.6609
 1817TIP3    H2 5416   0.983   3.142   2.956 -0.2955  0.3194  0.8079
 1818TIP3   OH2 5417   2.470   6.048   3.488 -0.7886  0.1337 -0.5897
 1818TIP3    H1 5418   2.499   5.960   3.463  0.3152 -0.1069  1.3538
 1818TIP3    H2 5419   2.390   6.033   3.537  1.6499 -0.3928  3.6957
 1819TIP3   OH2 5420   4.735   0.186   1.801  0.2906  0.6476 -1.1374
 1819TIP3    H1 5421   4.779   0.177   1.886  0.3300 -0.7064 -1.2765
 1819TIP3    H2 5422   4.805   0.195   1.738  0.2936  0.7494 -1.1191
 1820TIP3   OH2 5423   6.576   3.270   3.188  0.5160 -0.1295  0.5532
 1820TIP3    H1 5424   6.548   3.268   3.097 -0.6856 -0.2481  0.8982
 1820TIP3    H2 5425   6.506   3.318   3.233  1.7625  1.1559  1.2078
 1821TIP3   OH2 5426   4.939   1.232   4.786 -0.4233 -0.7886  0.2767
 1821TIP3    H1 5427   4.977   1.319   4.802  0.1339 -1.0860  0.5906
 1821TIP3    H2 5428   4.867   1.226   4.849 -0.0401 -0.8191  0.7150
 1822TIP3   OH2 5429   4.332   2.381   3.331 -0.6531 -0.5473 -0.7256
 1822TIP3    H1 5430   4.321   2.449   3.397  1.2527 -2.0362  1.2853
 1822TIP3    H2 5431   4.326   2.427   3.247 -0.6056  1.8582  0.5117
 1823TIP3   OH2 5432   0.476   3.494   5.823  0.0700 -0.2683 -0.1353
 1823TIP3    H1 5433   0.388   3.492   5.785  0.0157  1.6326 -0.1807
 1823TIP3    H2 5434   0.461   3.499   5.918  0.1252 -0.1244 -0.1338
 1824TIP3   OH2 5435   0.149   0.109   0.345  0.3275  0.2822 -0.2979
 1824TIP3    H1 5436   0.244   0.111   0.350  0.2249  1.8562  2.7893
 1824TIP3    H2 5437   0.127   0.171   0.276  1.5198  2.3110  1.0513
 1825TIP3   OH2 5438   4.563   2.414   1.965  0.1764  0.7889 -0.4065
 1825TIP3    H1 5439   4.532   2.342   2.021 -1.2386  1.2049 -0.6285
 1825TIP3    H2 5440   4.634   2.375   1.914 -1.0205 -0.6773 -1.0342
 1826TIP3   OH2 5441   0.150   3.944   1.554  0.4931 -1.0539  0.3145
 1826TIP3    H1 5442   0.125   3.853   1.534  0.7160 -1.3041  1.1086
 1826TIP3    H2 5443   0.214   3.966   1.487  0.1210 -1.3305 -0.1441
 1827TIP3   OH2 5444   5.359   5.780   5.322  0.7731  0.8362  0.0040
 1827TIP3    H1 5445   5.340   5.695   5.282 -1.3025  0.0312  2.4366
 1827TIP3    H2 5446   5.311   5.843   5.267 -1.2024 -0.1205  0.5381
 1828TIP3   OH2 5447   6.776   5.763   4.475  0.0902 -0.2192 -0.3820
 1828TIP3    H1 5448   6.864   5.740   4.443  0.4406 -1.0345  1.1026
 1828TIP3    H2 5449   6.761   5.706   4.550 -0.7347  1.5642  0.9026
 1829TIP3   OH2 5450   4.573   0.355   1.963 -0.2187 -0.0295 -0.3617
 1829TIP3    H1 5451   4.556   0.351   2.057  0.1201 -1.8564 -0.3219
 1829TIP3    H2 5452   4.668   0.366   1.957 -0.3574  1.1633 -0.5121
 1830TIP3   OH2 5453   6.267   3.009   0.076  1.0242  0.3342 -0.6679
 1830TIP3    H1 5454   6.315   3.092   0.081  1.4600  0.0178  0.9533
 1830TIP3    H2 5455   6.256   2.982   0.167  0.1690 -0.9874 -1.1363
 1831TIP3   OH2 5456   2.963   1.977   3.961  0.3131  0.1327 -0.5558
 1831TIP3    H1 5457   2.993   2.060   3.924 -1.7027  0.9396 -0.5017
 1831TIP3    H2 5458   2.951   1.995   4.054 -0.3954 -0.1202 -0.5913
 1832TIP3   OH2 5459   7.174   4.213   4.770 -0.0198 -0.4372  0.2458
 1832TIP3    H1 5460   7.209   4.206   4.681  0.8285 -2.4367  0.6794
 1832TIP3    H2 5461   7.119   4.135   4.781  0.1332 -0.3928  1.5613
 1833TIP3   OH2 5462   4.959   0.029   2.314 -0.2289 -0.3317 -0.1152
 1833TIP3    H1 5463   5.025  -0.031   2.347 -0.4813  0.2212  1.4480
 1833TIP3    H2 5464   4.912   0.059   2.391  0.2312  2.2986 -0.7491
 1834TIP3   OH2 5465   2.260   0.507   1.067 -0.2334 -0.3255  0.2210
 1834TIP3    H1 5466   2.335   0.453   1.042 -0.6222 -0.6262 -0.3088
 1834TIP3    H2 5467   2.248   0.488   1.160 -0.0786 -0.7999  0.1468
 1835TIP3   OH2 5468   6.021   1.377   5.419 -0.2359  0.0078  0.5941
 1835TIP3    H1 5469   6.072   1.312   5.370 -0.2987  0.3127  0.1115
 1835TIP3    H2 5470   5.936   1.379   5.374  0.6151  2.3486 -1.1448
 1836TIP3   OH2 5471   0.664   1.490   2.412  0.0249  0.0867 -0.7548
 1836TIP3    H1 5472   0.616   1.561   2.455  0.3272 -0.1800  0.0521
 1836TIP3    H2 5473   0.740   1.532   2.374  0.4100  0.1513  0.0604
 1837TIP3   OH2 5474   0.576   2.427   1.149  0.3156  0.0065  0.3299
 1837TIP3    H1 5475   0.529   2.399   1.227 -1.0236 -0.0132 -0.4699
 1837TIP3    H2 5476   0.669   2.417   1.173  0.0402  2.0103  2.6680
 1838TIP3   OH2 5477   5.198   1.346   3.780  0.3133  0.0468  0.1603
 1838TIP3    H1 5478   5.107   1.376   3.771  0.5436  0.9714  0.8172
 1838TIP3    H2 5479   5.191   1.267   3.834 -0.0595  0.3684  0.5900
 1839TIP3   OH2 5480   5.628   0.413   3.193  0.2604  0.1823 -0.2290
 1839TIP3    H1 5481   5.596   0.460   3.270  0.6580  0.0593  0.0143
 1839TIP3    H2 5482   5.550   0.371   3.157  0.3264 -1.1393  1.0600
 1840TIP3   OH2 5483   6.741   4.744   2.684 -0.4010  0.5385  0.2575
 1840TIP3    H1 5484   6.810   4.715   2.624 -1.0363 -1.4685  0.4251
 1840TIP3    H2 5485   6.719   4.832   2.654  0.7630  0.4031 -1.1125
 1841TIP3   OH2 5486   0.886   3.383   5.369 -0.0140 -0.4728 -0.2102
 1841TIP3    H1 5487   0.958   3.364   5.428  0.8728  0.1610 -1.0623
 1841TIP3    H2 5488   0.841   3.457   5.409 -0.3085 -0.9806  0.4119
 1842TIP3   OH2 5489   5.314   6.737   0.516 -0.2372 -0.3055 -0.2155
 1842TIP3    H1 5490   5.316   6.679   0.592  0.6868 -1.5871 -1.1490
 1842TIP3    H2 5491   5.309   6.825   0.552 -2.1928 -0.9555  1.2573
 1843TIP3   OH2 5492   4.749   4.851   0.243  0.0677 -0.6281 -0.1275
 1843TIP3    H1 5493   4.838   4.819   0.230 -0.0583 -0.6354 -1.0140
 1843TIP3    H2 5494   4.759   4.943   0.268  0.3251 -0.6509 -0.1512
 1844TIP3   OH2 5495   6.158   2.950   2.046  0.1713  0.4364 -0.7731
 1844TIP3    H1 5496   6.081   2.902   2.016 -2.1016  2.9991  0.5568
 1844TIP3    H2 5497   6.184   2.906   2.126 -1.0469  0.5519 -0.2870
 1845TIP3   OH2 5498   3.085   5.720   3.205 -0.1272 -0.3935 -0.0652
 1845TIP3    H1 5499   3.175   5.750   3.212 -0.4475  0.5602  0.1243
 1845TIP3    H2 5500   3.087   5.651   3.139  0.8746 -0.9564  0.5290
 1846TIP3   OH2 5501   5.105   0.387   0.256  0.3403  0.2915 -0.0830
 1846TIP3    H1 5502   5.040   0.368   0.188  0.3195  1.4315 -0.4075
 1846TIP3    H2 5503   5.187   0.400   0.207  0.6657 -0.4680  0.2599
 1847TIP3   OH2 5504   6.160   0.546   3.875 -0.0473  0.4027  0.0790
 1847TIP3    H1 5505   6.237   0.524   3.822 -1.5088 -0.8424 -1.6566
 1847TIP3    H2 5506   6.185   0.523   3.964  2.1850  1.6937 -0.1336
 1848TIP3   OH2 5507   5.707   3.312   3.517  0.7638 -0.1122 -0.0157
 1848TIP3    H1 5508   5.783   3.266   3.482  0.6695 -1.0072  0.8933
 1848TIP3    H2 5509   5.736   3.403   3.526  1.4492 -0.2770 -0.4610
 1849TIP3   OH2 5510   6.979   1.094   4.882  0.2655 -0.2851 -0.1299
 1849TIP3    H1 5511   6.950   1.003   4.877  0.7694 -0.4036 -0.8653
 1849TIP3    H2 5512   6.898   1.145   4.872  0.2159 -0.6239 -1.6308
 1850TIP3   OH2 5513   5.392   3.133   5.285 -0.1352  0.0802  0.0262
 1850TIP3    H1 5514   5.410   3.091   5.369 -1.6895 -1.6924 -0.4544
 1850TIP3    H2 5515   5.337   3.070   5.238 -1.0396  1.9098 -1.5047
 1851TIP3   OH2 5516   0.031   1.015   4.792 -0.7044  0.0900  0.1222
 1851TIP3    H1 5517   0.032   0.919   4.788  0.0245  0.0468  1.0549
 1851TIP3    H2 5518  -0.043   1.035   4.849  0.3796 -0.0141  1.6117
 1852TIP3   OH2 5519   2.359   4.511   4.124 -0.0692  0.6965 -0.2691
 1852TIP3    H1 5520   2.376   4.561   4.204 -0.5953 -1.1834  1.0833
 1852TIP3    H2 5521   2.266   4.492   4.127 -0.0702  0.4654 -1.2826
 1853TIP3   OH2 5522   5.093   4.773   3.793 -0.2389  0.3118 -0.3333
 1853TIP3    H1 5523   5.162   4.824   3.750  0.6017  0.5318  1.2212
 1853TIP3    H2 5524   5.027   4.838   3.817  0.3104  0.5292  0.6376
 1854TIP3   OH2 5525   4.600   3.097   5.648  0.1373  0.4755 -0.3207
 1854TIP3    H1 5526   4.507   3.119   5.645  0.2400  0.8579 -0.9980
 1854TIP3    H2 5527   4.608   3.034   5.720 -0.5644  0.8078  0.0621
 1855TIP3   OH2 5528   2.337   1.502   5.240  0.1781 -0.0014  0.1500
 1855TIP3    H1 5529   2.302   1.494   5.151 -0.1747  2.3005  0.0134
 1855TIP3    H2 5530   2.321   1.416   5.279 -1.8184 -0.3724 -1.2690
 1856TIP3   OH2 5531   1.223   6.495   5.840 -1.0008 -0.0613 -0.1465
 1856TIP3    H1 5532   1.309   6.510   5.879  0.0219  0.8727 -2.5980
 1856TIP3    H2 5533   1.203   6.404   5.861  0.7956 -0.4512  0.0621
 1857TIP3   OH2 5534   0.049   5.428   0.258 -0.3839  0.0744 -0.3119
 1857TIP3    H1 5535   0.005   5.512   0.247  1.4089  0.8451 -2.1198
 1857TIP3    H2 5536   0.132   5.450   0.300 -0.0497 -0.8416 -0.4724
 1858TIP3   OH2 5537   2.665   6.268   3.398 -0.5840  0.4205  0.3306
 1858TIP3    H1 5538   2.621   6.185   3.416  0.5257  0.0813  1.6643
 1858TIP3    H2 5539   2.676   6.270   3.303  0.2636 -1.4584  0.3549
 1859TIP3   OH2 5540   0.652   2.108   2.144 -0.8475 -0.3094 -0.4438
 1859TIP3    H1 5541   0.654   2.108   2.049  0.9620 -1.2905 -0.4495
 1859TIP3    H2 5542   0.628   2.018   2.168  2.6567 -1.2633 -0.0398
 1860TIP3   OH2 5543   2.709   2.771   0.995  0.2242  0.4128  0.5680
 1860TIP3    H1 5544   2.795   2.728   1.002 -0.3756 -0.7717  0.8700
 1860TIP3    H2 5545   2.727   2.864   1.011  1.4672  0.2043  0.4755
 1861TIP3   OH2 5546   5.861   6.197   3.865 -0.0551  0.2689 -0.5009
 1861TIP3    H1 5547   5.871   6.284   3.903  0.2817  0.6428 -1.4113
 1861TIP3    H2 5548   5.780   6.202   3.814 -0.7344 -0.3543  0.4877
 1862TIP3   OH2 5549   1.081   4.329   5.606 -0.0857 -0.5388 -0.1438
 1862TIP3    H1 5550   1.111   4.388   5.538  0.9321  0.2006  0.9091
 1862TIP3    H2 5551   1.053   4.251   5.559  3.8464 -1.5005 -1.3201
 1863TIP3   OH2 5552   3.790   5.344   5.841 -0.0721 -0.5720 -0.0538
 1863TIP3    H1 5553   3.807   5.251   5.829  0.3296 -0.5351  0.2075
 1863TIP3    H2 5554   3.825   5.364   5.927  0.3455 -0.0602 -0.3353
 1864TIP3   OH2 5555   3.688   2.098   5.085  0.1356 -0.5913  0.0348
 1864TIP3    H1 5556   3.727   2.052   5.159 -2.1647 -1.1399  1.0197
 1864TIP3    H2 5557   3.640   2.170   5.125 -0.6079 -0.4998 -0.9762
 1865TIP3   OH2 5558   6.697   1.777   2.209  0.4107 -0.2003  0.7459
 1865TIP3    H1 5559   6.764   1.838   2.239  0.7479  0.4153 -1.1149
 1865TIP3    H2 5560   6.616   1.828   2.210  0.7103  0.3903 -0.9129
 1866TIP3   OH2 5561   1.152   2.345   1.939  0.3395 -0.4906  0.5515
 1866TIP3    H1 5562   1.180   2.277   2.000  0.4281  0.0576  1.1293
 1866TIP3    H2 5563   1.074   2.384   1.978 -0.7170 -1.3827 -0.6053
 1867TIP3   OH2 5564   3.191   1.345   2.853  0.2655  0.3632 -0.2883
 1867TIP3    H1 5565   3.100   1.374   2.848  0.6044  1.6449  0.5048
 1867TIP3    H2 5566   3.188   1.254   2.825 -0.9867  0.8870 -2.0322
 1868TIP3   OH2 5567   3.330   4.879   3.766  0.0373  0.0465  0.3946
 1868TIP3    H1 5568   3.398   4.934   3.806 -0.6306  1.7381 -0.6910
 1868TIP3    H2 5569   3.270   4.858   3.837 -0.3905  1.8358  0.5925
 1869TIP3   OH2 5570   4.763   0.183   4.580  0.7132  0.6493 -0.0910
 1869TIP3    H1 5571   4.769   0.088   4.587  0.8724  0.5978 -0.8273
 1869TIP3    H2 5572   4.819   0.205   4.505  1.2779  1.3966  0.5215
 1870TIP3   OH2 5573   2.765   1.345   1.652  0.0020  0.2125  0.2649
 1870TIP3    H1 5574   2.768   1.292   1.732  1.6519 -1.3537 -0.7680
 1870TIP3    H2 5575   2.671   1.356   1.635 -0.3866 -0.8150  1.5314
 1871TIP3   OH2 5576   5.647   4.439   1.270  0.1193 -0.4882  0.1402
 1871TIP3    H1 5577   5.734   4.404   1.288  0.2091 -0.2064  0.2583
 1871TIP3    H2 5578   5.663   4.525   1.231 -0.1048 -0.4614  0.1049
 1872TIP3   OH2 5579   0.629   0.604   2.900 -0.4154 -0.2845 -0.8757
 1872TIP3    H1 5580   0.536   0.622   2.882 -0.2565 -0.6674 -2.2015
 1872TIP3    H2 5581   0.669   0.691   2.908 -1.0221 -0.1102  0.5990
 1873TIP3   OH2 5582   4.366   5.140   3.461 -0.0347 -0.4935 -0.1019
 1873TIP3    H1 5583   4.274   5.115   3.467  0.0440 -0.3885  2.1524
 1873TIP3    H2 5584   4.412   5.075   3.514  0.8680  0.9326  0.9332
 1874TIP3   OH2 5585   1.361   0.513   1.722  0.5973  0.1710 -0.5081
 1874TIP3    H1 5586   1.408   0.433   1.699 -0.2623 -0.9393  1.3075
 1874TIP3    H2 5587   1.269   0.488   1.714  0.3225  1.0833 -0.2051
 1875TIP3   OH2 5588   3.474   1.449   4.631  0.4420  0.4922  0.4460
 1875TIP3    H1 5589   3.517   1.502   4.563 -0.3883  3.3005  1.9193
 1875TIP3    H2 5590   3.539   1.443   4.701  0.7753 -1.1213  0.0239
 1876TIP3   OH2 5591   5.228   3.978   5.658 -0.1648 -0.6333  0.0983
 1876TIP3    H1 5592   5.245   3.928   5.738  1.2112 -0.9911 -0.4025
 1876TIP3    H2 5593   5.283   4.056   5.667 -1.6304  0.4082  0.4642
 1877TIP3   OH2 5594   5.227   0.096   0.211  0.3936 -0.0857 -0.3534
 1877TIP3    H1 5595   5.267   0.016   0.245  1.9298  0.0659 -1.6867
 1877TIP3    H2 5596   5.248   0.163   0.277  2.0437 -0.1092 -0.7959
 1878TIP3   OH2 5597   4.199   1.662   4.797 -0.4500 -0.2987 -0.4880
 1878TIP3    H1 5598   4.212   1.713   4.717  1.6899 -0.5256 -0.3387
 1878TIP3    H2 5599   4.287   1.647   4.831 -1.3195  0.2212  2.2286
 1879TIP3   OH2 5600   3.623   1.221   3.436  0.0285  0.5140  0.3845
 1879TIP3    H1 5601   3.539   1.254   3.466 -0.1329  1.6857 -1.2126
 1879TIP3    H2 5602   3.624   1.240   3.342  2.8985  2.4386  0.6637
 1880TIP3   OH2 5603   4.302   2.717   1.409  0.4585  0.2448  0.4584
 1880TIP3    H1 5604   4.323   2.666   1.331 -0.2556  0.6828 -0.0428
 1880TIP3    H2 5605   4.297   2.653   1.479 -0.6428 -0.4388 -0.1967
 1881TIP3   OH2 5606   7.045   1.692   2.743 -0.5336 -0.2520 -0.2706
 1881TIP3    H1 5607   6.993   1.751   2.689  1.0893 -0.4320 -2.1465
 1881TIP3    H2 5608   7.022   1.605   2.713 -0.1514 -0.3919 -0.1722
 1882TIP3   OH2 5609   0.244   4.519   2.159 -0.1314 -0.1448  0.4692
 1882TIP3    H1 5610   0.168   4.467   2.133  0.5231 -0.8475 -0.1213
 1882TIP3    H2 5611   0.299   4.457   2.208 -0.3815  0.6149  1.7453
 1883TIP3   OH2 5612   6.433   3.805   5.672 -0.4114 -0.5715  0.4328
 1883TIP3    H1 5613   6.367   3.828   5.607  0.4133 -0.3620 -0.3631
 1883TIP3    H2 5614   6.386   3.755   5.739 -1.4144 -0.1727  0.0376
 1884TIP3   OH2 5615   7.074   6.602   3.198 -0.8597 -0.2044  1.1310
 1884TIP3    H1 5616   7.038   6.514   3.209 -1.3224  0.1546  2.8126
 1884TIP3    H2 5617   7.157   6.589   3.153 -1.0006 -1.4750  1.2095
 1885TIP3   OH2 5618   1.522   4.719   0.289  0.4415  0.5098 -0.3749
 1885TIP3    H1 5619   1.557   4.738   0.201 -0.0897  1.4745 -0.3914
 1885TIP3    H2 5620   1.433   4.753   0.287  1.5004  3.8502  1.6304
 1886TIP3   OH2 5621   6.578   3.023   1.939 -0.0923  0.2111  0.7182
 1886TIP3    H1 5622   6.550   2.990   2.025 -1.6656 -1.1785 -0.2600
 1886TIP3    H2 5623   6.496   3.036   1.891  0.7189  1.7881 -0.3197
 1887TIP3   OH2 5624   3.164   3.334   1.789 -0.7985 -0.7077  0.2752
 1887TIP3    H1 5625   3.167   3.427   1.766 -3.2634 -0.2232  1.5364
 1887TIP3    H2 5626   3.252   3.314   1.821 -0.2161  1.1908 -0.0289
 1888TIP3   OH2 5627   5.046   6.784   3.742  0.5109  0.2409 -0.1510
 1888TIP3    H1 5628   5.139   6.806   3.742  0.0886  2.4394  1.9704
 1888TIP3    H2 5629   5.044   6.689   3.754  2.4946  0.2716  0.7270
 1889TIP3   OH2 5630   1.923   6.587   4.973 -0.4423  0.1178  0.1534
 1889TIP3    H1 5631   1.923   6.517   5.037 -2.8180 -1.7206 -1.6787
 1889TIP3    H2 5632   2.014   6.591   4.942 -0.3269 -2.5308 -0.0301
 1890TIP3   OH2 5633   2.837   0.445   4.171  0.3040 -0.1098  0.8892
 1890TIP3    H1 5634   2.746   0.473   4.176  0.7217  1.1696  2.2818
 1890TIP3    H2 5635   2.865   0.468   4.083 -0.4673  0.2886  0.7430
 1891TIP3   OH2 5636   2.473   5.258   1.035 -0.2383  0.1068 -0.5428
 1891TIP3    H1 5637   2.408   5.206   1.083  0.3372  0.7877  1.0504
 1891TIP3    H2 5638   2.556   5.216   1.056  0.2531  1.6715  0.8797
 1892TIP3   OH2 5639   1.900   4.760   1.997 -0.0390 -0.1102 -0.0062
 1892TIP3    H1 5640   1.898   4.758   2.092 -0.3566  1.3132  0.0351
 1892TIP3    H2 5641   1.856   4.680   1.970 -2.4708  0.7948  1.0453
 1893TIP3   OH2 5642   6.475   6.476   0.832 -0.2510  0.1017  0.2651
 1893TIP3    H1 5643   6.564   6.460   0.864 -0.6578 -1.5108  0.6598
 1893TIP3    H2 5644   6.431   6.392   0.839 -1.9137  0.9320  0.3616
 1894TIP3   OH2 5645   1.665   6.571   1.610  0.9462  0.6996 -0.5420
 1894TIP3    H1 5646   1.648   6.517   1.687 -1.6441  1.6447 -0.3547
 1894TIP3    H2 5647   1.712   6.647   1.645 -1.0038  1.5685  0.3582
 1895TIP3   OH2 5648   3.024   6.421   3.616 -0.4414 -0.3028  0.0056
 1895TIP3    H1 5649   3.082   6.430   3.540 -3.1595 -1.9737 -2.4699
 1895TIP3    H2 5650   2.992   6.510   3.632  2.1124  0.5359  1.0190
 1896TIP3   OH2 5651   3.604   3.961   5.044 -0.7226 -0.1257  0.4161
 1896TIP3    H1 5652   3.603   3.919   4.958 -0.1898 -0.5631  0.6118
 1896TIP3    H2 5653   3.689   4.006   5.047 -2.2086  3.0573 -0.7432
 1897TIP3   OH2 5654   1.261   6.461   0.552  0.1041  0.2628  0.1985
 1897TIP3    H1 5655   1.322   6.439   0.481 -0.6247 -0.8850 -0.1068
 1897TIP3    H2 5656   1.174   6.444   0.515 -0.5182  2.9135  0.2538
 1898TIP3   OH2 5657   2.295   3.690   1.147  0.7793 -0.1806 -0.2976
 1898TIP3    H1 5658   2.381   3.717   1.115  1.1734  0.2265  1.0476
 1898TIP3    H2 5659   2.298   3.704   1.241 -1.2739  1.3017 -0.3768
 1899TIP3   OH2 5660   4.990   4.735   3.021  0.1054 -0.1489  0.7098
 1899TIP3    H1 5661   4.959   4.658   3.068  1.3411 -0.8257  0.4635
 1899TIP3    H2 5662   4.919   4.756   2.960  0.0019 -1.4994  0.3313
 1900TIP3   OH2 5663   4.779   6.393   5.041 -0.6994  0.3285  0.7201
 1900TIP3    H1 5664   4.746   6.339   4.969 -0.5666  0.3293  0.6575
 1900TIP3    H2 5665   4.802   6.331   5.110 -1.3732  0.3709  0.9860
 1901TIP3   OH2 5666   2.385   1.074   4.228  0.2143 -0.0170 -0.4543
 1901TIP3    H1 5667   2.317   1.137   4.204  0.5252  0.1380 -0.9661
 1901TIP3    H2 5668   2.446   1.076   4.153  0.9173  0.0453  0.1123
 1902TIP3   OH2 5669   2.043   2.933   5.378 -0.1723 -0.6008 -0.1284
 1902TIP3    H1 5670   2.067   2.853   5.425  0.8492 -0.3002 -0.1304
 1902TIP3    H2 5671   2.067   3.004   5.438 -1.5202 -0.2879  0.0823
 1903TIP3   OH2 5672   3.357   1.840   2.390 -0.0700  0.0315  0.9955
 1903TIP3    H1 5673   3.410   1.878   2.319 -2.2878  0.0050 -0.7997
 1903TIP3    H2 5674   3.386   1.749   2.395 -0.6862 -0.3085 -0.7962
 1904TIP3   OH2 5675   1.269   0.073   1.191 -0.5006 -0.0260  0.3097
 1904TIP3    H1 5676   1.271   0.165   1.164  1.3981 -0.0965  0.0711
 1904TIP3    H2 5677   1.244   0.076   1.283  1.4297  0.9450  0.8716
 1905TIP3   OH2 5678   1.877   5.732   0.057  0.1189  0.0313 -0.2823
 1905TIP3    H1 5679   1.927   5.698   0.131  0.3559  1.6576  0.3495
 1905TIP3    H2 5680   1.896   5.672  -0.015  0.5434 -1.1079  0.7574
 1906TIP3   OH2 5681   7.060   5.557   5.351  0.1477 -0.1762 -0.1333
 1906TIP3    H1 5682   7.055   5.499   5.428  1.8433 -1.0525 -0.6339
 1906TIP3    H2 5683   6.984   5.615   5.360 -0.3264 -0.9900  1.5995
 1907TIP3   OH2 5684   0.971   5.169   4.135 -0.2338  0.1833 -0.0774
 1907TIP3    H1 5685   0.996   5.230   4.204 -0.4816  1.3600 -1.0025
 1907TIP3    H2 5686   0.953   5.224   4.059  1.7471 -1.1451 -1.6366
 1908TIP3   OH2 5687   2.157   2.079   1.795 -0.5725 -0.8857  0.3812
 1908TIP3    H1 5688   2.098   2.072   1.870  0.0828 -0.4969  0.9438
 1908TIP3    H2 5689   2.192   1.990   1.783 -0.6311 -0.9357  0.5780
 1909TIP3   OH2 5690   0.768   2.241   0.590 -0.0198  0.4187 -0.3014
 1909TIP3    H1 5691   0.746   2.248   0.683 -0.6722  1.1441 -0.4991
 1909TIP3    H2 5692   0.863   2.250   0.587  0.3403 -2.0769  0.5153
 1910TIP3   OH2 5693   2.433   0.758   1.577 -0.5101  0.1216 -0.2820
 1910TIP3    H1 5694   2.467   0.754   1.487 -0.9085 -1.7491 -0.3973
 1910TIP3    H2 5695   2.484   0.692   1.624 -2.3967 -1.1617  0.0785
 1911TIP3   OH2 5696   5.171   1.177   5.594  0.7354 -0.2243 -0.0722
 1911TIP3    H1 5697   5.234   1.121   5.549  0.0002 -2.1317  1.1082
 1911TIP3    H2 5698   5.098   1.118   5.615 -0.6306  1.4881  0.1938
 1912TIP3   OH2 5699   0.604   1.637   4.352  0.5692  0.3059 -0.0912
 1912TIP3    H1 5700   0.560   1.596   4.426  2.0858  0.3873  0.8876
 1912TIP3    H2 5701   0.690   1.594   4.348  1.3070  1.7556 -0.4813
 1913TIP3   OH2 5702   2.095   4.097   3.420  0.6416  0.0402  0.0313
 1913TIP3    H1 5703   2.179   4.141   3.434 -0.4517  1.7128  1.8146
 1913TIP3    H2 5704   2.047   4.110   3.501 -0.6013 -2.7252 -0.1365
 1914TIP3   OH2 5705   2.257   2.248   1.440  0.2130  0.1521 -0.0208
 1914TIP3    H1 5706   2.326   2.233   1.505 -1.0270  2.8503  2.1071
 1914TIP3    H2 5707   2.176   2.222   1.485 -0.5841  1.0487 -0.9026
 1915TIP3   OH2 5708   4.539   4.605   1.744  0.0838  0.4178 -0.3370
 1915TIP3    H1 5709   4.607   4.610   1.677 -1.3269  0.9024 -1.7886
 1915TIP3    H2 5710   4.577   4.549   1.812  2.6101  2.0580 -0.2265
 1916TIP3   OH2 5711   0.973   3.997   1.509  0.0491 -0.3421  0.3378
 1916TIP3    H1 5712   1.068   3.987   1.512 -0.0298 -1.1484  0.3297
 1916TIP3    H2 5713   0.959   4.088   1.482  0.8138 -0.0925  0.7683
 1917TIP3   OH2 5714   0.850   0.226   0.404  0.7015 -0.0563  0.0717
 1917TIP3    H1 5715   0.805   0.209   0.487 -0.2104  0.1400 -0.3742
 1917TIP3    H2 5716   0.904   0.304   0.423 -0.2886  0.6218  0.2081
 1918TIP3   OH2 5717   5.578   2.386   1.684  0.1663  0.4535  0.3845
 1918TIP3    H1 5718   5.513   2.432   1.630  0.3181  1.3970  0.9795
 1918TIP3    H2 5719   5.621   2.325   1.624 -0.9794  0.1158 -0.1146
 1919TIP3   OH2 5720   5.291   0.146   4.727 -0.1977  0.0790 -0.1637
 1919TIP3    H1 5721   5.349   0.106   4.662 -0.2753 -0.7334  0.2497
 1919TIP3    H2 5722   5.210   0.162   4.679  0.1779  0.7035 -0.6001
 1920TIP3   OH2 5723   0.986   3.237   1.632  0.3817  0.0685  0.2413
 1920TIP3    H1 5724   0.999   3.142   1.624 -3.1306 -0.4771 -0.6073
 1920TIP3    H2 5725   1.043   3.274   1.564  0.6606 -1.5593 -0.4651
 1921TIP3   OH2 5726   5.684   4.987   3.936  0.2893  0.2132  0.1623
 1921TIP3    H1 5727   5.700   4.893   3.931  0.5818  0.3143 -1.3978
 1921TIP3    H2 5728   5.771   5.026   3.938  0.1997  0.4283  2.7753
 1922TIP3   OH2 5729   0.835   2.367   1.271 -0.0602  0.0258 -0.4582
 1922TIP3    H1 5730   0.910   2.405   1.226  0.2359  0.6902  0.5514
 1922TIP3    H2 5731   0.850   2.273   1.268  0.9671  0.1591 -0.0478
 1923TIP3   OH2 5732   6.077   2.646   5.459 -0.4147  0.2107 -0.2929
 1923TIP3    H1 5733   6.040   2.563   5.489  4.5635 -1.3367  2.7437
 1923TIP3    H2 5734   6.056   2.708   5.529 -1.0497  0.5916 -0.8068
 1924TIP3   OH2 5735   5.679   6.367   3.293  0.0185 -0.1817  0.3108
 1924TIP3    H1 5736   5.604   6.392   3.239  1.2205  1.2091 -0.7933
 1924TIP3    H2 5737   5.706   6.448   3.336  1.1235 -0.5697  0.3777
 1925TIP3   OH2 5738   6.922   2.240   1.411 -0.1054 -0.0861  0.5112
 1925TIP3    H1 5739   6.849   2.206   1.358 -1.1444  1.9199  0.5612
 1925TIP3    H2 5740   6.926   2.181   1.487  0.1250 -1.8240 -0.7933
 1926TIP3   OH2 5741   6.031   6.525   0.615  0.0518  0.2700 -1.0338
 1926TIP3    H1 5742   6.026   6.455   0.680 -1.3093  1.0871 -0.2174
 1926TIP3    H2 5743   5.942   6.533   0.581 -0.6565  3.5226  1.0668
 1927TIP3   OH2 5744   0.653   3.105   3.405 -0.4292  0.2083 -0.6259
 1927TIP3    H1 5745   0.743   3.096   3.436 -1.3919  0.0680  2.4817
 1927TIP3    H2 5746   0.660   3.110   3.310  2.9282  1.3011 -0.4340
 1928TIP3   OH2 5747   2.020   4.495   2.433 -0.5475 -0.0288 -0.5365
 1928TIP3    H1 5748   1.969   4.524   2.358 -0.0602  1.3872 -0.3613
 1928TIP3    H2 5749   2.064   4.416   2.404  0.1262  0.8389 -1.9646
 1929TIP3   OH2 5750   6.917   1.636   5.086 -0.5247  0.8323  0.4253
 1929TIP3    H1 5751   6.952   1.618   5.173 -0.7709  2.4817  0.8946
 1929TIP3    H2 5752   6.990   1.622   5.026 -0.9085 -2.5908  0.5591
 1930TIP3   OH2 5753   4.811   4.509   3.088 -0.2448  0.1971 -0.4915
 1930TIP3    H1 5754   4.836   4.442   3.151 -2.3409  1.5147  1.9452
 1930TIP3    H2 5755   4.717   4.496   3.074 -0.2073  1.1589 -1.8303
 1931TIP3   OH2 5756   4.621   5.057   1.118  0.0002 -0.3955  0.1997
 1931TIP3    H1 5757   4.612   5.082   1.210 -0.2673 -2.0406  0.6587
 1931TIP3    H2 5758   4.714   5.037   1.107 -0.1742 -1.4193  0.4740
 1932TIP3   OH2 5759   6.177   1.232   4.633  0.1844 -0.5597  0.1057
 1932TIP3    H1 5760   6.180   1.237   4.537  0.0257 -0.5819  0.0980
 1932TIP3    H2 5761   6.123   1.307   4.659 -0.1871 -0.8381  0.1442
 1933TIP3   OH2 5762   3.583   2.862   1.438 -0.1809  0.0504 -0.4667
 1933TIP3    H1 5763   3.578   2.885   1.530 -0.3639 -1.0383 -0.1853
 1933TIP3    H2 5764   3.596   2.767   1.438 -0.4964 -0.0067 -1.5572
 1934TIP3   OH2 5765   4.987   4.009   4.959 -0.2412  0.0092 -0.1468
 1934TIP3    H1 5766   4.963   3.935   5.014 -2.1306  0.9212  0.3587
 1934TIP3    H2 5767   4.971   4.086   5.014 -2.0938  0.9530 -1.8787
 1935TIP3   OH2 5768   6.098   1.448   4.931 -0.0563 -0.1595 -0.2885
 1935TIP3    H1 5769   6.051   1.386   4.986 -1.0555 -0.3227 -1.2909
 1935TIP3    H2 5770   6.078   1.534   4.968  0.7186 -0.3555  0.6417
 1936TIP3   OH2 5771   6.649   6.737   2.014 -0.1124 -0.3713  0.1672
 1936TIP3    H1 5772   6.730   6.781   2.042 -0.6365  1.3670 -0.8625
 1936TIP3    H2 5773   6.672   6.697   1.930 -0.4275  0.6215 -0.4173
 1937TIP3   OH2 5774   3.014   2.076   4.222  0.4086  0.2308 -0.1126
 1937TIP3    H1 5775   3.006   2.018   4.298 -0.3289  0.6362  0.1369
 1937TIP3    H2 5776   2.942   2.139   4.233  3.1260  3.4112  1.5514
 1938TIP3   OH2 5777   5.779   1.199   1.069  0.3034 -0.5667  0.5927
 1938TIP3    H1 5778   5.798   1.199   0.976  2.1628 -3.2940  0.8553
 1938TIP3    H2 5779   5.688   1.169   1.076  0.2169 -0.5279 -0.3305
 1939TIP3   OH2 5780   1.576   4.849   3.215 -0.2199  0.0187 -0.5716
 1939TIP3    H1 5781   1.482   4.864   3.207 -0.2656 -0.4791 -1.0064
 1939TIP3    H2 5782   1.616   4.919   3.163 -0.2935  0.9255  0.5255
 1940TIP3   OH2 5783   3.073   3.150   0.094 -0.5866 -0.6167  0.0067
 1940TIP3    H1 5784   3.153   3.172   0.047  0.1103 -0.4168  1.2272
 1940TIP3    H2 5785   3.098   3.078   0.152 -0.6063  0.9795  2.1363
 1941TIP3   OH2 5786   1.128   0.297   2.123  0.4284 -0.2069 -0.1455
 1941TIP3    H1 5787   1.152   0.210   2.089  1.7496 -0.3849  1.1400
 1941TIP3    H2 5788   1.071   0.278   2.197  1.1873 -0.0298  0.5010
 1942TIP3   OH2 5789   2.645   1.858   0.596 -0.2258  0.5933  0.1700
 1942TIP3    H1 5790   2.634   1.816   0.681  0.5631 -0.4271 -0.2204
 1942TIP3    H2 5791   2.727   1.907   0.603 -0.3496  0.8153  0.1080
 1943TIP3   OH2 5792   2.961   4.859   0.812  0.5041 -0.3437  0.0485
 1943TIP3    H1 5793   3.045   4.881   0.772  0.7449 -0.2945  0.5749
 1943TIP3    H2 5794   2.974   4.875   0.906 -0.1368 -0.1919  0.1185
 1944TIP3   OH2 5795   4.530   0.017   2.216 -0.0863 -0.1404  0.1318
 1944TIP3    H1 5796   4.505   0.058   2.133  2.9124  0.8178 -0.4209
 1944TIP3    H2 5797   4.467   0.051   2.279 -0.8373  1.2173 -1.2679
 1945TIP3   OH2 5798   2.495   5.762   3.781  0.2792 -0.3380 -0.0469
 1945TIP3    H1 5799   2.430   5.773   3.850 -0.4408 -1.2469 -0.5472
 1945TIP3    H2 5800   2.445   5.727   3.707  1.3397 -1.0761 -0.4334
 1946TIP3   OH2 5801   5.374   2.237   1.861  0.4788 -0.2488 -0.2093
 1946TIP3    H1 5802   5.433   2.207   1.792 -0.6296  3.4651 -3.1242
 1946TIP3    H2 5803   5.297   2.180   1.853  0.3448  0.1462 -2.1769
 1947TIP3   OH2 5804   2.578   4.369   1.195 -0.5583 -0.2786 -0.4701
 1947TIP3    H1 5805   2.556   4.413   1.277 -0.7275  0.1719 -0.7576
 1947TIP3    H2 5806   2.641   4.302   1.221  1.1894  1.3684 -0.3029
 1948TIP3   OH2 5807   6.819   6.053   3.841 -0.0566 -0.3792 -0.2027
 1948TIP3    H1 5808   6.840   6.118   3.908 -0.6878  0.4766 -0.8065
 1948TIP3    H2 5809   6.860   6.087   3.761 -0.1860 -0.8563 -0.4787
 1949TIP3   OH2 5810   2.522   5.953   4.044  0.3163  0.1670 -0.3586
 1949TIP3    H1 5811   2.595   5.899   4.074  0.4001  0.3989 -0.1289
 1949TIP3    H2 5812   2.563   6.036   4.018  0.2226  0.0216 -0.9692
 1950TIP3   OH2 5813   5.109   6.013   0.781  0.2858  0.3447  0.4897
 1950TIP3    H1 5814   5.115   5.948   0.711 -2.9824  0.0942  0.2651
 1950TIP3    H2 5815   5.134   6.096   0.739 -2.4076  0.3586 -1.3967
 1951TIP3   OH2 5816   6.674   5.542   2.318  0.7585 -0.5506  0.3245
 1951TIP3    H1 5817   6.587   5.526   2.354  0.8111 -0.1316  0.6426
 1951TIP3    H2 5818   6.671   5.504   2.230  0.2442 -0.4994  0.3199
 1952TIP3   OH2 5819   6.902   3.083   2.345  0.0395 -0.7111  0.4755
 1952TIP3    H1 5820   6.925   3.069   2.253  0.4154  1.1449  0.2621
 1952TIP3    H2 5821   6.808   3.101   2.344 -0.1990 -1.8722  0.6135
 1953TIP3   OH2 5822   5.010   5.736   0.851  0.3391  0.1144 -0.2010
 1953TIP3    H1 5823   5.042   5.826   0.859 -0.3172  0.2282  1.6407
 1953TIP3    H2 5824   4.918   5.745   0.825  0.0084  0.0262  0.9020
 1954TIP3   OH2 5825   2.924   4.775   1.941 -0.1151 -0.0191 -0.1364
 1954TIP3    H1 5826   2.861   4.722   1.990 -0.0388 -0.1468 -0.1774
 1954TIP3    H2 5827   2.970   4.712   1.885 -0.8790  0.2490 -1.0937
 1955TIP3   OH2 5828   6.262   2.905   5.303 -0.4390 -0.1818 -0.3050
 1955TIP3    H1 5829   6.320   2.893   5.227  1.3341  1.3313  0.7198
 1955TIP3    H2 5830   6.201   2.832   5.298  0.5234 -0.9271 -2.3923
 1956TIP3   OH2 5831   4.939   2.101   1.726 -0.0694 -0.1329  0.0773
 1956TIP3    H1 5832   4.969   2.066   1.642  1.0473 -2.4889  1.3710
 1956TIP3    H2 5833   5.015   2.094   1.783 -0.5137  2.3637  1.0791
 1957TIP3   OH2 5834   3.218   0.715   5.915  0.0156  0.2677 -0.0419
 1957TIP3    H1 5835   3.276   0.672   5.852  0.4662 -0.0939  0.6131
 1957TIP3    H2 5836   3.207   0.804   5.881  2.6783  1.0356  0.9140
 1958TIP3   OH2 5837   1.059   1.602   3.150 -0.1642 -0.7022 -0.2147
 1958TIP3    H1 5838   1.059   1.524   3.204 -0.5883  0.5906  1.7656
 1958TIP3    H2 5839   0.968   1.635   3.154  0.2525  0.4931 -0.0642
 1959TIP3   OH2 5840   5.121   6.123   1.165 -0.3799  0.3265 -0.6859
 1959TIP3    H1 5841   5.083   6.195   1.116  0.7231  0.4773 -1.3536
 1959TIP3    H2 5842   5.072   6.121   1.247 -0.8253  1.4435 -0.9111
 1960TIP3   OH2 5843   2.429   2.209   5.653  0.5483 -0.0800  0.0806
 1960TIP3    H1 5844   2.429   2.135   5.592 -1.4224 -0.6591  0.7161
 1960TIP3    H2 5845   2.520   2.215   5.682  0.4952 -3.7089  1.6298
 1961TIP3   OH2 5846   0.310   3.404   0.221 -0.1820 -0.8778 -0.2134
 1961TIP3    H1 5847   0.353   3.399   0.307 -0.3225 -1.7340 -0.1837
 1961TIP3    H2 5848   0.324   3.318   0.182 -0.3159 -0.5666 -0.9597
 1962TIP3   OH2 5849   3.943   3.288   0.603  0.3477  0.0073 -0.1200
 1962TIP3    H1 5850   3.863   3.235   0.604  0.8221 -0.8308 -2.0877
 1962TIP3    H2 5851   3.994   3.253   0.530  1.6955  1.7402 -0.0701
 1963TIP3   OH2 5852   6.858   4.704   1.389  1.0456  0.7358 -0.3612
 1963TIP3    H1 5853   6.920   4.711   1.317 -0.1323  0.0770 -1.4859
 1963TIP3    H2 5854   6.889   4.767   1.454  1.6180  2.0196 -1.8240
 1964TIP3   OH2 5855   1.055   6.015   5.062 -0.6400 -0.3619 -0.1063
 1964TIP3    H1 5856   1.007   5.982   5.138  0.3529 -2.6134 -0.3891
 1964TIP3    H2 5857   0.989   6.062   5.011 -1.8861 -0.9343  0.9187
 1965TIP3   OH2 5858   2.684   5.730   0.891 -0.0139 -0.5084  0.1462
 1965TIP3    H1 5859   2.612   5.666   0.889  0.9361 -1.6193  0.4159
 1965TIP3    H2 5860   2.674   5.776   0.975  1.0836 -2.4828  1.4370
 1966TIP3   OH2 5861   3.424   4.571   2.125  0.1615 -0.0078  0.2940
 1966TIP3    H1 5862   3.419   4.479   2.151  2.3313  0.0490  1.1355
 1966TIP3    H2 5863   3.516   4.584   2.101 -0.7075  1.1980 -2.9013
 1967TIP3   OH2 5864   2.374   5.826   2.176 -0.0564 -0.2867 -0.1269
 1967TIP3    H1 5865   2.395   5.750   2.230  1.5913 -0.2115 -0.6007
 1967TIP3    H2 5866   2.305   5.795   2.117  0.4827 -1.3639 -0.2138
 1968TIP3   OH2 5867   6.657   4.555   4.076  0.0546 -0.0520  0.0330
 1968TIP3    H1 5868   6.736   4.505   4.057  0.6021  1.1613 -1.0744
 1968TIP3    H2 5869   6.679   4.606   4.154  0.2018 -0.0594 -0.0037
 1969TIP3   OH2 5870   6.109   1.042   4.812 -0.2629  0.1702  0.1415
 1969TIP3    H1 5871   6.141   1.106   4.748 -0.0002  0.6413  0.7334
 1969TIP3    H2 5872   6.068   1.095   4.880 -0.6156 -0.3328  0.3214
 1970TIP3   OH2 5873   5.973   2.304   4.182 -0.1419  0.0229 -0.0411
 1970TIP3    H1 5874   6.027   2.239   4.225  0.5536  0.3723 -0.3763
 1970TIP3    H2 5875   5.913   2.335   4.250 -0.4219 -0.8905  0.1390
 1971TIP3   OH2 5876   5.512   6.195   1.269  0.0242 -0.1718  0.2736
 1971TIP3    H1 5877   5.455   6.120   1.289  1.3785 -0.7913  2.1359
 1971TIP3    H2 5878   5.457   6.272   1.285 -1.0951 -0.7129 -0.7256
 1972TIP3   OH2 5879   6.270   0.328   5.487  0.1306  0.0224  0.3938
 1972TIP3    H1 5880   6.217   0.288   5.556  0.0146  1.5872  1.2560
 1972TIP3    H2 5881   6.360   0.316   5.515  0.0632  2.1224  1.7715
 1973TIP3   OH2 5882   4.917   2.610   1.041 -0.1411 -0.0425  0.3375
 1973TIP3    H1 5883   4.881   2.638   0.957  0.1655 -2.4716 -0.7049
 1973TIP3    H2 5884   5.012   2.610   1.028  0.0511  1.6411  1.4509
 1974TIP3   OH2 5885   2.477   4.814   1.804 -0.7239  0.6569 -0.0591
 1974TIP3    H1 5886   2.551   4.873   1.789 -0.3725  0.2147 -0.0891
 1974TIP3    H2 5887   2.438   4.845   1.886  0.4804 -0.0954  0.8227
 1975TIP3   OH2 5888   5.026   2.868   2.007  0.1880 -0.4347  0.2714
 1975TIP3    H1 5889   5.086   2.800   2.037  0.9931 -0.3694 -1.1223
 1975TIP3    H2 5890   5.051   2.945   2.059  2.3554 -0.0065 -1.2309
 1976TIP3   OH2 5891   4.248   3.692   1.758 -0.0374 -0.1130 -0.2012
 1976TIP3    H1 5892   4.165   3.677   1.713 -0.9138  2.5629  0.3532
 1976TIP3    H2 5893   4.314   3.679   1.690 -0.9059 -1.6595 -0.8142
 1977TIP3   OH2 5894   1.431   1.132   4.210  0.6134 -0.3278 -0.3344
 1977TIP3    H1 5895   1.415   1.100   4.299  0.9633 -1.2360 -0.5886
 1977TIP3    H2 5896   1.382   1.215   4.205 -1.1799 -1.3214  0.0178
 1978TIP3   OH2 5897   3.081   5.957   1.716 -0.1327  0.0012  0.3135
 1978TIP3    H1 5898   3.051   5.868   1.733 -0.4535  0.2483  1.0535
 1978TIP3    H2 5899   3.002   6.011   1.718  0.0279  0.2853 -0.3467
 1979TIP3   OH2 5900   1.869   2.948   4.939  0.4832  0.6171 -0.1466
 1979TIP3    H1 5901   1.907   3.035   4.954  0.0781  0.6575  0.7118
 1979TIP3    H2 5902   1.930   2.905   4.879 -0.4145  2.2648 -2.3844
 1980TIP3   OH2 5903   6.033   4.007   2.584  0.2024 -0.1840 -0.0053
 1980TIP3    H1 5904   6.113   3.977   2.628  0.1311  0.5336  0.6199
 1980TIP3    H2 5905   5.976   3.930   2.583  0.8534 -0.6780 -0.3773
 1981TIP3   OH2 5906   6.189   1.104   5.508 -0.0723 -0.3521  0.5267
 1981TIP3    H1 5907   6.191   1.027   5.565  0.5067 -2.0556 -1.6539
 1981TIP3    H2 5908   6.115   1.090   5.450 -0.8731  1.5204  1.0352
 1982TIP3   OH2 5909   4.743   1.528   2.601 -0.1332 -0.2632  0.3925
 1982TIP3    H1 5910   4.753   1.447   2.550 -0.5342  0.2513 -0.5286
 1982TIP3    H2 5911   4.761   1.502   2.691  3.6092 -0.6438 -0.2663
 1983TIP3   OH2 5912   3.928   4.813   2.315  0.2555  0.0468 -0.8644
 1983TIP3    H1 5913   3.929   4.839   2.223  0.3323  3.5835 -0.0060
 1983TIP3    H2 5914   3.841   4.774   2.328 -0.9068  2.1299 -1.8690
 1984TIP3   OH2 5915   4.378   3.219   5.896  0.3768  0.1534  0.0945
 1984TIP3    H1 5916   4.341   3.221   5.808  0.7363  0.0753 -0.0589
 1984TIP3    H2 5917   4.453   3.278   5.891 -0.4080  1.2613  0.7152
 1985TIP3   OH2 5918   2.545   3.770   1.080 -0.5115  0.5342 -0.3310
 1985TIP3    H1 5919   2.617   3.834   1.080  1.9519 -1.9602  1.9555
 1985TIP3    H2 5920   2.579   3.696   1.029 -1.5260 -0.5889  0.5621
 1986TIP3   OH2 5921   6.430   2.077   3.460  0.0715  0.7124 -0.0967
 1986TIP3    H1 5922   6.384   2.058   3.378 -0.8560  1.7363  0.1739
 1986TIP3    H2 5923   6.361   2.081   3.526  0.4572  2.6723  0.2465
 1987TIP3   OH2 5924   0.030   4.183   4.395  0.3056  0.0164 -0.0981
 1987TIP3    H1 5925  -0.042   4.161   4.336  0.2572  1.0034 -0.4409
 1987TIP3    H2 5926   0.070   4.260   4.354  0.9521  0.0514  0.5938
 1988TIP3   OH2 5927   6.438   1.866   3.873 -0.6099  0.6878 -0.1565
 1988TIP3    H1 5928   6.489   1.930   3.824  0.9049 -0.3988 -0.0903
 1988TIP3    H2 5929   6.502   1.799   3.898 -1.8415 -0.0733  1.0874
 1989TIP3   OH2 5930   3.584   2.360   4.840  0.2098 -0.0171 -0.0453
 1989TIP3    H1 5931   3.604   2.454   4.845 -0.0227 -0.0456  1.7402
 1989TIP3    H2 5932   3.518   2.354   4.770 -0.5172  1.2973  0.4883
 1990TIP3   OH2 5933   0.380   5.363   5.512 -0.4221 -0.0018  0.2033
 1990TIP3    H1 5934   0.336   5.331   5.434 -0.8646 -1.3443  0.9647
 1990TIP3    H2 5935   0.322   5.431   5.546 -1.9530 -1.6932  1.1553
 1991TIP3   OH2 5936   1.688   1.227   4.156  0.0451 -0.6853 -0.5174
 1991TIP3    H1 5937   1.597   1.197   4.147 -1.0817  1.6023  1.8297
 1991TIP3    H2 5938   1.696   1.299   4.094  0.7675 -1.8032 -1.7574
 1992TIP3   OH2 5939   1.935   2.042   2.934  0.6334  0.0069 -0.1207
 1992TIP3    H1 5940   1.912   1.966   2.986 -0.1537 -0.0823 -0.5777
 1992TIP3    H2 5941   1.860   2.101   2.942  0.2723 -0.2235 -1.5241
 1993TIP3   OH2 5942   5.132   6.573   5.321  0.3427 -0.4006 -0.3127
 1993TIP3    H1 5943   5.130   6.597   5.229  1.2470  2.4175  0.3197
 1993TIP3    H2 5944   5.188   6.638   5.362 -0.6608 -1.0938  2.3771
 1994TIP3   OH2 5945   1.131   3.354   1.444  0.0970  0.0170  0.1205
 1994TIP3    H1 5946   1.142   3.285   1.379 -0.5574  0.7553 -0.8050
 1994TIP3    H2 5947   1.130   3.436   1.393 -0.7887  0.5851  1.0088
 1995TIP3   OH2 5948   4.854   0.145   2.586 -0.1709 -0.5956 -0.2980
 1995TIP3    H1 5949   4.775   0.093   2.568 -0.7848  0.7424 -1.6601
 1995TIP3    H2 5950   4.838   0.183   2.673 -0.4459 -1.3287 -0.0169
 1996TIP3   OH2 5951   0.934   4.051   3.281 -0.1734 -0.2690  0.9493
 1996TIP3    H1 5952   0.986   3.993   3.337  0.3245 -0.6601  0.0963
 1996TIP3    H2 5953   0.998   4.097   3.227 -0.5762  0.9022  1.4277
 1997TIP3   OH2 5954   2.813   4.940   3.622 -0.1366  0.1068  0.7249
 1997TIP3    H1 5955   2.858   4.973   3.544 -2.2634 -0.3508 -0.7896
 1997TIP3    H2 5956   2.884   4.915   3.682  1.6096 -0.1938 -1.3388
 1998TIP3   OH2 5957   0.600   5.070   4.726 -0.6174  0.5643  0.0062
 1998TIP3    H1 5958   0.597   4.977   4.704  1.0557  0.4120  0.2781
 1998TIP3    H2 5959   0.621   5.071   4.819  0.8031  1.1860 -0.2947
 1999TIP3   OH2 5960   1.346   4.671   3.263  0.2033  0.4508  0.2227
 1999TIP3    H1 5961   1.327   4.651   3.171 -0.3031  1.6379  0.0530
 1999TIP3    H2 5962   1.324   4.764   3.273 -2.6839 -0.3110  2.3014
 2000TIP3   OH2 5963   3.786   6.301   5.832  0.2031  0.1194  0.2996
 2000TIP3    H1 5964   3.873   6.336   5.848 -0.0310  0.8781 -0.0733
 2000TIP3    H2 5965   3.799   6.232   5.767  0.4398  0.7017 -0.2771
 2001TIP3   OH2 5966   6.783   5.046   5.813 -0.7074  0.1270  0.3265
 2001TIP3    H1 5967   6.879   5.047   5.817 -0.4918 -1.6013 -1.9155
 2001TIP3    H2 5968   6.755   5.067   5.901  1.7398  0.7890  1.0292
 2002TIP3   OH2 5969   3.103   3.233   3.816  0.3395  0.0295 -0.0239
 2002TIP3    H1 5970   3.108   3.139   3.800  0.0067  0.0734 -0.3950
 2002TIP3    H2 5971   3.189   3.256   3.851  0.6715 -0.2795 -0.6303
 2003TIP3   OH2 5972   3.761   4.429   5.170  0.1671  0.1920  0.0970
 2003TIP3    H1 5973   3.818   4.485   5.222  0.6275 -0.5363  0.3958
 2003TIP3    H2 5974   3.816   4.401   5.096 -1.1882  3.2287 -2.2730
 2004TIP3   OH2 5975   5.097   6.742   3.101  0.3893 -0.1626  0.6057
 2004TIP3    H1 5976   5.138   6.663   3.136  0.1578 -0.5340  0.0649
 2004TIP3    H2 5977   5.012   6.711   3.069  0.3570  0.2785  0.2619
 2005TIP3   OH2 5978   4.718   3.080   2.727 -0.2901  0.2775  0.3884
 2005TIP3    H1 5979   4.773   3.099   2.651 -0.3041 -0.0746  0.2915
 2005TIP3    H2 5980   4.771   3.106   2.802  1.0236 -2.3347  0.4703
 2006TIP3   OH2 5981   4.661   1.576   5.175  0.4224 -0.0714 -0.3645
 2006TIP3    H1 5982   4.655   1.655   5.229 -1.5438 -0.4691  0.1117
 2006TIP3    H2 5983   4.731   1.594   5.113  1.4007  1.2159  1.0350
 2007TIP3   OH2 5984   7.166   5.462   0.605 -0.4644  0.0413 -0.0697
 2007TIP3    H1 5985   7.115   5.540   0.626 -0.9128 -0.3102  0.1425
 2007TIP3    H2 5986   7.149   5.401   0.676  1.7130  0.5893  1.0265
 2008TIP3   OH2 5987   1.748   6.282   4.340  0.1348 -0.2244 -0.2394
 2008TIP3    H1 5988   1.826   6.230   4.355 -0.0665 -0.5516 -0.3106
 2008TIP3    H2 5989   1.678   6.235   4.385  0.4201  1.4818  2.2098
 2009TIP3   OH2 5990   6.462   0.671   4.294  0.2017  0.3010  0.3392
 2009TIP3    H1 5991   6.442   0.636   4.381 -1.0932  0.3978  0.1035
 2009TIP3    H2 5992   6.531   0.736   4.309  0.2122  0.0949  1.2440
 2010TIP3   OH2 5993   0.414   2.629   3.909  0.4162 -0.4597  0.7153
 2010TIP3    H1 5994   0.448   2.571   3.841 -0.6234 -1.0845  0.7153
 2010TIP3    H2 5995   0.398   2.712   3.864  1.1766 -0.3968  0.5464
 2011TIP3   OH2 5996   0.469   2.317   4.219  0.3836  0.1555  0.1214
 2011TIP3    H1 5997   0.488   2.224   4.207  2.2125  0.3646  1.0128
 2011TIP3    H2 5998   0.381   2.328   4.185 -0.0664 -1.9993  0.4264
 2012TIP3   OH2 5999   1.350   5.898   1.275 -0.4291  0.0019  0.2202
 2012TIP3    H1 6000   1.404   5.819   1.268 -0.7984 -0.3034  0.7369
 2012TIP3    H2 6001   1.386   5.958   1.210 -0.8236 -0.9982 -0.9679
 2013TIP3   OH2 6002   0.306   3.788   3.203  0.7966  0.5693 -0.3382
 2013TIP3    H1 6003   0.271   3.719   3.259  0.1639  1.4937  0.4390
 2013TIP3    H2 6004   0.399   3.765   3.192  0.7925  0.0496  0.5902
 2014TIP3   OH2 6005   3.019   4.202   5.208  0.2225 -0.2219 -0.3644
 2014TIP3    H1 6006   3.004   4.296   5.219  2.2629  0.0445  0.6699
 2014TIP3    H2 6007   3.025   4.189   5.114 -0.6436  0.5523 -0.5437
 2015TIP3   OH2 6008   0.107   6.553   0.252  0.1272 -0.1490 -0.0187
 2015TIP3    H1 6009   0.122   6.624   0.190  0.3830 -1.1950 -1.2115
 2015TIP3    H2 6010   0.031   6.506   0.217 -0.0149 -0.4767  0.7186
 2016TIP3   OH2 6011   2.385   2.332   0.153 -0.2155 -0.7279  0.3545
 2016TIP3    H1 6012   2.417   2.379   0.077  0.3166 -0.3477  0.7998
 2016TIP3    H2 6013   2.398   2.393   0.226  0.9564 -1.7276  1.0248
 2017TIP3   OH2 6014   7.059   5.925   1.403  0.5224 -0.0791  0.0610
 2017TIP3    H1 6015   7.082   5.937   1.311  0.4868  1.1583  0.1938
 2017TIP3    H2 6016   7.048   5.830   1.413  2.2130 -0.4102 -0.7942
 2018TIP3   OH2 6017   6.692   2.059   4.052 -0.1978  0.3740 -0.3228
 2018TIP3    H1 6018   6.619   2.094   4.002  1.1282  2.6228 -0.7813
 2018TIP3    H2 6019   6.726   2.133   4.102  1.7254 -0.6000 -0.0572
 2019TIP3   OH2 6020   3.614   5.553   4.673  0.1222 -0.9128 -0.2172
 2019TIP3    H1 6021   3.702   5.582   4.696 -0.4371  0.2550  0.5320
 2019TIP3    H2 6022   3.556   5.616   4.715 -1.1121 -2.1803  0.0462
 2020TIP3   OH2 6023   6.296   2.083   2.268  0.0537  0.9212 -0.2333
 2020TIP3    H1 6024   6.230   2.085   2.336 -1.2484  0.1186 -1.4148
 2020TIP3    H2 6025   6.379   2.094   2.314 -0.6562 -0.9119  1.6384
 2021TIP3   OH2 6026   4.946   0.937   2.819  0.1164  0.1045  0.3513
 2021TIP3    H1 6027   4.913   0.848   2.809  0.0541  0.0964  0.6209
 2021TIP3    H2 6028   5.026   0.928   2.872  0.6225  0.1112 -0.3963
 2022TIP3   OH2 6029   0.426   5.672   4.097  0.2284  0.5305 -0.4658
 2022TIP3    H1 6030   0.430   5.682   4.002  0.3085 -0.6077 -0.5985
 2022TIP3    H2 6031   0.367   5.598   4.111  0.7515  0.2457  0.3356
 2023TIP3   OH2 6032   6.395   5.296   0.863  0.0318  0.3288 -0.0308
 2023TIP3    H1 6033   6.385   5.329   0.774 -1.2096 -0.7475 -0.3184
 2023TIP3    H2 6034   6.486   5.266   0.868  0.2149  0.7457 -0.8068
 2024TIP3   OH2 6035   4.584   6.339   4.101  0.1960 -0.4902  0.0940
 2024TIP3    H1 6036   4.565   6.257   4.057 -1.0922  0.1786 -0.6523
 2024TIP3    H2 6037   4.601   6.401   4.030 -0.6231  0.3044  0.5639
 2025TIP3   OH2 6038   0.630   3.671   4.292 -0.1910 -0.4799  0.9431
 2025TIP3    H1 6039   0.607   3.750   4.244 -0.2123 -1.5084 -0.8338
 2025TIP3    H2 6040   0.550   3.645   4.337  0.4438  1.8546  3.7121
 2026TIP3   OH2 6041   5.814   6.438   2.634  0.7426  0.3304  0.3373
 2026TIP3    H1 6042   5.817   6.405   2.724  0.6955  1.2515  0.6863
 2026TIP3    H2 6043   5.747   6.506   2.636 -0.6882 -0.9469 -0.8580
 2027TIP3   OH2 6044   3.589   1.168   4.898 -0.4297 -0.5897  0.2377
 2027TIP3    H1 6045   3.634   1.232   4.843  0.9293 -2.0468 -0.4127
 2027TIP3    H2 6046   3.531   1.220   4.953 -0.4718  1.0674 -1.2970
 2028TIP3   OH2 6047   1.523   5.786   0.920  0.2890 -0.2993  0.5653
 2028TIP3    H1 6048   1.548   5.878   0.909  0.0576  0.2338  3.5040
 2028TIP3    H2 6049   1.429   5.784   0.899 -0.5780  1.0048  3.7128
 2029TIP3   OH2 6050   0.066   0.962   0.895 -0.4959  0.5064 -0.5965
 2029TIP3    H1 6051   0.150   0.967   0.849 -0.5954 -0.4783 -0.8957
 2029TIP3    H2 6052   0.076   0.890   0.958 -1.4118 -0.2497 -1.2826
 2030TIP3   OH2 6053   6.986   3.347   5.831 -0.0291 -0.1652  0.0248
 2030TIP3    H1 6054   7.046   3.274   5.814  1.0347  0.9778 -1.2877
 2030TIP3    H2 6055   6.967   3.383   5.745 -1.2497  0.5805  0.5824
 2031TIP3   OH2 6056   1.105   4.831   2.947  0.6881  0.3674 -0.2766
 2031TIP3    H1 6057   1.022   4.793   2.919  0.3243  0.2809  0.8494
 2031TIP3    H2 6058   1.172   4.774   2.909  0.1752 -0.9258  0.6791
 2032TIP3   OH2 6059   6.597   3.937   0.335  0.2302 -0.2337 -0.3830
 2032TIP3    H1 6060   6.652   4.015   0.346 -0.4505  0.3722 -1.0897
 2032TIP3    H2 6061   6.615   3.908   0.245 -0.4022 -0.1814 -0.5307
 2033TIP3   OH2 6062   0.567   1.532   0.008 -0.2993 -0.1957  0.2610
 2033TIP3    H1 6063   0.534   1.601   0.066  0.1054 -0.0278  0.2962
 2033TIP3    H2 6064   0.503   1.527  -0.062 -0.9914 -0.6536  0.9131
 2034TIP3   OH2 6065   3.341   6.256   0.747  0.0023 -0.6019  0.2955
 2034TIP3    H1 6066   3.313   6.294   0.663 -0.8469 -1.0860  0.3466
 2034TIP3    H2 6067   3.383   6.328   0.793 -2.2717  0.5526  0.7305
 2035TIP3   OH2 6068   6.143   0.995   0.596  0.4927 -0.4733 -0.4128
 2035TIP3    H1 6069   6.187   1.012   0.512 -1.0321  1.1274 -0.9545
 2035TIP3    H2 6070   6.132   0.900   0.599  1.6150 -0.6549 -1.4796
 2036TIP3   OH2 6071   2.059   0.199   3.454 -0.0856  0.0528  0.4828
 2036TIP3    H1 6072   2.051   0.103   3.453  0.6643 -0.0262  1.3857
 2036TIP3    H2 6073   2.098   0.220   3.369 -0.8978 -0.3654 -0.0172
 2037TIP3   OH2 6074   5.929   3.178   3.417  0.2840  0.0185  0.2924
 2037TIP3    H1 6075   5.979   3.180   3.335  0.3417 -0.4919  0.3102
 2037TIP3    H2 6076   5.994   3.155   3.484 -0.4261 -3.7752 -0.0960
 2038TIP3   OH2 6077   2.931   1.972   5.482  0.2079  0.0371  0.2742
 2038TIP3    H1 6078   2.885   2.055   5.497 -0.1317  0.2566 -1.6738
 2038TIP3    H2 6079   3.010   1.996   5.434 -0.1744 -0.7963 -0.8123
 2039TIP3   OH2 6080   5.955   2.412   2.335  0.0279 -0.1726 -0.2128
 2039TIP3    H1 6081   6.043   2.422   2.299 -0.7809  2.0612 -1.7511
 2039TIP3    H2 6082   5.898   2.457   2.273 -1.9621  0.2546  1.7933
 2040TIP3   OH2 6083   6.783   4.677   2.155  0.3290 -0.0493  0.3017
 2040TIP3    H1 6084   6.848   4.675   2.085  2.0884  0.2807  1.8579
 2040TIP3    H2 6085   6.769   4.770   2.173 -0.6741 -0.1119 -0.0820
 2041TIP3   OH2 6086   1.006   6.486   2.135  0.0238 -0.0280 -0.3895
 2041TIP3    H1 6087   1.043   6.437   2.062 -0.3898 -1.0929  0.0797
 2041TIP3    H2 6088   1.080   6.534   2.173  0.2543  0.4680 -1.4358
 2042TIP3   OH2 6089   1.372   1.806   3.809 -0.5977  0.4649  0.1139
 2042TIP3    H1 6090   1.346   1.773   3.723 -0.1011 -0.7513  0.4079
 2042TIP3    H2 6091   1.457   1.847   3.794 -0.0327 -0.6325  0.1794
 2043TIP3   OH2 6092   4.880   5.415   5.374  0.2637  0.2587 -0.4961
 2043TIP3    H1 6093   4.809   5.405   5.437  1.0321 -0.9992  0.2074
 2043TIP3    H2 6094   4.838   5.410   5.289 -0.5193 -0.3008 -0.0884
 2044TIP3   OH2 6095   0.661   5.026   4.984 -0.0503 -0.2572  0.1126
 2044TIP3    H1 6096   0.619   4.953   5.029  0.4276 -0.8190 -0.3279
 2044TIP3    H2 6097   0.751   5.025   5.017 -0.4902  1.3188  1.5217
 2045TIP3   OH2 6098   6.370   6.594   3.769 -0.6113 -0.0112 -0.4887
 2045TIP3    H1 6099   6.401   6.608   3.680  0.8584 -1.6782 -0.2815
 2045TIP3    H2 6100   6.321   6.512   3.766 -1.4969  0.4693  0.0490
 2046TIP3   OH2 6101   3.788   5.824   3.741  0.2231 -0.6343 -0.3066
 2046TIP3    H1 6102   3.695   5.842   3.753  0.6476  1.0282  1.0043
 2046TIP3    H2 6103   3.798   5.732   3.766 -0.9897 -0.6778  0.0955
 2047TIP3   OH2 6104   5.277   2.089   0.450 -0.2643 -0.2957 -0.3303
 2047TIP3    H1 6105   5.212   2.021   0.467  1.4307 -2.0823 -0.6212
 2047TIP3    H2 6106   5.255   2.124   0.364 -2.2064  0.8656  0.5602
 2048TIP3   OH2 6107   6.754   3.002   0.013 -0.7341 -0.3364  0.2308
 2048TIP3    H1 6108   6.674   2.965   0.052 -0.1460 -0.1587  1.6787
 2048TIP3    H2 6109   6.810   3.021   0.088  0.7561 -0.6285 -0.7726
 2049TIP3   OH2 6110   4.610   5.484   0.232  0.0598 -0.1209  0.4445
 2049TIP3    H1 6111   4.671   5.411   0.230  0.4278  0.1878  0.2829
 2049TIP3    H2 6112   4.605   5.509   0.324 -0.8449 -0.9876  0.6542
 2050TIP3   OH2 6113   5.719   1.222   1.581 -0.6682  0.3529  0.2610
 2050TIP3    H1 6114   5.790   1.178   1.628 -1.5337  0.4757  1.7421
 2050TIP3    H2 6115   5.709   1.172   1.499  0.5175 -0.1975  0.4436
 2051TIP3   OH2 6116   2.597   3.057   4.117  0.1749 -0.2816 -0.0484
 2051TIP3    H1 6117   2.519   3.074   4.168 -0.6305  2.1845 -1.9090
 2051TIP3    H2 6118   2.670   3.085   4.172 -0.5811  1.2315  0.2089
 2052TIP3   OH2 6119   5.318   0.643   2.224  0.0026 -0.1976 -0.7037
 2052TIP3    H1 6120   5.241   0.683   2.262  0.1111  0.1525 -0.8511
 2052TIP3    H2 6121   5.317   0.553   2.257 -0.5948 -0.2665 -0.8963
 2053TIP3   OH2 6122   0.442   2.275   5.676 -0.0109  0.0828 -0.1711
 2053TIP3    H1 6123   0.418   2.319   5.594  0.0615 -0.1643 -0.3259
 2053TIP3    H2 6124   0.502   2.335   5.719 -0.2895  0.3522 -0.1555
 2054TIP3   OH2 6125   6.524   0.801   4.904  0.5921 -0.0011 -0.1235
 2054TIP3    H1 6126   6.433   0.813   4.876  0.8858 -0.3275 -1.2449
 2054TIP3    H2 6127   6.519   0.804   5.000 -0.7915 -1.2602 -0.1062
 2055TIP3   OH2 6128   5.725   0.800   0.269  0.1665  0.2227 -1.0473
 2055TIP3    H1 6129   5.647   0.813   0.215 -0.2358  1.1767 -0.2826
 2055TIP3    H2 6130   5.763   0.887   0.278  1.1125 -0.1748 -1.0871
 2056TIP3   OH2 6131   1.991   6.003   4.852 -0.0611 -0.4626  0.6667
 2056TIP3    H1 6132   1.952   6.052   4.779 -1.6653 -0.0159  1.7726
 2056TIP3    H2 6133   1.958   5.914   4.842  1.9483 -1.1193 -0.6916
 2057TIP3   OH2 6134   6.341   2.918   5.782  0.0875 -0.1067 -0.1572
 2057TIP3    H1 6135   6.420   2.972   5.791 -0.1916  0.4239 -0.8407
 2057TIP3    H2 6136   6.372   2.828   5.798  0.4724  0.2707  1.4334
 2058TIP3   OH2 6137   5.414   5.084   1.718 -1.0044 -0.4827  0.0679
 2058TIP3    H1 6138   5.458   5.159   1.758  1.0791 -2.3578  1.4980
 2058TIP3    H2 6139   5.394   5.113   1.629  0.3817  1.5305  0.3414
 2059TIP3   OH2 6140   4.795   5.204   3.292  0.1642 -0.2801  0.1365
 2059TIP3    H1 6141   4.755   5.290   3.301  1.9398  0.4473  1.8463
 2059TIP3    H2 6142   4.886   5.222   3.268 -0.0764 -1.8163 -2.2681
 2060TIP3   OH2 6143   5.631   1.575   1.413  0.1921  0.1491 -0.0183
 2060TIP3    H1 6144   5.695   1.574   1.342  0.3890 -2.1536  0.1099
 2060TIP3    H2 6145   5.682   1.563   1.493 -0.2452  0.1930  0.2740
 2061TIP3   OH2 6146   6.928   1.297   1.122 -0.2669  0.2718 -0.1078
 2061TIP3    H1 6147   7.014   1.297   1.163 -0.8960 -1.9707  1.4576
 2061TIP3    H2 6148   6.867   1.315   1.194 -1.1340  1.9995 -1.2193
 2062TIP3   OH2 6149   0.324   4.023   3.580 -0.1007 -0.5239  0.0056
 2062TIP3    H1 6150   0.406   3.981   3.555  0.0605 -1.6096  2.1368
 2062TIP3    H2 6151   0.334   4.114   3.552  1.4668 -0.8315 -0.5138
 2063TIP3   OH2 6152   4.518   1.068   3.958 -0.3202  0.2974  0.0983
 2063TIP3    H1 6153   4.586   1.014   3.998 -0.4910  0.2141  0.2805
 2063TIP3    H2 6154   4.554   1.156   3.957 -0.3056  0.2954  0.4156
 2064TIP3   OH2 6155   2.267   1.967   0.699 -0.4977 -0.4852 -0.3179
 2064TIP3    H1 6156   2.269   1.880   0.659 -0.1032 -1.4536  1.6542
 2064TIP3    H2 6157   2.297   1.952   0.789  1.1308  1.9590 -0.3804
 2065TIP3   OH2 6158   2.563   0.793   1.332  0.1283  0.2092  0.0587
 2065TIP3    H1 6159   2.630   0.731   1.305 -0.8933 -1.2984  0.8544
 2065TIP3    H2 6160   2.525   0.825   1.250  0.9151  0.0711 -0.3679
 2066TIP3   OH2 6161   1.513   3.898   0.481 -0.3011 -0.3774  0.3663
 2066TIP3    H1 6162   1.453   3.826   0.498  0.0870 -0.7581  0.1565
 2066TIP3    H2 6163   1.495   3.962   0.550 -2.2269  0.3675 -0.7478
 2067TIP3   OH2 6164   3.120   0.089   4.214  0.1951  0.4117 -0.1942
 2067TIP3    H1 6165   3.127   0.058   4.304 -0.2365  1.6502  0.2905
 2067TIP3    H2 6166   3.042   0.047   4.180  0.5244 -0.2907 -0.0928
 2068TIP3   OH2 6167   3.858   5.852   5.073  0.0810  0.4903  0.0226
 2068TIP3    H1 6168   3.891   5.797   5.145  2.3006  0.6425 -0.8161
 2068TIP3    H2 6169   3.769   5.820   5.058  0.6470 -1.6192  0.8010
 2069TIP3   OH2 6170   7.074   5.247   0.175 -0.4842 -0.1565  0.4930
 2069TIP3    H1 6171   7.154   5.299   0.184  1.3350 -2.5367 -0.6299
 2069TIP3    H2 6172   7.015   5.303   0.125  0.6633  1.4834  0.8681
 2070TIP3   OH2 6173   5.434   3.685   1.889 -0.0012 -0.2302  0.0475
 2070TIP3    H1 6174   5.356   3.664   1.940 -1.4550 -0.6601 -2.2191
 2070TIP3    H2 6175   5.471   3.600   1.865  1.1881 -0.0288  1.0779
 2071TIP3   OH2 6176   0.727   0.545   2.162  0.3190  0.4410  0.4418
 2071TIP3    H1 6177   0.730   0.640   2.150  0.5959  0.2887 -0.8430
 2071TIP3    H2 6178   0.634   0.523   2.158  0.3622  0.4255 -1.5559
 2072TIP3   OH2 6179   5.215   1.300   2.683  0.0852  0.6480  0.0110
 2072TIP3    H1 6180   5.275   1.233   2.714 -0.1154  0.5379  0.1688
 2072TIP3    H2 6181   5.254   1.382   2.710  1.5068  0.7589 -2.1654
 2073TIP3   OH2 6182   0.635   2.459   2.483  0.3147 -0.5968  0.2301
 2073TIP3    H1 6183   0.646   2.530   2.420 -0.6102  0.0533  0.7737
 2073TIP3    H2 6184   0.687   2.387   2.448  0.0077 -0.1727 -1.1422
 2074TIP3   OH2 6185   4.478   0.844   5.791 -0.3676 -0.4536 -0.2924
 2074TIP3    H1 6186   4.509   0.929   5.761  1.7846 -1.0182  0.1355
 2074TIP3    H2 6187   4.383   0.852   5.792 -0.2519  1.6756 -1.0060
 2075TIP3   OH2 6188   2.161   0.511   4.417 -0.0386  0.5366  0.5539
 2075TIP3    H1 6189   2.150   0.559   4.335  0.2544 -1.4486 -0.7113
 2075TIP3    H2 6190   2.127   0.570   4.484 -0.5972  2.0909 -1.0202
 2076TIP3   OH2 6191   6.264   6.565   5.737 -0.2011 -0.3050 -0.1400
 2076TIP3    H1 6192   6.200   6.517   5.790 -0.8230 -0.1040 -0.6902
 2076TIP3    H2 6193   6.349   6.530   5.764 -0.6138 -1.4067 -0.2292
 2077TIP3   OH2 6194   6.507   1.851   4.620 -0.5645  0.4509  0.2409
 2077TIP3    H1 6195   6.569   1.794   4.664 -0.9970  0.2572  0.6099
 2077TIP3    H2 6196   6.531   1.940   4.646 -0.9402  0.3261  1.0329
 2078TIP3   OH2 6197   2.582   0.875   3.387 -0.0675  0.3233  0.0096
 2078TIP3    H1 6198   2.530   0.796   3.376 -1.0335  0.7248  1.4009
 2078TIP3    H2 6199   2.535   0.942   3.337 -0.7118  0.6035  0.9725
 2079TIP3   OH2 6200   7.000   2.675   3.695  0.1716 -0.0646 -0.2944
 2079TIP3    H1 6201   7.052   2.646   3.769  0.2081  0.2574 -0.1931
 2079TIP3    H2 6202   6.957   2.596   3.663  1.1515 -0.4428 -0.7209
 2080TIP3   OH2 6203   1.624   0.306   5.483  0.2837  0.6458  0.0216
 2080TIP3    H1 6204   1.574   0.259   5.549  0.4527  0.6110  0.1259
 2080TIP3    H2 6205   1.558   0.349   5.428  0.1301  0.3308 -0.0423
 2081TIP3   OH2 6206   3.971   4.931   4.847 -0.3793 -0.1440  0.1650
 2081TIP3    H1 6207   4.016   5.014   4.831  1.7629 -0.6133  2.9967
 2081TIP3    H2 6208   3.880   4.956   4.864  0.2753  1.6773  1.2541
 2082TIP3   OH2 6209   6.253   5.253   1.082  0.3227  0.2250  0.0285
 2082TIP3    H1 6210   6.312   5.250   1.007  1.0018 -2.4362  0.5744
 2082TIP3    H2 6211   6.179   5.198   1.056 -0.9161  1.7350  0.2064
 2083TIP3   OH2 6212   5.491   0.857   2.832  0.0823 -0.7378  0.1059
 2083TIP3    H1 6213   5.481   0.838   2.739  0.1746  0.3251 -0.1326
 2083TIP3    H2 6214   5.401   0.870   2.864  0.1238  0.1534 -0.1209
 2084TIP3   OH2 6215   0.882   5.576   1.987  0.1899 -0.0676 -0.6934
 2084TIP3    H1 6216   0.972   5.607   1.989 -0.3788  1.7145 -0.6559
 2084TIP3    H2 6217   0.833   5.641   2.037 -1.1274 -1.0096 -0.6809
 2085TIP3   OH2 6218   6.927   1.866   1.861 -0.3732  0.1085  0.1005
 2085TIP3    H1 6219   6.897   1.778   1.836  0.8002 -0.2742 -0.0356
 2085TIP3    H2 6220   6.928   1.915   1.779  0.7314 -0.3074 -0.1524
 2086TIP3   OH2 6221   5.123   2.553   1.269 -0.4181  0.1038  0.3259
 2086TIP3    H1 6222   5.159   2.583   1.185 -0.3136  0.9831  0.6697
 2086TIP3    H2 6223   5.187   2.490   1.301 -0.1813  0.1698 -0.0068
 2087TIP3   OH2 6224   6.310   3.977   0.406 -0.0203  0.2212 -0.3975
 2087TIP3    H1 6225   6.290   3.884   0.414 -0.0136  0.2028 -0.5934
 2087TIP3    H2 6226   6.406   3.981   0.404  0.0310  0.3400  0.9242
 2088TIP3   OH2 6227   1.944   1.582   1.750  0.2788 -0.1013  0.2240
 2088TIP3    H1 6228   2.003   1.601   1.823  0.0757 -0.3538  0.4512
 2088TIP3    H2 6229   1.895   1.663   1.737 -0.8132 -0.5535  1.4043
 2089TIP3   OH2 6230   4.087   6.257   0.500  0.3073  0.4489  0.1578
 2089TIP3    H1 6231   4.177   6.238   0.474  0.0266 -0.6269 -0.0833
 2089TIP3    H2 6232   4.063   6.184   0.558 -0.4550  0.6479  0.1054
 2090TIP3   OH2 6233   6.659   4.923   2.248  0.2567 -0.3279 -0.6078
 2090TIP3    H1 6234   6.626   4.966   2.169  1.4021 -0.0813 -0.9658
 2090TIP3    H2 6235   6.589   4.862   2.272 -1.7305  2.1241  0.3002
 2091TIP3   OH2 6236   3.318   1.926   2.737 -0.0199 -0.4592 -0.4454
 2091TIP3    H1 6237   3.266   1.846   2.748 -3.1625  1.4835  0.0480
 2091TIP3    H2 6238   3.367   1.934   2.819 -0.7372 -1.1579  0.0646
 2092TIP3   OH2 6239   1.677   4.291   5.427  0.3849  0.0743  0.2942
 2092TIP3    H1 6240   1.626   4.351   5.481 -0.9129 -0.2201 -0.5757
 2092TIP3    H2 6241   1.620   4.215   5.414  0.8201 -0.0299 -1.1541
 2093TIP3   OH2 6242   6.535   3.420   1.904  0.0796 -0.1483  0.3745
 2093TIP3    H1 6243   6.463   3.361   1.926  1.0403 -1.4071  0.2562
 2093TIP3    H2 6244   6.541   3.479   1.979 -0.4266 -0.6725  0.8372
 2094TIP3   OH2 6245   3.460   3.909   0.280  0.0871 -0.2550  0.1362
 2094TIP3    H1 6246   3.432   3.877   0.195 -0.1030 -0.0170  0.1062
 2094TIP3    H2 6247   3.474   4.003   0.267 -2.0222  0.2257  0.8574
 2095TIP3   OH2 6248   3.718   0.257   3.562 -0.0774 -0.7260  0.3466
 2095TIP3    H1 6249   3.633   0.237   3.601 -0.3525  0.3624  0.3472
 2095TIP3    H2 6250   3.774   0.279   3.637 -0.2643  0.1682  0.2328
 2096TIP3   OH2 6251   6.656   1.290   0.124 -0.2370  0.5246 -0.2297
 2096TIP3    H1 6252   6.700   1.233   0.186  0.2326  1.5299  0.3872
 2096TIP3    H2 6253   6.709   1.285   0.045  0.1486  0.5721  0.0240
 2097TIP3   OH2 6254   4.698   4.716   0.012 -0.1199  0.0011 -0.1565
 2097TIP3    H1 6255   4.775   4.728  -0.044 -0.0450  0.3495  0.0238
 2097TIP3    H2 6256   4.722   4.757   0.095 -0.4653  0.0276 -0.0696
 2098TIP3   OH2 6257   3.141   4.232   3.820 -0.5848  0.4423 -0.0544
 2098TIP3    H1 6258   3.225   4.220   3.863 -0.7204  1.7679  0.6206
 2098TIP3    H2 6259   3.148   4.317   3.776 -0.8361 -0.3845 -1.7800
 2099TIP3   OH2 6260   4.057   2.624   4.616  0.2248  0.1213 -0.1638
 2099TIP3    H1 6261   4.066   2.698   4.556 -1.3355  1.4150  1.1255
 2099TIP3    H2 6262   4.147   2.606   4.645  0.7711  0.7066 -1.4063
 2100TIP3   OH2 6263   4.323   1.219   3.047 -0.2749 -0.4921  1.0731
 2100TIP3    H1 6264   4.290   1.161   2.978  1.5302 -0.4252  0.0902
 2100TIP3    H2 6265   4.269   1.298   3.041  0.5769 -0.0234 -1.0711
 2101TIP3   OH2 6266   2.725   4.946   2.372  1.0003 -0.1097 -0.3078
 2101TIP3    H1 6267   2.657   4.930   2.438  0.7793 -0.0168 -0.5133
 2101TIP3    H2 6268   2.782   5.011   2.412 -0.1524  1.3317 -0.9114
 2102TIP3   OH2 6269   4.723   1.101   0.763 -0.7086 -0.9170 -0.2798
 2102TIP3    H1 6270   4.736   1.009   0.740  0.6873 -0.9192  0.4493
 2102TIP3    H2 6271   4.804   1.127   0.807 -0.9402  0.7591 -0.7659
 2103TIP3   OH2 6272   5.934   2.866   3.379 -0.8723  0.7234  0.1678
 2103TIP3    H1 6273   5.857   2.865   3.436 -0.0097  0.2930  1.3723
 2103TIP3    H2 6274   5.968   2.955   3.386 -1.2667  0.9125 -0.3614
 2104TIP3   OH2 6275   3.220   2.514   1.013 -0.0536  0.0608 -0.6362
 2104TIP3    H1 6276   3.281   2.456   0.967  1.5600 -0.3996  1.8903
 2104TIP3    H2 6277   3.136   2.500   0.969  0.5804 -3.0926 -1.0590
 2105TIP3   OH2 6278   3.457   0.922   4.439  0.0436  0.5746 -0.4336
 2105TIP3    H1 6279   3.410   0.850   4.480 -0.0039  1.7496  1.7012
 2105TIP3    H2 6280   3.390   0.970   4.390  0.1835 -1.0909 -2.4233
 2106TIP3   OH2 6281   6.507   6.717   3.509  0.1958  0.4290  0.1103
 2106TIP3    H1 6282   6.481   6.806   3.483  0.3299  0.4328 -0.0121
 2106TIP3    H2 6283   6.451   6.660   3.456  0.3281  0.4385 -0.0416
 2107TIP3   OH2 6284   0.264   5.645   4.616  0.4895  0.0013  0.9183
 2107TIP3    H1 6285   0.352   5.632   4.650  0.4839  1.0521  1.3811
 2107TIP3    H2 6286   0.258   5.739   4.600 -0.2913 -0.1615  0.1583
 2108TIP3   OH2 6287   0.862   1.673   2.300 -0.2253 -0.4269  0.1096
 2108TIP3    H1 6288   0.942   1.636   2.337 -0.5566 -0.7587  0.5124
 2108TIP3    H2 6289   0.846   1.752   2.351 -1.1221 -1.3075  1.2631
 2109TIP3   OH2 6290   0.125   2.126   1.032 -0.1100  0.2633 -0.2260
 2109TIP3    H1 6291   0.127   2.063   0.959  0.6010 -0.6480  0.5538
 2109TIP3    H2 6292   0.188   2.194   1.006 -0.3607  0.3034 -0.7556
 2110TIP3   OH2 6293   0.879   0.202   3.393  0.2583 -0.1510  0.1216
 2110TIP3    H1 6294   0.961   0.180   3.438  0.5021 -0.5921 -0.5200
 2110TIP3    H2 6295   0.880   0.297   3.385 -0.2227  0.0319  1.8474
 2111TIP3   OH2 6296   3.418   4.484   1.596 -0.4365  0.6609  0.7249
 2111TIP3    H1 6297   3.502   4.440   1.581 -0.7795  0.0237  0.6300
 2111TIP3    H2 6298   3.385   4.445   1.677 -0.8184  0.6262  0.5538
 2112TIP3   OH2 6299   4.548   3.917   2.558 -0.2217  0.4407  0.5712
 2112TIP3    H1 6300   4.522   4.007   2.542 -0.6760  0.4186  1.1255
 2112TIP3    H2 6301   4.557   3.911   2.653  0.1012 -0.0160  0.5175
 2113TIP3   OH2 6302   2.629   0.640   1.732 -0.1193  0.3698  0.0720
 2113TIP3    H1 6303   2.712   0.636   1.780 -0.0457  0.2349 -0.0656
 2113TIP3    H2 6304   2.570   0.582   1.782  0.7489 -2.0508 -1.5252
 2114TIP3   OH2 6305   5.211   4.350   1.774 -0.6111 -0.4330 -0.2408
 2114TIP3    H1 6306   5.260   4.413   1.721 -1.7438  1.1093  0.4579
 2114TIP3    H2 6307   5.227   4.265   1.732  1.2363  0.2485 -1.0110
 2115TIP3   OH2 6308   4.847   6.465   5.774  0.4887 -0.0601  0.3218
 2115TIP3    H1 6309   4.766   6.438   5.731  0.3544 -1.4674  1.3927
 2115TIP3    H2 6310   4.819   6.497   5.860  1.0356 -0.2835  0.5896
 2116TIP3   OH2 6311   3.860   2.735   0.784 -0.0888  0.2988 -0.5315
 2116TIP3    H1 6312   3.837   2.805   0.724 -0.6079  0.2225 -0.4198
 2116TIP3    H2 6313   3.869   2.658   0.728  0.9981  0.5436 -0.7327
 2117TIP3   OH2 6314   0.746   6.230   5.784 -0.3267 -0.4164 -0.2515
 2117TIP3    H1 6315   0.817   6.206   5.724 -1.1057 -2.3877 -0.4593
 2117TIP3    H2 6316   0.668   6.237   5.728 -0.9369 -1.6482  0.3889
 2118TIP3   OH2 6317   3.305   6.235   2.602 -0.5794 -0.3870  0.4422
 2118TIP3    H1 6318   3.218   6.205   2.631 -0.4433 -1.2236  0.0022
 2118TIP3    H2 6319   3.362   6.216   2.676 -0.5333 -1.0467  0.2447
 2119TIP3   OH2 6320   4.510   0.186   3.731 -0.4665  0.5324  0.2702
 2119TIP3    H1 6321   4.433   0.132   3.746 -0.3157  0.9222  2.9603
 2119TIP3    H2 6322   4.509   0.249   3.803  0.8839  2.3360 -1.1851
 2120TIP3   OH2 6323   3.423   6.676   5.119  0.0823 -0.3136 -0.2457
 2120TIP3    H1 6324   3.446   6.669   5.212  0.9089  0.1460 -0.4151
 2120TIP3    H2 6325   3.430   6.769   5.099 -1.6442 -0.1777 -0.3898
 2121TIP3   OH2 6326   2.913   2.870   0.567  0.2578  0.0036 -0.3941
 2121TIP3    H1 6327   2.851   2.929   0.611  0.7643  0.4340 -0.2498
 2121TIP3    H2 6328   2.894   2.879   0.474  1.8313  2.1557 -0.5735
 2122TIP3   OH2 6329   7.162   5.056   0.406 -0.2523 -0.4036 -0.5109
 2122TIP3    H1 6330   7.160   5.098   0.319  0.4988  0.1712 -0.2574
 2122TIP3    H2 6331   7.082   5.002   0.408 -0.5679  0.0122 -1.3422
 2123TIP3   OH2 6332   1.903   0.352   5.442  0.1441  0.4984 -0.4118
 2123TIP3    H1 6333   1.815   0.364   5.406  0.4431 -0.1204 -1.3774
 2123TIP3    H2 6334   1.898   0.390   5.530 -0.8116  1.3479 -0.8140
 2124TIP3   OH2 6335   1.424   2.685   3.699 -0.4963 -0.2321  0.6079
 2124TIP3    H1 6336   1.461   2.649   3.618 -1.6047 -2.7799  1.1642
 2124TIP3    H2 6337   1.371   2.760   3.669 -0.7081 -0.9813 -1.0142
 2125TIP3   OH2 6338   4.448   1.868   0.783  0.1282 -0.0513 -0.1544
 2125TIP3    H1 6339   4.442   1.868   0.878  1.3603  0.8062 -0.0523
 2125TIP3    H2 6340   4.357   1.874   0.753 -0.3327 -1.1346  0.9309
 2126TIP3   OH2 6341   5.918   2.697   5.232  0.0255  0.1258 -0.2978
 2126TIP3    H1 6342   6.002   2.701   5.278  0.6207  1.0698 -1.3941
 2126TIP3    H2 6343   5.861   2.757   5.279  0.5843  0.9718 -0.6808
 2127TIP3   OH2 6344   1.061   6.636   1.311 -0.2591 -0.4012 -0.7628
 2127TIP3    H1 6345   1.030   6.578   1.242  0.3892 -0.5939 -0.9041
 2127TIP3    H2 6346   1.143   6.596   1.341 -0.5145 -0.3002  0.0932
 2128TIP3   OH2 6347   1.755   3.142   1.714  0.4130  0.2107 -0.3362
 2128TIP3    H1 6348   1.766   3.047   1.720 -0.9643  0.1475  2.3461
 2128TIP3    H2 6349   1.765   3.173   1.803 -3.0503  2.0809 -0.4462
 2129TIP3   OH2 6350   0.063   3.902  -0.021  0.4125 -0.1420  0.0689
 2129TIP3    H1 6351   0.082   3.917   0.072 -0.7522 -0.0096  0.2993
 2129TIP3    H2 6352  -0.024   3.938  -0.034  1.0810  1.0387 -1.3986
 2130TIP3   OH2 6353   3.478   6.216   2.830 -0.5876  0.9956 -0.1242
 2130TIP3    H1 6354   3.433   6.271   2.894 -1.0224  1.2280 -0.6291
 2130TIP3    H2 6355   3.552   6.180   2.878 -0.4013  1.8740  0.2672
 2131TIP3   OH2 6356   6.272   6.198   4.642 -0.6440 -0.2609 -0.1277
 2131TIP3    H1 6357   6.301   6.285   4.616  0.0536 -0.8468 -1.3991
 2131TIP3    H2 6358   6.268   6.202   4.738  1.6744  0.4884  0.0036
 2132TIP3   OH2 6359   1.455   6.131   5.364 -0.3628 -0.6524 -0.0442
 2132TIP3    H1 6360   1.398   6.079   5.307 -0.4934 -2.2464  1.4403
 2132TIP3    H2 6361   1.395   6.182   5.418 -0.2987 -0.3097 -0.3001
 2133TIP3   OH2 6362   4.147   2.196   3.393  0.5334  0.5945 -0.0438
 2133TIP3    H1 6363   4.150   2.223   3.485  0.0210 -0.2296  0.2322
 2133TIP3    H2 6364   4.196   2.263   3.346  0.2021  1.4027  0.7405
 2134TIP3   OH2 6365   2.939   5.015   3.372 -0.4387 -0.0961  0.7505
 2134TIP3    H1 6366   2.944   4.925   3.339 -0.9292  0.5229 -1.1009
 2134TIP3    H2 6367   3.006   5.063   3.323 -0.9615  0.7956  0.8906
 2135TIP3   OH2 6368   3.242   3.586   0.804 -0.2704 -0.2543  0.1017
 2135TIP3    H1 6369   3.228   3.514   0.866 -2.4804  0.5255  0.5912
 2135TIP3    H2 6370   3.174   3.574   0.738  1.3513 -0.4156 -1.6449
 2136TIP3   OH2 6371   3.269   4.548   4.243  0.9020 -0.6682 -0.1875
 2136TIP3    H1 6372   3.248   4.496   4.320 -1.0809  0.1587 -0.0898
 2136TIP3    H2 6373   3.355   4.586   4.261  1.7325 -2.6739  0.3601
 2137TIP3   OH2 6374   0.236   2.791   5.510  0.1668  0.8164  0.2110
 2137TIP3    H1 6375   0.243   2.835   5.426  1.6596  0.5432  0.1681
 2137TIP3    H2 6376   0.326   2.790   5.544 -0.5374  1.8236  2.2670
 2138TIP3   OH2 6377   3.432   1.682   3.134  0.3477 -0.0920 -0.2332
 2138TIP3    H1 6378   3.499   1.667   3.068  0.3922  0.9242 -0.4370
 2138TIP3    H2 6379   3.350   1.654   3.092 -0.0271  2.8124 -1.7381
 2139TIP3   OH2 6380   1.676   3.270   2.982 -0.6816  1.0218  0.2007
 2139TIP3    H1 6381   1.596   3.254   3.033  0.0788  1.6687  1.6617
 2139TIP3    H2 6382   1.743   3.289   3.048  0.3323  2.0050 -1.0605
 2140TIP3   OH2 6383   5.060   1.606   1.489  0.0298 -0.2854 -0.3358
 2140TIP3    H1 6384   4.989   1.605   1.553 -2.0570  0.2482 -2.4894
 2140TIP3    H2 6385   5.068   1.515   1.460  1.4117 -0.6435  1.0593
 2141TIP3   OH2 6386   5.769   0.712   1.488 -0.5105 -0.4779  0.0809
 2141TIP3    H1 6387   5.714   0.646   1.530  0.4285 -1.3359  0.0203
 2141TIP3    H2 6388   5.855   0.701   1.530  0.1685 -0.6336 -1.2986
 2142TIP3   OH2 6389   2.953   5.471   1.186 -0.3814 -0.0308  0.9943
 2142TIP3    H1 6390   2.880   5.520   1.222 -0.3233 -0.4468  1.6914
 2142TIP3    H2 6391   2.999   5.533   1.130 -1.0184  0.3542  0.8923
 2143TIP3   OH2 6392   5.892   2.255   1.600 -0.1146  0.1141  0.1499
 2143TIP3    H1 6393   5.897   2.307   1.680 -1.8287 -0.2069  0.5127
 2143TIP3    H2 6394   5.806   2.213   1.604 -0.2167  0.0384 -1.8406
 2144TIP3   OH2 6395   0.660   6.472   3.602  0.2803  0.5102 -0.0823
 2144TIP3    H1 6396   0.609   6.545   3.637  1.5062  0.5335  1.7544
 2144TIP3    H2 6397   0.659   6.406   3.671  1.1349 -0.2524 -0.7706
 2145TIP3   OH2 6398   3.868   6.620   1.114 -0.2662  0.3788  0.2088
 2145TIP3    H1 6399   3.940   6.607   1.175 -2.1982 -3.0189  2.1333
 2145TIP3    H2 6400   3.799   6.661   1.167 -0.9741  0.1012 -0.4781
 2146TIP3   OH2 6401   7.145   4.484   2.807 -0.5116 -0.3162 -0.2557
 2146TIP3    H1 6402   7.126   4.520   2.720  1.3697  1.5219  0.0138
 2146TIP3    H2 6403   7.067   4.505   2.859 -0.5480  1.0495 -0.8159
 2147TIP3   OH2 6404   3.299   3.791   3.799  0.1043  0.7808  0.0240
 2147TIP3    H1 6405   3.275   3.829   3.884  0.0707  1.0381 -0.1001
 2147TIP3    H2 6406   3.382   3.746   3.816 -0.9260 -0.9490  0.6948
 2148TIP3   OH2 6407   3.027   6.700   3.707 -0.0684  0.5907 -0.0165
 2148TIP3    H1 6408   2.939   6.727   3.733  0.3239  3.0366 -0.9217
 2148TIP3    H2 6409   3.076   6.782   3.699  2.5543 -0.7250  1.2120
 2149TIP3   OH2 6410   5.858   3.383   5.452 -0.0916 -0.1177  0.4717
 2149TIP3    H1 6411   5.786   3.446   5.453 -0.8124 -0.8524 -0.9903
 2149TIP3    H2 6412   5.820   3.302   5.486  0.2582 -0.3019  0.4301
 2150TIP3   OH2 6413   6.638   4.937   4.988 -0.5339  0.1699  0.3890
 2150TIP3    H1 6414   6.543   4.947   4.986 -0.7526 -1.3733  1.7633
 2150TIP3    H2 6415   6.653   4.853   5.031  1.4130 -0.5795 -1.5507
 2151TIP3   OH2 6416   0.518   4.262   5.430  0.0553 -0.3852 -0.5961
 2151TIP3    H1 6417   0.481   4.190   5.480  0.1084 -1.2478 -1.7537
 2151TIP3    H2 6418   0.613   4.246   5.431  0.0040 -0.8652 -1.5977
 2152TIP3   OH2 6419   3.195   3.796   5.495 -0.4415  0.7006 -0.0371
 2152TIP3    H1 6420   3.198   3.781   5.400 -1.9253 -0.9293  0.1269
 2152TIP3    H2 6421   3.157   3.883   5.505  0.5508  1.2645 -0.9219
 2153TIP3   OH2 6422   0.496   3.150   1.534  0.1785  0.4727  0.2048
 2153TIP3    H1 6423   0.423   3.185   1.585 -0.0772  0.3043 -0.0441
 2153TIP3    H2 6424   0.559   3.223   1.529 -1.3917  1.8178 -2.3924
 2154TIP3   OH2 6425   0.375   0.710   5.057  0.3127  0.2522 -0.0324
 2154TIP3    H1 6426   0.319   0.715   5.135  1.7689 -3.0035  1.4143
 2154TIP3    H2 6427   0.458   0.751   5.084  0.8989 -1.0840  0.2862
 2155TIP3   OH2 6428   7.026   2.030   0.480 -0.3738  0.0679  0.2673
 2155TIP3    H1 6429   6.989   2.096   0.540 -0.6523  1.2342 -1.1339
 2155TIP3    H2 6430   7.008   1.947   0.523 -1.8017  0.7835  1.1534
 2156TIP3   OH2 6431   1.738   5.543   3.187 -0.1022  0.3166  0.0454
 2156TIP3    H1 6432   1.653   5.577   3.158 -0.9566 -1.6560  0.0868
 2156TIP3    H2 6433   1.789   5.534   3.107 -0.4369  0.1947 -0.1562
 2157TIP3   OH2 6434   1.453   2.477   3.521  0.5809  0.2794 -0.2639
 2157TIP3    H1 6435   1.396   2.501   3.448 -0.4851  0.1530  0.4963
 2157TIP3    H2 6436   1.404   2.409   3.568 -0.4857  2.7825  2.5820
 2158TIP3   OH2 6437   1.939   1.920   1.492 -0.0541  0.0905 -0.3341
 2158TIP3    H1 6438   1.875   1.885   1.553  2.0152  0.4280  2.2304
 2158TIP3    H2 6439   1.981   1.843   1.453  0.0242 -0.1708  0.2645
 2159TIP3   OH2 6440   3.594   2.813   2.533  0.3011 -0.0427  0.1924
 2159TIP3    H1 6441   3.530   2.816   2.604 -0.4375  1.0709 -0.4882
 2159TIP3    H2 6442   3.548   2.851   2.458  1.1029 -1.0690 -0.8589
 2160TIP3   OH2 6443   2.591   0.350   1.483 -0.2466 -0.1848 -0.2477
 2160TIP3    H1 6444   2.631   0.410   1.420 -0.2293 -1.6070 -1.6362
 2160TIP3    H2 6445   2.499   0.378   1.487  0.3834  1.9688  1.6299
 2161TIP3   OH2 6446   2.717   5.531   3.456 -0.0316  0.0792  0.0531
 2161TIP3    H1 6447   2.719   5.556   3.549  1.0611  0.5140 -0.0725
 2161TIP3    H2 6448   2.624   5.514   3.438 -0.7172  2.8361  0.4933
 2162TIP3   OH2 6449   3.947   4.949   2.666 -0.1085  0.1596 -0.0966
 2162TIP3    H1 6450   4.022   4.942   2.607 -0.1957  0.8817 -0.3042
 2162TIP3    H2 6451   3.985   4.977   2.749 -0.0639 -0.2194  0.0142
 2163TIP3   OH2 6452   3.037   5.913   5.825 -0.0826  0.8545  0.4745
 2163TIP3    H1 6453   2.979   5.930   5.899 -0.4413 -0.8757  0.6370
 2163TIP3    H2 6454   3.013   5.825   5.795  0.8045  1.0786 -1.0078
 2164TIP3   OH2 6455   2.362   2.848   1.904 -0.0191 -0.5429  0.2290
 2164TIP3    H1 6456   2.269   2.825   1.900 -0.0989 -0.0749 -0.7497
 2164TIP3    H2 6457   2.383   2.882   1.817  0.6795  0.8961  0.9349
 2165TIP3   OH2 6458   1.233   2.270   4.652 -0.0780 -0.3077  0.4154
 2165TIP3    H1 6459   1.229   2.353   4.606 -1.4054 -1.4273 -1.6640
 2165TIP3    H2 6460   1.309   2.225   4.614 -0.9321 -1.0761 -0.4181
 2166TIP3   OH2 6461   4.600   5.109   0.843  0.0027 -0.0104  0.5121
 2166TIP3    H1 6462   4.508   5.112   0.818  0.0368  0.9731  0.4461
 2166TIP3    H2 6463   4.599   5.116   0.938 -0.0576 -2.1082  0.7097
 2167TIP3   OH2 6464   5.590   2.620   0.087  0.2831 -1.0972 -0.1728
 2167TIP3    H1 6465   5.638   2.558   0.032 -0.3542 -0.9382 -0.9211
 2167TIP3    H2 6466   5.558   2.687   0.026 -0.8327 -1.1630  0.3155
 2168TIP3   OH2 6467   3.677   4.311   0.916 -0.0053  0.3795 -0.1517
 2168TIP3    H1 6468   3.705   4.294   1.005  0.8929  0.6970 -0.3643
 2168TIP3    H2 6469   3.737   4.260   0.861  0.4764  1.4273 -0.6302
 2169TIP3   OH2 6470   4.313   3.110   5.658 -0.3297  0.0627  0.2285
 2169TIP3    H1 6471   4.297   3.075   5.746 -0.8603  0.5307  0.3237
 2169TIP3    H2 6472   4.257   3.058   5.601 -0.5926  0.2900  0.2771
 2170TIP3   OH2 6473   2.087   0.018   4.604 -0.3538 -0.2463  0.0812
 2170TIP3    H1 6474   2.099   0.092   4.544  0.6506 -0.1120  0.4314
 2170TIP3    H2 6475   1.995  -0.007   4.593  0.0420 -0.9554 -2.3576
 2171TIP3   OH2 6476   3.869   5.188   0.069  0.4509  0.2575  0.1372
 2171TIP3    H1 6477   3.935   5.245   0.108 -1.7284  2.1754  1.3000
 2171TIP3    H2 6478   3.831   5.240  -0.002  1.8951 -1.8293 -2.3310
 2172TIP3   OH2 6479   4.425   0.515   3.496 -0.0493 -0.1536 -0.3833
 2172TIP3    H1 6480   4.369   0.527   3.420 -2.4423 -0.9256  1.1481
 2172TIP3    H2 6481   4.490   0.450   3.468  0.2079  0.8438 -2.2462
 2173TIP3   OH2 6482   0.989   4.791   1.431 -0.2318  0.1946 -0.1238
 2173TIP3    H1 6483   1.053   4.803   1.501 -0.3632  1.6527 -0.2203
 2173TIP3    H2 6484   0.905   4.814   1.470 -1.1015 -3.4519  0.5399
 2174TIP3   OH2 6485   5.549   1.484   2.558  0.2513  0.5331  0.1473
 2174TIP3    H1 6486   5.585   1.527   2.636  2.8810  2.0805 -1.7446
 2174TIP3    H2 6487   5.579   1.393   2.566 -1.3567  0.1002  1.9081
 2175TIP3   OH2 6488   3.457   3.167   2.869 -0.4449  0.1260 -0.2221
 2175TIP3    H1 6489   3.425   3.227   2.801 -1.1473 -0.1036 -0.0956
 2175TIP3    H2 6490   3.395   3.177   2.941 -1.0324 -1.3283 -0.5006
 2176TIP3   OH2 6491   2.418   0.716   0.246 -0.3758 -0.4918  0.4027
 2176TIP3    H1 6492   2.365   0.737   0.323 -0.9518 -0.8597  0.1115
 2176TIP3    H2 6493   2.449   0.627   0.262 -2.4262 -1.4984 -0.8275
 2177TIP3   OH2 6494   2.087   4.459   5.187  0.5919  0.2661  0.2901
 2177TIP3    H1 6495   2.077   4.531   5.126 -1.1125  0.1303  0.3757
 2177TIP3    H2 6496   2.000   4.446   5.225  0.7843 -1.9696  0.1144
 2178TIP3   OH2 6497   6.699   0.877   4.395 -0.1238 -0.0873  0.3368
 2178TIP3    H1 6498   6.778   0.928   4.412  0.1573  0.0117 -1.1035
 2178TIP3    H2 6499   6.652   0.877   4.478  1.0662  0.4109  1.0453
 2179TIP3   OH2 6500   3.498   4.064   3.820 -0.1248  0.6523 -0.2038
 2179TIP3    H1 6501   3.427   4.005   3.842 -0.0025  1.0845  1.4527
 2179TIP3    H2 6502   3.552   4.014   3.759 -1.1737 -0.1274 -0.5237
 2180TIP3   OH2 6503   5.030   3.744   3.191 -0.2005  0.0312  0.0508
 2180TIP3    H1 6504   5.022   3.839   3.201  0.7595  0.2450 -0.9285
 2180TIP3    H2 6505   5.124   3.727   3.203 -0.1747 -0.6130 -0.9429
 2181TIP3   OH2 6506   1.146   4.369   0.909 -0.1628 -0.0155 -0.2289
 2181TIP3    H1 6507   1.145   4.286   0.862 -1.0613  0.1375 -0.4990
 2181TIP3    H2 6508   1.120   4.348   0.998 -0.7029  0.0223 -0.3780
 2182TIP3   OH2 6509   0.685   4.127   1.393 -0.2640  0.3760 -0.9347
 2182TIP3    H1 6510   0.708   4.177   1.314 -0.9625  0.8567 -0.8412
 2182TIP3    H2 6511   0.748   4.156   1.459  0.5035 -0.2346 -1.3822
 2183TIP3   OH2 6512   2.134   5.156   4.164 -0.8757 -0.2946  0.4801
 2183TIP3    H1 6513   2.185   5.120   4.092 -1.0708  1.6392 -0.7026
 2183TIP3    H2 6514   2.193   5.154   4.240  0.3009  0.1430 -0.3988
 2184TIP3   OH2 6515   5.716   3.865   5.432  0.6012  0.1427  0.2934
 2184TIP3    H1 6516   5.710   3.911   5.515 -0.7292  0.8089 -0.1483
 2184TIP3    H2 6517   5.640   3.895   5.382  1.0156 -0.7373 -0.9153
 2185TIP3   OH2 6518   2.065   5.849   4.456 -0.6876 -0.3767  0.3104
 2185TIP3    H1 6519   2.063   5.827   4.363  0.6729 -0.8047  0.3678
 2185TIP3    H2 6520   2.022   5.776   4.499 -3.7769  1.0215 -0.1389
 2186TIP3   OH2 6521   3.289   5.362   4.100 -0.2040 -0.7230 -0.1284
 2186TIP3    H1 6522   3.264   5.390   4.012  1.4699  0.8169 -0.1572
 2186TIP3    H2 6523   3.295   5.444   4.150  2.2114 -1.2332  0.5103
 2187TIP3   OH2 6524   6.676   5.790   2.406 -0.2138  0.4387  0.5244
 2187TIP3    H1 6525   6.654   5.707   2.363 -0.2690 -0.1886  1.7175
 2187TIP3    H2 6526   6.640   5.857   2.349  0.8427 -0.2844 -1.0821
 2188TIP3   OH2 6527   3.235   0.608   2.698 -0.0480  0.4991 -0.4680
 2188TIP3    H1 6528   3.193   0.584   2.781  0.4262  0.1780 -0.3199
 2188TIP3    H2 6529   3.163   0.608   2.634 -0.1290 -1.0009 -0.4048
 2189TIP3   OH2 6530   1.039   6.163   1.062  0.3375  0.6471  0.1727
 2189TIP3    H1 6531   1.058   6.093   1.125  2.2589 -0.4291 -1.4626
 2189TIP3    H2 6532   0.944   6.159   1.050  0.1369 -0.1853  1.7707
 2190TIP3   OH2 6533   2.636   4.106   1.315 -0.3741  0.4176  0.5989
 2190TIP3    H1 6534   2.543   4.088   1.305 -0.1758 -0.5378  0.4008
 2190TIP3    H2 6535   2.678   4.064   1.240  0.1034  1.9260 -0.0111
 2191TIP3   OH2 6536   1.400   1.569   3.177  0.5286  0.4723 -0.4380
 2191TIP3    H1 6537   1.342   1.644   3.186 -0.9955 -0.5864 -1.1560
 2191TIP3    H2 6538   1.342   1.494   3.166  2.0234 -0.6211 -1.2655
 2192TIP3   OH2 6539   2.823   2.231   1.785 -0.1469  0.1536 -0.4735
 2192TIP3    H1 6540   2.761   2.269   1.723  0.5346  0.2779 -1.0861
 2192TIP3    H2 6541   2.781   2.244   1.871 -0.9692  0.2160 -0.8723
 2193TIP3   OH2 6542   0.323   5.227   2.952 -0.2939 -0.1868  0.0776
 2193TIP3    H1 6543   0.352   5.306   2.905  1.4395 -0.4066  0.7179
 2193TIP3    H2 6544   0.227   5.228   2.943 -0.1155 -0.3490 -3.7019
 2194TIP3   OH2 6545   5.237   2.130   3.665 -0.4035  0.0946  0.0740
 2194TIP3    H1 6546   5.170   2.120   3.597 -1.8481  1.7256  1.1751
 2194TIP3    H2 6547   5.270   2.041   3.679 -1.0224 -0.4780 -1.7869
 2195TIP3   OH2 6548   2.540   3.448   3.261  0.4092  0.2369  0.2082
 2195TIP3    H1 6549   2.455   3.476   3.227  0.4159 -0.8486 -0.7835
 2195TIP3    H2 6550   2.527   3.438   3.355  0.1723  2.5863  0.5022
 2196TIP3   OH2 6551   4.892   2.727   3.135  0.5119  0.1455 -0.8335
 2196TIP3    H1 6552   4.896   2.651   3.193  0.2231 -0.4848 -1.6173
 2196TIP3    H2 6553   4.969   2.719   3.079  0.9834  0.9444 -0.3083
 2197TIP3   OH2 6554   0.278   0.438   3.178 -0.3437  0.1018  0.5784
 2197TIP3    H1 6555   0.356   0.493   3.183 -0.1999  0.2283 -1.7731
 2197TIP3    H2 6556   0.210   0.490   3.219  0.0383  1.6334 -0.6111
 2198TIP3   OH2 6557   0.866   4.831   5.821  0.3764 -0.3684  0.1116
 2198TIP3    H1 6558   0.929   4.901   5.839 -0.2150 -0.2185  1.7626
 2198TIP3    H2 6559   0.799   4.872   5.767  0.3033  0.2046  0.6303
 2199TIP3   OH2 6560   3.386   5.667   2.363 -0.0884  0.2964 -0.3791
 2199TIP3    H1 6561   3.458   5.730   2.363 -1.6160  2.1240 -1.0549
 2199TIP3    H2 6562   3.353   5.669   2.453 -1.0434  1.6036 -0.7315
 2200TIP3   OH2 6563   5.185   0.818   5.763  0.0006  0.2577  0.5702
 2200TIP3    H1 6564   5.144   0.735   5.738  0.3353 -0.1122  1.2297
 2200TIP3    H2 6565   5.189   0.868   5.681 -1.0765  0.0105  0.3492
 2201TIP3   OH2 6566   1.566   1.911   0.189  0.1286 -0.7494  0.3870
 2201TIP3    H1 6567   1.643   1.917   0.246  0.5617 -1.0388 -0.1640
 2201TIP3    H2 6568   1.508   1.850   0.234  0.3283 -0.7286  0.6819
 2202TIP3   OH2 6569   3.311   4.301   5.857 -0.3073 -0.0953  0.0608
 2202TIP3    H1 6570   3.317   4.332   5.947 -0.5733 -1.3940  0.5478
 2202TIP3    H2 6571   3.310   4.381   5.804  0.2132  0.6724  1.1759
 2203TIP3   OH2 6572   1.199   0.398   3.369  0.0025  0.2486  0.0291
 2203TIP3    H1 6573   1.125   0.407   3.310 -0.5932  2.9173  1.0087
 2203TIP3    H2 6574   1.193   0.309   3.403 -1.1474 -0.4721 -1.9130
 2204TIP3   OH2 6575   2.343   1.321   3.859 -0.0624  0.4432  1.2235
 2204TIP3    H1 6576   2.424   1.274   3.881 -0.6016 -1.1528 -0.0103
 2204TIP3    H2 6577   2.350   1.339   3.766 -1.2125  0.0910  1.0537
 2205TIP3   OH2 6578   1.089   0.344   2.813 -0.3708  0.1316 -0.0949
 2205TIP3    H1 6579   0.995   0.352   2.801 -0.6598 -2.1931  0.1681
 2205TIP3    H2 6580   1.099   0.299   2.897  1.0438  1.3897  0.4747
 2206TIP3   OH2 6581   3.748   3.598   3.803  0.7181  0.6578 -0.1451
 2206TIP3    H1 6582   3.666   3.613   3.850  0.8206  1.4919 -0.2251
 2206TIP3    H2 6583   3.816   3.629   3.863  1.2111 -2.2121  0.9643
 2207TIP3   OH2 6584   4.538   3.980   0.691 -0.0206  0.7291  0.3302
 2207TIP3    H1 6585   4.532   4.071   0.722  1.3713  1.1208 -0.4322
 2207TIP3    H2 6586   4.632   3.960   0.698  0.0089  0.0886 -1.5362
 2208TIP3   OH2 6587   1.525   5.267   5.230  0.2096 -0.8364  0.2055
 2208TIP3    H1 6588   1.599   5.248   5.287  1.4051 -1.3241 -1.4248
 2208TIP3    H2 6589   1.516   5.189   5.175  0.3571  0.3088 -1.5416
 2209TIP3   OH2 6590   2.549   6.198   2.898  0.4352 -0.9175  0.3456
 2209TIP3    H1 6591   2.542   6.175   2.805 -0.4265 -0.1618  0.2087
 2209TIP3    H2 6592   2.490   6.138   2.942 -1.5186  0.6753  0.0314
 2210TIP3   OH2 6593   1.600   0.182   4.932  0.1909  0.2700  0.0340
 2210TIP3    H1 6594   1.626   0.220   4.848 -1.8332 -0.2293 -0.8870
 2210TIP3    H2 6595   1.522   0.131   4.911  1.5318 -2.6481  1.6201
 2211TIP3   OH2 6596   2.909   2.410   4.023  0.6258 -0.3389  0.4287
 2211TIP3    H1 6597   2.879   2.343   4.084  1.9275  0.1166  1.6099
 2211TIP3    H2 6598   2.833   2.467   4.010 -0.4984 -1.9828 -0.5733
 2212TIP3   OH2 6599   4.857   2.815   3.998  0.0973  0.0137 -0.4805
 2212TIP3    H1 6600   4.762   2.802   3.988  0.4861 -1.6380 -2.7660
 2212TIP3    H2 6601   4.885   2.740   4.050  0.0355  1.1644  1.2858
 2213TIP3   OH2 6602   1.349   4.047   0.296  0.3020 -0.6923  0.3936
 2213TIP3    H1 6603   1.316   3.961   0.272  1.3379 -0.8176 -0.6205
 2213TIP3    H2 6604   1.425   4.029   0.351 -1.2532 -0.4044  2.7847
 2214TIP3   OH2 6605   0.448   5.160   4.431 -0.0232 -0.6704 -0.3850
 2214TIP3    H1 6606   0.468   5.144   4.523  0.1127 -0.6607 -0.4128
 2214TIP3    H2 6607   0.454   5.256   4.421  2.6714 -0.8329 -1.0162
 2215TIP3   OH2 6608   2.421   3.039   1.062 -0.3532  0.0322 -0.1011
 2215TIP3    H1 6609   2.418   3.057   1.156  0.0392  1.8830 -0.4215
 2215TIP3    H2 6610   2.335   3.064   1.030  0.2669  1.6352 -0.5874
 2216TIP3   OH2 6611   4.571   3.091   5.378  0.2389 -0.1774 -0.2315
 2216TIP3    H1 6612   4.542   3.001   5.361  1.9493 -0.7050 -0.6078
 2216TIP3    H2 6613   4.565   3.100   5.473 -1.8115  0.0271 -0.3394
 2217TIP3   OH2 6614   5.050   0.800   4.485 -0.1917  0.5918  0.1612
 2217TIP3    H1 6615   5.087   0.856   4.553  0.0962  0.8147 -0.1785
 2217TIP3    H2 6616   5.125   0.773   4.432 -0.3998  0.3322 -0.0075
 2218TIP3   OH2 6617   6.879   5.729   2.095 -0.2620  0.0818 -0.2637
 2218TIP3    H1 6618   6.891   5.793   2.025 -0.9095  1.2029  0.5957
 2218TIP3    H2 6619   6.792   5.692   2.079  0.1147 -0.5884 -0.7629
 2219TIP3   OH2 6620   6.676   3.633   1.295 -0.4261  0.0420  0.0341
 2219TIP3    H1 6621   6.618   3.581   1.239 -0.8919  1.4912 -0.9054
 2219TIP3    H2 6622   6.747   3.659   1.237 -0.4024  0.7425  0.3713
 2220TIP3   OH2 6623   3.151   6.731   5.207  0.3986 -0.4834  0.3544
 2220TIP3    H1 6624   3.229   6.688   5.171 -0.0594 -0.3718 -0.8125
 2220TIP3    H2 6625   3.095   6.747   5.131 -0.0379  0.9556  0.9475
 2221TIP3   OH2 6626   5.409   5.974   3.365 -1.1168 -0.6833  0.3557
 2221TIP3    H1 6627   5.492   5.939   3.332 -2.0047 -0.4628 -2.3783
 2221TIP3    H2 6628   5.357   5.896   3.385 -0.0805 -0.8326  2.8172
 2222TIP3   OH2 6629   1.194   2.494   0.524  0.2285  0.2508 -1.2893
 2222TIP3    H1 6630   1.260   2.546   0.478  1.3968  0.3896  0.4631
 2222TIP3    H2 6631   1.148   2.558   0.579 -0.3144 -0.1092 -1.3203
 2223TIP3   OH2 6632   1.979   6.487   3.478  0.1966 -0.0008  0.4190
 2223TIP3    H1 6633   2.046   6.555   3.486  0.9211 -0.8333  1.9908
 2223TIP3    H2 6634   2.029   6.408   3.455 -0.4778 -0.2536 -0.2004
 2224TIP3   OH2 6635   5.770   2.099   1.876 -0.5242  0.0325 -0.7456
 2224TIP3    H1 6636   5.809   2.036   1.937 -0.8129 -0.6413 -1.2483
 2224TIP3    H2 6637   5.685   2.062   1.853 -0.1130 -0.1105 -2.1497
 2225TIP3   OH2 6638   6.080   5.586   1.258  0.3159  0.0101  1.0604
 2225TIP3    H1 6639   6.105   5.678   1.255 -0.7434  0.3543  2.2328
 2225TIP3    H2 6640   6.160   5.540   1.286  1.0193  0.4703 -0.1206
 2226TIP3   OH2 6641   0.947   6.253   0.761 -0.2251 -0.1481  0.1718
 2226TIP3    H1 6642   1.008   6.324   0.780 -0.7347  0.8845 -1.8389
 2226TIP3    H2 6643   0.905   6.235   0.845  2.0387 -0.1662  1.3683
 2227TIP3   OH2 6644   1.293   1.906   4.038 -0.3853  0.1889  0.0883
 2227TIP3    H1 6645   1.257   1.990   4.010 -2.0417 -0.8189 -0.9475
 2227TIP3    H2 6646   1.295   1.853   3.959  2.5811 -0.1540  0.2875
 2228TIP3   OH2 6647   0.255   3.069   5.155  0.6906  0.4106  0.2321
 2228TIP3    H1 6648   0.231   3.160   5.134  1.1245  0.8008  1.3102
 2228TIP3    H2 6649   0.341   3.058   5.114 -0.9427 -0.8263 -3.2049
 2229TIP3   OH2 6650   6.518   5.897   4.487 -0.3981 -0.0505 -0.2268
 2229TIP3    H1 6651   6.573   5.820   4.504  0.4113  0.0339 -2.2357
 2229TIP3    H2 6652   6.569   5.971   4.520  0.2493 -0.0714 -1.1787
 2230TIP3   OH2 6653   0.912   4.387   3.771 -0.3959  0.1092 -0.0198
 2230TIP3    H1 6654   0.924   4.310   3.825 -0.6747 -1.3157 -1.8719
 2230TIP3    H2 6655   0.997   4.404   3.731 -0.7149 -0.2922 -0.9060
 2231TIP3   OH2 6656   0.039   3.344   0.105  0.0409  0.6005 -0.1714
 2231TIP3    H1 6657   0.067   3.425   0.146  1.6715 -0.0578  0.0918
 2231TIP3    H2 6658   0.057   3.276   0.170 -0.3686 -0.0930 -0.7640
 2232TIP3   OH2 6659   7.204   0.058   4.374 -0.5751 -0.6175 -0.2034
 2232TIP3    H1 6660   7.124   0.099   4.341 -0.9655 -1.9297 -0.9783
 2232TIP3    H2 6661   7.213   0.091   4.463 -1.3604  0.4084 -0.4774
 2233TIP3   OH2 6662   2.893   1.943   0.218  0.0407 -0.1540  0.3044
 2233TIP3    H1 6663   2.922   2.008   0.155  0.6111 -0.5083  0.1969
 2233TIP3    H2 6664   2.930   1.860   0.187 -3.0828 -1.1248 -1.2317
 2234TIP3   OH2 6665   4.566   2.200   5.723  0.5412 -0.4942  0.4952
 2234TIP3    H1 6666   4.475   2.211   5.696  0.5122 -1.2355  0.2500
 2234TIP3    H2 6667   4.590   2.283   5.763 -1.3293 -1.3862  3.7912
 2235TIP3   OH2 6668   0.201   4.641   1.811  0.0456 -0.3420  0.3113
 2235TIP3    H1 6669   0.207   4.545   1.810  1.9049 -0.2755  0.6021
 2235TIP3    H2 6670   0.291   4.670   1.830 -0.1774  1.4833 -1.1366
 2236TIP3   OH2 6671   6.193   3.331   2.517 -0.4420 -0.1281 -0.0698
 2236TIP3    H1 6672   6.271   3.276   2.508  0.5316  1.0801  0.5885
 2236TIP3    H2 6673   6.160   3.341   2.428  0.7673  0.1487 -0.5071
 2237TIP3   OH2 6674   3.572   6.072   0.791 -0.5173 -0.1764 -0.5321
 2237TIP3    H1 6675   3.532   5.992   0.825  0.7243 -0.7042 -0.2759
 2237TIP3    H2 6676   3.503   6.138   0.798 -1.6420 -1.2622 -0.9617
 2238TIP3   OH2 6677   5.054   6.086   5.864 -0.6386  0.6938  0.2327
 2238TIP3    H1 6678   5.083   6.172   5.834  2.6923  0.4207  2.2211
 2238TIP3    H2 6679   5.004   6.104   5.944  0.5022  0.7910  0.9374
 2239TIP3   OH2 6680   2.608   2.639   3.524 -0.0029  0.9196  0.2998
 2239TIP3    H1 6681   2.606   2.582   3.447  2.9336 -1.8707  2.0790
 2239TIP3    H2 6682   2.669   2.709   3.500  2.9833 -1.3279  0.7545
 2240TIP3   OH2 6683   1.973   3.607   4.039  0.2377  0.6387 -0.0573
 2240TIP3    H1 6684   2.055   3.561   4.018  0.5650  0.6063  1.2033
 2240TIP3    H2 6685   1.993   3.655   4.120 -1.7421 -1.4583  1.7982
 2241TIP3   OH2 6686   6.374   2.466   1.212  0.2696  0.0782  0.1445
 2241TIP3    H1 6687   6.439   2.490   1.145 -0.9528  3.6686  0.0161
 2241TIP3    H2 6688   6.410   2.501   1.294 -0.9486  1.1389  0.2532
 2242TIP3   OH2 6689   6.417   4.433   2.432  0.1696 -0.0325  0.2716
 2242TIP3    H1 6690   6.417   4.338   2.446 -0.9928 -0.2131 -0.7920
 2242TIP3    H2 6691   6.418   4.443   2.337  0.8330  1.0488  0.3770
 2243TIP3   OH2 6692   3.481   1.047   1.013  0.2362  0.1781  0.1556
 2243TIP3    H1 6693   3.551   1.022   1.073  1.0489  0.2434 -0.7436
 2243TIP3    H2 6694   3.491   0.987   0.939 -0.6144  0.2383 -0.0170
 2244TIP3   OH2 6695   6.052   3.689   3.200 -0.3693  0.4273 -0.1426
 2244TIP3    H1 6696   6.132   3.681   3.149 -0.0086  1.1469  0.2974
 2244TIP3    H2 6697   6.036   3.783   3.206 -1.3226  0.2902 -0.3351
 2245TIP3   OH2 6698   0.625   5.220   2.759  0.0708  0.5292 -0.0238
 2245TIP3    H1 6699   0.620   5.137   2.711 -1.9173 -1.4351  3.1995
 2245TIP3    H2 6700   0.544   5.266   2.736  1.4070  1.9798 -2.2143
 2246TIP3   OH2 6701   6.170   3.404   5.016  0.1277  0.2328 -0.0634
 2246TIP3    H1 6702   6.157   3.399   5.110 -1.3918 -2.4248 -0.3289
 2246TIP3    H2 6703   6.083   3.424   4.980  0.1493 -1.1984 -0.9927
 2247TIP3   OH2 6704   4.443   2.463   0.184  0.3840 -0.0476 -0.4710
 2247TIP3    H1 6705   4.434   2.474   0.090  0.9881  2.2515 -0.3152
 2247TIP3    H2 6706   4.533   2.430   0.196  0.2414 -0.5255 -0.6974
 2248TIP3   OH2 6707   3.521   5.444   2.633  0.0227 -0.2603  0.0112
 2248TIP3    H1 6708   3.579   5.519   2.627  2.1474 -1.7226  0.9923
 2248TIP3    H2 6709   3.531   5.397   2.550 -2.3696  1.1484 -1.1955
 2249TIP3   OH2 6710   4.205   1.879   3.697 -0.1211 -0.0523 -0.2122
 2249TIP3    H1 6711   4.185   1.855   3.607  1.6178 -0.3645 -0.5582
 2249TIP3    H2 6712   4.273   1.946   3.690  0.9367 -0.9616  0.8598
 2250TIP3   OH2 6713   6.336   1.823   4.938  0.5495 -0.0131  0.1425
 2250TIP3    H1 6714   6.410   1.765   4.954  0.1745 -0.2165  1.2878
 2250TIP3    H2 6715   6.351   1.897   4.997 -2.3129 -2.0649  3.9452
 2251TIP3   OH2 6716   0.082   6.302   3.001 -0.1817 -0.1173  0.1990
 2251TIP3    H1 6717   0.054   6.382   2.955  0.0070 -0.3358 -0.2957
 2251TIP3    H2 6718   0.012   6.239   2.984  0.5948 -0.6823 -1.0854
 2252TIP3   OH2 6719   4.044   1.924   1.665  0.1861  0.3997 -0.1032
 2252TIP3    H1 6720   4.126   1.877   1.675 -1.2440 -2.0278  1.2055
 2252TIP3    H2 6721   4.014   1.939   1.755 -0.3865  2.0962 -0.5399
 2253TIP3   OH2 6722   3.589   3.937   3.200  0.3979  0.4434  0.3819
 2253TIP3    H1 6723   3.673   3.965   3.235 -0.3851  0.2003  2.5924
 2253TIP3    H2 6724   3.566   3.858   3.249 -1.1394  0.5331 -0.1139
 2254TIP3   OH2 6725   1.550   0.770   3.929  0.2491 -0.1186 -0.1064
 2254TIP3    H1 6726   1.495   0.829   3.981  0.9737 -0.5908  1.2445
 2254TIP3    H2 6727   1.578   0.703   3.991  1.4452 -0.5035 -1.0338
 2255TIP3   OH2 6728   0.124   0.900   3.284  0.5414 -0.0852 -0.5349
 2255TIP3    H1 6729   0.044   0.953   3.274  1.6153  1.4741 -1.1535
 2255TIP3    H2 6730   0.091   0.812   3.306 -1.3538  0.3886 -1.2554
 2256TIP3   OH2 6731   6.656   1.158   5.360  0.4776 -0.5123  0.5134
 2256TIP3    H1 6732   6.599   1.231   5.339  0.2427 -1.5132 -2.8390
 2256TIP3    H2 6733   6.612   1.114   5.433 -0.4585  1.4404  1.1776
 2257TIP3   OH2 6734   3.588   1.381   1.858  0.2642 -0.2095 -0.8682
 2257TIP3    H1 6735   3.583   1.325   1.936  1.0977  0.0150 -0.6416
 2257TIP3    H2 6736   3.546   1.462   1.885  0.2116 -0.2690 -0.7703
 2258TIP3   OH2 6737   0.895   6.066   1.983 -0.5303  0.4511 -0.0394
 2258TIP3    H1 6738   0.914   5.984   2.028 -0.4535 -0.3545 -1.4899
 2258TIP3    H2 6739   0.846   6.117   2.048 -0.1294 -0.5064  1.0707
 2259TIP3   OH2 6740   3.725   4.816   4.342 -0.5409 -0.0871 -0.4794
 2259TIP3    H1 6741   3.725   4.859   4.256  0.3625  0.5353 -0.1815
 2259TIP3    H2 6742   3.719   4.888   4.405 -2.3995 -0.5891 -0.0020
 2260TIP3   OH2 6743   5.819   2.149   0.009 -1.3694 -0.2923  0.2905
 2260TIP3    H1 6744   5.730   2.139  -0.025 -2.8513  0.4402  3.5882
 2260TIP3    H2 6745   5.810   2.207   0.085  2.1695  0.9264 -0.0271
 2261TIP3   OH2 6746   5.621   5.484   2.923  0.3311 -0.6610 -0.1002
 2261TIP3    H1 6747   5.683   5.512   2.856 -1.4203  3.8721 -0.1876
 2261TIP3    H2 6748   5.658   5.514   3.005 -0.9320  0.7007  0.0124
 2262TIP3   OH2 6749   3.526   6.531   0.490  0.2111  0.0403 -0.3493
 2262TIP3    H1 6750   3.549   6.614   0.531 -2.1263  0.7536 -0.3344
 2262TIP3    H2 6751   3.502   6.474   0.563  0.9798 -0.3951 -0.4221
 2263TIP3   OH2 6752   1.452   1.908   3.284  0.3461  0.0568 -0.1255
 2263TIP3    H1 6753   1.518   1.845   3.254 -0.0251 -0.7946  0.8069
 2263TIP3    H2 6754   1.376   1.892   3.228 -0.3042 -1.4483  1.1274
 2264TIP3   OH2 6755   4.388   3.235   1.158  0.4201  0.4994 -0.5912
 2264TIP3    H1 6756   4.353   3.147   1.148  1.9215 -0.2324  0.3097
 2264TIP3    H2 6757   4.400   3.267   1.069  1.0991 -0.7280 -0.9571
 2265TIP3   OH2 6758   1.320   5.101   3.010 -0.0292  0.2674 -0.5091
 2265TIP3    H1 6759   1.246   5.161   3.000 -0.8367 -0.6944 -0.4891
 2265TIP3    H2 6760   1.397   5.157   3.011 -0.8380  1.4116  0.7386
 2266TIP3   OH2 6761   0.659   5.254   4.189 -0.2372  0.0738  0.0718
 2266TIP3    H1 6762   0.716   5.329   4.202 -0.5324 -0.1241  3.3714
 2266TIP3    H2 6763   0.591   5.264   4.255 -1.0906 -2.3887 -0.3186
 2267TIP3   OH2 6764   0.578   6.249   4.590 -0.0787  0.6204  0.1858
 2267TIP3    H1 6765   0.618   6.235   4.504 -0.7151  1.0237 -0.1893
 2267TIP3    H2 6766   0.559   6.343   4.593 -1.3570  0.3818  0.1653
 2268TIP3   OH2 6767   3.414   3.058   4.341  1.0948  0.1978  0.5542
 2268TIP3    H1 6768   3.449   3.008   4.267  0.3381  0.7488 -0.2009
 2268TIP3    H2 6769   3.327   3.022   4.355  0.1069  1.9414 -0.6992
 2269TIP3   OH2 6770   0.995   3.807   5.433  0.0003  0.0595  0.1475
 2269TIP3    H1 6771   1.047   3.728   5.444  0.1396  0.3378  1.6949
 2269TIP3    H2 6772   0.953   3.820   5.517 -0.4094  1.3622 -0.2347
 2270TIP3   OH2 6773   0.577   3.473   5.055  0.2539 -0.9669  0.0800
 2270TIP3    H1 6774   0.537   3.515   5.132  2.9127  1.6457  0.2554
 2270TIP3    H2 6775   0.551   3.529   4.982  1.7816 -0.4177 -0.0844
 2271TIP3   OH2 6776   5.988   2.495   2.587  0.1880 -0.1939  0.2332
 2271TIP3    H1 6777   6.046   2.430   2.627  0.1668 -0.4493 -0.1476
 2271TIP3    H2 6778   5.951   2.451   2.510 -1.9712 -0.7260  1.4782
 2272TIP3   OH2 6779   0.828   4.661   2.502 -0.5523  0.8165 -0.7013
 2272TIP3    H1 6780   0.756   4.606   2.533 -0.8835  1.2343 -0.7231
 2272TIP3    H2 6781   0.891   4.599   2.466 -0.8608  0.4390 -0.6036
 2273TIP3   OH2 6782   5.555   3.221   2.810 -0.2103  0.4988  0.0504
 2273TIP3    H1 6783   5.474   3.217   2.860 -1.4380 -0.1627 -1.8819
 2273TIP3    H2 6784   5.604   3.143   2.837 -0.7390  0.2757  0.3739
 2274TIP3   OH2 6785   5.111   4.189   0.280  0.0019 -0.5194 -0.2472
 2274TIP3    H1 6786   5.109   4.112   0.337  0.6726 -0.4406 -0.1035
 2274TIP3    H2 6787   5.162   4.253   0.329  1.4461 -0.7884 -1.3431
 2275TIP3   OH2 6788   6.416   1.444   4.658 -0.5955 -0.2236 -0.0627
 2275TIP3    H1 6789   6.475   1.511   4.622  1.1005 -1.8337 -0.4796
 2275TIP3    H2 6790   6.328   1.475   4.637  0.2098  0.8498 -2.1239
 2276TIP3   OH2 6791   0.481   3.633   5.256 -0.0561 -0.2537 -0.4822
 2276TIP3    H1 6792   0.394   3.593   5.255  0.0990 -0.6008  0.1751
 2276TIP3    H2 6793   0.469   3.716   5.209 -0.9391  0.1070  0.3552
 2277TIP3   OH2 6794   2.760   5.740   5.514 -0.1658 -0.5357 -0.6331
 2277TIP3    H1 6795   2.786   5.658   5.473  1.5826  0.7732 -2.3000
 2277TIP3    H2 6796   2.782   5.808   5.450 -0.7635  1.3219  1.0184
 2278TIP3   OH2 6797   4.746   4.004   2.056  0.2185 -0.2356  0.4064
 2278TIP3    H1 6798   4.674   4.067   2.058  0.7689  0.3849  1.2741
 2278TIP3    H2 6799   4.776   3.997   2.147  0.6205 -1.2328  0.2186
 2279TIP3   OH2 6800   7.011   1.958   2.108  0.1199 -0.4587  0.5085
 2279TIP3    H1 6801   6.982   1.917   2.027 -0.2819  0.3669  0.2251
 2279TIP3    H2 6802   7.081   2.017   2.081  0.1443 -0.3527  0.7986
 2280TIP3   OH2 6803   0.304   3.082   3.214  0.3258 -0.2009  0.0313
 2280TIP3    H1 6804   0.290   3.096   3.308  0.7792 -0.3137  0.1172
 2280TIP3    H2 6805   0.248   3.148   3.172  0.6718  0.3419  0.3952
 2281TIP3   OH2 6806   2.850   1.459   4.423  0.1223 -0.0705  0.4120
 2281TIP3    H1 6807   2.934   1.414   4.427 -0.5982 -1.4096  1.1833
 2281TIP3    H2 6808   2.847   1.497   4.335  1.3315 -0.3696  0.2258
 2282TIP3   OH2 6809   2.885   0.023   1.991  0.1457  0.0510 -0.1687
 2282TIP3    H1 6810   2.919   0.093   2.047 -1.6048  0.6299  0.2345
 2282TIP3    H2 6811   2.793   0.046   1.978 -0.3290 -1.9026 -0.4843
 2283TIP3   OH2 6812   1.200   4.287   2.497 -0.7336 -0.2901  0.1443
 2283TIP3    H1 6813   1.277   4.321   2.451 -0.8274  0.1764  0.3192
 2283TIP3    H2 6814   1.127   4.339   2.463 -1.0660 -1.1435 -0.4596
 2284TIP3   OH2 6815   4.826   2.717   0.785 -0.1753 -0.1697 -0.5338
 2284TIP3    H1 6816   4.848   2.632   0.747 -0.5952 -0.8695  0.7300
 2284TIP3    H2 6817   4.895   2.775   0.755  1.6065 -1.5517  0.6314
 2285TIP3   OH2 6818   0.765   2.717   5.014 -0.3030 -0.0117  0.3724
 2285TIP3    H1 6819   0.718   2.740   5.095  0.1081 -0.4410  0.7410
 2285TIP3    H2 6820   0.774   2.800   4.967 -0.2977  0.2923  0.9031
 2286TIP3   OH2 6821   0.715   5.081   4.412  0.0599  0.2755  0.1211
 2286TIP3    H1 6822   0.721   5.135   4.333 -3.0805  0.3301 -0.2006
 2286TIP3    H2 6823   0.688   5.142   4.481  2.3084  0.1382  1.2401
 2287TIP3   OH2 6824   5.055   5.574   1.296 -0.1747  0.2295  0.3455
 2287TIP3    H1 6825   4.987   5.556   1.361  0.4367 -1.3147  0.6132
 2287TIP3    H2 6826   5.136   5.577   1.345  0.0197  1.7774 -0.0162
 2288TIP3   OH2 6827   5.734   1.791   5.597 -0.3314  0.1316 -0.0320
 2288TIP3    H1 6828   5.787   1.870   5.608 -1.4478  0.9294 -0.2351
 2288TIP3    H2 6829   5.781   1.724   5.646  1.2202  0.6431 -0.7402
 2289TIP3   OH2 6830   2.411   3.088   5.251 -0.6253  0.2260 -0.3487
 2289TIP3    H1 6831   2.442   3.078   5.341 -1.6179  1.2969  0.1287
 2289TIP3    H2 6832   2.490   3.074   5.198  0.6705  2.4347  0.8065
 2290TIP3   OH2 6833   1.143   4.052   2.238  0.5303 -0.1715 -0.4990
 2290TIP3    H1 6834   1.210   4.034   2.304 -1.9189 -1.0397  1.9499
 2290TIP3    H2 6835   1.088   3.973   2.237 -1.9872  1.4531 -0.3680
 2291TIP3   OH2 6836   2.532   0.183   5.261  0.0735  0.8576  0.3236
 2291TIP3    H1 6837   2.600   0.138   5.212 -1.0284  0.8596 -1.2798
 2291TIP3    H2 6838   2.569   0.195   5.348  1.1313 -1.4283  0.2605
 2292TIP3   OH2 6839   5.059   3.813   0.269  0.2089 -0.5226  0.5400
 2292TIP3    H1 6840   4.982   3.785   0.319  0.4307  0.2904  1.3804
 2292TIP3    H2 6841   5.081   3.899   0.306 -1.4348  1.6490 -2.9637
 2293TIP3   OH2 6842   3.465   2.873   3.637  0.2632  0.1337 -0.5111
 2293TIP3    H1 6843   3.507   2.853   3.721 -0.9218 -1.7359 -0.3155
 2293TIP3    H2 6844   3.521   2.941   3.598  1.1095  0.7091  1.5525
 2294TIP3   OH2 6845   2.718   4.923   2.091 -0.0625  0.2207  0.0382
 2294TIP3    H1 6846   2.691   4.832   2.074  1.1652  0.1163 -1.6622
 2294TIP3    H2 6847   2.744   4.923   2.184 -0.4246 -1.0763  0.1668
 2295TIP3   OH2 6848   5.012   6.328   4.638  0.0244 -0.2943  0.0728
 2295TIP3    H1 6849   4.980   6.412   4.604 -0.3586 -0.5114 -0.1135
 2295TIP3    H2 6850   4.959   6.262   4.592 -0.2226 -0.6081  0.7892
 2296TIP3   OH2 6851   6.574   3.001   4.016  0.4062  0.5177  0.0506
 2296TIP3    H1 6852   6.644   3.061   4.042 -0.7628  1.7177  0.5997
 2296TIP3    H2 6853   6.530   2.979   4.098  0.1930 -0.2832 -0.2738
 2297TIP3   OH2 6854   0.634   4.404   1.753  0.3371  0.4685  0.3030
 2297TIP3    H1 6855   0.591   4.355   1.824 -0.0380  0.8695  0.3582
 2297TIP3    H2 6856   0.649   4.338   1.685  0.0512  0.2243  0.4696
 2298TIP3   OH2 6857   2.789   0.462   4.690  0.0901 -0.0713 -0.5999
 2298TIP3    H1 6858   2.808   0.377   4.649  0.1185 -0.8823  1.0025
 2298TIP3    H2 6859   2.826   0.527   4.631 -1.9430 -0.9955 -3.0896
 2299TIP3   OH2 6860   0.805   1.381   0.475 -0.0664 -0.2745 -0.5439
 2299TIP3    H1 6861   0.766   1.464   0.502  0.8316 -0.1073  0.3220
 2299TIP3    H2 6862   0.897   1.403   0.460  0.2235 -1.1559 -0.0987
 2300TIP3   OH2 6863   6.564   1.529   1.258  0.0451 -0.2876 -0.1899
 2300TIP3    H1 6864   6.499   1.519   1.188 -0.1174  0.5658 -0.1763
 2300TIP3    H2 6865   6.516   1.508   1.338 -0.1599  0.1119 -0.2034
 2301TIP3   OH2 6866   3.975   0.031   2.229 -0.3792  0.0380  0.0892
 2301TIP3    H1 6867   3.913   0.028   2.302 -0.5780 -1.3289 -0.1079
 2301TIP3    H2 6868   3.961  -0.051   2.182  1.8211 -0.5064  0.2541
 2302TIP3   OH2 6869   5.065   0.888   0.547  0.4254  0.1103  0.1166
 2302TIP3    H1 6870   5.139   0.947   0.534  2.5521 -2.0073  1.7306
 2302TIP3    H2 6871   5.102   0.812   0.592 -2.4336 -1.8102 -0.4664
 2303TIP3   OH2 6872   4.837   6.071   0.018 -0.3807  0.2413  0.3070
 2303TIP3    H1 6873   4.828   5.995  -0.038  0.3480 -0.4624  1.1133
 2303TIP3    H2 6874   4.767   6.062   0.083  1.3520 -1.3129  2.1213
 2304TIP3   OH2 6875   0.472   0.404   1.639 -0.2116  0.3531 -0.2675
 2304TIP3    H1 6876   0.490   0.314   1.667  0.9529  1.3036  2.4148
 2304TIP3    H2 6877   0.554   0.433   1.599 -0.0841  0.6700  0.2175
 2305TIP3   OH2 6878   6.393   0.500   2.614 -0.0739 -0.2163  0.1237
 2305TIP3    H1 6879   6.468   0.537   2.567  1.7172 -0.2154  2.7730
 2305TIP3    H2 6880   6.387   0.552   2.694 -0.6445 -2.4707  1.6357
 2306TIP3   OH2 6881   1.333   3.729   0.606  0.2276  0.1524  0.6139
 2306TIP3    H1 6882   1.241   3.705   0.593 -0.0551  0.9334  1.1545
 2306TIP3    H2 6883   1.355   3.696   0.693 -0.0129  1.3884  1.1498
 2307TIP3   OH2 6884   1.680   0.660   5.306  0.0667  0.0811  0.3977
 2307TIP3    H1 6885   1.755   0.659   5.246 -0.0313  0.9278  0.2401
 2307TIP3    H2 6886   1.719   0.659   5.393  0.2387 -0.2359  0.3193
 2308TIP3   OH2 6887   2.891   5.610   0.221  0.5271 -0.5491 -0.2756
 2308TIP3    H1 6888   2.820   5.659   0.180  0.1291 -2.0545 -1.4596
 2308TIP3    H2 6889   2.933   5.564   0.149  0.5759 -2.3331  0.8421
 2309TIP3   OH2 6890   0.823   0.222   4.293 -0.1933  0.1661 -0.0977
 2309TIP3    H1 6891   0.762   0.206   4.365 -0.0430  0.8140  0.1792
 2309TIP3    H2 6892   0.909   0.196   4.328  0.5847  4.0720  1.4258
 2310TIP3   OH2 6893   5.935   5.915   5.397  0.2987 -0.2111 -0.2504
 2310TIP3    H1 6894   5.919   5.869   5.314  1.8393 -0.7743 -0.2745
 2310TIP3    H2 6895   5.867   5.883   5.456  0.2160 -1.1126 -0.8131
 2311TIP3   OH2 6896   0.321   3.771   3.749 -0.0878  0.4828  0.0027
 2311TIP3    H1 6897   0.238   3.786   3.793  0.5193  1.0368  0.9939
 2311TIP3    H2 6898   0.350   3.857   3.720  0.5243  0.4203  0.3929
 2312TIP3   OH2 6899   1.447   2.585   5.589 -0.0749 -0.5921 -0.2535
 2312TIP3    H1 6900   1.509   2.656   5.576 -0.6386 -0.0480 -0.0140
 2312TIP3    H2 6901   1.476   2.543   5.670  0.6712 -1.0830 -0.7613
 2313TIP3   OH2 6902   5.651   5.726   0.380  0.0835 -0.0194  0.0565
 2313TIP3    H1 6903   5.690   5.669   0.447 -0.4458 -1.8199 -1.0720
 2313TIP3    H2 6904   5.723   5.748   0.322  0.7104  2.1756  1.5296
 2314TIP3   OH2 6905   0.296   3.037   1.363  0.1946 -0.1119 -0.1762
 2314TIP3    H1 6906   0.250   2.953   1.366 -0.7216  0.3738 -0.2647
 2314TIP3    H2 6907   0.345   3.040   1.445  0.5909 -0.9233 -0.3741
 2315TIP3   OH2 6908   0.680   4.195   4.636 -0.1072 -0.3921  0.4986
 2315TIP3    H1 6909   0.729   4.220   4.715 -0.2084 -0.0221  0.4489
 2315TIP3    H2 6910   0.705   4.261   4.571  0.1816 -0.8510  0.1398
 2316TIP3   OH2 6911   0.040   1.212   2.908  0.0589 -0.4597 -0.5414
 2316TIP3    H1 6912   0.101   1.187   2.839  1.1477  0.5268  0.0155
 2316TIP3    H2 6913   0.097   1.236   2.982 -0.7698  3.3975 -0.9527
 2317TIP3   OH2 6914   6.226   2.992   0.936 -0.3961  0.2784  0.3023
 2317TIP3    H1 6915   6.141   2.967   0.973 -0.6900  1.7159  0.6629
 2317TIP3    H2 6916   6.209   3.077   0.895  0.9063  0.6368  0.4829
 2318TIP3   OH2 6917   4.115   5.842   5.623 -0.5226 -0.5189 -0.2097
 2318TIP3    H1 6918   4.052   5.859   5.554 -0.6523  1.6603  0.3672
 2318TIP3    H2 6919   4.156   5.759   5.599 -0.0959  0.4509 -3.2541
 2319TIP3   OH2 6920   1.875   4.713   1.206 -0.2685 -0.0006  0.2062
 2319TIP3    H1 6921   1.849   4.757   1.125  1.0153  0.4874  0.0334
 2319TIP3    H2 6922   1.846   4.772   1.276 -0.7140 -0.0634  0.0774
 2320TIP3   OH2 6923   5.791   0.783   5.480  1.0170  0.6134 -0.1175
 2320TIP3    H1 6924   5.813   0.844   5.551  2.5374 -0.0350  0.0140
 2320TIP3    H2 6925   5.864   0.791   5.418 -0.0041  0.7532 -1.3481
 2321TIP3   OH2 6926   6.580   4.179   1.784 -0.0641  0.6130 -0.0096
 2321TIP3    H1 6927   6.577   4.222   1.869  0.7446 -0.3327  0.5308
 2321TIP3    H2 6928   6.503   4.122   1.783  0.8722 -0.7182  0.8711
 2322TIP3   OH2 6929   4.820   0.160   3.355 -0.2804 -0.4751 -0.3284
 2322TIP3    H1 6930   4.779   0.076   3.333  0.7014 -0.4261 -2.7152
 2322TIP3    H2 6931   4.795   0.176   3.446  0.0749 -3.6651  0.4471
 2323TIP3   OH2 6932   0.508   0.224   4.110  0.3837  0.0488  0.5582
 2323TIP3    H1 6933   0.419   0.258   4.101  0.1296 -0.7288 -0.0735
 2323TIP3    H2 6934   0.525   0.224   4.204 -0.3685  0.0014  0.6968
 2324TIP3   OH2 6935   4.010   2.338   0.052 -0.3032 -0.4679  0.1001
 2324TIP3    H1 6936   4.080   2.342  -0.014 -0.8445  0.6146 -0.4303
 2324TIP3    H2 6937   4.056   2.324   0.135  0.6644  1.4795 -0.0611
 2325TIP3   OH2 6938   0.309   1.601   1.553 -0.1597  0.3621  0.1093
 2325TIP3    H1 6939   0.344   1.606   1.642  1.3552 -0.8226 -0.3809
 2325TIP3    H2 6940   0.245   1.530   1.556  2.0174 -1.7553 -0.3408
 2326TIP3   OH2 6941   2.800   2.781   2.394 -0.2844  0.5358 -0.1802
 2326TIP3    H1 6942   2.707   2.786   2.416 -0.1324 -1.1954  1.0773
 2326TIP3    H2 6943   2.822   2.867   2.359 -2.1094  1.3139  0.5001
 2327TIP3   OH2 6944   4.089   2.830   2.681 -0.1836 -0.7170 -0.5247
 2327TIP3    H1 6945   4.057   2.867   2.764  1.0617  1.2184 -0.8407
 2327TIP3    H2 6946   4.014   2.782   2.645 -2.1999  2.1112 -0.3891
 2328TIP3   OH2 6947   4.024   4.065   0.702  0.3732  0.7974  0.2229
 2328TIP3    H1 6948   4.094   4.072   0.766  0.2669 -0.5262  0.5126
 2328TIP3    H2 6949   4.067   4.041   0.621  0.2551 -0.1122  0.4238
 2329TIP3   OH2 6950   5.653   3.515   3.922  0.4126 -0.1352 -0.5611
 2329TIP3    H1 6951   5.674   3.574   3.995 -2.8143 -0.0313  0.4501
 2329TIP3    H2 6952   5.641   3.573   3.847  1.0846  0.0579 -0.5229
 2330TIP3   OH2 6953   1.095   5.769   4.673 -0.8781  0.1516  0.3046
 2330TIP3    H1 6954   1.040   5.711   4.621  0.0349  0.2259 -0.8092
 2330TIP3    H2 6955   1.054   5.855   4.665 -1.4359 -0.0708  0.7569
 2331TIP3   OH2 6956   4.381   2.402   0.866 -0.0628  0.4400 -0.4998
 2331TIP3    H1 6957   4.316   2.452   0.817  0.9005  2.9523  0.5936
 2331TIP3    H2 6958   4.429   2.468   0.916  2.0806 -1.4991  0.1931
 2332TIP3   OH2 6959   1.966   0.187   4.138  0.0532 -0.6001  0.1049
 2332TIP3    H1 6960   2.054   0.200   4.174 -0.4749 -0.9355  1.5831
 2332TIP3    H2 6961   1.931   0.113   4.186 -0.7947 -0.9240 -0.9707
 2333TIP3   OH2 6962   3.046   5.540   3.925  0.1960 -0.2102 -0.1669
 2333TIP3    H1 6963   2.991   5.601   3.974  0.7527  1.3298 -1.3573
 2333TIP3    H2 6964   2.984   5.480   3.883 -0.4775  0.4373 -0.1178
 2334TIP3   OH2 6965   6.775   4.008   1.095 -0.1565 -0.3208 -0.3399
 2334TIP3    H1 6966   6.710   3.938   1.097 -1.8784  1.2132  0.4518
 2334TIP3    H2 6967   6.794   4.025   1.187 -1.3600  1.5932 -0.3921
 2335TIP3   OH2 6968   4.693   1.880   2.099  0.2725  0.0481  0.2953
 2335TIP3    H1 6969   4.709   1.887   2.194  2.7643 -0.3995 -0.0376
 2335TIP3    H2 6970   4.690   1.786   2.082  0.1751  0.1292 -0.1406
 2336TIP3   OH2 6971   5.229   4.287   4.135 -0.1206 -0.1217  0.1320
 2336TIP3    H1 6972   5.310   4.297   4.186 -1.2212  1.2177  1.7682
 2336TIP3    H2 6973   5.227   4.195   4.109  1.3610 -0.4457  1.0576
 2337TIP3   OH2 6974   4.017   2.439   4.360 -0.3099  0.1175  0.0798
 2337TIP3    H1 6975   4.101   2.427   4.404 -0.2175  0.2639 -0.0563
 2337TIP3    H2 6976   3.952   2.414   4.426 -0.1252 -1.3136 -0.2520
 2338TIP3   OH2 6977   0.470   2.906   2.884  0.2225  0.6359 -1.2427
 2338TIP3    H1 6978   0.394   2.964   2.885 -1.1142 -1.0657 -1.6872
 2338TIP3    H2 6979   0.543   2.964   2.862 -0.7306  2.5094  0.2559
 2339TIP3   OH2 6980   0.420   0.725   1.762 -0.6402  0.7020  0.7978
 2339TIP3    H1 6981   0.483   0.795   1.779  0.8696  0.0031 -1.4323
 2339TIP3    H2 6982   0.411   0.679   1.846  0.0597  2.1873  1.7216
 2340TIP3   OH2 6983   4.099   5.617   1.453 -0.0354 -0.1474  0.0873
 2340TIP3    H1 6984   4.043   5.685   1.488 -0.7042  0.0110 -1.2348
 2340TIP3    H2 6985   4.126   5.566   1.529  0.6834  1.7085  1.1517
 2341TIP3   OH2 6986   0.301   6.378   4.306 -0.3968 -0.0806 -0.4175
 2341TIP3    H1 6987   0.285   6.472   4.317 -1.7919 -0.4411  1.0965
 2341TIP3    H2 6988   0.370   6.373   4.240  2.8572  2.1997  2.4226
 2342TIP3   OH2 6989   6.852   6.124   5.580 -0.0441  0.2306 -0.0320
 2342TIP3    H1 6990   6.922   6.142   5.643  1.0194  1.6035 -1.5369
 2342TIP3    H2 6991   6.860   6.030   5.562  0.8723  0.2037  0.4268
 2343TIP3   OH2 6992   0.658   0.196   2.770  0.0668 -0.0619  0.0136
 2343TIP3    H1 6993   0.688   0.249   2.844 -0.8316 -1.0211  1.0905
 2343TIP3    H2 6994   0.589   0.141   2.806 -0.7909 -0.1529 -1.6792
 2344TIP3   OH2 6995   3.255   3.188   3.532 -0.1476  0.1222  0.2023
 2344TIP3    H1 6996   3.303   3.221   3.607 -0.5573 -0.6518  0.8271
 2344TIP3    H2 6997   3.228   3.099   3.558 -1.4270  0.3269 -0.3239
 2345TIP3   OH2 6998   1.207   5.328   1.910  0.0135  0.7302  0.0849
 2345TIP3    H1 6999   1.120   5.293   1.892  0.1826  0.3129  0.0782
 2345TIP3    H2 7000   1.225   5.304   2.000 -0.2222  1.5496  0.3618
 2346TIP3   OH2 7001   6.402   2.693   3.561 -0.2416 -0.1924 -0.6075
 2346TIP3    H1 7002   6.334   2.626   3.557 -0.4235 -0.0465 -0.0245
 2346TIP3    H2 7003   6.383   2.751   3.488 -0.3578 -0.5165 -0.8360
 2347TIP3   OH2 7004   2.874   6.305   1.516  0.0771 -0.1411  0.6540
 2347TIP3    H1 7005   2.902   6.391   1.545 -0.2297  0.5820 -1.0468
 2347TIP3    H2 7006   2.941   6.277   1.455 -1.0467  0.0349 -0.7231
 2348TIP3   OH2 7007   5.180   6.097   4.653  0.0331 -0.5187 -0.3928
 2348TIP3    H1 7008   5.137   6.182   4.650  0.0567 -0.5230 -1.5278
 2348TIP3    H2 7009   5.247   6.102   4.584  0.1720 -1.3794 -0.3332
 2349TIP3   OH2 7010   5.320   4.739   0.600  0.4331  0.1244 -0.0272
 2349TIP3    H1 7011   5.286   4.792   0.529  1.2597 -0.4199 -0.8511
 2349TIP3    H2 7012   5.299   4.649   0.575  2.3463 -0.2314 -0.5451
 2350TIP3   OH2 7013   0.735   1.139   3.598  0.0933 -0.4805  0.6752
 2350TIP3    H1 7014   0.733   1.214   3.657 -0.4155  0.0695 -0.0198
 2350TIP3    H2 7015   0.821   1.099   3.612  0.6667  0.6601  0.5417
 2351TIP3   OH2 7016   3.780   3.527   2.222 -0.0720 -0.6763 -0.3743
 2351TIP3    H1 7017   3.815   3.447   2.182 -2.4223 -2.2634  0.5454
 2351TIP3    H2 7018   3.784   3.510   2.316 -0.9809  0.1186 -0.1813
 2352TIP3   OH2 7019   5.872   0.201   3.863 -0.5063 -0.5309  0.7640
 2352TIP3    H1 7020   5.914   0.253   3.795  0.5015 -0.4063  1.4584
 2352TIP3    H2 7021   5.826   0.132   3.816 -1.1078  0.4443 -0.1232
 2353TIP3   OH2 7022   4.434   0.364   3.907 -0.2452  0.4654  0.3992
 2353TIP3    H1 7023   4.413   0.420   3.832  1.5991 -1.2213 -1.5267
 2353TIP3    H2 7024   4.349   0.337   3.942 -1.2387 -0.1097 -2.2366
 2354TIP3   OH2 7025   5.536   5.639   5.463  0.2375  0.1829 -0.2248
 2354TIP3    H1 7026   5.554   5.701   5.534  1.2991 -0.1174 -0.2162
 2354TIP3    H2 7027   5.478   5.686   5.404  0.6658  1.0287  0.0106
 2355TIP3   OH2 7028   7.218   5.082   2.492 -0.2820 -0.3336 -0.2187
 2355TIP3    H1 7029   7.133   5.052   2.524 -0.8220  0.0800 -1.2220
 2355TIP3    H2 7030   7.203   5.173   2.467  0.4266 -0.3023 -0.5353
 2356TIP3   OH2 7031   3.488   5.423   1.744 -0.3184  0.1382 -0.1270
 2356TIP3    H1 7032   3.513   5.417   1.652 -3.0199 -2.8001 -0.8679
 2356TIP3    H2 7033   3.422   5.493   1.746 -1.1453 -0.5854 -0.7663
 2357TIP3   OH2 7034   6.885   0.888   0.311 -0.1370  0.0982 -0.2985
 2357TIP3    H1 7035   6.816   0.826   0.334  0.0367  0.3743  0.9983
 2357TIP3    H2 7036   6.966   0.839   0.321 -0.0509  0.2645 -0.1754
 2358TIP3   OH2 7037   4.689   4.016   4.848  1.0247 -0.0957 -0.4489
 2358TIP3    H1 7038   4.687   3.933   4.895  0.8054 -0.3851 -0.9543
 2358TIP3    H2 7039   4.777   4.051   4.864  1.0699 -0.3586 -0.1194
 2359TIP3   OH2 7040   0.945   5.741   5.532 -0.0014  0.3382 -0.6654
 2359TIP3    H1 7041   1.013   5.689   5.576 -0.0245 -0.7682 -1.8542
 2359TIP3    H2 7042   0.917   5.686   5.458 -0.2854  1.9120 -1.7909
 2360TIP3   OH2 7043   0.739   5.958   0.177  0.5888 -0.4014  0.4816
 2360TIP3    H1 7044   0.678   5.991   0.243 -1.0851  0.1670 -1.2593
 2360TIP3    H2 7045   0.705   5.872   0.154  0.0779  0.1378 -0.8855
 2361TIP3   OH2 7046   6.081   4.500   4.837  0.0911  0.0846  0.4902
 2361TIP3    H1 7047   6.025   4.445   4.892  1.3497 -1.1718  0.5624
 2361TIP3    H2 7048   6.168   4.492   4.875  0.0826  3.5951  1.5938
 2362TIP3   OH2 7049   2.410   4.105   5.353 -0.0087 -0.2122  0.5849
 2362TIP3    H1 7050   2.332   4.160   5.346  1.5763  1.9948 -2.0371
 2362TIP3    H2 7051   2.429   4.079   5.263  1.1933 -2.3866  1.3973
 2363TIP3   OH2 7052   0.520   0.583   3.202  0.0489 -0.2562 -0.5079
 2363TIP3    H1 7053   0.461   0.655   3.181 -1.6996 -1.4973 -0.0929
 2363TIP3    H2 7054   0.587   0.585   3.133 -1.6247 -0.0291 -2.1973
 2364TIP3   OH2 7055   5.897   0.177   2.497  0.4479 -0.0716 -0.0923
 2364TIP3    H1 7056   5.930   0.223   2.419 -0.9611  0.0096 -0.6690
 2364TIP3    H2 7057   5.919   0.235   2.569 -0.9724  1.4100 -0.7714
 2365TIP3   OH2 7058   2.105   1.629   0.824  0.1805 -0.0283 -0.2412
 2365TIP3    H1 7059   2.167   1.601   0.891  1.4960  1.1278 -0.8978
 2365TIP3    H2 7060   2.086   1.550   0.774  1.3829 -0.3684 -0.2028
 2366TIP3   OH2 7061   5.723   1.865   3.214  0.4616  0.1661 -0.2681
 2366TIP3    H1 7062   5.662   1.924   3.170 -0.1898 -1.8109 -2.1792
 2366TIP3    H2 7063   5.809   1.908   3.204  0.3119 -0.0263 -3.3410
 2367TIP3   OH2 7064   3.543   1.984   2.246  0.0253 -0.1666  0.5377
 2367TIP3    H1 7065   3.538   2.014   2.155 -0.2646 -0.8248  0.3271
 2367TIP3    H2 7066   3.617   2.032   2.283  0.3635 -0.1374 -0.1493
 2368TIP3   OH2 7067   3.492   4.694   0.741 -0.6465 -0.6051 -0.2166
 2368TIP3    H1 7068   3.572   4.723   0.785 -1.2815 -1.6334  1.7341
 2368TIP3    H2 7069   3.501   4.727   0.652  1.1613  0.7672  0.3977
 2369TIP3   OH2 7070   1.379   1.341   2.788  0.4782 -0.4511 -0.0112
 2369TIP3    H1 7071   1.318   1.408   2.757 -0.1063 -1.2919 -0.7138
 2369TIP3    H2 7072   1.330   1.259   2.784  1.0436 -0.8886  1.2221
 2370TIP3   OH2 7073   1.006   2.592   3.859 -0.3322 -0.3749 -0.2030
 2370TIP3    H1 7074   0.945   2.523   3.834 -3.6774  2.3190 -0.0775
 2370TIP3    H2 7075   1.004   2.592   3.955 -0.7436  0.1992 -0.2078
 2371TIP3   OH2 7076   1.753   4.476   1.023 -0.0436  0.7339  0.1951
 2371TIP3    H1 7077   1.779   4.568   1.022  3.1598 -0.0446 -0.1500
 2371TIP3    H2 7078   1.709   4.464   1.107 -0.9999  2.6548  0.0205
 2372TIP3   OH2 7079   3.555   3.740   2.762 -0.5750  0.4265  0.0575
 2372TIP3    H1 7080   3.563   3.773   2.672  0.2301 -1.1013 -0.4603
 2372TIP3    H2 7081   3.476   3.687   2.761  0.0367 -0.4995 -0.0610
 2373TIP3   OH2 7082   5.394   2.330   2.185 -0.0664 -0.3185  0.2770
 2373TIP3    H1 7083   5.342   2.410   2.191  1.7056  0.8524  0.8042
 2373TIP3    H2 7084   5.397   2.311   2.091 -0.8478 -0.0323  0.1799
 2374TIP3   OH2 7085   4.961   6.524   2.370 -0.4542  0.3925  0.3312
 2374TIP3    H1 7086   5.044   6.484   2.394  1.2234  2.6882 -1.2076
 2374TIP3    H2 7087   4.968   6.538   2.275 -2.2987  1.2920  0.2850
 2375TIP3   OH2 7088   0.621   6.505   2.404  0.1664  0.6231  0.1865
 2375TIP3    H1 7089   0.562   6.460   2.344  0.9180 -0.3490  0.1504
 2375TIP3    H2 7090   0.600   6.470   2.490  1.8786 -1.1195 -0.0390
 2376TIP3   OH2 7091   4.231   4.984   1.395  0.5816 -0.0450  0.4413
 2376TIP3    H1 7092   4.196   4.941   1.317  0.1952 -0.0258  0.6044
 2376TIP3    H2 7093   4.325   4.991   1.378  0.5906 -0.5970  0.2457
 2377TIP3   OH2 7094   2.025   0.214   4.910  0.1546  0.2854 -0.0435
 2377TIP3    H1 7095   1.984   0.218   4.997 -0.1072 -0.6142 -0.1077
 2377TIP3    H2 7096   1.985   0.285   4.861  0.6034  1.0654  0.6923
 2378TIP3   OH2 7097   1.374   0.472   2.514  0.0387  0.8311 -0.1430
 2378TIP3    H1 7098   1.460   0.502   2.545  0.1442  0.0524  0.3413
 2378TIP3    H2 7099   1.381   0.474   2.419  1.1051 -0.5826 -0.1266
 2379TIP3   OH2 7100   5.136   6.121   2.811  0.3846  0.4345 -0.5844
 2379TIP3    H1 7101   5.230   6.106   2.802  0.6106  0.0562  1.7027
 2379TIP3    H2 7102   5.096   6.073   2.739  1.7940 -1.8086  0.0444
 2380TIP3   OH2 7103   0.771   0.980   5.385 -0.3448  0.3894  0.2728
 2380TIP3    H1 7104   0.843   1.030   5.424 -0.7325  0.3402  1.0713
 2380TIP3    H2 7105   0.814   0.913   5.333  0.2093  2.2925 -1.8646
 2381TIP3   OH2 7106   3.401   3.480   2.064 -0.4299  0.0921  0.1947
 2381TIP3    H1 7107   3.428   3.418   2.132 -0.5550 -0.5285 -0.3137
 2381TIP3    H2 7108   3.474   3.542   2.058 -0.1607 -0.1901  0.4863
 2382TIP3   OH2 7109   2.891   3.274   3.983 -0.2876  0.2003 -0.3909
 2382TIP3    H1 7110   2.960   3.262   3.917 -0.8354  0.4622 -1.0286
 2382TIP3    H2 7111   2.869   3.185   4.012  0.1507  0.1020 -0.3629
 2383TIP3   OH2 7112   5.673   0.810   5.875  0.3010 -0.7003  0.0557
 2383TIP3    H1 7113   5.602   0.829   5.935  0.3819  0.7451 -0.2659
 2383TIP3    H2 7114   5.647   0.852   5.793  0.4609 -2.1320 -0.7575
 2384TIP3   OH2 7115   6.147   5.942   4.133  0.7450 -0.4913  0.3352
 2384TIP3    H1 7116   6.165   6.021   4.184  0.3595 -0.7018  0.8061
 2384TIP3    H2 7117   6.108   5.881   4.196 -0.2509 -0.5616 -0.3347
 2385TIP3   OH2 7118   5.428   1.817   4.622  0.4662 -0.3213 -0.2108
 2385TIP3    H1 7119   5.466   1.761   4.690 -0.7150 -0.3567  0.4559
 2385TIP3    H2 7120   5.471   1.902   4.634  0.7233 -0.5019  0.1786
 2386TIP3   OH2 7121   1.705   6.015   0.632 -0.0539 -0.3039  0.0566
 2386TIP3    H1 7122   1.699   6.050   0.543 -1.0476 -0.8050 -0.0944
 2386TIP3    H2 7123   1.622   5.968   0.644 -0.3875  0.6073  1.6088
 2387TIP3   OH2 7124   1.006   6.317   1.484 -0.0678  0.5133 -0.5392
 2387TIP3    H1 7125   0.927   6.347   1.530  0.6411  1.2863  0.2040
 2387TIP3    H2 7126   1.032   6.238   1.530  0.0808  0.7406 -0.2308
 2388TIP3   OH2 7127   5.824   2.711   1.292 -0.5574  0.8166 -0.2666
 2388TIP3    H1 7128   5.847   2.803   1.305  1.2580  0.2734  0.7749
 2388TIP3    H2 7129   5.885   2.663   1.348 -3.7213 -0.9063  2.0032
 2389TIP3   OH2 7130   2.429   0.945   5.515  0.1424  0.6013  0.6513
 2389TIP3    H1 7131   2.463   0.887   5.446  1.1776 -0.8382  2.2739
 2389TIP3    H2 7132   2.371   1.005   5.469 -1.1097 -1.8086 -1.1562
 2390TIP3   OH2 7133   2.519   4.909   0.196 -0.0533  0.1358  0.1541
 2390TIP3    H1 7134   2.535   4.823   0.234 -0.8676  0.4937  1.3725
 2390TIP3    H2 7135   2.448   4.946   0.249 -0.7377  0.9674 -1.2694
 2391TIP3   OH2 7136   6.468   1.054   5.539 -0.4675  0.2631 -0.0286
 2391TIP3    H1 7137   6.378   1.042   5.509 -0.8835  1.3038  0.7395
 2391TIP3    H2 7138   6.506   0.966   5.538 -0.8568  0.0498 -2.2863
 2392TIP3   OH2 7139   4.913   0.545   5.101  0.3327 -0.2842  0.1815
 2392TIP3    H1 7140   4.967   0.542   5.022  0.3954  0.8351  0.1582
 2392TIP3    H2 7141   4.870   0.460   5.105  1.7902 -1.0638 -0.0258
 2393TIP3   OH2 7142   3.136   2.093   1.433 -0.0270 -0.4425 -0.3765
 2393TIP3    H1 7143   3.116   2.164   1.495  0.5823 -0.4533 -0.1634
 2393TIP3    H2 7144   3.118   2.013   1.482  0.3094 -0.4488 -0.2615
 2394TIP3   OH2 7145   3.016   4.464   5.230 -0.2465 -0.0651 -0.9652
 2394TIP3    H1 7146   2.932   4.489   5.268  0.6982 -0.5940  1.7613
 2394TIP3    H2 7147   3.035   4.532   5.166 -3.1019 -0.4242 -2.3503
 2395TIP3   OH2 7148   6.309   5.310   4.704 -0.0857 -0.0764 -0.6538
 2395TIP3    H1 7149   6.332   5.275   4.790  2.4166  1.8839 -0.4156
 2395TIP3    H2 7150   6.312   5.233   4.646 -1.1992 -1.3184  0.8510
 2396TIP3   OH2 7151   4.946   3.473   0.159  0.2516  0.8151 -0.5980
 2396TIP3    H1 7152   5.019   3.426   0.118 -0.9501 -0.1227 -1.7453
 2396TIP3    H2 7153   4.884   3.488   0.088 -1.7927 -0.6502  0.7708
 2397TIP3   OH2 7154   2.769   5.168   4.826 -0.1835  0.1637 -0.4753
 2397TIP3    H1 7155   2.767   5.263   4.832  0.5660  0.3025 -1.9990
 2397TIP3    H2 7156   2.859   5.147   4.802 -0.5669 -0.8558 -1.0857
 2398TIP3   OH2 7157   2.390   1.490   2.251 -0.4115  0.2859 -0.2097
 2398TIP3    H1 7158   2.419   1.513   2.340  1.0390  1.2020 -0.8758
 2398TIP3    H2 7159   2.314   1.546   2.235 -1.1955 -0.4752  0.7349
 2399TIP3   OH2 7160   5.302   6.681   2.259 -0.4550 -0.7901 -0.0308
 2399TIP3    H1 7161   5.331   6.597   2.222 -0.6479 -0.7226 -0.3347
 2399TIP3    H2 7162   5.364   6.698   2.330  1.8135  0.5239 -2.1660
 2400TIP3   OH2 7163   2.598   0.201   5.561  0.2078  0.0116  0.1612
 2400TIP3    H1 7164   2.536   0.161   5.621  1.2623 -0.9992  0.6158
 2400TIP3    H2 7165   2.674   0.223   5.615  0.5934  0.4568 -0.5346
 2401TIP3   OH2 7166   3.477   5.794   4.761  0.1420 -0.0100 -0.0194
 2401TIP3    H1 7167   3.525   5.812   4.842  1.7151  0.0127 -0.9245
 2401TIP3    H2 7168   3.501   5.865   4.702 -1.9197  0.6285 -0.1646
 2402TIP3   OH2 7169   2.618   3.698   4.172  0.1246  0.1268 -0.0545
 2402TIP3    H1 7170   2.655   3.677   4.086 -1.0274 -0.5071 -0.4170
 2402TIP3    H2 7171   2.524   3.707   4.157  0.1454  2.1412  0.7662
 2403TIP3   OH2 7172   5.438   5.363   1.316  0.3328  0.7019  0.3234
 2403TIP3    H1 7173   5.396   5.278   1.327 -0.2074  0.7646 -1.0629
 2403TIP3    H2 7174   5.499   5.370   1.390 -0.4171 -0.3910  1.0719
 2404TIP3   OH2 7175   3.183   4.017   5.325 -0.2597 -0.4125 -0.3295
 2404TIP3    H1 7176   3.263   4.069   5.324  0.8644 -2.0966 -0.9380
 2404TIP3    H2 7177   3.114   4.080   5.300  1.0313  0.7807 -1.0562
 2405TIP3   OH2 7178   4.885   4.120   5.853  0.0042 -0.2930  0.6416
 2405TIP3    H1 7179   4.954   4.170   5.811 -1.4398  0.3844 -1.0278
 2405TIP3    H2 7180   4.897   4.136   5.947  3.1433 -1.6376  0.5752
 2406TIP3   OH2 7181   6.557   6.353   2.505  0.1186 -0.6084 -0.1007
 2406TIP3    H1 7182   6.577   6.345   2.412 -0.9373 -2.1625 -0.2337
 2406TIP3    H2 7183   6.610   6.427   2.535 -1.4229  1.6705 -2.4932
 2407TIP3   OH2 7184   0.050   0.280   5.015 -0.1589 -0.1532  0.3826
 2407TIP3    H1 7185   0.136   0.301   5.050  0.3827 -0.2326 -0.8544
 2407TIP3    H2 7186  -0.003   0.359   5.032  0.7855  0.7718 -0.8240
 2408TIP3   OH2 7187   5.049   4.272   5.713 -0.2894  0.3742  0.0598
 2408TIP3    H1 7188   5.060   4.367   5.723 -1.7494  0.5337  0.4193
 2408TIP3    H2 7189   5.123   4.245   5.658  0.5485  1.6003  0.5392
 2409TIP3   OH2 7190   5.181   1.152   4.899 -0.2985 -0.5932  0.8416
 2409TIP3    H1 7191   5.144   1.120   4.981 -0.7939  0.7643  1.1803
 2409TIP3    H2 7192   5.106   1.183   4.849 -0.0040 -1.4697 -0.1755
 2410TIP3   OH2 7193   4.763   2.087   0.591  0.1413 -0.0820 -0.3906
 2410TIP3    H1 7194   4.691   2.093   0.654 -1.1542 -0.5897 -1.7712
 2410TIP3    H2 7195   4.807   2.005   0.612  0.8334  0.5902  0.9378
 2411TIP3   OH2 7196   6.930   1.962   5.666 -0.7858 -0.1806  0.5011
 2411TIP3    H1 7197   6.896   1.872   5.667 -1.5127  0.0875  0.5688
 2411TIP3    H2 7198   6.967   1.975   5.753  0.6071 -0.8794  0.0491
 2412TIP3   OH2 7199   1.379   1.594   5.770  0.1686 -0.5019  0.6189
 2412TIP3    H1 7200   1.420   1.670   5.812  0.2211 -0.8926  1.2813
 2412TIP3    H2 7201   1.300   1.578   5.821 -1.3095  0.7593 -1.1486
 2413TIP3   OH2 7202   2.452   2.034   5.044 -0.0270 -0.5528  0.3769
 2413TIP3    H1 7203   2.462   1.965   4.978  1.9641  1.3868 -1.5127
 2413TIP3    H2 7204   2.383   2.091   5.009  2.2126  1.4404 -1.0915
 2414TIP3   OH2 7205   6.400   5.253   2.662  0.0246  0.2651 -0.3381
 2414TIP3    H1 7206   6.455   5.201   2.603 -0.3243 -1.1571  0.5279
 2414TIP3    H2 7207   6.311   5.224   2.642 -0.2058  0.8156 -0.1068
 2415TIP3   OH2 7208  -0.003   1.970   3.746 -0.4975  0.0051 -0.1102
 2415TIP3    H1 7209   0.070   1.917   3.777  0.3854  0.5006 -1.2838
 2415TIP3    H2 7210  -0.004   2.046   3.805  1.2358  0.9902 -1.2730
 2416TIP3   OH2 7211   2.443   2.938   0.363  0.4030 -0.2080  0.2128
 2416TIP3    H1 7212   2.371   2.909   0.419  0.2939  0.2767  0.3253
 2416TIP3    H2 7213   2.519   2.941   0.420  0.3110  0.1958  0.3213
 2417TIP3   OH2 7214   4.572   6.136   0.106 -0.0366  0.1715  0.7302
 2417TIP3    H1 7215   4.527   6.052   0.094 -0.7416  0.6810 -0.4584
 2417TIP3    H2 7216   4.520   6.198   0.054 -0.9753  1.8727  3.4919
 2418TIP3   OH2 7217   2.409   2.112   3.372  0.0566 -0.4359 -0.3939
 2418TIP3    H1 7218   2.358   2.031   3.367  1.7939 -1.7133  1.1442
 2418TIP3    H2 7219   2.496   2.088   3.341  0.2540  1.2406 -1.2790
 2419TIP3   OH2 7220   2.951   4.835   5.330 -0.6838 -0.4397 -0.0131
 2419TIP3    H1 7221   2.861   4.808   5.345 -0.5094 -0.9581  0.1261
 2419TIP3    H2 7222   2.959   4.920   5.374 -0.7708 -0.9467  1.0147
 2420TIP3   OH2 7223   2.224   4.826   5.888 -0.2723 -0.1498 -0.2623
 2420TIP3    H1 7224   2.155   4.825   5.821 -1.8041 -0.6434  1.2683
 2420TIP3    H2 7225   2.241   4.919   5.904  0.1203 -0.0253 -1.3131
 2421TIP3   OH2 7226   7.004   3.319   4.778 -0.3619 -0.0637 -0.1153
 2421TIP3    H1 7227   7.052   3.358   4.705 -1.9035 -2.0088 -2.3035
 2421TIP3    H2 7228   7.041   3.231   4.787 -1.2863 -0.4148  0.3639
 2422TIP3   OH2 7229   3.927   1.282   2.595  0.4093  1.2739 -0.4281
 2422TIP3    H1 7230   4.010   1.313   2.559  1.1216 -0.3528 -0.2634
 2422TIP3    H2 7231   3.887   1.234   2.522  1.2469 -0.9059  0.4747
 2423TIP3   OH2 7232   5.089   4.595   1.156 -0.1731 -0.3116  0.3560
 2423TIP3    H1 7233   5.155   4.621   1.220  0.7745 -0.0910 -0.6754
 2423TIP3    H2 7234   5.034   4.673   1.145 -0.5487 -0.4612  1.1371
 2424TIP3   OH2 7235   3.445   3.656   1.723  0.2684 -0.1641  0.3701
 2424TIP3    H1 7236   3.458   3.572   1.680 -1.6545  0.7501 -2.2665
 2424TIP3    H2 7237   3.501   3.717   1.676 -0.1370  0.4601  0.6776
 2425TIP3   OH2 7238   4.678   6.134   1.069  0.6181 -0.5209 -0.0114
 2425TIP3    H1 7239   4.692   6.163   1.159  0.8028  1.5768 -0.6573
 2425TIP3    H2 7240   4.762   6.152   1.026  0.1884 -0.5050 -0.8440
 2426TIP3   OH2 7241   3.724   2.929   2.228  0.2253  0.3066 -0.3112
 2426TIP3    H1 7242   3.677   2.989   2.287  0.0327  0.9773 -1.1316
 2426TIP3    H2 7243   3.813   2.963   2.225  0.3650 -0.0257 -0.0187
 2427TIP3   OH2 7244   5.638   6.718   4.350  0.0016 -0.2167  0.2862
 2427TIP3    H1 7245   5.729   6.707   4.378  0.3078  1.7113  0.1919
 2427TIP3    H2 7246   5.606   6.791   4.403 -1.6944 -1.2262  0.7232
 2428TIP3   OH2 7247   2.846   0.681   4.887  0.8342  0.0661 -0.4657
 2428TIP3    H1 7248   2.773   0.623   4.865 -1.0033  2.4783 -1.1734
 2428TIP3    H2 7249   2.886   0.703   4.803  0.4017  1.1331 -0.4104
 2429TIP3   OH2 7250   3.062   2.937   1.492  0.0339  0.3753  0.3258
 2429TIP3    H1 7251   3.153   2.928   1.467  0.5697  2.0351  1.5113
 2429TIP3    H2 7252   3.064   2.976   1.580 -1.8052  0.2268  0.4876
 2430TIP3   OH2 7253   1.790   1.446   0.787  0.3161 -0.6512 -0.3744
 2430TIP3    H1 7254   1.867   1.412   0.742  1.2812 -1.4245  1.7180
 2430TIP3    H2 7255   1.733   1.370   0.797  0.0228 -0.4432 -0.4680
 2431TIP3   OH2 7256   0.100   5.902   4.345  0.1671 -0.0838 -0.1092
 2431TIP3    H1 7257   0.007   5.914   4.323  0.3459 -1.1356 -1.6436
 2431TIP3    H2 7258   0.147   5.949   4.276  0.7607 -1.5530 -0.7529
 2432TIP3   OH2 7259   7.097   5.985   5.769 -0.0769  0.8118 -0.1207
 2432TIP3    H1 7260   7.171   5.925   5.758 -0.8856  0.1231 -2.2069
 2432TIP3    H2 7261   7.122   6.040   5.843  1.5762 -0.7858  0.5823
 2433TIP3   OH2 7262   0.223   1.553   1.201 -0.0911 -0.5244 -0.0548
 2433TIP3    H1 7263   0.185   1.512   1.278  0.8378 -0.0991  0.6468
 2433TIP3    H2 7264   0.190   1.501   1.127 -1.3840 -0.6284  0.5754
 2434TIP3   OH2 7265   4.635   3.568   0.473  0.5707  0.1990 -0.0640
 2434TIP3    H1 7266   4.656   3.475   0.484  1.8075  0.2614 -1.5422
 2434TIP3    H2 7267   4.601   3.575   0.384  2.5916  1.4494 -0.8230
 2435TIP3   OH2 7268   0.604   2.362   5.147 -0.0743 -0.1800  0.0053
 2435TIP3    H1 7269   0.692   2.351   5.112  0.6604 -0.0305  1.7157
 2435TIP3    H2 7270   0.607   2.320   5.233 -1.0988  1.4815  0.9140
 2436TIP3   OH2 7271   3.462   2.392   1.898  0.3308  0.1462 -0.3152
 2436TIP3    H1 7272   3.489   2.397   1.990 -0.5052 -0.7358 -0.0046
 2436TIP3    H2 7273   3.379   2.440   1.895  1.2724  1.8161 -1.0183
 2437TIP3   OH2 7274   1.931   4.725   2.268 -0.1842 -0.5554  0.8093
 2437TIP3    H1 7275   1.884   4.731   2.352 -0.6310  0.3293  0.5112
 2437TIP3    H2 7276   2.005   4.784   2.278 -0.6858  0.1665  0.3028
 2438TIP3   OH2 7277   1.790   4.214   4.310  0.0556 -0.5916 -0.1526
 2438TIP3    H1 7278   1.881   4.227   4.286 -0.4423  1.4525 -1.2041
 2438TIP3    H2 7279   1.791   4.209   4.406  1.3040 -0.9680 -0.1766
 2439TIP3   OH2 7280   1.525   3.559   5.322 -0.3013 -0.0382  0.0783
 2439TIP3    H1 7281   1.588   3.496   5.286 -0.6236 -0.3328  0.0245
 2439TIP3    H2 7282   1.443   3.510   5.327 -0.1815 -0.1183  1.5498
 2440TIP3   OH2 7283   2.613   6.269   1.618  0.8371  0.4005 -0.4293
 2440TIP3    H1 7284   2.638   6.341   1.676  0.0123  0.3407  0.0220
 2440TIP3    H2 7285   2.676   6.273   1.546  0.4310  1.9559 -0.7315
 2441TIP3   OH2 7286   6.124   1.641   5.485  0.1032  0.1759 -0.0111
 2441TIP3    H1 7287   6.106   1.550   5.464  1.1821  0.5272 -2.9303
 2441TIP3    H2 7288   6.065   1.691   5.429  1.7016  1.2432 -0.8248
 2442TIP3   OH2 7289   1.612   4.192   3.469 -0.1684 -0.1391  0.0112
 2442TIP3    H1 7290   1.602   4.097   3.477  0.9048 -0.1663  1.2401
 2442TIP3    H2 7291   1.693   4.204   3.420 -2.3975  0.1595 -4.0406
 2443TIP3   OH2 7292   5.859   3.518   3.330 -0.1291 -0.2270 -0.2983
 2443TIP3    H1 7293   5.928   3.584   3.342  0.9788 -1.1470 -1.3607
 2443TIP3    H2 7294   5.793   3.563   3.277  0.7251  0.0014 -1.2092
 2444TIP3   OH2 7295   4.372   1.957   2.599  0.3430  0.4441  0.2559
 2444TIP3    H1 7296   4.386   1.863   2.598  0.9427  0.4620  2.1584
 2444TIP3    H2 7297   4.291   1.970   2.551 -1.2567 -1.3695  2.2678
 2445TIP3   OH2 7298   1.134   6.622   1.743 -0.3981 -0.5614 -0.2703
 2445TIP3    H1 7299   1.156   6.583   1.659 -1.6820  0.0897 -0.9493
 2445TIP3    H2 7300   1.162   6.558   1.808 -1.0472 -1.8990 -1.2722
 2446TIP3   OH2 7301   3.152   5.291   3.566 -0.1935 -0.3922 -0.4159
 2446TIP3    H1 7302   3.225   5.261   3.510 -0.1812  1.6218 -1.5916
 2446TIP3    H2 7303   3.141   5.383   3.542 -1.2287  0.1266  1.8645
 2447TIP3   OH2 7304   5.764   1.223   2.080 -0.0349 -0.3504  0.2376
 2447TIP3    H1 7305   5.816   1.287   2.129 -0.9183 -1.8336  3.4007
 2447TIP3    H2 7306   5.676   1.261   2.079 -0.0686 -0.4376  0.0240
 2448TIP3   OH2 7307   3.770   6.529   4.506 -0.0303  0.1130 -0.1734
 2448TIP3    H1 7308   3.828   6.528   4.582 -0.5797  1.4562  0.2851
 2448TIP3    H2 7309   3.814   6.586   4.443 -1.5443  2.5064  0.8007
 2449TIP3   OH2 7310   4.390   2.888   2.982 -0.1682 -0.0426 -0.5862
 2449TIP3    H1 7311   4.482   2.891   3.008  0.1713 -1.2010 -1.5585
 2449TIP3    H2 7312   4.382   2.952   2.911  0.1150 -0.6401 -1.1579
 2450TIP3   OH2 7313   6.150   0.218   0.590  0.3669 -0.2970  0.0947
 2450TIP3    H1 7314   6.185   0.213   0.679  0.4100 -0.2950  0.0780
 2450TIP3    H2 7315   6.223   0.250   0.537 -0.6162  3.2148  0.6328
 2451TIP3   OH2 7316   5.498   6.298   4.197  0.5694 -0.4979 -0.2828
 2451TIP3    H1 7317   5.474   6.318   4.287  1.3838 -1.9234  0.2800
 2451TIP3    H2 7318   5.418   6.312   4.147  0.1492  0.4644  0.6281
 2452TIP3   OH2 7319   0.639   5.244   0.765 -0.3611 -0.1654  0.1921
 2452TIP3    H1 7320   0.655   5.149   0.769  1.5374  0.1133  0.0875
 2452TIP3    H2 7321   0.583   5.255   0.687  0.4277 -1.0836 -0.5356
 2453TIP3   OH2 7322   1.059   3.616   1.773 -0.2230 -0.2261  0.1766
 2453TIP3    H1 7323   0.977   3.605   1.724 -0.2506  0.3855  0.0790
 2453TIP3    H2 7324   1.067   3.711   1.785 -0.3053 -0.3704  1.5124
 2454TIP3   OH2 7325   2.400   2.856   4.854 -0.4659 -0.3828  0.2551
 2454TIP3    H1 7326   2.403   2.774   4.903 -0.1417 -0.9221 -0.6450
 2454TIP3    H2 7327   2.490   2.888   4.853 -0.2985 -0.8360 -0.7262
 2455TIP3   OH2 7328   7.173   5.230   4.399  0.6209 -0.5678  0.3974
 2455TIP3    H1 7329   7.246   5.183   4.359  1.5285 -0.2360  1.5958
 2455TIP3    H2 7330   7.190   5.223   4.493 -0.5088  0.1490  0.6687
 2456TIP3   OH2 7331   3.995   1.193   3.872 -0.4315 -0.2554  0.4270
 2456TIP3    H1 7332   4.069   1.166   3.926 -0.9332 -0.2946  1.1132
 2456TIP3    H2 7333   3.965   1.112   3.830 -0.5345 -0.3732  0.7212
 2457TIP3   OH2 7334   0.277   5.447   4.151  0.3400  0.0249  0.7672
 2457TIP3    H1 7335   0.282   5.425   4.244  0.5834 -2.6710  0.1784
 2457TIP3    H2 7336   0.200   5.400   4.119  0.7274  0.2622 -0.5809
 2458TIP3   OH2 7337   5.544   2.789   1.794 -0.2523 -0.3686  0.6324
 2458TIP3    H1 7338   5.568   2.882   1.804 -0.2685 -0.4166  1.1339
 2458TIP3    H2 7339   5.616   2.751   1.746 -0.8289  0.1731 -0.7206
 2459TIP3   OH2 7340   2.503   3.054   2.268  0.4539  0.1652 -0.1067
 2459TIP3    H1 7341   2.463   2.970   2.249 -1.0016  0.6277  0.7655
 2459TIP3    H2 7342   2.547   3.042   2.352 -0.5475  0.4990  0.4860
 2460TIP3   OH2 7343   6.526   5.550   4.901  0.4071 -0.3531 -0.3351
 2460TIP3    H1 7344   6.605   5.604   4.892  1.1583 -1.3667 -0.0198
 2460TIP3    H2 7345   6.494   5.569   4.989 -0.4918  1.0556 -0.9201
 2461TIP3   OH2 7346   2.528   4.763   2.880  0.7447  0.0732 -0.0703
 2461TIP3    H1 7347   2.465   4.835   2.874 -1.1904 -1.4640  0.5397
 2461TIP3    H2 7348   2.600   4.798   2.932 -0.0431  1.6304  0.0238
 2462TIP3   OH2 7349   5.359   2.077   4.485 -0.7513  0.0521 -0.0478
 2462TIP3    H1 7350   5.295   2.005   4.486 -0.1163 -0.5240  0.2011
 2462TIP3    H2 7351   5.307   2.156   4.497 -1.3808 -0.4364  0.5181
 2463TIP3   OH2 7352   4.767   5.009   2.987 -0.2010  0.0490  0.0948
 2463TIP3    H1 7353   4.800   4.939   2.930  0.4234  0.5675 -0.1887
 2463TIP3    H2 7354   4.774   4.973   3.075 -2.8178 -1.4571 -0.1962
 2464TIP3   OH2 7355   1.879   1.043   1.717  0.1427 -0.0642 -0.4300
 2464TIP3    H1 7356   1.810   1.104   1.690 -0.0599 -0.2970 -0.4391
 2464TIP3    H2 7357   1.960   1.086   1.690  0.0336  0.4281 -0.0071
 2465TIP3   OH2 7358   5.190   0.018   3.773 -0.1846 -0.2500  0.0977
 2465TIP3    H1 7359   5.107  -0.025   3.750 -0.2495  0.3236 -0.8123
 2465TIP3    H2 7360   5.167   0.079   3.843 -0.5140 -0.1422 -0.1052
 2466TIP3   OH2 7361   1.897   5.330   1.326  0.0567  0.1271  0.2062
 2466TIP3    H1 7362   1.808   5.353   1.354 -0.2128 -2.8825  2.2796
 2466TIP3    H2 7363   1.888   5.245   1.284  1.5067  1.5433 -3.3742
 2467TIP3   OH2 7364   2.994   6.304   4.884 -0.7175  0.3702 -0.7037
 2467TIP3    H1 7365   3.051   6.229   4.901 -0.7669  0.8405  1.7888
 2467TIP3    H2 7366   3.049   6.365   4.834  0.5554  0.2510  0.4965
 2468TIP3   OH2 7367   3.725   0.152   5.767  0.2224  0.2280  0.5884
 2468TIP3    H1 7368   3.687   0.206   5.698  1.0124  0.9509  0.7008
 2468TIP3    H2 7369   3.765   0.078   5.721 -2.4509 -1.3126  0.5552
 2469TIP3   OH2 7370   0.779   5.143   3.814  0.8032  0.0282  0.3296
 2469TIP3    H1 7371   0.858   5.089   3.817  0.6290 -0.2012  1.2607
 2469TIP3    H2 7372   0.812   5.233   3.819  1.0210 -0.0599  0.5592
 2470TIP3   OH2 7373   1.603   3.072   0.054  0.1923  0.2183 -0.0961
 2470TIP3    H1 7374   1.667   3.136   0.085 -0.1580  0.4387  0.1769
 2470TIP3    H2 7375   1.526   3.124   0.031 -0.3369 -0.1649  0.7780
 2471TIP3   OH2 7376   0.962   0.527   2.017  0.0060  0.3169 -0.3179
 2471TIP3    H1 7377   0.880   0.533   2.064  1.1786 -0.7760  2.0281
 2471TIP3    H2 7378   0.997   0.441   2.041  2.3224  1.1782 -0.3543
 2472TIP3   OH2 7379   7.008   4.896   4.486 -0.0667 -0.1729 -0.3523
 2472TIP3    H1 7380   6.999   4.946   4.405 -0.9396  0.6050  0.2123
 2472TIP3    H2 7381   6.919   4.873   4.511  0.1636 -0.1075  0.5693
 2473TIP3   OH2 7382   1.477   0.898   2.572  0.3720  0.2960 -0.0815
 2473TIP3    H1 7383   1.486   0.888   2.666 -1.7479  1.5499  0.3104
 2473TIP3    H2 7384   1.399   0.848   2.549  0.1860  0.9541 -0.9703
 2474TIP3   OH2 7385   7.071   3.468   4.061 -0.3067 -0.1519 -0.4970
 2474TIP3    H1 7386   7.146   3.527   4.054 -0.5109  0.0136 -1.3815
 2474TIP3    H2 7387   7.013   3.510   4.125  0.2680 -0.1940  0.0568
 2475TIP3   OH2 7388   3.306   2.540   5.494  0.2579  0.9491 -0.0437
 2475TIP3    H1 7389   3.265   2.604   5.551 -1.1725 -0.8568  1.0824
 2475TIP3    H2 7390   3.235   2.478   5.473  2.1054 -1.7678  1.1755
 2476TIP3   OH2 7391   1.303   0.048   1.462  0.2276 -0.0371  0.1334
 2476TIP3    H1 7392   1.387   0.009   1.439  0.6654  0.3313  1.0617
 2476TIP3    H2 7393   1.271  -0.004   1.535 -0.2826 -0.0836 -0.1181
 2477TIP3   OH2 7394   2.804   6.164   1.082  1.1337 -0.3184 -0.3689
 2477TIP3    H1 7395   2.898   6.185   1.080  0.7867  1.7331  1.1470
 2477TIP3    H2 7396   2.761   6.244   1.052 -0.1517 -1.2175 -0.9852
 2478TIP3   OH2 7397   3.288   3.732   3.492  0.2930  0.5164  0.1674
 2478TIP3    H1 7398   3.327   3.656   3.535  0.1386 -0.5675 -1.5154
 2478TIP3    H2 7399   3.309   3.805   3.550  0.6025 -0.7580  1.7525
 2479TIP3   OH2 7400   0.748   5.462   4.355 -0.7127  0.9387 -0.4638
 2479TIP3    H1 7401   0.666   5.494   4.393 -0.6934  0.0068  0.4041
 2479TIP3    H2 7402   0.785   5.405   4.422 -0.2339 -0.0590 -1.5406
 2480TIP3   OH2 7403   1.416   0.550   4.796  0.3808 -0.2686 -0.2000
 2480TIP3    H1 7404   1.411   0.578   4.705 -0.2383  0.2158 -0.0248
 2480TIP3    H2 7405   1.510   0.539   4.813  0.5619  0.5776 -0.6195
 2481TIP3   OH2 7406   4.136   2.677   5.696 -0.5257 -0.4549  0.2628
 2481TIP3    H1 7407   4.144   2.772   5.685  0.2362 -0.2364  2.2933
 2481TIP3    H2 7408   4.044   2.663   5.718 -0.3674  0.0019  1.2792
 2482TIP3   OH2 7409   2.438   3.903   1.457  0.4351  0.1619  0.4932
 2482TIP3    H1 7410   2.410   3.925   1.368 -0.1774  0.0614  0.6599
 2482TIP3    H2 7411   2.501   3.831   1.445 -1.0373 -1.1290  0.2468
 2483TIP3   OH2 7412   5.151   5.772   4.172  0.1106  0.1848  0.6690
 2483TIP3    H1 7413   5.225   5.828   4.149  1.8420 -2.1785  0.0653
 2483TIP3    H2 7414   5.137   5.787   4.265  1.8937  0.1105  0.9751
 2484TIP3   OH2 7415   6.600   5.814   1.730  0.2172 -0.4989 -0.1039
 2484TIP3    H1 7416   6.685   5.821   1.688 -1.0076  1.1217 -2.5022
 2484TIP3    H2 7417   6.581   5.720   1.731  1.3893 -0.7571 -0.8617
 2485TIP3   OH2 7418   6.235   0.330   3.606  0.4818  0.8511 -0.3094
 2485TIP3    H1 7419   6.312   0.381   3.632 -0.1857  1.9850 -0.5228
 2485TIP3    H2 7420   6.271   0.259   3.553  1.3500  1.6179 -0.7744
 2486TIP3   OH2 7421   3.192   3.873   3.290  0.8377 -0.2909 -1.1176
 2486TIP3    H1 7422   3.202   3.843   3.199  1.6934 -0.6360 -0.9189
 2486TIP3    H2 7423   3.226   3.800   3.342  0.3137 -0.1074 -0.5118
 2487TIP3   OH2 7424   2.509   3.896   3.275  0.0045 -0.6044  0.3922
 2487TIP3    H1 7425   2.499   3.826   3.210  0.8309 -0.7317  0.3984
 2487TIP3    H2 7426   2.597   3.885   3.309  0.1615  0.4851  0.3593
 2488TIP3   OH2 7427   0.558   4.520   2.934  0.1726  0.1269 -0.6116
 2488TIP3    H1 7428   0.464   4.511   2.953  0.3627 -0.4931  0.1020
 2488TIP3    H2 7429   0.572   4.614   2.930 -0.6355  0.2269 -1.5597
 2489TIP3   OH2 7430   5.907   6.653   4.740 -0.6370  0.6543 -0.0669
 2489TIP3    H1 7431   5.820   6.680   4.770 -0.6538  0.8828 -0.3153
 2489TIP3    H2 7432   5.952   6.624   4.819  0.0522  3.1773  0.5813
 2490TIP3   OH2 7433   3.834   3.369   5.073  0.4767 -0.0838 -0.0325
 2490TIP3    H1 7434   3.857   3.354   4.982  0.5964 -1.8081  0.2461
 2490TIP3    H2 7435   3.756   3.424   5.070  0.2094 -0.5109 -1.1971
 2491TIP3   OH2 7436   0.081   1.870   0.123  0.0762 -0.1515  0.2304
 2491TIP3    H1 7437   0.121   1.891   0.038  1.0835 -0.0293  0.7173
 2491TIP3    H2 7438   0.140   1.908   0.187 -1.2394  0.6636  0.9791
 2492TIP3   OH2 7439   3.982   3.009   2.229 -0.1563  0.3620 -0.1312
 2492TIP3    H1 7440   4.071   3.026   2.260  0.1044 -0.1191 -0.5964
 2492TIP3    H2 7441   3.980   3.042   2.139 -0.6838  1.0673  0.1256
 2493TIP3   OH2 7442   2.305   0.276   2.356  0.2850  0.0319  0.7284
 2493TIP3    H1 7443   2.224   0.225   2.367 -1.3531  1.8518 -1.7699
 2493TIP3    H2 7444   2.277   0.355   2.310  3.0803  2.1584  2.3784
 2494TIP3   OH2 7445   5.240   5.927   5.125 -0.0123 -0.2768  0.1314
 2494TIP3    H1 7446   5.146   5.943   5.133 -0.1556 -1.0287  0.0049
 2494TIP3    H2 7447   5.263   5.959   5.038  0.1514  1.3030  0.7281
 2495TIP3   OH2 7448   0.037   5.933   1.833 -1.0223  0.7873  0.1225
 2495TIP3    H1 7449  -0.010   5.934   1.916 -1.6733  1.9011 -0.2390
 2495TIP3    H2 7450   0.079   6.019   1.828  1.2121 -0.2106  0.4925
 2496TIP3   OH2 7451   6.244   4.297   0.524 -0.0474  0.2866  0.0448
 2496TIP3    H1 7452   6.307   4.225   0.517  0.4651  0.5184  1.6950
 2496TIP3    H2 7453   6.168   4.257   0.568  0.7962  1.0135  2.2920
 2497TIP3   OH2 7454   1.021   2.123   5.412  0.4422  0.0853 -0.4951
 2497TIP3    H1 7455   0.991   2.082   5.493  1.7883 -0.3396 -0.1872
 2497TIP3    H2 7456   1.077   2.195   5.441  0.4013  0.3525 -1.0539
 2498TIP3   OH2 7457   0.442   0.136   2.140  0.0392  0.1462 -0.1433
 2498TIP3    H1 7458   0.365   0.184   2.171 -0.2660 -0.3046 -0.1780
 2498TIP3    H2 7459   0.463   0.076   2.213 -0.8833 -1.1550 -0.8960
 2499TIP3   OH2 7460   1.570   2.014   4.327  0.5229 -0.3157 -0.3509
 2499TIP3    H1 7461   1.570   1.962   4.246 -1.1234 -0.7315 -0.1213
 2499TIP3    H2 7462   1.633   1.969   4.383  0.8913 -0.6561 -1.0110
 2500TIP3   OH2 7463   3.106   6.492   0.102  0.7855 -0.3969 -0.6159
 2500TIP3    H1 7464   3.041   6.430   0.071  0.1598  0.3508 -0.8209
 2500TIP3    H2 7465   3.159   6.442   0.164 -0.8404 -0.6669  0.6200
 2501TIP3   OH2 7466   0.398   2.652   1.237 -0.0156  0.1365 -0.4285
 2501TIP3    H1 7467   0.328   2.595   1.270  0.1047  0.3494  0.2154
 2501TIP3    H2 7468   0.467   2.592   1.208  0.4580 -0.0570  1.0253
 2502TIP3   OH2 7469   5.523   1.079   0.843 -0.2515 -0.3860 -0.4470
 2502TIP3    H1 7470   5.511   1.172   0.862  1.7424 -0.6738  3.4529
 2502TIP3    H2 7471   5.458   1.058   0.777 -1.0417  3.6568 -1.1807
 2503TIP3   OH2 7472   3.995   5.564   5.768 -0.5062 -0.6938 -0.7455
 2503TIP3    H1 7473   3.909   5.596   5.738 -0.7174  0.5623  1.0245
 2503TIP3    H2 7474   3.975   5.499   5.835 -0.2320  1.6014  1.7573
 2504TIP3   OH2 7475   6.132   0.418   3.082 -0.2816  0.0378  0.2516
 2504TIP3    H1 7476   6.039   0.425   3.059 -0.4054 -0.8978  0.4212
 2504TIP3    H2 7477   6.134   0.358   3.156  0.5273 -0.5625 -0.2363
 2505TIP3   OH2 7478   0.676   1.078   2.094  0.1212  0.4503  0.5895
 2505TIP3    H1 7479   0.653   1.143   2.028  0.7667 -0.8943 -1.0419
 2505TIP3    H2 7480   0.720   1.128   2.163 -1.0909  1.9735  0.2917
 2506TIP3   OH2 7481   6.452   1.810   1.446  0.3932 -0.3699  0.2201
 2506TIP3    H1 7482   6.394   1.748   1.491  0.6648  0.3396  1.5753
 2506TIP3    H2 7483   6.511   1.842   1.514  0.4902  1.1191 -0.5276
 2507TIP3   OH2 7484   0.560   1.865   4.934  0.3095 -0.5186  0.1060
 2507TIP3    H1 7485   0.627   1.849   4.867 -0.0422 -1.0069 -0.1348
 2507TIP3    H2 7486   0.581   1.952   4.969 -1.1057  0.9804 -2.5005
 2508TIP3   OH2 7487   3.066   2.357   1.309 -0.2123  0.3981 -0.4063
 2508TIP3    H1 7488   2.981   2.380   1.346  0.3408  1.1683  0.4586
 2508TIP3    H2 7489   3.117   2.438   1.316  0.9277 -0.3369  0.1173
 2509TIP3   OH2 7490   6.796   4.391   4.861  0.1505  0.4394 -0.3346
 2509TIP3    H1 7491   6.736   4.330   4.904  0.7217 -0.6313 -0.9956
 2509TIP3    H2 7492   6.881   4.374   4.903  0.5054  0.0881 -1.1685
 2510TIP3   OH2 7493   0.237   3.666   1.901  0.3654  0.6335  0.1669
 2510TIP3    H1 7494   0.150   3.638   1.875  0.3785  1.1604 -0.4597
 2510TIP3    H2 7495   0.293   3.649   1.825  0.9372 -0.2493  0.7633
 2511TIP3   OH2 7496   6.045   6.741   0.922 -0.0636  0.0221  0.0654
 2511TIP3    H1 7497   6.126   6.779   0.888 -0.8710  0.7230 -1.1467
 2511TIP3    H2 7498   6.021   6.798   0.995  0.8798 -0.6071  0.9035
 2512TIP3   OH2 7499   0.994   0.038   0.813 -0.3643  0.0603  0.1741
 2512TIP3    H1 7500   0.951   0.030   0.898  1.1751 -1.6710  0.8545
 2512TIP3    H2 7501   1.087   0.020   0.831  0.1979  0.8602 -1.6803
 2513TIP3   OH2 7502   0.022   1.969   5.792 -0.4373  0.1868 -0.1752
 2513TIP3    H1 7503   0.023   1.883   5.835 -1.2310  0.0840 -0.3517
 2513TIP3    H2 7504   0.065   1.954   5.708 -2.2641 -0.5113 -1.0438
 2514TIP3   OH2 7505   0.104   3.900   3.855  0.3682  0.7292 -0.3709
 2514TIP3    H1 7506   0.018   3.904   3.811 -0.2746 -0.2212  0.7400
 2514TIP3    H2 7507   0.083   3.910   3.948  1.4640  0.4347 -0.0870
 2515TIP3   OH2 7508   1.912   1.437   5.381  0.7578  0.6388 -0.7021
 2515TIP3    H1 7509   1.873   1.524   5.378 -0.7739 -0.0232 -1.1635
 2515TIP3    H2 7510   1.916   1.415   5.474  1.6254  1.3765 -0.5520
 2516TIP3   OH2 7511   1.433   2.236   3.354  0.1043 -0.0419 -0.6125
 2516TIP3    H1 7512   1.521   2.272   3.367  0.0209 -0.7063  2.4900
 2516TIP3    H2 7513   1.447   2.155   3.304  1.5200 -1.0239  1.2547
 2517TIP3   OH2 7514   2.348   0.424   3.975 -0.3669 -0.0929  1.2325
 2517TIP3    H1 7515   2.411   0.456   3.912 -0.8995  1.2524  1.3521
 2517TIP3    H2 7516   2.319   0.340   3.940  0.9386 -0.3854  0.8224
 2518TIP3   OH2 7517   2.584   1.042   2.463 -0.3087  0.4194 -0.2140
 2518TIP3    H1 7518   2.651   1.109   2.475  0.7257  0.1019 -3.3489
 2518TIP3    H2 7519   2.632   0.963   2.440 -1.6253 -0.8805  1.2536
 2519TIP3   OH2 7520   4.482   4.264   3.647  0.6389 -0.1493  0.6593
 2519TIP3    H1 7521   4.424   4.188   3.633  0.2481  0.0590  1.1135
 2519TIP3    H2 7522   4.570   4.227   3.650  0.3684 -0.7515  2.0207
 2520TIP3   OH2 7523   3.996   1.068   1.701 -0.0277 -0.3823  0.1570
 2520TIP3    H1 7524   3.919   1.121   1.720  1.0791  0.6238  2.0840
 2520TIP3    H2 7525   4.062   1.131   1.673  0.8925 -0.8930  1.1163
 2521TIP3   OH2 7526   1.394   0.190   5.687  0.4403 -0.8238 -0.1991
 2521TIP3    H1 7527   1.361   0.278   5.668  1.3606 -0.3367  0.3593
 2521TIP3    H2 7528   1.344   0.132   5.630  1.7896  0.3528 -2.7190
 2522TIP3   OH2 7529   0.191   5.264   0.587  0.4453 -0.4088 -0.3387
 2522TIP3    H1 7530   0.225   5.198   0.526  0.8528  0.3849 -1.0026
 2522TIP3    H2 7531   0.104   5.286   0.553 -0.2213 -1.5083  0.6165
 2523TIP3   OH2 7532   7.113   1.258   5.663 -0.2719 -0.0041  0.2731
 2523TIP3    H1 7533   7.119   1.343   5.705  1.7215 -0.6428  1.4354
 2523TIP3    H2 7534   7.203   1.225   5.662 -1.0013 -2.1941  0.0882
 2524TIP3   OH2 7535   6.005   3.544   3.917 -0.0450  0.2948  0.0794
 2524TIP3    H1 7536   6.078   3.579   3.865 -1.3690  0.5998 -1.6344
 2524TIP3    H2 7537   5.952   3.620   3.939  0.3662  0.1458  1.7851
 2525TIP3   OH2 7538   1.200   0.603   1.233  0.1859 -0.2225 -0.0223
 2525TIP3    H1 7539   1.183   0.559   1.316  1.0133  0.3673  0.4765
 2525TIP3    H2 7540   1.289   0.638   1.242  0.1511  0.1633 -1.0155
 2526TIP3   OH2 7541   3.454   0.891   2.830 -0.7369 -0.5892  0.0144
 2526TIP3    H1 7542   3.436   0.798   2.817 -1.6263 -0.4536  0.2090
 2526TIP3    H2 7543   3.474   0.899   2.924 -1.4664 -0.4655  0.1638
 2527TIP3   OH2 7544   6.466   4.445   0.659  0.5994  0.0796 -0.5951
 2527TIP3    H1 7545   6.375   4.442   0.630  1.3264 -1.0921 -3.0605
 2527TIP3    H2 7546   6.462   4.422   0.752 -1.5955  0.0081 -0.6479
 2528TIP3   OH2 7547   3.914   3.464   2.468  0.4586 -0.7523  0.5461
 2528TIP3    H1 7548   3.988   3.514   2.503  0.8374 -1.4995  0.8444
 2528TIP3    H2 7549   3.955   3.392   2.419 -0.0704 -0.3635 -0.5088
 2529TIP3   OH2 7550   1.999   4.387   3.629  0.0004  0.0975 -0.2572
 2529TIP3    H1 7551   2.078   4.364   3.580  0.7101  1.1438  0.3456
 2529TIP3    H2 7552   2.022   4.467   3.675 -1.1686 -0.0047  0.5537
 2530TIP3   OH2 7553   3.659   2.064   1.188  0.6578 -0.1766 -0.5881
 2530TIP3    H1 7554   3.637   2.007   1.114  1.3087 -1.0586 -0.1253
 2530TIP3    H2 7555   3.698   2.005   1.253  1.4783  0.8269 -0.1407
 2531TIP3   OH2 7556   1.805   3.778   0.798  0.3131 -0.0082 -0.0439
 2531TIP3    H1 7557   1.774   3.866   0.818 -0.4642 -0.2004 -0.3679
 2531TIP3    H2 7558   1.825   3.781   0.705  1.4739  0.1626  0.1918
 2532TIP3   OH2 7559   4.938   6.541   4.123 -0.1138 -0.7879  0.1830
 2532TIP3    H1 7560   4.893   6.526   4.040  1.3468 -2.4917 -0.3479
 2532TIP3    H2 7561   5.002   6.470   4.129  0.5865 -0.0450  2.2361
 2533TIP3   OH2 7562   4.006   0.392   3.174 -0.6153 -0.6981  0.2225
 2533TIP3    H1 7563   3.936   0.375   3.236  0.3794 -0.4827  1.4508
 2533TIP3    H2 7564   3.962   0.429   3.097 -1.8362 -0.5836  0.9548
 2534TIP3   OH2 7565   6.853   0.471   0.064  0.1614 -0.1425  0.3137
 2534TIP3    H1 7566   6.778   0.483   0.123 -0.8131 -2.3898 -0.3814
 2534TIP3    H2 7567   6.918   0.426   0.117  0.2191 -0.0515  0.3213
 2535TIP3   OH2 7568   5.416   0.177   4.101  0.5750  0.1146  0.1746
 2535TIP3    H1 7569   5.470   0.240   4.053  0.2988  0.8330  0.7714
 2535TIP3    H2 7570   5.328   0.190   4.066  0.5326 -0.0054  0.2366
 2536TIP3   OH2 7571   4.413   2.622   5.667  0.2891  0.0039 -0.5450
 2536TIP3    H1 7572   4.457   2.693   5.714  0.1796  1.9172 -3.1228
 2536TIP3    H2 7573   4.320   2.644   5.673  0.1310 -0.7365 -0.1730
 2537TIP3   OH2 7574   1.498   2.612   3.978  0.2646  0.1668  0.0589
 2537TIP3    H1 7575   1.475   2.665   3.901  2.3005 -0.9788 -1.4551
 2537TIP3    H2 7576   1.414   2.587   4.016 -0.8066  1.1794 -1.5147
 2538TIP3   OH2 7577   0.901   4.191   1.166  0.5188 -0.3238 -0.1195
 2538TIP3    H1 7578   0.813   4.226   1.155 -0.2920 -1.5821  1.7386
 2538TIP3    H2 7579   0.890   4.096   1.163  1.9389 -0.5096 -0.5465
 2539TIP3   OH2 7580   6.496   6.096   5.516  0.1865  0.6684  0.0145
 2539TIP3    H1 7581   6.421   6.148   5.542 -0.3743  0.3695 -0.9605
 2539TIP3    H2 7582   6.539   6.072   5.599 -0.1191  1.8095  0.5141
 2540TIP3   OH2 7583   2.338   0.313   4.629  0.3549 -0.1899 -0.2305
 2540TIP3    H1 7584   2.429   0.285   4.622  0.4210  0.3498 -2.1748
 2540TIP3    H2 7585   2.289   0.232   4.642  1.1209 -0.4418  1.2597
 2541TIP3   OH2 7586   3.084   1.586   3.651 -0.1209 -0.5774  0.2305
 2541TIP3    H1 7587   3.137   1.665   3.658 -1.5874  0.8314 -2.7266
 2541TIP3    H2 7588   3.048   1.573   3.738  0.1546  2.0550  0.7968
 2542TIP3   OH2 7589   1.688   4.319   0.106  0.2059 -0.2599  0.1465
 2542TIP3    H1 7590   1.594   4.326   0.088  0.3320 -0.4042 -0.6349
 2542TIP3    H2 7591   1.729   4.358   0.029  0.7836 -0.0622  0.5587
 2543TIP3   OH2 7592   3.804   6.578   2.073  0.2649  0.2750  0.2962
 2543TIP3    H1 7593   3.770   6.542   2.154  1.6455 -2.7515 -0.3254
 2543TIP3    H2 7594   3.777   6.515   2.006  0.4657  1.8848 -1.3760
 2544TIP3   OH2 7595   2.684   0.776   1.045  0.4456  0.4007  0.4111
 2544TIP3    H1 7596   2.674   0.692   1.089 -1.9416  0.4906  0.1673
 2544TIP3    H2 7597   2.756   0.820   1.091 -0.4951 -0.3941  2.7804
 2545TIP3   OH2 7598   5.818   3.226   2.784 -0.2430 -0.8838 -0.5026
 2545TIP3    H1 7599   5.893   3.181   2.746  1.8352  0.4382  1.7893
 2545TIP3    H2 7600   5.780   3.162   2.844 -0.0283 -1.0607 -0.5543
 2546TIP3   OH2 7601   2.006   5.200   0.254  0.7272  0.7046 -0.5195
 2546TIP3    H1 7602   2.076   5.164   0.308  0.7982  0.7415 -0.5872
 2546TIP3    H2 7603   2.050   5.262   0.196  0.6382  0.7302 -0.5600
 2547TIP3   OH2 7604   1.780   4.225   0.674  0.7976 -0.3220  0.5219
 2547TIP3    H1 7605   1.832   4.295   0.714 -0.3918 -0.0906  1.7458
 2547TIP3    H2 7606   1.790   4.238   0.580  0.9234  1.2717  0.7257
 2548TIP3   OH2 7607   2.027   3.320   3.418  0.1951 -0.5349  0.3367
 2548TIP3    H1 7608   1.989   3.390   3.472  0.4794  0.4536 -0.7109
 2548TIP3    H2 7609   2.040   3.247   3.479  0.6604  0.6005  1.6406
 2549TIP3   OH2 7610   0.742   6.525   4.138 -0.5893 -0.1575 -0.2211
 2549TIP3    H1 7611   0.670   6.582   4.165  1.4814  1.7564  1.6640
 2549TIP3    H2 7612   0.820   6.568   4.171  1.3186 -3.0212 -0.6713
 2550TIP3   OH2 7613   6.154   4.059   2.883  0.1160 -0.5177  0.3237
 2550TIP3    H1 7614   6.122   4.148   2.866  1.4556 -0.2952 -1.2970
 2550TIP3    H2 7615   6.239   4.073   2.925 -0.1741 -1.0673  1.1194
 2551TIP3   OH2 7616   2.736   0.551   5.412  0.9494 -0.0497 -0.3077
 2551TIP3    H1 7617   2.802   0.541   5.481  0.3408  1.8577  0.6375
 2551TIP3    H2 7618   2.782   0.595   5.341  1.3241 -1.0915 -0.7222
 2552TIP3   OH2 7619   4.419   4.168   3.165  0.2591  0.5371 -0.2712
 2552TIP3    H1 7620   4.468   4.203   3.091  0.8444 -0.3949 -0.3441
 2552TIP3    H2 7621   4.484   4.160   3.235 -0.5188  2.5077  0.7606
 2553TIP3   OH2 7622   4.338   6.363   0.728  0.6160 -0.7615 -0.3452
 2553TIP3    H1 7623   4.279   6.295   0.758 -2.0003  1.6165  0.3285
 2553TIP3    H2 7624   4.413   6.359   0.787 -0.2518 -1.9667  0.7067
 2554TIP3   OH2 7625   6.075   4.203   4.221  0.4719  0.5701 -0.1875
 2554TIP3    H1 7626   6.031   4.159   4.294 -0.3164  1.2127 -0.2742
 2554TIP3    H2 7627   6.111   4.131   4.169 -0.9862  0.0025 -0.4390
 2555TIP3   OH2 7628   1.686   5.020   3.435 -0.4008 -0.0806  0.1105
 2555TIP3    H1 7629   1.759   4.959   3.440  0.3810  0.6302 -1.5338
 2555TIP3    H2 7630   1.621   4.976   3.379  0.6581  0.9565 -2.0706
 2556TIP3   OH2 7631   5.601   4.874   1.039 -0.5883 -0.6540 -0.3507
 2556TIP3    H1 7632   5.582   4.959   1.079 -0.6889 -0.6784 -0.3462
 2556TIP3    H2 7633   5.590   4.888   0.945  0.6667 -0.3268 -0.4682
 2557TIP3   OH2 7634   3.490   4.913   2.170  0.2761  0.2401  0.0239
 2557TIP3    H1 7635   3.580   4.933   2.198  0.3662  1.7728 -1.2457
 2557TIP3    H2 7636   3.446   4.884   2.250  1.5894  0.5562  0.8938
 2558TIP3   OH2 7637   6.387   4.554   0.146 -0.1133  0.7643 -0.3691
 2558TIP3    H1 7638   6.471   4.514   0.167  0.4939  1.9990 -0.3683
 2558TIP3    H2 7639   6.409   4.641   0.114 -1.4581  1.4793  0.5595
 2559TIP3   OH2 7640   4.722   4.511   0.800 -0.1169 -0.0197  0.1609
 2559TIP3    H1 7641   4.784   4.448   0.765 -1.2003 -0.9718 -0.1187
 2559TIP3    H2 7642   4.678   4.548   0.724  0.5086  1.0990  0.3225
 2560TIP3   OH2 7643   3.794   5.677   1.501 -0.2384  0.0798 -0.0293
 2560TIP3    H1 7644   3.735   5.604   1.480  0.7454 -1.6330  2.7380
 2560TIP3    H2 7645   3.757   5.715   1.580  0.4286  1.3123 -0.2887
 2561TIP3   OH2 7646   4.368   3.270   0.893 -0.1899  0.5198 -0.1974
 2561TIP3    H1 7647   4.453   3.315   0.898  1.4139 -2.3953  0.8280
 2561TIP3    H2 7648   4.343   3.274   0.801  2.5530 -1.0102 -1.1041
 2562TIP3   OH2 7649   3.958   3.040   4.707  0.4214  0.3722 -0.6117
 2562TIP3    H1 7650   3.941   3.047   4.613 -0.0451  0.8601 -0.4946
 2562TIP3    H2 7651   3.985   3.128   4.734 -1.9190  0.9243  0.1725
 2563TIP3   OH2 7652   4.578   1.071   2.929  0.5750 -0.1862 -0.4888
 2563TIP3    H1 7653   4.612   0.989   2.895  1.3200  0.1925 -0.6835
 2563TIP3    H2 7654   4.623   1.083   3.013 -1.8450 -1.5265  1.1177
 2564TIP3   OH2 7655   5.918   5.178   1.650  0.1097 -0.0085  0.3846
 2564TIP3    H1 7656   5.860   5.226   1.710  2.1682  0.4462  2.1313
 2564TIP3    H2 7657   5.875   5.093   1.639  0.0728 -0.4790  3.3120
 2565TIP3   OH2 7658   4.635   5.458   2.318  0.4549  0.0631  0.0595
 2565TIP3    H1 7659   4.686   5.488   2.243  0.0990 -0.9613 -0.6153
 2565TIP3    H2 7660   4.700   5.430   2.382  0.7622 -0.7292 -0.5794
 2566TIP3   OH2 7661   2.549   6.241   0.410 -0.3194  0.1854 -0.5257
 2566TIP3    H1 7662   2.624   6.284   0.452 -1.0348 -0.4570  1.5217
 2566TIP3    H2 7663   2.478   6.304   0.416 -1.0266 -0.7148  1.3405
 2567TIP3   OH2 7664   6.596   0.980   3.271 -0.5041 -0.1663  0.3876
 2567TIP3    H1 7665   6.508   1.006   3.296 -0.3220  1.2312 -0.3468
 2567TIP3    H2 7666   6.645   0.978   3.354 -0.8566  0.5457  0.6201
 2568TIP3   OH2 7667   4.574   2.452   5.036 -0.1209  0.2277  0.1741
 2568TIP3    H1 7668   4.602   2.491   5.119 -0.5118 -0.4729  0.6422
 2568TIP3    H2 7669   4.585   2.358   5.048 -3.4160 -0.2020  0.7134
 2569TIP3   OH2 7670   0.108   1.244   0.081 -0.3519 -0.1456 -0.1224
 2569TIP3    H1 7671   0.033   1.291   0.042  0.4121 -0.0093 -1.4608
 2569TIP3    H2 7672   0.111   1.277   0.171  0.1706  2.4621 -1.0131
 2570TIP3   OH2 7673   3.208   6.127   5.140  0.2129 -0.0454  0.2856
 2570TIP3    H1 7674   3.261   6.204   5.159 -0.5794  0.6592 -0.2672
 2570TIP3    H2 7675   3.148   6.119   5.215 -0.3044  0.4225 -0.0679
 2571TIP3   OH2 7676   2.690   5.249   3.014  0.1778  0.2520 -0.4198
 2571TIP3    H1 7677   2.646   5.320   2.968  0.8958  0.9691 -0.0498
 2571TIP3    H2 7678   2.621   5.207   3.066 -0.5641 -0.3507 -1.8613
 2572TIP3   OH2 7679   0.254   1.842   1.187  0.0666  0.4813  0.2762
 2572TIP3    H1 7680   0.184   1.855   1.123 -0.8752  0.8014  1.3348
 2572TIP3    H2 7681   0.253   1.748   1.205 -1.0746  0.6671  1.3271
 2573TIP3   OH2 7682   4.364   2.550   4.166 -0.8528 -0.3781  0.8873
 2573TIP3    H1 7683   4.421   2.626   4.157 -1.1985 -0.0413  1.4767
 2573TIP3    H2 7684   4.377   2.500   4.085 -0.7633  0.3913  0.4250
 2574TIP3   OH2 7685   5.086   0.640   1.962  0.1016 -0.0159  0.4342
 2574TIP3    H1 7686   5.065   0.572   1.897  4.0616  1.0780 -2.3927
 2574TIP3    H2 7687   5.159   0.603   2.012  0.8513  1.2589  0.3202
 2575TIP3   OH2 7688   6.465   0.126   4.493 -0.1323  0.1350  0.0008
 2575TIP3    H1 7689   6.464   0.078   4.576 -1.6058  0.5861  0.2773
 2575TIP3    H2 7690   6.543   0.094   4.447 -0.0863 -1.1691  0.9414
 2576TIP3   OH2 7691   2.911   3.257   0.928 -0.5533  0.6627  0.1551
 2576TIP3    H1 7692   2.886   3.179   0.978  1.6573  0.2623  0.7413
 2576TIP3    H2 7693   2.844   3.264   0.860 -0.6657 -1.9488 -0.1107
 2577TIP3   OH2 7694   2.287   0.758   4.732  0.2119  0.1157 -0.3612
 2577TIP3    H1 7695   2.239   0.683   4.768  0.3995 -0.6887 -1.7272
 2577TIP3    H2 7696   2.219   0.813   4.692  0.2117  0.0470 -0.4544
 2578TIP3   OH2 7697   4.771   1.583   0.192 -0.2794  0.5473 -0.0378
 2578TIP3    H1 7698   4.780   1.488   0.200 -0.1661  0.6053  0.6288
 2578TIP3    H2 7699   4.757   1.613   0.282 -0.3589  1.1572 -0.2501
 2579TIP3   OH2 7700   0.425   3.662   1.621 -0.2928  0.3716 -0.2324
 2579TIP3    H1 7701   0.336   3.630   1.606 -0.3855  0.6301 -0.2351
 2579TIP3    H2 7702   0.476   3.625   1.548 -0.4876  0.5926 -0.4805
 2580TIP3   OH2 7703   3.788   0.135   0.772  0.3196 -0.3838  0.1811
 2580TIP3    H1 7704   3.700   0.097   0.775 -0.2684  0.7135 -1.6269
 2580TIP3    H2 7705   3.846   0.058   0.768 -0.5338 -1.1189  1.2541
 2581TIP3   OH2 7706   4.990   4.449   4.595  0.5227  0.5781  0.0896
 2581TIP3    H1 7707   5.044   4.440   4.516  0.3508 -0.4308  0.0781
 2581TIP3    H2 7708   4.934   4.372   4.595  1.7347 -0.3865  2.1212
 2582TIP3   OH2 7709   4.917   3.122   1.669  0.3471 -0.5405  0.0102
 2582TIP3    H1 7710   4.890   3.035   1.637 -0.3721 -0.4808  0.4184
 2582TIP3    H2 7711   4.836   3.161   1.701  0.7946  0.0039  0.4908
 2583TIP3   OH2 7712   3.116   1.357   3.880  0.4153 -0.3113 -0.0479
 2583TIP3    H1 7713   3.165   1.279   3.852  0.1092 -0.3645 -0.4483
 2583TIP3    H2 7714   3.183   1.425   3.888  0.6011 -0.4583 -0.3085
 2584TIP3   OH2 7715   7.102   4.919   2.806  0.2738 -0.1690  0.2179
 2584TIP3    H1 7716   7.196   4.912   2.791  0.0251  0.2297 -1.8212
 2584TIP3    H2 7717   7.083   4.851   2.870  2.0278  0.1311  1.1030
 2585TIP3   OH2 7718   4.943   4.118   1.682 -0.4179  0.2466 -0.3942
 2585TIP3    H1 7719   5.035   4.109   1.657 -0.3847  0.6388 -0.4162
 2585TIP3    H2 7720   4.895   4.067   1.615 -0.3427  1.4318 -1.3786
 2586TIP3   OH2 7721   4.433   4.510   0.294  0.0499  0.0381  0.4206
 2586TIP3    H1 7722   4.504   4.450   0.275 -0.3041 -1.2877  2.8709
 2586TIP3    H2 7723   4.476   4.592   0.318  0.6431 -0.1560  0.0467
 2587TIP3   OH2 7724   1.832   3.575   5.731  0.3840  0.2886  0.1414
 2587TIP3    H1 7725   1.870   3.500   5.686 -0.8676  0.3910 -1.1816
 2587TIP3    H2 7726   1.905   3.634   5.747  1.1047 -0.4389 -0.4054
 2588TIP3   OH2 7727   6.469   5.503   3.730  0.0156  0.0049 -0.3031
 2588TIP3    H1 7728   6.540   5.440   3.717 -1.3298 -1.5118 -0.5745
 2588TIP3    H2 7729   6.436   5.485   3.818 -1.1043 -0.4757 -0.7984
 2589TIP3   OH2 7730   6.092   3.360   5.270 -0.5397 -0.1540  0.2853
 2589TIP3    H1 7731   6.002   3.328   5.266 -0.5151 -0.1584 -0.6679
 2589TIP3    H2 7732   6.113   3.365   5.363 -1.1389 -1.2376  0.4911
 2590TIP3   OH2 7733   2.420   2.517   3.140  0.4572  0.9130 -0.4728
 2590TIP3    H1 7734   2.505   2.518   3.183  0.4439 -0.4197 -0.3643
 2590TIP3    H2 7735   2.357   2.506   3.211  0.4398 -1.3696 -0.7825
 2591TIP3   OH2 7736   3.368   4.364   2.568  0.3373 -0.7419 -0.7821
 2591TIP3    H1 7737   3.363   4.457   2.544  0.9723  0.1902  2.2646
 2591TIP3    H2 7738   3.284   4.328   2.541 -0.6238  1.1473 -0.5423
 2592TIP3   OH2 7739   4.486   0.360   1.458  1.0780  0.1790 -0.3491
 2592TIP3    H1 7740   4.493   0.456   1.454  1.1142  0.1379 -2.2999
 2592TIP3    H2 7741   4.419   0.338   1.394  0.1634 -1.0571  0.9749
 2593TIP3   OH2 7742   4.239   5.641   2.165 -0.2536 -0.0464 -0.1875
 2593TIP3    H1 7743   4.145   5.626   2.171 -0.4185  0.9618 -0.1304
 2593TIP3    H2 7744   4.258   5.706   2.233  0.7200 -1.2368  0.7281
 2594TIP3   OH2 7745   3.238   2.454   3.589 -0.5530  0.1662  1.0224
 2594TIP3    H1 7746   3.240   2.534   3.536  0.7296  0.4276  1.4199
 2594TIP3    H2 7747   3.230   2.486   3.679 -3.0606 -0.2838  1.0253
 2595TIP3   OH2 7748   5.083   4.057   5.416  0.6150 -0.3092 -0.3255
 2595TIP3    H1 7749   5.131   4.005   5.481  1.4205 -0.6032 -1.1418
 2595TIP3    H2 7750   5.004   4.005   5.398  1.3156 -1.1778 -0.9825
 2596TIP3   OH2 7751   7.086   1.326   0.755 -0.5109  0.1935 -0.3613
 2596TIP3    H1 7752   7.179   1.301   0.755 -0.8642 -1.2797  0.4035
 2596TIP3    H2 7753   7.087   1.421   0.767  0.9086  0.3975 -1.7018
 2597TIP3   OH2 7754   3.514   1.134   5.554  0.2930 -0.2894 -0.1001
 2597TIP3    H1 7755   3.558   1.108   5.472 -0.2362 -2.4540  0.2357
 2597TIP3    H2 7756   3.423   1.106   5.542  0.0291  0.0932  0.9243
 2598TIP3   OH2 7757   1.792   1.907   3.135  0.2762  0.2050 -0.2002
 2598TIP3    H1 7758   1.743   1.825   3.132  0.8984 -0.1703 -0.1979
 2598TIP3    H2 7759   1.800   1.927   3.228  0.3686  0.1176 -0.1887
 2599TIP3   OH2 7760   5.977   3.539   4.798 -0.3230  0.1762 -0.0112
 2599TIP3    H1 7761   6.017   3.621   4.827 -0.5561 -0.0138  0.8951
 2599TIP3    H2 7762   5.891   3.538   4.842 -1.8791  1.1264 -2.7899
 2600TIP3   OH2 7763   4.702   2.494   4.177 -0.0807  0.6130 -0.3872
 2600TIP3    H1 7764   4.790   2.522   4.153  0.0477  1.8988  1.3732
 2600TIP3    H2 7765   4.652   2.575   4.185 -1.0024  0.0124  0.1571
 2601TIP3   OH2 7766   2.112   1.304   4.570  0.4117  0.2969 -0.0264
 2601TIP3    H1 7767   2.138   1.311   4.478 -1.0976  1.0227 -0.4175
 2601TIP3    H2 7768   2.195   1.303   4.618  1.2112  1.5176 -1.2932
 2602TIP3   OH2 7769   6.783   2.120   4.853  0.5500  0.0670 -0.0315
 2602TIP3    H1 7770   6.695   2.125   4.890 -0.1502 -1.8271 -1.3182
 2602TIP3    H2 7771   6.815   2.033   4.879  0.1406 -1.2470 -3.4323
 2603TIP3   OH2 7772   3.594   1.415   0.195 -0.2991  0.2704 -0.1185
 2603TIP3    H1 7773   3.655   1.349   0.162  1.2295  0.6777  1.7408
 2603TIP3    H2 7774   3.516   1.366   0.219  0.5043 -0.7706  0.4465
 2604TIP3   OH2 7775   4.549   2.728   4.730 -0.4100  0.1617  0.2402
 2604TIP3    H1 7776   4.591   2.649   4.764  2.1080  0.8825 -0.9179
 2604TIP3    H2 7777   4.491   2.758   4.800 -0.4348 -1.9825  1.1877
 2605TIP3   OH2 7778   4.609   3.971   2.816  0.5784 -0.2855  0.4517
 2605TIP3    H1 7779   4.586   3.921   2.895 -0.1406  0.0311  0.4610
 2605TIP3    H2 7780   4.617   4.061   2.847  2.4102 -0.4427  0.5375
 2606TIP3   OH2 7781   6.814   5.387   4.471 -0.6132  0.5811 -0.0953
 2606TIP3    H1 7782   6.744   5.334   4.510 -0.9839  0.7771 -0.4892
 2606TIP3    H2 7783   6.892   5.366   4.524 -1.1658  1.0653  0.9462
 2607TIP3   OH2 7784   6.578   6.561   3.964  0.2008  0.1684 -0.5081
 2607TIP3    H1 7785   6.550   6.469   3.963  0.4366  0.0952 -0.2803
 2607TIP3    H2 7786   6.532   6.600   3.889 -0.6477  0.0917 -0.0458
 2608TIP3   OH2 7787   4.968   2.431   3.702  0.8682  0.5645  0.0567
 2608TIP3    H1 7788   5.024   2.475   3.638 -0.8797  2.4369 -0.3024
 2608TIP3    H2 7789   4.885   2.480   3.699  0.3805  0.1272  3.0487
 2609TIP3   OH2 7790   6.553   5.207   5.494  0.4409  0.3624  0.3630
 2609TIP3    H1 7791   6.601   5.290   5.493  1.3891 -0.1813  0.5699
 2609TIP3    H2 7792   6.620   5.140   5.504 -0.0436 -0.6372 -2.4473
 2610TIP3   OH2 7793   2.691   6.060   3.233  0.1497  0.5019 -0.8326
 2610TIP3    H1 7794   2.644   5.986   3.195  0.3493  0.8411 -1.7798
 2610TIP3    H2 7795   2.756   6.021   3.290 -1.8304  0.0272  1.2658
 2611TIP3   OH2 7796   3.679   4.579   0.940 -0.1339 -0.5042  0.4256
 2611TIP3    H1 7797   3.667   4.487   0.918 -1.8285 -0.1421 -0.3435
 2611TIP3    H2 7798   3.620   4.595   1.014  1.1245 -0.3145  1.4221
 2612TIP3   OH2 7799   1.066   2.218   2.305  0.7452 -0.3179  0.7638
 2612TIP3    H1 7800   1.107   2.157   2.366  1.7823  0.5948  1.0267
 2612TIP3    H2 7801   1.128   2.225   2.232 -0.9840 -2.2429 -0.9902
 2613TIP3   OH2 7802   1.224   3.428   1.120  0.6163 -0.5108 -0.1258
 2613TIP3    H1 7803   1.224   3.499   1.185  1.1634  3.4583 -4.0153
 2613TIP3    H2 7804   1.316   3.413   1.100  0.4269 -1.3014 -0.4502
 2614TIP3   OH2 7805   0.329   6.498   1.237 -0.4433 -0.0032  0.4833
 2614TIP3    H1 7806   0.285   6.549   1.169  0.7157 -0.3580 -0.5660
 2614TIP3    H2 7807   0.351   6.415   1.194  0.3396 -0.2235  1.2841
 2615TIP3   OH2 7808   0.475   3.706   2.838  0.7122  0.3834  0.0855
 2615TIP3    H1 7809   0.468   3.753   2.921 -0.0686  0.8237 -0.2226
 2615TIP3    H2 7810   0.552   3.744   2.796  1.9063 -0.7448  1.1581
 2616TIP3   OH2 7811   3.605   4.042   2.063  0.4217 -0.2466  0.4502
 2616TIP3    H1 7812   3.512   4.025   2.078  0.4955 -0.6038  0.5086
 2616TIP3    H2 7813   3.628   4.108   2.128  0.5946 -1.3424  1.5567
 2617TIP3   OH2 7814   4.856   2.585   2.250  0.0317  0.3502  0.0073
 2617TIP3    H1 7815   4.839   2.502   2.205  0.6530 -0.6321  1.4916
 2617TIP3    H2 7816   4.787   2.644   2.219 -1.3821 -1.1916  0.0744
 2618TIP3   OH2 7817   7.003   6.278   0.559  0.0063  0.3441  0.0105
 2618TIP3    H1 7818   7.015   6.208   0.495 -2.6034 -0.2919  0.1192
 2618TIP3    H2 7819   6.935   6.246   0.618 -1.8549  3.1876 -0.3566
 2619TIP3   OH2 7820   3.734   0.211   2.126  0.1600 -0.0163 -0.1368
 2619TIP3    H1 7821   3.759   0.295   2.164 -0.3457  0.0426  0.0724
 2619TIP3    H2 7822   3.675   0.234   2.054 -1.9372 -0.2436  1.3934
 2620TIP3   OH2 7823   3.316   4.745   1.905 -0.4154 -0.0600 -0.0133
 2620TIP3    H1 7824   3.340   4.739   1.813 -2.5452  1.2389 -0.7052
 2620TIP3    H2 7825   3.340   4.659   1.941  1.8139 -0.1004 -1.3729
 2621TIP3   OH2 7826   2.009   1.042   2.789  0.4545 -0.5836  0.0840
 2621TIP3    H1 7827   2.059   1.100   2.732  0.4749 -1.5049 -0.8824
 2621TIP3    H2 7828   2.046   0.955   2.772  0.3008 -0.9131  1.3483
 2622TIP3   OH2 7829   6.846   3.243   3.795  0.0701  0.7119 -0.7525
 2622TIP3    H1 7830   6.937   3.263   3.772  0.4251  1.1289  0.9187
 2622TIP3    H2 7831   6.813   3.194   3.719  1.9940 -0.3353 -0.9859
 2623TIP3   OH2 7832   1.396   3.602   3.189 -0.1927  0.0231  0.5306
 2623TIP3    H1 7833   1.402   3.593   3.094 -2.7002 -0.1295  0.3220
 2623TIP3    H2 7834   1.347   3.525   3.218  0.5410  0.0574  1.9713
 2624TIP3   OH2 7835   1.262   4.770   0.282 -0.1337 -0.1387 -0.1410
 2624TIP3    H1 7836   1.263   4.832   0.355 -0.5733 -2.8180  2.3079
 2624TIP3    H2 7837   1.178   4.725   0.290 -0.3519 -0.3188 -2.5836
 2625TIP3   OH2 7838   3.853   1.074   2.148 -0.1745  0.0344 -0.5478
 2625TIP3    H1 7839   3.917   1.021   2.195 -0.4573  1.7429  1.9472
 2625TIP3    H2 7840   3.794   1.010   2.107 -0.0107 -1.5908  1.6043
 2626TIP3   OH2 7841   2.730   3.370   5.101 -0.1029 -0.3667 -0.0550
 2626TIP3    H1 7842   2.747   3.392   5.009  1.2840 -0.5768  0.1286
 2626TIP3    H2 7843   2.696   3.452   5.139 -0.7760 -0.3052 -0.7570
 2627TIP3   OH2 7844   2.596   6.411   4.054  0.1326  0.8450 -0.3601
 2627TIP3    H1 7845   2.639   6.459   4.125 -1.3089  1.0967  0.3813
 2627TIP3    H2 7846   2.657   6.418   3.980  0.1087  3.6425 -0.2129
 2628TIP3   OH2 7847   3.409   1.867   1.333 -0.1106  0.7242  0.2377
 2628TIP3    H1 7848   3.356   1.947   1.330 -0.0498  0.8235  1.3359
 2628TIP3    H2 7849   3.433   1.851   1.242 -0.2141  1.8963 -0.0183
 2629TIP3   OH2 7850   6.734   0.986   3.509 -0.2086 -0.6808  0.8280
 2629TIP3    H1 7851   6.797   0.945   3.568  1.5606  2.6571  1.5216
 2629TIP3    H2 7852   6.685   1.046   3.564 -0.5632  0.3724 -0.5576
 2630TIP3   OH2 7853   0.585   1.846   2.187 -0.0032 -0.7422 -0.4043
 2630TIP3    H1 7854   0.660   1.805   2.230 -1.3041 -2.4697  0.3421
 2630TIP3    H2 7855   0.536   1.772   2.150 -0.9350  0.4113 -1.5543
 2631TIP3   OH2 7856   2.868   5.688   5.771 -0.3598 -0.5463 -0.2011
 2631TIP3    H1 7857   2.941   5.632   5.797 -0.8566 -0.3640  1.7936
 2631TIP3    H2 7858   2.838   5.653   5.688  3.5140  0.8455 -2.4563
 2632TIP3   OH2 7859   3.791   6.650   3.152 -0.2936 -0.2000  0.7629
 2632TIP3    H1 7860   3.816   6.696   3.071 -0.8557 -1.0721  0.0789
 2632TIP3    H2 7861   3.790   6.719   3.219 -3.3701  1.3387 -0.6496
 2633TIP3   OH2 7862   1.667   4.069   1.732  0.0812  0.2269 -0.1699
 2633TIP3    H1 7863   1.588   4.046   1.782  1.1083 -0.6644  1.0995
 2633TIP3    H2 7864   1.714   3.986   1.722 -1.2022 -0.2396 -4.8830
 2634TIP3   OH2 7865   4.490   4.765   0.383  0.3998 -0.2589 -0.3294
 2634TIP3    H1 7866   4.429   4.777   0.311  0.6501  0.6834 -0.3982
 2634TIP3    H2 7867   4.570   4.809   0.354  0.8826 -0.8820  0.0418
 2635TIP3   OH2 7868   0.425   4.458   4.833  0.6402 -0.7322  0.2500
 2635TIP3    H1 7869   0.455   4.460   4.742 -2.1885 -0.3283 -0.7725
 2635TIP3    H2 7870   0.464   4.536   4.872  0.8889 -0.2167 -0.9742
 2636TIP3   OH2 7871   2.904   1.326   5.124 -0.3855  0.0869  0.1783
 2636TIP3    H1 7872   2.911   1.292   5.034 -0.1774 -0.4135  0.3800
 2636TIP3    H2 7873   2.862   1.255   5.172 -0.0153  0.1512  0.5950
 2637TIP3   OH2 7874   5.915   6.054   2.263  0.7775  0.2548  0.4893
 2637TIP3    H1 7875   5.871   6.089   2.340  0.7764  0.4581  0.3958
 2637TIP3    H2 7876   5.844   6.024   2.206  0.7780  0.1095  0.5627
 2638TIP3   OH2 7877   2.141   1.653   5.415 -0.3179  0.3752 -0.0417
 2638TIP3    H1 7878   2.199   1.724   5.444 -0.7780  1.0484 -0.7246
 2638TIP3    H2 7879   2.196   1.598   5.359  0.2471 -0.2532  1.0963
 2639TIP3   OH2 7880   4.941   3.485   5.013 -0.1996  0.1338  0.1469
 2639TIP3    H1 7881   4.952   3.476   5.108 -0.4592 -0.3765  0.1341
 2639TIP3    H2 7882   5.003   3.423   4.975 -1.2807 -0.9331  0.0316
 2640TIP3   OH2 7883   2.705   1.539   0.143  0.4353  0.7285 -0.2415
 2640TIP3    H1 7884   2.681   1.607   0.081  0.3817  0.8311 -0.1094
 2640TIP3    H2 7885   2.626   1.487   0.154 -0.0249  1.6102  0.8945
 2641TIP3   OH2 7886   4.922   6.608   5.502  0.1574 -0.0924 -0.4544
 2641TIP3    H1 7887   4.907   6.520   5.536 -0.7836  0.3890  0.4157
 2641TIP3    H2 7888   5.002   6.600   5.449 -0.5985 -1.7443 -1.4341
 2642TIP3   OH2 7889   1.437   5.372   4.813 -0.5459 -0.2487 -0.0141
 2642TIP3    H1 7890   1.504   5.440   4.805 -0.5665 -0.3606 -1.3557
 2642TIP3    H2 7891   1.474   5.309   4.875  0.4703 -0.1494 -0.4986
 2643TIP3   OH2 7892   2.082   2.404   3.864  0.3143 -0.3843 -0.0124
 2643TIP3    H1 7893   1.995   2.388   3.826  0.0860  1.1713 -0.2400
 2643TIP3    H2 7894   2.080   2.358   3.948 -0.6932 -0.4830 -0.0675
 2644TIP3   OH2 7895   5.450   0.836   1.892 -0.4015 -0.4865 -0.2066
 2644TIP3    H1 7896   5.369   0.841   1.943 -0.4098 -0.4494 -0.2234
 2644TIP3    H2 7897   5.463   0.924   1.858  0.6563  0.0159  1.3737
 2645TIP3   OH2 7898   6.932   0.366   5.196  0.0010  0.8388 -0.0507
 2645TIP3    H1 7899   6.921   0.460   5.186  0.4020  0.7078 -2.2166
 2645TIP3    H2 7900   6.870   0.328   5.134  2.4460 -0.1785 -2.0955
 2646TIP3   OH2 7901   3.600   2.731   2.956 -0.3411  0.3901  0.0836
 2646TIP3    H1 7902   3.568   2.818   2.934 -0.2365  0.2210 -0.7646
 2646TIP3    H2 7903   3.588   2.724   3.051 -0.2488  1.3619  0.1705
 2647TIP3   OH2 7904   6.285   3.274   2.770  0.1099  0.4466  0.0421
 2647TIP3    H1 7905   6.307   3.212   2.699  0.5662  0.7158 -0.0597
 2647TIP3    H2 7906   6.229   3.339   2.728  1.7795  1.5946 -0.5499
 2648TIP3   OH2 7907   1.361   3.649   0.884 -0.4313 -0.2398  0.1002
 2648TIP3    H1 7908   1.274   3.619   0.910  0.4560 -0.8306  2.7249
 2648TIP3    H2 7909   1.417   3.573   0.896  0.6540  0.4794 -0.2702
 2649TIP3   OH2 7910   0.451   3.225   1.177 -0.1794 -0.2921 -0.0519
 2649TIP3    H1 7911   0.434   3.197   1.267 -0.8257 -1.4226 -0.5038
 2649TIP3    H2 7912   0.546   3.218   1.167 -0.1358 -0.4320  0.4494
 2650TIP3   OH2 7913   4.173   5.640   3.831  0.2165 -0.3233 -0.0627
 2650TIP3    H1 7914   4.140   5.729   3.840  0.9425 -0.1648  1.1984
 2650TIP3    H2 7915   4.217   5.639   3.746 -1.7553 -0.1471 -1.1381
 2651TIP3   OH2 7916   0.552   1.114   4.390  0.0599 -0.0044  0.4097
 2651TIP3    H1 7917   0.594   1.117   4.304 -1.2754  0.5913 -0.2558
 2651TIP3    H2 7918   0.475   1.058   4.377  0.0403 -0.1996  1.3099
 2652TIP3   OH2 7919   3.012   0.263   3.509 -0.0541 -0.0633  0.4782
 2652TIP3    H1 7920   2.984   0.333   3.451 -0.8208 -1.0254 -0.3381
 2652TIP3    H2 7921   2.931   0.220   3.536  0.3699 -0.3027  1.4037
 2653TIP3   OH2 7922   2.529   2.785   1.584 -0.0077 -0.2260 -0.3114
 2653TIP3    H1 7923   2.614   2.819   1.613 -0.6100  0.1625  1.0387
 2653TIP3    H2 7924   2.535   2.787   1.488  1.2808  0.3614 -0.2486
 2654TIP3   OH2 7925   2.331   6.231   4.163 -0.1543  0.1005  0.4034
 2654TIP3    H1 7926   2.363   6.265   4.079  0.2542 -2.1084 -0.4110
 2654TIP3    H2 7927   2.257   6.287   4.185  1.1293  2.1586 -0.2473
 2655TIP3   OH2 7928   5.567   5.092   0.335 -0.2370 -0.1191 -0.1727
 2655TIP3    H1 7929   5.529   5.157   0.276  3.0015  2.4845  0.3370
 2655TIP3    H2 7930   5.551   5.125   0.423 -3.0280 -2.8140  0.5037
 2656TIP3   OH2 7931   5.559   1.611   3.172  0.8268 -0.6161 -0.5357
 2656TIP3    H1 7932   5.546   1.581   3.262  0.7907  0.6683 -0.0966
 2656TIP3    H2 7933   5.636   1.667   3.177  0.7642 -0.4628 -1.2950
 2657TIP3   OH2 7934   6.835   4.454   1.311 -0.1672 -0.3447 -0.2556
 2657TIP3    H1 7935   6.830   4.401   1.390  1.7168 -0.1086  0.0775
 2657TIP3    H2 7936   6.808   4.542   1.338 -2.8574 -0.9390 -0.7087
 2658TIP3   OH2 7937   7.025   1.830   0.843  0.9461  0.2757  0.5731
 2658TIP3    H1 7938   6.967   1.868   0.778 -1.2583 -2.9354  0.4063
 2658TIP3    H2 7939   7.002   1.873   0.925  1.9666  2.5463 -0.2438
 2659TIP3   OH2 7940   2.659   1.895   4.498  0.1006  0.0762  0.1191
 2659TIP3    H1 7941   2.691   1.815   4.540 -1.0446 -0.6327 -0.3135
 2659TIP3    H2 7942   2.564   1.884   4.495  0.0375  0.8006 -1.2721
 2660TIP3   OH2 7943   1.399   4.565   4.276  0.4460 -0.0330  0.1658
 2660TIP3    H1 7944   1.456   4.488   4.280 -0.2355 -0.4889  1.4605
 2660TIP3    H2 7945   1.346   4.550   4.197  2.3111  0.5844 -1.2874
 2661TIP3   OH2 7946   4.758   2.136   2.814 -0.0764  0.0876  0.1240
 2661TIP3    H1 7947   4.747   2.041   2.827 -0.3097  0.3376  2.2197
 2661TIP3    H2 7948   4.692   2.159   2.749  1.2102 -1.4356 -1.8646
 2662TIP3   OH2 7949   0.544   2.848   1.988  0.0472 -0.1278  0.0477
 2662TIP3    H1 7950   0.559   2.755   1.973 -1.2234 -0.4290  0.5248
 2662TIP3    H2 7951   0.623   2.878   2.034  0.8055 -0.7832 -0.7904
 2663TIP3   OH2 7952   6.078   3.966   5.728 -0.1212 -0.3896 -0.1533
 2663TIP3    H1 7953   6.071   3.899   5.796  0.2136  0.9806  1.2774
 2663TIP3    H2 7954   5.988   3.996   5.714 -0.3574 -1.5266 -1.2471
 2664TIP3   OH2 7955   3.727   0.703   4.531 -0.3947 -0.3028 -0.0079
 2664TIP3    H1 7956   3.645   0.653   4.534 -0.6328  0.0672 -0.2699
 2664TIP3    H2 7957   3.737   0.740   4.618 -0.6419 -0.1352 -0.0507
 2665TIP3   OH2 7958   5.709   0.922   2.996 -0.2459 -0.0002 -0.6209
 2665TIP3    H1 7959   5.678   0.869   2.923 -0.0574 -0.0341 -0.6770
 2665TIP3    H2 7960   5.743   0.859   3.059 -2.4849 -0.1533  0.5248
 2666TIP3   OH2 7961   5.515   0.551   4.251  0.6791  0.0406  0.4772
 2666TIP3    H1 7962   5.519   0.590   4.164 -1.4172  2.7647  1.4579
 2666TIP3    H2 7963   5.596   0.579   4.294  0.4657  1.0397  0.2528
 2667TIP3   OH2 7964   3.046   1.266   5.559 -0.1966  0.3626  0.1865
 2667TIP3    H1 7965   3.127   1.305   5.590  0.0979  0.4071 -0.6003
 2667TIP3    H2 7966   3.022   1.319   5.483 -0.6191 -0.0392  0.0350
 2668TIP3   OH2 7967   3.102   2.327   2.805  0.9040  0.5605 -0.6995
 2668TIP3    H1 7968   3.087   2.325   2.899  0.0452  2.2912 -0.7709
 2668TIP3    H2 7969   3.077   2.239   2.775  0.3299  0.2790  0.5635
 2669TIP3   OH2 7970   0.323   1.393   1.837  0.2439 -0.3676 -0.4048
 2669TIP3    H1 7971   0.349   1.396   1.929  0.7891  1.5763 -0.5831
 2669TIP3    H2 7972   0.230   1.373   1.840  0.0445  0.5958  0.6317
 2670TIP3   OH2 7973   7.060   0.470   0.411  0.9117  0.0440  0.5738
 2670TIP3    H1 7974   7.081   0.562   0.394  1.6739 -0.4720 -1.5404
 2670TIP3    H2 7975   7.063   0.428   0.325 -3.5696 -1.1895  0.8095
 2671TIP3   OH2 7976   5.479   4.473   3.522  0.1110 -0.2034 -0.2816
 2671TIP3    H1 7977   5.521   4.439   3.602  1.7637  0.4259 -0.8345
 2671TIP3    H2 7978   5.494   4.568   3.526  0.2741 -0.1739 -1.3742
 2672TIP3   OH2 7979   1.254   3.055   1.102  0.2237  0.1338 -0.2658
 2672TIP3    H1 7980   1.176   3.110   1.105 -1.0105 -1.5576  0.0073
 2672TIP3    H2 7981   1.300   3.074   1.184 -1.8612 -1.4978  1.4043
 2673TIP3   OH2 7982   1.297   3.905   5.373 -0.0087 -0.6330  0.1703
 2673TIP3    H1 7983   1.252   3.825   5.400 -0.1374 -0.8044 -0.5142
 2673TIP3    H2 7984   1.302   3.898   5.277  0.6640 -0.1808  0.1678
 2674TIP3   OH2 7985   4.993   5.837   3.939 -0.2097  0.4022  0.0324
 2674TIP3    H1 7986   5.066   5.840   3.878  0.5205  0.9925  0.9067
 2674TIP3    H2 7987   5.034   5.830   4.025 -1.1502  1.5729  0.6031
 2675TIP3   OH2 7988   5.391   0.288   3.114  0.1074 -0.1534 -0.1995
 2675TIP3    H1 7989   5.360   0.377   3.130  0.6886  0.0351 -0.0923
 2675TIP3    H2 7990   5.345   0.260   3.035 -1.6037 -0.5092  0.8619
 2676TIP3   OH2 7991   2.610   1.802   5.165  0.3434 -0.0233  0.1507
 2676TIP3    H1 7992   2.525   1.796   5.121  1.0401 -0.0877 -1.2484
 2676TIP3    H2 7993   2.610   1.889   5.204  0.1120  0.4803 -0.9177
 2677TIP3   OH2 7994   5.067   0.801   5.128 -0.0208 -0.1560 -0.0846
 2677TIP3    H1 7995   5.058   0.846   5.212  1.2732 -0.5415  0.2880
 2677TIP3    H2 7996   4.994   0.740   5.125 -0.9551  0.9282  0.0604
 2678TIP3   OH2 7997   1.897   6.315   5.056 -0.2451 -0.1773  0.2900
 2678TIP3    H1 7998   1.984   6.286   5.028  0.2882  2.0659 -0.6516
 2678TIP3    H2 7999   1.845   6.235   5.061  1.3980 -1.3859 -0.8981
 2679TIP3   OH2 8000   0.674   6.205   4.346 -0.3332  0.3504  0.3529
 2679TIP3    H1 8001   0.619   6.147   4.293  0.9446 -0.2247 -0.3706
 2679TIP3    H2 8002   0.653   6.293   4.314 -0.7575  0.1351  0.0188
 2680TIP3   OH2 8003   5.819   3.828   2.647  0.1864 -0.1728 -0.1035
 2680TIP3    H1 8004   5.799   3.740   2.615  1.1491 -0.2961 -0.3754
 2680TIP3    H2 8005   5.824   3.817   2.742  1.9120 -0.7574 -0.2390
 2681TIP3   OH2 8006   2.917   4.924   0.038  0.1891  0.9449  0.1311
 2681TIP3    H1 8007   2.892   5.013   0.063  1.1286  1.5649 -1.0455
 2681TIP3    H2 8008   3.002   4.910   0.081 -0.4448  0.1696  1.2100
 2682TIP3   OH2 8009   6.924   1.557   4.579  0.2360  0.1082 -0.2395
 2682TIP3    H1 8010   6.937   1.464   4.561 -0.2297  0.0824 -0.4634
 2682TIP3    H2 8011   7.010   1.589   4.606  0.4256 -0.3578 -0.2875
 2683TIP3   OH2 8012   5.403   3.033   3.116 -0.6399 -0.6478 -0.2027
 2683TIP3    H1 8013   5.375   2.981   3.041 -0.5919  1.6485 -1.9612
 2683TIP3    H2 8014   5.336   3.101   3.124  0.3906  0.3276  0.5328
 2684TIP3   OH2 8015   0.793   1.877   2.432  0.0190 -1.0308 -0.1179
 2684TIP3    H1 8016   0.752   1.963   2.420 -0.2393 -1.2505 -0.8885
 2684TIP3    H2 8017   0.775   1.854   2.523  0.5060 -0.0564  0.2362
 2685TIP3   OH2 8018   0.977   5.851   2.166 -0.2624 -0.6203 -0.5184
 2685TIP3    H1 8019   1.011   5.899   2.242 -1.7210 -2.1148  1.1777
 2685TIP3    H2 8020   1.054   5.824   2.118  0.6786  1.1457 -0.0931
 2686TIP3   OH2 8021   3.891   6.318   2.538 -0.1907 -0.1513 -0.1375
 2686TIP3    H1 8022   3.801   6.292   2.556 -0.0867 -0.5474 -0.1840
 2686TIP3    H2 8023   3.945   6.251   2.581  0.0898  0.3673  0.3376
 2687TIP3   OH2 8024   3.470   1.122   1.693 -0.4490 -0.0172  0.1189
 2687TIP3    H1 8025   3.500   1.089   1.777 -3.2052 -1.5592  0.6392
 2687TIP3    H2 8026   3.435   1.209   1.712  0.2534  0.2373  0.2553
 2688TIP3   OH2 8027   6.346   0.534   5.715 -0.4269 -0.1313  0.1654
 2688TIP3    H1 8028   6.307   0.570   5.795 -0.8565 -1.3458  0.5227
 2688TIP3    H2 8029   6.306   0.448   5.706 -1.1075  0.3499 -1.8935
 2689TIP3   OH2 8030   3.509   6.522   5.357 -0.1414 -0.2412 -0.5104
 2689TIP3    H1 8031   3.590   6.571   5.374 -0.1036 -0.0120 -1.3343
 2689TIP3    H2 8032   3.516   6.445   5.414  1.0227 -0.6261 -1.1281
 2690TIP3   OH2 8033   6.797   5.816   3.686  0.2740  1.0867 -0.5807
 2690TIP3    H1 8034   6.799   5.900   3.733 -1.6766  0.5899  0.5045
 2690TIP3    H2 8035   6.784   5.751   3.755 -0.6937  0.1332 -1.6460
 2691TIP3   OH2 8036   1.369   1.628   4.819 -0.2466  0.2045 -0.0076
 2691TIP3    H1 8037   1.414   1.635   4.735  4.2095 -0.1009  2.0914
 2691TIP3    H2 8038   1.374   1.535   4.842 -0.0174  0.5149  1.2615
 2692TIP3   OH2 8039   1.254   2.009   1.393  0.1666  0.1258  0.1017
 2692TIP3    H1 8040   1.295   2.050   1.316  0.2967  1.1340  0.6908
 2692TIP3    H2 8041   1.324   1.956   1.432  0.9971  1.9246  1.1667
 2693TIP3   OH2 8042   1.287   5.384   0.031  0.3029  0.1942  0.1635
 2693TIP3    H1 8043   1.370   5.429   0.015 -0.3333  1.3393  0.0133
 2693TIP3    H2 8044   1.284   5.315  -0.036  0.5949  0.9013 -0.5907
 2694TIP3   OH2 8045   0.589   2.900   0.124 -0.0521 -0.2253  0.0862
 2694TIP3    H1 8046   0.559   2.963   0.189  0.1331  0.5031 -0.5144
 2694TIP3    H2 8047   0.591   2.950   0.042 -0.2738 -1.1137 -0.4767
 2695TIP3   OH2 8048   0.255   5.157   3.727  0.3912 -0.3435  0.3125
 2695TIP3    H1 8049   0.336   5.116   3.696  0.1374  0.2336 -1.2168
 2695TIP3    H2 8050   0.197   5.156   3.651 -1.0635 -0.7486  1.3790
 2696TIP3   OH2 8051   6.153   1.438   1.593 -0.0547 -0.6675  0.3151
 2696TIP3    H1 8052   6.236   1.390   1.588  1.8997  2.5122 -0.6996
 2696TIP3    H2 8053   6.107   1.416   1.512  1.9325  0.9129 -1.3442
 2697TIP3   OH2 8054   4.092   3.892   0.455  0.4577  0.2737 -0.4078
 2697TIP3    H1 8055   4.141   3.894   0.373  0.1119  1.0483 -0.5966
 2697TIP3    H2 8056   4.042   3.810   0.451  2.6984 -1.2158  0.3723
 2698TIP3   OH2 8057   6.110   3.466   4.578  0.1479  0.1636 -0.0836
 2698TIP3    H1 8058   6.060   3.473   4.659  0.7262  0.1985  0.2779
 2698TIP3    H2 8059   6.143   3.555   4.562  0.3854  0.0679 -0.1301
 2699TIP3   OH2 8060   0.666   4.058   3.626 -0.3722 -0.6390 -0.1704
 2699TIP3    H1 8061   0.733   4.112   3.584 -0.7272  0.2305  0.3303
 2699TIP3    H2 8062   0.705   3.971   3.632  1.3457  0.1690  1.4757
 2700TIP3   OH2 8063   5.759   4.038   3.160  0.5208 -0.3328 -0.0453
 2700TIP3    H1 8064   5.825   4.097   3.124  1.6576 -1.3400  0.3051
 2700TIP3    H2 8065   5.797   3.951   3.149 -0.1724 -0.8387  1.3550
 2701TIP3   OH2 8066   6.732   3.162   1.776 -0.1630  0.2138  1.0710
 2701TIP3    H1 8067   6.671   3.182   1.705  0.7474 -2.1457 -0.5107
 2701TIP3    H2 8068   6.683   3.105   1.835  0.0548 -0.5763  0.5111
 2702TIP3   OH2 8069   5.577   0.917   1.546  0.5586 -0.4435 -0.6805
 2702TIP3    H1 8070   5.580   0.838   1.600  1.6511 -0.5089 -0.8124
 2702TIP3    H2 8071   5.505   0.902   1.485 -1.0190 -0.1646  1.0248
 2703TIP3   OH2 8072   1.782   1.871   4.780 -0.9312 -0.2721 -0.2743
 2703TIP3    H1 8073   1.770   1.776   4.786  1.4274 -0.6638 -0.7304
 2703TIP3    H2 8074   1.699   1.903   4.745 -1.7748 -2.1634 -0.1337
 2704TIP3   OH2 8075   5.878   5.317   3.193 -0.4386  0.2430  0.1320
 2704TIP3    H1 8076   5.861   5.309   3.099  0.9479  0.9982 -0.2138
 2704TIP3    H2 8077   5.821   5.388   3.222 -0.6540  0.2081 -0.2013
 2705TIP3   OH2 8078   2.431   3.688   0.552 -0.5339  0.0781  0.9502
 2705TIP3    H1 8079   2.374   3.708   0.478  1.1397  0.4408 -0.2770
 2705TIP3    H2 8080   2.437   3.770   0.601  2.6992  1.6128 -1.6006
 2706TIP3   OH2 8081   1.575   1.418   2.368 -0.0614 -0.0704 -0.5339
 2706TIP3    H1 8082   1.487   1.383   2.364 -0.2957  0.4387  0.0010
 2706TIP3    H2 8083   1.588   1.462   2.283 -0.5437  0.3594 -0.3891
 2707TIP3   OH2 8084   4.094   1.613   2.490 -0.2145  0.5231 -0.7915
 2707TIP3    H1 8085   4.022   1.670   2.462 -1.1009 -1.2198 -2.2575
 2707TIP3    H2 8086   4.077   1.595   2.582 -2.0639 -0.3707 -1.2715
 2708TIP3   OH2 8087   0.520   4.661   1.795 -0.0786 -0.3044 -0.4749
 2708TIP3    H1 8088   0.565   4.579   1.774  0.6261 -0.0537  0.0195
 2708TIP3    H2 8089   0.591   4.725   1.803 -0.5083  0.0515  0.5280
 2709TIP3   OH2 8090   0.405   5.987   1.333 -0.9681 -0.3961 -0.4623
 2709TIP3    H1 8091   0.497   5.997   1.311 -0.5502  1.3054  1.7022
 2709TIP3    H2 8092   0.382   5.899   1.302  0.9052 -0.2791 -2.4459
 2710TIP3   OH2 8093   1.540   4.327   0.941 -0.6746  0.4369  0.4790
 2710TIP3    H1 8094   1.543   4.252   1.001  0.0221  1.3139  1.5619
 2710TIP3    H2 8095   1.622   4.373   0.955 -0.6470  0.8632 -0.9238
 2711TIP3   OH2 8096   4.749   5.591   5.713 -0.1442  0.1091 -0.0910
 2711TIP3    H1 8097   4.680   5.525   5.725 -0.0794  0.4926  3.5699
 2711TIP3    H2 8098   4.718   5.667   5.763  1.9461  1.0603 -0.1470
 2712TIP3   OH2 8099   0.832   1.777   5.867 -0.0635  0.3828 -0.2810
 2712TIP3    H1 8100   0.797   1.712   5.928 -0.7004  2.1081  1.2739
 2712TIP3    H2 8101   0.901   1.730   5.819  1.5081 -0.6560  2.7761
 2713TIP3   OH2 8102   2.156   5.022   3.283 -0.2231 -0.3259  0.4777
 2713TIP3    H1 8103   2.214   5.047   3.355  0.0867 -0.5439  0.3061
 2713TIP3    H2 8104   2.165   5.092   3.219 -0.5115 -0.1235  0.6571
 2714TIP3   OH2 8105   6.621   4.811   3.319  0.4073 -0.7391  0.3082
 2714TIP3    H1 8106   6.588   4.855   3.240  1.3969  0.0160  0.2974
 2714TIP3    H2 8107   6.647   4.882   3.377 -0.7263 -1.2764  1.5303
 2715TIP3   OH2 8108   7.219   3.277   2.549 -0.3745  0.0732  0.1462
 2715TIP3    H1 8109   7.244   3.193   2.511 -1.3159 -0.3138  0.3485
 2715TIP3    H2 8110   7.125   3.282   2.537 -0.3117  1.1794  0.0003
 2716TIP3   OH2 8111   4.495   1.115   0.633  0.0719  0.0095 -0.3578
 2716TIP3    H1 8112   4.583   1.121   0.670  0.6263 -0.3653 -1.5339
 2716TIP3    H2 8113   4.453   1.045   0.683  1.1572 -1.2170 -1.0640
 2717TIP3   OH2 8114   3.603   5.823   3.043 -0.0379  0.3572 -0.3908
 2717TIP3    H1 8115   3.668   5.894   3.043  0.7094 -0.3079 -0.1446
 2717TIP3    H2 8116   3.543   5.846   2.973 -1.4056  2.6467  1.4021
 2718TIP3   OH2 8117   6.848   3.036   2.062 -0.4777  0.3392  0.4143
 2718TIP3    H1 8118   6.826   2.945   2.077  1.2759 -0.7950 -2.7673
 2718TIP3    H2 8119   6.780   3.068   2.003  1.0113 -0.2862 -1.7796
 2719TIP3   OH2 8120   6.773   1.434   4.275 -0.1925  0.0963  0.1783
 2719TIP3    H1 8121   6.799   1.475   4.192  0.6075  0.4216  0.5773
 2719TIP3    H2 8122   6.852   1.389   4.305 -0.1053  0.9905  1.3565
 2720TIP3   OH2 8123   5.147   3.399   4.329 -0.2532 -0.5878 -0.3536
 2720TIP3    H1 8124   5.091   3.324   4.311 -0.6099  0.0998 -2.4776
 2720TIP3    H2 8125   5.159   3.398   4.423 -3.1693 -1.2600  0.1263
 2721TIP3   OH2 8126   0.951   5.534   0.299 -0.4707  0.3981 -0.4470
 2721TIP3    H1 8127   1.032   5.483   0.302  0.3785  1.6176  3.8363
 2721TIP3    H2 8128   0.978   5.620   0.267 -0.9049 -0.2026 -2.5925
 2722TIP3   OH2 8129   6.975   5.435   2.015  0.8495 -0.0805  0.0827
 2722TIP3    H1 8130   7.040   5.479   1.959 -0.1979  0.7053 -0.5627
 2722TIP3    H2 8131   6.986   5.475   2.101  0.4225  0.9426 -0.3178
 2723TIP3   OH2 8132   6.565   1.055   2.548  0.3971  0.0308 -0.5891
 2723TIP3    H1 8133   6.602   1.056   2.637 -0.0476  0.1941 -0.4029
 2723TIP3    H2 8134   6.522   1.140   2.539 -0.3369 -0.3380 -0.6287
 2724TIP3   OH2 8135   5.971   0.393   3.698 -0.0690 -0.0787  0.4843
 2724TIP3    H1 8136   6.023   0.440   3.763  1.6726 -0.2900 -0.6808
 2724TIP3    H2 8137   6.036   0.346   3.645 -1.4814 -0.5135 -0.9343
 2725TIP3   OH2 8138   1.041   0.173   2.349 -0.0387  0.5812  0.1974
 2725TIP3    H1 8139   1.094   0.120   2.289  3.6863  2.0278  1.8896
 2725TIP3    H2 8140   1.029   0.117   2.426 -1.5310  0.0763 -0.3708
 2726TIP3   OH2 8141   0.009   0.528   5.886  0.0107 -0.4580 -0.1901
 2726TIP3    H1 8142   0.070   0.471   5.838  2.3200  1.8284 -0.1882
 2726TIP3    H2 8143  -0.021   0.591   5.820 -2.3258 -1.3902 -0.1378
 2727TIP3   OH2 8144   6.582   3.362   0.368 -0.9752 -0.3585 -0.3268
 2727TIP3    H1 8145   6.622   3.426   0.308 -0.9851 -0.5931 -0.5884
 2727TIP3    H2 8146   6.547   3.415   0.439  0.1855 -0.1786  0.1321
 2728TIP3   OH2 8147   5.148   4.230   3.088  0.0973 -0.2293  0.5572
 2728TIP3    H1 8148   5.191   4.273   3.161 -0.3354  0.2259  0.5539
 2728TIP3    H2 8149   5.115   4.302   3.034 -1.5873 -0.5300  1.1146
 2729TIP3   OH2 8150   3.272   1.462   5.570 -0.5355  0.2924 -0.2245
 2729TIP3    H1 8151   3.301   1.429   5.656 -1.4603 -1.0122 -0.3929
 2729TIP3    H2 8152   3.351   1.499   5.531  0.1413 -0.0900  0.7414
 2730TIP3   OH2 8153   1.343   5.809   3.830  0.2150  0.4428 -0.3985
 2730TIP3    H1 8154   1.438   5.819   3.843 -0.0673  0.7021  1.9564
 2730TIP3    H2 8155   1.311   5.898   3.821 -0.0233  0.4972  0.8690
 2731TIP3   OH2 8156   5.461   4.697   0.062  0.1695 -0.2090  0.2253
 2731TIP3    H1 8157   5.395   4.628   0.076  0.7985 -0.6765  0.9318
 2731TIP3    H2 8158   5.410   4.771   0.028 -0.7654 -0.4902  0.9489
 2732TIP3   OH2 8159   4.496   4.238   0.787  0.1148 -0.5977 -0.0032
 2732TIP3    H1 8160   4.489   4.308   0.852 -0.5814 -0.7973  0.1485
 2732TIP3    H2 8161   4.447   4.271   0.711  1.6999  0.0247 -0.7909
 2733TIP3   OH2 8162   1.165   3.418   0.691  0.4680  0.1182  0.8300
 2733TIP3    H1 8163   1.149   3.504   0.652  2.9595 -0.0651 -0.7917
 2733TIP3    H2 8164   1.184   3.361   0.617  0.2986 -1.4953  1.9903
 2734TIP3   OH2 8165   2.522   2.487   4.365 -0.0795  0.6579  0.4513
 2734TIP3    H1 8166   2.607   2.518   4.333  0.0042 -0.0763 -0.0845
 2734TIP3    H2 8167   2.533   2.392   4.369 -0.5628  0.6369  1.3168
 2735TIP3   OH2 8168   1.470   0.150   3.210  0.9695 -0.1623 -0.3533
 2735TIP3    H1 8169   1.456   0.243   3.231  0.7682 -0.7912  2.7815
 2735TIP3    H2 8170   1.529   0.119   3.279 -0.4381 -2.7576 -0.2210
 2736TIP3   OH2 8171   4.137   1.079   2.237  0.0944 -0.0788 -0.2567
 2736TIP3    H1 8172   4.100   1.136   2.170 -1.7463  0.0513  0.7891
 2736TIP3    H2 8173   4.205   1.131   2.279  1.0095 -0.0360 -1.7400
 2737TIP3   OH2 8174   2.345   1.752   2.497  0.0290  0.1798  0.4335
 2737TIP3    H1 8175   2.278   1.775   2.561 -0.3478  0.6498 -0.1244
 2737TIP3    H2 8176   2.301   1.756   2.413  0.8418  0.8197  0.0258
 2738TIP3   OH2 8177   4.275   3.049   4.529  0.9580 -0.1111  0.1587
 2738TIP3    H1 8178   4.248   2.973   4.580 -0.4590  0.1856 -0.0878
 2738TIP3    H2 8179   4.277   3.018   4.439 -1.7524  0.5762 -0.2404
 2739TIP3   OH2 8180   6.989   5.949   5.342  1.1787  0.3128  0.3079
 2739TIP3    H1 8181   7.044   6.024   5.321 -0.5289  2.0349  1.5941
 2739TIP3    H2 8182   6.925   5.946   5.271  0.2301  1.1920  1.0809
 2740TIP3   OH2 8183   1.414   1.199   5.584  0.5050 -0.0975  0.0578
 2740TIP3    H1 8184   1.329   1.235   5.559 -0.5632 -2.8953 -0.8443
 2740TIP3    H2 8185   1.442   1.252   5.657 -3.3856 -0.6160  2.2355
 2741TIP3   OH2 8186   2.530   5.505   3.147  0.4076  0.1486  0.9200
 2741TIP3    H1 8187   2.496   5.474   3.063  0.6438  1.3712  0.3556
 2741TIP3    H2 8188   2.623   5.519   3.133  0.3624  0.8264  1.2426
 2742TIP3   OH2 8189   3.090   4.172   1.065  0.4680  0.5616 -0.1354
 2742TIP3    H1 8190   3.050   4.109   1.125  0.6825 -0.2085 -0.7897
 2742TIP3    H2 8191   3.067   4.257   1.102 -0.7593  0.1207  0.1609
 2743TIP3   OH2 8192   6.436   1.261   2.235 -0.2861 -0.3243 -0.3752
 2743TIP3    H1 8193   6.346   1.257   2.201 -0.0046 -0.2542 -1.1528
 2743TIP3    H2 8194   6.426   1.290   2.326 -1.2402 -2.8334  0.4085
 2744TIP3   OH2 8195   0.525   3.028   5.079 -0.4214  0.2710 -0.2081
 2744TIP3    H1 8196   0.546   2.941   5.113  1.8380  1.7247  2.5390
 2744TIP3    H2 8197   0.601   3.052   5.025  0.6664  1.7439  1.8162
 2745TIP3   OH2 8198   0.985   0.045   3.676 -0.4180 -0.3757 -0.1662
 2745TIP3    H1 8199   1.009  -0.046   3.694 -1.1963 -0.4874  0.3338
 2745TIP3    H2 8200   0.938   0.073   3.755 -0.4832  0.3526 -0.4616
 2746TIP3   OH2 8201   3.848   4.415   3.022  0.5297  0.3432 -0.2460
 2746TIP3    H1 8202   3.802   4.370   3.094  2.0565  0.3256  0.7777
 2746TIP3    H2 8203   3.857   4.505   3.053 -1.1879  1.0389 -1.6383
 2747TIP3   OH2 8204   0.132   3.919   4.440  0.0820  0.7800 -0.1036
 2747TIP3    H1 8205   0.085   3.997   4.411 -2.0139  0.2447  1.6504
 2747TIP3    H2 8206   0.168   3.942   4.526  2.6451  0.9657 -1.1251
 2748TIP3   OH2 8207   3.937   3.403   3.829  0.5413 -0.1122  0.0849
 2748TIP3    H1 8208   4.019   3.437   3.794  0.3518  1.6258  1.2094
 2748TIP3    H2 8209   3.870   3.465   3.800 -0.6487 -2.1720 -1.8798
 2749TIP3   OH2 8210   5.209   0.262   5.396 -0.0760 -0.5350  0.5132
 2749TIP3    H1 8211   5.252   0.192   5.444  2.3645 -0.0514 -0.8327
 2749TIP3    H2 8212   5.280   0.310   5.354 -1.9093  0.6191 -1.4759
 2750TIP3   OH2 8213   2.504   1.136   1.098 -0.1523 -0.2774 -0.2433
 2750TIP3    H1 8214   2.415   1.168   1.085 -0.4507 -1.0533 -0.1540
 2750TIP3    H2 8215   2.493   1.044   1.124  0.7012 -0.6486 -1.1415
 2751TIP3   OH2 8216   5.248   5.767   2.082 -0.2569 -0.2842 -0.4746
 2751TIP3    H1 8217   5.336   5.743   2.110 -0.7030 -0.7780  0.5894
 2751TIP3    H2 8218   5.228   5.847   2.132 -0.9909 -1.0610  0.5067
 2752TIP3   OH2 8219   6.809   4.281   3.227 -0.3008  0.2481  0.0787
 2752TIP3    H1 8220   6.834   4.250   3.140 -0.2360 -0.2298  0.2660
 2752TIP3    H2 8221   6.767   4.365   3.211 -0.5073  0.0511 -0.4404
 2753TIP3   OH2 8222   4.712   1.773   0.738 -0.2526  0.7969  0.3368
 2753TIP3    H1 8223   4.752   1.771   0.825 -1.7996  0.5795  1.0752
 2753TIP3    H2 8224   4.626   1.812   0.752 -0.9512 -0.2094 -0.9147
 2754TIP3   OH2 8225   2.279   3.375   2.534 -0.6741 -0.5023 -0.1499
 2754TIP3    H1 8226   2.278   3.325   2.452 -0.1674  1.6759 -1.5589
 2754TIP3    H2 8227   2.191   3.412   2.540 -0.2137  0.7476 -0.6791
 2755TIP3   OH2 8228   0.377   1.096   1.886  0.6849  0.2944 -0.4613
 2755TIP3    H1 8229   0.369   1.184   1.849  0.2132  0.9495  1.1344
 2755TIP3    H2 8230   0.375   1.109   1.980 -0.5560 -1.5281 -0.1808
 2756TIP3   OH2 8231   0.064   2.639   1.628 -0.6338 -0.0443  0.2316
 2756TIP3    H1 8232   0.024   2.563   1.585  1.7661 -0.8738 -0.6652
 2756TIP3    H2 8233   0.034   2.633   1.719 -2.9021 -0.3012 -0.4504
 2757TIP3   OH2 8234   6.925   3.686   1.062  0.0327  0.1731  0.0733
 2757TIP3    H1 8235   6.935   3.592   1.044 -0.4715 -0.2411  1.7344
 2757TIP3    H2 8236   6.913   3.726   0.976  2.6278 -0.9403 -0.9035
 2758TIP3   OH2 8237   4.747   1.090   3.598  0.4812  0.2722  0.6497
 2758TIP3    H1 8238   4.791   1.038   3.665  0.9756 -2.0424 -1.3279
 2758TIP3    H2 8239   4.675   1.035   3.569 -0.4538  1.7407  0.1018
 2759TIP3   OH2 8240   5.071   5.273   2.285 -0.1236  0.0646 -0.2222
 2759TIP3    H1 8241   5.103   5.183   2.287 -1.8600 -0.6359 -1.1662
 2759TIP3    H2 8242   5.147   5.325   2.261  0.3711 -1.4877 -2.3360
 2760TIP3   OH2 8243   1.138   5.679   1.503 -0.0213  0.6321  0.1121
 2760TIP3    H1 8244   1.141   5.637   1.589  2.6464  2.3716  1.0027
 2760TIP3    H2 8245   1.137   5.606   1.441  1.6894 -0.7706  1.6000
 2761TIP3   OH2 8246   6.017   3.399   0.601 -0.3406  0.3900  0.0407
 2761TIP3    H1 8247   5.964   3.451   0.661 -1.9522  0.8746 -1.6849
 2761TIP3    H2 8248   5.953   3.354   0.545  1.0550 -0.0917 -1.2467
 2762TIP3   OH2 8249   3.086   6.101   1.418 -0.3037  0.2830 -0.0857
 2762TIP3    H1 8250   3.078   6.059   1.332 -0.6718  1.0054 -0.4193
 2762TIP3    H2 8251   3.022   6.055   1.473 -0.2138 -0.0464 -0.2554
 2763TIP3   OH2 8252   6.114   5.852   0.681 -0.0098  0.1207 -0.0805
 2763TIP3    H1 8253   6.116   5.925   0.620 -1.2667 -0.2119 -0.5493
 2763TIP3    H2 8254   6.142   5.889   0.764  1.0543  0.7316 -0.6937
 2764TIP3   OH2 8255   6.840   5.015   3.686 -0.3473  0.4167  0.5804
 2764TIP3    H1 8256   6.924   5.039   3.725 -0.5790  1.6690  0.3384
 2764TIP3    H2 8257   6.775   5.040   3.752 -0.5512 -0.3963  0.6993
 2765TIP3   OH2 8258   0.519   5.734   1.919 -0.2431 -0.5038 -0.3298
 2765TIP3    H1 8259   0.515   5.662   1.855 -1.3342 -0.1332 -0.6889
 2765TIP3    H2 8260   0.503   5.813   1.868  2.9898  0.2886 -0.3159
 2766TIP3   OH2 8261   5.230   1.444   2.980 -0.8599  0.5590 -1.0689
 2766TIP3    H1 8262   5.284   1.485   2.912 -1.2341 -2.3832 -3.3289
 2766TIP3    H2 8263   5.140   1.460   2.952 -1.1211  1.3363  0.1082
 2767TIP3   OH2 8264   5.113   2.019   5.226 -0.1085  0.3630 -0.1895
 2767TIP3    H1 8265   5.027   2.049   5.255  0.3695 -0.0341  1.8614
 2767TIP3    H2 8266   5.111   1.924   5.239  1.3479  0.5675  2.2029
 2768TIP3   OH2 8267   5.441   5.153   2.650  0.3819 -0.1625 -0.3079
 2768TIP3    H1 8268   5.397   5.144   2.734  1.0947 -1.3475 -0.0364
 2768TIP3    H2 8269   5.428   5.245   2.625 -0.9795 -0.1345  0.4409
 2769TIP3   OH2 8270   0.447   4.320   3.504  0.0307  0.0836 -0.1386
 2769TIP3    H1 8271   0.466   4.371   3.426 -1.1656  0.1147 -0.4279
 2769TIP3    H2 8272   0.526   4.327   3.558  1.5626 -1.3113 -2.0519
 2770TIP3   OH2 8273   3.193   4.281   2.018 -0.4142  0.0654 -0.1751
 2770TIP3    H1 8274   3.262   4.285   2.085  0.1610  0.3304 -0.7644
 2770TIP3    H2 8275   3.117   4.246   2.064 -0.8198  2.5964  1.2649
 2771TIP3   OH2 8276   5.267   6.099   5.583  0.1255 -0.0007  0.3937
 2771TIP3    H1 8277   5.302   6.091   5.494 -0.3500 -0.8336  0.2774
 2771TIP3    H2 8278   5.213   6.178   5.580  0.3593  0.1490  0.0264
 2772TIP3   OH2 8279   1.489   6.447   4.189  0.5923  1.1356  0.4814
 2772TIP3    H1 8280   1.548   6.387   4.143 -0.1328  0.5360  0.3042
 2772TIP3    H2 8281   1.443   6.494   4.120  0.2725  0.9979  0.5949
 2773TIP3   OH2 8282   5.407   2.814   2.055 -0.4411 -0.8117  0.0631
 2773TIP3    H1 8283   5.331   2.760   2.079 -1.2395  0.6434  0.9684
 2773TIP3    H2 8284   5.417   2.801   1.961 -4.2052  1.7304 -0.9247
 2774TIP3   OH2 8285   6.215   2.382   0.562 -0.8200  0.1563  0.4264
 2774TIP3    H1 8286   6.124   2.406   0.576 -1.3860 -1.7754  0.2773
 2774TIP3    H2 8287   6.264   2.462   0.583 -2.5127  1.1817  0.6508
 2775TIP3   OH2 8288   5.410   1.253   5.315 -0.2532 -0.1721 -0.5969
 2775TIP3    H1 8289   5.370   1.187   5.258  1.2220  0.5595 -2.5745
 2775TIP3    H2 8290   5.459   1.310   5.256  0.1888  1.5050  1.2737
 2776TIP3   OH2 8291   5.654   2.685   4.143  0.5092 -0.1469  0.1212
 2776TIP3    H1 8292   5.616   2.681   4.231  0.3481  0.8505  0.0990
 2776TIP3    H2 8293   5.604   2.753   4.098  1.7659  0.6144 -0.1703
 2777TIP3   OH2 8294   2.529   6.655   2.878 -0.1600  0.3490 -0.4712
 2777TIP3    H1 8295   2.444   6.611   2.874  0.0338 -0.0421 -0.2791
 2777TIP3    H2 8296   2.551   6.657   2.971  0.2332  0.0869 -0.5561
 2778TIP3   OH2 8297   1.455   6.432   0.350  0.0392  0.2400 -0.0620
 2778TIP3    H1 8298   1.544   6.440   0.386  0.3522 -0.3556 -0.6683
 2778TIP3    H2 8299   1.454   6.492   0.275 -0.0079  0.1047 -0.1696
 2779TIP3   OH2 8300   3.800   5.374   3.500  0.1936 -0.0829  0.7307
 2779TIP3    H1 8301   3.729   5.313   3.478  0.3185 -0.2154  0.6908
 2779TIP3    H2 8302   3.756   5.451   3.534  0.0250 -0.1249  0.6077
 2780TIP3   OH2 8303   5.474   5.558   1.664 -0.1839  0.4415  0.1539
 2780TIP3    H1 8304   5.527   5.500   1.609 -2.5165 -3.0650  1.2541
 2780TIP3    H2 8305   5.537   5.610   1.712  2.1325 -1.2067 -0.9274
 2781TIP3   OH2 8306   6.222   3.927   3.852 -0.4070 -0.7259 -0.3120
 2781TIP3    H1 8307   6.239   3.886   3.937 -2.4006 -0.6953  0.1573
 2781TIP3    H2 8308   6.227   4.021   3.870 -0.2216 -0.7238 -0.3733
 2782TIP3   OH2 8309   6.721   1.621   1.809 -0.6113  0.0464 -0.4547
 2782TIP3    H1 8310   6.640   1.670   1.801 -0.1645  1.1946  1.4359
 2782TIP3    H2 8311   6.731   1.606   1.903  1.3671 -0.0327 -0.6313
 2783TIP3   OH2 8312   6.111   5.540   3.139 -0.2699  0.4916  0.3296
 2783TIP3    H1 8313   6.158   5.586   3.069  0.5745 -0.6302  0.1328
 2783TIP3    H2 8314   6.021   5.571   3.131  0.1661  1.7162 -0.1183
 2784TIP3   OH2 8315   7.006   1.387   2.661 -0.0460 -0.1428  0.7084
 2784TIP3    H1 8316   6.936   1.384   2.597 -0.4551 -1.9808  1.1695
 2784TIP3    H2 8317   7.085   1.407   2.611 -0.6146  0.1113 -0.0935
 2785TIP3   OH2 8318   4.684   6.282   4.490 -0.0657  0.2747  0.0788
 2785TIP3    H1 8319   4.682   6.377   4.498 -3.0968  0.2798  0.5337
 2785TIP3    H2 8320   4.722   6.266   4.403  0.1210  1.9041 -0.1742
 2786TIP3   OH2 8321   6.066   1.275   3.061  0.1231 -0.4553 -0.7160
 2786TIP3    H1 8322   5.981   1.236   3.082  0.1559 -0.1721 -0.0190
 2786TIP3    H2 8323   6.121   1.201   3.037 -0.1678 -0.7018 -0.6299
 2787TIP3   OH2 8324   4.328   5.196   2.861 -0.4836 -0.2834  0.5904
 2787TIP3    H1 8325   4.313   5.162   2.773 -2.2441  0.1497  0.6876
 2787TIP3    H2 8326   4.388   5.133   2.901  2.5801  0.8596 -1.7205
 2788TIP3   OH2 8327   5.944   1.996   1.278 -0.7463 -0.0292  0.0581
 2788TIP3    H1 8328   5.963   1.960   1.365 -2.0473 -1.3605 -0.1667
 2788TIP3    H2 8329   5.888   1.930   1.237 -0.6347  0.8567 -1.5767
 2789TIP3   OH2 8330   3.433   3.880   4.301  0.1772 -0.4964 -0.3190
 2789TIP3    H1 8331   3.522   3.887   4.335  0.0488  0.1657 -0.1042
 2789TIP3    H2 8332   3.441   3.821   4.226  0.9176  0.0812 -0.7100
 2790TIP3   OH2 8333   2.201   6.785   0.414 -0.7057  0.1632  0.4215
 2790TIP3    H1 8334   2.179   6.698   0.382 -3.1047  0.5429  0.8195
 2790TIP3    H2 8335   2.165   6.845   0.348 -1.5596  0.8703  1.4942
 2791TIP3   OH2 8336   5.939   1.395   3.561 -0.2236 -0.2671 -0.1374
 2791TIP3    H1 8337   5.887   1.318   3.539  0.9968 -1.3857  0.7607
 2791TIP3    H2 8338   5.952   1.390   3.656  0.6885  0.5112 -0.1979
 2792TIP3   OH2 8339   2.596   4.946   2.624  0.3136  0.0673  0.3458
 2792TIP3    H1 8340   2.515   4.940   2.675  0.4954 -1.4325  0.5092
 2792TIP3    H2 8341   2.664   4.961   2.690  0.1757  1.4516  0.1965
 2793TIP3   OH2 8342   5.773   1.442   1.187  0.3277  0.1067 -0.6048
 2793TIP3    H1 8343   5.779   1.351   1.157 -0.8130 -0.4388  0.7313
 2793TIP3    H2 8344   5.683   1.468   1.169  0.1444  0.3775  0.6209
 2794TIP3   OH2 8345   6.986   3.608   3.402  0.5172  0.0269  0.2292
 2794TIP3    H1 8346   6.980   3.593   3.308  0.0877 -1.1042  0.4291
 2794TIP3    H2 8347   7.068   3.565   3.428  0.2965 -0.2373  0.4848
 2795TIP3   OH2 8348   4.805   5.347   1.017 -0.5452 -0.1453  0.1465
 2795TIP3    H1 8349   4.774   5.315   1.102  1.2156  2.6958  2.0009
 2795TIP3    H2 8350   4.890   5.305   1.005 -0.7064 -0.3945 -0.1665
 2796TIP3   OH2 8351   6.106   0.973   3.480 -0.4353  0.1711  0.5853
 2796TIP3    H1 8352   6.047   0.936   3.414  0.6825 -2.8633  1.1123
 2796TIP3    H2 8353   6.047   1.012   3.545 -1.6511  0.8225 -0.8472
 2797TIP3   OH2 8354   4.977   0.533   4.552 -0.3106 -0.3621  0.3403
 2797TIP3    H1 8355   4.885   0.554   4.570 -0.2531  2.0527 -1.5999
 2797TIP3    H2 8356   5.016   0.618   4.528  2.0101 -1.5998 -0.5489
 2798TIP3   OH2 8357   5.500   0.165   3.632 -0.1715 -0.8454 -0.2291
 2798TIP3    H1 8358   5.578   0.166   3.577  0.0503 -0.1501  0.0896
 2798TIP3    H2 8359   5.459   0.251   3.617  0.7393  0.0189  1.8755
 2799TIP3   OH2 8360   4.623   0.611   5.865  0.2360  0.2775 -0.0552
 2799TIP3    H1 8361   4.576   0.689   5.837  0.5234  0.4498 -0.0597
 2799TIP3    H2 8362   4.561   0.564   5.922 -0.3948 -0.1367 -1.0581
 2800TIP3   OH2 8363   3.804   3.202   4.504 -0.1127  0.4094  0.6676
 2800TIP3    H1 8364   3.725   3.256   4.497 -0.7863 -0.5744  0.3463
 2800TIP3    H2 8365   3.814   3.164   4.416 -0.2917 -0.8156  1.1562
 2801TIP3   OH2 8366   4.134   4.858   1.163  0.2310 -0.4702  0.4082
 2801TIP3    H1 8367   4.219   4.867   1.120 -0.5864 -0.2130 -1.2173
 2801TIP3    H2 8368   4.109   4.767   1.147  0.2928 -0.6118  1.0853
 2802TIP3   OH2 8369   2.794   4.471   5.706 -0.0782  0.1350 -0.7177
 2802TIP3    H1 8370   2.702   4.481   5.681 -0.3285  1.6874  0.6628
 2802TIP3    H2 8371   2.806   4.530   5.780  1.5361 -1.5713  0.4734
 2803TIP3   OH2 8372   4.766   0.886   3.784 -0.9543 -0.2746  0.1975
 2803TIP3    H1 8373   4.805   0.938   3.855 -1.8177  0.7199 -0.0363
 2803TIP3    H2 8374   4.748   0.801   3.824  0.5934 -0.4612  0.5553
 2804TIP3   OH2 8375   4.143   2.435   1.993  0.6523  0.1954 -0.3690
 2804TIP3    H1 8376   4.197   2.428   1.914  1.0771  1.4875 -0.2202
 2804TIP3    H2 8377   4.066   2.382   1.974  1.0838 -0.1160 -1.3514
 2805TIP3   OH2 8378   5.057   5.442   1.963 -0.2475  0.0814 -0.3903
 2805TIP3    H1 8379   5.149   5.466   1.967  0.0340 -0.7793 -1.2007
 2805TIP3    H2 8380   5.028   5.440   2.054  1.0615 -1.5602  0.0376
 2806TIP3   OH2 8381   6.726   3.220   5.391 -0.0351  0.1438 -0.3826
 2806TIP3    H1 8382   6.731   3.155   5.462 -0.8261 -0.3474 -0.7609
 2806TIP3    H2 8383   6.700   3.301   5.434 -0.3263 -0.1061 -0.0859
 2807TIP3   OH2 8384   1.590   3.918   4.691  0.3327 -0.0255 -0.2888
 2807TIP3    H1 8385   1.631   3.928   4.605 -0.0628  0.8821 -0.3801
 2807TIP3    H2 8386   1.598   4.004   4.732 -0.7299 -0.0654  0.0250
 2808TIP3   OH2 8387   5.033   5.617   4.671 -0.4854  0.0681 -0.1822
 2808TIP3    H1 8388   4.940   5.628   4.692  0.0616 -1.1293  3.5893
 2808TIP3    H2 8389   5.057   5.534   4.710  2.5238  1.0823  0.3796
 2809TIP3   OH2 8390   5.582   0.579   3.439 -0.0128  0.2481  0.5476
 2809TIP3    H1 8391   5.661   0.632   3.452 -0.2715  0.4738  1.2454
 2809TIP3    H2 8392   5.510   0.639   3.457 -0.3139 -0.2950  1.1745
 2810TIP3   OH2 8393   1.776   5.222   2.045 -0.4350 -0.0357  0.5181
 2810TIP3    H1 8394   1.693   5.208   2.000  0.4518 -0.3978 -1.0596
 2810TIP3    H2 8395   1.834   5.258   1.978  0.4302  1.1056  1.8246
 2811TIP3   OH2 8396   1.578   0.891   0.287 -0.3507 -0.0548 -0.1296
 2811TIP3    H1 8397   1.590   0.939   0.205 -2.0035  0.9274  0.1581
 2811TIP3    H2 8398   1.486   0.906   0.311  0.1520 -0.0715  2.0454
 2812TIP3   OH2 8399   4.080   6.728   2.689  0.2715 -0.7399 -0.6923
 2812TIP3    H1 8400   4.009   6.687   2.639  0.5445  0.5817 -2.2439
 2812TIP3    H2 8401   4.035   6.774   2.759 -0.2322 -1.5852 -0.4413
 2813TIP3   OH2 8402   6.880   3.385   0.520  0.2095 -0.0546 -0.1391
 2813TIP3    H1 8403   6.940   3.317   0.550  0.1142  0.0936  0.3869
 2813TIP3    H2 8404   6.829   3.408   0.597 -0.2000  0.1608 -0.4698
 2814TIP3   OH2 8405   2.262   3.917   3.774 -0.2438  0.2949  0.8669
 2814TIP3    H1 8406   2.226   3.886   3.691  0.4406 -1.7571  1.2728
 2814TIP3    H2 8407   2.226   4.005   3.785 -1.6631 -0.0311 -0.7938
 2815TIP3   OH2 8408   6.810   1.547   2.062  0.2044  0.1863  0.1383
 2815TIP3    H1 8409   6.799   1.624   2.118 -0.5539  0.7559 -0.7541
 2815TIP3    H2 8410   6.781   1.474   2.115  0.5113  0.5710  0.8495
 2816TIP3   OH2 8411   3.089   3.553   1.427  0.3622 -0.1018 -0.4711
 2816TIP3    H1 8412   3.115   3.461   1.420  0.3335 -0.2884  1.3708
 2816TIP3    H2 8413   3.161   3.601   1.388  0.8697 -0.8624 -0.4937
 2817TIP3   OH2 8414   5.746   0.450   5.900 -0.6329  0.5640  0.9568
 2817TIP3    H1 8415   5.654   0.444   5.922 -0.2633 -3.3991  2.2228
 2817TIP3    H2 8416   5.747   0.480   5.809 -3.1902  0.1547  0.7235
 2818TIP3   OH2 8417   1.344   2.616   0.332 -0.1419 -0.1017 -0.4316
 2818TIP3    H1 8418   1.409   2.684   0.317  1.6157 -1.5554  0.2920
 2818TIP3    H2 8419   1.263   2.651   0.293  1.4236  1.0508 -2.8578
 2819TIP3   OH2 8420   4.953   4.117   2.706 -0.5912 -0.2928 -0.4385
 2819TIP3    H1 8421   5.048   4.107   2.695 -0.4743 -1.1022  0.9397
 2819TIP3    H2 8422   4.943   4.197   2.757 -0.7743  0.6230 -1.8658
 2820TIP3   OH2 8423   5.037   6.364   1.013  0.2743  0.5371  0.2090
 2820TIP3    H1 8424   5.105   6.347   0.947  0.3019 -1.2167  0.6202
 2820TIP3    H2 8425   4.985   6.435   0.977  2.3818  2.0102 -0.0852
 2821TIP3   OH2 8426   4.861   1.606   3.822  0.4523 -0.0288 -0.1147
 2821TIP3    H1 8427   4.928   1.664   3.787 -0.0148  0.2426 -0.5806
 2821TIP3    H2 8428   4.838   1.550   3.748  0.5923 -0.5283  0.2108
 2822TIP3   OH2 8429   1.481   1.766   2.253  0.0742  0.1746 -0.6560
 2822TIP3    H1 8430   1.442   1.812   2.178  0.1315  1.5287  0.1266
 2822TIP3    H2 8431   1.487   1.832   2.322  1.9407 -0.5012 -0.1083
 2823TIP3   OH2 8432   1.463   2.207   4.498 -0.1070 -0.1107  0.1295
 2823TIP3    H1 8433   1.541   2.261   4.509  0.7941 -1.5028  1.0329
 2823TIP3    H2 8434   1.471   2.171   4.410 -0.8003  1.3040 -0.5421
 2824TIP3   OH2 8435   0.781   4.035   2.929  0.1295  0.0865 -0.0493
 2824TIP3    H1 8436   0.794   4.024   2.835  0.6626 -1.7979  0.2030
 2824TIP3    H2 8437   0.728   4.115   2.936 -1.7203 -0.8484 -2.0921
 2825TIP3   OH2 8438   1.543   1.605   4.310 -0.6868  0.2306 -0.4505
 2825TIP3    H1 8439   1.637   1.622   4.314 -0.5594 -0.5802  0.3451
 2825TIP3    H2 8440   1.512   1.659   4.237  0.5596 -0.2623 -1.3861
 2826TIP3   OH2 8441   5.037   4.748   4.677 -0.0967 -0.5055 -0.8801
 2826TIP3    H1 8442   5.013   4.841   4.685 -2.1440 -1.0732  0.5255
 2826TIP3    H2 8443   5.113   4.748   4.619  0.0502  2.0542 -0.8285
 2827TIP3   OH2 8444   0.136   6.043   0.956 -0.2571  0.1052  0.0699
 2827TIP3    H1 8445   0.168   5.953   0.960 -1.3603 -0.3494 -0.6775
 2827TIP3    H2 8446   0.162   6.073   0.869 -1.3437 -0.1002 -0.3491
 2828TIP3   OH2 8447   1.613   1.618   1.453  0.1470 -0.3035  0.0088
 2828TIP3    H1 8448   1.540   1.557   1.454 -0.4878  0.4333  1.1139
 2828TIP3    H2 8449   1.584   1.689   1.396  0.8616 -0.9694 -1.2303
 2829TIP3   OH2 8450   3.648   0.083   1.720 -0.4117 -0.3212 -0.4324
 2829TIP3    H1 8451   3.565   0.040   1.742  0.3901 -1.1593  1.1169
 2829TIP3    H2 8452   3.709   0.011   1.705  0.7776  0.2074  1.5075
 2830TIP3   OH2 8453   3.891   5.653   4.723  0.0570 -0.3621 -0.2894
 2830TIP3    H1 8454   3.900   5.610   4.808  0.6995  1.9964  0.9236
 2830TIP3    H2 8455   3.976   5.695   4.707 -1.3254  2.8911  0.1101
 2831TIP3   OH2 8456   5.719   2.114   4.759 -0.2431 -0.2794 -0.4437
 2831TIP3    H1 8457   5.707   2.088   4.667 -0.7144 -1.6282 -0.0222
 2831TIP3    H2 8458   5.638   2.088   4.802 -0.2443  0.8378  0.2643
 2832TIP3   OH2 8459   3.727   3.028   3.687 -0.1867  0.2204 -0.4062
 2832TIP3    H1 8460   3.697   3.104   3.736  1.2688  0.6433 -0.1062
 2832TIP3    H2 8461   3.737   3.060   3.597  0.9327  0.5658 -0.1797
 2833TIP3   OH2 8462   6.064   0.261   1.988  0.0007 -0.1330 -0.0365
 2833TIP3    H1 8463   6.101   0.244   1.902 -1.3405 -1.2125 -0.4417
 2833TIP3    H2 8464   6.032   0.351   1.983  1.0655  0.2502 -0.2162
 2834TIP3   OH2 8465   2.222   6.469   1.046  0.2222 -0.4176  0.0640
 2834TIP3    H1 8466   2.221   6.376   1.023 -1.0677 -0.2518 -0.6200
 2834TIP3    H2 8467   2.175   6.474   1.129  1.6843 -0.5485  0.9405
 2835TIP3   OH2 8468   3.964   5.992   5.435  0.0483  0.0992 -0.2277
 2835TIP3    H1 8469   3.896   5.926   5.445 -1.7744  1.7066 -1.1984
 2835TIP3    H2 8470   3.941   6.038   5.354  0.2023  3.0275  1.2582
 2836TIP3   OH2 8471   4.598   2.494   2.408 -0.0253 -0.5492 -0.0516
 2836TIP3    H1 8472   4.675   2.546   2.386  0.4572 -0.4741  1.6237
 2836TIP3    H2 8473   4.556   2.475   2.324  0.3819  1.5947 -0.7881
 2837TIP3   OH2 8474   1.442   0.722   1.240 -0.1405  0.2563 -0.1287
 2837TIP3    H1 8475   1.477   0.801   1.279 -0.5095  0.1829  0.3612
 2837TIP3    H2 8476   1.484   0.650   1.288 -2.4250  0.1473  1.8949
 2838TIP3   OH2 8477   5.211   3.667   4.945  0.3249  0.0514 -0.0677
 2838TIP3    H1 8478   5.212   3.706   5.033 -0.2695  0.1210 -0.0886
 2838TIP3    H2 8479   5.130   3.617   4.942  1.1662 -1.3822  0.0255
 2839TIP3   OH2 8480   3.854   2.925   1.142 -0.3312  0.8255 -0.0971
 2839TIP3    H1 8481   3.763   2.952   1.153  0.0291  2.3240 -0.5212
 2839TIP3    H2 8482   3.905   3.006   1.151  1.0418 -0.1019  0.9865
 2840TIP3   OH2 8483   3.567   3.625   5.327  0.1052 -0.1283  0.3865
 2840TIP3    H1 8484   3.532   3.714   5.318  0.6903 -0.0707 -2.0451
 2840TIP3    H2 8485   3.596   3.602   5.239  2.1187 -1.8623  1.4131
 2841TIP3   OH2 8486   1.608   1.495   0.080 -0.0447 -0.2338 -0.4006
 2841TIP3    H1 8487   1.578   1.451   0.160  1.3602  0.4465  0.5479
 2841TIP3    H2 8488   1.533   1.493   0.022 -0.9700 -1.1609  0.7721
 2842TIP3   OH2 8489   3.559   4.326   1.956  0.1288  0.2070  0.2706
 2842TIP3    H1 8490   3.650   4.350   1.941  0.1253 -0.5165 -1.1420
 2842TIP3    H2 8491   3.560   4.230   1.963 -0.6392  0.0928 -0.8686
 2843TIP3   OH2 8492   6.276   0.811   4.786  0.0057 -0.2577  0.1535
 2843TIP3    H1 8493   6.213   0.883   4.790  0.5813  0.2305  0.5437
 2843TIP3    H2 8494   6.250   0.761   4.708 -0.0404  0.7133 -0.4729
 2844TIP3   OH2 8495   1.605   2.801   5.291 -0.4524  0.8838 -0.3572
 2844TIP3    H1 8496   1.641   2.781   5.377 -0.4515 -0.4523 -0.6510
 2844TIP3    H2 8497   1.671   2.859   5.251 -0.1259  0.9598  0.2795
 2845TIP3   OH2 8498   3.993   2.096   1.308 -0.1301 -0.5768 -0.6324
 2845TIP3    H1 8499   3.921   2.044   1.342  0.9599 -1.5438  0.3168
 2845TIP3    H2 8500   4.031   2.042   1.239  0.5987 -0.7665 -0.0973
 2846TIP3   OH2 8501   0.826   6.479   4.484 -0.0252  0.1046 -0.0096
 2846TIP3    H1 8502   0.807   6.477   4.578  0.3414  0.1026  0.0652
 2846TIP3    H2 8503   0.778   6.556   4.452 -0.8232 -0.3612  0.0235
 2847TIP3   OH2 8504   1.539   5.489   0.030 -0.0681  0.5983 -0.5051
 2847TIP3    H1 8505   1.564   5.521   0.117 -0.3014 -0.3901 -0.0475
 2847TIP3    H2 8506   1.617   5.444  -0.003  0.1186  1.2349 -0.9495
 2848TIP3   OH2 8507   6.243   0.840   0.910 -0.4314 -0.2186  0.3071
 2848TIP3    H1 8508   6.250   0.830   0.815  0.1193 -0.4600  0.3676
 2848TIP3    H2 8509   6.150   0.856   0.926 -0.5669 -0.4279 -0.2498
 2849TIP3   OH2 8510   0.275   4.614   5.321  0.3568 -0.5425 -0.2462
 2849TIP3    H1 8511   0.207   4.573   5.375  0.0558 -0.6237 -0.6830
 2849TIP3    H2 8512   0.237   4.618   5.233  0.7332 -0.1494 -0.3950
 2850TIP3   OH2 8513   5.010   0.410   5.487  0.2262  0.5214  0.8007
 2850TIP3    H1 8514   5.084   0.367   5.444  0.3503  1.4893 -0.0087
 2850TIP3    H2 8515   4.946   0.340   5.502  0.4710  0.0312 -0.3490
 2851TIP3   OH2 8516   1.214   1.144   2.564  0.2221 -0.3307 -0.0137
 2851TIP3    H1 8517   1.214   1.054   2.534  0.0764 -0.2019 -0.4080
 2851TIP3    H2 8518   1.231   1.138   2.658  0.3716 -0.7552 -0.0659
 2852TIP3   OH2 8519   0.785   6.403   2.728 -0.0372  0.1879  0.4437
 2852TIP3    H1 8520   0.840   6.473   2.765  0.2270  0.2694 -0.0742
 2852TIP3    H2 8521   0.806   6.326   2.779 -0.9146  0.6548  1.5378
 2853TIP3   OH2 8522   6.220   3.350   3.681 -0.2472 -0.2474  0.0635
 2853TIP3    H1 8523   6.210   3.441   3.711  0.5981 -0.1138 -0.0557
 2853TIP3    H2 8524   6.314   3.336   3.677 -0.3712 -1.1150  0.0105
 2854TIP3   OH2 8525   3.044   2.980   1.018  0.1112  0.4567  0.0445
 2854TIP3    H1 8526   3.042   2.899   0.966  1.7252 -1.5891  2.8405
 2854TIP3    H2 8527   3.089   3.043   0.963  1.4131 -1.4464 -1.1934
 2855TIP3   OH2 8528   2.730   4.575   4.657 -0.6052 -0.5105  0.1393
 2855TIP3    H1 8529   2.721   4.562   4.751 -1.5335 -0.4180  0.0633
 2855TIP3    H2 8530   2.780   4.656   4.648  1.8456 -1.8778  0.5718
 2856TIP3   OH2 8531   4.465   5.391   0.794 -0.5364 -0.0185 -0.2406
 2856TIP3    H1 8532   4.423   5.306   0.809 -1.0995  0.2814 -0.1376
 2856TIP3    H2 8533   4.426   5.449   0.858 -0.8516  0.5617 -0.9551
 2857TIP3   OH2 8534   1.960   4.828   3.151  0.0083 -0.0443 -0.1641
 2857TIP3    H1 8535   1.896   4.880   3.103  0.2961 -1.7118 -2.5246
 2857TIP3    H2 8536   2.003   4.890   3.210 -2.2838  1.5268 -0.0528
 2858TIP3   OH2 8537   3.957   4.751   0.333  0.1557  0.3664 -0.5331
 2858TIP3    H1 8538   3.889   4.761   0.266  1.2882 -0.4156 -1.8731
 2858TIP3    H2 8539   4.030   4.710   0.286 -0.2044 -3.6151  1.9170
 2859TIP3   OH2 8540   2.627   3.881   5.668 -0.5299 -0.0098  0.2842
 2859TIP3    H1 8541   2.691   3.928   5.614 -1.1666 -0.1861 -0.6574
 2859TIP3    H2 8542   2.679   3.815   5.714 -0.1230 -0.7419 -1.1474
 2860TIP3   OH2 8543   0.959   4.024   5.851 -0.3143  0.4293 -0.0362
 2860TIP3    H1 8544   0.926   3.976   5.775 -1.0085 -3.7004  2.5290
 2860TIP3    H2 8545   0.881   4.045   5.902  0.2470  1.8326  0.2915
 2861TIP3   OH2 8546   3.474   1.982   0.985 -0.3834  0.5604  0.1510
 2861TIP3    H1 8547   3.489   2.003   0.892 -1.6590  0.6090 -0.0567
 2861TIP3    H2 8548   3.525   1.903   1.000 -2.0449 -0.8583 -1.2568
 2862TIP3   OH2 8549   2.865   3.990   2.885  0.1290 -0.1622  0.4787
 2862TIP3    H1 8550   2.782   3.996   2.932 -0.3651 -0.6595 -0.3180
 2862TIP3    H2 8551   2.891   3.898   2.893  1.7377  0.3861  2.5869
 2863TIP3   OH2 8552   4.675   2.764   2.184  0.0107 -0.3632 -0.2739
 2863TIP3    H1 8553   4.644   2.837   2.238  0.4784 -0.1376 -0.2979
 2863TIP3    H2 8554   4.690   2.803   2.098  0.4148 -0.4466 -0.2443
 2864TIP3   OH2 8555   2.663   5.249   3.994 -0.5793 -0.8053 -0.2498
 2864TIP3    H1 8556   2.656   5.188   3.919 -1.5661 -0.3470 -0.5440
 2864TIP3    H2 8557   2.617   5.328   3.965  1.8971  0.6550 -0.4123
 2865TIP3   OH2 8558   1.320   6.293   5.525  0.0055 -0.1840 -0.0945
 2865TIP3    H1 8559   1.325   6.383   5.495  0.0273 -0.2690 -0.3514
 2865TIP3    H2 8560   1.380   6.288   5.599  0.6522 -0.1943 -0.6086
 2866TIP3   OH2 8561   6.823   6.123   1.399 -0.0104  0.6079  0.4207
 2866TIP3    H1 8562   6.890   6.184   1.431 -1.1265  1.8389  0.5388
 2866TIP3    H2 8563   6.860   6.036   1.413  2.3954  1.2471 -1.4132
 2867TIP3   OH2 8564   1.714   2.540   3.588  0.1660  0.0941  0.0067
 2867TIP3    H1 8565   1.624   2.520   3.564  0.2124 -0.1066  0.0045
 2867TIP3    H2 8566   1.762   2.541   3.505  0.0407  0.8448 -0.0658
 2868TIP3   OH2 8567   0.527   4.522   5.727  0.4800 -0.3657  0.6811
 2868TIP3    H1 8568   0.442   4.565   5.713 -0.3113 -1.4102  2.0273
 2868TIP3    H2 8569   0.510   4.429   5.714  1.4033 -0.5987  1.0567
 2869TIP3   OH2 8570   6.449   2.244   3.078 -0.0099 -0.1647 -0.5939
 2869TIP3    H1 8571   6.463   2.313   3.143 -0.4350 -0.6934  0.0737
 2869TIP3    H2 8572   6.506   2.268   3.005  0.8173  0.2051  0.1523
 2870TIP3   OH2 8573   6.218   4.421   4.189  0.3754 -0.1712 -0.4227
 2870TIP3    H1 8574   6.206   4.465   4.105 -0.5522 -1.0085 -0.7497
 2870TIP3    H2 8575   6.159   4.346   4.185  1.4428 -1.0874  0.3726
 2871TIP3   OH2 8576   3.504   4.918   4.959  0.2434  0.2115 -0.0558
 2871TIP3    H1 8577   3.520   4.859   5.032  0.7097 -0.5320 -0.7459
 2871TIP3    H2 8578   3.495   4.861   4.883  0.0170  0.9855 -0.6269
 2872TIP3   OH2 8579   5.997   4.381   3.934 -0.0362  0.4130 -0.6813
 2872TIP3    H1 8580   6.017   4.375   3.841 -1.4180  1.3576 -1.0702
 2872TIP3    H2 8581   5.925   4.319   3.948  0.2122  0.2207 -0.2311
 2873TIP3   OH2 8582   5.642   0.085   2.264 -0.1828 -0.5575 -0.2095
 2873TIP3    H1 8583   5.732   0.085   2.297  0.7010  0.5025 -2.3709
 2873TIP3    H2 8584   5.602   0.163   2.301  0.0171 -0.6596  0.2210
 2874TIP3   OH2 8585   3.776   3.415   1.243  0.0488 -0.1401 -1.3950
 2874TIP3    H1 8586   3.835   3.490   1.237 -1.2131  0.8677 -1.4283
 2874TIP3    H2 8587   3.835   3.339   1.244  1.4700  0.8948  0.4365
 2875TIP3   OH2 8588   1.939   2.676   4.421  0.0348  0.5784  0.0103
 2875TIP3    H1 8589   1.904   2.693   4.334  0.8809  0.6220 -0.3292
 2875TIP3    H2 8590   1.981   2.590   4.414  0.2096  0.6321  0.3434
 2876TIP3   OH2 8591   0.213   0.968   5.580  0.4609 -0.2840  0.6928
 2876TIP3    H1 8592   0.176   0.882   5.561  0.4489 -0.4178  1.2875
 2876TIP3    H2 8593   0.178   0.990   5.667 -0.5981  0.9220 -0.0222
 2877TIP3   OH2 8594   6.930   6.557   2.244  0.6353 -0.2239  0.6763
 2877TIP3    H1 8595   6.957   6.465   2.244  1.5818  0.0426 -0.4197
 2877TIP3    H2 8596   6.837   6.554   2.269 -0.1193 -1.7412 -1.9339
 2878TIP3   OH2 8597   0.542   6.058   4.845 -0.3118  0.1260  0.1118
 2878TIP3    H1 8598   0.452   6.046   4.814 -0.8725  2.4986  0.5722
 2878TIP3    H2 8599   0.535   6.049   4.940  0.1268 -0.6035  0.0769
 2879TIP3   OH2 8600   6.715   0.179   2.223 -0.3176  0.1273  0.1088
 2879TIP3    H1 8601   6.636   0.192   2.275 -0.2180 -0.3649  0.3912
 2879TIP3    H2 8602   6.774   0.129   2.280 -0.9413 -2.1969 -1.1439
 2880TIP3   OH2 8603  -0.011   6.280   4.183  0.0569  0.2300  0.1832
 2880TIP3    H1 8604  -0.037   6.263   4.273  0.0560  0.1179  0.1622
 2880TIP3    H2 8605   0.073   6.236   4.173  0.2768  0.6287  0.2632
 2881TIP3   OH2 8606   6.793   0.041   0.261  0.1439  1.0090  0.2613
 2881TIP3    H1 8607   6.719   0.051   0.201 -1.6554 -0.4206  2.0904
 2881TIP3    H2 8608   6.760   0.074   0.345  2.1285  1.7654  0.7907
 2882TIP3   OH2 8609   6.111   1.786   3.571 -0.6017  0.1228  0.2913
 2882TIP3    H1 8610   6.055   1.857   3.540 -1.1966 -0.0764  0.8964
 2882TIP3    H2 8611   6.117   1.799   3.666  0.9495  0.5503  0.1668
 2883TIP3   OH2 8612   3.897   2.778   3.705  0.4360 -0.0725  0.2331
 2883TIP3    H1 8613   3.863   2.852   3.754  0.1268 -0.4255  0.5578
 2883TIP3    H2 8614   3.944   2.817   3.632  0.8517  0.4546  0.7765
 2884TIP3   OH2 8615   0.349   3.386   1.631 -0.7102  0.0986  0.5759
 2884TIP3    H1 8616   0.434   3.381   1.675 -0.8019 -1.1388  0.6492
 2884TIP3    H2 8617   0.287   3.355   1.696 -0.8096 -2.1039 -0.4713
 2885TIP3   OH2 8618   1.157   5.983   3.116 -0.4650 -0.0157  0.8800
 2885TIP3    H1 8619   1.072   5.945   3.095  0.0808 -0.6048 -0.3119
 2885TIP3    H2 8620   1.197   5.919   3.175 -1.1029  0.5951  2.0217
 2886TIP3   OH2 8621   0.246   0.463   5.340  0.5588 -0.2153 -0.0061
 2886TIP3    H1 8622   0.246   0.557   5.321  1.9973 -0.0344  0.7909
 2886TIP3    H2 8623   0.166   0.449   5.390  1.3957  1.0194  1.7759
 2887TIP3   OH2 8624   2.922   3.709   1.113 -0.0355  0.0095  0.1332
 2887TIP3    H1 8625   2.984   3.644   1.079  0.5134  0.6391 -0.1019
 2887TIP3    H2 8626   2.877   3.742   1.035  0.0563  0.2700  0.1868
 2888TIP3   OH2 8627   3.038   2.702   0.126  0.0938 -0.2825 -0.0206
 2888TIP3    H1 8628   2.975   2.669   0.062 -0.4197  0.3067  0.1631
 2888TIP3    H2 8629   3.080   2.623   0.161 -0.1001 -0.6472 -0.5907
 2889TIP3   OH2 8630   0.834   3.721   1.971  0.1513  0.0188 -0.1850
 2889TIP3    H1 8631   0.869   3.784   1.907  0.0664  1.4284  1.0869
 2889TIP3    H2 8632   0.741   3.715   1.948  0.2656 -0.0643 -0.6454
 2890TIP3   OH2 8633   2.330   1.367   0.823  0.4953  0.1573 -0.3184
 2890TIP3    H1 8634   2.399   1.322   0.774  1.0148  0.7207 -0.1204
 2890TIP3    H2 8635   2.255   1.368   0.763  0.9034  0.2157 -0.8366
 2891TIP3   OH2 8636   4.121   1.223   1.980 -0.1165 -0.2715 -0.1249
 2891TIP3    H1 8637   4.045   1.206   1.924 -0.2711 -0.9603  0.2856
 2891TIP3    H2 8638   4.116   1.316   2.000  0.1064  0.0496 -1.4985
 2892TIP3   OH2 8639   2.262   3.817   3.499 -0.2606  0.2841 -0.3130
 2892TIP3    H1 8640   2.180   3.783   3.464 -2.6086  3.5527  1.4194
 2892TIP3    H2 8641   2.308   3.853   3.423 -0.7131 -0.9655 -1.2065
 2893TIP3   OH2 8642   1.739   4.328   1.750  0.0841 -0.3790 -0.2556
 2893TIP3    H1 8643   1.824   4.303   1.713  1.0625  0.5948  1.1765
 2893TIP3    H2 8644   1.696   4.245   1.770  2.1679 -1.0631  2.0686
 2894TIP3   OH2 8645   6.737   1.049   1.834 -0.1573  0.2223  0.0056
 2894TIP3    H1 8646   6.651   1.083   1.857 -0.1142 -0.1173  0.6705
 2894TIP3    H2 8647   6.763   0.995   1.908  1.1866  1.3514  0.4148
 2895TIP3   OH2 8648   5.243   2.553   4.762  0.1168  0.3069  0.1014
 2895TIP3    H1 8649   5.150   2.546   4.782  0.0411  0.3892 -0.2163
 2895TIP3    H2 8650   5.283   2.581   4.844 -0.3424  1.8041 -0.1406
 2896TIP3   OH2 8651   0.146   2.485   2.376  0.0172  0.3128 -0.3062
 2896TIP3    H1 8652   0.157   2.459   2.467 -0.8778  1.7886  0.2411
 2896TIP3    H2 8653   0.230   2.525   2.352  0.2939 -0.1834 -0.1779
 2897TIP3   OH2 8654   5.792   3.040   1.861  0.7036  0.6110 -0.5819
 2897TIP3    H1 8655   5.840   2.957   1.862  1.6839  1.1171 -2.1019
 2897TIP3    H2 8656   5.811   3.078   1.775  3.7452  4.3903  1.4263
 2898TIP3   OH2 8657   1.002   1.642   2.867 -0.2081 -0.2091 -0.0525
 2898TIP3    H1 8658   0.965   1.730   2.864  1.2970  0.4157 -1.3152
 2898TIP3    H2 8659   1.048   1.638   2.951 -1.2208 -0.2130  0.5192
 2899TIP3   OH2 8660   1.210   5.004   1.965 -0.1051 -0.0759  0.1196
 2899TIP3    H1 8661   1.276   4.937   1.948 -2.3205 -2.6176  0.6402
 2899TIP3    H2 8662   1.134   4.976   1.914 -0.8024  2.8142 -0.6276
 2900TIP3   OH2 8663   2.166   1.987   5.600 -0.1734  0.5910  0.5720
 2900TIP3    H1 8664   2.223   1.913   5.576 -0.6174  0.3729  0.1785
 2900TIP3    H2 8665   2.151   1.976   5.694  1.3424  1.2839  0.9209
 2901TIP3   OH2 8666   1.865   6.497   5.265  0.9446 -0.3548  0.7741
 2901TIP3    H1 8667   1.868   6.434   5.193 -0.2720  0.5124 -0.0833
 2901TIP3    H2 8668   1.872   6.444   5.344  2.5609 -1.3222  0.0437
 2902TIP3   OH2 8669   0.537   1.923   0.622  0.2306 -0.7135 -0.3375
 2902TIP3    H1 8670   0.520   1.829   0.613  0.7038 -0.6511 -2.1617
 2902TIP3    H2 8671   0.594   1.944   0.549  0.8555  0.8411  0.5602
 2903TIP3   OH2 8672   3.388   3.647   4.721 -0.0317  0.3723 -0.5375
 2903TIP3    H1 8673   3.330   3.589   4.769  0.6266 -0.6647 -0.9628
 2903TIP3    H2 8674   3.416   3.597   4.645  0.1350  1.4438 -1.2120
 2904TIP3   OH2 8675   4.780   6.429   2.884 -0.5518 -0.6898  0.2052
 2904TIP3    H1 8676   4.731   6.350   2.908 -1.7772  0.3393  1.1986
 2904TIP3    H2 8677   4.723   6.501   2.909 -0.0665  0.5316 -1.9871
 2905TIP3   OH2 8678   6.631   3.494   4.419  1.4149 -0.6886 -0.0386
 2905TIP3    H1 8679   6.623   3.405   4.383 -0.9789 -1.5957  2.3432
 2905TIP3    H2 8680   6.607   3.552   4.347 -3.2897 -2.3997 -0.2041
 2906TIP3   OH2 8681   6.367   2.201   0.814 -0.1612 -0.1847 -0.4592
 2906TIP3    H1 8682   6.355   2.295   0.828 -1.3046 -0.2755 -0.6831
 2906TIP3    H2 8683   6.279   2.169   0.790  0.4238 -1.1212 -1.4594
 2907TIP3   OH2 8684   4.790   5.960   3.567  0.1341 -0.2831 -0.4746
 2907TIP3    H1 8685   4.794   5.907   3.646 -0.5793  2.1390  1.3234
 2907TIP3    H2 8686   4.699   5.991   3.563  0.9959  2.6120 -0.0386
 2908TIP3   OH2 8687   7.213   0.128   2.072  0.3601  0.1855 -0.3519
 2908TIP3    H1 8688   7.180   0.216   2.092  1.8681  0.9829 -1.2145
 2908TIP3    H2 8689   7.190   0.076   2.149 -1.4365  1.0690 -0.2279
 2909TIP3   OH2 8690   5.893   3.093   3.122 -0.6058 -0.2349 -0.2775
 2909TIP3    H1 8691   5.933   3.180   3.113 -0.8706 -0.3061 -4.5092
 2909TIP3    H2 8692   5.802   3.111   3.147 -0.6922  0.7781 -1.2177
 2910TIP3   OH2 8693   5.860   1.694   3.819 -0.1315 -0.2029 -0.1412
 2910TIP3    H1 8694   5.809   1.745   3.882  1.8122 -0.0311  1.3836
 2910TIP3    H2 8695   5.924   1.646   3.872  1.0438 -0.7151 -1.9169
 2911TIP3   OH2 8696   2.255   4.012   5.084  0.2364  0.3119 -0.1743
 2911TIP3    H1 8697   2.348   4.030   5.067 -0.1681  3.6965  0.5400
 2911TIP3    H2 8698   2.220   3.986   4.999  1.9747 -2.2605 -0.2266
 2912TIP3   OH2 8699   3.246   5.306   5.429 -0.0341  0.0410  0.4941
 2912TIP3    H1 8700   3.268   5.386   5.382  0.1654  0.9076  2.0062
 2912TIP3    H2 8701   3.188   5.334   5.500  1.0048 -0.9313  1.7916
 2913TIP3   OH2 8702   6.309   0.592   1.024  0.1745  0.2728 -0.3959
 2913TIP3    H1 8703   6.305   0.685   1.001 -0.0069 -0.0397 -1.7523
 2913TIP3    H2 8704   6.396   0.563   0.996  0.7144  0.2943  1.1787
 2914TIP3   OH2 8705   1.743   0.286   0.158 -0.1541  0.6741 -0.0537
 2914TIP3    H1 8706   1.706   0.262   0.073  0.0875  1.8091 -0.5035
 2914TIP3    H2 8707   1.784   0.206   0.190 -1.4061 -0.1158 -0.3851
 2915TIP3   OH2 8708   1.925   3.022   3.016 -0.0346 -0.3368 -0.8209
 2915TIP3    H1 8709   1.879   3.059   2.940 -1.6362  0.1547  0.3500
 2915TIP3    H2 8710   1.862   2.960   3.053  1.3695 -1.8287 -0.8266
 2916TIP3   OH2 8711   4.840   4.952   1.977 -0.0593  0.2525 -0.3302
 2916TIP3    H1 8712   4.748   4.928   1.987  0.1082  0.3121  1.8583
 2916TIP3    H2 8713   4.847   5.037   2.020  1.1885 -0.2090  0.4275
 2917TIP3   OH2 8714   4.258   6.723   4.378 -1.3436  0.0439  0.2042
 2917TIP3    H1 8715   4.276   6.707   4.285 -0.4693 -0.7074  0.4854
 2917TIP3    H2 8716   4.169   6.690   4.391 -2.3152  2.0934 -0.8026
 2918TIP3   OH2 8717   6.565   2.272   4.991 -0.2315 -0.4008 -0.0642
 2918TIP3    H1 8718   6.544   2.316   4.909 -0.0006 -0.2713 -0.0550
 2918TIP3    H2 8719   6.652   2.304   5.014  0.0913 -1.1270 -0.2372
 2919TIP3   OH2 8720   4.945   3.607   3.670 -0.5764 -0.3899  0.3634
 2919TIP3    H1 8721   4.937   3.535   3.608  1.2328 -0.1004 -0.2529
 2919TIP3    H2 8722   4.972   3.566   3.752  1.0381 -0.3859 -0.1424
 2920TIP3   OH2 8723   6.247   4.085   5.120  0.3501  0.0182  0.0015
 2920TIP3    H1 8724   6.284   4.099   5.207  0.3474  2.5996 -0.3442
 2920TIP3    H2 8725   6.175   4.147   5.114  0.9176  0.5486 -2.1630
 2921TIP3   OH2 8726   3.126   5.879   5.564 -0.3611 -0.6203  0.3678
 2921TIP3    H1 8727   3.080   5.896   5.646  0.2711  1.5695  0.3506
 2921TIP3    H2 8728   3.065   5.907   5.496  0.5410  1.4351  0.3130
 2922TIP3   OH2 8729   5.445   6.548   3.156  0.0699  0.8946  0.1787
 2922TIP3    H1 8730   5.362   6.549   3.204  0.9127 -0.9516  1.8234
 2922TIP3    H2 8731   5.432   6.484   3.086  1.0979 -2.4372  2.7168
 2923TIP3   OH2 8732   3.572   0.944   5.043 -0.4620 -0.1037 -0.2057
 2923TIP3    H1 8733   3.600   1.017   4.988 -0.9661  0.3460  0.1278
 2923TIP3    H2 8734   3.651   0.891   5.054 -0.2035  0.1378 -0.8343
 2924TIP3   OH2 8735   3.862   1.367   1.612 -0.1271  0.2273  0.1229
 2924TIP3    H1 8736   3.944   1.414   1.599 -1.0936  1.6939 -1.1310
 2924TIP3    H2 8737   3.850   1.317   1.531 -1.2638  1.3905 -0.4711
 2925TIP3   OH2 8738   2.982   0.615   1.918  0.7330  0.0006 -0.2421
 2925TIP3    H1 8739   2.920   0.684   1.938  0.6307 -0.2862  0.4847
 2925TIP3    H2 8740   3.060   0.637   1.969  0.4385 -0.7944  0.5973
 2926TIP3   OH2 8741   0.259   0.607   0.277 -0.2858 -0.1090  0.0747
 2926TIP3    H1 8742   0.257   0.622   0.182 -2.0128  2.7930  0.4219
 2926TIP3    H2 8743   0.351   0.616   0.301  0.1584 -0.7483 -1.2891
 2927TIP3   OH2 8744   1.149   2.048   0.168  0.4395 -0.3207  1.0349
 2927TIP3    H1 8745   1.169   1.975   0.109 -1.0720  0.6270 -0.7492
 2927TIP3    H2 8746   1.147   2.124   0.111  2.0851  1.2038  2.8671
 2928TIP3   OH2 8747   5.634   2.706   2.187 -0.1617  0.0673 -0.2733
 2928TIP3    H1 8748   5.561   2.747   2.142 -0.5207 -0.8602 -0.5636
 2928TIP3    H2 8749   5.598   2.679   2.272  0.6358  2.2536  0.8357
 2929TIP3   OH2 8750   0.333   1.682   0.099  0.1943 -0.5702  0.4865
 2929TIP3    H1 8751   0.350   1.737   0.175 -0.0024 -2.7932  2.2581
 2929TIP3    H2 8752   0.251   1.714   0.063 -0.5436 -0.4380  2.2075
 2930TIP3   OH2 8753   0.731   0.941   4.746  0.1206  0.1635  0.5957
 2930TIP3    H1 8754   0.763   0.901   4.827 -0.2994 -3.8718 -0.9746
 2930TIP3    H2 8755   0.794   0.914   4.679 -0.6847  1.5566 -0.7839
 2931TIP3   OH2 8756   2.686   0.010   5.087  0.1359 -0.2923 -0.3373
 2931TIP3    H1 8757   2.774   0.032   5.058  0.1326  1.4784  0.8642
 2931TIP3    H2 8758   2.630   0.030   5.012  0.6431 -0.5049 -0.7764
 2932TIP3   OH2 8759   3.998   1.738   3.133 -0.8373  0.6805 -0.3434
 2932TIP3    H1 8760   3.964   1.803   3.072 -0.9752 -0.6870 -1.7789
 2932TIP3    H2 8761   4.092   1.757   3.138 -0.5691  0.0066 -2.0727
 2933TIP3   OH2 8762   4.807   2.087   4.207 -0.6685  0.0550 -0.5201
 2933TIP3    H1 8763   4.895   2.050   4.209 -0.8699 -0.4991 -1.2827
 2933TIP3    H2 8764   4.796   2.127   4.293  0.0709 -0.4737 -0.1618
 2934TIP3   OH2 8765   4.823   1.492   3.158  0.0952 -0.1800  0.0765
 2934TIP3    H1 8766   4.896   1.548   3.187  0.2943 -0.2120 -0.3620
 2934TIP3    H2 8767   4.802   1.439   3.235  0.8989 -0.5548  0.0465
 2935TIP3   OH2 8768   7.009   3.170   5.278  0.2252 -0.0806  0.4404
 2935TIP3    H1 8769   6.920   3.195   5.303  0.8514  0.0985  2.8020
 2935TIP3    H2 8770   7.018   3.199   5.188 -2.1949 -0.3970  0.0354
 2936TIP3   OH2 8771   0.541   5.455   0.220 -0.2208  0.3352 -0.2209
 2936TIP3    H1 8772   0.489   5.384   0.181  0.8149 -1.0608  0.8510
 2936TIP3    H2 8773   0.614   5.411   0.263 -0.8893  1.8060  2.6876
 2937TIP3   OH2 8774   4.080   5.059   2.878 -0.2638  0.0146  0.7273
 2937TIP3    H1 8775   4.144   5.007   2.928  0.8984  0.7201  0.0004
 2937TIP3    H2 8776   4.126   5.140   2.857 -1.2001  0.2880 -0.3298
 2938TIP3   OH2 8777   0.092   2.230   5.104 -0.6141  0.2391  0.0703
 2938TIP3    H1 8778   0.187   2.243   5.112 -0.4010 -0.3936 -1.1086
 2938TIP3    H2 8779   0.075   2.150   5.153 -0.3530 -0.2216 -0.5728
 2939TIP3   OH2 8780   6.925   2.615   1.052 -0.8518  0.4241 -0.0455
 2939TIP3    H1 8781   6.928   2.708   1.034 -0.2364  0.3557 -0.3073
 2939TIP3    H2 8782   7.001   2.598   1.107 -0.3815 -0.0945 -0.8330
 2940TIP3   OH2 8783   5.520   4.188   4.994 -0.6080  0.0931  0.2811
 2940TIP3    H1 8784   5.478   4.195   4.908  0.3616 -1.0146 -0.3202
 2940TIP3    H2 8785   5.453   4.149   5.050 -0.9902  0.0922 -0.1648
 2941TIP3   OH2 8786   4.696   1.597   2.113 -0.2556 -0.4027  0.2684
 2941TIP3    H1 8787   4.634   1.552   2.171  0.3929 -1.2041  0.3705
 2941TIP3    H2 8788   4.708   1.536   2.040 -0.5246  0.2914 -0.3634
 2942TIP3   OH2 8789   4.054   5.525   2.808  1.0516 -0.0101 -0.0080
 2942TIP3    H1 8790   4.032   5.495   2.720  0.5897 -1.3785  0.5462
 2942TIP3    H2 8791   3.972   5.517   2.858  1.9845 -2.2869  1.3211
 2943TIP3   OH2 8792   4.352   0.225   5.376  0.0883 -0.1953 -0.1343
 2943TIP3    H1 8793   4.427   0.282   5.356  1.1796 -1.4814  0.2137
 2943TIP3    H2 8794   4.390   0.139   5.393 -1.4084 -0.7222  0.7656
 2944TIP3   OH2 8795   6.677   4.388   0.492 -0.1358  0.0602  0.7179
 2944TIP3    H1 8796   6.651   4.468   0.446  2.4785  1.2838  1.1675
 2944TIP3    H2 8797   6.621   4.386   0.569  1.5489  3.2114  2.2763
 2945TIP3   OH2 8798   0.657   5.697   0.154  0.3173 -0.8347 -0.1236
 2945TIP3    H1 8799   0.622   5.616   0.190  0.3169 -1.0837 -0.6782
 2945TIP3    H2 8800   0.737   5.671   0.110  0.7013 -0.4179  0.3073
 2946TIP3   OH2 8801   6.033   6.073   1.161  0.0127 -0.1857 -0.2946
 2946TIP3    H1 8802   6.007   6.103   1.074 -1.8019 -0.6836  0.0337
 2946TIP3    H2 8803   6.105   6.131   1.186 -0.6227  1.1334 -1.4018
 2947TIP3   OH2 8804   2.290   5.258   5.152 -0.1061  0.4125 -0.3974
 2947TIP3    H1 8805   2.315   5.210   5.230 -2.7343 -0.5229 -0.0336
 2947TIP3    H2 8806   2.208   5.302   5.175  0.4432  2.3622 -1.7994
 2948TIP3   OH2 8807   4.614   4.906   2.632  0.6292  0.4044  0.3071
 2948TIP3    H1 8808   4.585   4.817   2.648  0.8494  0.3930  0.6639
 2948TIP3    H2 8809   4.609   4.917   2.537 -1.6347  0.7818  0.4084
 2949TIP3   OH2 8810   0.508   6.294   0.696  0.1263  0.2580  0.2960
 2949TIP3    H1 8811   0.528   6.367   0.637 -1.1492  0.0257 -0.4596
 2949TIP3    H2 8812   0.539   6.216   0.650 -2.7141 -0.1618 -1.1150
 2950TIP3   OH2 8813   4.054   0.336   5.775 -0.4478 -0.0790 -0.3464
 2950TIP3    H1 8814   4.000   0.336   5.696 -1.2788 -1.5831  0.1765
 2950TIP3    H2 8815   4.060   0.428   5.800 -1.6103  0.2538 -1.2007
 2951TIP3   OH2 8816   5.329   2.676   4.532 -0.3342 -0.3368 -0.0076
 2951TIP3    H1 8817   5.254   2.726   4.501 -0.1354  0.0728  0.1555
 2951TIP3    H2 8818   5.294   2.621   4.602 -0.7204 -1.0409 -0.7357
 2952TIP3   OH2 8819   6.465   3.981   4.965  0.0423  0.5335 -0.2693
 2952TIP3    H1 8820   6.394   3.998   5.026  0.4827  0.9736  0.1375
 2952TIP3    H2 8821   6.517   3.912   5.006  1.0179  1.6676  0.4512
 2953TIP3   OH2 8822   1.385   3.775   3.458 -0.1160  0.3165 -0.0688
 2953TIP3    H1 8823   1.363   3.691   3.498  1.9028 -0.5229 -0.5800
 2953TIP3    H2 8824   1.393   3.755   3.364  2.9777  0.3602  0.0657
 2954TIP3   OH2 8825   2.327   4.819   3.405 -0.5054  0.4697  0.1176
 2954TIP3    H1 8826   2.301   4.727   3.404 -0.6035  0.4288  2.1253
 2954TIP3    H2 8827   2.410   4.820   3.453  0.9513  1.1599 -2.2230
 2955TIP3   OH2 8828   0.911   6.749   1.910  0.4144  0.0477  0.1099
 2955TIP3    H1 8829   0.976   6.805   1.952  1.5468 -1.0696 -0.0805
 2955TIP3    H2 8830   0.961   6.697   1.847 -0.5217 -1.4345  0.5340
 2956TIP3   OH2 8831   2.222   2.286   4.237  0.0996  0.0972 -0.4182
 2956TIP3    H1 8832   2.173   2.241   4.168 -1.8381 -1.1672  1.6332
 2956TIP3    H2 8833   2.301   2.233   4.249 -1.2640 -1.8323  0.6775
 2957TIP3   OH2 8834   3.901   1.684   1.230  0.0787  0.0866 -0.1540
 2957TIP3    H1 8835   3.815   1.649   1.253  0.7672 -1.6216 -0.0145
 2957TIP3    H2 8836   3.905   1.677   1.135  0.2876 -0.4472 -0.1123
 2958TIP3   OH2 8837   2.572   5.736   1.871  0.3606  0.6378  0.0111
 2958TIP3    H1 8838   2.546   5.653   1.912 -0.0454  0.7169 -0.0801
 2958TIP3    H2 8839   2.666   5.727   1.856  0.4100  0.3819  0.4407
 2959TIP3   OH2 8840   2.484   5.467   4.009  0.3025  0.2773 -0.4159
 2959TIP3    H1 8841   2.469   5.531   4.078  0.0186  0.6191 -0.7879
 2959TIP3    H2 8842   2.401   5.418   4.003 -0.0896  1.0127 -1.2888
 2960TIP3   OH2 8843   2.167   0.591   0.713 -0.2258 -0.3506  0.0975
 2960TIP3    H1 8844   2.111   0.634   0.648 -1.5859 -0.6556  1.0330
 2960TIP3    H2 8845   2.134   0.501   0.718  0.3343 -0.5359  0.6885
 2961TIP3   OH2 8846   5.783   1.539   3.394 -0.0103 -0.3884  0.2940
 2961TIP3    H1 8847   5.839   1.570   3.323 -1.1557  2.5531  0.5541
 2961TIP3    H2 8848   5.845   1.502   3.458  1.4911  1.0682 -0.2361
 2962TIP3   OH2 8849   5.492   3.067   2.212  0.0165  0.4006  0.2210
 2962TIP3    H1 8850   5.450   2.997   2.163 -0.6091  1.1122 -0.2806
 2962TIP3    H2 8851   5.543   3.114   2.147 -1.3359  1.7505  0.0951
 2963TIP3   OH2 8852   1.307   6.062   3.795 -0.2872  0.5256 -0.2198
 2963TIP3    H1 8853   1.372   6.122   3.760 -0.4045  0.6174 -0.2819
 2963TIP3    H2 8854   1.229   6.116   3.808 -0.1908  0.5337  0.3529
 2964TIP3   OH2 8855   0.401   4.854   5.062 -0.2259 -0.1449 -0.1163
 2964TIP3    H1 8856   0.319   4.805   5.059 -0.7020  0.6796 -1.4336
 2964TIP3    H2 8857   0.380   4.939   5.022  1.3942 -0.1083 -0.9814
 2965TIP3   OH2 8858   3.077   5.644   1.012 -0.1140 -0.2132  0.6807
 2965TIP3    H1 8859   3.026   5.725   1.012  1.1161  0.6387 -1.5512
 2965TIP3    H2 8860   3.059   5.605   0.927  0.3183 -1.6713  1.2325
 2966TIP3   OH2 8861   2.507   0.361   1.765  0.2514  0.7338  0.0890
 2966TIP3    H1 8862   2.570   0.353   1.694 -0.2962  0.4782 -0.3723
 2966TIP3    H2 8863   2.503   0.274   1.805 -1.4822  0.0908 -1.3345
 2967TIP3   OH2 8864   6.574   0.563   0.637  0.8361 -0.0599 -0.4822
 2967TIP3    H1 8865   6.618   0.645   0.660 -1.0516  0.7213  0.5999
 2967TIP3    H2 8866   6.645   0.500   0.625  2.2363  1.0178  1.5974
 2968TIP3   OH2 8867   3.167   4.737   3.568  0.1488  0.3115  0.0727
 2968TIP3    H1 8868   3.108   4.792   3.516  1.5016  1.3072 -0.4633
 2968TIP3    H2 8869   3.216   4.798   3.622  0.8442 -0.4735  0.3503
 2969TIP3   OH2 8870   3.560   6.513   2.719  0.1147 -0.1626  0.0376
 2969TIP3    H1 8871   3.518   6.529   2.803  0.8519 -0.9390  0.5614
 2969TIP3    H2 8872   3.526   6.582   2.662 -1.8740 -0.7365  0.4346
 2970TIP3   OH2 8873   1.539   6.013   2.294 -0.6983  0.1293 -0.3409
 2970TIP3    H1 8874   1.618   6.063   2.276 -0.4298 -0.7835 -1.7900
 2970TIP3    H2 8875   1.468   6.067   2.258 -0.5212 -0.0314 -0.9306
 2971TIP3   OH2 8876   6.702   5.282   4.061 -0.0620  0.1253 -0.0227
 2971TIP3    H1 8877   6.767   5.302   4.129  0.1241  1.5869 -0.6013
 2971TIP3    H2 8878   6.691   5.364   4.013 -0.0116 -0.9297 -1.9349
 2972TIP3   OH2 8879   2.243   3.556   5.732  0.1299  0.2161  0.1480
 2972TIP3    H1 8880   2.235   3.470   5.691 -0.6744  0.3542 -0.0040
 2972TIP3    H2 8881   2.229   3.539   5.826  0.9299  0.0518  0.2453
 2973TIP3   OH2 8882   0.759   5.553   1.076  0.1196 -0.3066 -0.1035
 2973TIP3    H1 8883   0.744   5.485   1.141 -1.3935 -0.5142 -0.6468
 2973TIP3    H2 8884   0.791   5.506   0.999 -2.5611 -0.7099 -1.0798
 2974TIP3   OH2 8885   0.159   4.049   2.422  0.1679 -0.5116 -0.1897
 2974TIP3    H1 8886   0.156   3.961   2.386  3.2430 -0.2774 -1.3168
 2974TIP3    H2 8887   0.188   4.038   2.513 -2.4445 -0.7544  0.7047
 2975TIP3   OH2 8888   2.890   2.810   1.320 -0.3310 -0.0008  0.5059
 2975TIP3    H1 8889   2.942   2.737   1.287 -0.9916 -0.0776 -0.4089
 2975TIP3    H2 8890   2.953   2.866   1.365  0.5375 -0.1320 -0.4987
 2976TIP3   OH2 8891   2.692   4.339   2.167  0.0471  0.1918  0.9841
 2976TIP3    H1 8892   2.700   4.303   2.079  1.1692 -0.5935  1.3820
 2976TIP3    H2 8893   2.774   4.386   2.181  0.3828 -0.6732  2.0290
 2977TIP3   OH2 8894   1.857   1.382   4.692 -0.6545  0.2062 -0.7450
 2977TIP3    H1 8895   1.776   1.345   4.659 -0.4597 -1.6192  0.6496
 2977TIP3    H2 8896   1.925   1.322   4.662 -0.1487  0.1883  0.3655
 2978TIP3   OH2 8897   4.440   1.611   1.912  0.1373 -0.3310  0.4034
 2978TIP3    H1 8898   4.462   1.601   1.819  1.1687  0.5346  0.5374
 2978TIP3    H2 8899   4.516   1.576   1.958  0.5803  1.2194  0.8998
 2979TIP3   OH2 8900   2.311   5.992   5.166 -0.0082 -0.1491  0.3421
 2979TIP3    H1 8901   2.375   6.007   5.236 -0.1508  1.0247  0.2417
 2979TIP3    H2 8902   2.284   5.901   5.177  1.1019 -0.4376  0.8658
 2980TIP3   OH2 8903   0.825   6.447   3.064 -0.5636 -0.4057  0.4524
 2980TIP3    H1 8904   0.731   6.439   3.081 -0.6979  0.7648  0.3518
 2980TIP3    H2 8905   0.837   6.539   3.041  0.3414 -0.9064 -1.2660
 2981TIP3   OH2 8906   0.293   6.120   1.967 -0.4151 -0.8640  0.1783
 2981TIP3    H1 8907   0.380   6.083   1.955 -0.3752 -0.4172 -1.0729
 2981TIP3    H2 8908   0.245   6.054   2.016  0.6927 -1.0025  1.1122
 2982TIP3   OH2 8909   2.871   4.186   0.654 -0.0993 -0.1415 -0.4181
 2982TIP3    H1 8910   2.823   4.166   0.735 -0.2871 -2.5988 -1.0688
 2982TIP3    H2 8911   2.963   4.183   0.680 -0.1787  0.5631 -0.0172
 2983TIP3   OH2 8912   3.683   4.352   3.243 -0.1681  0.1595 -0.5978
 2983TIP3    H1 8913   3.629   4.350   3.323  1.5843  0.9553  0.6699
 2983TIP3    H2 8914   3.631   4.403   3.181 -1.7656 -0.8245 -0.1538
 2984TIP3   OH2 8915   2.543   3.759   1.905 -0.4216  0.2898 -0.5567
 2984TIP3    H1 8916   2.625   3.805   1.923  0.4919 -0.7680 -1.8875
 2984TIP3    H2 8917   2.475   3.823   1.928  0.7218  0.9938  1.1046
 2985TIP3   OH2 8918   5.627   5.095   5.076  0.1317  0.4661 -0.1794
 2985TIP3    H1 8919   5.552   5.144   5.110  0.4430  0.4587  0.5294
 2985TIP3    H2 8920   5.611   5.005   5.104  0.7546  0.5864  0.6050
 2986TIP3   OH2 8921   0.241   6.599   2.382  0.3854 -0.0582  0.1623
 2986TIP3    H1 8922   0.164   6.545   2.370 -0.4140  0.9244  0.7326
 2986TIP3    H2 8923   0.296   6.579   2.306  0.4289 -2.1201  0.6789
 2987TIP3   OH2 8924   2.559   1.631   1.838  0.0820  0.6746  0.7068
 2987TIP3    H1 8925   2.570   1.559   1.900  1.2597  0.3830  0.1916
 2987TIP3    H2 8926   2.648   1.663   1.823 -0.2413  1.1111 -0.3803
 2988TIP3   OH2 8927   6.778   4.201   2.044  0.1616  0.3640 -0.1883
 2988TIP3    H1 8928   6.798   4.124   2.099 -0.0085  0.5732  0.1727
 2988TIP3    H2 8929   6.708   4.246   2.092  0.9146  1.2654  0.0982
 2989TIP3   OH2 8930   1.338   4.048   4.628 -0.2137  0.5454 -0.2760
 2989TIP3    H1 8931   1.272   4.006   4.682 -0.5361  0.3466 -0.8219
 2989TIP3    H2 8932   1.408   3.983   4.621  0.3828  1.0236  0.9051
 2990TIP3   OH2 8933   0.839   6.358   5.034 -0.2949  0.4598 -0.2096
 2990TIP3    H1 8934   0.772   6.404   5.086  2.0204  1.3874  2.1822
 2990TIP3    H2 8935   0.827   6.266   5.056 -1.3009  0.5213 -0.4643
 2991TIP3   OH2 8936   5.157   6.029   4.369  0.1142  0.2623 -0.6644
 2991TIP3    H1 8937   5.144   5.939   4.398  0.4001  0.4489  0.0664
 2991TIP3    H2 8938   5.241   6.027   4.322 -0.6052 -0.1473 -1.9715
 2992TIP3   OH2 8939   1.654   4.094   1.139  0.0302  0.3837  0.3316
 2992TIP3    H1 8940   1.692   4.145   1.211  0.0536  0.5302  0.2158
 2992TIP3    H2 8941   1.619   4.016   1.181  2.4199 -0.8624  0.2089
 2993TIP3   OH2 8942   1.295   0.614   0.260  0.6566  0.1767  0.0036
 2993TIP3    H1 8943   1.282   0.677   0.331  2.9725  1.2968 -0.4452
 2993TIP3    H2 8944   1.216   0.619   0.208 -0.7479 -0.0433  1.9960
 2994TIP3   OH2 8945   5.094   2.959   1.132  0.5409  0.3005  0.1746
 2994TIP3    H1 8946   5.135   3.031   1.181 -1.0647  1.1315  0.3560
 2994TIP3    H2 8947   5.077   2.892   1.198 -1.2380  1.2514  0.7586
 2995TIP3   OH2 8948   1.470   5.078   1.335 -0.5167 -0.3466  0.1038
 2995TIP3    H1 8949   1.534   5.115   1.395  1.8980 -1.1218 -1.8367
 2995TIP3    H2 8950   1.410   5.029   1.391  0.5706  0.3844  2.0016
 2996TIP3   OH2 8951   3.468   0.520   3.289  0.7031  0.0946 -0.2565
 2996TIP3    H1 8952   3.517   0.470   3.224  0.9099  0.9888 -0.8072
 2996TIP3    H2 8953   3.425   0.454   3.343  0.5498 -0.6717 -1.2868
 2997TIP3   OH2 8954   3.459   6.441   0.200  0.4497  0.0709 -0.3994
 2997TIP3    H1 8955   3.439   6.515   0.258 -2.9631 -0.6939 -0.3636
 2997TIP3    H2 8956   3.454   6.364   0.256  0.4796 -0.4180 -1.0540
 2998TIP3   OH2 8957   3.610   0.659   5.197  0.3115 -0.2121 -0.1283
 2998TIP3    H1 8958   3.676   0.703   5.144 -0.3334  0.1173 -0.6754
 2998TIP3    H2 8959   3.526   0.690   5.162 -0.1465 -1.1223  0.1196
 2999TIP3   OH2 8960   7.058   5.707   1.014  0.3797  0.0476  0.3171
 2999TIP3    H1 8961   7.135   5.657   0.989  0.5890  0.0037  1.0253
 2999TIP3    H2 8962   6.996   5.641   1.045 -0.3735 -0.0365 -1.2510
 3000TIP3   OH2 8963   1.887   2.159   2.383  0.0185  0.0803 -1.2345
 3000TIP3    H1 8964   1.941   2.081   2.389 -1.1791 -0.7795 -1.2396
 3000TIP3    H2 8965   1.913   2.212   2.459  1.4750  0.1202 -1.7339
 3001TIP3   OH2 8966   0.266   0.592   3.444 -0.1889  0.3120 -0.3409
 3001TIP3    H1 8967   0.267   0.506   3.485 -0.0598  1.5560  2.4496
 3001TIP3    H2 8968   0.356   0.624   3.454 -0.3984  1.0433 -0.7240
 3002TIP3   OH2 8969   2.493   6.759   1.153  0.0465  0.1358  0.1835
 3002TIP3    H1 8970   2.538   6.688   1.199 -1.2488 -1.1174 -0.3802
 3002TIP3    H2 8971   2.401   6.748   1.177 -0.0212  2.6030  1.2894
 3003TIP3   OH2 8972   5.310   6.761   3.687  0.0368 -0.2684  0.6062
 3003TIP3    H1 8973   5.361   6.802   3.757 -0.1839 -1.0110  1.2083
 3003TIP3    H2 8974   5.367   6.767   3.610  0.5890 -0.1182  1.0215
 3004TIP3   OH2 8975   5.309   2.192   2.720  0.0472 -0.1349  0.2112
 3004TIP3    H1 8976   5.377   2.232   2.665  0.1667  0.8581  1.0594
 3004TIP3    H2 8977   5.231   2.194   2.665 -0.2470  2.3643  0.5738
 3005TIP3   OH2 8978   6.417   0.214   2.250  0.4030  0.1485  0.4108
 3005TIP3    H1 8979   6.395   0.255   2.166 -2.3963  1.2216  1.5194
 3005TIP3    H2 8980   6.391   0.123   2.240  0.5961  0.1441 -0.0619
 3006TIP3   OH2 8981   3.056   3.071   2.863 -0.2151 -0.3600 -0.1698
 3006TIP3    H1 8982   3.069   3.164   2.882 -0.8956 -0.0089 -1.3060
 3006TIP3    H2 8983   3.092   3.059   2.775 -0.0717 -1.1908 -0.0105
 3007TIP3   OH2 8984   6.947   0.517   1.265 -0.4535  0.5171 -0.4568
 3007TIP3    H1 8985   7.041   0.499   1.265 -0.3279  1.1331 -0.0849
 3007TIP3    H2 8986   6.942   0.612   1.254 -1.0300  0.4961 -0.3613
 3008TIP3   OH2 8987   6.678   5.114   1.670  0.5564 -0.0631 -0.1470
 3008TIP3    H1 8988   6.697   5.037   1.723  0.2517  0.9677  1.5263
 3008TIP3    H2 8989   6.762   5.135   1.628  1.7221  0.8950  2.4072
 3009TIP3   OH2 8990   5.884   2.016   0.533 -0.1336 -0.1244 -0.0886
 3009TIP3    H1 8991   5.844   2.024   0.620  0.4531  2.5339  0.0095
 3009TIP3    H2 8992   5.976   1.995   0.550 -0.0434  0.2847 -0.0675
 3010TIP3   OH2 8993   0.864   5.904   3.005  0.1483  0.0736 -0.0955
 3010TIP3    H1 8994   0.854   5.999   3.007 -2.3896 -0.1378 -0.3311
 3010TIP3    H2 8995   0.824   5.874   3.087  0.4373 -0.8518 -0.2801
 3011TIP3   OH2 8996   4.503   1.369   2.905 -0.0907  0.0063 -0.2993
 3011TIP3    H1 8997   4.547   1.321   2.834  0.2642 -0.9145  0.5114
 3011TIP3    H2 8998   4.495   1.304   2.975 -0.6567  0.8338  0.4119
 3012TIP3   OH2 8999   5.157   2.600   2.842  0.0613  0.2444  0.4940
 3012TIP3    H1 9000   5.149   2.510   2.810  0.7535  0.3337  0.0469
 3012TIP3    H2 9001   5.094   2.650   2.790  1.9155  0.5894 -1.5801
 3013TIP3   OH2 9002   5.709   4.964   4.318 -0.5364  0.5652  0.2105
 3013TIP3    H1 9003   5.729   4.916   4.237 -0.2574  2.3776 -0.8557
 3013TIP3    H2 9004   5.630   5.014   4.297 -0.5773  0.8908  1.1254
 3014TIP3   OH2 9005   4.186   1.511   1.987 -0.3508  0.1888  0.1534
 3014TIP3    H1 9006   4.135   1.542   2.062  0.0654 -2.1251  1.5044
 3014TIP3    H2 9007   4.258   1.574   1.979 -1.4565  1.5304  0.4419
 3015TIP3   OH2 9008   0.201   6.055   3.408 -0.7850 -0.0608  0.4401
 3015TIP3    H1 9009   0.189   6.100   3.492 -1.0144  0.0188  0.3650
 3015TIP3    H2 9010   0.143   5.979   3.413 -0.1420 -0.5477  0.7044
 3016TIP3   OH2 9011   6.808   2.426   5.063  0.1260 -0.3233  0.4304
 3016TIP3    H1 9012   6.861   2.423   4.983  0.9501  3.1819  0.6935
 3016TIP3    H2 9013   6.870   2.410   5.134  0.1487  0.3515  0.5633
 3017TIP3   OH2 9014   1.815   0.499   0.547  0.8087 -0.3180 -0.1430
 3017TIP3    H1 9015   1.740   0.509   0.488  1.2704 -2.3045 -1.1583
 3017TIP3    H2 9016   1.887   0.543   0.502  0.5316  0.5923  0.2874
 3018TIP3   OH2 9017   5.649   3.762   1.451 -0.3832  0.0627 -0.0351
 3018TIP3    H1 9018   5.638   3.683   1.504 -1.6018 -1.0973 -1.9018
 3018TIP3    H2 9019   5.723   3.808   1.491  0.1899 -1.8822  1.2794
 3019TIP3   OH2 9020   0.883   0.399   2.394  0.1864 -0.0513 -0.0059
 3019TIP3    H1 9021   0.878   0.304   2.407 -0.1084  0.0569  0.6824
 3019TIP3    H2 9022   0.830   0.415   2.316 -0.3046 -0.3774  0.2532
 3020TIP3   OH2 9023   7.014   2.048   1.626 -0.0910 -0.4578 -0.4455
 3020TIP3    H1 9024   6.982   1.971   1.578 -1.4695  0.1682 -0.5732
 3020TIP3    H2 9025   7.099   2.021   1.660 -0.8926 -2.3510  0.2015
 3021TIP3   OH2 9026   3.694   5.337   0.721 -0.3840  0.6087  0.6533
 3021TIP3    H1 9027   3.733   5.293   0.797 -0.8287 -0.3288  0.3624
 3021TIP3    H2 9028   3.608   5.294   0.711  0.2195 -0.2546 -1.1810
 3022TIP3   OH2 9029   2.045   5.736   2.987  0.2405  0.2235 -0.5385
 3022TIP3    H1 9030   2.076   5.646   2.981 -2.5865 -0.9282  0.5662
 3022TIP3    H2 9031   1.983   5.745   2.915  1.2289  1.6716 -1.2634
 3023TIP3   OH2 9032   5.084   0.566   5.711  0.4358 -0.0749 -0.3380
 3023TIP3    H1 9033   5.022   0.544   5.780  0.6100 -1.8060 -0.6718
 3023TIP3    H2 9034   5.046   0.528   5.632  0.4457  1.5088 -1.1433
 3024TIP3   OH2 9035   2.494   5.979   0.486  0.4771 -0.4427 -0.7073
 3024TIP3    H1 9036   2.537   6.045   0.432 -0.6257  1.1378  0.2417
 3024TIP3    H2 9037   2.415   5.956   0.438 -0.3663  0.7654  0.0219
 3025TIP3   OH2 9038   4.505   5.719   1.079 -0.1744 -0.0244  0.0079
 3025TIP3    H1 9039   4.584   5.665   1.070  0.1685  0.6310 -1.2313
 3025TIP3    H2 9040   4.434   5.663   1.049  0.0065 -0.2129 -0.0692
 3026TIP3   OH2 9041   2.237   6.042   3.632 -0.3991 -0.3086  0.2405
 3026TIP3    H1 9042   2.249   6.021   3.724 -1.0155 -0.4474  0.2940
 3026TIP3    H2 9043   2.146   6.017   3.613 -0.5704  0.5727 -0.1661
 3027TIP3   OH2 9044   0.949   3.000   0.397  0.0965  0.2286  0.4807
 3027TIP3    H1 9045   1.025   2.944   0.412  0.5975  0.4203 -1.0707
 3027TIP3    H2 9046   0.905   2.961   0.321 -0.2311  1.2215  0.1353
 3028TIP3   OH2 9047   4.484   0.588   0.496  0.1483 -0.2211 -0.4648
 3028TIP3    H1 9048   4.525   0.609   0.580 -0.3317  1.7800 -0.6842
 3028TIP3    H2 9049   4.418   0.656   0.484 -1.4226 -1.8341 -1.3849
 3029TIP3   OH2 9050   1.293   6.265   2.332  0.1213  0.2446 -0.4199
 3029TIP3    H1 9051   1.273   6.337   2.271 -0.1782  1.7182  1.3248
 3029TIP3    H2 9052   1.346   6.307   2.401 -0.1912 -1.1811  0.7269
 3030TIP3   OH2 9053   1.457   4.353   2.372  0.6653  0.1521  0.3157
 3030TIP3    H1 9054   1.517   4.350   2.446  1.5735  1.2310 -0.3421
 3030TIP3    H2 9055   1.488   4.427   2.319 -0.2469 -0.2888 -0.8825
 3031TIP3   OH2 9056   1.820   0.774   3.610  0.2167  0.2554 -0.1292
 3031TIP3    H1 9057   1.836   0.794   3.702  0.0488  1.0424 -0.2698
 3031TIP3    H2 9058   1.905   0.744   3.578  0.2698 -0.0586  0.2875
 3032TIP3   OH2 9059   5.859   0.074   5.488 -0.2858  0.4092  0.0166
 3032TIP3    H1 9060   5.922   0.124   5.541  0.8929  0.1368 -1.0909
 3032TIP3    H2 9061   5.913   0.014   5.436 -1.2884  1.3383 -2.2225
 3033TIP3   OH2 9062   4.775   2.259   3.065 -0.3865 -0.9059 -0.0845
 3033TIP3    H1 9063   4.759   2.213   2.983 -0.4524 -0.8290 -0.1153
 3033TIP3    H2 9064   4.691   2.257   3.111 -0.2131 -1.4143  0.2192
 3034TIP3   OH2 9065   2.853   1.610   2.445  0.3441  0.0359  0.2571
 3034TIP3    H1 9066   2.811   1.640   2.365  1.0312 -1.6550 -0.7914
 3034TIP3    H2 9067   2.863   1.690   2.498 -1.8344  0.8961 -0.4846
 3035TIP3   OH2 9068   0.811   0.413   2.912 -0.0377 -0.2084 -0.5389
 3035TIP3    H1 9069   0.744   0.479   2.897 -0.2763 -0.2890  0.1253
 3035TIP3    H2 9070   0.766   0.343   2.960 -0.0634 -1.3631 -2.1814
 3036TIP3   OH2 9071   4.116   5.818   4.702 -0.1059 -0.0974  0.7184
 3036TIP3    H1 9072   4.206   5.786   4.695  0.2107  0.3699  2.2949
 3036TIP3    H2 9073   4.122   5.897   4.756 -1.6292 -0.8916  2.1370
 3037TIP3   OH2 9074   6.921   1.269   2.246 -0.0501  0.4037 -0.0220
 3037TIP3    H1 9075   6.892   1.325   2.318  0.8059  0.2201  0.4833
 3037TIP3    H2 9076   6.852   1.203   2.238  0.5226 -0.4600  1.6452
 3038TIP3   OH2 9077   5.469   2.430   3.449  0.2668  0.1464 -0.7053
 3038TIP3    H1 9078   5.431   2.370   3.385  1.1547 -1.2029 -0.0319
 3038TIP3    H2 9079   5.472   2.379   3.530 -2.1285  2.2389  0.8349
 3039TIP3   OH2 9080   0.219   3.981   4.682  0.2417  0.0004  0.1343
 3039TIP3    H1 9081   0.273   4.057   4.664  1.3863 -0.3911  1.7081
 3039TIP3    H2 9082   0.211   3.979   4.778  0.0246 -1.6880  0.1197
 3040TIP3   OH2 9083   2.186   4.978   1.852 -0.2211  0.4197  0.2748
 3040TIP3    H1 9084   2.257   4.967   1.915  0.9696 -1.5447 -1.3202
 3040TIP3    H2 9085   2.137   4.896   1.856 -0.2441  0.3329 -1.1737
 3041TIP3   OH2 9086   6.342   5.593   4.691  0.4867 -0.7808 -0.4305
 3041TIP3    H1 9087   6.302   5.507   4.699  0.7508 -0.8759 -0.1349
 3041TIP3    H2 9088   6.412   5.594   4.756  0.6314 -0.4258 -0.5855
 3042TIP3   OH2 9089   2.325   6.318   2.451 -0.6349 -0.0657  0.1213
 3042TIP3    H1 9090   2.369   6.286   2.373 -1.6436 -1.2457  0.0090
 3042TIP3    H2 9091   2.373   6.397   2.475  0.4329 -0.3528 -0.9883
 3043TIP3   OH2 9092   5.365   5.517   3.912 -0.0017 -0.0593  0.4743
 3043TIP3    H1 9093   5.355   5.593   3.853  0.3009 -1.1456 -1.0492
 3043TIP3    H2 9094   5.277   5.499   3.944 -0.3783 -0.1309 -0.5660
 3044TIP3   OH2 9095   1.173   6.545   3.739 -0.2582 -0.2239 -0.0614
 3044TIP3    H1 9096   1.200   6.503   3.658 -0.9832 -0.0673 -0.3852
 3044TIP3    H2 9097   1.126   6.624   3.712  0.1929  0.2617  0.5235
 3045TIP3   OH2 9098   0.238   0.402   4.010 -0.4723 -0.5152  0.3894
 3045TIP3    H1 9099   0.231   0.319   3.962 -0.3838 -0.0569 -0.4498
 3045TIP3    H2 9100   0.278   0.462   3.947 -0.8908  0.2707  0.8535
 3046TIP3   OH2 9101   6.696   1.781   4.104  0.0694 -0.4400  0.3464
 3046TIP3    H1 9102   6.703   1.874   4.084  1.0116 -0.7343 -0.7883
 3046TIP3    H2 9103   6.626   1.775   4.169  0.5505  1.1403  1.0477
 3047TIP3   OH2 9104   5.784   5.623   4.789  0.6202  0.0894 -0.5013
 3047TIP3    H1 9105   5.858   5.603   4.732  2.1594  0.7699  1.1476
 3047TIP3    H2 9106   5.751   5.706   4.757  2.4545  1.2534  0.4360
 3048TIP3   OH2 9107   0.687   1.817   0.302  0.2512 -0.1711 -0.5405
 3048TIP3    H1 9108   0.715   1.834   0.392  1.9260  0.1882 -1.0879
 3048TIP3    H2 9109   0.732   1.883   0.250 -1.8065  0.5617 -1.5243
 3049TIP3   OH2 9110   2.674   2.321   2.889 -0.4942 -0.4278  0.2080
 3049TIP3    H1 9111   2.726   2.396   2.917  0.9356 -1.3100  0.0260
 3049TIP3    H2 9112   2.658   2.272   2.969 -1.8089  0.2665  0.3973
 3050TIP3   OH2 9113   5.755   4.977   1.614 -0.9274 -0.8081  0.5525
 3050TIP3    H1 9114   5.713   4.972   1.528  2.3412 -0.5242 -1.2166
 3050TIP3    H2 9115   5.759   4.886   1.644 -0.4550 -1.1460 -0.4854
 3051TIP3   OH2 9116   1.393   5.503   3.865  0.1734  0.3088  0.3987
 3051TIP3    H1 9117   1.469   5.468   3.819  0.2271  1.8239 -0.7275
 3051TIP3    H2 9118   1.354   5.564   3.803 -2.2300 -0.7389  0.7784
 3052TIP3   OH2 9119   2.904   5.086   2.513  0.2324  0.1169  0.3204
 3052TIP3    H1 9120   2.969   5.104   2.445  0.6411 -0.3027  0.5930
 3052TIP3    H2 9121   2.951   5.100   2.595  0.0682 -0.4821  0.5200
 3053TIP3   OH2 9122   6.590   2.516   3.746 -0.3920 -0.4353  0.4512
 3053TIP3    H1 9123   6.633   2.492   3.828 -0.3283 -1.3210  0.1701
 3053TIP3    H2 9124   6.583   2.434   3.697 -1.1838 -0.0729 -0.0787
 3054TIP3   OH2 9125   4.563   5.628   4.518 -0.0483 -0.3235  0.5365
 3054TIP3    H1 9126   4.483   5.626   4.570  1.0109 -1.0683  2.2365
 3054TIP3    H2 9127   4.537   5.666   4.434 -2.5925 -2.3663  0.2796
 3055TIP3   OH2 9128   4.115   4.945   3.774 -0.5310  0.0627  0.0272
 3055TIP3    H1 9129   4.045   4.983   3.826 -1.1223 -0.7158 -0.1784
 3055TIP3    H2 9130   4.154   5.019   3.727 -0.6818  0.6142  0.7605
 3056TIP3   OH2 9131   5.570   4.635   2.829  0.0983 -0.2448  0.2258
 3056TIP3    H1 9132   5.537   4.584   2.902  0.0340 -0.4054  0.0848
 3056TIP3    H2 9133   5.544   4.725   2.848 -0.7219 -0.4165 -0.0545
 3057TIP3   OH2 9134   2.157   0.506   4.764 -0.3280  0.0972 -0.0749
 3057TIP3    H1 9135   2.081   0.547   4.722 -0.7590 -1.7653 -1.1993
 3057TIP3    H2 9136   2.188   0.441   4.702  0.1426 -1.4964  1.7178
 3058TIP3   OH2 9137   5.510   0.247   0.638 -0.0564  0.0993  0.2019
 3058TIP3    H1 9138   5.495   0.179   0.572 -1.0635  0.1378  0.3765
 3058TIP3    H2 9139   5.515   0.200   0.721 -2.0938  0.3183  0.4965
 3059TIP3   OH2 9140   0.395   0.111   2.501  0.6098  0.3563 -0.5101
 3059TIP3    H1 9141   0.304   0.120   2.473  0.4861 -1.3991 -0.7303
 3059TIP3    H2 9142   0.402   0.172   2.575 -0.9276  0.0398 -0.0611
 3060TIP3   OH2 9143   3.849   1.562   4.947  0.3312 -0.6628 -0.2505
 3060TIP3    H1 9144   3.854   1.648   4.904  0.6670 -0.6063 -0.0999
 3060TIP3    H2 9145   3.844   1.584   5.041 -0.1632 -0.7915 -0.2415
 3061TIP3   OH2 9146   2.925   3.664   4.857  0.4628 -0.1750  0.0441
 3061TIP3    H1 9147   2.848   3.711   4.825  0.6404 -0.0868 -0.2500
 3061TIP3    H2 9148   2.970   3.726   4.914  0.7736  0.0644 -0.4545
 3062TIP3   OH2 9149   0.489   3.478   1.105  0.6535  0.1791 -0.1923
 3062TIP3    H1 9150   0.406   3.521   1.129  0.5622  0.1573 -0.4735
 3062TIP3    H2 9151   0.470   3.385   1.114  1.2641  0.1932  1.8448
 3063TIP3   OH2 9152   6.389   3.849   3.644  0.3564 -0.2539  0.8060
 3063TIP3    H1 9153   6.440   3.921   3.607 -1.2115  0.4495 -0.0495
 3063TIP3    H2 9154   6.344   3.888   3.719  0.7946 -0.7953  1.3671
 3064TIP3   OH2 9155   2.071   5.175   5.769 -0.2090  0.0213 -0.1900
 3064TIP3    H1 9156   2.034   5.262   5.783 -1.1925 -0.3036 -0.7130
 3064TIP3    H2 9157   2.113   5.154   5.853 -1.1926  0.4032  0.4174
 3065TIP3   OH2 9158   0.403   0.959   5.250  0.1312  0.5255 -0.4224
 3065TIP3    H1 9159   0.341   0.991   5.184 -0.3287  1.0253  0.2429
 3065TIP3    H2 9160   0.467   1.029   5.259 -0.6480  1.1188  0.7381
 3066TIP3   OH2 9161   3.503   2.632   5.118 -0.0764  0.2300  0.1539
 3066TIP3    H1 9162   3.512   2.720   5.081  0.4547 -0.1807 -0.7436
 3066TIP3    H2 9163   3.460   2.581   5.048  1.6164 -0.7462 -0.2261
 3067TIP3   OH2 9164   0.652   2.813   5.899 -0.5837 -0.1462  0.0268
 3067TIP3    H1 9165   0.709   2.803   5.823  0.2466  0.0307  0.6131
 3067TIP3    H2 9166   0.631   2.723   5.924  1.2512 -0.3242  1.1221
 3068TIP3   OH2 9167   0.379   3.783   2.399  0.2778  0.4564  0.4240
 3068TIP3    H1 9168   0.349   3.784   2.309  1.6030 -0.9907 -0.0841
 3068TIP3    H2 9169   0.307   3.744   2.448  0.3029 -0.6293 -0.3616
 3069TIP3   OH2 9170   0.696   2.979   4.295  0.6119  0.4381  0.3203
 3069TIP3    H1 9171   0.693   3.003   4.203  1.9083  1.6780  0.5587
 3069TIP3    H2 9172   0.604   2.964   4.319  0.2849 -0.1735 -1.2111
 3070TIP3   OH2 9173   1.106   1.523   2.304 -0.2034  0.0965 -0.3347
 3070TIP3    H1 9174   1.195   1.533   2.269  0.0418  1.3611  0.5843
 3070TIP3    H2 9175   1.103   1.434   2.337  0.7920  0.1021 -0.2003
 3071TIP3   OH2 9176   2.043   4.541   4.595  0.2839 -0.3681 -0.3158
 3071TIP3    H1 9177   2.099   4.514   4.521 -0.0478 -1.1712 -0.2891
 3071TIP3    H2 9178   2.094   4.519   4.672  0.9673  1.2112 -0.2934
 3072TIP3   OH2 9179   0.832   3.822   5.655  0.3674 -0.2406 -0.3749
 3072TIP3    H1 9180   0.763   3.756   5.653 -0.5262  0.5955  1.3021
 3072TIP3    H2 9181   0.900   3.785   5.711  0.0387  0.0971  0.2489
 3073TIP3   OH2 9182   1.746   2.699   0.916  0.6660  0.0687  0.4356
 3073TIP3    H1 9183   1.751   2.686   0.822  0.2862 -1.3090  0.5738
 3073TIP3    H2 9184   1.727   2.792   0.927 -0.8814 -0.0456 -0.9073
 3074TIP3   OH2 9185   5.732   5.335   3.761 -0.1082 -0.2273 -0.2720
 3074TIP3    H1 9186   5.704   5.424   3.781 -3.2637 -1.1592 -0.0048
 3074TIP3    H2 9187   5.713   5.285   3.841  2.5001 -1.0429 -0.0641
 3075TIP3   OH2 9188   6.444   4.452   5.527 -0.0272  0.3955 -0.3389
 3075TIP3    H1 9189   6.523   4.504   5.542  0.3113 -0.0112 -0.7106
 3075TIP3    H2 9190   6.391   4.506   5.468 -0.0537  0.6936 -0.0442
 3076TIP3   OH2 9191   1.871   5.600   3.423  0.1618  0.1935 -0.6371
 3076TIP3    H1 9192   1.930   5.536   3.383  0.9233  0.0093  0.7176
 3076TIP3    H2 9193   1.819   5.634   3.350 -0.6761 -2.3709 -1.3487
 3077TIP3   OH2 9194   6.357   1.418   5.039  0.6152 -0.1685  0.2214
 3077TIP3    H1 9195   6.343   1.474   5.115  1.8308  1.8149 -0.9385
 3077TIP3    H2 9196   6.275   1.422   4.990  1.5061  2.9230 -1.2358
 3078TIP3   OH2 9197   0.456   3.894   5.119  0.0457  0.2183  0.1520
 3078TIP3    H1 9198   0.470   3.909   5.025  1.4623  0.7986  0.4437
 3078TIP3    H2 9199   0.529   3.937   5.162  0.4194 -1.5832  1.4329
 3079TIP3   OH2 9200   3.811   3.883   1.274  0.1149  0.5091 -0.2363
 3079TIP3    H1 9201   3.755   3.927   1.338 -0.1883 -0.5190  0.2118
 3079TIP3    H2 9202   3.771   3.903   1.190 -1.6723 -1.2293  0.1497
 3080TIP3   OH2 9203   3.943   4.614   3.844 -0.0823 -0.5341 -0.5529
 3080TIP3    H1 9204   4.004   4.635   3.915  0.1571 -2.7029 -0.0529
 3080TIP3    H2 9205   3.959   4.522   3.826 -1.3732 -0.4613 -2.2614
 3081TIP3   OH2 9206   1.357   3.039   3.884 -0.2406 -0.1333  0.3445
 3081TIP3    H1 9207   1.315   3.109   3.935 -0.5093 -0.1418  0.1384
 3081TIP3    H2 9208   1.438   3.020   3.931  0.9231  1.7840 -0.7410
 3082TIP3   OH2 9209   4.581   2.751   2.729 -0.3509 -0.4163  0.6232
 3082TIP3    H1 9210   4.644   2.784   2.665 -0.6508  0.6606  0.8540
 3082TIP3    H2 9211   4.611   2.787   2.812 -2.1754  1.6025  0.5171
 3083TIP3   OH2 9212   7.147   5.297   2.298 -0.0625  0.0014  0.0082
 3083TIP3    H1 9213   7.110   5.383   2.318  2.4284  1.6966 -1.9856
 3083TIP3    H2 9214   7.239   5.304   2.323 -0.0124 -2.5374  0.8343
 3084TIP3   OH2 9215   3.781   4.673   4.911 -0.2452  0.5265 -0.3482
 3084TIP3    H1 9216   3.787   4.660   5.005  1.0077  0.4603 -0.4217
 3084TIP3    H2 9217   3.695   4.638   4.887 -0.2708 -0.1275  0.6580
 3085TIP3   OH2 9218   1.156   2.727  -0.010 -0.2948  0.0254 -0.0234
 3085TIP3    H1 9219   1.132   2.734   0.083  1.1151 -3.0389  0.7019
 3085TIP3    H2 9220   1.240   2.774  -0.017  0.7832 -1.6538  0.8812
 3086TIP3   OH2 9221   2.963   3.456   4.375  0.1055 -0.6592  0.0192
 3086TIP3    H1 9222   3.042   3.414   4.342 -0.8897 -1.7822 -1.0170
 3086TIP3    H2 9223   2.891   3.414   4.328 -1.0952  0.6732  0.5728
 3087TIP3   OH2 9224   2.147   4.881   2.277  0.5339  0.1598 -0.5310
 3087TIP3    H1 9225   2.169   4.928   2.358 -0.5599  1.1810 -0.7953
 3087TIP3    H2 9226   2.144   4.949   2.210 -0.7913 -0.3353 -0.9934
 3088TIP3   OH2 9227   1.226   1.404   1.108  0.1991  0.3416  0.3360
 3088TIP3    H1 9228   1.255   1.342   1.175 -2.2873  0.2273  1.3875
 3088TIP3    H2 9229   1.305   1.421   1.056  1.7046 -1.1898  1.9839
 3089TIP3   OH2 9230   1.205   0.093   1.934  0.4127 -0.0776 -0.0379
 3089TIP3    H1 9231   1.276   0.061   1.879 -0.8476 -1.5963 -0.8649
 3089TIP3    H2 9232   1.155   0.152   1.877  0.5002  0.3029  0.2712
 3090TIP3   OH2 9233   4.377   1.445   0.164  0.4919  0.0449 -0.0876
 3090TIP3    H1 9234   4.310   1.406   0.220  1.1317  0.2515  0.8337
 3090TIP3    H2 9235   4.354   1.538   0.160  1.2730  0.3107  1.0633
 3091TIP3   OH2 9236   6.184   4.239   3.603  0.2395  0.2740  0.3769
 3091TIP3    H1 9237   6.271   4.209   3.630  0.1819 -0.2977 -0.0473
 3091TIP3    H2 9238   6.182   4.222   3.509 -0.7085 -0.6865  0.5545
 3092TIP3   OH2 9239   1.032   1.878   1.205 -0.0612  0.2462  0.3241
 3092TIP3    H1 9240   1.053   1.792   1.242 -1.2407 -0.5128 -0.6659
 3092TIP3    H2 9241   1.062   1.941   1.270  1.0022 -0.9065  0.9947
 3093TIP3   OH2 9242   4.206   0.474   4.224 -0.0042  0.0896  0.3300
 3093TIP3    H1 9243   4.298   0.489   4.248 -0.3799  0.5966  1.5251
 3093TIP3    H2 9244   4.170   0.562   4.211 -0.4131 -0.0907  0.2232
 3094TIP3   OH2 9245   3.360   0.313   4.754 -0.3446  0.2432 -0.4209
 3094TIP3    H1 9246   3.442   0.287   4.712  0.6349  2.0240  0.2746
 3094TIP3    H2 9247   3.387   0.358   4.834 -2.1111 -1.6199  1.3351
 3095TIP3   OH2 9248   6.756   2.738   3.807 -0.1559  0.4738 -0.0972
 3095TIP3    H1 9249   6.761   2.714   3.900 -2.0939  0.4016  0.0261
 3095TIP3    H2 9250   6.843   2.718   3.773  0.3736 -0.2063  1.5376
 3096TIP3   OH2 9251   3.384   2.638   2.289 -0.1566  0.0505  0.1951
 3096TIP3    H1 9252   3.297   2.677   2.287 -0.1401  0.1146  0.6698
 3096TIP3    H2 9253   3.441   2.707   2.323 -0.1647 -0.4407  1.2474
 3097TIP3   OH2 9254   4.131   4.906   2.460 -0.4371 -0.0504 -0.1301
 3097TIP3    H1 9255   4.055   4.880   2.409  0.1326  0.8004 -1.4621
 3097TIP3    H2 9256   4.191   4.831   2.455 -1.3326 -0.9268  1.3397
 3098TIP3   OH2 9257   6.282   2.457   3.872  0.0882 -0.1149 -0.5620
 3098TIP3    H1 9258   6.365   2.435   3.829  0.2360 -0.3381 -0.1652
 3098TIP3    H2 9259   6.272   2.551   3.857  1.0856  0.1812  0.5285
 3099TIP3   OH2 9260   3.745   0.415   0.155 -0.0579  0.0597 -0.0440
 3099TIP3    H1 9261   3.749   0.466   0.236  0.3056 -1.1174  0.7129
 3099TIP3    H2 9262   3.728   0.325   0.185  0.6637 -0.4957 -1.2425
 3100TIP3   OH2 9263   5.111   4.173   0.016 -0.3668 -0.2022 -0.2775
 3100TIP3    H1 9264   5.125   4.174   0.111  1.3386 -1.2238 -0.4709
 3100TIP3    H2 9265   5.102   4.080  -0.005 -3.6612  0.1280 -0.8071
 3101TIP3   OH2 9266   3.014   1.414   2.373  0.5072 -0.2759 -0.5053
 3101TIP3    H1 9267   2.960   1.343   2.338  0.0027  1.1959 -2.9539
 3101TIP3    H2 9268   2.951   1.484   2.392  1.2690  0.5325 -0.9035
 3102TIP3   OH2 9269   6.569   1.089   5.789  0.1495 -0.4032  0.0070
 3102TIP3    H1 9270   6.531   1.103   5.703 -1.8130  0.6826  0.9887
 3102TIP3    H2 9271   6.659   1.120   5.781  0.0785 -0.5386 -1.6858
 3103TIP3   OH2 9272   4.119  -0.010   5.208 -0.6178 -0.4793 -0.6576
 3103TIP3    H1 9273   4.206  -0.048   5.214 -1.1903 -1.5827  1.2877
 3103TIP3    H2 9274   4.135   0.082   5.186  0.9242 -1.0030 -1.9813
 3104TIP3   OH2 9275   3.805   2.457   5.319 -0.3222 -0.2172  0.3654
 3104TIP3    H1 9276   3.798   2.545   5.356  3.1456 -0.1898  1.3240
 3104TIP3    H2 9277   3.785   2.468   5.226  2.1315  2.1315 -0.0000
 3105TIP3   OH2 9278   3.321   2.808   1.101  0.2116  0.0192  0.4772
 3105TIP3    H1 9279   3.400   2.834   1.053 -0.8937 -0.8498 -1.9672
 3105TIP3    H2 9280   3.293   2.726   1.061 -2.9734  1.2124 -0.0739
 3106TIP3   OH2 9281   4.649   3.912   1.283  0.5908 -0.1535 -0.2024
 3106TIP3    H1 9282   4.571   3.856   1.278  0.1732  0.4782 -1.0410
 3106TIP3    H2 9283   4.656   3.949   1.195  1.1561  0.7135  0.2049
 3107TIP3   OH2 9284   6.209   5.653   0.202 -0.2577 -0.2493  0.5167
 3107TIP3    H1 9285   6.301   5.635   0.219  0.1362 -0.3250 -1.4591
 3107TIP3    H2 9286   6.194   5.740   0.238  0.8074  0.0913  0.1718
 3108TIP3   OH2 9287   0.915   1.925   2.154  0.9420 -0.3433  0.1888
 3108TIP3    H1 9288   0.871   1.928   2.069 -1.8012 -1.5929  1.4251
 3108TIP3    H2 9289   0.859   1.976   2.212  1.3489 -1.6035  1.7671
 3109TIP3   OH2 9290   1.156   1.213   4.880 -0.2304 -0.1871 -0.1333
 3109TIP3    H1 9291   1.139   1.290   4.934 -0.1988 -1.1812  1.3702
 3109TIP3    H2 9292   1.251   1.213   4.867  0.4545 -2.0998  3.4356
 3110TIP3   OH2 9293   2.000   6.313   0.964  0.6062 -0.2640  0.1728
 3110TIP3    H1 9294   2.067   6.248   0.941  0.5272  0.3862 -2.0994
 3110TIP3    H2 9295   1.917   6.269   0.945  0.4674 -0.2185  0.6619
 3111TIP3   OH2 9296   2.484   5.091   5.061  0.3865 -0.0721  0.4362
 3111TIP3    H1 9297   2.458   5.180   5.083  0.7835 -0.1214  1.1292
 3111TIP3    H2 9298   2.403   5.041   5.060  0.1082  0.3767 -0.3705
 3112TIP3   OH2 9299   4.252   4.552   1.741 -0.4082  0.2078 -0.1368
 3112TIP3    H1 9300   4.209   4.578   1.659  0.5323  0.3813 -0.5851
 3112TIP3    H2 9301   4.345   4.557   1.722 -0.1000  2.0389  1.4727
 3113TIP3   OH2 9302   1.503   6.570   0.127  0.6342 -0.6176 -0.2504
 3113TIP3    H1 9303   1.470   6.599   0.041 -1.7761  1.5729  1.2564
 3113TIP3    H2 9304   1.584   6.619   0.139  0.3559  0.0012 -0.7895
 3114TIP3   OH2 9305   4.254   5.978   0.413  0.1965 -0.2914 -0.2798
 3114TIP3    H1 9306   4.329   6.010   0.464 -0.3004  0.5855 -0.0730
 3114TIP3    H2 9307   4.178   6.000   0.466 -0.1816 -1.9248 -0.1034
 3115TIP3   OH2 9308   2.741   0.173   0.806 -0.1377 -0.3264 -0.3165
 3115TIP3    H1 9309   2.825   0.143   0.839 -0.7470 -0.3103  1.3610
 3115TIP3    H2 9310   2.702   0.096   0.765  0.5843 -0.3760 -0.9468
 3116TIP3   OH2 9311   2.520   1.484   0.618  0.6549 -0.4508  0.1200
 3116TIP3    H1 9312   2.496   1.506   0.529 -0.1639 -0.7515  0.2570
 3116TIP3    H2 9313   2.451   1.522   0.672  1.5008  0.3200  0.6893
 3117TIP3   OH2 9314   3.272   4.531   1.282 -0.0512  0.3197 -0.2475
 3117TIP3    H1 9315   3.212   4.457   1.295 -0.6219  0.1897 -2.9010
 3117TIP3    H2 9316   3.243   4.597   1.344 -0.5012 -1.1006  1.1340
 3118TIP3   OH2 9317   3.893   0.421   4.380 -0.2844  0.1407 -0.4589
 3118TIP3    H1 9318   3.988   0.423   4.372 -0.2070 -0.9122  0.1342
 3118TIP3    H2 9319   3.871   0.500   4.429  0.3051  0.2191 -0.3212
 3119TIP3   OH2 9320   5.661   1.239   2.589 -0.6917 -0.0238  0.1514
 3119TIP3    H1 9321   5.645   1.196   2.673  0.7497  0.2656  0.5998
 3119TIP3    H2 9322   5.714   1.177   2.540 -3.2195 -1.0948 -1.4209
 3120TIP3   OH2 9323   4.411   5.054   0.145 -0.0934  0.0219 -0.3518
 3120TIP3    H1 9324   4.347   5.081   0.210 -0.1359  1.2878 -0.8754
 3120TIP3    H2 9325   4.409   4.958   0.146 -1.8549  0.0388 -0.2382
 3121TIP3   OH2 9326   3.014   5.073   4.778 -0.7052  0.1921  0.0593
 3121TIP3    H1 9327   3.083   5.020   4.818 -0.8160  0.3091  0.4122
 3121TIP3    H2 9328   3.061   5.136   4.723 -0.6092 -0.7714 -0.9938
 3122TIP3   OH2 9329   5.498   4.303   1.962  0.2067  0.1468  0.0830
 3122TIP3    H1 9330   5.440   4.305   2.038 -1.0143 -0.8238 -0.7639
 3122TIP3    H2 9331   5.498   4.393   1.929 -1.2900  0.0724 -0.2062
 3123TIP3   OH2 9332   5.529   2.483   3.788  0.1615  0.3819 -0.1772
 3123TIP3    H1 9333   5.531   2.387   3.784 -2.4125  0.2053  0.6335
 3123TIP3    H2 9334   5.592   2.506   3.856 -0.7323 -0.9360  1.1588
 3124TIP3   OH2 9335   3.218   3.057   2.247 -0.2675 -0.5204 -0.4765
 3124TIP3    H1 9336   3.133   3.018   2.268 -0.0536 -0.6365  0.2007
 3124TIP3    H2 9337   3.249   3.009   2.170 -1.9452  1.1918 -2.3482
 3125TIP3   OH2 9338   4.620   3.915   1.784  0.3712 -0.1107  0.1470
 3125TIP3    H1 9339   4.629   3.959   1.700  1.1120 -0.0199  0.2646
 3125TIP3    H2 9340   4.687   3.955   1.839 -0.5817  0.3342  1.0028
 3126TIP3   OH2 9341   0.478   1.622   5.003  0.0108  0.1480  0.8709
 3126TIP3    H1 9342   0.500   1.574   4.923 -1.8586  1.0970 -0.2875
 3126TIP3    H2 9343   0.505   1.712   4.985 -1.4637  0.6034  0.8103
 3127TIP3   OH2 9344   2.969   1.082   5.747  0.3849  0.3994 -0.4482
 3127TIP3    H1 9345   3.057   1.048   5.761 -0.1946 -0.4817  1.4216
 3127TIP3    H2 9346   2.973   1.125   5.662  2.2153 -0.9446 -1.1173
 3128TIP3   OH2 9347   6.673   5.118   0.317  0.5583  0.4598 -0.4839
 3128TIP3    H1 9348   6.637   5.139   0.403  1.8840  1.1290 -0.0515
 3128TIP3    H2 9349   6.602   5.134   0.256  0.0582  1.5141  0.3472
 3129TIP3   OH2 9350   0.735   6.649   0.364 -0.0238 -0.4233  1.0674
 3129TIP3    H1 9351   0.825   6.682   0.357  0.4073 -1.3921  1.7437
 3129TIP3    H2 9352   0.739   6.584   0.434 -1.1480 -0.8491  0.7585
 3130TIP3   OH2 9353   2.841   5.446   5.175  0.3958  0.6537  0.3911
 3130TIP3    H1 9354   2.745   5.454   5.177  0.2732  0.0808 -1.3434
 3130TIP3    H2 9355   2.856   5.352   5.160  1.1094  1.0670 -1.9357
 3131TIP3   OH2 9356   6.709   4.302   1.053 -0.3322 -0.2842 -0.1195
 3131TIP3    H1 9357   6.757   4.367   1.104 -1.2815  0.7899 -0.5470
 3131TIP3    H2 9358   6.755   4.219   1.070 -0.2470  0.1351  2.0012
 3132TIP3   OH2 9359   3.020   3.117   4.684  0.6961  0.1280  0.8014
 3132TIP3    H1 9360   2.976   3.037   4.656  1.1541  0.5686 -1.3237
 3132TIP3    H2 9361   3.047   3.099   4.774 -1.5113 -1.0874  1.2786
 3133TIP3   OH2 9362   2.061   1.592   3.420 -0.1439  0.2991  0.0268
 3133TIP3    H1 9363   2.039   1.566   3.509 -0.0361 -1.8473 -0.5206
 3133TIP3    H2 9364   2.152   1.621   3.426  0.3468 -1.2261  0.3980
 3134TIP3   OH2 9365   4.657   2.238   0.805  0.0276 -0.4522  0.1740
 3134TIP3    H1 9366   4.565   2.257   0.818 -0.3102 -1.8207 -0.0591
 3134TIP3    H2 9367   4.702   2.282   0.878 -0.5889  1.6041 -0.6028
 3135TIP3   OH2 9368   1.792   0.184   2.468  0.0465 -0.5417 -0.3544
 3135TIP3    H1 9369   1.834   0.109   2.427  0.3368  1.1778 -3.6103
 3135TIP3    H2 9370   1.713   0.148   2.509  0.9938 -2.7962 -0.3693
 3136TIP3   OH2 9371   3.165   3.043   2.610  0.4976  0.0726 -0.4567
 3136TIP3    H1 9372   3.154   2.952   2.582  0.3443  0.2270 -0.9152
 3136TIP3    H2 9373   3.117   3.094   2.544  0.8391  0.5034 -0.3771
 3137TIP3   OH2 9374   2.155   1.828   2.917 -0.0022  0.8696 -0.0290
 3137TIP3    H1 9375   2.140   1.884   2.993 -3.6899 -1.6602  1.3828
 3137TIP3    H2 9376   2.100   1.751   2.932  2.2114 -1.6730 -3.3850
 3138TIP3   OH2 9377   4.938   1.954   2.065  0.0332 -0.2851  0.0654
 3138TIP3    H1 9378   4.966   1.873   2.107 -1.3502 -0.0665  1.5112
 3138TIP3    H2 9379   4.846   1.939   2.044 -0.4472  1.1117  1.0022
 3139TIP3   OH2 9380   2.212   1.002   1.998 -0.3539 -0.4290 -0.5927
 3139TIP3    H1 9381   2.123   0.982   2.027 -0.3827  0.1517 -0.2639
 3139TIP3    H2 9382   2.228   0.942   1.925 -1.2176 -0.1505 -1.0256
 3140TIP3   OH2 9383   6.443   1.791   1.762  0.5600  0.5656 -0.0811
 3140TIP3    H1 9384   6.512   1.857   1.756  0.4778  0.5058 -2.5582
 3140TIP3    H2 9385   6.365   1.839   1.788  1.1654  0.8790  1.2428
 3141TIP3   OH2 9386   1.588   1.619   0.732 -0.2029 -0.2665  0.0065
 3141TIP3    H1 9387   1.656   1.553   0.745  0.2151  0.4147  1.5111
 3141TIP3    H2 9388   1.636   1.700   0.712 -0.4267  0.4671  2.1239
 3142TIP3   OH2 9389   3.963   0.084   5.471  0.0758  0.0212  0.1836
 3142TIP3    H1 9390   3.868   0.070   5.470  0.1662 -1.1394  2.2812
 3142TIP3    H2 9391   3.973   0.179   5.463 -1.4694  0.5640  3.2284
 3143TIP3   OH2 9392   5.257   4.934   4.009  0.3923  0.0572  0.2197
 3143TIP3    H1 9393   5.277   4.860   4.067  4.0185  0.3101 -0.4924
 3143TIP3    H2 9394   5.267   4.898   3.921 -0.1852  0.8428 -0.1723
 3144TIP3   OH2 9395   1.627   1.406   5.280  0.4918 -0.1561  0.5906
 3144TIP3    H1 9396   1.636   1.432   5.188 -0.9555 -4.8978 -1.1938
 3144TIP3    H2 9397   1.716   1.406   5.314  1.2228  0.5045 -1.1899
 3145TIP3   OH2 9398   3.862   3.303   0.968  0.3232 -0.1331 -0.0040
 3145TIP3    H1 9399   3.917   3.360   0.914 -1.2907  0.4892 -1.0625
 3145TIP3    H2 9400   3.924   3.247   1.014  1.9071  1.3949 -0.1540
 3146TIP3   OH2 9401   4.921   3.031   3.756 -0.5111  0.0513  0.2101
 3146TIP3    H1 9402   4.840   2.989   3.727  0.3208 -0.3895 -1.6924
 3146TIP3    H2 9403   4.968   3.050   3.675  0.7176  1.4914  1.2016
 3147TIP3   OH2 9404   2.660   2.111   0.308 -0.2867 -0.3892 -0.4176
 3147TIP3    H1 9405   2.718   2.040   0.280  1.2995  1.1431 -1.2757
 3147TIP3    H2 9406   2.574   2.087   0.274 -0.0295 -2.3684  0.2270
 3148TIP3   OH2 9407   6.192   4.388   3.294  0.3498 -0.3364 -0.1041
 3148TIP3    H1 9408   6.108   4.431   3.278  1.3097  1.2823 -1.1591
 3148TIP3    H2 9409   6.178   4.297   3.271 -1.0675 -0.0434 -0.4650
 3149TIP3   OH2 9410   1.814   0.388   2.651  0.3912 -0.5457  0.0585
 3149TIP3    H1 9411   1.764   0.344   2.720 -1.9857  0.0205 -1.1893
 3149TIP3    H2 9412   1.816   0.326   2.578  2.7383 -1.0719  0.4775
 3150TIP3   OH2 9413   5.112   1.348   5.231  0.5023  0.1646  0.2114
 3150TIP3    H1 9414   5.129   1.406   5.305  0.2620  0.8207 -0.2360
 3150TIP3    H2 9415   5.144   1.396   5.155 -2.0022  0.8767 -0.4933
 3151TIP3   OH2 9416   5.364   5.954   4.190  0.2550  0.2151  0.2786
 3151TIP3    H1 9417   5.399   6.008   4.118  1.1027  0.3830  0.8076
 3151TIP3    H2 9418   5.439   5.907   4.224 -0.3106 -0.5767  0.4692
 3152TIP3   OH2 9419   0.541   1.231   2.377  0.0482 -0.7882 -0.5803
 3152TIP3    H1 9420   0.557   1.175   2.453  1.0031  0.5519  0.2520
 3152TIP3    H2 9421   0.576   1.317   2.402 -0.0549 -0.1764 -2.3501
 3153TIP3   OH2 9422   4.036   0.170   0.217 -0.1872  0.0325 -0.1247
 3153TIP3    H1 9423   3.992   0.156   0.302 -1.0482  0.4201 -0.4950
 3153TIP3    H2 9424   4.086   0.250   0.230 -0.1886  0.0045  0.0691
 3154TIP3   OH2 9425   2.261   4.552   3.347  0.1927 -0.7114 -0.5494
 3154TIP3    H1 9426   2.329   4.537   3.281  1.5632 -0.2078  0.6888
 3154TIP3    H2 9427   2.255   4.469   3.394  0.4568 -0.5555 -0.2314
 3155TIP3   OH2 9428   2.002   2.640   1.207 -0.2698 -0.6133  0.4458
 3155TIP3    H1 9429   1.998   2.735   1.222 -2.1252 -0.6151  0.2267
 3155TIP3    H2 9430   2.002   2.602   1.295  1.1091 -0.4107  0.5437
 3156TIP3   OH2 9431   5.836   3.404   1.077 -0.2227 -0.0145 -0.0122
 3156TIP3    H1 9432   5.823   3.480   1.134 -2.9089  0.8431 -1.5625
 3156TIP3    H2 9433   5.827   3.328   1.134  2.2122  0.7525  1.5187
 3157TIP3   OH2 9434   6.521   1.641   5.023 -0.2520 -0.5996 -0.2181
 3157TIP3    H1 9435   6.444   1.585   5.025  1.3074 -2.9294 -0.5098
 3157TIP3    H2 9436   6.583   1.595   4.966  1.8243  0.4702  1.0257
 3158TIP3   OH2 9437   2.454   6.347   5.823  0.3658 -0.1105  0.2748
 3158TIP3    H1 9438   2.402   6.387   5.753  1.2755  0.4392 -0.1106
 3158TIP3    H2 9439   2.528   6.307   5.777  1.1906  0.6056  0.9519
 3159TIP3   OH2 9440   5.042   3.511   4.041 -0.3495 -0.8113 -0.0698
 3159TIP3    H1 9441   4.950   3.537   4.051  0.0193  1.1786 -1.4533
 3159TIP3    H2 9442   5.082   3.535   4.125 -0.6766  0.3211 -0.2157
 3160TIP3   OH2 9443   3.209   5.277   0.734 -0.2988 -0.1814 -0.4855
 3160TIP3    H1 9444   3.142   5.263   0.667 -0.8426 -1.0356  0.2044
 3160TIP3    H2 9445   3.291   5.255   0.691 -0.4032  1.1888 -1.4356
 3161TIP3   OH2 9446   2.806   2.220   0.996 -0.2033  0.6258  0.4041
 3161TIP3    H1 9447   2.776   2.309   1.016  0.5391  0.8288  0.6271
 3161TIP3    H2 9448   2.758   2.165   1.058  1.6858  1.2004  2.5113
 3162TIP3   OH2 9449   2.911   1.912   0.593  0.8349  0.8668  0.4987
 3162TIP3    H1 9450   2.960   1.881   0.669  0.5248 -1.8084 -0.2837
 3162TIP3    H2 9451   2.961   1.882   0.518  1.0777  3.3767 -0.4357
 3163TIP3   OH2 9452   3.875   1.134   5.122 -0.2586  0.0165 -0.0081
 3163TIP3    H1 9453   3.886   1.127   5.027  0.1722 -0.9503  0.1042
 3163TIP3    H2 9454   3.871   1.228   5.139 -0.0830  0.2028 -0.9564
 3164TIP3   OH2 9455   0.779   1.006   5.036  0.2776 -0.1209 -0.1659
 3164TIP3    H1 9456   0.748   1.095   5.051  0.4233 -0.2019  0.6581
 3164TIP3    H2 9457   0.837   1.013   4.960 -1.7765  0.0254 -1.8267
 3165TIP3   OH2 9458   2.805   5.851   1.660 -0.2837  0.0424 -0.6184
 3165TIP3    H1 9459   2.832   5.762   1.681 -1.8251 -0.3450 -0.1627
 3165TIP3    H2 9460   2.814   5.899   1.742  0.2987  0.2665 -0.8024
 3166TIP3   OH2 9461   0.928   6.534   5.670 -0.2010  0.2039 -0.5974
 3166TIP3    H1 9462   0.951   6.608   5.614 -0.0768  1.4638  1.0412
 3166TIP3    H2 9463   1.008   6.516   5.719  0.7601 -3.0245 -2.9597
 3167TIP3   OH2 9464   0.472   0.094   3.250 -0.3835 -0.7121  0.1662
 3167TIP3    H1 9465   0.389   0.099   3.298 -0.3087  0.1990  0.2123
 3167TIP3    H2 9466   0.451   0.043   3.171 -0.5638 -2.0130  1.0273
 3168TIP3   OH2 9467   3.397   3.914   5.853 -0.4222 -0.1438  0.4212
 3168TIP3    H1 9468   3.366   3.871   5.933 -1.3992  0.7399  0.5475
 3168TIP3    H2 9469   3.399   3.845   5.787 -0.5551 -0.6825  0.9750
 3169TIP3   OH2 9470   0.800   0.152   2.544 -0.3650 -0.4067  0.2299
 3169TIP3    H1 9471   0.751   0.175   2.623  0.4431  1.4280  0.2353
 3169TIP3    H2 9472   0.890   0.142   2.573 -0.2608 -0.9577 -0.2580
 3170TIP3   OH2 9473   5.488   1.783   2.277  0.2609 -0.3182 -0.5979
 3170TIP3    H1 9474   5.450   1.783   2.365 -1.3668  0.9018 -1.2389
 3170TIP3    H2 9475   5.573   1.826   2.287 -0.3267  0.6820  0.2350
 3171TIP3   OH2 9476   4.650   5.086   5.069 -0.4524  0.0618 -0.0021
 3171TIP3    H1 9477   4.635   5.179   5.083 -0.0549 -0.0325  1.1392
 3171TIP3    H2 9478   4.731   5.067   5.117 -0.1514 -0.7269 -0.8024
 3172TIP3   OH2 9479   6.973   2.898   1.047 -0.0417 -0.0166  0.2103
 3172TIP3    H1 9480   6.938   2.980   1.012  0.3647  0.6276  1.2404
 3172TIP3    H2 9481   7.045   2.926   1.104 -1.1956 -0.8991  2.2174
 3173TIP3   OH2 9482   3.286   3.211   5.515  0.4411 -0.4252 -0.6385
 3173TIP3    H1 9483   3.329   3.273   5.457  1.2978 -0.0199  0.3971
 3173TIP3    H2 9484   3.357   3.177   5.570 -0.4879  0.0151  0.8903
 3174TIP3   OH2 9485   5.540   6.807   5.546 -0.0784 -0.5514 -0.2586
 3174TIP3    H1 9486   5.576   6.720   5.531 -0.0381 -0.6004  0.1144
 3174TIP3    H2 9487   5.561   6.826   5.637  0.1775 -0.0220 -0.4277
 3175TIP3   OH2 9488   0.253   0.706   2.344 -0.0801  0.3274  0.1491
 3175TIP3    H1 9489   0.280   0.630   2.291 -0.5089 -0.4306  0.9851
 3175TIP3    H2 9490   0.327   0.767   2.337  0.9884 -0.8447  0.7381
 3176TIP3   OH2 9491   0.101   2.805   2.348  0.7669 -0.0660  0.3311
 3176TIP3    H1 9492   0.189   2.768   2.349  0.6451 -0.3640  1.2504
 3176TIP3    H2 9493   0.105   2.877   2.284  1.1977 -1.1838 -0.9360
 3177TIP3   OH2 9494   4.231   4.086   5.778  0.4479 -0.3031  0.0342
 3177TIP3    H1 9495   4.286   4.030   5.833 -0.1624  0.4679  1.5158
 3177TIP3    H2 9496   4.228   4.042   5.693  2.1356 -1.1099  0.3427
 3178TIP3   OH2 9497   2.424   4.347   2.231 -0.4681 -0.3309  0.2893
 3178TIP3    H1 9498   2.429   4.427   2.282 -1.0733 -0.4996  0.6240
 3178TIP3    H2 9499   2.513   4.333   2.199 -0.6665  1.3814 -1.1760
 3179TIP3   OH2 9500   4.735   1.144   1.782 -0.3842  0.2104  1.0718
 3179TIP3    H1 9501   4.827   1.121   1.769  0.2089  1.5381  2.5975
 3179TIP3    H2 9502   4.687   1.064   1.758  1.3508 -1.6732  3.3557
 3180TIP3   OH2 9503   3.532   6.478   4.611 -0.0325  0.2057 -0.4203
 3180TIP3    H1 9504   3.618   6.488   4.570  0.0738 -1.8534 -0.7924
 3180TIP3    H2 9505   3.517   6.562   4.655  2.0719  0.6928 -0.5017
 3181TIP3   OH2 9506   3.425   0.676   0.635 -0.1532  0.5670  0.1423
 3181TIP3    H1 9507   3.424   0.653   0.728 -1.4930 -1.7274 -0.3684
 3181TIP3    H2 9508   3.333   0.685   0.611  0.2134  2.7202 -0.6499
 3182TIP3   OH2 9509   2.590   5.836   5.720  0.2402 -0.5256  0.0748
 3182TIP3    H1 9510   2.636   5.916   5.748  3.0393 -1.5786 -1.0816
 3182TIP3    H2 9511   2.631   5.814   5.636 -2.3657 -1.7394 -0.9713
 3183TIP3   OH2 9512   5.868   2.126   3.665  0.2866  0.6371  0.2756
 3183TIP3    H1 9513   5.814   2.200   3.639 -0.4929  0.1062  0.3418
 3183TIP3    H2 9514   5.850   2.059   3.599 -2.1592 -0.9441  2.3747
 3184TIP3   OH2 9515   1.825   0.590   1.874 -0.6089 -0.8479 -0.6956
 3184TIP3    H1 9516   1.796   0.548   1.793 -0.5486 -0.5915 -0.8500
 3184TIP3    H2 9517   1.772   0.669   1.880  1.4624  0.7290 -2.0553
 3185TIP3   OH2 9518   2.711   5.355   1.453  0.3375  0.4838  0.3411
 3185TIP3    H1 9519   2.688   5.415   1.383  0.9207  1.6191  1.0784
 3185TIP3    H2 9520   2.708   5.268   1.413  0.4750  1.0858 -1.0291
 3186TIP3   OH2 9521   1.235   0.993   3.078 -0.2057 -0.5716 -0.6537
 3186TIP3    H1 9522   1.264   1.020   3.165  0.3418  0.8222 -1.2408
 3186TIP3    H2 9523   1.189   0.910   3.093  0.7975 -0.9088  0.8131
 3187TIP3   OH2 9524   6.707   3.756   3.415 -0.0368 -0.4175  0.2765
 3187TIP3    H1 9525   6.611   3.746   3.415  0.0683 -1.6662 -0.5777
 3187TIP3    H2 9526   6.726   3.802   3.333  0.1285 -0.5344  0.2498
 3188TIP3   OH2 9527   4.275   3.496   2.866  0.4567  0.0514  0.2438
 3188TIP3    H1 9528   4.346   3.475   2.806  0.0050 -1.6857  0.2866
 3188TIP3    H2 9529   4.234   3.574   2.827  0.7512 -0.4780 -1.1902
 3189TIP3   OH2 9530   3.034   5.732   5.197  0.2841 -0.3130  0.0348
 3189TIP3    H1 9531   2.996   5.723   5.110 -0.3956 -0.2132  0.3167
 3189TIP3    H2 9532   3.077   5.648   5.214  0.3196 -0.3727 -0.3446
 3190TIP3   OH2 9533   6.224   2.310   1.809 -0.1097  0.5680 -0.1748
 3190TIP3    H1 9534   6.235   2.239   1.872  0.4305  0.7217 -0.0932
 3190TIP3    H2 9535   6.182   2.380   1.859  0.4605  0.7474  0.0561
 3191TIP3   OH2 9536   4.135   3.708   0.708 -0.1098 -0.1233  0.0428
 3191TIP3    H1 9537   4.199   3.754   0.762  1.4009 -0.3694 -1.4404
 3191TIP3    H2 9538   4.157   3.734   0.618 -2.4068  0.1306 -0.4961
 3192TIP3   OH2 9539   2.224   0.390   3.027  0.0471 -0.5824  0.3912
 3192TIP3    H1 9540   2.201   0.313   3.079 -0.4557 -0.0199  1.0222
 3192TIP3    H2 9541   2.206   0.464   3.085 -2.2312  0.1798 -1.1688
 3193TIP3   OH2 9542   7.120   4.136   2.252  0.0867  0.0445 -0.3067
 3193TIP3    H1 9543   7.177   4.093   2.316 -0.1452  0.9712  0.5511
 3193TIP3    H2 9544   7.169   4.134   2.170  0.5718 -0.7829 -0.0086
 3194TIP3   OH2 9545   3.403   4.235   0.879  0.3750  1.0459  0.4316
 3194TIP3    H1 9546   3.372   4.325   0.881 -1.2507  0.5463  2.9091
 3194TIP3    H2 9547   3.496   4.240   0.898  0.6406  2.2649 -1.0621
 3195TIP3   OH2 9548   5.310   5.007   5.275  0.3334  0.1844  0.3723
 3195TIP3    H1 9549   5.227   4.962   5.287  0.2206  0.5756  1.1178
 3195TIP3    H2 9550   5.346   5.016   5.363  2.0586 -1.6122 -0.0802
 3196TIP3   OH2 9551   1.803   5.313   1.656 -0.7884  0.4800 -0.7196
 3196TIP3    H1 9552   1.849   5.268   1.727 -0.6655 -0.4510 -1.3780
 3196TIP3    H2 9553   1.849   5.397   1.647  0.8834 -0.4724 -1.4436
 3197TIP3   OH2 9554   6.908   3.563   2.026 -0.2355 -0.3821 -0.5900
 3197TIP3    H1 9555   6.840   3.539   1.963 -0.2738  2.6065 -1.8533
 3197TIP3    H2 9556   6.861   3.598   2.101 -0.1208 -1.4599  0.0032
 3198TIP3   OH2 9557   6.895   0.103   4.527 -0.0531  0.5415  0.1261
 3198TIP3    H1 9558   6.822   0.159   4.501  0.1384 -0.0398 -1.8022
 3198TIP3    H2 9559   6.929   0.068   4.445  0.0851 -2.0737  1.1976
 3199TIP3   OH2 9560   6.805   6.780   2.459 -0.8113  0.3962  0.0522
 3199TIP3    H1 9561   6.895   6.759   2.485 -0.7685  0.0132 -0.3975
 3199TIP3    H2 9562   6.815   6.826   2.375 -1.0323  0.3551  0.0024
 3200TIP3   OH2 9563   6.856   5.746   5.495  0.1841 -0.4535 -0.3637
 3200TIP3    H1 9564   6.871   5.767   5.588 -0.9338 -1.7179  0.1368
 3200TIP3    H2 9565   6.909   5.810   5.447 -0.6547  1.4594  1.0945
 3201TIP3   OH2 9566   4.898   4.503   0.075  0.1385 -0.1241 -0.1203
 3201TIP3    H1 9567   4.901   4.490  -0.019 -0.3373 -0.5083 -0.0862
 3201TIP3    H2 9568   4.990   4.502   0.103  0.3386  0.8892 -0.6908
 3202TIP3   OH2 9569   4.343   2.988   2.617 -0.0086 -0.2862 -0.1146
 3202TIP3    H1 9570   4.266   2.961   2.667  0.6371 -0.4776  0.8150
 3202TIP3    H2 9571   4.368   2.910   2.567 -0.0818 -0.4021  0.0292
 3203TIP3   OH2 9572   3.416   0.154   5.241 -0.2990  0.3942  0.0286
 3203TIP3    H1 9573   3.486   0.196   5.191  0.8803 -0.0449  1.2554
 3203TIP3    H2 9574   3.381   0.223   5.297 -1.4650  0.8273 -1.1674
 3204TIP3   OH2 9575   2.916   1.347   2.961 -0.0501 -0.2446 -0.0733
 3204TIP3    H1 9576   2.890   1.439   2.967  0.5256 -0.1359  0.8360
 3204TIP3    H2 9577   2.977   1.334   3.034  1.5973 -0.7707 -1.4548
 3205TIP3   OH2 9578   5.798   5.465   1.801 -0.2850  0.1039 -0.4960
 3205TIP3    H1 9579   5.736   5.509   1.859  0.4729 -0.8064  1.0669
 3205TIP3    H2 9580   5.841   5.400   1.857  2.3054  0.8997 -1.4028
 3206TIP3   OH2 9581   5.178   5.628   4.899  0.0551  0.1054 -0.0196
 3206TIP3    H1 9582   5.270   5.604   4.901 -0.0980 -1.0321 -2.2381
 3206TIP3    H2 9583   5.158   5.635   4.805 -2.4966 -1.4749  0.3068
 3207TIP3   OH2 9584   1.800   0.296   1.275  0.0812 -0.7633 -0.1514
 3207TIP3    H1 9585   1.766   0.385   1.275 -1.3639 -1.2821 -0.4203
 3207TIP3    H2 9586   1.835   0.284   1.186  2.3117  0.2154  0.5194
 3208TIP3   OH2 9587   6.254   4.708   2.213  0.0902  0.0673  0.0888
 3208TIP3    H1 9588   6.165   4.677   2.195  0.2025 -0.2896  0.1344
 3208TIP3    H2 9589   6.268   4.780   2.151 -0.0573 -0.1911 -0.2466
 3209TIP3   OH2 9590   2.381   4.274   3.783  0.3561  0.1630 -0.4337
 3209TIP3    H1 9591   2.320   4.225   3.837  1.4501 -1.2306 -0.4194
 3209TIP3    H2 9592   2.447   4.210   3.757 -0.4602  0.5907 -3.9902
 3210TIP3   OH2 9593   6.996   2.200   0.696  0.3825  0.4936 -0.1479
 3210TIP3    H1 9594   6.983   2.255   0.773  0.8577  0.5397 -0.0972
 3210TIP3    H2 9595   7.053   2.252   0.639  0.3030  0.3221 -0.3840
 3211TIP3   OH2 9596   4.277   5.125   2.586  0.0506  0.1024 -0.5754
 3211TIP3    H1 9597   4.241   5.053   2.534  3.0366 -2.3979  0.4840
 3211TIP3    H2 9598   4.353   5.154   2.537 -0.5454  1.9555 -0.4791
 3212TIP3   OH2 9599   1.539   6.462   2.865  0.2552 -0.3193 -0.0192
 3212TIP3    H1 9600   1.464   6.473   2.923  1.5084  1.3708  1.3880
 3212TIP3    H2 9601   1.615   6.481   2.920  1.7639 -2.1994 -1.3345
 3213TIP3   OH2 9602   6.484   5.903   4.872 -0.0748 -0.1775  0.0264
 3213TIP3    H1 9603   6.472   5.989   4.832 -1.0885  0.3094  1.3194
 3213TIP3    H2 9604   6.402   5.886   4.917  0.7551 -1.0284  1.2848
 3214TIP3   OH2 9605   1.966   6.031   3.694 -0.1945 -0.2985 -0.3086
 3214TIP3    H1 9606   1.903   5.969   3.657 -1.0536  0.1125  0.4264
 3214TIP3    H2 9607   1.912   6.093   3.744  0.9469 -1.5810  2.7935
 3215TIP3   OH2 9608   1.994   4.244   1.684 -0.3098  0.5928  0.1409
 3215TIP3    H1 9609   2.061   4.177   1.697  0.3805  1.1542 -0.4201
 3215TIP3    H2 9610   2.036   4.308   1.626 -1.1326  1.2475  0.2578
 3216TIP3   OH2 9611   3.392   1.555   1.228 -0.3644  0.3844 -0.0989
 3216TIP3    H1 9612   3.350   1.634   1.195  1.2623  1.6923  0.8141
 3216TIP3    H2 9613   3.412   1.504   1.149 -2.1456  0.4538 -0.6470
 3217TIP3   OH2 9614   6.355   5.266   2.352 -0.1650  0.2687 -0.2128
 3217TIP3    H1 9615   6.337   5.172   2.349 -0.0401  0.2240  0.3286
 3217TIP3    H2 9616   6.413   5.282   2.277  1.6756 -0.5072  0.9727
 3218TIP3   OH2 9617   1.983   5.214   1.858  0.0286 -0.5676 -0.4466
 3218TIP3    H1 9618   2.050   5.283   1.857 -1.6552  1.2378  1.5722
 3218TIP3    H2 9619   2.033   5.132   1.847  2.4665  0.7323  0.2263
 3219TIP3   OH2 9620   3.733   5.322   5.452 -0.0693 -0.1042 -0.3864
 3219TIP3    H1 9621   3.712   5.403   5.406 -1.5307 -1.5352 -2.4232
 3219TIP3    H2 9622   3.648   5.281   5.470  0.6137 -0.9951  1.0078
 3220TIP3   OH2 9623   4.116   6.189   0.856  0.3006  0.1536  0.2531
 3220TIP3    H1 9624   4.112   6.224   0.945  1.2847 -0.5207  0.5838
 3220TIP3    H2 9625   4.036   6.138   0.847 -0.1926  0.8718  0.4583
 3221TIP3   OH2 9626   6.351   2.736   3.265 -0.2654  0.5774  0.1560
 3221TIP3    H1 9627   6.261   2.704   3.261  0.1146 -0.7755  1.3944
 3221TIP3    H2 9628   6.344   2.829   3.242 -2.1269  0.7548  1.1544
 3222TIP3   OH2 9629   2.114   0.568   3.828 -0.3723  0.4685 -0.4212
 3222TIP3    H1 9630   2.168   0.497   3.864 -2.8911 -0.9369  0.8189
 3222TIP3    H2 9631   2.070   0.529   3.753 -1.8069  0.6713  0.2910
 3223TIP3   OH2 9632   2.683   0.542   1.984 -0.1456 -0.0661 -0.1153
 3223TIP3    H1 9633   2.612   0.563   2.045  0.5425  0.6942  0.4452
 3223TIP3    H2 9634   2.665   0.452   1.957  0.8115 -1.3197  3.0265
 3224TIP3   OH2 9635   6.467   4.976   2.556  0.2799  0.2133  0.0771
 3224TIP3    H1 9636   6.440   4.926   2.634  1.1850 -0.9126 -0.2925
 3224TIP3    H2 9637   6.435   4.923   2.483  1.5532 -0.0101 -0.3299
 3225TIP3   OH2 9638   2.656   0.943   4.436 -0.2125 -0.3926  0.3755
 3225TIP3    H1 9639   2.720   0.942   4.507 -0.7116 -2.3451  0.8594
 3225TIP3    H2 9640   2.670   0.860   4.390 -0.0198  0.7333 -1.7574
 3226TIP3   OH2 9641   5.871   2.202   4.979  0.4536 -1.0064  0.1985
 3226TIP3    H1 9642   5.811   2.195   5.054  1.6610 -0.8312  1.2055
 3226TIP3    H2 9643   5.815   2.187   4.903 -1.2718  0.9814  0.9696
 3227TIP3   OH2 9644   2.681   4.032   2.200 -0.2838 -0.3105  0.0819
 3227TIP3    H1 9645   2.660   4.124   2.184  0.7106  0.0552  0.7893
 3227TIP3    H2 9646   2.691   4.026   2.295  1.2947 -0.7588 -0.0873
 3228TIP3   OH2 9647   2.027   6.331   5.638  0.0101 -0.8485  0.5652
 3228TIP3    H1 9648   2.022   6.381   5.719  2.4626  2.0330 -0.8896
 3228TIP3    H2 9649   1.936   6.325   5.608 -0.5012  1.9842  1.3034
 3229TIP3   OH2 9650   0.286   1.024   4.097  0.1474  0.3508  0.0694
 3229TIP3    H1 9651   0.371   1.043   4.058  0.3086  2.0305  1.1459
 3229TIP3    H2 9652   0.306   0.999   4.187 -0.2781 -2.6823 -0.5880
 3230TIP3   OH2 9653   2.711   6.094   5.805 -0.0399 -0.0260  0.1214
 3230TIP3    H1 9654   2.744   6.144   5.730  1.6554 -0.3260  0.6354
 3230TIP3    H2 9655   2.687   6.161   5.870  0.5380  0.1706  0.1318
 3231TIP3   OH2 9656   4.930   1.824   0.951  0.1883 -0.6496 -0.2787
 3231TIP3    H1 9657   4.994   1.824   0.879 -0.1493 -1.3868 -0.5868
 3231TIP3    H2 9658   4.980   1.797   1.027  0.8125  1.2161  0.0315
 3232TIP3   OH2 9659   0.949   0.777   4.619 -0.2066 -0.7173  0.1764
 3232TIP3    H1 9660   1.039   0.781   4.587  0.0457  1.1977  1.0225
 3232TIP3    H2 9661   0.910   0.704   4.571  1.0991 -0.0673 -2.0109
 3233TIP3   OH2 9662   2.785   3.886   3.278  0.1948  0.0743 -0.4548
 3233TIP3    H1 9663   2.845   3.937   3.333  0.0906  0.2279 -0.4806
 3233TIP3    H2 9664   2.823   3.798   3.275  0.7079  0.3093 -0.9249
 3234TIP3   OH2 9665   3.585   3.878   2.534 -0.4118  0.0520  0.3528
 3234TIP3    H1 9666   3.551   3.959   2.571  0.7809  0.2094  1.1693
 3234TIP3    H2 9667   3.578   3.889   2.439  1.6958  2.0157  0.3590
 3235TIP3   OH2 9668   3.448   3.033   0.994  0.2554  0.2211  0.1896
 3235TIP3    H1 9669   3.469   3.014   1.086 -1.4621 -0.3885  0.4852
 3235TIP3    H2 9670   3.529   3.069   0.959  0.5136  2.0212  2.3693
 3236TIP3   OH2 9671   1.243   3.326   2.492 -0.2481 -0.5309  0.6840
 3236TIP3    H1 9672   1.165   3.359   2.537  0.8696  0.1323  2.2073
 3236TIP3    H2 9673   1.253   3.237   2.523 -0.2743 -0.5398  0.6667
 3237TIP3   OH2 9674   4.122   2.636   5.235 -0.0509 -0.0884 -0.3115
 3237TIP3    H1 9675   4.187   2.598   5.176 -0.9267 -0.9439 -0.7506
 3237TIP3    H2 9676   4.137   2.591   5.318  0.8586  0.7647  0.0080
 3238TIP3   OH2 9677   1.282   0.075   4.879 -0.3002  0.3186 -0.1505
 3238TIP3    H1 9678   1.238   0.055   4.962 -0.2931 -2.7066 -0.7534
 3238TIP3    H2 9679   1.244   0.158   4.852 -2.5442 -0.0827  1.4171
 3239TIP3   OH2 9680   6.011   0.705   1.207  0.3320 -0.0326  0.1134
 3239TIP3    H1 9681   6.046   0.619   1.183 -0.3612 -0.3300  0.1231
 3239TIP3    H2 9682   6.042   0.764   1.138  2.3772  0.1109  1.0844
 3240TIP3   OH2 9683   0.248   4.417   2.749  0.0732  0.2266  0.1209
 3240TIP3    H1 9684   0.190   4.406   2.673  0.8621 -3.5203 -0.1386
 3240TIP3    H2 9685   0.191   4.447   2.819 -1.9208 -1.7675 -0.5376
 3241TIP3   OH2 9686   0.555   2.676   4.507  0.0445  0.1084  0.0563
 3241TIP3    H1 9687   0.557   2.713   4.596  1.1140 -0.6667  0.3696
 3241TIP3    H2 9688   0.479   2.717   4.466  0.6128  1.9122  0.7075
 3242TIP3   OH2 9689   5.655   2.549   0.364 -0.5253  0.6107  0.2610
 3242TIP3    H1 9690   5.691   2.620   0.417 -0.5107  0.8734 -0.0939
 3242TIP3    H2 9691   5.667   2.579   0.274  2.9371 -1.3992 -0.1315
 3243TIP3   OH2 9692   2.744   5.838   0.588  0.0461 -0.8335 -0.2984
 3243TIP3    H1 9693   2.684   5.911   0.575  1.0050  0.1688  0.6379
 3243TIP3    H2 9694   2.740   5.820   0.682  1.7482 -0.2352 -0.0835
 3244TIP3   OH2 9695   2.492   4.282   4.341  0.4618 -0.1555 -0.0451
 3244TIP3    H1 9696   2.550   4.277   4.417  1.2496 -0.6601 -0.6615
 3244TIP3    H2 9697   2.551   4.295   4.266 -0.2433 -0.3010 -0.6401
 3245TIP3   OH2 9698   5.266   1.636   1.657  0.1477 -1.0366 -0.6860
 3245TIP3    H1 9699   5.200   1.611   1.592 -1.7951  1.8286 -0.0124
 3245TIP3    H2 9700   5.239   1.592   1.738 -1.4239  0.6183 -0.2538
 3246TIP3   OH2 9701   0.926   2.177   3.047  0.0082 -0.3945 -0.1983
 3246TIP3    H1 9702   0.851   2.226   3.014 -0.2430 -1.0290 -0.5814
 3246TIP3    H2 9703   0.987   2.175   2.973 -0.2081 -1.1108 -0.3641
 3247TIP3   OH2 9704   0.769   0.120   2.284  0.1859 -0.0118  0.9386
 3247TIP3    H1 9705   0.813   0.040   2.255  0.5642  0.6120 -0.2551
 3247TIP3    H2 9706   0.802   0.135   2.373  0.0557 -1.1963  1.2127
 3248TIP3   OH2 9707   6.953   3.096   4.235 -0.1680  0.3484  0.2607
 3248TIP3    H1 9708   6.967   3.007   4.266 -0.6262  0.2862  0.3045
 3248TIP3    H2 9709   7.039   3.125   4.204  0.1105  0.1079  0.7997
 3249TIP3   OH2 9710   1.766   1.183   5.028  0.2288  0.0144 -0.1623
 3249TIP3    H1 9711   1.853   1.189   5.068 -0.0596 -0.1960  0.5116
 3249TIP3    H2 9712   1.733   1.273   5.027 -0.2532 -0.1289  1.2138
 3250TIP3   OH2 9713   2.681   2.001   1.993  0.4649 -0.0664 -0.1002
 3250TIP3    H1 9714   2.597   1.993   2.037 -0.1906  1.8390 -0.8939
 3250TIP3    H2 9715   2.746   1.995   2.063 -0.2710 -1.8153  0.4944
 3251TIP3   OH2 9716   1.071   0.440   1.701 -0.2540 -0.6056 -0.4868
 3251TIP3    H1 9717   1.032   0.507   1.756 -0.0613 -1.3162  0.5470
 3251TIP3    H2 9718   1.006   0.370   1.699 -0.8164 -0.0874 -2.2380
 3252TIP3   OH2 9719   3.513   2.114   5.551 -0.5884  0.4446 -0.7942
 3252TIP3    H1 9720   3.473   2.061   5.621  0.0980 -0.3400 -0.9717
 3252TIP3    H2 9721   3.521   2.053   5.477  2.5288 -0.0178 -0.2193
 3253TIP3   OH2 9722   4.798   6.661   3.108 -0.5151 -0.0660  0.3004
 3253TIP3    H1 9723   4.781   6.620   3.193 -0.5224 -2.5827 -0.8298
 3253TIP3    H2 9724   4.762   6.749   3.117 -1.0561 -0.4512  2.6981
 3254TIP3   OH2 9725   2.113   4.302   0.581 -0.1979  0.2686 -0.0479
 3254TIP3    H1 9726   2.103   4.396   0.567 -1.3164  0.0906 -0.6301
 3254TIP3    H2 9727   2.166   4.272   0.507 -1.3458  0.1913 -0.8661
 3255TIP3   OH2 9728   0.249   2.619   4.142 -0.2662 -0.2457  0.6548
 3255TIP3    H1 9729   0.227   2.526   4.153  1.8842 -0.8305  0.3990
 3255TIP3    H2 9730   0.301   2.623   4.062  1.6052  0.7891  1.8356
 3256TIP3   OH2 9731   3.661   6.424   1.901 -0.2403 -0.1666  0.0058
 3256TIP3    H1 9732   3.705   6.358   1.954  1.0544  1.0946  0.5701
 3256TIP3    H2 9733   3.689   6.405   1.811 -1.2315 -1.3902 -0.0587
 3257TIP3   OH2 9734   4.458   3.674   4.888 -0.4424 -0.1833  0.2476
 3257TIP3    H1 9735   4.509   3.592   4.891 -0.4589 -0.1950  0.2100
 3257TIP3    H2 9736   4.524   3.743   4.890 -0.3990 -0.2049 -0.3186
 3258TIP3   OH2 9737   6.575   3.241   4.318  0.3298 -0.2816  0.3248
 3258TIP3    H1 9738   6.490   3.281   4.297  1.3266  0.8965 -1.7970
 3258TIP3    H2 9739   6.553   3.168   4.376 -2.0189  0.6021  0.6681
 3259TIP3   OH2 9740   3.615   4.969   1.929  0.1996  0.3081  0.0685
 3259TIP3    H1 9741   3.562   4.959   2.008 -0.2861 -0.8661 -0.3746
 3259TIP3    H2 9742   3.568   5.033   1.876 -0.1865  0.1103  0.1671
 3260TIP3   OH2 9743   5.179   2.594   0.987  0.4702 -0.4950 -1.0281
 3260TIP3    H1 9744   5.216   2.532   0.924  0.9285  0.0857 -1.3498
 3260TIP3    H2 9745   5.237   2.671   0.980 -0.5891  0.3014 -1.2754
 3261TIP3   OH2 9746   2.478   5.318   0.767  0.1289  0.2685 -0.2947
 3261TIP3    H1 9747   2.384   5.331   0.752  0.4170  1.5826 -1.0757
 3261TIP3    H2 9748   2.483   5.290   0.859 -0.9347  1.5234  0.1862
 3262TIP3   OH2 9749   2.802   6.644   5.030 -0.4897 -0.4661  0.3540
 3262TIP3    H1 9750   2.788   6.612   4.941 -0.0770  1.5146 -0.4731
 3262TIP3    H2 9751   2.882   6.696   5.025 -0.2526 -0.6080  1.9814
 3263TIP3   OH2 9752   4.199   1.070   1.491 -0.3353 -0.0053 -0.0278
 3263TIP3    H1 9753   4.208   1.015   1.413 -0.1432  1.1279 -0.8237
 3263TIP3    H2 9754   4.124   1.032   1.538  0.7414 -1.8935  0.2633
 3264TIP3   OH2 9755   3.403   1.280   0.343 -0.2313  0.0949  0.3778
 3264TIP3    H1 9756   3.457   1.211   0.382  0.3326  0.4138  0.1672
 3264TIP3    H2 9757   3.416   1.356   0.400  0.2168  0.4212 -0.1476
 3265TIP3   OH2 9758   5.758   0.705   3.161  0.9668  0.1784  0.1220
 3265TIP3    H1 9759   5.707   0.624   3.151  0.7743  0.2593  0.4281
 3265TIP3    H2 9760   5.841   0.686   3.119 -0.4534  1.1502 -3.5428
 3266TIP3   OH2 9761   4.673   3.689   3.617  0.4012  0.4638  0.2520
 3266TIP3    H1 9762   4.678   3.773   3.664 -1.0083  1.0718 -0.5993
 3266TIP3    H2 9763   4.759   3.650   3.628  0.7788  1.5750  1.5105
 3267TIP3   OH2 9764   1.409   4.029   0.707 -0.2468 -0.0551 -0.1144
 3267TIP3    H1 9765   1.409   3.988   0.794  1.2706 -1.8491 -0.8975
 3267TIP3    H2 9766   1.318   4.020   0.677 -0.7624  0.4677  1.1860
 3268TIP3   OH2 9767   5.170   3.747   2.603  0.2983  0.2747 -0.6398
 3268TIP3    H1 9768   5.147   3.836   2.632  0.7681  0.9864 -2.3099
 3268TIP3    H2 9769   5.258   3.733   2.638  1.1087  1.3648 -2.1235
 3269TIP3   OH2 9770   0.870   2.697   2.238 -0.1603 -0.2151  0.4522
 3269TIP3    H1 9771   0.899   2.777   2.281  0.6380 -0.5799  0.6096
 3269TIP3    H2 9772   0.909   2.627   2.289  0.9278 -0.6586 -0.8945
 3270TIP3   OH2 9773   5.597   0.999   5.690  0.0720  0.0792 -0.1454
 3270TIP3    H1 9774   5.510   1.013   5.727 -0.2275  1.1338 -1.2051
 3270TIP3    H2 9775   5.625   1.086   5.660  1.1203 -0.3961 -0.5881
 3271TIP3   OH2 9776   3.313   1.698   0.231 -0.1974 -0.3379  0.1570
 3271TIP3    H1 9777   3.342   1.755   0.160 -0.3026  0.6784  0.9223
 3271TIP3    H2 9778   3.293   1.615   0.187  1.6521 -0.3778 -0.7152
 3272TIP3   OH2 9779   1.684   3.446   3.395  0.3491  0.1113 -0.5762
 3272TIP3    H1 9780   1.737   3.504   3.449  2.8609 -0.7232 -1.9974
 3272TIP3    H2 9781   1.642   3.504   3.331 -2.7260  1.1199  2.1013
 3273TIP3   OH2 9782   2.229   6.094   1.677 -0.3145  0.4940 -0.1304
 3273TIP3    H1 9783   2.270   6.167   1.632 -1.2957  0.7215 -0.6983
 3273TIP3    H2 9784   2.298   6.029   1.687  0.0448  0.6287 -1.5590
 3274TIP3   OH2 9785   4.853   4.176   0.338  0.1682 -0.4588 -0.3515
 3274TIP3    H1 9786   4.806   4.225   0.405 -1.8792  0.2725 -2.2013
 3274TIP3    H2 9787   4.933   4.226   0.322 -1.6437  2.1859 -1.8495
 3275TIP3   OH2 9788   4.815   1.987   3.625  0.4983 -0.1382  0.0963
 3275TIP3    H1 9789   4.751   2.052   3.652 -0.0657  1.2971 -3.9888
 3275TIP3    H2 9790   4.893   2.038   3.602  1.1271 -1.2606 -0.3260
 3276TIP3   OH2 9791   2.266   6.168   1.303  0.0570  0.3734 -0.6568
 3276TIP3    H1 9792   2.357   6.167   1.273 -0.4580 -0.0993 -2.3230
 3276TIP3    H2 9793   2.269   6.207   1.391  1.7863  0.8606 -0.9090
 3277TIP3   OH2 9794   2.827   1.347   3.799  0.1384  0.5874  0.0917
 3277TIP3    H1 9795   2.916   1.343   3.834 -0.2170  1.6527  1.1784
 3277TIP3    H2 9796   2.833   1.302   3.715  1.2834 -1.0734  0.9896
 3278TIP3   OH2 9797   2.266   4.795   5.075 -1.0936 -0.2053 -0.5416
 3278TIP3    H1 9798   2.327   4.724   5.099 -1.1170 -0.1140 -0.2085
 3278TIP3    H2 9799   2.309   4.840   5.003  1.2826  2.4800  2.2814
 3279TIP3   OH2 9800   0.652   2.621   3.297  0.3290  0.1466  0.1584
 3279TIP3    H1 9801   0.689   2.537   3.323 -3.5991 -1.5799  0.9620
 3279TIP3    H2 9802   0.692   2.640   3.213  4.1408 -0.4942  1.6273
 3280TIP3   OH2 9803   2.093   4.861   0.273  0.4905  0.3394  0.0760
 3280TIP3    H1 9804   2.135   4.947   0.267 -0.5992  0.7967 -1.9012
 3280TIP3    H2 9805   2.006   4.874   0.235  0.2402 -1.6127 -0.1405
 3281TIP3   OH2 9806   3.014   0.349   1.458  0.0916  0.0515 -0.4703
 3281TIP3    H1 9807   2.966   0.426   1.427 -0.2359 -0.4042 -1.1135
 3281TIP3    H2 9808   3.069   0.324   1.384  1.1656  0.4277  0.1822
 3282TIP3   OH2 9809   3.838   2.221   1.044 -0.0511 -0.6354 -0.3713
 3282TIP3    H1 9810   3.775   2.166   1.090  0.3935 -2.6467 -2.0219
 3282TIP3    H2 9811   3.893   2.159   0.995  1.8005  1.1779 -0.7060
 3283TIP3   OH2 9812   2.588   6.543   1.350  0.2452 -0.0024  0.1615
 3283TIP3    H1 9813   2.554   6.454   1.359  1.0900 -0.4967 -1.2655
 3283TIP3    H2 9814   2.676   6.532   1.315 -0.3378  1.4070 -1.9840
 3284TIP3   OH2 9815   4.518   0.322   0.494  0.1722  0.0288  0.1026
 3284TIP3    H1 9816   4.425   0.303   0.508 -0.3413  0.8783 -1.7893
 3284TIP3    H2 9817   4.521   0.417   0.482  1.2307 -0.0344 -0.1889
 3285TIP3   OH2 9818   1.810   4.354   4.619  0.0548 -0.5160 -0.6954
 3285TIP3    H1 9819   1.880   4.413   4.645 -0.1056 -0.3306 -0.6857
 3285TIP3    H2 9820   1.852   4.268   4.612 -0.2953 -1.0353  2.3114
 3286TIP3   OH2 9821   0.396   0.142   4.510 -0.1276 -0.3155  0.3716
 3286TIP3    H1 9822   0.332   0.139   4.439  0.2415  0.4006 -0.0022
 3286TIP3    H2 9823   0.350   0.185   4.582 -0.6037 -1.3164  0.6912
 3287TIP3   OH2 9824   1.284   3.241   4.676  0.0599 -0.0121  0.5670
 3287TIP3    H1 9825   1.273   3.335   4.658 -0.0908  0.0049  0.7482
 3287TIP3    H2 9826   1.201   3.214   4.714  0.1048 -0.2205  0.5177
 3288TIP3   OH2 9827   5.725   0.098   0.662 -0.8776  0.0478  0.3326
 3288TIP3    H1 9828   5.685   0.066   0.743 -1.4899  1.0548  0.4442
 3288TIP3    H2 9829   5.674   0.175   0.639 -1.3689 -0.7929 -1.5928
 3289TIP3   OH2 9830   1.333   1.178   1.276  0.2778  0.1968 -0.2664
 3289TIP3    H1 9831   1.247   1.153   1.311  0.9113 -1.6235  0.1158
 3289TIP3    H2 9832   1.349   1.114   1.207  0.9311  1.1133 -0.9826
 3290TIP3   OH2 9833   1.406   4.575   2.640 -0.1883 -0.3865  0.5238
 3290TIP3    H1 9834   1.399   4.611   2.552  1.7637  0.5417  0.6920
 3290TIP3    H2 9835   1.354   4.634   2.694  0.6670  0.5396  0.3588
 3291TIP3   OH2 9836   2.776   3.769   3.595  0.6352 -0.2903  0.4430
 3291TIP3    H1 9837   2.791   3.863   3.588  0.8035 -0.3702 -0.3161
 3291TIP3    H2 9838   2.685   3.761   3.623  0.8734  0.1102  1.3619
 3292TIP3   OH2 9839   1.160   6.003   2.346 -0.6765 -0.2719  0.0319
 3292TIP3    H1 9840   1.221   6.075   2.330  0.0797 -0.9125 -0.0319
 3292TIP3    H2 9841   1.076   6.046   2.358 -0.0653  0.7046  1.0340
 3293TIP3   OH2 9842   7.146   3.488   5.531  0.3411 -0.2989  0.3568
 3293TIP3    H1 9843   7.120   3.576   5.559 -2.2435 -0.7493 -0.4626
 3293TIP3    H2 9844   7.103   3.475   5.447 -1.2357 -3.1805  1.4901
 3294TIP3   OH2 9845   5.729   1.968   4.507  0.5304  0.0029  0.4435
 3294TIP3    H1 9846   5.749   1.969   4.413 -1.0268  1.9398  0.0690
 3294TIP3    H2 9847   5.785   1.899   4.542 -1.2211 -3.2010 -2.4151
 3295TIP3   OH2 9848   2.223   2.442   2.923  0.0461  0.0772 -0.0992
 3295TIP3    H1 9849   2.280   2.459   2.998  0.6175  0.4128 -0.6047
 3295TIP3    H2 9850   2.283   2.427   2.850 -0.5109  1.8489 -0.9650
 3296TIP3   OH2 9851   1.869   3.841   0.503 -0.0393  0.6227  0.4980
 3296TIP3    H1 9852   1.899   3.931   0.515  0.9508  0.2276  1.0815
 3296TIP3    H2 9853   1.949   3.789   0.500 -0.5329 -0.1135 -1.1451
 3297TIP3   OH2 9854   1.608   3.742   2.695  0.5066  0.2940 -0.0889
 3297TIP3    H1 9855   1.678   3.682   2.721 -0.4826 -0.4346  1.0171
 3297TIP3    H2 9856   1.548   3.689   2.643  0.9446  1.0088 -1.3617
 3298TIP3   OH2 9857   6.390   0.296   2.920  0.2924 -0.7095 -0.4745
 3298TIP3    H1 9858   6.331   0.348   2.975  0.0460 -0.7864 -0.6605
 3298TIP3    H2 9859   6.469   0.348   2.913  0.1927 -0.5379 -0.3364
 3299TIP3   OH2 9860   4.501   6.422   1.461  0.4849 -0.1148  0.0819
 3299TIP3    H1 9861   4.493   6.517   1.474 -0.9396 -0.3710  1.2477
 3299TIP3    H2 9862   4.411   6.390   1.462  0.8707 -1.3629 -1.4414
 3300TIP3   OH2 9863   4.954   1.430   5.835 -0.2321 -0.2475 -0.3457
 3300TIP3    H1 9864   4.873   1.472   5.865 -0.3885  0.3575 -1.5474
 3300TIP3    H2 9865   4.983   1.378   5.910 -2.1276 -1.0876 -0.1421
 3301TIP3   OH2 9866   1.042   5.202   1.617  0.4181  0.8876  0.6179
 3301TIP3    H1 9867   0.974   5.234   1.557 -1.7172 -1.1188  1.8150
 3301TIP3    H2 9868   1.120   5.253   1.594 -0.9690  1.9864 -2.0975
 3302TIP3   OH2 9869   4.754   5.904   4.183  0.5186 -0.2305  0.7094
 3302TIP3    H1 9870   4.808   5.971   4.140  1.0982 -1.1529 -0.0218
 3302TIP3    H2 9871   4.797   5.821   4.162 -0.8153 -0.9301  0.6861
 3303TIP3   OH2 9872   2.409   3.909   4.304  0.1941 -0.0933  0.2763
 3303TIP3    H1 9873   2.365   3.949   4.229  1.1023  0.7959  0.2012
 3303TIP3    H2 9874   2.502   3.926   4.289  0.6260 -2.1841  0.2781
 3304TIP3   OH2 9875   5.870   1.125   1.318  0.3921  0.4048  0.2254
 3304TIP3    H1 9876   5.844   1.033   1.318  0.8500  0.2682 -0.1921
 3304TIP3    H2 9877   5.868   1.151   1.226 -1.4005  1.3195  0.4727
 3305TIP3   OH2 9878   4.238   4.957   5.732  0.1029 -0.1830  0.4134
 3305TIP3    H1 9879   4.191   4.895   5.676  3.0436 -1.0913 -1.2725
 3305TIP3    H2 9880   4.229   4.921   5.820 -1.1906 -1.0341 -0.0346
 3306TIP3   OH2 9881   4.637   0.381   2.696  0.1064  0.5353 -0.0785
 3306TIP3    H1 9882   4.636   0.471   2.662 -0.4712  0.8341  0.6827
 3306TIP3    H2 9883   4.639   0.393   2.791 -1.2560 -0.2623  0.0578
 3307TIP3   OH2 9884   2.363   0.845   1.117  0.4318 -0.4609  0.1364
 3307TIP3    H1 9885   2.359   0.767   1.062  0.6744 -0.2727 -0.1550
 3307TIP3    H2 9886   2.282   0.892   1.099  0.4987 -0.4137 -0.0404
 3308TIP3   OH2 9887   2.086   0.771   2.411 -0.0863  0.2561  0.4526
 3308TIP3    H1 9888   2.035   0.692   2.428 -0.9676  0.6237 -0.3276
 3308TIP3    H2 9889   2.149   0.776   2.483 -0.0751 -1.0925  0.5595
 3309TIP3   OH2 9890   0.576   5.039   3.290 -0.6744 -0.0655 -0.5902
 3309TIP3    H1 9891   0.554   4.959   3.242  1.1695 -0.9053 -0.1501
 3309TIP3    H2 9892   0.656   5.016   3.339 -0.5811  1.7929  0.2138
 3310TIP3   OH2 9893   5.870   4.486   0.018  0.3093 -0.7832 -0.1058
 3310TIP3    H1 9894   5.963   4.466   0.027  0.5462 -0.0241 -0.7699
 3310TIP3    H2 9895   5.851   4.545   0.090  0.1831 -1.4594  0.4194
 3311TIP3   OH2 9896   6.191   4.258   1.528  0.1669 -0.3449  0.1746
 3311TIP3    H1 9897   6.182   4.170   1.492 -4.2001 -0.1315  0.2460
 3311TIP3    H2 9898   6.164   4.250   1.619 -1.7192  1.1692 -0.1672
 3312TIP3   OH2 9899   3.684   3.797   2.271 -0.0351 -0.0569  0.3103
 3312TIP3    H1 9900   3.725   3.711   2.275  0.8776  0.4170  3.2133
 3312TIP3    H2 9901   3.732   3.843   2.202  1.5477 -0.8983  0.8087
 3313TIP3   OH2 9902   5.449   5.248   3.886  0.2532  0.0582 -0.9892
 3313TIP3    H1 9903   5.427   5.183   3.954  1.4467 -1.3618 -1.9104
 3313TIP3    H2 9904   5.410   5.330   3.918 -0.7115 -0.9484  0.5473
 3314TIP3   OH2 9905   6.066   1.128   3.805  0.0468 -0.6319  0.4840
 3314TIP3    H1 9906   6.061   1.209   3.856 -1.4382  0.9190 -1.9651
 3314TIP3    H2 9907   6.148   1.136   3.756 -0.3154 -0.3969 -0.0859
 3315TIP3   OH2 9908   2.765   3.995   4.954 -0.1197 -0.0887 -0.4117
 3315TIP3    H1 9909   2.826   4.068   4.944 -0.2127  0.1350  0.5092
 3315TIP3    H2 9910   2.783   3.937   4.880  1.5491 -0.2641  0.0975
 3316TIP3   OH2 9911   6.964   5.198   1.887  0.1274 -0.3897 -0.5115
 3316TIP3    H1 9912   6.932   5.128   1.944 -2.3631  0.6352 -0.5201
 3316TIP3    H2 9913   6.948   5.279   1.935 -0.2594  0.3762 -1.8550
 3317TIP3   OH2 9914   0.957   0.988   3.690  0.1305  0.5515 -0.1479
 3317TIP3    H1 9915   1.014   0.941   3.628  0.5137 -0.5983  1.0367
 3317TIP3    H2 9916   1.016   1.047   3.736 -0.3460  2.2751 -1.6126
 3318TIP3   OH2 9917   4.491   3.310   2.174 -0.0565  0.0523  0.2614
 3318TIP3    H1 9918   4.577   3.346   2.154  0.2057 -0.2284  0.8737
 3318TIP3    H2 9919   4.439   3.384   2.205 -0.3569  0.4258 -1.0451
 3319TIP3   OH2 9920   1.832   3.927   5.536  0.2648  0.2228  0.1428
 3319TIP3    H1 9921   1.810   3.837   5.560 -1.1415  0.9491  1.8226
 3319TIP3    H2 9922   1.917   3.943   5.576  0.5063 -0.3350 -0.1399
 3320TIP3   OH2 9923   5.117   3.116   5.111  0.2805 -0.7507 -0.0232
 3320TIP3    H1 9924   5.034   3.090   5.152  0.1790  0.6350  0.7086
 3320TIP3    H2 9925   5.177   3.044   5.131 -0.6605 -1.6636 -0.3566
 3321TIP3   OH2 9926   4.708   2.013   0.983  0.5328  0.3942 -0.0493
 3321TIP3    H1 9927   4.774   1.950   0.954 -0.5637 -0.5587 -0.5559
 3321TIP3    H2 9928   4.687   2.063   0.904 -0.2244 -0.1294 -0.1867
 3322TIP3   OH2 9929   6.252   2.424   4.454  0.2367 -0.1264 -0.4663
 3322TIP3    H1 9930   6.257   2.337   4.494  1.1580  0.4955  0.8518
 3322TIP3    H2 9931   6.169   2.460   4.487  0.6304  0.0914  0.3287
 3323TIP3   OH2 9932   1.400   4.086   0.004 -0.4056 -0.4716  0.2633
 3323TIP3    H1 9933   1.425   4.132   0.084 -1.7932  3.6803 -1.3918
 3323TIP3    H2 9934   1.305   4.072   0.013 -0.4887 -0.3963 -0.4030
 3324TIP3   OH2 9935   2.312   0.366   4.973 -0.0219  0.5688 -1.0289
 3324TIP3    H1 9936   2.252   0.302   4.935 -1.1598  0.8459  0.2291
 3324TIP3    H2 9937   2.315   0.437   4.908 -1.0162  0.5100 -1.1566
 3325TIP3   OH2 9938   0.691   1.446   1.943 -0.2586 -0.3303  0.2167
 3325TIP3    H1 9939   0.771   1.481   1.982 -0.5844 -1.0533  1.5984
 3325TIP3    H2 9940   0.710   1.439   1.849  2.1262 -2.5438  0.7517
 3326TIP3   OH2 9941   5.358   5.481   5.211  0.6050 -0.1146 -0.4158
 3326TIP3    H1 9942   5.263   5.467   5.211  0.0488  2.9452  0.5670
 3326TIP3    H2 9943   5.387   5.446   5.295  0.0496  0.4041  0.0016
 3327TIP3   OH2 9944   5.654   2.211   1.466 -0.0110 -0.0347 -0.3919
 3327TIP3    H1 9945   5.735   2.254   1.440  1.0737 -0.9006  1.3961
 3327TIP3    H2 9946   5.637   2.148   1.396 -0.4735  1.7156 -1.9620
 3328TIP3   OH2 9947   6.644   3.579   0.168  0.1974  0.3443  0.0411
 3328TIP3    H1 9948   6.727   3.538   0.195  0.5831  1.4476  0.6048
 3328TIP3    H2 9949   6.670   3.662   0.128 -0.6014  0.3780 -0.4272
 3329TIP3   OH2 9950   0.172   3.160   1.051  0.8523  0.5863 -0.2271
 3329TIP3    H1 9951   0.115   3.107   1.107  0.4541  1.4417  0.1860
 3329TIP3    H2 9952   0.250   3.176   1.105  1.5833 -0.7304 -0.8541
 3330TIP3   OH2 9953   4.500   5.072   1.789  0.2479  0.5719 -0.3010
 3330TIP3    H1 9954   4.542   5.036   1.710  0.8812 -1.4351  0.8630
 3330TIP3    H2 9955   4.407   5.069   1.770  0.2969 -1.4140 -0.4406
 3331TIP3   OH2 9956   3.771   4.718   3.431  0.1564 -0.7409 -0.7343
 3331TIP3    H1 9957   3.756   4.667   3.510  0.3780 -0.4126 -0.4775
 3331TIP3    H2 9958   3.836   4.668   3.382  0.5289 -0.6020 -0.3838
 3332TIP3   OH2 9959   1.936   4.294   3.923 -0.9132  0.1175 -0.4184
 3332TIP3    H1 9960   1.913   4.384   3.900 -2.1454  0.0937  0.5912
 3332TIP3    H2 9961   1.873   4.240   3.874 -0.5933 -0.1731 -0.5174
 3333TIP3   OH2 9962   3.652   0.427   0.876 -0.0370  0.1522  0.5314
 3333TIP3    H1 9963   3.736   0.417   0.831  0.1933  2.1714  0.4562
 3333TIP3    H2 9964   3.614   0.339   0.874  1.3466 -0.4618 -0.8381
 3334TIP3   OH2 9965   4.186   4.346   4.368  0.7731  0.0709  1.0168
 3334TIP3    H1 9966   4.145   4.391   4.442 -2.1703 -1.5518  0.5205
 3334TIP3    H2 9967   4.137   4.375   4.292  1.4935 -0.8765  0.1707
 3335TIP3   OH2 9968   2.414   2.503   0.363  0.3490  0.0226  0.0213
 3335TIP3    H1 9969   2.499   2.544   0.353  0.6073 -0.4931  0.0673
 3335TIP3    H2 9970   2.382   2.536   0.448  0.4030  0.3846 -0.0962
 3336TIP3   OH2 9971   5.184   4.873   3.472 -0.2945  0.0327  0.3605
 3336TIP3    H1 9972   5.248   4.858   3.403  1.3078  1.4119  1.4925
 3336TIP3    H2 9973   5.117   4.805   3.458  0.5128 -0.3577 -1.8787
 3337TIP3   OH2 9974   6.194   0.842   3.151  0.2765  0.7747  0.3765
 3337TIP3    H1 9975   6.246   0.906   3.199  1.3906  0.4741 -0.3813
 3337TIP3    H2 9976   6.159   0.783   3.218 -0.2200  1.7752  1.0173
 3338TIP3   OH2 9977   2.671   5.567   1.206  0.1224  0.2439  0.4642
 3338TIP3    H1 9978   2.635   5.586   1.293  0.2701  0.0687  0.5660
 3338TIP3    H2 9979   2.597   5.575   1.146  0.0760  0.6312  0.5713
 3339TIP3   OH2 9980   7.142   0.065   4.909  0.7853  0.2611  0.2259
 3339TIP3    H1 9981   7.167   0.152   4.938  0.3304  0.4549  0.0385
 3339TIP3    H2 9982   7.122   0.017   4.989 -0.2497  0.7261  0.2593
 3340TIP3   OH2 9983   1.686   4.024   0.831 -0.2696 -0.3369  0.7422
 3340TIP3    H1 9984   1.595   4.042   0.856  0.2022  1.1914  1.5165
 3340TIP3    H2 9985   1.708   4.093   0.769  0.2050 -1.0351  0.1158
 3341TIP3   OH2 9986   2.037   5.777   3.811  0.1385 -0.0750  0.2551
 3341TIP3    H1 9987   1.979   5.843   3.774  1.0011  0.2156 -0.6101
 3341TIP3    H2 9988   2.110   5.827   3.848  0.5653 -0.5125  0.0117
 3342TIP3   OH2 9989   1.331   6.437   4.666  0.0818 -0.0866  0.2205
 3342TIP3    H1 9990   1.346   6.351   4.703 -0.9793 -0.4401 -0.1407
 3342TIP3    H2 9991   1.236   6.447   4.665  0.1575  0.6807 -0.6550
 3343TIP3   OH2 9992   1.181   5.599   4.169  0.1606  0.1385  0.0074
 3343TIP3    H1 9993   1.170   5.610   4.263  1.0974 -1.3308  0.3164
 3343TIP3    H2 9994   1.167   5.687   4.133 -0.1142  0.7419  1.5105
 3344TIP3   OH2 9995   4.395   4.874   1.142  0.0870  0.3519 -0.4454
 3344TIP3    H1 9996   4.473   4.918   1.106  0.7223  1.5061  2.0981
 3344TIP3    H2 9997   4.424   4.842   1.227 -2.3140  1.2016  0.7651
 3345TIP3   OH2 9998   6.228   1.556   3.897  0.6763  0.4403  0.0349
 3345TIP3    H1 9999   6.263   1.633   3.942  1.3610  0.4113 -0.4373
 3345TIP3    H210000   6.298   1.491   3.902 -0.0973 -0.3715  0.9215
 3346TIP3   OH210001   5.430   3.739   4.812 -0.1322 -0.3876 -0.6436
 3346TIP3    H110002   5.339   3.712   4.828  0.0355  0.2870  1.8583
 3346TIP3    H210003   5.481   3.658   4.819 -0.3838 -0.5559 -0.7333
 3347TIP3   OH210004   0.039   1.959   5.180  0.5122  0.0690 -0.3356
 3347TIP3    H110005   0.126   1.919   5.181  0.2141 -0.6156  0.9831
 3347TIP3    H210006   0.000   1.933   5.264 -0.1893  2.0536  0.0107
 3348TIP3   OH210007   2.044   0.062   2.737 -0.1186  0.1805 -0.1197
 3348TIP3    H110008   2.068   0.024   2.821 -1.3981 -0.0045  0.1733
 3348TIP3    H210009   1.949   0.058   2.734 -0.1004 -2.7140 -2.8742
 3349TIP3   OH210010   4.754   6.555   4.342  0.5239 -0.1236  0.0011
 3349TIP3    H110011   4.804   6.634   4.361 -0.5032  0.0269  2.4575
 3349TIP3    H210012   4.795   6.519   4.263  0.5230  3.2124 -1.6769
 3350TIP3   OH210013   0.740   3.583   1.037 -0.3923 -0.2932 -0.1392
 3350TIP3    H110014   0.796   3.522   1.086 -2.2621 -1.5009  0.6281
 3350TIP3    H210015   0.651   3.556   1.060 -1.3315  0.2760 -2.8168
 3351TIP3   OH210016   4.126   3.184   0.422  0.1965 -0.1646  0.3249
 3351TIP3    H110017   4.168   3.185   0.337  0.6943 -0.9270  0.5552
 3351TIP3    H210018   4.052   3.124   0.412  0.8916 -1.1057  0.7162
 3352TIP3   OH210019   0.147   0.013   1.349  0.1150  0.6019 -0.1223
 3352TIP3    H110020   0.078   0.064   1.391 -0.8126  0.6577 -1.6633
 3352TIP3    H210021   0.176   0.068   1.276  2.8249  1.2380  1.2768
 3353TIP3   OH210022   5.341   3.750   3.874  0.6755 -0.0393  0.1550
 3353TIP3    H110023   5.316   3.658   3.883  0.0807  0.1241  0.2047
 3353TIP3    H210024   5.290   3.795   3.941 -0.6821  0.6171 -1.2476
 3354TIP3   OH210025   6.099   0.193   1.211  0.2237 -0.1659  0.5123
 3354TIP3    H110026   6.039   0.174   1.284 -0.9356 -1.1860 -0.6598
 3354TIP3    H210027   6.060   0.149   1.136  0.2284  2.6656 -1.2621
 3355TIP3   OH210028   4.716   3.982   0.214  0.6204  0.5187 -0.0782
 3355TIP3    H110029   4.778   4.019   0.277  2.7113 -1.6869 -0.6815
 3355TIP3    H210030   4.735   4.027   0.132 -0.1221  1.3624  0.1943
 3356TIP3   OH210031   0.490   5.772   3.447 -0.5250 -0.0288 -0.5942
 3356TIP3    H110032   0.543   5.705   3.491  0.3898  0.5879 -0.7205
 3356TIP3    H210033   0.426   5.723   3.396 -2.0093 -0.7764  1.8317
 3357TIP3   OH210034   3.246   1.798   5.456 -0.3258 -0.2788 -0.4423
 3357TIP3    H110035   3.322   1.783   5.400  0.8606 -1.4367  1.4029
 3357TIP3    H210036   3.184   1.729   5.431 -0.2297 -0.1780 -0.9858
 3358TIP3   OH210037   3.682   2.640   4.472 -0.3085  0.2260 -0.1531
 3358TIP3    H110038   3.695   2.735   4.472  1.3417  0.0322 -0.6423
 3358TIP3    H210039   3.713   2.612   4.558  3.8095 -0.3285 -1.5897
 3359TIP3   OH210040   2.274   4.886   1.142  0.2020 -0.1563  0.1181
 3359TIP3    H110041   2.320   4.812   1.102  1.7083 -0.7379  2.6798
 3359TIP3    H210042   2.207   4.846   1.197  1.0530  0.3210  1.5508
 3360TIP3   OH210043   5.466   2.580   0.624  0.6565 -0.2853 -0.4335
 3360TIP3    H110044   5.417   2.565   0.705  2.8218 -1.0745  0.8173
 3360TIP3    H210045   5.423   2.525   0.559  1.9358 -3.9079  1.4897
 3361TIP3   OH210046   7.059   0.539   3.127 -0.3906 -0.0383  0.0613
 3361TIP3    H110047   7.093   0.628   3.128 -1.0149  0.2104  1.1473
 3361TIP3    H210048   7.042   0.519   3.219  2.1232 -2.2166  0.1476
 3362TIP3   OH210049   4.923   6.333   2.650 -0.0252  0.6436 -0.3817
 3362TIP3    H110050   4.902   6.361   2.738  0.6800  1.4241 -0.4517
 3362TIP3    H210051   4.859   6.264   2.630 -0.6754  1.0039  0.4361
 3363TIP3   OH210052   1.445   1.481   3.650 -0.2360  0.2166  0.1859
 3363TIP3    H110053   1.475   1.448   3.565  3.3770 -0.1947  1.4441
 3363TIP3    H210054   1.351   1.495   3.639 -0.2528 -1.6430 -3.2608
 3364TIP3   OH210055   3.318   0.686   1.708  0.0689  0.1659 -0.6689
 3364TIP3    H110056   3.285   0.734   1.784  0.2141 -3.1824  1.7453
 3364TIP3    H210057   3.240   0.654   1.663 -0.1000 -1.2801  0.5646
 3365TIP3   OH210058   2.482   5.549   1.010  0.2610 -0.0134  0.3162
 3365TIP3    H110059   2.473   5.453   1.009 -1.0139 -0.0195  2.8978
 3365TIP3    H210060   2.396   5.581   0.982 -0.1433  0.2860  1.7958
 3366TIP3   OH210061   1.852   2.495   3.377  0.2271 -0.1049 -0.1449
 3366TIP3    H110062   1.915   2.460   3.440 -0.7164  1.4419  1.7811
 3366TIP3    H210063   1.828   2.420   3.322 -1.0625 -2.3673  3.1754
 3367TIP3   OH210064   3.703   6.032   3.450  0.4004  0.7601  0.4215
 3367TIP3    H110065   3.782   6.065   3.406  0.1079 -0.7319 -1.3817
 3367TIP3    H210066   3.632   6.049   3.388 -0.7019  1.8911  1.9295
 3368TIP3   OH210067   2.159   6.381   4.332 -0.5614  0.3090  0.3983
 3368TIP3    H110068   2.187   6.414   4.417 -0.6487 -0.7619  0.8516
 3368TIP3    H210069   2.125   6.294   4.349  2.6047 -1.3950 -1.1717
 3369TIP3   OH210070   2.708   4.134   2.469  0.0528  0.5057  0.1988
 3369TIP3    H110071   2.698   4.223   2.502  1.7166  1.3848 -1.4772
 3369TIP3    H210072   2.790   4.103   2.507  0.1909  0.2238 -0.3179
 3370TIP3   OH210073   2.077   4.206   4.287  0.1082  0.2886  0.0321
 3370TIP3    H110074   2.042   4.287   4.252  0.4551  0.3963 -0.0632
 3370TIP3    H210075   2.145   4.233   4.349  1.5164  0.0460 -1.3496
 3371TIP3   OH210076   6.415   2.915   1.125  0.2276  0.1576 -0.5774
 3371TIP3    H110077   6.351   2.932   1.056 -0.2588 -0.8561 -0.3929
 3371TIP3    H210078   6.374   2.849   1.180  1.9075 -1.4372 -1.1417
 3372TIP3   OH210079   1.073   3.241   0.169 -0.1347  0.4609  0.0877
 3372TIP3    H110080   1.016   3.173   0.134 -0.3402  1.4958 -1.6750
 3372TIP3    H210081   1.065   3.314   0.108  0.8282  1.7306  1.3945
 3373TIP3   OH210082   0.701   4.734   0.383  0.5657 -0.7003  0.2902
 3373TIP3    H110083   0.665   4.659   0.429 -0.6226 -0.8759 -0.8784
 3373TIP3    H210084   0.685   4.716   0.291  1.8195  0.1978 -0.1301
 3374TIP3   OH210085   0.860   1.277   5.816 -0.2526  0.7108  0.4228
 3374TIP3    H110086   0.909   1.329   5.880  0.4639  0.4575  0.0870
 3374TIP3    H210087   0.843   1.194   5.862 -1.2991  1.1820  0.9177
 3375TIP3   OH210088   6.074   5.521   4.881  0.4003 -0.6849 -0.2408
 3375TIP3    H110089   5.990   5.539   4.923  0.0339 -1.2593 -0.7140
 3375TIP3    H210090   6.103   5.438   4.918  2.1921  0.8388  2.1007
 3376TIP3   OH210091   4.244   1.360   2.778  0.3535  0.0583 -0.0398
 3376TIP3    H110092   4.183   1.433   2.784 -0.7161 -0.6273 -1.7582
 3376TIP3    H210093   4.313   1.381   2.841 -1.8184  0.6473  2.3079
 3377TIP3   OH210094   2.688   3.311   1.230 -0.0802 -0.4490  0.0849
 3377TIP3    H110095   2.727   3.391   1.267 -2.2264  0.2443  1.0253
 3377TIP3    H210096   2.739   3.240   1.269 -0.2803  0.3758  1.9929
 3378TIP3   OH210097   4.333   6.071   1.157 -0.3056 -0.0740 -0.0715
 3378TIP3    H110098   4.259   6.011   1.141 -0.0045 -0.0481 -1.7582
 3378TIP3    H210099   4.392   6.022   1.214 -0.1156 -1.3634 -1.3341
 3379TIP3   OH210100   3.759   0.706   3.371 -0.0975  0.5992 -0.0832
 3379TIP3    H110101   3.691   0.679   3.434  0.9636  0.6717  1.1324
 3379TIP3    H210102   3.834   0.730   3.426  0.5421  1.6026 -1.3513
 3380TIP3   OH210103   1.128   0.561   4.438 -0.1866  0.1870  0.1481
 3380TIP3    H110104   1.059   0.517   4.488 -0.8958  0.9533 -0.1388
 3380TIP3    H210105   1.095   0.562   4.348 -0.1033  1.1394  0.1196
 3381TIP3   OH210106   3.447   0.137   2.092 -0.0919 -0.2357 -0.2967
 3381TIP3    H110107   3.439   0.209   2.153 -0.4862  0.9753 -1.7091
 3381TIP3    H210108   3.505   0.074   2.134 -1.1576  0.0664  1.7280
 3382TIP3   OH210109   1.151   2.948   4.083  0.1902  0.2463 -0.2154
 3382TIP3    H110110   1.171   2.924   4.173  1.0904 -0.3535 -0.5653
 3382TIP3    H210111   1.216   2.902   4.030 -0.6270  0.1997 -1.2139
 3383TIP3   OH210112   5.825   6.565   3.453 -0.3929 -0.5128 -0.1163
 3383TIP3    H110113   5.885   6.518   3.510 -0.4002 -1.9544 -1.2336
 3383TIP3    H210114   5.876   6.640   3.421  0.3986 -1.0313 -0.0970
 3384TIP3   OH210115   5.425   2.642   2.806 -0.2702  0.1178 -0.1250
 3384TIP3    H110116   5.467   2.571   2.758 -1.2100  0.5123 -1.5799
 3384TIP3    H210117   5.337   2.610   2.824 -1.4563  1.6321 -2.6920
 3385TIP3   OH210118   4.885   2.290   2.413 -0.3184  0.2203 -0.3732
 3385TIP3    H110119   4.801   2.255   2.442 -0.6310  0.8920 -0.4461
 3385TIP3    H210120   4.874   2.305   2.319 -0.7206  1.9222 -0.0852
 3386TIP3   OH210121   2.850   1.654   3.453  0.1482 -0.8386  0.1083
 3386TIP3    H110122   2.906   1.652   3.531 -0.6755 -1.3927  0.7053
 3386TIP3    H210123   2.911   1.657   3.380  0.9317  0.4978  0.7841
 3387TIP3   OH210124   1.377   4.539   1.030  0.3752 -0.0191 -0.8391
 3387TIP3    H110125   1.442   4.475   1.000  1.3729  1.5766 -2.2495
 3387TIP3    H210126   1.299   4.487   1.048  1.0025 -1.5970 -2.3695
 3388TIP3   OH210127   2.990   1.031   3.928  0.0835  0.3529 -0.0199
 3388TIP3    H110128   2.920   0.997   3.872 -0.3726 -0.6455  1.1008
 3388TIP3    H210129   3.068   0.983   3.901 -0.1911 -0.3215  0.3700
 3389TIP3   OH210130   5.281   4.366   2.759 -0.0218  0.3142  0.0733
 3389TIP3    H110131   5.233   4.389   2.838  1.6569  2.2791  0.6131
 3389TIP3    H210132   5.351   4.307   2.789  0.2397  0.5633 -0.0367
 3390TIP3   OH210133   6.659   2.240   5.443 -0.1254  0.3593 -0.2586
 3390TIP3    H110134   6.594   2.217   5.377  0.1481  1.2390 -0.8459
 3390TIP3    H210135   6.740   2.196   5.414 -0.4032 -0.6112  0.3910
 3391TIP3   OH210136   2.032   1.149   4.038 -0.1833 -0.3999  0.2234
 3391TIP3    H110137   1.978   1.078   4.072 -0.3310 -0.7904 -0.7714
 3391TIP3    H210138   1.993   1.169   3.953  0.3484  0.3229  0.1441
 3392TIP3   OH210139   1.233   6.405   3.475  0.4025  0.1530  0.6761
 3392TIP3    H110140   1.301   6.338   3.479  0.8381  0.6552  2.5759
 3392TIP3    H210141   1.280   6.487   3.462  0.2408  0.5553  2.3861
 3393TIP3   OH210142   3.533   3.953   1.732 -0.5718 -0.3040  0.2233
 3393TIP3    H110143   3.450   3.965   1.685 -0.5874  0.4748  0.4328
 3393TIP3    H210144   3.509   3.962   1.825  0.0274  1.8095  0.2121
 3394TIP3   OH210145   0.163   4.744   3.071 -0.1671 -0.4634 -0.2898
 3394TIP3    H110146   0.077   4.727   3.032 -1.4218  2.1328  1.1148
 3394TIP3    H210147   0.146   4.751   3.165  2.0859 -2.5097  0.3831
 3395TIP3   OH210148   3.304   4.545   3.382  0.2389  0.0587  0.0308
 3395TIP3    H110149   3.316   4.632   3.421  0.8783  0.6563 -1.4205
 3395TIP3    H210150   3.262   4.562   3.298  0.4676 -1.0273 -0.3159
 3396TIP3   OH210151   4.963   1.001   3.939  0.4704 -0.2164  0.1423
 3396TIP3    H110152   5.013   0.933   3.894  0.8151 -0.2375  0.5638
 3396TIP3    H210153   5.014   1.081   3.927  0.1144 -0.0410 -0.2679
 3397TIP3   OH210154   3.409   4.257   2.197 -0.0078 -0.1833  0.5270
 3397TIP3    H110155   3.378   4.171   2.170 -1.3549 -0.4452  2.7458
 3397TIP3    H210156   3.503   4.255   2.177 -0.5670 -0.8036 -2.6893
 3398TIP3   OH210157   0.040   4.810   1.976 -0.1167 -0.5419 -0.4290
 3398TIP3    H110158   0.093   4.739   1.939 -0.4073 -0.9842 -0.0100
 3398TIP3    H210159   0.095   4.888   1.968 -0.4194 -0.4962 -2.3692
 3399TIP3   OH210160   6.536   0.278   5.579 -0.4430  0.2197 -0.1617
 3399TIP3    H110161   6.573   0.327   5.652 -1.9182  2.3315 -0.7409
 3399TIP3    H210162   6.604   0.281   5.512  0.1219  0.0476  0.3942
 3400TIP3   OH210163   1.263   4.600   4.668  0.1247 -0.2674 -0.0335
 3400TIP3    H110164   1.265   4.505   4.665  3.3087 -0.4330  1.9270
 3400TIP3    H210165   1.350   4.627   4.638 -1.0717  2.1437 -1.6442
 3401TIP3   OH210166   1.612   0.578   2.604  0.1816 -0.3493 -0.3233
 3401TIP3    H110167   1.640   0.663   2.637 -1.2023 -0.1853  0.5056
 3401TIP3    H210168   1.690   0.524   2.607  1.1172  0.9163 -0.9813
 3402TIP3   OH210169   4.859   2.598   5.664 -0.7953 -0.6213  0.0601
 3402TIP3    H110170   4.828   2.659   5.598 -0.3950  0.1930  0.6153
 3402TIP3    H210171   4.780   2.551   5.692 -1.2393  0.1716  0.1730
 3403TIP3   OH210172   4.129   0.925   0.180  0.0287 -0.4718  0.5298
 3403TIP3    H110173   4.116   0.947   0.272 -0.4416 -0.1293  0.3865
 3403TIP3    H210174   4.214   0.963   0.158  0.7107 -1.5866  1.1265
 3404TIP3   OH210175   5.804   0.944   5.037 -0.0236 -0.0987  0.1727
 3404TIP3    H110176   5.726   0.956   5.092  0.0461  0.8084  0.0813
 3404TIP3    H210177   5.869   0.907   5.097 -0.6126 -1.2038  0.1679
 3405TIP3   OH210178   0.538   1.039   3.877  0.2443  0.3757 -0.2316
 3405TIP3    H110179   0.543   1.124   3.833 -0.6514 -0.4490 -2.0233
 3405TIP3    H210180   0.605   0.985   3.833 -0.7562 -0.4997 -0.7244
 3406TIP3   OH210181   0.932   0.203   4.725 -0.2818  0.0075  0.5610
 3406TIP3    H110182   0.889   0.177   4.807  0.8443  2.2610  1.9734
 3406TIP3    H210183   1.014   0.153   4.725 -1.6895 -2.5208 -0.9704
 3407TIP3   OH210184   7.091   4.428   1.162  0.6029 -0.5854  0.1111
 3407TIP3    H110185   7.082   4.492   1.092  1.2194 -0.2353  0.3416
 3407TIP3    H210186   7.012   4.438   1.215  0.2034 -0.7567 -0.4538
 3408TIP3   OH210187   1.398   0.700   4.166  0.2827 -0.1776  0.2608
 3408TIP3    H110188   1.416   0.617   4.211 -1.0757 -0.3913  0.4331
 3408TIP3    H210189   1.465   0.760   4.200  2.0357 -1.4763 -0.7301
 3409TIP3   OH210190   6.902   2.017   2.338 -0.0632  0.1278  0.1824
 3409TIP3    H110191   6.833   2.083   2.331 -0.4543 -0.2747  0.1147
 3409TIP3    H210192   6.933   2.005   2.248  0.8068  1.0342  0.3478
 3410TIP3   OH210193   5.055   4.586   0.868 -0.0545 -0.2916 -0.5343
 3410TIP3    H110194   5.116   4.618   0.802 -0.6513  1.6845 -0.1935
 3410TIP3    H210195   5.107   4.579   0.948 -0.1613  1.1336 -0.3090
 3411TIP3   OH210196   5.719   6.541   3.019  0.2409  0.1356  0.5795
 3411TIP3    H110197   5.660   6.601   2.974 -1.0622 -0.9166  0.8053
 3411TIP3    H210198   5.682   6.531   3.106 -0.8722 -2.5571 -0.0644
 3412TIP3   OH210199   4.165   6.377   5.671  0.0419  0.0242 -0.5517
 3412TIP3    H110200   4.185   6.336   5.755 -1.5152  0.2460 -0.0467
 3412TIP3    H210201   4.208   6.462   5.675 -1.6449  0.8735  0.8849
 3413TIP3   OH210202   3.227   5.793   3.890  0.0179 -0.5557  0.3238
 3413TIP3    H110203   3.199   5.708   3.924  1.2844 -0.4433  1.8030
 3413TIP3    H210204   3.245   5.777   3.798 -1.1836 -1.5121  0.2255
 3414TIP3   OH210205   6.599   6.261   4.531  0.0130  0.6406 -0.1062
 3414TIP3    H110206   6.516   6.305   4.547 -1.1167 -0.9151 -1.4638
 3414TIP3    H210207   6.665   6.324   4.559 -1.6027  1.9035  1.0288
 3415TIP3   OH210208   3.332   5.540   0.710  0.6363  0.0274  0.1374
 3415TIP3    H110209   3.288   5.466   0.751  0.7226 -0.4001 -0.5224
 3415TIP3    H210210   3.265   5.607   0.702  0.1858 -0.4937 -0.5472
 3416TIP3   OH210211   6.048   0.239   5.659 -0.3133 -0.1688 -0.1609
 3416TIP3    H110212   6.118   0.216   5.720  0.4203  0.8909 -0.5581
 3416TIP3    H210213   6.055   0.334   5.650 -0.8855 -0.2190 -1.3211
 3417TIP3   OH210214   1.842   4.728   4.578  0.2388 -0.1659 -0.0216
 3417TIP3    H110215   1.881   4.805   4.618  0.0473 -0.1679  0.1674
 3417TIP3    H210216   1.908   4.659   4.589  1.0115  0.3129 -1.4378
 3418TIP3   OH210217   6.972   5.178   3.962  0.1432 -0.1095  0.3488
 3418TIP3    H110218   6.878   5.161   3.968 -0.0026 -0.2126 -1.5736
 3418TIP3    H210219   7.002   5.118   3.894  1.4312  0.6069  0.2647
 3419TIP3   OH210220   6.480   0.705   5.513  0.6156  0.0902  0.4240
 3419TIP3    H110221   6.512   0.673   5.597 -0.5982 -1.2365  0.4250
 3419TIP3    H210222   6.546   0.675   5.450  1.7461  1.4591  0.9210
 3420TIP3   OH210223   0.197   6.628   1.049 -0.0661 -0.1613 -0.1247
 3420TIP3    H110224   0.144   6.704   1.075 -0.8543 -0.3542 -1.0996
 3420TIP3    H210225   0.133   6.563   1.019  0.6785 -0.6922 -0.5967
 3421TIP3   OH210226   1.905   6.102   0.825  0.1239 -0.1643  0.0547
 3421TIP3    H110227   1.849   6.058   0.761  0.7837  0.8459 -1.2763
 3421TIP3    H210228   1.992   6.065   0.811  0.5192  0.9225 -0.5085
 3422TIP3   OH210229   6.781   1.728   0.194  0.1476 -0.2365 -0.4989
 3422TIP3    H110230   6.843   1.798   0.214 -0.1300  0.3641 -1.6045
 3422TIP3    H210231   6.836   1.656   0.163  0.3094  0.3631 -1.6679
 3423TIP3   OH210232   2.375   6.190   5.464 -0.7387  0.4284 -0.2753
 3423TIP3    H110233   2.318   6.210   5.389 -0.9358 -0.4340 -0.3616
 3423TIP3    H210234   2.446   6.254   5.457 -0.5974  0.1720 -1.3656
 3424TIP3   OH210235   6.272   1.275   4.358 -0.6140 -0.4183  0.1228
 3424TIP3    H110236   6.341   1.252   4.296  0.7615 -0.8418  1.7387
 3424TIP3    H210237   6.219   1.340   4.312  1.3854  0.6019 -0.8724
 3425TIP3   OH210238   5.290   4.354   3.315  0.3743 -0.0637 -0.9315
 3425TIP3    H110239   5.365   4.414   3.316  1.3894 -1.2780 -1.3389
 3425TIP3    H210240   5.296   4.307   3.397 -0.1932  0.1035 -0.7878
 3426TIP3   OH210241   0.545   6.346   4.153  0.0787 -0.4294  0.0372
 3426TIP3    H110242   0.503   6.312   4.074  0.2818  1.2054 -0.8116
 3426TIP3    H210243   0.632   6.374   4.123  0.0383  0.5164  0.7635
 3427TIP3   OH210244   2.189   0.835   1.673 -0.2096  0.3127  0.4200
 3427TIP3    H110245   2.157   0.904   1.614  1.9320  1.9787  1.0673
 3427TIP3    H210246   2.281   0.824   1.649  0.2651 -0.1543  2.3069
 3428TIP3   OH210247   7.021   5.861   3.502  0.3545  0.1925  0.2696
 3428TIP3    H110248   7.054   5.900   3.583  1.8626 -0.6344  0.0752
 3428TIP3    H210249   6.945   5.809   3.529 -0.6193  1.7954  0.7813
 3429TIP3   OH210250   4.857   4.839   2.792 -0.0635 -0.0484 -0.7832
 3429TIP3    H110251   4.900   4.763   2.755  1.7819  0.9207 -0.7244
 3429TIP3    H210252   4.851   4.901   2.719 -1.3901 -0.1423 -0.7889
 3430TIP3   OH210253   1.292   2.794   1.256  0.3845 -0.0381  0.0940
 3430TIP3    H110254   1.387   2.796   1.267  0.2703  3.5945  1.5367
 3430TIP3    H210255   1.271   2.876   1.211 -2.1714 -0.3539  0.5611
 3431TIP3   OH210256   5.706   6.084   0.145  0.0919 -0.3402 -0.5838
 3431TIP3    H110257   5.769   6.114   0.211  0.9590  2.9553 -2.6595
 3431TIP3    H210258   5.680   5.996   0.175  3.0019 -0.4494  2.2227
 3432TIP3   OH210259   4.156   5.657   5.034 -0.4298 -0.0639  0.1955
 3432TIP3    H110260   4.070   5.695   5.053 -0.3831  1.9306 -2.8975
 3432TIP3    H210261   4.137   5.578   4.983 -0.4977  1.1923 -1.8074
 3433TIP3   OH210262   0.544   6.169   5.607 -0.3080  0.0859 -0.4105
 3433TIP3    H110263   0.505   6.082   5.617 -1.1514  0.4658 -0.3619
 3433TIP3    H210264   0.473   6.224   5.574  0.0672  0.8938  0.1068
 3434TIP3   OH210265   5.970   0.022   0.565  0.4012  0.6481  0.2301
 3434TIP3    H110266   5.886   0.060   0.591 -0.1225  0.0386 -0.5474
 3434TIP3    H210267   6.028   0.097   0.553 -0.1907  1.1044  0.2022
 3435TIP3   OH210268   5.097   0.832   3.774 -0.0214  0.4573  0.0108
 3435TIP3    H110269   5.136   0.751   3.806  1.6811  0.4353 -1.9070
 3435TIP3    H210270   5.096   0.822   3.679 -1.3381  2.0158 -0.1688
 3436TIP3   OH210271   6.097   2.773   0.558 -0.0093  0.3184  0.7569
 3436TIP3    H110272   6.079   2.845   0.617  0.3661  1.1815 -0.1450
 3436TIP3    H210273   6.181   2.737   0.587  0.9007  1.6595 -0.0752
 3437TIP3   OH210274   0.772   1.777   3.067 -0.5412 -0.6176 -0.3744
 3437TIP3    H110275   0.739   1.847   3.123 -0.7386 -0.5215 -0.6130
 3437TIP3    H210276   0.864   1.800   3.052 -0.3468 -0.9106  0.3259
 3438TIP3   OH210277   1.745   0.584   4.060 -0.0466 -0.5550  0.1127
 3438TIP3    H110278   1.736   0.489   4.068 -1.8547 -0.2936  2.2253
 3438TIP3    H210279   1.806   0.608   4.131  1.1285 -0.1891 -0.9859
 3439TIP3   OH210280   5.759   0.463   2.524  0.4501 -0.2232 -0.4155
 3439TIP3    H110281   5.768   0.529   2.455  2.5431 -1.2025 -1.1898
 3439TIP3    H210282   5.694   0.402   2.490 -1.2446  1.1737  0.1549
 3440TIP3   OH210283   0.533   1.841   1.582 -0.3869  0.0408  0.1012
 3440TIP3    H110284   0.619   1.816   1.547  0.6289  1.4302  1.4428
 3440TIP3    H210285   0.498   1.761   1.621  0.0164 -0.6862 -0.9862
 3441TIP3   OH210286   0.853   6.661   3.812  0.1471  0.5884  0.3301
 3441TIP3    H110287   0.911   6.638   3.739  0.7652  2.4799  0.1514
 3441TIP3    H210288   0.873   6.597   3.880  0.0395 -0.8063 -0.8968
 3442TIP3   OH210289   3.174   6.531   4.822 -0.2868 -0.5251 -0.4936
 3442TIP3    H110290   3.166   6.627   4.817 -2.3217 -0.6499 -0.4949
 3442TIP3    H210291   3.262   6.516   4.857 -0.5793  1.4079  1.2798
 3443TIP3   OH210292   3.302   1.714   2.040 -0.5931 -0.4098  0.1708
 3443TIP3    H110293   3.279   1.807   2.037  2.6142  0.4756 -0.1708
 3443TIP3    H210294   3.267   1.683   2.123 -1.7460  1.0771  0.2779
 3444TIP3   OH210295   6.643   6.647   2.962 -0.2659  0.0978  0.0324
 3444TIP3    H110296   6.592   6.707   2.908  0.0024 -0.5637 -0.9908
 3444TIP3    H210297   6.617   6.667   3.051 -1.7379  0.3086 -0.4186
 3445TIP3   OH210298   6.000   0.948   0.327 -0.5843  0.7716  0.0728
 3445TIP3    H110299   5.942   0.934   0.402 -0.3939 -0.2706  0.0319
 3445TIP3    H210300   5.999   1.043   0.315 -1.3049  0.8821  0.8456
 3446TIP3   OH210301   0.536   6.041   1.806  0.1595 -0.3414  0.4476
 3446TIP3    H110302   0.578   6.111   1.855 -0.2068 -1.1688  1.9880
 3446TIP3    H210303   0.530   6.075   1.716  0.4312  1.3797  1.0497
 3447TIP3   OH210304   0.776   0.722   0.228 -0.3696 -0.3132 -0.2120
 3447TIP3    H110305   0.789   0.661   0.155  0.5514 -0.6819  0.2508
 3447TIP3    H210306   0.697   0.771   0.203  1.0359  1.0064 -2.4584
 3448TIP3   OH210307   6.409   0.549   4.529 -0.1367  0.5804  0.8162
 3448TIP3    H110308   6.477   0.549   4.597  0.7936  1.2873 -0.0923
 3448TIP3    H210309   6.330   0.522   4.575  1.0753 -2.0427  1.5461
 3449TIP3   OH210310   1.834   1.614   1.258  0.6356  0.0298  0.3632
 3449TIP3    H110311   1.768   1.598   1.326  1.1267 -0.7829  0.6734
 3449TIP3    H210312   1.791   1.588   1.176 -0.9142  3.5318 -0.0804
 3450TIP3   OH210313   0.473   4.252   5.741  0.6985 -0.5992 -0.2834
 3450TIP3    H110314   0.444   4.178   5.794  2.5066 -1.5484 -0.5485
 3450TIP3    H210315   0.554   4.222   5.699  1.7049  1.6509 -0.1005
 3451TIP3   OH210316   2.103   4.824   2.775 -0.2514 -0.6043  0.4378
 3451TIP3    H110317   2.098   4.735   2.741  0.5570 -0.4705 -0.0506
 3451TIP3    H210318   2.132   4.813   2.865  0.7316 -0.8006  0.1108
 3452TIP3   OH210319   0.181   4.722   4.669 -0.5753  0.3250 -0.6638
 3452TIP3    H110320   0.119   4.792   4.688  0.5365  0.9694  0.7761
 3452TIP3    H210321   0.187   4.721   4.574 -0.8467  1.9916 -0.7243
 3453TIP3   OH210322   1.336   2.224   4.996  0.5351  0.1742  0.5054
 3453TIP3    H110323   1.348   2.300   4.939 -1.9782  0.2666 -0.0346
 3453TIP3    H210324   1.375   2.249   5.079 -0.8810  2.4284  0.5728
 3454TIP3   OH210325   0.247   0.135   4.258 -0.2495 -0.3791 -0.4418
 3454TIP3    H110326   0.277   0.052   4.224  0.7121 -0.0676 -0.3876
 3454TIP3    H210327   0.156   0.120   4.283 -0.0041 -1.4775 -0.1905
 3455TIP3   OH210328   2.412   0.068   1.592 -0.7590  0.1366 -0.1982
 3455TIP3    H110329   2.494   0.052   1.546 -0.8279 -0.3291 -0.1578
 3455TIP3    H210330   2.352   0.001   1.560 -1.1559  0.5310 -0.2963
 3456TIP3   OH210331   1.019   0.461   5.320 -0.2533  0.1271 -0.3781
 3456TIP3    H110332   1.085   0.395   5.299 -0.4595  0.1102 -0.9998
 3456TIP3    H210333   1.015   0.516   5.242  0.7981  1.6425  0.5982
 3457TIP3   OH210334   0.205   1.598   0.377 -0.3800 -0.0231  0.0463
 3457TIP3    H110335   0.156   1.523   0.412  0.5310 -0.9719 -0.6292
 3457TIP3    H210336   0.223   1.573   0.286  1.1439  0.4078  0.2126
 3458TIP3   OH210337   1.055   3.644   0.155  0.5978  0.3621 -0.4370
 3458TIP3    H110338   1.069   3.563   0.106 -2.1115 -0.7449  0.4152
 3458TIP3    H210339   1.008   3.702   0.095  1.5750  0.9048 -0.6921
 3459TIP3   OH210340   6.945   0.721   0.930 -0.0962 -0.0129  0.1789
 3459TIP3    H110341   6.897   0.715   1.012 -1.7349  1.1606 -0.6474
 3459TIP3    H210342   6.975   0.631   0.914 -2.0336 -0.8289  0.7539
 3460TIP3   OH210343   0.498   0.414   3.662 -0.2123  0.0725 -0.2294
 3460TIP3    H110344   0.405   0.393   3.654 -0.8207  1.5014  2.0145
 3460TIP3    H210345   0.514   0.480   3.594 -0.5981 -0.8015 -1.1825
 3461TIP3   OH210346   1.209   3.824   4.808  0.1985  0.1186 -0.3682
 3461TIP3    H110347   1.124   3.814   4.766  0.4505 -1.2435 -0.5903
 3461TIP3    H210348   1.216   3.749   4.866  1.1142  0.4013 -0.0986
 3462TIP3   OH210349   1.606   3.887   4.395 -0.2279  0.3642  0.2858
 3462TIP3    H110350   1.683   3.852   4.350 -0.7228  0.0020 -0.2890
 3462TIP3    H210351   1.626   3.980   4.407 -0.3344  0.6103 -1.2498
 3463TIP3   OH210352   4.516   6.191   2.059 -0.0127  0.1416 -0.0202
 3463TIP3    H110353   4.532   6.214   1.967  2.2826  0.4601  0.3784
 3463TIP3    H210354   4.509   6.275   2.104  2.8130  0.1545  0.6070
 3464TIP3   OH210355   0.610   1.864   5.759 -0.2600  0.1047 -0.5882
 3464TIP3    H110356   0.691   1.815   5.768 -0.8132 -0.7639 -0.1997
 3464TIP3    H210357   0.595   1.869   5.664  1.1360  1.8099 -0.7693
 3465TIP3   OH210358   1.206   4.482   5.434  0.1289 -0.0906  0.1910
 3465TIP3    H110359   1.156   4.541   5.378 -0.4631 -0.4118  0.3785
 3465TIP3    H210360   1.287   4.530   5.453  0.8727 -0.4065 -1.8528
 3466TIP3   OH210361   4.221   1.711   0.981 -0.2112 -0.5523  0.5092
 3466TIP3    H110362   4.300   1.699   0.928 -1.4872  1.0815 -1.9925
 3466TIP3    H210363   4.238   1.790   1.032 -0.4116  0.1788 -0.5193
 3467TIP3   OH210364   3.258   6.582   4.273 -0.2167 -0.1085 -0.2899
 3467TIP3    H110365   3.268   6.489   4.293 -0.9753  0.1211  1.2960
 3467TIP3    H210366   3.333   6.624   4.316 -0.0714  0.0593 -0.7012
 3468TIP3   OH210367   1.583   1.452   2.928  0.0466 -0.7633  0.1049
 3468TIP3    H110368   1.516   1.399   2.885  0.1885 -1.0441  0.2251
 3468TIP3    H210369   1.534   1.517   2.978 -0.1126  0.3974 -1.4889
 3469TIP3   OH210370   4.371   1.972   2.254  0.7667 -0.3375  0.2220
 3469TIP3    H110371   4.388   1.890   2.207 -1.6827  0.1717 -1.7783
 3469TIP3    H210372   4.292   1.954   2.304 -1.2694  1.3558 -2.1230
 3470TIP3   OH210373   0.379   2.754   3.341 -0.4713  0.0357  0.3922
 3470TIP3    H110374   0.320   2.700   3.288 -1.5927  0.8860  0.7220
 3470TIP3    H210375   0.459   2.702   3.349 -0.7023 -0.6278 -1.1232
 3471TIP3   OH210376   1.997   4.692   5.085  0.2829  0.3176 -0.1541
 3471TIP3    H110377   1.940   4.748   5.137  0.6570  0.0513  0.5497
 3471TIP3    H210378   2.078   4.741   5.076  1.0131 -0.5289  1.3970
 3472TIP3   OH210379   7.093   6.208   4.449  0.1697 -0.5667 -0.0038
 3472TIP3    H110380   7.103   6.256   4.531  1.5465 -2.8296  1.2589
 3472TIP3    H210381   7.095   6.116   4.475 -1.6206 -1.3734 -2.3661
 3473TIP3   OH210382   4.515   5.029   1.373  0.2634 -0.5233  0.2415
 3473TIP3    H110383   4.573   5.022   1.448  1.2132 -0.8711 -0.5043
 3473TIP3    H210384   4.506   5.123   1.357  0.4134 -0.4641  0.5066
 3474TIP3   OH210385   1.080   0.448   5.890  0.1504 -0.2168  0.1891
 3474TIP3    H110386   1.083   0.522   5.829 -3.3923  1.8827  2.2470
 3474TIP3    H210387   1.028   0.381   5.845 -1.6007  0.9251  0.4305
 3475TIP3   OH210388   6.652   4.719   4.365 -0.0304  0.3189  0.1803
 3475TIP3    H110389   6.690   4.632   4.354 -1.0299 -0.1673  0.3845
 3475TIP3    H210390   6.687   4.750   4.448  1.8630  0.9580 -0.8095
 3476TIP3   OH210391   2.583   2.762   2.918 -0.5152  0.1690  0.1140
 3476TIP3    H110392   2.565   2.841   2.968 -0.4301 -0.6918  1.5622
 3476TIP3    H210393   2.497   2.727   2.895 -0.6058 -0.1933  0.9458
 3477TIP3   OH210394   3.796   4.241   4.097  0.2120  0.0331 -0.1149
 3477TIP3    H110395   3.813   4.320   4.148  1.0425  0.3444 -0.8630
 3477TIP3    H210396   3.703   4.248   4.073  0.7076  1.7988 -1.8231
 3478TIP3   OH210397   0.807   6.260   2.151 -0.1229  0.0126 -0.4824
 3478TIP3    H110398   0.811   6.236   2.244  0.8492 -0.1362 -0.5509
 3478TIP3    H210399   0.858   6.342   2.146  0.2573 -0.2473 -0.9584
 3479TIP3   OH210400   6.557   5.177   0.561  0.2576 -0.4013 -0.3052
 3479TIP3    H110401   6.623   5.209   0.622 -0.1537 -0.2411  0.0617
 3479TIP3    H210402   6.534   5.253   0.508  0.9572 -0.6549 -0.9775
 3480TIP3   OH210403   6.705   6.608   1.768  0.1153 -0.0269 -0.5371
 3480TIP3    H110404   6.642   6.603   1.696  0.0955 -0.3802 -0.4997
 3480TIP3    H210405   6.763   6.533   1.753  0.4670  0.2435 -0.5176
 3481TIP3   OH210406   2.101   2.048   5.310  0.0227 -0.1066  0.4794
 3481TIP3    H110407   2.007   2.042   5.327  0.2146 -1.9437  1.0728
 3481TIP3    H210408   2.142   2.041   5.396  0.7229  0.3465  0.1943
 3482TIP3   OH210409   6.000   3.398   1.971  0.2938  0.1505 -0.3625
 3482TIP3    H110410   5.972   3.310   1.993  1.5043 -0.0745  0.3756
 3482TIP3    H210411   5.918   3.447   1.959 -0.3967 -0.8299  0.1853
 3483TIP3   OH210412   6.450   4.157   4.743  0.5318  0.1989  0.2181
 3483TIP3    H110413   6.514   4.118   4.803  0.0022 -1.8962 -0.4773
 3483TIP3    H210414   6.490   4.149   4.657  0.6709  1.8551  0.1089
 3484TIP3   OH210415   3.985   3.246   1.236  0.3669 -0.0956 -0.3026
 3484TIP3    H110416   4.046   3.210   1.171 -2.1457 -1.3179 -2.1859
 3484TIP3    H210417   4.002   3.195   1.315  2.0193 -0.1254 -0.6372
 3485TIP3   OH210418   3.069   6.620   3.409  0.1337  0.2079  0.2332
 3485TIP3    H110419   3.160   6.643   3.429 -0.0219  0.4077  0.7262
 3485TIP3    H210420   3.037   6.694   3.357  0.1324  0.3275  0.4029
 3486TIP3   OH210421   6.899   5.979   0.573  0.0855 -0.5772  0.3364
 3486TIP3    H110422   6.863   5.890   0.575 -0.9567 -0.2343 -1.1878
 3486TIP3    H210423   6.842   6.029   0.630 -1.9961 -0.0496 -2.0241
 3487TIP3   OH210424   2.771   5.163   5.441 -0.3791  0.1455  0.0656
 3487TIP3    H110425   2.722   5.130   5.366  0.6790 -3.3673  0.7103
 3487TIP3    H210426   2.863   5.154   5.415  0.0036 -1.0461  1.6776
 3488TIP3   OH210427   4.482   3.713   1.562 -0.0928  0.0070 -0.2460
 3488TIP3    H110428   4.545   3.643   1.581 -1.3365 -0.9601  0.4387
 3488TIP3    H210429   4.466   3.706   1.468 -0.4213 -0.8262 -0.1340
 3489TIP3   OH210430   0.410   0.275   0.870  0.8092  0.1894 -0.2036
 3489TIP3    H110431   0.415   0.260   0.776  1.2380 -0.0399 -0.1473
 3489TIP3    H210432   0.361   0.200   0.904 -3.8904  2.6247 -0.8020
 3490TIP3   OH210433   4.906   5.937   4.703 -0.0196 -0.0092 -0.0311
 3490TIP3    H110434   5.001   5.938   4.713  0.1880  1.7986 -1.4405
 3490TIP3    H210435   4.892   5.892   4.619 -0.4047 -0.2580  0.1675
 3491TIP3   OH210436   7.147   2.692   2.574  0.2160  0.4223  0.1490
 3491TIP3    H110437   7.052   2.684   2.568  0.2132  0.6191 -0.0962
 3491TIP3    H210438   7.176   2.697   2.483  0.2433  2.7602  0.2227
 3492TIP3   OH210439   5.202   6.372   5.544 -0.1868 -0.0602 -0.0110
 3492TIP3    H110440   5.250   6.415   5.614  0.3050 -1.5337  0.6002
 3492TIP3    H210441   5.196   6.438   5.475  1.5947  0.6032  0.4061
 3493TIP3   OH210442   4.642   5.925   1.664  0.5013 -0.4958 -0.0929
 3493TIP3    H110443   4.608   5.905   1.577 -1.0599  0.3136  0.3009
 3493TIP3    H210444   4.721   5.977   1.647 -0.6531  1.0464 -1.0537
 3494TIP3   OH210445   0.977   3.892   1.807 -0.1513 -0.8130 -0.3293
 3494TIP3    H110446   1.020   3.974   1.834 -1.4353 -0.8357  1.9937
 3494TIP3    H210447   0.903   3.921   1.753  0.2780 -0.5496 -0.7888
 3495TIP3   OH210448   0.153   1.003   2.117 -0.5574  0.0473 -0.3300
 3495TIP3    H110449   0.124   1.078   2.167 -0.7365 -1.5523  2.1290
 3495TIP3    H210450   0.156   1.034   2.026 -1.6084  2.6688  0.4495
 3496TIP3   OH210451   5.801   3.598   3.714  0.4919  0.1853  0.5921
 3496TIP3    H110452   5.820   3.671   3.773 -0.7847  0.5020  0.6285
 3496TIP3    H210453   5.852   3.525   3.748  2.0305  1.1214  0.3821
 3497TIP3   OH210454   1.173   4.690   5.281 -0.4462 -0.4442  0.4146
 3497TIP3    H110455   1.087   4.727   5.298 -0.8874 -0.9410 -0.6243
 3497TIP3    H210456   1.220   4.759   5.234  0.4466  0.5721  2.6551
 3498TIP3   OH210457   7.185   0.264   3.651  0.0823  0.3809 -0.2367
 3498TIP3    H110458   7.183   0.199   3.580  0.3593  0.9582 -0.7894
 3498TIP3    H210459   7.140   0.222   3.724 -0.3498 -0.1708 -0.8100
 3499TIP3   OH210460   4.024   2.054   0.502  0.4141  0.1986 -0.0300
 3499TIP3    H110461   3.949   2.112   0.519  0.2827 -0.5550  2.1484
 3499TIP3    H210462   4.004   1.974   0.549  1.2075 -1.2055 -1.9384
 3500TIP3   OH210463   0.689   6.650   0.683 -0.4620  0.1200 -0.3593
 3500TIP3    H110464   0.594   6.663   0.676 -0.3913  0.4840 -0.6700
 3500TIP3    H210465   0.705   6.568   0.637 -0.6490 -0.0335 -0.1536
 3501TIP3   OH210466   5.276   4.712   2.684 -0.3038 -0.5182 -0.3084
 3501TIP3    H110467   5.351   4.743   2.735 -1.1981 -0.1231  0.7986
 3501TIP3    H210468   5.280   4.764   2.603  0.1681  0.0767  0.0855
 3502TIP3   OH210469   2.839   3.687   2.875 -0.1976 -0.4961 -1.1598
 3502TIP3    H110470   2.848   3.641   2.959  1.4527  1.0037 -0.4644
 3502TIP3    H210471   2.750   3.668   2.848 -0.9290 -0.7238  1.1320
 3503TIP3   OH210472   2.590   5.035   4.150 -0.3720  0.2520 -0.5248
 3503TIP3    H110473   2.624   5.113   4.105  0.0406  1.1632  1.2683
 3503TIP3    H210474   2.666   5.000   4.197 -1.1771  0.4438  0.9692
 3504TIP3   OH210475   5.494   2.440   5.736 -0.4060  0.7683 -0.0634
 3504TIP3    H110476   5.548   2.395   5.801 -0.5867 -0.1974 -0.5611
 3504TIP3    H210477   5.422   2.380   5.719 -0.8329  1.3943 -0.5142
 3505TIP3   OH210478   6.256   1.912   4.424  0.0788  0.2707 -0.4188
 3505TIP3    H110479   6.343   1.874   4.407  0.7602  1.3998  0.3851
 3505TIP3    H210480   6.239   1.893   4.516  0.0343  1.0988 -0.2462
 3506TIP3   OH210481   2.321   1.780   1.763  0.1930 -0.2343 -0.2846
 3506TIP3    H110482   2.405   1.745   1.794 -0.3371 -0.8030  0.5561
 3506TIP3    H210483   2.255   1.735   1.816 -0.5358  2.2151  1.0816
 3507TIP3   OH210484   6.978   0.957   0.802 -0.0172 -0.4751 -0.0899
 3507TIP3    H110485   6.955   0.874   0.843  0.7208 -0.2036  0.8985
 3507TIP3    H210486   7.062   0.981   0.841  0.0598  0.4534 -0.7881
 3508TIP3   OH210487   4.221   0.063   2.845  0.0057 -0.1201 -0.1175
 3508TIP3    H110488   4.256  -0.026   2.850  0.8427  0.0461 -1.9924
 3508TIP3    H210489   4.283   0.116   2.894 -0.0407 -0.4426  0.2978
 3509TIP3   OH210490   6.471   2.556   4.092 -0.1548  0.0970  0.4919
 3509TIP3    H110491   6.510   2.637   4.126 -0.4697 -0.5353  2.4679
 3509TIP3    H210492   6.385   2.583   4.059 -0.1372  0.6193  0.8596
 3510TIP3   OH210493   5.555   3.731   2.238 -0.1583  0.4950 -0.1075
 3510TIP3    H110494   5.617   3.701   2.305  1.4103 -0.0792 -1.7268
 3510TIP3    H210495   5.481   3.670   2.245  0.4597 -0.2239  0.4023
 3511TIP3   OH210496   1.623   1.693   3.577  0.2374  0.3955  0.0495
 3511TIP3    H110497   1.643   1.677   3.485  2.0854  1.4515  0.2096
 3511TIP3    H210498   1.664   1.620   3.624  0.1750  0.3987  0.1101
 3512TIP3   OH210499   5.056   2.274   1.022  0.0955  0.4136 -0.4693
 3512TIP3    H110500   5.132   2.312   0.976  0.0341  1.0508 -0.0652
 3512TIP3    H210501   5.086   2.263   1.112  0.0607 -0.3830 -0.5483
 3513TIP3   OH210502   2.438   3.683   5.591  0.3117  0.1985  0.0191
 3513TIP3    H110503   2.472   3.743   5.658  1.4178 -1.0992  0.6668
 3513TIP3    H210504   2.387   3.618   5.640 -0.1837  0.1284 -0.5799
 3514TIP3   OH210505   5.874   2.448   5.324 -0.0809 -0.0518  0.0270
 3514TIP3    H110506   5.779   2.447   5.309  0.2015  1.5625 -2.4542
 3514TIP3    H210507   5.906   2.520   5.269  2.8134 -1.7378 -0.7206
 3515TIP3   OH210508   2.161   0.521   3.287  0.6742  0.0571  0.0934
 3515TIP3    H110509   2.216   0.444   3.304  0.7642  0.5188  2.2361
 3515TIP3    H210510   2.074   0.484   3.269  0.7071 -0.5804  1.1163
 3516TIP3   OH210511   0.574   1.419   4.841  0.0378 -0.3255  0.1019
 3516TIP3    H110512   0.570   1.355   4.770 -1.4911  1.3045 -1.4210
 3516TIP3    H210513   0.667   1.429   4.860  0.4287 -1.3902 -1.1207
 3517TIP3   OH210514   2.029   1.839   4.570  0.0028  0.1257 -0.8192
 3517TIP3    H110515   2.080   1.762   4.547  1.5891  0.9085 -0.0667
 3517TIP3    H210516   2.076   1.879   4.643 -0.1486  2.4075 -1.8699
 3518TIP3   OH210517   6.606   6.747   4.633 -0.2948 -0.1364  0.0428
 3518TIP3    H110518   6.609   6.842   4.632 -0.1350 -0.1230  1.1773
 3518TIP3    H210519   6.574   6.724   4.720  1.2876 -1.1569  0.3851
 3519TIP3   OH210520   5.114   5.357   4.709  0.0756  0.7046  0.2017
 3519TIP3    H110521   5.207   5.369   4.728 -0.3149  3.4356  0.7203
 3519TIP3    H210522   5.082   5.302   4.781  0.6896  2.4336  1.8797
 3520TIP3   OH210523   7.145   4.614   1.641  0.2242  0.4061 -0.6303
 3520TIP3    H110524   7.155   4.561   1.562 -0.5664  0.2260 -0.6182
 3520TIP3    H210525   7.226   4.601   1.689  0.3335 -0.2197 -0.9794
 3521TIP3   OH210526   0.872   3.123   0.909  0.4889 -0.7725 -0.0674
 3521TIP3    H110527   0.949   3.172   0.938 -1.2458  0.9409  1.9098
 3521TIP3    H210528   0.839   3.173   0.834 -0.3929  0.2638  0.9840
 3522TIP3   OH210529   4.404   0.249   3.022 -0.2927  0.6440  0.3048
 3522TIP3    H110530   4.406   0.210   3.110 -0.3186  1.4001  0.6504
 3522TIP3    H210531   4.480   0.308   3.021 -0.6108  1.0490  0.0153
 3523TIP3   OH210532   4.490   5.454   4.178  0.3006 -0.4011 -0.2695
 3523TIP3    H110533   4.425   5.434   4.110 -0.7058  0.1715  0.4847
 3523TIP3    H210534   4.573   5.459   4.131 -0.5078  0.9795 -1.6643
 3524TIP3   OH210535   6.804   3.572   3.630  0.2760 -0.3856  0.4796
 3524TIP3    H110536   6.783   3.479   3.628 -0.2196 -0.2815 -1.6284
 3524TIP3    H210537   6.831   3.589   3.721  0.2418 -2.5234  0.9374
 3525TIP3   OH210538   3.113   6.455   2.389  0.0466  0.5042 -0.5374
 3525TIP3    H110539   3.161   6.395   2.445  0.9759  0.4376 -1.3804
 3525TIP3    H210540   3.179   6.514   2.354 -0.3873  0.1404 -2.0658
 3526TIP3   OH210541   4.748   6.506   2.011 -0.0319  0.2540  0.4445
 3526TIP3    H110542   4.823   6.532   1.958 -0.0058 -1.2025 -0.2737
 3526TIP3    H210543   4.674   6.507   1.950  0.0083 -1.4914  0.3039
 3527TIP3   OH210544   1.798   2.434   0.678  0.0519 -0.1189 -0.0382
 3527TIP3    H110545   1.847   2.471   0.752  0.1305  2.2010 -1.1367
 3527TIP3    H210546   1.708   2.428   0.709  0.2519 -0.0629  0.5613
 3528TIP3   OH210547   2.282   4.282   5.095 -0.6070  0.6484  0.0430
 3528TIP3    H110548   2.218   4.338   5.140  0.0973 -0.2408  2.2835
 3528TIP3    H210549   2.236   4.199   5.083  0.5983 -0.7180  3.5644
 3529TIP3   OH210550   2.296   5.845   4.865  0.1949 -0.1440 -0.6220
 3529TIP3    H110551   2.202   5.857   4.870 -0.0525 -2.2054  0.4491
 3529TIP3    H210552   2.332   5.931   4.890 -1.3885  0.2454  0.4610
 3530TIP3   OH210553   1.156   4.357   0.150  0.0966  0.5360 -0.0010
 3530TIP3    H110554   1.107   4.435   0.126 -1.9151 -0.4874  0.5940
 3530TIP3    H210555   1.146   4.298   0.075 -0.8917 -0.2434  0.7138
 3531TIP3   OH210556   2.975   5.034   2.105 -0.7277  0.4580  0.4343
 3531TIP3    H110557   3.020   5.024   2.021 -0.7080  1.4071  0.3203
 3531TIP3    H210558   2.892   4.988   2.092 -0.1318 -0.6408  0.3926
 3532TIP3   OH210559   6.504   2.322   0.539 -0.5250  0.6345  0.0345
 3532TIP3    H110560   6.413   2.329   0.569 -0.4943 -2.7045  1.3157
 3532TIP3    H210561   6.547   2.400   0.574 -2.2857  0.8466  1.9157
 3533TIP3   OH210562   1.811   5.230   3.575 -0.1272  0.4074 -0.1588
 3533TIP3    H110563   1.763   5.232   3.658  0.6031 -1.5003  0.3484
 3533TIP3    H210564   1.767   5.162   3.524  0.0842  0.8407 -0.9335
 3534TIP3   OH210565   0.650   3.373   2.376  0.2272 -0.1889 -0.4554
 3534TIP3    H110566   0.687   3.334   2.456 -0.2585 -0.6017 -0.4305
 3534TIP3    H210567   0.634   3.299   2.318  0.7063  0.1232 -0.9974
 3535TIP3   OH210568   6.627   2.628   5.162  0.1096  0.0761  0.5347
 3535TIP3    H110569   6.699   2.571   5.136 -0.0654  0.0583  0.0897
 3535TIP3    H210570   6.604   2.599   5.251 -0.0384 -0.6032  0.2782
 3536TIP3   OH210571   2.062   4.553   4.139  0.2106 -0.4472  0.0705
 3536TIP3    H110572   2.019   4.584   4.059  1.8322  0.6552 -0.4111
 3536TIP3    H210573   2.035   4.615   4.206 -0.1539 -0.6517  0.1181
 3537TIP3   OH210574   5.785   4.743   4.152 -0.3634  0.2772 -0.0239
 3537TIP3    H110575   5.878   4.751   4.130 -0.6152  0.5527 -0.9977
 3537TIP3    H210576   5.783   4.675   4.220  0.4822 -0.1748 -0.4374
 3538TIP3   OH210577   4.604   5.486   3.541 -0.3870 -0.1308 -0.0834
 3538TIP3    H110578   4.621   5.547   3.469  1.3266  0.0126  0.4171
 3538TIP3    H210579   4.678   5.425   3.540 -0.3384 -0.1499  1.5340
 3539TIP3   OH210580   4.704   0.792   1.579  0.2435  0.6005  0.0529
 3539TIP3    H110581   4.753   0.813   1.499 -0.6912 -0.4817 -0.8389
 3539TIP3    H210582   4.741   0.849   1.646  0.3313  2.3076 -1.3890
 3540TIP3   OH210583   5.827   1.937   4.221  0.1183  0.9052 -0.0765
 3540TIP3    H110584   5.836   2.018   4.172  2.1490  1.6333  1.3862
 3540TIP3    H210585   5.915   1.898   4.219 -0.8821 -1.4777 -1.0557
 3541TIP3   OH210586   5.805   4.298   4.692  0.5121  0.2638 -0.5002
 3541TIP3    H110587   5.874   4.338   4.639  1.5966 -0.5057  0.2935
 3541TIP3    H210588   5.847   4.221   4.732 -0.7649 -0.1341  0.1188
 3542TIP3   OH210589   6.976   2.812   4.303  0.6102  0.2478  0.1097
 3542TIP3    H110590   6.983   2.723   4.338 -0.4182 -0.0157 -0.3227
 3542TIP3    H210591   6.882   2.828   4.297  0.7850  1.3095  0.0244
 3543TIP3   OH210592   1.838   5.788   4.760  0.4248  0.5699  0.2392
 3543TIP3    H110593   1.887   5.739   4.694  1.4220  1.6386  0.1513
 3543TIP3    H210594   1.759   5.817   4.715  1.2585  1.5921 -0.6313
 3544TIP3   OH210595   2.404   2.040   0.943 -0.0536 -0.5546 -0.1583
 3544TIP3    H110596   2.396   2.106   1.012 -0.3746 -1.4047  0.6243
 3544TIP3    H210597   2.421   2.092   0.864 -1.4610  0.5514  0.2216
 3545TIP3   OH210598   1.072   3.585   0.910  0.6253  0.0607  0.1075
 3545TIP3    H110599   1.048   3.532   0.834  0.3879 -0.9492  0.8664
 3545TIP3    H210600   0.989   3.605   0.953  0.7988  0.1066  0.4292
 3546TIP3   OH210601   6.304   5.422   3.276  0.0878 -0.0802 -0.8479
 3546TIP3    H110602   6.249   5.379   3.340  2.0191 -2.8857 -0.9176
 3546TIP3    H210603   6.244   5.479   3.227 -1.9584 -0.1168  1.4394
 3547TIP3   OH210604   3.707   3.066   4.843  0.3995  0.2985 -0.2271
 3547TIP3    H110605   3.763   3.013   4.785 -0.6541 -1.1163  0.0080
 3547TIP3    H210606   3.734   3.156   4.826  1.9566 -0.2716 -0.9549
 3548TIP3   OH210607   3.365   0.051   0.513 -0.0142 -0.0721  0.4819
 3548TIP3    H110608   3.394   0.129   0.466 -0.5987  0.4032  0.8973
 3548TIP3    H210609   3.373  -0.020   0.450  0.1883  0.3832 -0.0088
 3549TIP3   OH210610   4.578   1.617   3.197 -0.7721 -0.2067 -0.3250
 3549TIP3    H110611   4.522   1.544   3.170  0.7438 -1.1291 -1.1743
 3549TIP3    H210612   4.666   1.578   3.203  0.0314  1.4989 -0.4901
 3550TIP3   OH210613   2.845   1.350   1.117 -0.3557  0.4120 -0.6889
 3550TIP3    H110614   2.936   1.352   1.147 -0.4157 -0.7352 -0.4033
 3550TIP3    H210615   2.842   1.414   1.045  0.9223 -0.2580 -1.3655
 3551TIP3   OH210616   6.314   0.262   5.770  0.0759 -0.0375  0.3993
 3551TIP3    H110617   6.360   0.182   5.746  0.9280  0.1378  1.3708
 3551TIP3    H210618   6.302   0.255   5.865  0.3740  1.0961  0.5312
 3552TIP3   OH210619   6.477   3.392   2.933 -0.7224 -0.4680 -0.6187
 3552TIP3    H110620   6.435   3.472   2.965  0.4672  0.5174 -1.3915
 3552TIP3    H210621   6.425   3.365   2.857  0.2279  1.0293 -1.8792
 3553TIP3   OH210622   4.888   3.757   1.292  0.3645  0.0120  0.1138
 3553TIP3    H110623   4.805   3.781   1.333 -0.3543  0.1564 -1.3415
 3553TIP3    H210624   4.941   3.836   1.297 -0.2187  0.4502 -0.4282
 3554TIP3   OH210625   6.997   2.266   1.823  0.4120 -0.1577  0.3461
 3554TIP3    H110626   6.934   2.206   1.864 -0.6455 -0.2855 -1.3486
 3554TIP3    H210627   7.045   2.211   1.760 -0.3364  0.6612 -0.9782
 3555TIP3   OH210628   5.493   4.397   1.042 -0.2039 -0.0257  0.0915
 3555TIP3    H110629   5.543   4.339   0.984  1.1896  0.5881  0.6366
 3555TIP3    H210630   5.553   4.417   1.113 -2.1828 -1.6184  2.3930
 3556TIP3   OH210631   2.874   4.541   3.394  0.6135 -0.3833 -0.3102
 3556TIP3    H110632   2.883   4.451   3.361 -0.1178 -0.8365  0.6426
 3556TIP3    H210633   2.819   4.531   3.472 -1.0208  1.1182 -1.2056
 3557TIP3   OH210634   3.061   2.715   4.148 -0.1549  0.3431 -0.2651
 3557TIP3    H110635   2.998   2.658   4.105  1.3650 -1.1296 -0.6614
 3557TIP3    H210636   3.124   2.655   4.188  1.4502  1.7344 -0.6003
 3558TIP3   OH210637   6.512   3.965   1.458 -0.3722  0.1193  0.6036
 3558TIP3    H110638   6.514   3.884   1.509  0.3677  0.1138  0.5801
 3558TIP3    H210639   6.603   3.995   1.457 -0.1330 -0.5008 -1.6912
 3559TIP3   OH210640   5.601   0.024   4.756  0.4144  0.0208 -0.6069
 3559TIP3    H110641   5.689   0.059   4.768  0.2811  0.6487 -1.3867
 3559TIP3    H210642   5.578   0.046   4.665 -1.0240  0.9706 -0.0473
 3560TIP3   OH210643   6.373   4.973   3.851  0.0413 -0.3907  0.5992
 3560TIP3    H110644   6.342   4.915   3.920 -0.7340  0.8308  1.3147
 3560TIP3    H210645   6.433   4.919   3.799 -1.0280 -1.9567  0.9322
 3561TIP3   OH210646   5.523   3.740   0.375  0.5161 -0.6161 -0.2073
 3561TIP3    H110647   5.486   3.768   0.458  1.3324 -1.3984  0.4384
 3561TIP3    H210648   5.454   3.688   0.334 -0.1853  0.4360 -0.4105
 3562TIP3   OH210649   3.590   6.152   5.434  0.0731 -0.4924  0.2338
 3562TIP3    H110650   3.671   6.192   5.465 -0.3528  0.5755  0.0412
 3562TIP3    H210651   3.601   6.143   5.340  0.1143 -0.7090  0.2587
 3563TIP3   OH210652   0.850   1.002   0.239 -0.0594  0.0642 -0.6086
 3563TIP3    H110653   0.841   0.917   0.283  0.5297  0.3401  0.0666
 3563TIP3    H210654   0.762   1.039   0.242 -0.0283  0.0929  0.3953
 3564TIP3   OH210655   0.912   3.758   1.381  0.4188 -0.8141 -0.2737
 3564TIP3    H110656   0.949   3.831   1.431  0.1997  0.1803 -1.5126
 3564TIP3    H210657   0.825   3.746   1.417 -0.8142  1.7144 -2.1053
 3565TIP3   OH210658   5.102   5.560   4.000  0.0367 -0.1541 -0.5717
 3565TIP3    H110659   5.148   5.606   4.070 -0.0042 -2.2328  0.8998
 3565TIP3    H210660   5.047   5.627   3.960  0.5247  1.2411  0.9572
 3566TIP3   OH210661   1.155   1.408   0.715 -1.0318 -0.2942 -0.4333
 3566TIP3    H110662   1.194   1.433   0.799 -2.1054 -0.3301  0.0968
 3566TIP3    H210663   1.125   1.491   0.678  0.6984 -0.0854 -1.4756
 3567TIP3   OH210664   3.217   0.386   3.159  0.2159  0.5071 -0.1584
 3567TIP3    H110665   3.248   0.318   3.219 -0.0050  0.6412  0.1124
 3567TIP3    H210666   3.163   0.443   3.214 -2.3396 -0.9251 -1.0133
 3568TIP3   OH210667   5.518   1.002   3.829  0.0648  0.0992 -0.5950
 3568TIP3    H110668   5.531   1.006   3.735 -1.9832  1.6077 -0.8866
 3568TIP3    H210669   5.567   1.076   3.864  0.3109 -0.0922 -0.5267
 3569TIP3   OH210670   1.299   4.706   1.339  0.3098  0.1286 -0.1566
 3569TIP3    H110671   1.290   4.645   1.265 -1.1733 -0.3035  0.3512
 3569TIP3    H210672   1.264   4.658   1.414  1.7217  0.5883  0.8308
 3570TIP3   OH210673   0.190   5.432   4.912  0.7678  0.2029 -0.2361
 3570TIP3    H110674   0.268   5.386   4.943 -0.0662  0.3352  2.2716
 3570TIP3    H210675   0.128   5.363   4.890  1.1582  0.1144 -1.0987
 3571TIP3   OH210676   3.868   2.676   0.445  0.3521 -0.2557  0.1960
 3571TIP3    H110677   3.822   2.622   0.380  0.1196  1.2723 -0.9610
 3571TIP3    H210678   3.797   2.718   0.494  0.4931 -2.1582  2.2139
 3572TIP3   OH210679   0.765   2.245   0.857 -0.4947  0.0242  0.1831
 3572TIP3    H110680   0.775   2.256   0.952 -1.3728 -0.5843  0.3616
 3572TIP3    H210681   0.839   2.190   0.831 -0.1146  0.3964  0.4758
 3573TIP3   OH210682   1.997   4.388   2.155  1.0067  0.7234  0.0645
 3573TIP3    H110683   1.903   4.374   2.148  0.7011  2.6151 -0.1549
 3573TIP3    H210684   2.029   4.386   2.065  1.4362 -1.2398  0.2163
 3574TIP3   OH210685   6.845   5.893   3.063 -0.3493 -0.2483  0.1586
 3574TIP3    H110686   6.789   5.816   3.056 -1.0167  0.1650  0.8195
 3574TIP3    H210687   6.827   5.944   2.984 -1.0680 -0.0176  0.4676
 3575TIP3   OH210688   5.297   1.162   1.925 -0.2268 -0.9020 -0.8402
 3575TIP3    H110689   5.229   1.127   1.983 -0.0937 -0.3731 -0.3613
 3575TIP3    H210690   5.338   1.232   1.976  1.4813 -1.9931 -0.6422
 3576TIP3   OH210691   1.598   5.385   2.916 -0.8918 -0.0980  0.0243
 3576TIP3    H110692   1.693   5.389   2.908 -1.0238  1.4790 -1.2970
 3576TIP3    H210693   1.567   5.358   2.829 -1.6466 -1.5813  0.7044
 3577TIP3   OH210694   2.099   1.928   4.315  0.2380 -0.1839  0.3682
 3577TIP3    H110695   2.139   1.853   4.273 -0.8765 -0.6014  0.0205
 3577TIP3    H210696   2.081   1.898   4.405 -1.0549 -0.6787 -0.0309
 3578TIP3   OH210697   0.585   3.739   1.857  0.2101  0.1532  0.3871
 3578TIP3    H110698   0.541   3.681   1.795  0.7076 -0.2047  0.3571
 3578TIP3    H210699   0.574   3.827   1.819  1.1787 -0.1410 -0.6458
 3579TIP3   OH210700   3.160   6.076   0.664 -0.2066  0.5642 -0.2142
 3579TIP3    H110701   3.238   6.112   0.707  0.2698 -1.1976  0.4632
 3579TIP3    H210702   3.128   6.009   0.725 -1.8404  0.7401 -0.8192
 3580TIP3   OH210703   5.838   0.888   0.521  0.1532 -0.0283 -0.3798
 3580TIP3    H110704   5.886   0.833   0.583 -2.3031 -1.3490  0.4627
 3580TIP3    H210705   5.770   0.831   0.486 -2.0951  2.2845 -0.0111
 3581TIP3   OH210706   2.020   6.576   0.094 -0.6761  0.0428  0.1529
 3581TIP3    H110707   2.080   6.629   0.042 -0.8834 -1.1521 -1.3554
 3581TIP3    H210708   2.068   6.494   0.111 -1.0842 -0.0810  0.7600
 3582TIP3   OH210709   2.253   0.976   0.134  0.3909  0.4822 -0.5441
 3582TIP3    H110710   2.157   0.982   0.133  0.3012 -0.3406  0.7736
 3582TIP3    H210711   2.272   0.884   0.115  0.9683  0.7623 -1.4063
 3583TIP3   OH210712   6.062   1.877   5.624 -0.3432 -0.0647  0.4259
 3583TIP3    H110713   6.028   1.914   5.542 -1.2488  0.6568  1.1103
 3583TIP3    H210714   6.075   1.784   5.604 -0.9304  0.0200 -0.4215
 3584TIP3   OH210715   3.534   4.317   0.478 -0.1603 -0.0675 -0.1849
 3584TIP3    H110716   3.586   4.364   0.542  2.8152  0.5072 -2.8078
 3584TIP3    H210717   3.478   4.384   0.438 -0.9872 -0.1723  0.7392
 3585TIP3   OH210718   0.566   5.489   5.283 -0.0547 -0.3928  0.2063
 3585TIP3    H110719   0.506   5.558   5.312  0.9885  0.3299  0.7103
 3585TIP3    H210720   0.548   5.415   5.341  0.3201  0.2108  1.1078
 3586TIP3   OH210721   3.317   1.043   0.736  0.3518 -0.1545 -0.0443
 3586TIP3    H110722   3.400   0.996   0.728  1.2319  1.0359  1.4936
 3586TIP3    H210723   3.290   1.029   0.827  0.3565  1.7914  0.2993
 3587TIP3   OH210724   5.985   2.098   1.018 -0.3261  0.4293 -0.2092
 3587TIP3    H110725   6.033   2.015   1.023 -0.2761  0.4365 -0.5622
 3587TIP3    H210726   5.960   2.116   1.109 -1.1345 -0.4453 -0.2430
 3588TIP3   OH210727   3.944   4.399   0.071 -0.8501  0.0389 -0.3652
 3588TIP3    H110728   3.883   4.469   0.049 -2.5117 -1.5098 -0.8608
 3588TIP3    H210729   3.898   4.345   0.135  0.1753 -0.9141 -0.4062
 3589TIP3   OH210730   2.068   1.588   4.486 -0.0453 -0.1579 -0.0639
 3589TIP3    H110731   2.147   1.548   4.449  0.3345  0.4444  0.0758
 3589TIP3    H210732   2.034   1.523   4.547  1.0149  0.0321  0.7679
 3590TIP3   OH210733   1.411   5.267   2.102 -0.1435 -0.7992 -0.4191
 3590TIP3    H110734   1.402   5.197   2.167 -0.8718 -1.0761 -0.8028
 3590TIP3    H210735   1.460   5.226   2.031  2.3127  0.0284  0.6801
 3591TIP3   OH210736   5.700   3.590   5.434  0.7474 -0.0372  0.3088
 3591TIP3    H110737   5.754   3.669   5.442  0.3736  0.3239 -0.6386
 3591TIP3    H210738   5.624   3.607   5.490  0.4812  0.4368 -0.1931
 3592TIP3   OH210739   7.099   1.735   3.632 -0.0070 -0.1359 -0.2387
 3592TIP3    H110740   7.116   1.688   3.713  0.7741 -1.3725 -1.0927
 3592TIP3    H210741   7.145   1.819   3.643  1.9161 -1.1376 -0.2359
 3593TIP3   OH210742   5.617   1.988   5.822 -0.3008 -0.0863  0.6631
 3593TIP3    H110743   5.628   1.896   5.847  0.5313  0.0446  0.8173
 3593TIP3    H210744   5.678   2.000   5.749 -0.3866  0.3507  0.6611
 3594TIP3   OH210745   3.360   2.781   0.327 -0.5449  0.0668 -0.3548
 3594TIP3    H110746   3.394   2.713   0.385 -0.4527  0.1684 -0.2884
 3594TIP3    H210747   3.288   2.821   0.376 -0.4636  0.1561 -0.3069
 3595TIP3   OH210748   1.229   3.928   1.526  0.4807  0.9835  0.0864
 3595TIP3    H110749   1.301   3.985   1.501  0.7498  0.5555 -0.1223
 3595TIP3    H210750   1.264   3.875   1.598  0.4977  0.5272 -0.2522
 3596TIP3   OH210751   1.919   1.199   0.583 -0.3833 -0.5380  0.3367
 3596TIP3    H110752   1.936   1.132   0.650  2.1309  0.0975  0.4575
 3596TIP3    H210753   1.871   1.153   0.514 -1.4113 -1.6673  1.7530
 3597TIP3   OH210754   5.691   5.900   4.719  0.6214  0.5588  0.2238
 3597TIP3    H110755   5.681   5.933   4.629 -0.4860 -0.3591 -0.0080
 3597TIP3    H210756   5.659   5.971   4.774 -2.9031 -0.3876 -0.3148
 3598TIP3   OH210757   1.351   5.119   3.408  0.6522  0.1528 -0.2949
 3598TIP3    H110758   1.440   5.148   3.388  0.5330 -0.1066 -1.2676
 3598TIP3    H210759   1.296   5.193   3.385  0.5406 -0.0211 -0.5904
 3599TIP3   OH210760   2.411   6.044   2.351  0.1091 -0.0152 -0.1313
 3599TIP3    H110761   2.333   5.990   2.340 -1.6667  2.6439 -1.7446
 3599TIP3    H210762   2.465   6.024   2.275  0.4682 -1.0119  0.3772
 3600TIP3   OH210763   3.162   5.568   5.555 -0.5251 -0.1284 -0.1570
 3600TIP3    H110764   3.217   5.516   5.614 -1.8392 -1.7970 -0.3238
 3600TIP3    H210765   3.191   5.659   5.569  1.7549 -0.8642  0.2363
 3601TIP3   OH210766   1.822   6.264   1.438 -0.3647 -0.3739  0.0662
 3601TIP3    H110767   1.889   6.279   1.371 -1.5912  1.5532 -0.8133
 3601TIP3    H210768   1.871   6.232   1.514  1.1893 -1.7112 -1.4002
 3602TIP3   OH210769   5.525   6.493   3.990  0.0006 -0.2655 -0.0880
 3602TIP3    H110770   5.511   6.401   4.015 -0.0432  0.0199  1.0064
 3602TIP3    H210771   5.440   6.535   4.005 -0.1410 -0.1536 -1.1427
 3603TIP3   OH210772   4.749   5.305   4.656 -0.4363  0.2744  0.4776
 3603TIP3    H110773   4.818   5.245   4.625  0.4761  0.5854  1.8495
 3603TIP3    H210774   4.675   5.248   4.675  0.4265 -0.4596  1.7735
 3604TIP3   OH210775   0.644   1.040   2.597  0.2104 -0.1025  0.6981
 3604TIP3    H110776   0.694   0.966   2.563  0.4539  0.8803 -1.1830
 3604TIP3    H210777   0.709   1.109   2.608 -0.6289  1.1567 -1.6617
 3605TIP3   OH210778   0.091   1.348   4.476  0.7614  0.3707  0.8342
 3605TIP3    H110779   0.124   1.313   4.393 -0.1807  0.5770  0.3666
 3605TIP3    H210780   0.112   1.280   4.540  0.3830 -0.3592  0.2024
 3606TIP3   OH210781   6.695   3.099   4.735 -0.4729  0.3691  0.1753
 3606TIP3    H110782   6.781   3.131   4.707 -0.7450 -0.4501 -1.7051
 3606TIP3    H210783   6.714   3.047   4.814  0.4382  1.9548  1.0506
 3607TIP3   OH210784   1.522   3.926   2.231 -0.0135  0.6505 -0.3140
 3607TIP3    H110785   1.479   4.000   2.188 -3.2185  0.0522  1.5525
 3607TIP3    H210786   1.546   3.959   2.318 -1.4371 -0.4179  0.5206
 3608TIP3   OH210787   4.895   3.297   0.888  0.2493 -0.1687  0.1595
 3608TIP3    H110788   4.914   3.208   0.859  1.4850  0.2480 -0.3782
 3608TIP3    H210789   4.954   3.311   0.962  1.0592  0.6611 -0.6197
 3609TIP3   OH210790   6.931   5.280   2.896  0.7853 -0.0887  0.2489
 3609TIP3    H110791   6.855   5.325   2.935 -0.3377 -0.0826 -1.8117
 3609TIP3    H210792   6.977   5.243   2.971 -0.2681  1.4031  1.7226
 3610TIP3   OH210793   7.165   5.811   4.016 -0.1229 -0.4693  0.1802
 3610TIP3    H110794   7.075   5.827   4.044 -0.4673 -1.5513 -0.2493
 3610TIP3    H210795   7.194   5.737   4.069  0.1563 -0.7780 -0.3858
 3611TIP3   OH210796   3.173   1.029   0.456 -0.3210  0.2086  0.3650
 3611TIP3    H110797   3.211   1.029   0.544 -0.5036 -0.1018  0.4461
 3611TIP3    H210798   3.095   0.973   0.463  1.1194 -2.0716 -0.5924
 3612TIP3   OH210799   6.250   2.478   3.064 -0.2761  0.7222 -0.4107
 3612TIP3    H110800   6.339   2.502   3.089 -0.3107  0.8191 -0.3798
 3612TIP3    H210801   6.239   2.388   3.096 -0.4688  0.9944  0.3086
 3613TIP3   OH210802   3.291   1.573   2.695  0.5024 -0.2068  0.0053
 3613TIP3    H110803   3.207   1.608   2.664  0.1885  0.5993  1.6942
 3613TIP3    H210804   3.268   1.492   2.740  0.8400 -0.8064 -0.8612
 3614TIP3   OH210805   2.381   0.325   0.098  0.3691 -0.3765  0.1357
 3614TIP3    H110806   2.472   0.300   0.110  0.8724  1.3868  0.3314
 3614TIP3    H210807   2.380   0.372   0.014  0.0768  1.3262  1.0453
 3615TIP3   OH210808   1.842   2.172   3.972 -0.2302  0.1899 -0.4964
 3615TIP3    H110809   1.753   2.202   3.955  0.0766  1.3490 -0.1615
 3615TIP3    H210810   1.834   2.116   4.049 -0.7977 -0.4690 -1.0278
 3616TIP3   OH210811   5.589   5.816   4.262  0.2786  0.3458 -0.5243
 3616TIP3    H110812   5.682   5.822   4.282 -0.0437 -0.3820  1.4207
 3616TIP3    H210813   5.580   5.735   4.212  0.6098  0.0360 -0.0889
 3617TIP3   OH210814   2.361   6.185   3.263 -0.1846 -0.1334  0.4181
 3617TIP3    H110815   2.337   6.095   3.241  0.6471 -0.1131 -0.6564
 3617TIP3    H210816   2.413   6.177   3.343  1.6201 -0.8814 -0.7484
 3618TIP3   OH210817   2.571   1.860   5.499 -0.1966 -0.3802 -0.0771
 3618TIP3    H110818   2.503   1.913   5.457 -0.5669 -1.6256 -1.1012
 3618TIP3    H210819   2.647   1.870   5.443  0.2294  0.3573  0.6223
 3619TIP3   OH210820   3.549   5.785   1.190 -0.5907  0.3771  0.1889
 3619TIP3    H110821   3.495   5.713   1.223  1.2146 -0.1453  2.2822
 3619TIP3    H210822   3.530   5.858   1.249  1.3857 -0.0227  1.4188
 3620TIP3   OH210823   1.486   3.569   2.085 -0.3810 -0.2863 -0.4243
 3620TIP3    H110824   1.499   3.481   2.120 -0.8917 -0.5581 -0.8933
 3620TIP3    H210825   1.517   3.563   1.995 -0.2515  0.0655 -0.4028
 3621TIP3   OH210826   1.722   2.558   2.861  0.3511  0.1184  0.4406
 3621TIP3    H110827   1.682   2.561   2.775  0.5577 -0.0713  0.3348
 3621TIP3    H210828   1.655   2.591   2.921  0.3407  0.6072  0.1595
 3622TIP3   OH210829   4.216   6.092   5.407 -0.3826 -0.0210 -0.2575
 3622TIP3    H110830   4.261   6.019   5.364 -0.1328 -0.1377  0.2002
 3622TIP3    H210831   4.130   6.057   5.430 -0.6599  0.1558 -0.9932
 3623TIP3   OH210832   4.896   3.147   4.779  0.1639 -0.2546 -0.0893
 3623TIP3    H110833   4.975   3.104   4.748  0.9956  0.3584  1.1166
 3623TIP3    H210834   4.871   3.098   4.857  0.2435  0.4909  0.4126
 3624TIP3   OH210835   3.230   2.864   2.962 -0.1742 -0.4170  0.1521
 3624TIP3    H110836   3.308   2.907   2.997 -1.6105  0.1308  3.0126
 3624TIP3    H210837   3.187   2.932   2.910  0.1670  0.0049  0.4119
 3625TIP3   OH210838   6.862   3.941   5.613 -0.5415  0.1036 -0.6252
 3625TIP3    H110839   6.852   3.986   5.529  2.0968 -1.4566 -1.9215
 3625TIP3    H210840   6.922   3.997   5.663 -2.0763  1.0104  0.2916
 3626TIP3   OH210841   2.262   3.444   1.047  0.0024  0.5350 -0.3647
 3626TIP3    H110842   2.357   3.447   1.031  0.1873  0.3396  0.6686
 3626TIP3    H210843   2.239   3.534   1.070 -0.2206  0.7615 -1.4172
 3627TIP3   OH210844   2.671   1.643   1.462 -0.3467 -0.8175 -1.2372
 3627TIP3    H110845   2.655   1.727   1.506 -1.9357 -1.5988 -0.2072
 3627TIP3    H210846   2.765   1.641   1.447  0.0537  0.1705  0.8224
 3628TIP3   OH210847   3.513   2.431   2.164  0.1186  0.0009 -0.0205
 3628TIP3    H110848   3.458   2.504   2.191  1.1298  0.5625  0.6080
 3628TIP3    H210849   3.508   2.369   2.237  1.5714  0.7949  0.8202
 3629TIP3   OH210850   4.967   6.358   3.372 -0.0636  0.1134 -0.3770
 3629TIP3    H110851   4.981   6.270   3.408  1.2093 -0.0688 -1.2867
 3629TIP3    H210852   4.886   6.350   3.322 -1.4270  0.1623  1.6807
 3630TIP3   OH210853   4.063   0.995   1.243 -0.2130  0.1498  0.0143
 3630TIP3    H110854   3.992   0.937   1.217  0.0504 -0.6024  0.9101
 3630TIP3    H210855   4.141   0.940   1.243 -0.3940 -0.4220  3.7842
 3631TIP3   OH210856   0.331   6.179   2.941  0.0190  0.1346 -0.4091
 3631TIP3    H110857   0.306   6.271   2.949  1.1316  0.3123  1.9794
 3631TIP3    H210858   0.251   6.130   2.960 -0.2014  0.6211 -0.0734
 3632TIP3   OH210859   1.935   2.780   2.643  0.0219 -0.2870  0.1968
 3632TIP3    H110860   2.019   2.790   2.598 -0.2664  1.0164 -0.0814
 3632TIP3    H210861   1.957   2.778   2.736  0.2019  2.5777  0.2823
 3633TIP3   OH210862   5.784   5.921   2.066  0.1113 -0.5990  0.2815
 3633TIP3    H110863   5.719   5.857   2.093  1.2552 -1.0734  2.0637
 3633TIP3    H210864   5.861   5.869   2.042 -0.0537 -0.0405 -1.6745
 3634TIP3   OH210865   5.248   0.494   3.335 -0.4649  0.2871 -0.0443
 3634TIP3    H110866   5.289   0.576   3.361 -0.8049  0.8569 -1.2260
 3634TIP3    H210867   5.154   0.509   3.349 -0.4130 -0.5671  1.4637
 3635TIP3   OH210868   0.958   5.556   2.830 -0.1448 -0.0580  0.3094
 3635TIP3    H110869   0.934   5.592   2.915 -0.8508  0.6390 -0.1746
 3635TIP3    H210870   0.914   5.470   2.827  1.9774 -1.2883  1.6815
 3636TIP3   OH210871   1.389   0.291   2.727  0.1217  0.4869 -0.1102
 3636TIP3    H110872   1.318   0.305   2.791 -0.3254  0.4698 -0.5952
 3636TIP3    H210873   1.360   0.338   2.649  0.5019  0.2139 -0.4143
 3637TIP3   OH210874   1.998   0.893   0.666 -0.6536  0.4853  0.5031
 3637TIP3    H110875   2.013   0.846   0.585  1.7238 -1.3226  1.8519
 3637TIP3    H210876   1.912   0.863   0.696  0.4130 -2.5703  0.8917
 3638TIP3   OH210877   1.321   3.823   2.076  0.3923  0.4033 -0.3936
 3638TIP3    H110878   1.346   3.731   2.086 -0.9688  0.0565  0.1066
 3638TIP3    H210879   1.361   3.867   2.151 -0.4944 -0.1489  0.4301
 3639TIP3   OH210880   2.957   1.955   1.806 -0.0297  0.4155  0.4424
 3639TIP3    H110881   2.872   1.919   1.830  0.0910  0.4335  0.8963
 3639TIP3    H210882   2.945   2.050   1.808 -0.5291  0.4387 -1.3838
 3640TIP3   OH210883   2.862   6.471   0.488 -0.1563  0.0799 -0.2573
 3640TIP3    H110884   2.905   6.414   0.552 -0.6956 -0.1593 -0.1015
 3640TIP3    H210885   2.776   6.489   0.525 -0.1689  0.6058 -0.5358
 3641TIP3   OH210886   4.013   4.151   1.873 -0.6603  0.5291 -0.0235
 3641TIP3    H110887   3.936   4.095   1.884 -0.6126 -0.1190 -2.4774
 3641TIP3    H210888   4.009   4.180   1.782  3.1233 -1.3311 -0.9929
 3642TIP3   OH210889   6.756   6.197   1.955  0.2534  0.4648 -0.3916
 3642TIP3    H110890   6.739   6.186   1.862  0.2050  1.0895 -0.4616
 3642TIP3    H210891   6.679   6.243   1.988  0.1046 -0.0705  0.0310
 3643TIP3   OH210892   2.994   1.921   3.496  0.0468 -0.0778 -0.0865
 3643TIP3    H110893   2.936   1.963   3.560  0.3628 -1.2613  1.0236
 3643TIP3    H210894   3.040   1.994   3.453  0.5583  0.7324  1.7341
 3644TIP3   OH210895   3.239   2.088   3.472  0.4918  0.0192 -0.4988
 3644TIP3    H110896   3.293   2.026   3.421  1.8314  0.4386  0.3610
 3644TIP3    H210897   3.284   2.094   3.556 -1.8180 -0.8633  0.8770
 3645TIP3   OH210898   0.545   0.118   1.732 -0.4858  0.0749  0.5278
 3645TIP3    H110899   0.586   0.069   1.660 -2.9804  0.5110 -1.2915
 3645TIP3    H210900   0.602   0.100   1.807  1.4200 -1.6097 -1.1780
 3646TIP3   OH210901   6.501   5.278   3.508 -0.4230 -0.5002 -0.3679
 3646TIP3    H110902   6.551   5.292   3.589 -0.8454 -0.6744 -0.0726
 3646TIP3    H210903   6.417   5.319   3.525 -1.1443 -2.0451 -0.0590
 3647TIP3   OH210904   4.942   2.022   3.206  0.0741  0.3056  0.2445
 3647TIP3    H110905   4.900   2.103   3.179 -1.5192 -0.5062  0.2133
 3647TIP3    H210906   4.880   1.953   3.184  2.1219 -1.1522 -1.3957
 3648TIP3   OH210907   3.114   3.512   3.126 -0.5165 -0.4811  0.0924
 3648TIP3    H110908   3.139   3.594   3.083 -2.6781 -0.4053 -1.1625
 3648TIP3    H210909   3.191   3.487   3.177  1.0262  1.1081 -1.3334
 3649TIP3   OH210910   0.667   5.975   4.061  0.7810 -0.4126  0.5069
 3649TIP3    H110911   0.674   5.890   4.104  2.2404 -0.3582  0.4289
 3649TIP3    H210912   0.694   5.958   3.971 -1.8509 -0.4443 -0.3543
 3650TIP3   OH210913   5.189   6.503   4.448 -0.0992 -0.1583  0.3489
 3650TIP3    H110914   5.133   6.538   4.517  0.0060 -1.2211  0.9998
 3650TIP3    H210915   5.143   6.424   4.419 -1.1034  1.2070 -2.1132
 3651TIP3   OH210916   1.601   4.974   5.187 -1.0498 -0.2149  0.0837
 3651TIP3    H110917   1.637   5.011   5.268  1.2813  0.5337 -1.1991
 3651TIP3    H210918   1.613   4.880   5.196  0.1895 -0.0646  0.2018
 3652TIP3   OH210919   6.298   3.288   0.995  0.3787  0.1099  0.1008
 3652TIP3    H110920   6.366   3.355   0.996  0.0371  0.5585 -2.0626
 3652TIP3    H210921   6.311   3.239   1.076  1.3507  2.0649  1.1861
 3653TIP3   OH210922   6.360   6.222   0.066  0.2493 -0.9777 -0.0781
 3653TIP3    H110923   6.363   6.302   0.013  1.3531 -0.7639  0.2852
 3653TIP3    H210924   6.416   6.241   0.141 -1.0011 -1.4082  1.0038
 3654TIP3   OH210925   2.790   1.054   5.066 -0.0027 -0.4740  0.0829
 3654TIP3    H110926   2.779   1.055   5.162 -0.2128 -0.5595  0.0603
 3654TIP3    H210927   2.719   0.998   5.035  0.8436 -1.4852 -0.0381
 3655TIP3   OH210928   2.681   2.660   4.618 -0.1322  0.4703  0.2501
 3655TIP3    H110929   2.631   2.581   4.601  1.2558 -0.7297  1.4890
 3655TIP3    H210930   2.676   2.710   4.537 -0.1687 -1.3567 -0.9087
 3656TIP3   OH210931   7.195   6.062   1.586  0.5356 -0.1615  0.3208
 3656TIP3    H110932   7.180   6.035   1.676 -3.5287  1.4653  0.3247
 3656TIP3    H210933   7.143   6.001   1.534  0.4230  0.7171 -0.6254
 3657TIP3   OH210934   4.750   4.398   4.363 -0.0227  0.2559 -0.3383
 3657TIP3    H110935   4.740   4.334   4.433 -1.1103  0.9720  0.1995
 3657TIP3    H210936   4.820   4.363   4.307 -0.1597 -1.0588  0.2836
 3658TIP3   OH210937   2.303   3.889   1.952  0.0397  0.0388 -0.3005
 3658TIP3    H110938   2.312   3.863   2.044  0.6185  1.5317  0.0989
 3658TIP3    H210939   2.216   3.929   1.947 -0.1196 -0.3308 -0.4777
 3659TIP3   OH210940   4.231   1.434   5.267 -0.1135 -0.0306  0.3264
 3659TIP3    H110941   4.195   1.473   5.187 -0.5082  2.4550  1.6162
 3659TIP3    H210942   4.325   1.434   5.253 -0.2498 -1.2824 -0.8059
 3660TIP3   OH210943   2.820   4.821   4.675  0.1916  0.2476 -0.1935
 3660TIP3    H110944   2.784   4.902   4.638 -0.7965 -0.1198 -0.0658
 3660TIP3    H210945   2.824   4.838   4.769 -0.7663 -0.1127 -0.0715
 3661TIP3   OH210946   6.545   0.942   0.926  0.2177 -0.0097  0.0815
 3661TIP3    H110947   6.580   1.018   0.879 -1.2171  2.7189  3.0781
 3661TIP3    H210948   6.453   0.964   0.943 -0.3110 -2.5277  0.9258
 3662TIP3   OH210949   3.155   0.291   1.224 -0.2036  0.0811 -0.7666
 3662TIP3    H110950   3.135   0.287   1.131  1.4630  0.4065 -1.1578
 3662TIP3    H210951   3.250   0.292   1.229 -0.1952  3.0854  0.7910
 3663TIP3   OH210952   2.172   4.873   4.351 -0.5174 -0.6487 -0.5015
 3663TIP3    H110953   2.080   4.867   4.323 -0.1132  1.0950 -2.4394
 3663TIP3    H210954   2.222   4.851   4.272  0.7948 -2.4736  0.7579
 3664TIP3   OH210955   4.294   5.562   0.990  0.5040  0.3823  0.1652
 3664TIP3    H110956   4.244   5.576   1.071  0.8398  0.7994  0.3069
 3664TIP3    H210957   4.248   5.613   0.924  1.4385  1.8232  0.5722
 3665TIP3   OH210958   6.433   4.129   3.289  0.6174 -0.5545  0.4135
 3665TIP3    H110959   6.444   4.219   3.320  0.7512 -0.1671 -0.7335
 3665TIP3    H210960   6.461   4.075   3.363 -0.8911  0.3147  1.6894
 3666TIP3   OH210961   6.951   1.806   3.060 -0.2739  0.2067 -0.1328
 3666TIP3    H110962   6.981   1.806   2.969 -0.3945  0.3539 -0.1719
 3666TIP3    H210963   6.860   1.835   3.056 -0.0546  0.9524  0.1046
 3667TIP3   OH210964   0.525   3.985   2.510 -0.4442 -0.5407 -0.0420
 3667TIP3    H110965   0.467   3.925   2.463  0.3263 -0.8076 -0.6749
 3667TIP3    H210966   0.467   4.056   2.539 -0.9275 -0.3186 -1.4817
 3668TIP3   OH210967   4.854   0.805   2.342  0.4091  0.0663  0.4549
 3668TIP3    H110968   4.790   0.751   2.389  1.2067  0.8152  2.4883
 3668TIP3    H210969   4.865   0.883   2.397  0.9105  1.3254 -1.3228
 3669TIP3   OH210970   1.943   5.625   4.002 -0.7299 -0.0554 -0.4604
 3669TIP3    H110971   1.989   5.653   4.081 -0.0362 -0.0743 -0.8451
 3669TIP3    H210972   1.977   5.682   3.933 -2.2823  0.8248 -0.5159
 3670TIP3   OH210973   5.658   0.133   0.188 -0.0143  0.2848  0.0086
 3670TIP3    H110974   5.606   0.089   0.121 -1.9953  1.3132  0.7857
 3670TIP3    H210975   5.727   0.070   0.210 -1.4691 -1.5513 -0.4339
 3671TIP3   OH210976   7.186   5.594   3.789 -0.6125 -0.3169 -0.0392
 3671TIP3    H110977   7.224   5.522   3.839  0.7132  1.5954  1.8837
 3671TIP3    H210978   7.201   5.672   3.843  1.6198  2.0912 -3.6965
 3672TIP3   OH210979   5.537   1.876   0.427 -0.1828 -0.1680  0.3632
 3672TIP3    H110980   5.490   1.907   0.350  0.5866 -2.3655 -1.1033
 3672TIP3    H210981   5.628   1.901   0.412 -0.2438  0.6929  1.3182
 3673TIP3   OH210982   4.449   5.292   1.342  0.9071 -0.3501 -0.1578
 3673TIP3    H110983   4.437   5.372   1.392  0.9297  0.5816 -1.5846
 3673TIP3    H210984   4.372   5.287   1.286  1.6100 -0.5137 -1.1331
 3674TIP3   OH210985   4.501   2.069   1.487 -0.9776  0.2026 -0.0066
 3674TIP3    H110986   4.416   2.050   1.447  0.4634 -0.9719 -2.8447
 3674TIP3    H210987   4.563   2.016   1.437  1.5346  1.5476  1.4646
 3675TIP3   OH210988   6.952   0.952   1.648  0.6738 -0.4528  0.0057
 3675TIP3    H110989   6.883   1.018   1.640  1.1663  0.3879  1.9285
 3675TIP3    H210990   6.921   0.895   1.719  1.1469 -1.1441 -0.3391
 3676TIP3   OH210991   6.484   5.524   5.475 -0.2623 -0.0691 -0.2397
 3676TIP3    H110992   6.389   5.529   5.468 -0.2720  1.3096  0.6017
 3676TIP3    H210993   6.515   5.612   5.454  0.8381 -0.5095 -0.5462
 3677TIP3   OH210994   3.198   1.065   2.831  0.4428 -0.3145 -0.9449
 3677TIP3    H110995   3.239   0.980   2.848 -1.0351 -0.6081  1.6342
 3677TIP3    H210996   3.123   1.068   2.891 -1.1355  1.7145 -2.8505
 3678TIP3   OH210997   4.099   4.541   5.018 -0.2976 -0.0174 -0.4259
 3678TIP3    H110998   4.137   4.628   5.031 -0.6285 -0.0286  0.7322
 3678TIP3    H210999   4.057   4.520   5.102  1.5947 -2.1978  0.0660
 3679TIP3   OH211000   4.917   4.272   4.199 -0.3849 -0.4519  0.0746
 3679TIP3    H111001   4.959   4.300   4.118 -1.2560  0.7093  0.0001
 3679TIP3    H211002   4.945   4.181   4.210 -1.2519 -1.0568 -2.1903
 3680TIP3   OH211003   2.704   3.570   5.276  0.2609 -0.4878  0.1410
 3680TIP3    H111004   2.665   3.646   5.318 -0.8184 -1.0842  0.2453
 3680TIP3    H211005   2.798   3.583   5.285  0.0851  0.7634  0.2752
 3681TIP3   OH211006   4.239   5.354   2.331  0.0473  0.2591 -0.2522
 3681TIP3    H111007   4.210   5.263   2.321 -0.1241  0.3045 -0.1640
 3681TIP3    H211008   4.333   5.351   2.314 -0.4141  0.5748 -3.5922
 3682TIP3   OH211009   7.093   0.859   3.081  0.3328  0.0094 -0.5320
 3682TIP3    H111010   6.998   0.853   3.072  0.4544 -0.4435 -1.7309
 3682TIP3    H211011   7.111   0.953   3.079 -0.2571  0.2417  2.0882
 3683TIP3   OH211012   1.302   5.970   0.404 -0.1939  0.3746 -0.5381
 3683TIP3    H111013   1.241   5.979   0.331  0.2031 -0.0859 -0.9306
 3683TIP3    H211014   1.386   6.002   0.370 -0.2824  1.3177  0.1013
 3684TIP3   OH211015   5.698   4.156   0.626 -0.1504 -0.1356 -0.0219
 3684TIP3    H111016   5.638   4.161   0.552 -0.3181  1.6276  0.1844
 3684TIP3    H211017   5.779   4.198   0.595  0.0276 -0.0448  0.5483
 3685TIP3   OH211018   3.216   3.459   4.789  0.4432  0.1865 -0.6423
 3685TIP3    H111019   3.173   3.455   4.874  0.7124  0.8869 -0.4617
 3685TIP3    H211020   3.187   3.381   4.743  0.6234 -0.4159  0.2524
 3686TIP3   OH211021   3.804   3.825   5.449 -0.2897 -0.0776 -0.3769
 3686TIP3    H111022   3.859   3.770   5.506 -0.0846  0.9680  0.4750
 3686TIP3    H211023   3.859   3.842   5.372 -0.1815 -0.6811 -0.4359
 3687TIP3   OH211024   4.333   0.896   0.734  0.6924  0.2271 -0.0113
 3687TIP3    H111025   4.288   0.954   0.795 -0.0325  0.1863 -0.4907
 3687TIP3    H211026   4.353   0.818   0.785  1.4182  0.7675  0.5603
 3688TIP3   OH211027   0.854   5.752   1.398 -0.1880  0.6425  0.0703
 3688TIP3    H111028   0.888   5.720   1.481 -1.0312 -1.1810 -0.2515
 3688TIP3    H211029   0.926   5.738   1.336  0.0036  0.8695  0.2378
 3689TIP3   OH211030   0.687   5.725   2.135  0.3380  0.4218  0.1216
 3689TIP3    H111031   0.711   5.817   2.146 -2.3730  1.4087 -1.2939
 3689TIP3    H211032   0.626   5.725   2.061  0.1969 -2.5310  0.1216
 3690TIP3   OH211033   1.305   3.220   5.564 -0.2607  0.4283  0.2821
 3690TIP3    H111034   1.387   3.222   5.515  0.4569  2.0392  1.4442
 3690TIP3    H211035   1.293   3.128   5.586 -0.3743 -0.2956 -2.4182
 3691TIP3   OH211036   3.763   0.390   3.311 -0.1714  0.2602  0.4959
 3691TIP3    H111037   3.731   0.359   3.396 -0.2615  2.6819  1.4270
 3691TIP3    H211038   3.765   0.486   3.320  2.8425  0.4808 -1.1276
 3692TIP3   OH211039   4.328   0.376   2.547 -0.3099 -0.4261  0.0876
 3692TIP3    H111040   4.302   0.364   2.638  2.7814 -0.2418  1.1262
 3692TIP3    H211041   4.373   0.460   2.546  0.9748 -1.0802 -1.2380
 3693TIP3   OH211042   4.471   1.561   5.528 -0.0959 -0.5537 -0.0263
 3693TIP3    H111043   4.483   1.503   5.453 -0.4810  2.1119 -2.3531
 3693TIP3    H211044   4.558   1.571   5.566  0.6398 -0.0181 -1.7535
 3694TIP3   OH211045   7.013   2.243   3.927  0.1872 -0.0766  0.5865
 3694TIP3    H111046   6.981   2.293   4.003  0.4147 -0.7564  1.1389
 3694TIP3    H211047   7.081   2.187   3.963  1.0769  0.3900 -0.3401
 3695TIP3   OH211048   0.123   2.468   0.364 -0.2043 -0.2468 -0.2660
 3695TIP3    H111049   0.046   2.508   0.324 -0.3052  0.7343  0.8480
 3695TIP3    H211050   0.101   2.376   0.373 -1.0080 -0.0854 -0.5084
 3696TIP3   OH211051   5.003   0.531   2.248 -0.5666 -0.0232 -0.0810
 3696TIP3    H111052   4.984   0.477   2.324  1.8245  0.5525  1.0086
 3696TIP3    H211053   5.029   0.616   2.284  0.7949  0.2078 -1.4974
 3697TIP3   OH211054   0.677   4.097   5.636 -0.2570  0.2547  0.5769
 3697TIP3    H111055   0.670   4.010   5.675  2.3031 -0.1364  0.3304
 3697TIP3    H211056   0.735   4.085   5.561 -0.4083  2.0716  0.1274
 3698TIP3   OH211057   2.826   6.247   5.312 -0.3403  0.0278 -0.4396
 3698TIP3    H111058   2.873   6.318   5.269 -0.2208 -1.1315 -2.3863
 3698TIP3    H211059   2.753   6.228   5.252  0.3418 -2.2599 -0.6301
 3699TIP3   OH211060   4.542   1.728   2.616  0.6317  0.1406 -0.3137
 3699TIP3    H111061   4.607   1.658   2.612 -1.8440 -2.2630 -2.2926
 3699TIP3    H211062   4.505   1.722   2.704  1.6205  0.1412  0.1120
 3700TIP3   OH211063   2.276   4.343   1.984  0.0801 -0.5625 -0.6102
 3700TIP3    H111064   2.312   4.410   1.926 -1.8707  0.7481 -0.4030
 3700TIP3    H211065   2.321   4.355   2.067 -0.1092  0.3788 -0.6382
 3701TIP3   OH211066   0.449   1.410   2.759 -0.2885 -0.5944  0.2477
 3701TIP3    H111067   0.501   1.476   2.713 -2.2291 -0.5847 -2.1421
 3701TIP3    H211068   0.513   1.356   2.804  1.5523  1.1178 -0.1754
 3702TIP3   OH211069   3.636   3.646   2.006 -0.4858  0.1721 -0.5597
 3702TIP3    H111070   3.693   3.604   2.070  0.5991  2.3999  0.0610
 3702TIP3    H211071   3.696   3.683   1.941 -1.2747  1.4200 -0.6154
 3703TIP3   OH211072   6.463   3.562   3.872  0.1538 -0.0790  0.7875
 3703TIP3    H111073   6.469   3.488   3.933 -0.1494 -0.4620  0.3556
 3703TIP3    H211074   6.497   3.529   3.789 -0.5561  0.0816  0.4263
 3704TIP3   OH211075   3.971   6.078   2.868 -0.5138 -0.5152 -0.1538
 3704TIP3    H111076   3.951   6.042   2.782  0.8295 -2.8165  0.4077
 3704TIP3    H211077   4.066   6.070   2.876  0.0933  4.1067 -0.2550
 3705TIP3   OH211078   6.625   5.130   0.938 -0.0671 -0.2412  0.1693
 3705TIP3    H111079   6.709   5.112   0.896 -0.0730 -0.5378  0.2820
 3705TIP3    H211080   6.598   5.046   0.974  0.1411  0.0867  1.1298
 3706TIP3   OH211081   0.834   5.065   2.902  0.3337 -0.2757  0.4290
 3706TIP3    H111082   0.807   5.156   2.887 -0.4831 -0.5298  0.3236
 3706TIP3    H211083   0.783   5.014   2.839 -2.3090 -1.2496  3.1281
 3707TIP3   OH211084   2.639   0.776   2.405 -0.3628 -0.1173  0.4827
 3707TIP3    H111085   2.557   0.743   2.368 -0.3019 -0.5082  0.6861
 3707TIP3    H211086   2.628   0.766   2.499 -0.1796  0.0687  0.5237
 3708TIP3   OH211087   2.065   2.801   2.914 -0.6721 -0.0603  0.0881
 3708TIP3    H111088   2.033   2.878   2.961 -0.7971 -0.0184 -0.0630
 3708TIP3    H211089   1.999   2.733   2.931 -0.3561 -0.2561  0.5531
 3709TIP3   OH211090   1.749   0.615   0.961 -0.2738  0.6277  0.1133
 3709TIP3    H111091   1.756   0.659   0.877 -0.0756 -0.1953 -0.3145
 3709TIP3    H211092   1.836   0.576   0.975  0.0720  1.7271  1.2581
 3710TIP3   OH211093   0.264   2.330   4.859  0.0779 -0.0001 -0.8991
 3710TIP3    H111094   0.353   2.305   4.833  0.2620 -0.7162  0.3230
 3710TIP3    H211095   0.277   2.402   4.920 -0.1818 -0.0123 -0.8300
 3711TIP3   OH211096   2.665   1.176   4.746 -0.4081  0.7560  0.2200
 3711TIP3    H111097   2.579   1.216   4.731 -0.3655  0.7407 -0.0780
 3711TIP3    H211098   2.648   1.105   4.808 -0.9984 -0.6088 -1.4050
 3712TIP3   OH211099   4.846   6.560   1.401 -0.1425  0.7626 -0.3209
 3712TIP3    H111100   4.886   6.646   1.390  0.2812  0.6633  0.3955
 3712TIP3    H211101   4.819   6.557   1.493 -1.0333  0.4977 -0.5725
 3713TIP3   OH211102   4.625   4.331   1.831 -0.1041 -0.3729 -0.2575
 3713TIP3    H111103   4.694   4.319   1.766  0.0735  0.4535 -0.2365
 3713TIP3    H211104   4.671   4.344   1.914 -0.3288 -1.4098  0.0414
 3714TIP3   OH211105   6.814   6.667   4.030  0.0003  0.1206  0.1839
 3714TIP3    H111106   6.733   6.630   3.994 -0.3618  0.0451  1.0438
 3714TIP3    H211107   6.834   6.612   4.106  0.6770  0.3489  0.1781
 3715TIP3   OH211108   6.005   1.393   3.859 -0.3315 -0.7631 -0.1383
 3715TIP3    H111109   6.075   1.456   3.841 -1.4198  0.6290  0.4310
 3715TIP3    H211110   5.950   1.435   3.924 -2.3577 -1.3647 -1.3921
 3716TIP3   OH211111   5.276   3.239   0.291  0.5964 -0.0361 -0.2788
 3716TIP3    H111112   5.360   3.203   0.318  1.6514  0.6434 -2.4256
 3716TIP3    H211113   5.279   3.331   0.317 -1.2280 -0.7900  3.2621
 3717TIP3   OH211114   3.558   2.296   5.254 -0.0867  0.4809 -0.3599
 3717TIP3    H111115   3.638   2.345   5.274 -0.8908  2.2864 -1.3176
 3717TIP3    H211116   3.497   2.322   5.324  0.0483 -0.6815  0.2147
 3718TIP3   OH211117   4.038   0.610   5.522 -0.1715 -0.2474  0.5591
 3718TIP3    H111118   3.972   0.560   5.569  0.0590 -2.3984 -1.2211
 3718TIP3    H211119   3.990   0.655   5.453 -0.0631  0.1132  0.7145
 3719TIP3   OH211120   5.194   5.357   3.109  0.4897 -0.1479  0.5377
 3719TIP3    H111121   5.262   5.381   3.047 -0.7759  0.7350 -0.5604
 3719TIP3    H211122   5.242   5.319   3.183  2.3065  1.8756  0.5100
 3720TIP3   OH211123   7.097   1.056   3.883  0.0329 -0.4447 -0.3682
 3720TIP3    H111124   7.081   1.151   3.887  0.2632 -0.3746 -0.9912
 3720TIP3    H211125   7.060   1.022   3.965 -2.8101 -0.1976 -1.4338
 3721TIP3   OH211126   2.320   2.733   2.880 -0.5690  0.6552  0.3135
 3721TIP3    H111127   2.239   2.783   2.886 -1.9900 -1.5454  0.5277
 3721TIP3    H211128   2.310   2.662   2.942  3.0889  2.1926  3.0685
 3722TIP3   OH211129   0.417   0.456   4.930 -0.5260  0.2230 -0.2026
 3722TIP3    H111130   0.422   0.537   4.981  1.1091 -0.7278  1.2682
 3722TIP3    H211131   0.369   0.395   4.986  0.4824 -0.5663 -0.1773
 3723TIP3   OH211132   4.042   4.267   3.523 -0.5100  0.0292  0.6163
 3723TIP3    H111133   4.054   4.255   3.429 -1.9027 -1.3276  0.5779
 3723TIP3    H211134   4.051   4.178   3.559 -0.4778  0.4649  1.7133
 3724TIP3   OH211135   1.512   4.784   4.931  0.1258 -0.5003 -0.0663
 3724TIP3    H111136   1.572   4.743   4.993  0.6037  0.2748 -0.0091
 3724TIP3    H211137   1.439   4.815   4.985 -0.6562 -1.9765 -0.2072
 3725TIP3   OH211138   4.045   3.943   3.558  0.6614 -0.0414 -0.0078
 3725TIP3    H111139   4.089   3.864   3.589 -0.9752 -0.6318  0.9195
 3725TIP3    H211140   3.989   3.971   3.631 -3.4461 -1.5397 -2.2185
 3726TIP3   OH211141   2.206   6.417   3.200 -0.4862 -0.2611  0.3646
 3726TIP3    H111142   2.260   6.481   3.246  0.1817 -0.4757 -0.1135
 3726TIP3    H211143   2.253   6.335   3.209 -0.8474 -0.4950  0.1258
 3727TIP3   OH211144   2.576   0.986   0.336 -0.4985  0.4203 -0.1869
 3727TIP3    H111145   2.523   0.914   0.301 -0.5868  0.6214 -0.4684
 3727TIP3    H211146   2.538   1.065   0.298 -1.8425  0.8503  1.8568
 3728TIP3   OH211147   3.980   5.627   2.096  0.0511  0.3416 -0.6534
 3728TIP3    H111148   4.011   5.637   2.006  1.5309 -1.4266 -0.3787
 3728TIP3    H211149   3.915   5.557   2.091 -0.7424  1.0566 -0.5163
 3729TIP3   OH211150   4.468   6.617   5.510  0.4703  0.6991  0.5861
 3729TIP3    H111151   4.530   6.690   5.502  2.2070 -0.6840  0.7967
 3729TIP3    H211152   4.514   6.543   5.472 -0.4869 -0.7305  2.0970
 3730TIP3   OH211153   3.438   4.939   0.528  0.1425  0.6035  0.1972
 3730TIP3    H111154   3.397   4.946   0.442 -0.8626 -2.0904  0.3560
 3730TIP3    H211155   3.521   4.895   0.512  0.4138  0.9841  0.5152
 3731TIP3   OH211156   2.377   4.968   2.807 -0.3039  0.4400  0.3234
 3731TIP3    H111157   2.310   4.945   2.871  1.6883 -1.9466  1.7393
 3731TIP3    H211158   2.367   5.063   2.795 -1.4613  0.8330  3.4111
 3732TIP3   OH211159   2.431   2.046   1.317  0.3048  0.0506  0.0630
 3732TIP3    H111160   2.363   2.083   1.373 -1.5316 -1.6604 -0.9134
 3732TIP3    H211161   2.486   1.995   1.377  0.9663  1.6945  0.9141
 3733TIP3   OH211162   2.234   6.763   1.216  0.1130  0.0037  0.0747
 3733TIP3    H111163   2.166   6.747   1.283  1.5864 -1.0400  1.4032
 3733TIP3    H211164   2.204   6.713   1.140 -0.5574 -0.5442  0.6790
 3734TIP3   OH211165   1.469   1.182   0.069 -0.1893  0.2667  0.6028
 3734TIP3    H111166   1.398   1.199   0.008  0.6402 -0.0729 -0.4888
 3734TIP3    H211167   1.429   1.189   0.155 -1.2961  1.1866  0.0421
 3735TIP3   OH211168   2.198   1.564   3.932 -0.0517  0.1818 -0.3896
 3735TIP3    H111169   2.153   1.595   3.853 -1.6362  0.2675  0.5099
 3735TIP3    H211170   2.199   1.469   3.922 -1.6657  0.0823  0.1906
 3736TIP3   OH211171   5.341   3.033   2.655 -0.1846 -0.2366 -0.3312
 3736TIP3    H111172   5.390   3.115   2.653 -1.4975  0.6155  0.8266
 3736TIP3    H211173   5.364   2.990   2.573  1.5223  0.6844 -0.3795
 3737TIP3   OH211174   5.592   1.152   0.516 -0.6129 -0.1951 -0.4332
 3737TIP3    H111175   5.601   1.243   0.543 -0.3430 -0.1366 -0.7162
 3737TIP3    H211176   5.680   1.115   0.524 -0.8113 -0.5722  0.1650
 3738TIP3   OH211177   5.340   5.498   1.898  0.1436 -0.6116  0.1702
 3738TIP3    H111178   5.320   5.581   1.940  0.7797 -0.4055  0.0647
 3738TIP3    H211179   5.391   5.522   1.821 -0.9633 -0.9815 -0.7186
 3739TIP3   OH211180   2.121   3.390   5.525  0.1278 -0.1347  0.3391
 3739TIP3    H111181   2.166   3.393   5.440 -0.7613 -0.0270 -0.1366
 3739TIP3    H211182   2.037   3.431   5.509  0.5356  1.3140  1.6615
 3740TIP3   OH211183   7.070   0.788   1.459 -0.4743  0.0849 -0.4508
 3740TIP3    H111184   7.050   0.832   1.542 -0.6663  0.9734 -0.9611
 3740TIP3    H211185   7.165   0.799   1.449 -0.5339  0.4619 -0.6175
 3741TIP3   OH211186   0.568   3.800   3.461  0.4210  0.0734  0.1472
 3741TIP3    H111187   0.623   3.839   3.393  1.3089 -1.2569  0.0661
 3741TIP3    H211188   0.622   3.803   3.540  0.1269 -0.0955  0.3551
 3742TIP3   OH211189   6.614   2.989   0.877  0.3217 -0.3756 -0.0239
 3742TIP3    H111190   6.556   3.056   0.841  0.8199 -0.7741 -1.6666
 3742TIP3    H211191   6.678   3.038   0.929 -0.7484  0.1729  0.8074
 3743TIP3   OH211192   4.368   4.042   2.306 -0.6218 -0.2078  0.0328
 3743TIP3    H111193   4.440   4.065   2.247  0.0007 -1.3762  0.3141
 3743TIP3    H211194   4.356   4.120   2.361  1.2782 -0.4276  0.8248
 3744TIP3   OH211195   5.789   3.233   0.494 -0.0482 -0.1902  0.2157
 3744TIP3    H111196   5.711   3.213   0.442 -0.1459  1.1251 -0.1738
 3744TIP3    H211197   5.850   3.162   0.473  0.2167  0.6809 -2.3529
 3745TIP3   OH211198   0.238   1.013   4.990 -0.1025  0.0720 -0.2808
 3745TIP3    H111199   0.320   1.020   4.940 -0.0920  4.5616 -0.0350
 3745TIP3    H211200   0.172   0.989   4.924  1.1292 -2.8804 -0.6159
 3746TIP3   OH211201   1.657   3.129   2.553  0.4646  0.1334 -0.0147
 3746TIP3    H111202   1.665   3.214   2.510 -2.4455 -0.1849 -1.4960
 3746TIP3    H211203   1.689   3.066   2.488  1.5425  0.0152  0.6252
 3747TIP3   OH211204   4.373   3.773   2.329  0.0114  0.0817 -0.2909
 3747TIP3    H111205   4.384   3.867   2.320 -1.4442  0.2441 -0.5990
 3747TIP3    H211206   4.362   3.759   2.423 -0.7682  0.3444 -0.3407
 3748TIP3   OH211207   4.384   5.689   4.712 -0.6701  0.0794 -0.2242
 3748TIP3    H111208   4.383   5.783   4.732 -4.2797  0.1631 -0.1194
 3748TIP3    H211209   4.388   5.647   4.798 -0.8003  0.1793 -0.1685
 3749TIP3   OH211210   0.954   1.171   5.522  0.0302  0.1384 -0.2156
 3749TIP3    H111211   0.935   1.229   5.596  0.9931  0.7024 -0.3902
 3749TIP3    H211212   1.036   1.128   5.546  0.4718  0.4917 -1.0329
 3750TIP3   OH211213   0.729   0.397   1.201 -0.3563 -0.3646  0.0955
 3750TIP3    H111214   0.672   0.323   1.181  0.4682 -0.7419 -0.8813
 3750TIP3    H211215   0.811   0.358   1.230 -0.6290  0.1809  1.7549
 3751TIP3   OH211216   2.382   5.311   2.351 -0.4416 -0.0670  0.5753
 3751TIP3    H111217   2.464   5.276   2.385  0.9688  2.5862  0.2219
 3751TIP3    H211218   2.389   5.301   2.256 -1.0434 -0.8240  0.6054
 3752TIP3   OH211219   0.120   0.780   3.667  0.1072 -0.4395 -0.1149
 3752TIP3    H111220   0.052   0.731   3.620  0.3596 -0.6469 -0.2705
 3752TIP3    H211221   0.089   0.784   3.757 -0.6677  0.4726 -0.4066
 3753TIP3   OH211222   4.209   6.820   0.585 -0.0401 -0.5624  0.0202
 3753TIP3    H111223   4.116   6.811   0.562 -0.4929 -0.0417  1.5008
 3753TIP3    H211224   4.245   6.732   0.577 -0.9281 -0.9782  0.4544
 3754TIP3   OH211225   3.015   0.959   5.321 -0.1818 -0.3648  0.3095
 3754TIP3    H111226   3.033   0.933   5.230  1.2148  0.7995  0.2294
 3754TIP3    H211227   2.971   0.883   5.359  0.6414 -1.4926 -0.8997
 3755TIP3   OH211228   7.154   0.549   3.822  0.6252  0.0769  0.2474
 3755TIP3    H111229   7.206   0.470   3.805  1.8012  0.7878  0.4023
 3755TIP3    H211230   7.202   0.594   3.893 -0.9631  0.0835  1.3679
 3756TIP3   OH211231   6.159   4.013   1.393  0.5124 -0.4600  0.5015
 3756TIP3    H111232   6.190   3.945   1.452  2.2634 -1.3380 -1.2994
 3756TIP3    H211233   6.235   4.037   1.341 -0.5232  1.5386 -0.2207
 3757TIP3   OH211234   4.758   5.785   1.862  0.1919 -0.0693 -0.7118
 3757TIP3    H111235   4.705   5.820   1.791  1.4814  0.7819 -1.2803
 3757TIP3    H211236   4.704   5.714   1.899 -1.5185  1.0359 -0.9598
 3758TIP3   OH211237   0.373   2.721   2.303  0.0996  0.1207  0.0125
 3758TIP3    H111238   0.450   2.670   2.275 -0.2534  0.1686 -1.0849
 3758TIP3    H211239   0.406   2.778   2.373  0.9976 -0.0499 -0.2629
 3759TIP3   OH211240   5.949   0.765   2.297  0.5603 -0.3161 -0.0539
 3759TIP3    H111241   5.986   0.684   2.263  0.2201 -0.1418 -0.8387
 3759TIP3    H211242   5.866   0.739   2.337  1.2748 -0.6334  1.3078
 3760TIP3   OH211243   0.193   4.654   5.616  0.0470 -0.4233  0.2390
 3760TIP3    H111244   0.099   4.655   5.599 -0.1247  0.4878  1.1551
 3760TIP3    H211245   0.209   4.569   5.659 -0.5870 -0.0465  1.2469
 3761TIP3   OH211246   4.095   0.318   5.409  0.0296  0.5920 -0.3814
 3761TIP3    H111247   4.117   0.374   5.483 -0.9107  1.6262 -0.8670
 3761TIP3    H211248   4.180   0.281   5.382  0.1274 -1.8320  2.7202
 3762TIP3   OH211249   6.700   3.685   0.472  0.1735  0.1784 -0.0620
 3762TIP3    H111250   6.682   3.742   0.397  0.9541 -0.0256 -0.4187
 3762TIP3    H211251   6.718   3.745   0.544 -3.2387  0.4548  0.7453
 3763TIP3   OH211252   6.253   6.204   0.958  0.3689 -0.2130  0.2095
 3763TIP3    H111253   6.195   6.249   0.897 -0.5998 -0.0487  1.2146
 3763TIP3    H211254   6.333   6.188   0.908 -0.9141 -1.4567 -1.5761
 3764TIP3   OH211255   4.956   6.749   0.705  0.1505 -0.0693  0.0349
 3764TIP3    H111256   4.919   6.714   0.625  0.4793 -0.2868 -0.0248
 3764TIP3    H211257   4.880   6.777   0.757 -0.0547  0.1492 -0.3853
 3765TIP3   OH211258   1.156   4.176   1.692 -0.4500 -0.3683  0.0564
 3765TIP3    H111259   1.234   4.127   1.668  1.7941  2.3940  1.0765
 3765TIP3    H211260   1.146   4.160   1.786 -0.4278  0.1322  0.1490
 3766TIP3   OH211261   2.010   6.081   5.234 -0.3934  0.6484  0.0835
 3766TIP3    H111262   1.951   6.010   5.208 -0.7694  0.4695  1.3327
 3766TIP3    H211263   2.078   6.082   5.166 -1.8061  0.8549 -1.3870
 3767TIP3   OH211264   6.640   1.926   1.186 -0.6710 -0.0081  0.0620
 3767TIP3    H111265   6.627   1.864   1.115 -0.7494  0.8928 -0.7406
 3767TIP3    H211266   6.604   1.883   1.263 -1.4996 -0.6066 -0.6414
 3768TIP3   OH211267   3.739   2.169   3.104  0.1890 -0.1646  0.1227
 3768TIP3    H111268   3.645   2.180   3.119  0.1460 -1.9031  1.4347
 3768TIP3    H211269   3.772   2.131   3.186  2.0571  0.4822 -0.2869
 3769TIP3   OH211270   5.119   2.016   4.030 -0.5516 -0.5441 -0.5441
 3769TIP3    H111271   5.115   2.091   4.090  0.1764 -0.3698 -0.7066
 3769TIP3    H211272   5.089   2.051   3.946  0.6845 -0.1849 -0.8516
 3770TIP3   OH211273   4.411   0.494   5.679 -0.1797  0.2989  0.3318
 3770TIP3    H111274   4.366   0.512   5.596  0.3137  1.5924  0.3151
 3770TIP3    H211275   4.484   0.437   5.655 -0.4001  0.1624 -0.0234
 3771TIP3   OH211276   4.086   3.445   5.254 -0.2282  0.5019 -0.3214
 3771TIP3    H111277   4.125   3.529   5.232 -2.0848  1.7911  1.0400
 3771TIP3    H211278   4.018   3.431   5.189  0.0056  0.0752 -0.4835
 3772TIP3   OH211279   6.617   0.183   2.506  0.3086 -0.2160 -0.9053
 3772TIP3    H111280   6.668   0.133   2.569 -0.0005  1.1918  0.5100
 3772TIP3    H211281   6.530   0.189   2.544  0.2470  1.0863 -1.2200
 3773TIP3   OH211282   1.020   1.281   2.418  0.8413  0.6898 -0.2762
 3773TIP3    H111283   0.948   1.260   2.477  0.1757  0.6994 -1.0693
 3773TIP3    H211284   1.099   1.257   2.467  0.2367 -1.1478 -0.1196
 3774TIP3   OH211285   1.568   0.558   5.709  0.0687 -0.6707  0.1514
 3774TIP3    H111286   1.591   0.649   5.690 -0.5684  0.1575  2.8578
 3774TIP3    H211287   1.641   0.507   5.677  1.7526  1.0773  1.0023
 3775TIP3   OH211288   6.617   2.575   1.063  0.2743 -0.2629 -0.1429
 3775TIP3    H111289   6.644   2.504   1.005 -0.1895 -0.6156  0.0713
 3775TIP3    H211290   6.699   2.620   1.085  0.7476 -1.4853  0.7081
 3776TIP3   OH211291   0.840   6.082   4.902 -0.0108  0.0291  0.5955
 3776TIP3    H111292   0.815   5.990   4.909 -0.5241  0.0679 -0.4638
 3776TIP3    H211293   0.759   6.127   4.874  0.7042  0.4696 -0.9019
 3777TIP3   OH211294   0.850   1.114   2.979 -0.5667 -0.6109  0.4676
 3777TIP3    H111295   0.907   1.148   2.910 -0.3402 -1.6477  0.1322
 3777TIP3    H211296   0.840   1.188   3.039 -0.5615  0.2362 -0.5313
 3778TIP3   OH211297   2.266   4.265   1.288 -0.2670 -0.3635 -0.0987
 3778TIP3    H111298   2.270   4.325   1.214  0.8390 -0.4105 -0.0865
 3778TIP3    H211299   2.190   4.210   1.270 -0.8524  0.5474 -0.4797
 3779TIP3   OH211300   3.890   1.173   1.378  0.8018 -0.4420 -0.4401
 3779TIP3    H111301   3.842   1.204   1.301  3.2421  0.7532 -1.5727
 3779TIP3    H211302   3.961   1.119   1.343  2.9213  1.3885  0.7586
 3780TIP3   OH211303   4.410   1.725   3.837 -0.0068 -0.2715  0.3422
 3780TIP3    H111304   4.372   1.771   3.762  0.0743 -1.2971 -0.3603
 3780TIP3    H211305   4.387   1.779   3.913 -0.2449  0.7015 -0.3946
 3781TIP3   OH211306   5.043   1.582   2.555 -0.2854  0.1196  0.1953
 3781TIP3    H111307   5.004   1.654   2.505  0.8914 -0.2240 -1.2723
 3781TIP3    H211308   4.968   1.531   2.586 -1.0714  0.9537 -0.2827
 3782TIP3   OH211309   3.911   5.056   1.256 -0.0101 -0.1636  0.0698
 3782TIP3    H111310   3.998   5.021   1.235  1.2683  2.7195  0.1551
 3782TIP3    H211311   3.859   5.037   1.179  1.4000  0.2244 -1.0132
 3783TIP3   OH211312   1.688   1.587   4.717  0.4160 -0.1122 -0.0685
 3783TIP3    H111313   1.600   1.597   4.679 -0.4018 -1.2967  1.4134
 3783TIP3    H211314   1.731   1.522   4.662 -0.2997 -0.8592  0.2295
 3784TIP3   OH211315   6.969   0.613   2.531 -0.4357 -0.3124 -0.5669
 3784TIP3    H111316   7.058   0.582   2.515 -0.7386 -0.6910 -1.5367
 3784TIP3    H211317   6.913   0.551   2.485 -1.2899 -0.7568  0.9743
 3785TIP3   OH211318   5.129   1.262   2.372 -0.0272 -0.5208  0.0947
 3785TIP3    H111319   5.187   1.188   2.394  0.6980 -0.1154 -0.3888
 3785TIP3    H211320   5.169   1.337   2.416  0.8286  0.0959 -1.6505
 3786TIP3   OH211321   5.361   6.742   4.056 -0.0380 -0.3133 -0.3372
 3786TIP3    H111322   5.363   6.835   4.077  3.2388  0.0083 -1.4972
 3786TIP3    H211323   5.293   6.705   4.113  2.3211  1.8194  4.3547
 3787TIP3   OH211324   0.248   1.536   2.146 -0.0864 -0.0898  0.1969
 3787TIP3    H111325   0.299   1.610   2.180  0.1839  0.1738 -0.7399
 3787TIP3    H211326   0.190   1.576   2.081  0.2789 -0.7462 -0.5392
 3788TIP3   OH211327   1.874   4.917   1.456 -0.2701  0.0845  0.1183
 3788TIP3    H111328   1.793   4.963   1.477  1.1232  3.0926 -0.6952
 3788TIP3    H211329   1.944   4.975   1.485  1.6529 -1.9088 -0.2174
 3789TIP3   OH211330   3.913   3.763   3.174  0.3412  0.1994 -0.2068
 3789TIP3    H111331   3.875   3.790   3.258  3.0119 -0.0451  1.1688
 3789TIP3    H211332   3.850   3.795   3.109 -1.2257  1.4701  1.7883
 3790TIP3   OH211333   4.772   1.129   3.143  0.2698  0.7956  0.4863
 3790TIP3    H111334   4.780   1.196   3.212  0.3273  1.6745 -0.3423
 3790TIP3    H211335   4.758   1.047   3.190 -0.6046  1.5061  1.5182
 3791TIP3   OH211336   0.684   1.636   0.565  0.6710  0.0104 -0.3268
 3791TIP3    H111337   0.590   1.645   0.553  0.8699  1.4287 -0.9611
 3791TIP3    H211338   0.694   1.594   0.650 -0.4870  2.5805  1.1640
 3792TIP3   OH211339   1.597   6.289   0.589 -0.2449 -0.4637  0.6145
 3792TIP3    H111340   1.604   6.323   0.678 -0.8045  1.7157 -0.1209
 3792TIP3    H211341   1.504   6.265   0.580 -0.8634  2.0062 -0.2332
 3793TIP3   OH211342   7.167   3.389   2.049 -0.1175 -0.2948 -0.3691
 3793TIP3    H111343   7.222   3.461   2.080  0.6214 -0.1138 -1.9561
 3793TIP3    H211344   7.087   3.431   2.019  0.5535  0.0048 -1.8645
 3794TIP3   OH211345   3.903   1.656   0.964  0.4110 -0.2456  0.4413
 3794TIP3    H111346   3.973   1.717   0.942 -0.8220  0.8781 -0.5534
 3794TIP3    H211347   3.922   1.578   0.912  1.7244 -0.5569  1.3364
 3795TIP3   OH211348   3.484   6.744   0.260  0.4386 -0.2100 -0.1363
 3795TIP3    H111349   3.479   6.733   0.355 -1.2357 -0.9561 -0.2684
 3795TIP3    H211350   3.576   6.765   0.243  0.9638 -0.9440  1.5568
 3796TIP3   OH211351   3.118   4.464   3.670  0.1490  0.5419  0.0355
 3796TIP3    H111352   3.085   4.513   3.746 -0.9319 -1.0068  0.6056
 3796TIP3    H211353   3.093   4.517   3.594 -0.7669  0.9891  0.6396
 3797TIP3   OH211354   1.438   0.276   1.609 -0.2569  0.2803 -0.0499
 3797TIP3    H111355   1.428   0.238   1.522 -1.5980 -1.3532  0.7512
 3797TIP3    H211356   1.518   0.236   1.643 -0.5695 -0.3070  0.0220
 3798TIP3   OH211357   2.710   5.386   0.217 -0.0649  0.1434 -0.0495
 3798TIP3    H111358   2.762   5.455   0.175 -2.0322  1.5436 -0.3133
 3798TIP3    H211359   2.666   5.430   0.290 -0.7207 -1.0385  0.2919
 3799TIP3   OH211360   5.181   2.653   2.028 -0.4199 -0.3725  0.0393
 3799TIP3    H111361   5.124   2.610   2.092 -0.1295 -0.2242  0.4019
 3799TIP3    H211362   5.200   2.584   1.963 -1.0502 -0.4079 -0.1183
 3800TIP3   OH211363   3.401   0.740   2.495  0.2917  0.1141  0.3269
 3800TIP3    H111364   3.450   0.720   2.574  1.5622  0.6121 -0.3092
 3800TIP3    H211365   3.338   0.668   2.487  1.4454 -0.9811  0.7558
 3801TIP3   OH211366   5.283   4.861   1.689 -0.1753 -0.5892 -0.2215
 3801TIP3    H111367   5.214   4.895   1.745 -0.7227 -0.1911 -1.1265
 3801TIP3    H211368   5.355   4.924   1.697 -0.7304  0.1543 -0.9456
 3802TIP3   OH211369   7.047   6.408   5.155 -0.2321  0.1811 -0.0121
 3802TIP3    H111370   7.086   6.356   5.225  1.9005  0.7266 -0.7441
 3802TIP3    H211371   7.077   6.367   5.075 -1.5614  0.3639 -0.6358
 3803TIP3   OH211372   2.213   5.991   3.922  0.7551  0.7128  0.0879
 3803TIP3    H111373   2.296   6.017   3.962  0.4846  1.7590 -0.0225
 3803TIP3    H211374   2.148   6.051   3.959 -0.1055 -0.5953  0.7772
 3804TIP3   OH211375   4.905   3.406   3.486 -0.0057 -0.1361 -0.3073
 3804TIP3    H111376   4.924   3.313   3.497  2.9877  0.3363 -0.5649
 3804TIP3    H211377   4.939   3.427   3.399  0.3843  1.3879  0.1836
 3805TIP3   OH211378   7.078   1.489   1.409 -0.1779  0.0497  0.1398
 3805TIP3    H111379   7.018   1.504   1.482  1.2951  1.5029  1.1150
 3805TIP3    H211380   7.034   1.529   1.334 -0.5547  0.9252  0.7992
 3806TIP3   OH211381   4.159   2.479   5.515 -0.2362  0.2273  0.4716
 3806TIP3    H111382   4.083   2.427   5.541  0.4176 -0.4056  1.1418
 3806TIP3    H211383   4.154   2.559   5.568 -1.1010  0.7667 -0.3797
 3807TIP3   OH211384   2.060   2.775   4.763 -0.0859  0.1338 -0.4999
 3807TIP3    H111385   2.139   2.781   4.817  0.4185 -0.6946 -1.1290
 3807TIP3    H211386   2.047   2.681   4.749 -2.5440  0.0542  1.5449
 3808TIP3   OH211387   3.224   4.593   3.142 -0.6214 -0.2699 -0.1572
 3808TIP3    H111388   3.236   4.688   3.131  1.4792 -0.4938 -0.2129
 3808TIP3    H211389   3.217   4.559   3.053  1.0746 -0.3975 -0.2760
 3809TIP3   OH211390   4.087   2.515   0.463 -0.1386  0.2900 -0.0082
 3809TIP3    H111391   4.065   2.474   0.547  1.2346  1.1553  0.8161
 3809TIP3    H211392   4.010   2.567   0.441 -1.1873 -1.2584 -0.1674
 3810TIP3   OH211393   0.216   5.714   4.922 -0.7286  0.4166 -0.0035
 3810TIP3    H111394   0.129   5.701   4.959 -1.3478  0.7513 -1.2875
 3810TIP3    H211395   0.240   5.630   4.884 -0.1203  0.0902  1.0702
 3811TIP3   OH211396   5.547   0.298   3.901  0.4094 -0.4873  0.4689
 3811TIP3    H111397   5.539   0.256   3.816  1.3231  0.4923 -0.1368
 3811TIP3    H211398   5.640   0.323   3.906  0.3226 -0.3523  1.6659
 3812TIP3   OH211399   1.192   5.414   2.286  0.2311  0.1204 -0.7077
 3812TIP3    H111400   1.177   5.354   2.359  0.0331  0.0774 -0.7831
 3812TIP3    H211401   1.226   5.359   2.216 -1.1497 -0.1397 -1.2083
 3813TIP3   OH211402   2.330   0.665   5.142 -0.5588  0.1600  0.5929
 3813TIP3    H111403   2.310   0.758   5.135 -1.1520  0.1207  1.4838
 3813TIP3    H211404   2.246   0.622   5.127  0.0318 -0.3380 -1.5360
 3814TIP3   OH211405   6.619   2.147   4.423  0.1486  0.0006  0.0728
 3814TIP3    H111406   6.684   2.188   4.481 -0.5597  0.0476  0.8559
 3814TIP3    H211407   6.563   2.219   4.395  1.4295  0.2533 -1.9923
 3815TIP3   OH211408   0.900   6.157   4.183  0.5699 -0.2459  0.6354
 3815TIP3    H111409   0.837   6.110   4.129  0.5307  2.4282 -1.9175
 3815TIP3    H211410   0.847   6.205   4.246 -0.2193  2.3104 -1.7550
 3816TIP3   OH211411   2.544   6.288   4.360 -0.7382  0.1252  0.0860
 3816TIP3    H111412   2.629   6.256   4.330  0.0743  3.0333 -1.0426
 3816TIP3    H211413   2.484   6.271   4.287 -0.7002 -0.3032  0.1550
 3817TIP3   OH211414   0.235   1.628   3.701  0.0376 -0.0781  0.1242
 3817TIP3    H111415   0.181   1.649   3.625 -2.2149 -0.8893  1.3865
 3817TIP3    H211416   0.233   1.707   3.755  1.7219  0.5355 -0.6490
 3818TIP3   OH211417   1.770   5.041   0.266  0.4303 -0.5542 -0.3274
 3818TIP3    H111418   1.741   4.996   0.186  0.9199  2.4955 -2.3847
 3818TIP3    H211419   1.838   5.101   0.236  0.6591  0.6961  2.4309
 3819TIP3   OH211420   4.008   1.275  -0.037 -0.0960  0.2716  0.4891
 3819TIP3    H111421   3.951   1.337   0.008  0.6378  2.2144 -1.0569
 3819TIP3    H211422   4.051   1.227   0.033 -0.9612  1.2816  1.7732
 3820TIP3   OH211423   1.703   6.379   1.804  0.0143 -0.5478 -0.6822
 3820TIP3    H111424   1.786   6.365   1.848 -0.5767 -0.0995  0.6287
 3820TIP3    H211425   1.654   6.298   1.818 -0.3648 -0.2172 -0.0778
 3821TIP3   OH211426   2.059   2.409   4.413 -0.5155  0.4611 -0.0876
 3821TIP3    H111427   2.135   2.367   4.372 -0.8449 -1.6228  1.2564
 3821TIP3    H211428   1.984   2.379   4.361 -0.7648 -0.7951  0.9467
 3822TIP3   OH211429   6.343   1.299   0.033 -0.0755  0.9711  0.4667
 3822TIP3    H111430   6.437   1.315   0.029  0.6243 -1.9990  1.9404
 3822TIP3    H211431   6.319   1.317   0.124  0.0399 -2.0575  1.2220
 3823TIP3   OH211432   2.010   5.342   3.441  0.4253 -0.1932 -0.0158
 3823TIP3    H111433   1.933   5.307   3.487 -0.2013  0.2157 -0.7294
 3823TIP3    H211434   2.064   5.381   3.509  0.1479 -0.7599  0.5345
 3824TIP3   OH211435   2.129   5.601   0.161  0.2027 -0.4174  0.1964
 3824TIP3    H111436   2.185   5.589   0.238  0.0786  0.8953  0.5166
 3824TIP3    H211437   2.091   5.688   0.173 -2.1710 -1.3781  0.1585
 3825TIP3   OH211438   4.806   1.404   3.645 -0.4809  0.1452 -0.2730
 3825TIP3    H111439   4.809   1.310   3.632  1.4975  0.0146  0.6985
 3825TIP3    H211440   4.714   1.424   3.660 -0.8397 -1.7483  0.2899
 3826TIP3   OH211441   4.153   5.691   3.334  0.2789 -0.1557 -0.3207
 3826TIP3    H111442   4.101   5.726   3.262  0.0503 -0.1814 -0.1683
 3826TIP3    H211443   4.207   5.624   3.293  0.4314  0.0965 -0.5406
 3827TIP3   OH211444   6.655   1.456   2.281  0.3074 -0.0022  0.2190
 3827TIP3    H111445   6.590   1.392   2.252 -1.2634  1.7599 -0.4020
 3827TIP3    H211446   6.607   1.539   2.282  2.5295  1.3614 -0.1271
 3828TIP3   OH211447   3.336   3.470   5.400 -0.0793 -0.3358 -0.2397
 3828TIP3    H111448   3.289   3.531   5.344  1.3044 -0.6044 -1.7736
 3828TIP3    H211449   3.418   3.514   5.421  0.5120 -1.2562 -0.5561
 3829TIP3   OH211450   3.316   2.507   4.945 -0.2909 -0.0510  0.1588
 3829TIP3    H111451   3.319   2.474   4.855  1.6590  0.0085  0.1467
 3829TIP3    H211452   3.276   2.594   4.938 -1.0290 -0.4340 -0.4990
 3830TIP3   OH211453   4.212   3.557   4.069 -0.2248  0.2976  0.0515
 3830TIP3    H111454   4.227   3.593   3.982  0.4994 -0.7647 -0.2788
 3830TIP3    H211455   4.224   3.463   4.058  1.7969  0.3161  1.7002
 3831TIP3   OH211456   1.713   2.514   1.612  0.4909 -0.1083  0.5304
 3831TIP3    H111457   1.720   2.522   1.707  0.4307 -1.4537  0.6665
 3831TIP3    H211458   1.637   2.568   1.590  0.2574 -0.1020  1.3007
 3832TIP3   OH211459   5.381   6.590   0.743 -0.5200 -0.5222 -0.7136
 3832TIP3    H111460   5.386   6.527   0.815 -0.5270 -1.7541 -1.7430
 3832TIP3    H211461   5.472   6.604   0.716 -0.5584 -0.6032 -0.8924
 3833TIP3   OH211462   1.358   2.149   1.164 -0.0045  0.1488 -0.0876
 3833TIP3    H111463   1.330   2.241   1.162 -0.5478 -0.0158 -0.3354
 3833TIP3    H211464   1.339   2.117   1.076  0.6407 -0.0704 -0.1465
 3834TIP3   OH211465   5.535   2.241   0.848  0.7445 -0.1721 -0.3226
 3834TIP3    H111466   5.551   2.299   0.772  0.9061 -1.1200 -1.0288
 3834TIP3    H211467   5.484   2.169   0.812 -0.2532 -0.0173  0.7530
 3835TIP3   OH211468   0.912   2.587   3.072  0.3517  0.0058 -0.1104
 3835TIP3    H111469   0.918   2.616   3.162 -0.1261  0.1647 -0.1260
 3835TIP3    H211470   0.878   2.497   3.078  2.3594 -0.7876 -0.0335
 3836TIP3   OH211471   3.455   2.365   1.566 -0.2705  0.6362 -0.5827
 3836TIP3    H111472   3.546   2.373   1.592 -0.4702  1.2707 -0.0504
 3836TIP3    H211473   3.430   2.276   1.592  0.1693  0.4944 -0.6485
 3837TIP3   OH211474   4.268   1.739   2.954 -0.0281  0.1420  0.1333
 3837TIP3    H111475   4.206   1.780   2.894 -1.9164 -0.9109  1.2904
 3837TIP3    H211476   4.279   1.803   3.025 -1.2309 -0.3988  0.8256
 3838TIP3   OH211477   2.462   1.114   4.492  0.2030 -0.1799  0.0669
 3838TIP3    H111478   2.536   1.054   4.491 -0.9480 -1.6720 -0.6058
 3838TIP3    H211479   2.425   1.108   4.403 -0.4270  0.9146  0.2303
 3839TIP3   OH211480   0.531   4.713   2.316 -0.3969 -0.3708  0.3931
 3839TIP3    H111481   0.563   4.801   2.335 -1.7324  0.1082  0.4640
 3839TIP3    H211482   0.466   4.725   2.247 -0.6337 -1.2953  0.4367
 3840TIP3   OH211483   6.121   5.274   5.003 -0.5062 -0.1239  0.0596
 3840TIP3    H111484   6.041   5.242   5.044 -0.2022  1.3461  1.9627
 3840TIP3    H211485   6.172   5.311   5.076  3.5866 -4.0376 -0.3446
 3841TIP3   OH211486   7.139   3.483   0.353  0.0416 -0.4742  0.0433
 3841TIP3    H111487   7.046   3.462   0.340 -0.3011  1.7149 -1.5443
 3841TIP3    H211488   7.172   3.411   0.408 -2.8157 -0.7585  1.6130
 3842TIP3   OH211489   6.274   6.798   4.672 -0.4406  0.1502  0.5134
 3842TIP3    H111490   6.294   6.706   4.693  0.2235  0.0264 -0.6067
 3842TIP3    H211491   6.229   6.830   4.750 -3.0834 -1.8482 -0.0692
 3843TIP3   OH211492   1.759   0.994   4.570 -0.4698 -0.2077 -0.2465
 3843TIP3    H111493   1.831   1.035   4.522  0.6539  0.1741  1.6855
 3843TIP3    H211494   1.693   1.063   4.578  0.2115  0.3738  0.5141
 3844TIP3   OH211495   5.020   4.653   2.694  0.3839  0.4661 -0.3260
 3844TIP3    H111496   5.112   4.672   2.713  0.3430 -0.9030  1.4735
 3844TIP3    H211497   5.020   4.624   2.603  1.4122  2.3874 -0.9760
 3845TIP3   OH211498   0.901   6.754   3.337  0.1028 -0.5741  0.1798
 3845TIP3    H111499   0.918   6.695   3.263 -3.6983 -1.9206  0.1470
 3845TIP3    H211500   0.806   6.763   3.338  0.2390  1.9568  3.0499
 3846TIP3   OH211501   2.407   5.654   0.553 -0.4761  0.5062  0.3590
 3846TIP3    H111502   2.320   5.619   0.531 -0.0787  0.2054 -0.7627
 3846TIP3    H211503   2.418   5.729   0.496  0.4808 -0.1545 -0.3608
 3847TIP3   OH211504   5.055   6.279   2.188  0.7367  0.6715  0.4218
 3847TIP3    H111505   4.959   6.283   2.187  0.6595 -0.5790  0.5308
 3847TIP3    H211506   5.081   6.317   2.104  0.2340  2.2484  0.9440
 3848TIP3   OH211507   5.539   0.450   4.493 -0.2299 -0.2964  0.0440
 3848TIP3    H111508   5.555   0.540   4.521  1.2630 -0.4475 -0.2705
 3848TIP3    H211509   5.516   0.456   4.401  0.9418 -0.3210 -0.2551
 3849TIP3   OH211510   1.074   2.707   0.691 -0.5284  0.3408 -0.2772
 3849TIP3    H111511   0.995   2.679   0.737  0.9989 -1.0885  1.6460
 3849TIP3    H211512   1.118   2.765   0.752  1.1892 -1.0088 -0.1564
 3850TIP3   OH211513   0.033   1.710   4.384  0.1310 -0.1346 -0.3703
 3850TIP3    H111514   0.009   1.651   4.456 -1.3434  1.2471  0.3512
 3850TIP3    H211515   0.102   1.766   4.421 -0.4095  0.3722 -0.1080
 3851TIP3   OH211516   0.495   2.586   2.978  0.1167 -0.3238  0.0488
 3851TIP3    H111517   0.467   2.664   2.930  1.0686 -1.0652 -1.8122
 3851TIP3    H211518   0.424   2.523   2.965 -0.7020  0.2279  1.6424
 3852TIP3   OH211519   4.536   3.385   4.230  0.5561 -0.3817  0.4141
 3852TIP3    H111520   4.549   3.315   4.294 -0.4204  0.3923  1.5023
 3852TIP3    H211521   4.452   3.424   4.255 -0.1638 -0.4279 -1.7047
 3853TIP3   OH211522   6.568   3.263   1.519 -0.3645 -0.2304  0.4066
 3853TIP3    H111523   6.589   3.184   1.469  0.1062  0.5428 -0.6633
 3853TIP3    H211524   6.650   3.312   1.520 -0.5794  0.1125  1.3117
 3854TIP3   OH211525   5.147   2.806   1.388  0.1739  0.1116 -0.4195
 3854TIP3    H111526   5.133   2.715   1.363 -0.9185 -0.0697  0.7157
 3854TIP3    H211527   5.079   2.823   1.454  1.7948  1.0519  1.0876
 3855TIP3   OH211528   3.115   1.649   4.405  0.2265  0.3884 -0.2370
 3855TIP3    H111529   3.110   1.560   4.441 -0.2077  0.1523 -0.8523
 3855TIP3    H211530   3.133   1.705   4.480 -1.0202 -0.0416  0.4028
 3856TIP3   OH211531   2.181   4.638   2.161 -0.2611 -0.0748 -0.0684
 3856TIP3    H111532   2.123   4.575   2.203 -0.2135 -0.2780 -0.3066
 3856TIP3    H211533   2.190   4.708   2.225 -1.0519  0.1256 -0.1651
 3857TIP3   OH211534   0.804   1.830   4.815 -0.6590  0.7346 -0.0635
 3857TIP3    H111535   0.817   1.737   4.833 -0.8472  0.5458 -0.8527
 3857TIP3    H211536   0.879   1.873   4.856  1.2137 -0.0743 -2.3551
 3858TIP3   OH211537   3.191   0.240   2.387 -0.0537 -0.2839 -0.1693
 3858TIP3    H111538   3.148   0.157   2.366  2.2032 -1.3387 -1.0084
 3858TIP3    H211539   3.222   0.229   2.477  2.2572 -1.4005 -1.0040
 3859TIP3   OH211540   3.523   5.171   3.754  0.3716  0.1383  0.2929
 3859TIP3    H111541   3.564   5.140   3.835 -0.6982  1.3659  1.3400
 3859TIP3    H211542   3.561   5.258   3.739  1.9750 -0.8043 -1.6129
 3860TIP3   OH211543   5.905   3.542   0.820  0.4666  0.0015 -0.3389
 3860TIP3    H111544   5.855   3.480   0.873  1.3048  0.4785  1.0616
 3860TIP3    H211545   5.838   3.593   0.773 -0.4441  1.0537  1.9812
 3861TIP3   OH211546   0.463   5.204   1.847 -0.3313 -0.0721 -0.1778
 3861TIP3    H111547   0.415   5.175   1.925  1.3967 -0.4191  0.8002
 3861TIP3    H211548   0.532   5.139   1.836  0.2229  0.6747 -1.2487
 3862TIP3   OH211549   2.812   5.872   5.302 -0.4436  0.5066  0.0520
 3862TIP3    H111550   2.811   5.947   5.242  0.2479 -0.2479 -0.9311
 3862TIP3    H211551   2.886   5.819   5.273 -0.8759 -0.5258  0.7887
 3863TIP3   OH211552   0.936   6.680   4.246  0.5627  0.0567  0.2209
 3863TIP3    H111553   1.022   6.638   4.258  0.3253  0.1077  2.4072
 3863TIP3    H211554   0.951   6.745   4.177  1.5896 -1.7395 -1.3538
 3864TIP3   OH211555   1.129   4.468   3.644 -0.0949  0.4659 -0.3735
 3864TIP3    H111556   1.103   4.542   3.589 -0.0433  1.0377  0.3560
 3864TIP3    H211557   1.214   4.494   3.680 -1.0295  1.0058  1.5718
 3865TIP3   OH211558   0.411   3.464   2.748 -0.0989  0.2314 -0.3371
 3865TIP3    H111559   0.420   3.558   2.759  2.2895 -0.1190  1.1786
 3865TIP3    H211560   0.415   3.451   2.653  3.6895  1.3920 -0.4956
 3866TIP3   OH211561   7.195   2.335   4.394  0.1983 -0.0333 -0.5892
 3866TIP3    H111562   7.112   2.288   4.404 -0.5599  1.5627  1.3531
 3866TIP3    H211563   7.257   2.286   4.448  0.0022 -0.1061 -0.4286
 3867TIP3   OH211564   2.066   1.964   2.016  0.0189  0.4514 -0.0546
 3867TIP3    H111565   2.093   1.882   2.057 -1.2021  0.9147  1.7355
 3867TIP3    H211566   1.978   1.981   2.049 -1.2042  0.7400 -3.0924
 3868TIP3   OH211567   6.013   1.721   3.187 -0.0497 -0.1952 -0.5316
 3868TIP3    H111568   6.006   1.797   3.244 -3.0385 -0.0461 -0.9674
 3868TIP3    H211569   6.046   1.651   3.244  1.5513  1.0362  0.1577
 3869TIP3   OH211570   0.538   4.063   3.853 -0.3379  0.2528  0.5636
 3869TIP3    H111571   0.604   4.000   3.884 -0.4697 -0.3646 -0.3515
 3869TIP3    H211572   0.559   4.075   3.760 -1.0150  0.6931  0.4609
 3870TIP3   OH211573   2.760   4.452   1.521 -0.1858  0.2723  0.2331
 3870TIP3    H111574   2.728   4.442   1.610 -0.1181  1.1966  0.3797
 3870TIP3    H211575   2.682   4.466   1.468 -0.3755 -1.9359 -0.1442
 3871TIP3   OH211576   0.460   3.339   0.455  0.5975 -0.0949  0.1291
 3871TIP3    H111577   0.419   3.276   0.514  0.2646 -0.1868 -0.1955
 3871TIP3    H211578   0.480   3.414   0.510  0.1161 -0.1031  0.3229
 3872TIP3   OH211579   2.556   0.511   4.169 -0.2004 -0.5998 -0.2922
 3872TIP3    H111580   2.543   0.488   4.261  0.4407 -1.6884 -0.4498
 3872TIP3    H211581   2.478   0.479   4.125 -0.9042  0.6997 -0.0140
 3873TIP3   OH211582   5.069   6.656   2.120 -0.0543  0.1285  0.0907
 3873TIP3    H111583   5.044   6.748   2.105 -1.1154 -0.1818 -0.1122
 3873TIP3    H211584   5.148   6.662   2.174  0.5204  1.1755 -0.8041
 3874TIP3   OH211585   5.574   4.823   4.550 -0.4515 -0.3081  0.1633
 3874TIP3    H111586   5.645   4.775   4.594  0.0725 -0.9571 -1.3243
 3874TIP3    H211587   5.619   4.884   4.491 -1.1364  0.5718  0.5311
 3875TIP3   OH211588   5.735   3.003   2.610  0.2057  0.4296 -0.0118
 3875TIP3    H111589   5.808   2.942   2.603  1.2582  1.8361 -4.3332
 3875TIP3    H211590   5.776   3.086   2.638 -0.2181  0.5837  0.1682
 3876TIP3   OH211591   1.868   4.205   2.410  0.3606 -0.3684  0.1280
 3876TIP3    H111592   1.812   4.250   2.347  0.4928 -0.1305  0.1813
 3876TIP3    H211593   1.896   4.273   2.471  1.9617 -0.1552 -0.7808
 3877TIP3   OH211594  -0.017   5.014   1.327 -0.1685 -0.2881  0.0654
 3877TIP3    H111595   0.078   5.015   1.314 -0.1429 -0.7634  0.2200
 3877TIP3    H211596  -0.029   5.012   1.422 -0.3209 -1.3463  0.0304
 3878TIP3   OH211597   5.185   1.273   1.284 -0.3016  0.0160  0.0853
 3878TIP3    H111598   5.267   1.290   1.330  0.4644 -1.1278 -0.7899
 3878TIP3    H211599   5.120   1.264   1.353  0.5062 -0.0405  0.8597
 3879TIP3   OH211600   5.923   3.789   5.117  0.1456  0.0129 -0.3057
 3879TIP3    H111601   5.980   3.808   5.191 -0.3349 -1.0369  0.3615
 3879TIP3    H211602   5.841   3.835   5.138  0.1815  0.1455 -0.4508
 3880TIP3   OH211603   5.113   5.014   2.632 -0.0900 -0.1968 -0.4599
 3880TIP3    H111604   5.175   5.000   2.561  1.6833  0.4899  0.8790
 3880TIP3    H211605   5.163   5.061   2.699 -1.3035 -1.7945  1.7268
 3881TIP3   OH211606   6.642   3.137   0.511 -0.2529  0.4129 -0.0950
 3881TIP3    H111607   6.575   3.132   0.443 -0.1415  0.9971 -0.2501
 3881TIP3    H211608   6.701   3.206   0.482 -0.5632  1.1210  0.9149
 3882TIP3   OH211609   2.590   1.580   5.320 -0.0332  0.0495 -0.3717
 3882TIP3    H111610   2.508   1.553   5.280  1.2706 -0.9511 -2.5389
 3882TIP3    H211611   2.611   1.664   5.278 -0.7876  1.2370  1.5049
 3883TIP3   OH211612   1.215   2.442   4.427  0.2777 -0.4685  0.5826
 3883TIP3    H111613   1.169   2.371   4.381  0.4695  0.3023 -0.8754
 3883TIP3    H211614   1.150   2.511   4.434  0.2819 -0.5450  1.4151
 3884TIP3   OH211615   3.065   2.741   3.792  0.2907  0.1520 -0.1731
 3884TIP3    H111616   3.094   2.819   3.839  0.7047 -0.0904 -0.0239
 3884TIP3    H211617   2.975   2.727   3.824  0.8202 -0.4418  1.1294
 3885TIP3   OH211618   4.894   0.464   1.059  0.7418  0.0549 -0.5865
 3885TIP3    H111619   4.829   0.506   1.116  2.5652  0.8396  1.0179
 3885TIP3    H211620   4.887   0.371   1.079 -1.6522 -0.2682 -2.3970
 3886TIP3   OH211621   0.301   1.722   5.711 -0.2205  0.0235 -0.6621
 3886TIP3    H111622   0.257   1.713   5.796 -1.1811  0.2767 -1.1196
 3886TIP3    H211623   0.343   1.638   5.696 -0.8396 -0.3416 -0.3680
 3887TIP3   OH211624   2.660   0.243   3.864 -0.3198  0.0313 -0.5595
 3887TIP3    H111625   2.578   0.196   3.883 -1.3066  1.4457 -1.1453
 3887TIP3    H211626   2.645   0.331   3.896  1.4622  0.0224  0.4237
 3888TIP3   OH211627   2.208   2.994   1.691 -0.2315 -0.2930  0.1709
 3888TIP3    H111628   2.186   3.019   1.602 -0.5596  0.3364  0.4239
 3888TIP3    H211629   2.220   3.077   1.738 -2.0790 -0.5565  1.1984
 3889TIP3   OH211630   0.092   1.266   1.849  0.1339  0.3244 -0.2650
 3889TIP3    H111631   0.032   1.286   1.921 -0.7907 -0.5914 -0.7579
 3889TIP3    H211632   0.054   1.189   1.807 -0.2728  1.7850 -2.7674
 3890TIP3   OH211633   5.483   2.568   5.507 -0.7339  0.3091 -0.2618
 3890TIP3    H111634   5.416   2.621   5.552  0.7051  0.6353  1.6492
 3890TIP3    H211635   5.523   2.517   5.577  2.5814  1.8439 -0.8482
 3891TIP3   OH211636   1.448   2.852   0.273 -0.1801  0.3221  0.2080
 3891TIP3    H111637   1.428   2.940   0.306  0.7570  1.0046 -0.9611
 3891TIP3    H211638   1.446   2.862   0.178  0.4634 -0.8070  0.0725
 3892TIP3   OH211639   5.260   3.229   2.902  0.1721  0.1057  0.3239
 3892TIP3    H111640   5.203   3.218   2.977  0.5455  1.5971  0.8601
 3892TIP3    H211641   5.201   3.234   2.827 -0.2641 -0.3518  0.6364
 3893TIP3   OH211642   4.160   6.124   1.738  0.3717  0.1912 -1.1518
 3893TIP3    H111643   4.183   6.212   1.766  1.1473 -0.2541 -0.3219
 3893TIP3    H211644   4.068   6.129   1.714 -0.5304  0.5313  1.9683
 3894TIP3   OH211645   2.080   3.772   0.688 -0.3840  0.4213 -0.5034
 3894TIP3    H111646   2.095   3.677   0.678 -3.1060 -0.1799  0.3831
 3894TIP3    H211647   2.053   3.783   0.779 -2.3283  1.6736 -1.1762
 3895TIP3   OH211648   6.974   3.821   0.207 -0.6013 -0.3765 -0.2824
 3895TIP3    H111649   6.989   3.793   0.297  1.0047 -0.7823 -0.6492
 3895TIP3    H211650   7.007   3.748   0.154 -0.2101  0.4651 -1.2072
 3896TIP3   OH211651   6.541   2.515   2.671  0.0128  0.6482  0.5436
 3896TIP3    H111652   6.461   2.566   2.674  1.1616  2.5243  1.1442
 3896TIP3    H211653   6.586   2.543   2.591  0.5729  0.4275  0.7689
 3897TIP3   OH211654   3.104   4.446   0.854  0.4094 -0.4507 -0.3893
 3897TIP3    H111655   3.064   4.445   0.942  0.1686 -2.5120 -0.4583
 3897TIP3    H211656   3.197   4.458   0.870  0.1956  0.8049  0.0199
 3898TIP3   OH211657   4.466   3.152   2.785 -0.4858  0.7050  0.1127
 3898TIP3    H111658   4.404   3.098   2.735 -1.3978  0.6216  1.2964
 3898TIP3    H211659   4.551   3.112   2.768 -1.1760 -1.4102  1.2871
 3899TIP3   OH211660   1.018   2.543   4.925 -0.1680 -0.5345 -0.5603
 3899TIP3    H111661   0.958   2.617   4.932  0.5899  0.1712 -1.3212
 3899TIP3    H211662   1.055   2.533   5.013 -1.2966 -0.9102 -0.1107
 3900TIP3   OH211663   5.558   5.802   2.933 -0.1057  0.3511  0.2601
 3900TIP3    H111664   5.547   5.720   2.885 -0.0207 -1.2906  2.8669
 3900TIP3    H211665   5.477   5.850   2.918 -0.2979 -0.3407 -1.0189
 3901TIP3   OH211666   4.815   2.877   1.660 -0.7427  0.4364  0.1300
 3901TIP3    H111667   4.895   2.826   1.668 -0.7233  0.7083  2.2332
 3901TIP3    H211668   4.751   2.816   1.625  0.4751  0.3674 -2.1156
 3902TIP3   OH211669   6.200   3.621   3.737  0.3809 -0.4031  0.1876
 3902TIP3    H111670   6.291   3.638   3.763  0.6449  0.3967 -1.1254
 3902TIP3    H211671   6.180   3.692   3.676 -1.0442 -0.7308  0.2485
 3903TIP3   OH211672   6.306   5.380   4.437 -0.9140  0.0936 -0.1075
 3903TIP3    H111673   6.316   5.383   4.532  0.7313 -0.1970 -0.2385
 3903TIP3    H211674   6.315   5.471   4.408 -0.9420  0.1211 -0.0287
 3904TIP3   OH211675   1.360   6.071   4.138 -0.8227  0.5203  0.4367
 3904TIP3    H111676   1.307   6.005   4.095 -0.7536 -1.2100  2.8090
 3904TIP3    H211677   1.297   6.125   4.186 -0.6482  0.1776  1.0555
 3905TIP3   OH211678   1.030   0.973   4.897  0.0767 -0.4423 -0.4087
 3905TIP3    H111679   1.070   1.059   4.880  0.9963 -0.5698  0.9400
 3905TIP3    H211680   1.065   0.917   4.827  1.8855 -0.4179  0.4149
 3906TIP3   OH211681   5.606   1.845   1.922  0.9016 -0.2159 -0.5196
 3906TIP3    H111682   5.575   1.824   1.834 -0.5993 -0.3791  0.0201
 3906TIP3    H211683   5.673   1.779   1.940  0.0945 -1.1686 -0.9342
 3907TIP3   OH211684  -0.000   0.772   2.426  0.5181  0.0656 -0.2675
 3907TIP3    H111685   0.089   0.765   2.392  0.3430 -2.5118 -0.3970
 3907TIP3    H211686  -0.056   0.768   2.349  0.2476  0.6527 -0.1090
 3908TIP3   OH211687   6.577   5.487   4.349  0.0518  0.4611  0.5321
 3908TIP3    H111688   6.663   5.476   4.390  1.1086 -2.1246 -2.0343
 3908TIP3    H211689   6.523   5.419   4.390 -0.1305  0.6607  0.6220
 3909TIP3   OH211690   6.085   3.417   2.260 -0.0320 -0.1451 -0.5707
 3909TIP3    H111691   6.009   3.373   2.222 -1.4200  1.9672 -0.4124
 3909TIP3    H211692   6.119   3.472   2.190 -0.1763  0.7805  0.0651
 3910TIP3   OH211693   6.789   4.913   1.085 -0.7968 -0.5814  0.0748
 3910TIP3    H111694   6.863   4.879   1.136 -1.1600 -3.3930 -1.1257
 3910TIP3    H211695   6.713   4.863   1.115 -1.2601 -1.3806 -2.2120
 3911TIP3   OH211696   2.726   4.445   0.594  0.9433  0.5664  0.3155
 3911TIP3    H111697   2.774   4.363   0.582 -0.0147 -0.1251  1.0169
 3911TIP3    H211698   2.789   4.505   0.634  1.5139  0.0275  0.2325
 3912TIP3   OH211699   5.621   1.380   1.776 -1.0678 -0.6767  0.1126
 3912TIP3    H111700   5.645   1.324   1.702 -1.7829 -0.5776 -0.1965
 3912TIP3    H211701   5.572   1.322   1.834  0.9885 -1.2488  1.3975
 3913TIP3   OH211702   4.711   5.730   0.773  0.3500 -0.5107  0.2784
 3913TIP3    H111703   4.709   5.636   0.788  2.1278 -0.1616  3.9848
 3913TIP3    H211704   4.642   5.765   0.829  0.2328  0.4420 -0.4367
 3914TIP3   OH211705   6.189   0.527   0.060  0.2150 -0.1676 -0.2542
 3914TIP3    H111706   6.177   0.446   0.011 -0.4022  1.3534 -2.7839
 3914TIP3    H211707   6.103   0.547   0.096 -0.1228  0.3944 -1.3565
 3915TIP3   OH211708   6.289   5.907   2.010  0.3475  0.0769 -1.0881
 3915TIP3    H111709   6.302   5.814   2.027 -0.6963 -0.1111 -1.2730
 3915TIP3    H211710   6.364   5.933   1.958  0.7070 -0.6334 -0.9318
 3916TIP3   OH211711   4.137   1.841   5.012  0.5111 -0.4086 -0.0319
 3916TIP3    H111712   4.134   1.780   4.938  2.0612 -0.4312 -0.1165
 3916TIP3    H211713   4.200   1.802   5.072 -1.1360 -0.6701  1.5927
 3917TIP3   OH211714  -0.006   1.560   4.608 -0.1882  0.3540 -0.9691
 3917TIP3    H111715   0.081   1.590   4.635  0.4506 -2.1696  0.0822
 3917TIP3    H211716   0.011   1.496   4.540 -1.4205  1.4313 -2.3559
 3918TIP3   OH211717   0.621   1.082   4.120  0.3118  0.6030  0.4488
 3918TIP3    H111718   0.613   1.087   4.025 -1.1847  1.7480  0.5988
 3918TIP3    H211719   0.715   1.079   4.136  0.5825 -1.7153 -1.1200
 3919TIP3   OH211720   3.574   6.373   3.397 -0.3726  0.4892  0.0404
 3919TIP3    H111721   3.512   6.399   3.329  1.2599 -0.0263 -1.7267
 3919TIP3    H211722   3.531   6.398   3.479 -2.8779  0.2079 -1.0820
 3920TIP3   OH211723   6.557   2.885   0.140 -0.3497  0.1061 -0.1692
 3920TIP3    H111724   6.501   2.955   0.174  0.8722  0.0565  2.1633
 3920TIP3    H211725   6.511   2.804   0.166 -0.0302  0.0681  0.2943
 3921TIP3   OH211726   3.010   2.128   1.128 -0.1632  0.4546 -0.0081
 3921TIP3    H111727   2.946   2.181   1.081 -0.4682  0.7634  0.7259
 3921TIP3    H211728   2.973   2.039   1.128 -0.1036  0.4300 -0.4417
 3922TIP3   OH211729   3.364   5.647   1.374  0.4690  0.3563 -0.0008
 3922TIP3    H111730   3.322   5.700   1.442 -0.3478 -0.4253  0.1222
 3922TIP3    H211731   3.435   5.601   1.420  0.1618  0.1233  0.2426
 3923TIP3   OH211732   5.246   2.324   1.365  0.6728 -0.5277  0.0669
 3923TIP3    H111733   5.273   2.277   1.286  0.6167 -0.5877  0.0834
 3923TIP3    H211734   5.195   2.261   1.415  0.4501 -0.3931  0.0079
 3924TIP3   OH211735   5.007   5.757   0.295  0.1297  0.2616  0.3657
 3924TIP3    H111736   4.994   5.666   0.323  0.3494 -0.4582 -1.6917
 3924TIP3    H211737   5.088   5.755   0.246  0.7531  1.8561  1.2678
 3925TIP3   OH211738   3.077   3.481   1.034  0.1864  0.3027 -0.3099
 3925TIP3    H111739   3.040   3.399   1.004  1.2936  0.3235 -1.8841
 3925TIP3    H211740   3.158   3.456   1.078 -0.6778  0.3939  1.3835
 3926TIP3   OH211741   0.629   2.528   0.906  0.1304 -0.0748  0.3878
 3926TIP3    H111742   0.607   2.483   0.988  0.9146  1.8118  1.6853
 3926TIP3    H211743   0.548   2.523   0.854 -1.6655  1.8508  2.7689
 3927TIP3   OH211744   3.756   3.350   2.650 -0.0461 -0.2113  0.2251
 3927TIP3    H111745   3.668   3.361   2.613  0.2476  1.7372 -0.0287
 3927TIP3    H211746   3.813   3.394   2.587  1.1446 -1.4696  0.3783
 3928TIP3   OH211747   1.221   1.277   0.482  0.0761  0.2537  0.1634
 3928TIP3    H111748   1.203   1.327   0.562 -0.7109  0.3198 -0.0396
 3928TIP3    H211749   1.168   1.198   0.493  1.6650 -0.7716  0.6948
 3929TIP3   OH211750   1.550   1.376   5.757 -0.3697 -0.0563 -0.3153
 3929TIP3    H111751   1.496   1.450   5.730 -0.8266 -0.0745  0.5186
 3929TIP3    H211752   1.593   1.405   5.837  1.5403  0.2628 -1.3893
 3930TIP3   OH211753   2.230   0.864   4.290 -0.0623 -0.1720 -0.3712
 3930TIP3    H111754   2.262   0.774   4.289  2.4621  0.6390  0.3490
 3930TIP3    H211755   2.305   0.917   4.261 -1.1539  1.7778  0.1494
 3931TIP3   OH211756   1.785   4.354   3.312 -0.6853 -0.0419  0.1840
 3931TIP3    H111757   1.820   4.324   3.229  1.6549  2.1177  0.2595
 3931TIP3    H211758   1.846   4.422   3.341 -2.7920  1.0876  2.4278
 3932TIP3   OH211759   1.491   0.358   0.657  0.0868 -0.5890  0.0661
 3932TIP3    H111760   1.509   0.441   0.701  1.8749 -1.1769  0.5318
 3932TIP3    H211761   1.472   0.382   0.566  1.8142  0.2740 -0.1035
 3933TIP3   OH211762   2.963   4.668   4.223  0.3528  0.0948  0.1472
 3933TIP3    H111763   2.929   4.597   4.278 -0.2281 -0.2124 -0.5789
 3933TIP3    H211764   3.058   4.654   4.222  0.3058 -0.2710  0.5578
 3934TIP3   OH211765   5.561   4.735   5.452 -0.0306 -0.0028  0.2484
 3934TIP3    H111766   5.590   4.687   5.374  0.2253 -1.1139  1.0072
 3934TIP3    H211767   5.638   4.784   5.480 -0.1016  0.3410 -0.1508
 3935TIP3   OH211768   0.333   4.166   2.860  0.1515  0.1486 -0.1902
 3935TIP3    H111769   0.404   4.173   2.923 -0.2212 -1.0090  0.3798
 3935TIP3    H211770   0.307   4.257   2.843  0.7963  0.5119  0.6875
 3936TIP3   OH211771   2.259   5.307   0.608  0.0591 -0.4948 -0.5169
 3936TIP3    H111772   2.196   5.285   0.677 -1.0075 -0.2309 -1.3774
 3936TIP3    H211773   2.262   5.229   0.552 -0.4079 -0.0854 -1.1292
 3937TIP3   OH211774   0.730   4.541   0.564 -0.4603 -0.7562  0.2178
 3937TIP3    H111775   0.783   4.557   0.642  0.5651  1.5668 -0.8402
 3937TIP3    H211776   0.788   4.493   0.505  1.0873  2.7024 -1.3599
 3938TIP3   OH211777   3.454   6.089   3.369  0.1296  0.2355 -0.0678
 3938TIP3    H111778   3.382   6.068   3.310 -0.4993  0.8452  0.4651
 3938TIP3    H211779   3.448   6.022   3.438 -2.0900  2.1779  1.8189
 3939TIP3   OH211780   6.375   6.767   1.310 -0.2630  0.5239 -0.2009
 3939TIP3    H111781   6.315   6.739   1.241 -0.4117 -1.2538  0.6141
 3939TIP3    H211782   6.364   6.862   1.314 -2.2639  0.3545 -0.7796
 3940TIP3   OH211783   2.757   5.058   4.548 -0.3814 -0.2596  0.6178
 3940TIP3    H111784   2.796   5.036   4.463 -0.9060  0.5320  0.1578
 3940TIP3    H211785   2.791   5.145   4.568  0.3905 -0.7638  1.6349
 3941TIP3   OH211786   6.832   3.201   4.453 -0.5769 -0.4090 -0.4389
 3941TIP3    H111787   6.890   3.187   4.378  0.1658 -0.7480  0.1899
 3941TIP3    H211788   6.745   3.212   4.414  0.0801  1.5113 -1.5211
 3942TIP3   OH211789   5.500   5.501   0.299  0.0593 -0.3159 -0.5940
 3942TIP3    H111790   5.551   5.582   0.301  1.8100 -1.3577 -0.9142
 3942TIP3    H211791   5.499   5.472   0.390 -0.9398  0.2557 -0.4071
 3943TIP3   OH211792   3.692   5.062   2.297  0.6676 -0.2104 -0.1664
 3943TIP3    H111793   3.778   5.073   2.257 -0.6366 -1.2402 -3.6561
 3943TIP3    H211794   3.710   5.049   2.390  4.2569 -0.5444 -0.7585
 3944TIP3   OH211795   0.420   4.132   4.605  0.4145 -0.0587 -0.4267
 3944TIP3    H111796   0.403   4.181   4.524 -0.8241  0.1742 -0.0340
 3944TIP3    H211797   0.516   4.129   4.610  0.6392  3.2649  0.0760
 3945TIP3   OH211798   2.667   6.301   4.602  0.5542  0.5494  0.4172
 3945TIP3    H111799   2.613   6.294   4.524 -1.2027  1.4163  1.4974
 3945TIP3    H211800   2.613   6.265   4.672  1.5503  1.0216  1.4744
 3946TIP3   OH211801   3.039   5.120   2.740 -0.1050 -0.0459  0.5511
 3946TIP3    H111802   2.973   5.188   2.754  0.3826  0.6417 -0.3295
 3946TIP3    H211803   3.101   5.132   2.812  0.9506  1.6858 -0.5463
 3947TIP3   OH211804   0.418   4.707   2.053  0.6773 -0.1679  0.2003
 3947TIP3    H111805   0.457   4.689   1.968  1.3343  1.1488  0.2069
 3947TIP3    H211806   0.366   4.629   2.072  1.1815 -0.8294 -1.0205
 3948TIP3   OH211807   5.388   6.083   2.455 -0.2690  0.3668 -0.1054
 3948TIP3    H111808   5.362   6.174   2.469  1.4795  0.8135  0.3838
 3948TIP3    H211809   5.460   6.088   2.393  0.0955 -0.6619  0.2201
 3949TIP3   OH211810   5.458   1.333   0.719 -0.2327 -0.3904 -0.0272
 3949TIP3    H111811   5.369   1.325   0.685  0.4679  0.9215 -2.3652
 3949TIP3    H211812   5.512   1.348   0.642  1.7804  0.7017  1.4965
 3950TIP3   OH211813   2.909   3.897   3.994 -0.4038  0.0794 -0.4032
 3950TIP3    H111814   2.891   3.991   3.994 -0.2964  0.1041 -1.0362
 3950TIP3    H211815   2.981   3.886   4.055  1.0964  0.7159 -1.9826
 3951TIP3   OH211816   6.161   5.302   1.651 -0.0015 -0.1205  0.2050
 3951TIP3    H111817   6.196   5.300   1.562 -0.4546 -0.3126  0.0273
 3951TIP3    H211818   6.071   5.271   1.642 -0.5297  1.2646  0.5149
 3952TIP3   OH211819   5.030   5.167   3.532 -0.0855 -0.4827  0.5474
 3952TIP3    H111820   4.955   5.124   3.573  0.2810 -2.3128 -0.5844
 3952TIP3    H211821   5.093   5.176   3.603 -1.5034  1.5399  1.6342
 3953TIP3   OH211822   5.172   3.048   0.521  0.1763  0.0554 -0.2285
 3953TIP3    H111823   5.169   2.952   0.530 -2.1210  0.1484  0.4990
 3953TIP3    H211824   5.198   3.062   0.430 -0.6837 -1.3110 -0.7193
 3954TIP3   OH211825   3.024   6.697   4.132  0.2958  0.1667  0.7862
 3954TIP3    H111826   3.078   6.683   4.210  0.1370  2.2885  1.3336
 3954TIP3    H211827   3.009   6.791   4.130  0.2587  0.1722 -1.8050
 3955TIP3   OH211828   5.244   3.257   2.010  0.4210  0.1874  0.2406
 3955TIP3    H111829   5.263   3.170   1.977 -0.5665 -0.3528  1.0150
 3955TIP3    H211830   5.235   3.245   2.105  0.0978  1.0848  0.3347
 3956TIP3   OH211831   6.436   1.544   2.093  0.1528 -0.1739 -1.2639
 3956TIP3    H111832   6.391   1.469   2.132  0.3916 -0.9658 -2.4890
 3956TIP3    H211833   6.382   1.619   2.117 -0.3102 -0.7730 -0.3742
 3957TIP3   OH211834   2.129   2.164   3.302 -0.0537  0.5833 -0.2546
 3957TIP3    H111835   2.102   2.191   3.214  0.0016 -0.9194 -0.7626
 3957TIP3    H211836   2.223   2.182   3.304 -0.0127  0.4154 -0.5872
 3958TIP3   OH211837   7.054   5.015   4.228 -0.4180 -0.5625  0.6293
 3958TIP3    H111838   7.129   5.068   4.256  1.4041 -2.4977 -0.2724
 3958TIP3    H211839   7.001   5.075   4.175  1.0123  0.6190  0.4601
 3959TIP3   OH211840   2.410   2.860   5.672  0.6479 -0.4092 -0.2645
 3959TIP3    H111841   2.327   2.900   5.699 -0.1372 -1.5769 -0.8254
 3959TIP3    H211842   2.426   2.792   5.738  1.4314  0.1156  0.1093
 3960TIP3   OH211843   1.597   4.146   4.510 -0.4081  0.6623  0.4416
 3960TIP3    H111844   1.651   4.224   4.522  0.2075  0.3145  0.0225
 3960TIP3    H211845   1.520   4.161   4.564  1.3777 -0.0875  3.4066
 3961TIP3   OH211846   4.073   1.532   1.614  0.1462  0.2966 -0.1127
 3961TIP3    H111847   4.159   1.507   1.649  0.4750  0.3082 -0.8944
 3961TIP3    H211848   4.071   1.627   1.623  0.1393  0.2776  0.0839
 3962TIP3   OH211849   0.939   2.845   2.902  0.1202 -0.3041  0.1259
 3962TIP3    H111850   1.001   2.798   2.958 -0.5638 -0.6093  0.6338
 3962TIP3    H211851   0.853   2.818   2.933 -0.2714 -0.1748 -0.8264
 3963TIP3   OH211852   2.138   3.893   0.126 -0.2768 -0.4151 -0.2865
 3963TIP3    H111853   2.076   3.940   0.182  0.0445  1.1043 -1.1499
 3963TIP3    H211854   2.202   3.959   0.101 -0.7575 -0.8443 -2.9475
 3964TIP3   OH211855   4.332   6.685   2.963 -0.0392  0.1410 -0.2066
 3964TIP3    H111856   4.238   6.664   2.961  0.2525 -1.2435 -0.7283
 3964TIP3    H211857   4.363   6.668   2.874  0.6431  0.9738 -0.1427
 3965TIP3   OH211858   4.361   5.973   3.772  0.2762  0.3496 -0.0196
 3965TIP3    H111859   4.276   5.944   3.805 -0.2820  0.6956 -1.0845
 3965TIP3    H211860   4.368   6.064   3.800 -0.4113  0.7894 -1.2024
 3966TIP3   OH211861   3.670   2.796   0.573  0.0391 -0.5382  0.6468
 3966TIP3    H111862   3.642   2.879   0.612  0.7595 -0.5685  1.2516
 3966TIP3    H211863   3.600   2.735   0.594 -1.2051  0.2364 -1.0593
 3967TIP3   OH211864   3.888   1.955   2.937  0.4637  0.4585 -0.4594
 3967TIP3    H111865   3.832   2.007   2.994 -0.9421  0.3886 -1.7020
 3967TIP3    H211866   3.827   1.905   2.883  1.7005  0.5494 -2.0337
 3968TIP3   OH211867   2.184   5.348   1.142  0.7436 -0.6340 -0.8018
 3968TIP3    H111868   2.255   5.304   1.188  0.0772 -1.6603 -0.7184
 3968TIP3    H211869   2.105   5.318   1.186  0.3026  2.0627  0.4354
 3969TIP3   OH211870   0.460   0.825   0.326  0.1775 -0.3673 -0.0656
 3969TIP3    H111871   0.513   0.811   0.404 -0.0791  0.6742  0.3234
 3969TIP3    H211872   0.490   0.909   0.291  0.5686 -1.0157 -1.3323
 3970TIP3   OH211873   6.247   0.302   0.271 -0.2380 -0.2590 -0.1546
 3970TIP3    H111874   6.331   0.317   0.314 -0.5062 -0.3973  0.4346
 3970TIP3    H211875   6.222   0.387   0.235 -0.4244  0.0789  0.7353
 3971TIP3   OH211876   1.902   3.577   3.142  0.0482  0.0033  0.9399
 3971TIP3    H111877   1.820   3.619   3.166 -0.1151  0.3966 -0.2228
 3971TIP3    H211878   1.875   3.502   3.089  0.4330  0.7420 -0.3602
 3972TIP3   OH211879   0.893   4.555   1.667 -0.4383  0.4187 -0.0078
 3972TIP3    H111880   0.943   4.624   1.624 -1.6590  0.1371 -2.0082
 3972TIP3    H211881   0.855   4.598   1.744  2.2549  0.7917  1.2441
 3973TIP3   OH211882   2.792   0.343   1.047  0.0267  0.8643  0.1603
 3973TIP3    H111883   2.733   0.275   1.016 -0.4988  0.0474  2.7285
 3973TIP3    H211884   2.869   0.336   0.991 -1.0373 -0.1114 -1.2493
 3974TIP3   OH211885   0.426   5.319   3.479 -0.0755 -0.1648  0.3045
 3974TIP3    H111886   0.474   5.304   3.560 -1.0052 -0.9696  0.7290
 3974TIP3    H211887   0.457   5.250   3.420  1.5330  1.1733 -0.4907
 3975TIP3   OH211888   1.562   0.958   1.349  0.0560 -0.0394  0.6978
 3975TIP3    H111889   1.592   0.950   1.259 -0.1135  1.9753  0.4117
 3975TIP3    H211890   1.498   1.029   1.347 -0.4108 -0.3639  2.3071
 3976TIP3   OH211891   0.036   3.309   0.871  0.5268  0.5804 -0.8376
 3976TIP3    H111892   0.071   3.394   0.897  2.0052 -0.4585  0.7927
 3976TIP3    H211893   0.086   3.246   0.922 -1.2281 -1.2352 -1.2449
 3977TIP3   OH211894   1.759   6.649   1.370  0.2312 -0.1741 -0.5733
 3977TIP3    H111895   1.675   6.664   1.327  0.2782 -0.8989 -0.9338
 3977TIP3    H211896   1.737   6.601   1.450  0.1133  1.4480  0.4003
 3978TIP3   OH211897   4.446   3.508   3.565 -0.6053 -0.4937 -0.0857
 3978TIP3    H111898   4.467   3.516   3.472 -0.4571  0.9342  0.0482
 3978TIP3    H211899   4.519   3.550   3.610  0.3878 -2.9921  0.8275
 3979TIP3   OH211900   2.457   2.296   2.471  0.1246  0.4294 -0.1303
 3979TIP3    H111901   2.504   2.379   2.467  0.6711  0.1180 -0.2109
 3979TIP3    H211902   2.522   2.230   2.450  0.3127 -0.2539  2.2279
 3980TIP3   OH211903   7.065   0.323   0.163  0.1898  0.2471  0.2572
 3980TIP3    H111904   7.148   0.353   0.125 -0.1363  2.2665  1.0683
 3980TIP3    H211905   7.061   0.230   0.138  1.0068  0.8980 -2.7785
 3981TIP3   OH211906   4.685   6.103   5.790 -0.3112 -0.4227  0.5568
 3981TIP3    H111907   4.678   6.045   5.866  0.0316 -0.8451  0.2666
 3981TIP3    H211908   4.687   6.191   5.827 -0.3181 -0.6200  1.0277
 3982TIP3   OH211909   0.150   4.144   0.234  0.2190  0.2896  0.1101
 3982TIP3    H111910   0.127   4.055   0.261  3.8461 -1.0444 -0.7012
 3982TIP3    H211911   0.138   4.196   0.313 -0.5647 -1.2059  1.0243
 3983TIP3   OH211912   0.201   5.079   4.332  0.0041  0.2630 -0.1213
 3983TIP3    H111913   0.229   5.058   4.243 -0.5636 -0.4245 -0.1469
 3983TIP3    H211914   0.282   5.102   4.378  0.6137 -1.5080 -0.2312
 3984TIP3   OH211915   5.668   2.849   3.536  0.7189  0.1808 -0.5996
 3984TIP3    H111916   5.651   2.875   3.446  1.8618 -0.8031 -1.1286
 3984TIP3    H211917   5.593   2.795   3.561 -0.8491  2.4719 -0.0557
 3985TIP3   OH211918   0.108   2.957   4.217 -0.0471  0.2905  0.1578
 3985TIP3    H111919   0.047   2.900   4.171  0.2152 -0.6178  0.8902
 3985TIP3    H211920   0.097   3.043   4.176 -0.6991 -0.2046 -0.7418
 3986TIP3   OH211921   4.205   3.715   2.088 -0.4948  0.4954 -1.1129
 3986TIP3    H111922   4.271   3.739   2.023  1.3565 -2.2989 -0.4133
 3986TIP3    H211923   4.245   3.736   2.172 -1.2955  0.5223 -0.7257
 3987TIP3   OH211924   6.359   0.805   3.866  0.5300  0.0885 -0.5634
 3987TIP3    H111925   6.343   0.823   3.773  0.7939 -1.1211 -0.8604
 3987TIP3    H211926   6.288   0.747   3.892  0.4135  0.4845  0.0218
 3988TIP3   OH211927   0.244   0.362   3.581 -0.1372 -0.3850 -0.2597
 3988TIP3    H111928   0.164   0.331   3.623 -1.3114  1.8748 -0.6597
 3988TIP3    H211929   0.270   0.291   3.522  0.1833 -2.6103  2.3648
 3989TIP3   OH211930   2.035   5.331   5.111  0.1951 -0.3851 -0.5683
 3989TIP3    H111931   2.023   5.237   5.100  0.4895 -0.4422 -0.4043
 3989TIP3    H211932   1.973   5.370   5.049 -0.3967 -0.6798 -0.1701
 3990TIP3   OH211933   4.788   0.988   2.572  0.1502  0.2458 -0.0049
 3990TIP3    H111934   4.826   1.055   2.515  0.0243 -0.4452 -0.9133
 3990TIP3    H211935   4.843   0.989   2.650  0.7409  0.7262 -0.4183
 3991TIP3   OH211936   1.163   0.156   3.503  0.3461 -0.4122 -0.0797
 3991TIP3    H111937   1.103   0.133   3.575  1.3690  0.7471  1.2113
 3991TIP3    H211938   1.187   0.072   3.464 -1.1912 -0.9840  0.1105
 3992TIP3   OH211939   2.864   2.367   0.649  0.0295  0.0876  0.2301
 3992TIP3    H111940   2.915   2.304   0.701  0.8959  0.5296 -0.0664
 3992TIP3    H211941   2.808   2.312   0.594  0.0780 -0.4102  0.6668
 3993TIP3   OH211942   5.593   6.546   5.448  0.3879  0.4595  0.2255
 3993TIP3    H111943   5.656   6.484   5.411  0.8462 -0.1958  1.9975
 3993TIP3    H211944   5.508   6.514   5.419  0.6789 -0.5347  0.4411
 3994TIP3   OH211945   2.174   6.292   2.748  0.0133 -0.2139  0.6345
 3994TIP3    H111946   2.195   6.199   2.757 -0.8175 -0.3456  1.3378
 3994TIP3    H211947   2.232   6.323   2.678  1.8704 -0.7620  1.8659
 3995TIP3   OH211948   5.496   3.494   1.539  0.2866  0.3201 -0.1087
 3995TIP3    H111949   5.489   3.464   1.630 -0.5445  0.0189 -0.2593
 3995TIP3    H211950   5.407   3.484   1.504  0.8989 -1.0572 -1.4095
 3996TIP3   OH211951   3.081   4.472   2.507 -0.3716 -0.5394  0.5446
 3996TIP3    H111952   3.037   4.515   2.434  2.5571  0.7520 -0.6042
 3996TIP3    H211953   3.043   4.512   2.585 -0.8896  0.8798 -0.3981
 3997TIP3   OH211954   5.895   6.709   4.457 -0.3122 -0.2074 -0.1944
 3997TIP3    H111955   5.929   6.714   4.546 -2.4832  3.0448  0.6238
 3997TIP3    H211956   5.967   6.737   4.401 -0.0539  1.5909  0.9771
 3998TIP3   OH211957   3.664   5.309   1.920  0.4353  0.4846 -0.1278
 3998TIP3    H111958   3.601   5.360   1.869 -0.2348  0.9347  1.1100
 3998TIP3    H211959   3.678   5.230   1.869 -1.3642  0.2504 -0.2992
 3999TIP3   OH211960   1.962   1.126   5.876  0.4117 -0.6564  0.5220
 3999TIP3    H111961   1.984   1.050   5.930 -1.5292 -1.2499  0.5596
 3999TIP3    H211962   1.876   1.105   5.838 -0.6161  1.8604  1.2229
 4000TIP3   OH211963   3.742   2.531   3.226  0.5217  0.2594 -0.0429
 4000TIP3    H111964   3.783   2.524   3.140  2.2325 -1.6907  0.8571
 4000TIP3    H211965   3.804   2.581   3.279  0.9395 -1.1618  0.8496
 4001TIP3   OH211966   4.241   6.306   5.223  0.2009  0.1320  0.1326
 4001TIP3    H111967   4.245   6.229   5.280 -1.2061 -0.1802 -0.1386
 4001TIP3    H211968   4.318   6.298   5.166 -0.1940 -1.3924 -0.2438
 4002TIP3   OH211969   6.689   1.729   0.999 -0.6536  0.1636 -0.0607
 4002TIP3    H111970   6.622   1.663   0.984  1.7648 -2.1111 -1.8207
 4002TIP3    H211971   6.695   1.776   0.915 -0.4799  0.7644  0.2842
 4003TIP3   OH211972   3.010   0.381   1.789  0.0518  0.0549  0.0384
 4003TIP3    H111973   3.065   0.349   1.862 -0.3721 -1.9968 -0.4607
 4003TIP3    H211974   2.966   0.458   1.825  0.9135 -0.0704  1.4799
 4004TIP3   OH211975   5.755   3.549   2.014 -0.4247 -0.3354 -0.2151
 4004TIP3    H111976   5.677   3.497   2.034 -0.0307 -0.6713  0.4636
 4004TIP3    H211977   5.742   3.631   2.061  0.7792 -1.3469  2.0792
 4005TIP3   OH211978   0.050   0.525   0.746  0.2522  0.2157 -0.3754
 4005TIP3    H111979   0.057   0.599   0.806  3.2392  0.5548 -1.0127
 4005TIP3    H211980   0.045   0.565   0.659 -0.5870 -0.3299 -0.5933
 4006TIP3   OH211981   1.344   1.732   1.668  0.2089  0.4057 -0.3620
 4006TIP3    H111982   1.389   1.758   1.587  1.4830  0.9002  0.4705
 4006TIP3    H211983   1.281   1.802   1.683 -0.5098 -0.0227 -1.2590
 4007TIP3   OH211984   1.523   3.991   3.156  0.4837  0.3692 -0.0940
 4007TIP3    H111985   1.591   3.998   3.224 -0.2968  0.0973  0.7389
 4007TIP3    H211986   1.461   4.061   3.177 -1.1456 -1.3423  1.1057
 4008TIP3   OH211987   5.866   4.501   2.838 -0.0253  0.3155 -0.1292
 4008TIP3    H111988   5.776   4.532   2.836 -0.0204  0.6682  2.2889
 4008TIP3    H211989   5.860   4.411   2.871  0.5354  0.5667  0.6855
 4009TIP3   OH211990   0.584   0.164   5.108  0.2109 -0.1717  0.0664
 4009TIP3    H111991   0.614   0.142   5.197 -0.8671  1.0036  0.7576
 4009TIP3    H211992   0.651   0.224   5.075 -0.0264  0.3880  0.5884
 4010TIP3   OH211993   6.179   5.944   0.917 -0.6785 -0.9325 -0.5353
 4010TIP3    H111994   6.239   5.897   0.975 -2.3697 -1.2831  1.0250
 4010TIP3    H211995   6.195   6.036   0.936  1.0203 -0.8941 -1.9154
 4011TIP3   OH211996   6.533   5.197   1.423  0.4687 -0.3611 -0.4241
 4011TIP3    H111997   6.565   5.154   1.502 -1.5813 -0.4369  0.4255
 4011TIP3    H211998   6.527   5.127   1.357 -0.2865 -0.8547  0.1525
 4012TIP3   OH211999   1.308   2.918   3.636  0.1431  0.0537  0.0477
 4012TIP3    H112000   1.316   2.956   3.723 -1.6796 -0.1966  0.3695
 4012TIP3    H212001   1.215   2.924   3.616  0.5667  0.3448 -2.0082
 4013TIP3   OH212002   0.651   0.776   5.103 -0.5754 -0.2064 -0.4747
 4013TIP3    H112003   0.704   0.729   5.038  1.0780  1.7051 -0.6233
 4013TIP3    H212004   0.679   0.867   5.095 -1.8784  0.4297  1.4703
 4014TIP3   OH212005   2.157   1.168   3.026  0.2019 -0.1535 -0.3580
 4014TIP3    H112006   2.101   1.238   2.992 -0.7560  0.7244  2.7219
 4014TIP3    H212007   2.122   1.088   2.986 -0.5754  0.7881 -1.6602
 4015TIP3   OH212008   1.242   3.051   2.298  0.5958  0.3281 -0.1039
 4015TIP3    H112009   1.246   3.139   2.259  2.4338  0.3830  0.1121
 4015TIP3    H212010   1.269   3.064   2.389 -0.1721 -0.3101  0.2165
 4016TIP3   OH212011   3.337   4.009   2.104  0.3063  0.2378 -0.1480
 4016TIP3    H112012   3.349   3.945   2.034  0.2042  2.2510 -2.1129
 4016TIP3    H212013   3.293   3.960   2.174 -0.9153 -1.5480 -2.0502
 4017TIP3   OH212014   3.556   1.805   1.604 -0.4243  0.0956 -0.1210
 4017TIP3    H112015   3.644   1.768   1.601 -0.1734  0.7229 -0.9967
 4017TIP3    H212016   3.532   1.816   1.512 -1.6553 -0.6017  0.0918
 4018TIP3   OH212017   5.755   1.104   5.436  0.3401  0.6159  0.1248
 4018TIP3    H112018   5.830   1.104   5.377  1.0428  0.4574  0.9998
 4018TIP3    H212019   5.766   1.024   5.488 -1.3193 -0.2809 -0.8268
 4019TIP3   OH212020   0.953   5.405   5.599  0.6471 -0.7867  0.6414
 4019TIP3    H112021   0.954   5.328   5.655  0.1921  0.3343  2.2551
 4019TIP3    H212022   1.043   5.438   5.600  1.0060 -1.6412 -0.6136
 4020TIP3   OH212023   4.521   1.204   0.100 -0.0774  0.3693 -0.1953
 4020TIP3    H112024   4.485   1.292   0.114 -1.0264 -0.1552  0.7551
 4020TIP3    H212025   4.450   1.155   0.060  0.0443 -0.2830  0.3666
 4021TIP3   OH212026   3.673   0.914   3.175  0.1748 -0.3682  0.4488
 4021TIP3    H112027   3.584   0.901   3.142  0.4658 -1.9046  0.1790
 4021TIP3    H212028   3.690   0.837   3.229  1.7979 -0.7735 -0.5625
 4022TIP3   OH212029   3.695   4.293   1.192  0.1472  0.0581  0.4940
 4022TIP3    H112030   3.707   4.198   1.198 -0.9265 -0.1906 -0.7113
 4022TIP3    H212031   3.623   4.311   1.253  0.2306  0.0552  0.5917
 4023TIP3   OH212032   6.000   6.385   2.160 -0.3634 -0.2458 -0.1496
 4023TIP3    H112033   5.930   6.382   2.094 -0.5863 -1.4975  0.1033
 4023TIP3    H212034   5.966   6.332   2.232  0.5630 -0.2735  0.2736
 4024TIP3   OH212035   5.922   1.354   2.277 -0.3997  0.1267 -0.0027
 4024TIP3    H112036   5.894   1.263   2.266 -1.1385  0.2269  0.9287
 4024TIP3    H212037   5.972   1.354   2.358  2.6053 -0.0849 -1.7261
 4025TIP3   OH212038   4.248   3.423   1.811  0.1875  0.2521  0.0946
 4025TIP3    H112039   4.332   3.395   1.846 -0.7460 -0.7804  1.6217
 4025TIP3    H212040   4.254   3.519   1.807  1.8372  0.1386 -0.9983
 4026TIP3   OH212041   4.523   5.918   3.537  0.0064  0.3971 -0.4039
 4026TIP3    H112042   4.459   5.917   3.608  0.5865 -1.0923  0.1366
 4026TIP3    H212043   4.471   5.937   3.458 -1.4992 -2.5323 -0.2871
 4027TIP3   OH212044   5.054   6.308   4.320  0.7921 -0.1184 -0.8236
 4027TIP3    H112045   5.076   6.215   4.324  0.0878 -0.3281 -1.5748
 4027TIP3    H212046   4.958   6.311   4.317  0.7841  0.6602 -0.2137
 4028TIP3   OH212047   4.084   4.741   3.528 -0.0419  0.3861  0.2334
 4028TIP3    H112048   4.079   4.782   3.614  1.6137 -0.1082  0.5970
 4028TIP3    H212049   4.042   4.655   3.540  0.3422  0.2489  0.5927
 4029TIP3   OH212050   4.641   1.351   3.967  0.2822 -0.0103  0.4851
 4029TIP3    H112051   4.572   1.389   4.022  1.0320  0.8533  0.8614
 4029TIP3    H212052   4.644   1.409   3.890 -2.4350 -2.5455 -1.7822
 4030TIP3   OH212053   3.949   2.164   5.367 -0.0263 -0.2029  0.5805
 4030TIP3    H112054   3.998   2.217   5.304 -0.4512  1.2805  1.4361
 4030TIP3    H212055   3.949   2.217   5.447 -4.5949  0.8475  0.1551
 4031TIP3   OH212056   4.193   4.518   0.775 -0.5485 -0.2005 -0.4531
 4031TIP3    H112057   4.233   4.603   0.793 -0.4602 -0.4700  0.6798
 4031TIP3    H212058   4.249   4.455   0.819 -0.2202 -0.9363 -1.8701
 4032TIP3   OH212059   6.867   4.084   1.333 -0.2765 -0.7717  0.1343
 4032TIP3    H112060   6.954   4.103   1.367 -0.7670  1.5529  0.3208
 4032TIP3    H212061   6.813   4.074   1.412 -0.3115 -1.5116  0.0194
 4033TIP3   OH212062   1.624   5.355   0.619  0.2897  0.4889  0.1300
 4033TIP3    H112063   1.655   5.341   0.530 -0.8329  2.7972 -0.6969
 4033TIP3    H212064   1.698   5.398   0.664  0.8930 -0.7702  0.3928
 4034TIP3   OH212065   1.999   1.373   0.043 -0.0431  0.0451 -0.0547
 4034TIP3    H112066   2.031   1.329  -0.036  2.4048  0.1133  0.8079
 4034TIP3    H212067   2.048   1.456   0.045  0.3871 -0.2207  1.8057
 4035TIP3   OH212068   1.826   0.459   5.685  0.1056 -0.0780 -0.3002
 4035TIP3    H112069   1.887   0.516   5.731 -1.1551  0.3638  0.8999
 4035TIP3    H212070   1.823   0.379   5.738  1.9533 -1.3760 -2.0345
 4036TIP3   OH212071   5.000   2.696   5.339  0.0459  0.5514 -0.1872
 4036TIP3    H112072   5.014   2.698   5.244 -0.7244 -2.1151 -0.4203
 4036TIP3    H212073   4.932   2.630   5.353 -0.1892  1.1920  2.2106
 4037TIP3   OH212074   6.598   2.756   0.456 -0.0315 -0.5335 -0.6545
 4037TIP3    H112075   6.655   2.783   0.528 -0.5418  0.2643 -0.5328
 4037TIP3    H212076   6.551   2.836   0.431 -1.3420 -1.2208 -0.5104
 4038TIP3   OH212077   2.146   6.281   3.842 -0.3247  0.0002 -0.1480
 4038TIP3    H112078   2.160   6.375   3.838  1.2104 -0.1892  0.1186
 4038TIP3    H212079   2.234   6.244   3.858 -0.9499 -1.4375  0.1469
 4039TIP3   OH212080   1.464   3.918   5.661 -0.1093 -0.4592 -0.4223
 4039TIP3    H112081   1.457   3.944   5.753 -0.1611 -1.5777 -0.0910
 4039TIP3    H212082   1.498   3.829   5.664 -1.4022 -1.0268 -1.4271
 4040TIP3   OH212083   1.664   4.753   2.604  0.0678  0.2718 -0.4070
 4040TIP3    H112084   1.698   4.735   2.692  0.3305  3.2818  0.2109
 4040TIP3    H212085   1.743   4.763   2.550 -0.0728 -0.3261 -0.7388
 4041TIP3   OH212086   3.607   5.798   2.452 -0.6416  0.5127 -0.0118
 4041TIP3    H112087   3.649   5.798   2.538 -1.7628  0.2774  0.5553
 4041TIP3    H212088   3.624   5.886   2.417  0.7145  0.2722 -0.0250
 4042TIP3   OH212089   3.712   5.506   2.382 -0.5106  0.0950 -1.0195
 4042TIP3    H112090   3.689   5.595   2.408  0.5433  0.3794 -1.0040
 4042TIP3    H212091   3.745   5.515   2.293 -1.6036 -0.4832 -1.5024
 4043TIP3   OH212092   4.491   0.636   1.504  0.2000  0.2788  0.0379
 4043TIP3    H112093   4.427   0.690   1.549  0.0172 -0.4703  0.7051
 4043TIP3    H212094   4.576   0.668   1.535  0.2182  1.7133 -1.3482
 4044TIP3   OH212095   1.527   1.257   1.959 -0.3799 -0.0322  0.2787
 4044TIP3    H112096   1.496   1.314   2.030  3.7799 -0.5499  2.8282
 4044TIP3    H212097   1.567   1.317   1.896  1.7363  0.1869  1.7259
 4045TIP3   OH212098   3.090   1.406   5.287 -0.3332  0.4890  0.0636
 4045TIP3    H112099   3.146   1.332   5.264 -1.2981 -0.0710 -0.5667
 4045TIP3    H212100   3.010   1.393   5.236 -1.2865  0.9327  1.3775
 4046TIP3   OH212101   0.029   2.653   1.918  0.3212 -0.8485 -0.0113
 4046TIP3    H112102  -0.011   2.737   1.896  0.4673 -0.8863 -0.4174
 4046TIP3    H212103   0.100   2.676   1.977  0.3667 -0.6857 -0.1287
 4047TIP3   OH212104   5.979   3.733   4.349 -0.3801  0.2707 -0.0456
 4047TIP3    H112105   6.012   3.653   4.310 -0.0717  0.6411 -0.5571
 4047TIP3    H212106   5.901   3.706   4.397  1.2655 -0.8274  2.1828
 4048TIP3   OH212107   6.462   5.963   0.131 -0.4632 -0.1889 -0.1586
 4048TIP3    H112108   6.443   6.050   0.096  2.3945  1.4521  1.9725
 4048TIP3    H212109   6.404   5.954   0.207 -2.1346 -1.0761 -1.4601
 4049TIP3   OH212110   6.610   6.532   2.183 -0.1295 -0.7327 -0.1444
 4049TIP3    H112111   6.555   6.581   2.244  1.4848 -0.1526  0.9152
 4049TIP3    H212112   6.631   6.594   2.114  0.6693 -0.3783  0.4057
 4050TIP3   OH212113   0.581   0.686   5.390  0.4215 -0.0570  0.1787
 4050TIP3    H112114   0.676   0.681   5.383  0.4107 -1.1738  0.6219
 4050TIP3    H212115   0.559   0.776   5.365  1.4652 -0.1760 -1.2727
 4051TIP3   OH212116   5.031   4.183   3.709 -0.0873  0.8850  0.1863
 4051TIP3    H112117   5.019   4.143   3.795  0.0638  0.0912 -0.1563
 4051TIP3    H212118   5.115   4.229   3.716 -0.2555  1.1442  0.5762
 4052TIP3   OH212119   4.283   5.849   3.022  0.1621 -0.4069  0.0739
 4052TIP3    H112120   4.290   5.885   2.934  1.5110 -0.1408  0.2708
 4052TIP3    H212121   4.219   5.779   3.015  1.2117 -1.2527 -1.3965
 4053TIP3   OH212122   1.405   3.456   5.644 -0.4527  0.4438  0.5662
 4053TIP3    H112123   1.479   3.398   5.665 -0.1391  0.7911  0.4322
 4053TIP3    H212124   1.344   3.400   5.596 -0.5041  0.0253  1.0969
 4054TIP3   OH212125   2.797   4.934   5.680 -0.1692  0.1996 -0.0240
 4054TIP3    H112126   2.792   5.022   5.718 -0.0247  0.8722 -1.4693
 4054TIP3    H212127   2.712   4.922   5.636 -0.6554 -0.8889  1.1514
 4055TIP3   OH212128   5.853   1.652   0.269  1.1201 -0.1500 -0.2935
 4055TIP3    H112129   5.889   1.736   0.240 -1.4938  1.6180  1.1078
 4055TIP3    H212130   5.871   1.650   0.363 -1.2621  0.2965  0.2449
 4056TIP3   OH212131   2.519   6.053   1.752  0.1868 -0.2020  0.0400
 4056TIP3    H112132   2.543   6.117   1.685  0.7472 -0.6912 -0.2351
 4056TIP3    H212133   2.529   5.968   1.709 -1.3816 -0.4538  0.1457
 4057TIP3   OH212134   0.535   4.619   5.444 -0.3445  0.1595 -0.4483
 4057TIP3    H112135   0.453   4.569   5.446 -0.0863 -0.2787  1.6195
 4057TIP3    H212136   0.599   4.560   5.404 -0.2636 -0.8738  1.1122
 4058TIP3   OH212137   2.469   4.568   2.420 -0.0873  0.3057 -0.4411
 4058TIP3    H112138   2.565   4.570   2.419  0.1104 -3.3238 -0.7492
 4058TIP3    H212139   2.446   4.582   2.511  0.8350 -0.2972 -0.1010
 4059TIP3   OH212140   5.145   0.626   1.590 -0.1159  0.0035 -0.6937
 4059TIP3    H112141   5.161   0.541   1.550  1.5902  0.5174 -1.2040
 4059TIP3    H212142   5.113   0.606   1.678 -1.5771 -1.1358 -1.4356
 4060TIP3   OH212143   5.601   4.152   5.431 -0.3606  0.0763 -0.5555
 4060TIP3    H112144   5.628   4.190   5.514  2.9837 -2.3715 -0.3291
 4060TIP3    H212145   5.642   4.207   5.365 -1.3797  0.8419 -0.5926
 4061TIP3   OH212146   2.817   0.101   2.412  0.2262 -0.2302 -0.3018
 4061TIP3    H112147   2.786   0.190   2.427 -1.0922 -0.4744 -1.4033
 4061TIP3    H212148   2.739   0.047   2.419  0.9488 -1.2676 -0.0120
 4062TIP3   OH212149   1.161   2.223   3.390  0.0367 -0.3112  0.3610
 4062TIP3    H112150   1.256   2.231   3.384  0.0563 -0.5511  0.3737
 4062TIP3    H212151   1.143   2.224   3.484  0.0641 -0.7436  0.3697
 4063TIP3   OH212152   6.112   6.119   5.392  0.3304  0.2412 -0.0389
 4063TIP3    H112153   6.178   6.076   5.445  0.0001  0.4621  0.5642
 4063TIP3    H212154   6.041   6.055   5.384  0.6696 -0.0469 -0.8007
 4064TIP3   OH212155   3.076   3.351   2.899 -0.2874  0.2145 -0.0298
 4064TIP3    H112156   2.981   3.364   2.902 -0.3419  0.8526 -2.3619
 4064TIP3    H212157   3.105   3.366   2.989 -2.4061 -0.2500  0.7965
 4065TIP3   OH212158   6.736   3.214   4.046  0.3299 -0.1846  1.1367
 4065TIP3    H112159   6.810   3.192   4.103  1.1426  0.2268  0.2571
 4065TIP3    H212160   6.772   3.213   3.958 -1.2756 -2.5572  0.4030
 4066TIP3   OH212161   3.354   4.585   0.485  0.0908  0.1931  0.0347
 4066TIP3    H112162   3.281   4.646   0.498 -0.2056  0.1892 -1.4424
 4066TIP3    H212163   3.326   4.504   0.527 -0.9000  0.0986 -0.7925
 4067TIP3   OH212164   1.493   1.896   5.169  0.1478 -0.0692 -0.5069
 4067TIP3    H112165   1.497   1.966   5.234  0.0604 -1.8147  1.4967
 4067TIP3    H212166   1.462   1.939   5.089  0.5091  2.2240  0.5034
 4068TIP3   OH212167   7.127   6.115   2.435 -0.0343 -0.1277 -0.0259
 4068TIP3    H112168   7.190   6.044   2.421  0.6385  0.3341  0.5663
 4068TIP3    H212169   7.052   6.093   2.380  1.4661  0.3772 -2.3853
 4069TIP3   OH212170   4.782   0.909   4.913 -0.3779  0.0722  0.1861
 4069TIP3    H112171   4.768   0.968   4.840  0.8613  0.8762  0.5658
 4069TIP3    H212172   4.846   0.846   4.882 -1.3718 -0.8497 -0.0724
 4070TIP3   OH212173   0.904   0.453   4.580  0.1855  0.1490 -0.0901
 4070TIP3    H112174   0.821   0.413   4.553  1.1473 -1.9331 -0.1843
 4070TIP3    H212175   0.941   0.390   4.643  1.1991  1.5669  0.7778
 4071TIP3   OH212176   3.510   0.012   3.908 -0.0390 -0.2075 -0.2184
 4071TIP3    H112177   3.467  -0.006   3.992  1.6320  1.4300  1.0738
 4071TIP3    H212178   3.589   0.060   3.932 -0.2042  1.5789 -2.8229
 4072TIP3   OH212179   1.414   0.432   0.421 -0.3135 -0.4591 -0.0602
 4072TIP3    H112180   1.419   0.344   0.383  0.4642  0.1002 -1.3231
 4072TIP3    H212181   1.377   0.486   0.351  1.9944  0.7876 -0.4438
 4073TIP3   OH212182   6.573   5.831   0.467 -0.0320  0.1748 -0.0705
 4073TIP3    H112183   6.656   5.817   0.512  0.5970  3.6147  0.0685
 4073TIP3    H212184   6.576   5.922   0.437 -1.8437 -0.8451 -4.0980
 4074TIP3   OH212185   0.987   1.993   5.663 -0.3188  0.0699 -0.1444
 4074TIP3    H112186   0.984   1.907   5.621 -0.8062  0.0517 -0.0837
 4074TIP3    H212187   0.994   1.973   5.756 -4.0069 -0.0478  0.2848
 4075TIP3   OH212188   6.282   4.849   5.549  0.3695  0.0068 -0.1947
 4075TIP3    H112189   6.277   4.926   5.606 -0.8235  0.6563 -1.1228
 4075TIP3    H212190   6.375   4.836   5.533  0.6392  0.6374  0.7994
 4076TIP3   OH212191   6.219   6.750   0.360  0.4965  0.0749  0.6266
 4076TIP3    H112192   6.155   6.804   0.405  0.3192 -0.8802  1.5873
 4076TIP3    H212193   6.202   6.661   0.392  1.0644 -0.4845 -0.5480
 4077TIP3   OH212194   1.837   3.301   3.216  0.3176 -0.0687 -0.0685
 4077TIP3    H112195   1.921   3.283   3.258  1.3268  1.4865 -1.2603
 4077TIP3    H212196   1.779   3.327   3.288  1.0160 -0.6236  0.7105
 4078TIP3   OH212197   7.158   2.233   0.095  0.6829 -0.2101  0.5658
 4078TIP3    H112198   7.231   2.268   0.147 -1.3472  1.8408  2.1989
 4078TIP3    H212199   7.132   2.305   0.038 -0.2996 -0.7869  0.2612
 4079TIP3   OH212200   1.115   0.189   4.273  0.4635  0.0616 -0.2341
 4079TIP3    H112201   1.087   0.134   4.200 -1.3037  1.0689 -0.3799
 4079TIP3    H212202   1.123   0.277   4.235 -1.8291  0.8884  0.9793
 4080TIP3   OH212203   6.241   4.877   2.751 -0.8331  0.1780  0.6918
 4080TIP3    H112204   6.146   4.874   2.760 -1.3482  0.6079 -3.0394
 4080TIP3    H212205   6.262   4.800   2.699  0.7603  0.5379  0.7555
 4081TIP3   OH212206   3.830   0.952   5.528 -0.5046 -0.4787 -0.0334
 4081TIP3    H112207   3.777   0.873   5.518  0.0981 -1.0830  1.2703
 4081TIP3    H212208   3.921   0.921   5.523 -0.2634  0.1922  0.0939
 4082TIP3   OH212209   4.529   4.221   2.619  0.4732 -0.0883  0.2817
 4082TIP3    H112210   4.611   4.186   2.584 -0.4431 -0.3612 -1.7382
 4082TIP3    H212211   4.477   4.244   2.541 -2.7524 -3.0798  1.2988
 4083TIP3   OH212212   6.156   6.284   0.243  0.3190 -0.3814 -0.4997
 4083TIP3    H112213   6.232   6.263   0.190  1.1854  1.4247 -0.0557
 4083TIP3    H212214   6.110   6.352   0.194  0.9201  1.0286  0.8015
 4084TIP3   OH212215   2.638   2.326   1.605 -0.4235 -0.0252 -0.3569
 4084TIP3    H112216   2.557   2.277   1.613 -0.1153 -0.2604  2.4541
 4084TIP3    H212217   2.615   2.416   1.629 -0.2336  0.3807 -1.6320
 4085TIP3   OH212218   6.079   2.384   3.628  0.3028  0.1446  0.5649
 4085TIP3    H112219   6.010   2.317   3.627  1.5776 -1.2427 -1.2858
 4085TIP3    H212220   6.034   2.464   3.656 -1.8907 -0.8552  0.1161
 4086TIP3   OH212221   7.022   2.279   1.167 -0.1368  0.0543  0.6894
 4086TIP3    H112222   7.060   2.210   1.112 -0.0476 -0.2678  1.1525
 4086TIP3    H212223   7.014   2.239   1.254 -1.7532  0.0248  0.5637
 4087TIP3   OH212224   6.073   5.234   4.435  0.1062  0.2463  0.9248
 4087TIP3    H112225   6.159   5.275   4.425  1.8339 -3.4099 -1.5586
 4087TIP3    H212226   6.080   5.183   4.516  0.0649  0.3689  1.0059
 4088TIP3   OH212227   1.243   1.666   2.541 -0.4406 -0.0248  0.2239
 4088TIP3    H112228   1.336   1.683   2.529 -0.5482 -0.5317 -1.6557
 4088TIP3    H212229   1.202   1.700   2.461 -1.8633  0.1616  1.0077
 4089TIP3   OH212230   4.159   2.835   1.119 -0.2434 -0.0694  0.2961
 4089TIP3    H112231   4.200   2.919   1.141 -0.6328  0.1632  0.1411
 4089TIP3    H212232   4.068   2.845   1.145 -0.1162 -0.7413  1.0347
 4090TIP3   OH212233   7.108   1.608   0.718 -0.1290 -0.3564  0.7801
 4090TIP3    H112234   7.171   1.639   0.653  0.4604 -1.6261  0.7025
 4090TIP3    H212235   7.061   1.686   0.746 -1.6329  0.0824 -2.4576
 4091TIP3   OH212236   3.618   6.398   3.974  0.4391  0.0723 -0.5235
 4091TIP3    H112237   3.603   6.311   4.010  2.7020 -0.3834 -0.5537
 4091TIP3    H212238   3.667   6.383   3.893 -1.4393  1.2702 -1.9633
 4092TIP3   OH212239   2.934   5.102   3.878  0.4829  0.3869 -0.0320
 4092TIP3    H112240   2.903   5.183   3.838  0.3227  1.3862  1.9844
 4092TIP3    H212241   3.029   5.114   3.888  0.4075  0.5125  0.6088
 4093TIP3   OH212242   7.098   3.190   0.582 -0.4754  0.3635 -0.3624
 4093TIP3    H112243   7.161   3.182   0.654 -0.5189  0.3189 -0.3290
 4093TIP3    H212244   7.141   3.147   0.508 -0.6561 -0.0807 -0.2155
 4094TIP3   OH212245   6.566   0.046   1.454 -0.0466 -0.6813 -0.3921
 4094TIP3    H112246   6.620   0.076   1.527 -0.3054 -3.0183  0.8307
 4094TIP3    H212247   6.493   0.108   1.451  0.1050 -0.3839  1.1709
 4095TIP3   OH212248   3.033   4.511   1.840  0.1424  0.1124  0.0560
 4095TIP3    H112249   3.066   4.506   1.930  0.4945  0.5151 -0.0492
 4095TIP3    H212250   3.007   4.421   1.820  0.5078 -0.0760  0.3932
 4096TIP3   OH212251   0.350   0.889   1.367  0.9458  0.0054  0.1242
 4096TIP3    H112252   0.419   0.862   1.306  0.3422 -0.7182 -0.2584
 4096TIP3    H212253   0.395   0.942   1.433  1.9106 -0.6737  0.0300
 4097TIP3   OH212254   0.090   0.386   5.583  0.2973 -0.2292  0.2304
 4097TIP3    H112255   0.002   0.361   5.610  0.5573 -1.3968  0.0615
 4097TIP3    H212256   0.146   0.359   5.656  0.3490  2.2231  1.1957
 4098TIP3   OH212257   3.726   4.746   0.162  0.1240 -0.3473  0.1497
 4098TIP3    H112258   3.718   4.691   0.085  1.7293  0.8710 -0.9505
 4098TIP3    H212259   3.649   4.804   0.158 -0.2874 -0.8923 -0.0027
 4099TIP3   OH212260   5.265   5.638   1.498  0.2159 -0.3465  0.1049
 4099TIP3    H112261   5.342   5.665   1.448  0.3202 -0.7067  0.0716
 4099TIP3    H212262   5.299   5.611   1.583 -0.0447  1.0579  0.6867
 4100TIP3   OH212263   4.622   4.099   3.330  0.0474  0.0587 -0.1426
 4100TIP3    H112264   4.631   4.009   3.362 -1.0691  0.4640  1.4742
 4100TIP3    H212265   4.712   4.128   3.315  0.7062 -0.2492  2.6048
 4101TIP3   OH212266   4.350   5.136   0.707 -0.5767 -0.1827  0.3623
 4101TIP3    H112267   4.262   5.170   0.698 -0.3914  0.3883  0.6573
 4101TIP3    H212268   4.348   5.051   0.663 -0.8593  0.5185 -1.0121
 4102TIP3   OH212269   2.218   2.200   2.318 -0.3690 -0.4389 -0.3456
 4102TIP3    H112270   2.158   2.125   2.324  0.1814 -0.8539 -0.0037
 4102TIP3    H212271   2.261   2.203   2.403  0.2636 -0.2774 -0.6697
 4103TIP3   OH212272   0.573   5.850   0.411 -0.0160 -0.7390 -0.1252
 4103TIP3    H112273   0.567   5.797   0.332 -1.8534 -0.0895 -0.4839
 4103TIP3    H212274   0.507   5.813   0.469 -2.6960  2.1196 -1.0680
 4104TIP3   OH212275   2.965   0.169   2.813 -0.1398  0.5339  0.1395
 4104TIP3    H112276   2.977   0.090   2.866  1.2423  0.1898 -0.6311
 4104TIP3    H212277   2.871   0.173   2.797 -0.0144 -2.9399 -2.6372
 4105TIP3   OH212278   5.213   2.131   0.137 -0.4354 -0.0853  0.4847
 4105TIP3    H112279   5.127   2.099   0.112  0.0084 -1.9032  1.1349
 4105TIP3    H212280   5.273   2.061   0.112  0.9365  1.3380 -0.3874
 4106TIP3   OH212281   2.337   5.866   5.811 -0.0120 -0.6083 -0.5481
 4106TIP3    H112282   2.276   5.897   5.744  0.3210  0.0662 -0.5476
 4106TIP3    H212283   2.424   5.885   5.775  0.1768 -0.6217 -0.1057
 4107TIP3   OH212284   4.243   3.978   5.114 -0.2054 -0.7235 -0.3434
 4107TIP3    H112285   4.315   3.955   5.174 -0.8933 -3.2468 -0.3539
 4107TIP3    H212286   4.223   4.069   5.135  1.9269 -0.4360  0.7686
 4108TIP3   OH212287   4.410   5.942   1.830 -0.1715  0.8425  0.4241
 4108TIP3    H112288   4.391   5.855   1.864 -2.0583  0.1714 -2.0496
 4108TIP3    H212289   4.467   5.926   1.754 -1.5100  1.5841 -0.7855
 4109TIP3   OH212290   1.022   0.732   5.573  0.3483 -0.3823  0.0279
 4109TIP3    H112291   0.937   0.771   5.593 -0.0964 -1.3524  0.0966
 4109TIP3    H212292   1.064   0.721   5.659  1.3485  1.8022 -0.1283
 4110TIP3   OH212293   0.205   1.160   4.616  0.0495  0.3306 -0.0744
 4110TIP3    H112294   0.232   1.068   4.611  2.7050  1.0832 -1.4031
 4110TIP3    H212295   0.192   1.176   4.709 -0.0070 -1.2660  0.2210
 4111TIP3   OH212296   1.749   4.083   3.853  0.6100 -0.0850  0.3273
 4111TIP3    H112297   1.664   4.050   3.825 -0.3529  2.1800  0.2999
 4111TIP3    H212298   1.757   4.054   3.944 -0.9173  0.8421  0.8082
 4112TIP3   OH212299   5.752   1.601   1.883 -0.1149  0.5520 -0.1751
 4112TIP3    H112300   5.842   1.570   1.878 -0.2947  0.1082 -0.8949
 4112TIP3    H212301   5.699   1.521   1.878 -0.5537  0.8375 -0.1680
 4113TIP3   OH212302   0.186   6.653   4.623  0.4058  0.0129  0.0895
 4113TIP3    H112303   0.112   6.598   4.596  1.0278 -0.2188 -1.2505
 4113TIP3    H212304   0.150   6.709   4.692 -0.6572 -1.0044  0.4103
 4114TIP3   OH212305   3.647   4.020   1.472 -0.2856  0.5015  0.1922
 4114TIP3    H112306   3.554   4.044   1.469 -1.2025 -1.9466  3.2258
 4114TIP3    H212307   3.684   4.077   1.540 -0.1456 -0.0469  0.5825
 4115TIP3   OH212308   4.560   5.095   4.650  0.0353 -0.7439  0.0545
 4115TIP3    H112309   4.481   5.048   4.677  1.3759 -2.5333  1.0373
 4115TIP3    H212310   4.592   5.047   4.574 -0.1970  0.4477 -0.8363
 4116TIP3   OH212311   1.635   1.924   1.953 -0.0508  0.2604  0.0564
 4116TIP3    H112312   1.701   1.955   2.015  0.9138 -1.9816  0.2511
 4116TIP3    H212313   1.647   1.980   1.876  1.4192  0.5419  0.4545
 4117TIP3   OH212314   5.650   5.638   5.869  0.3363 -0.4726  0.4442
 4117TIP3    H112315   5.584   5.597   5.924  0.0696  0.7644  1.0857
 4117TIP3    H212316   5.602   5.704   5.819  1.0283  0.2928  0.7595
 4118TIP3   OH212317   6.792   2.527   4.778 -0.2208  0.0219 -0.3323
 4118TIP3    H112318   6.872   2.556   4.733  0.6919 -1.2032  0.4459
 4118TIP3    H212319   6.768   2.602   4.833  0.8012  0.1588 -0.0435
 4119TIP3   OH212320   1.988   6.327   4.642  0.2653 -0.2483  0.4999
 4119TIP3    H112321   1.905   6.351   4.684  0.4949 -0.0098  0.8253
 4119TIP3    H212322   1.970   6.242   4.601  0.1602 -0.7088  1.4602
 4120TIP3   OH212323   5.882   1.815   1.490 -0.3279 -0.1524  0.1040
 4120TIP3    H112324   5.851   1.728   1.516 -0.8599 -0.7448 -2.2275
 4120TIP3    H212325   5.807   1.855   1.446 -0.5242  2.0969  2.2815
 4121TIP3   OH212326   2.440   0.034   1.180  0.0744 -0.1160  0.2521
 4121TIP3    H112327   2.352   0.062   1.153  0.9642  1.8680 -0.8106
 4121TIP3    H212328   2.487   0.116   1.197  1.1405 -1.1682  2.9136
 4122TIP3   OH212329   3.872   4.101   3.233 -0.0299  0.1253  0.0592
 4122TIP3    H112330   3.957   4.140   3.213 -0.2666  0.6666  0.0905
 4122TIP3    H212331   3.814   4.176   3.248 -0.7456 -0.2166 -0.9130
 4123TIP3   OH212332   3.943   2.264   4.124 -0.3375  0.6978 -0.3718
 4123TIP3    H112333   3.971   2.339   4.175  1.8581  0.9403 -1.7705
 4123TIP3    H212334   3.996   2.191   4.158 -2.1851 -0.2052  0.7347
 4124TIP3   OH212335   4.495   5.914   2.345  0.0624  0.1744 -0.2180
 4124TIP3    H112336   4.503   5.823   2.373 -1.5974 -0.5706 -1.9353
 4124TIP3    H212337   4.558   5.922   2.273 -0.0683  0.2425 -0.3262
 4125TIP3   OH212338   5.855   0.149   3.143 -0.3641 -0.6667  0.6345
 4125TIP3    H112339   5.869   0.208   3.069  0.2421 -1.4485  0.1149
 4125TIP3    H212340   5.913   0.182   3.211  0.5150 -1.0779  0.0998
 4126TIP3   OH212341   3.304   3.374   3.305  0.1163  0.1373 -0.3438
 4126TIP3    H112342   3.278   3.326   3.384 -0.2662  1.4145  0.3334
 4126TIP3    H212343   3.390   3.338   3.283 -1.3502 -3.0019 -1.6664
 4127TIP3   OH212344   6.480   6.548   0.361 -0.1300  0.1371  0.1000
 4127TIP3    H112345   6.400   6.503   0.388  0.1962 -0.4342  0.1442
 4127TIP3    H212346   6.454   6.603   0.287 -0.7580  0.6933  0.7264
 4128TIP3   OH212347   4.968   3.501   1.244  0.2279 -0.0967 -0.0731
 4128TIP3    H112348   4.917   3.582   1.248  0.5897  0.3778 -2.8665
 4128TIP3    H212349   5.051   3.522   1.287 -0.1755  0.5921  0.3757
 4129TIP3   OH212350   5.979   6.706   1.662 -0.0975  0.0121 -0.0726
 4129TIP3    H112351   5.997   6.721   1.755  0.8603 -0.0864 -0.2347
 4129TIP3    H212352   5.923   6.628   1.661 -0.4743  0.2708  0.4390
 4130TIP3   OH212353   1.576   1.450   3.900 -0.1815 -0.2433 -0.0760
 4130TIP3    H112354   1.609   1.537   3.921 -1.4406 -0.4535  3.6272
 4130TIP3    H212355   1.524   1.461   3.821  2.0485  1.6844 -1.3895
 4131TIP3   OH212356   6.826   6.128   3.326 -0.0217 -0.1837  0.5400
 4131TIP3    H112357   6.847   6.068   3.255 -0.3169  1.4012 -0.9549
 4131TIP3    H212358   6.730   6.123   3.333 -0.2697  1.5858 -1.0158
 4132TIP3   OH212359   4.366   3.820   0.809  0.2297 -0.3431 -0.2122
 4132TIP3    H112360   4.411   3.739   0.785 -0.0834 -0.0801 -1.8065
 4132TIP3    H212361   4.409   3.888   0.758 -0.5775  0.2441 -0.1287
 4133TIP3   OH212362   1.246   2.161   2.125 -0.3955  0.4033  0.4404
 4133TIP3    H112363   1.276   2.084   2.077 -0.6609  0.9654 -0.6495
 4133TIP3    H212364   1.320   2.184   2.183  0.9076  1.1234 -1.4159
 4134TIP3   OH212365   3.169   0.456   5.630 -0.1369  0.3725  0.0600
 4134TIP3    H112366   3.203   0.443   5.718 -2.0094 -0.4162  0.7223
 4134TIP3    H212367   3.130   0.543   5.631 -2.0284 -0.4008  0.7557
 4135TIP3   OH212368   0.733   0.883   2.985  0.0214 -0.4291 -0.2223
 4135TIP3    H112369   0.780   0.966   2.996  0.6516 -1.0192  2.4791
 4135TIP3    H212370   0.641   0.907   2.976  0.3588  0.6066 -0.9361
 4136TIP3   OH212371   5.490   5.186   0.573  0.1199  0.2241  0.1108
 4136TIP3    H112372   5.567   5.151   0.619  1.1769  0.5710 -1.2978
 4136TIP3    H212373   5.498   5.281   0.582 -0.8943  0.2337  1.0756
 4137TIP3   OH212374   5.614   5.480   2.181 -0.3539 -0.1951  0.7324
 4137TIP3    H112375   5.563   5.560   2.195 -0.5809  0.1514 -1.6509
 4137TIP3    H212376   5.703   5.511   2.164 -0.3124 -0.4924  0.3995
 4138TIP3   OH212377   2.653   6.380   1.021 -0.6243  0.6482 -0.2471
 4138TIP3    H112378   2.660   6.324   0.944  0.3476  1.5915 -0.8778
 4138TIP3    H212379   2.566   6.419   1.015 -1.2210 -0.5858  0.0832
 4139TIP3   OH212380   3.395   2.089   3.704 -0.5159  0.2492  0.3263
 4139TIP3    H112381   3.489   2.076   3.710 -0.7511 -1.6405  0.5804
 4139TIP3    H212382   3.376   2.157   3.769  0.3812 -1.0679  2.0392
 4140TIP3   OH212383   0.598   0.823   0.555  0.3022  0.4301 -0.1670
 4140TIP3    H112384   0.573   0.786   0.640  1.0531 -0.1444 -0.1892
 4140TIP3    H212385   0.593   0.918   0.567  2.3010  0.4233  1.1259
 4141TIP3   OH212386   0.496   6.361   4.835 -0.4553  0.1549 -0.0480
 4141TIP3    H112387   0.536   6.276   4.813 -1.0681 -0.0142 -0.5416
 4141TIP3    H212388   0.518   6.374   4.927 -1.8439 -1.3992  0.5625
 4142TIP3   OH212389   3.781   6.302   3.554 -0.1325 -0.2083  0.1197
 4142TIP3    H112390   3.718   6.318   3.484 -0.8801  1.1441  1.0290
 4142TIP3    H212391   3.782   6.207   3.564 -1.4828 -0.3137 -0.4318
 4143TIP3   OH212392   5.795   2.082   5.606 -0.3911  0.2018 -0.4917
 4143TIP3    H112393   5.845   2.113   5.530 -0.3531 -0.4046 -0.7172
 4143TIP3    H212394   5.846   2.112   5.681  0.1376 -0.1052 -0.7175
 4144TIP3   OH212395   5.738   0.141   1.600  0.0418  0.3686  0.1648
 4144TIP3    H112396   5.741   0.107   1.689  1.4797  1.5220  0.6013
 4144TIP3    H212397   5.649   0.176   1.590  0.3910  1.8784  1.8298
 4145TIP3   OH212398  -0.015   3.106   0.290  0.4848  0.2024 -0.2440
 4145TIP3    H112399   0.080   3.100   0.305  0.4515 -0.0071 -0.1186
 4145TIP3    H212400  -0.040   3.020   0.258  0.2769  0.1567  0.0450
 4146TIP3   OH212401   3.391   1.529   4.920 -0.3255  0.4507 -0.4411
 4146TIP3    H112402   3.400   1.468   4.846 -0.3716 -0.0723 -0.0199
 4146TIP3    H212403   3.353   1.476   4.990  1.3737  0.4585  0.5509
 4147TIP3   OH212404   3.355   0.893   3.352  0.2545 -0.0242 -0.0677
 4147TIP3    H112405   3.380   0.837   3.426 -2.3678  0.1356  1.0355
 4147TIP3    H212406   3.304   0.837   3.295  0.5715  0.3820 -0.7674
 4148TIP3   OH212407   4.911   5.563   1.769  0.3894 -0.1276  0.2322
 4148TIP3    H112408   4.945   5.531   1.852  1.5889 -0.0141 -0.1973
 4148TIP3    H212409   4.878   5.651   1.787  4.1537  1.5250 -0.1358
 4149TIP3   OH212410   0.965   2.384   4.707 -0.2340 -0.1543  0.3636
 4149TIP3    H112411   1.051   2.346   4.689  0.2923  1.0217  0.2816
 4149TIP3    H212412   0.982   2.447   4.777 -0.6696  1.4006 -0.8733
 4150TIP3   OH212413   0.670   1.162   0.030  0.2526 -0.6769 -0.0534
 4150TIP3    H112414   0.630   1.081   0.064  2.2943 -1.2643  1.1155
 4150TIP3    H212415   0.690   1.213   0.108 -0.7995  0.9165 -0.7706
 4151TIP3   OH212416   7.132   4.629   2.323  0.2852  0.0228 -0.1766
 4151TIP3    H112417   7.090   4.552   2.285  0.4144 -1.1961  1.9557
 4151TIP3    H212418   7.060   4.680   2.360  0.2960  0.3075 -0.5511
 4152TIP3   OH212419   3.762   0.743   4.146  0.4296 -0.1996  0.8780
 4152TIP3    H112420   3.676   0.707   4.167 -0.1638  0.0659 -0.9216
 4152TIP3    H212421   3.820   0.667   4.144 -0.2112 -0.6873  0.0375
 4153TIP3   OH212422   4.938   6.793   5.705  0.9328 -0.2594 -0.0313
 4153TIP3    H112423   4.935   6.837   5.620 -0.9226  0.4393  0.3715
 4153TIP3    H212424   4.935   6.700   5.683 -1.2752 -0.0714 -0.7110
 4154TIP3   OH212425   2.469   6.733   4.646  0.3952 -0.7710 -0.1299
 4154TIP3    H112426   2.461   6.728   4.742 -0.0255  0.6740 -0.0662
 4154TIP3    H212427   2.554   6.693   4.627  1.6775  1.1894  1.1098
 4155TIP3   OH212428   3.686   4.415   4.743 -0.4229  0.1737  0.4873
 4155TIP3    H112429   3.750   4.443   4.677 -0.5068  2.2835  1.2186
 4155TIP3    H212430   3.602   4.419   4.698 -0.1585 -1.9836 -0.2917
 4156TIP3   OH212431   4.756   3.259   4.553 -0.2973 -0.0377 -0.0637
 4156TIP3    H112432   4.773   3.203   4.629 -0.7590 -1.3490 -0.8813
 4156TIP3    H212433   4.669   3.233   4.523 -1.9049  3.2743  1.2637
 4157TIP3   OH212434   6.552   6.610   1.464 -0.0546  0.4003 -0.3996
 4157TIP3    H112435   6.606   6.690   1.460 -0.3784  0.8402  2.0781
 4157TIP3    H212436   6.479   6.628   1.405 -0.5213  2.3005  0.6590
 4158TIP3   OH212437   3.637   5.158   1.369  0.7219 -0.7073  0.3530
 4158TIP3    H112438   3.684   5.114   1.440 -0.2179 -1.4422  0.5399
 4158TIP3    H212439   3.546   5.129   1.379  0.2782  0.4533 -0.1721
 4159TIP3   OH212440   6.799   5.692   1.301  0.0848  0.5381  0.5964
 4159TIP3    H112441   6.767   5.617   1.251  0.9423  0.5726 -0.0041
 4159TIP3    H212442   6.878   5.661   1.344  1.8797  1.7641 -1.6176
 4160TIP3   OH212443   5.815   6.681   2.451  0.1354 -0.3473  0.1230
 4160TIP3    H112444   5.885   6.661   2.390 -0.7197 -2.9570 -0.1335
 4160TIP3    H212445   5.856   6.678   2.537  0.9727  1.5817 -0.1525
 4161TIP3   OH212446   5.274   6.250   0.468 -0.2922 -0.6455  0.3770
 4161TIP3    H112447   5.213   6.271   0.397 -0.1255 -0.1830  0.3626
 4161TIP3    H212448   5.360   6.247   0.426 -0.3693 -1.9148  0.2871
 4162TIP3   OH212449   4.151   2.704   4.125  0.1739 -0.3920  0.6104
 4162TIP3    H112450   4.129   2.709   4.032  1.4529  1.6799  0.3459
 4162TIP3    H212451   4.218   2.636   4.131  0.1498 -0.4715  0.0038
 4163TIP3   OH212452   6.846   3.326   1.537  0.2895  0.4137  0.6228
 4163TIP3    H112453   6.881   3.238   1.542 -1.1744 -0.1732  1.0007
 4163TIP3    H212454   6.828   3.350   1.628  0.4711  1.0255  0.5030
 4164TIP3   OH212455   1.934   6.075   2.975  0.2448 -0.5929  0.0910
 4164TIP3    H112456   1.956   5.992   3.017 -0.9709 -0.1702  1.6383
 4164TIP3    H212457   1.876   6.119   3.036 -0.5594  0.6463 -1.4791
 4165TIP3   OH212458   6.209   5.820   4.915  0.1357 -0.4740 -0.0503
 4165TIP3    H112459   6.125   5.855   4.885 -0.5294 -1.7950  0.2283
 4165TIP3    H212460   6.255   5.795   4.835  1.5420  2.8628 -0.4604
 4166TIP3   OH212461   5.233   0.715   0.675 -0.4629 -0.2891 -0.1751
 4166TIP3    H112462   5.270   0.720   0.763  0.7967 -0.9761 -0.6472
 4166TIP3    H212463   5.256   0.628   0.644  0.7775  0.5837 -1.8840
 4167TIP3   OH212464   4.821   0.703   4.002 -0.4097 -0.5723 -0.0378
 4167TIP3    H112465   4.913   0.717   4.027 -0.6933  0.4599  0.5141
 4167TIP3    H212466   4.824   0.634   3.936  0.7528 -0.6365  0.0574
 4168TIP3   OH212467   2.183   4.133   3.925 -0.6788  0.6037  0.2730
 4168TIP3    H112468   2.156   4.082   4.002  0.7204 -0.5817  0.0231
 4168TIP3    H212469   2.122   4.207   3.923 -1.0209  0.4394  2.2611
 4169TIP3   OH212470   5.551   3.743   3.554  0.6527 -0.1812 -0.1210
 4169TIP3    H112471   5.564   3.656   3.590 -0.5099 -0.6157 -0.7276
 4169TIP3    H212472   5.573   3.802   3.626  0.6542 -0.9802  0.5430
 4170TIP3   OH212473   5.617   0.269   4.966 -0.6414  0.4184  0.0244
 4170TIP3    H112474   5.524   0.271   4.945 -0.4197  0.0465 -1.0595
 4170TIP3    H212475   5.622   0.300   5.057 -1.6532  2.1857 -0.4633
 4171TIP3   OH212476   3.860   6.745   1.491  0.0409 -0.4633  0.1928
 4171TIP3    H112477   3.808   6.724   1.414 -0.4232  0.0733  0.3552
 4171TIP3    H212478   3.933   6.683   1.488 -1.0031 -1.7562  0.3801
 4172TIP3   OH212479   3.973   1.250   2.897 -0.3195  0.0438 -0.4752
 4172TIP3    H112480   3.950   1.267   2.806 -0.2408 -1.1538 -0.7297
 4172TIP3    H212481   3.927   1.319   2.946 -1.9496 -0.4526 -1.2368
 4173TIP3   OH212482   4.333   3.287   2.549 -0.3686  0.0289  0.2321
 4173TIP3    H112483   4.406   3.264   2.492  0.0589 -0.0976  0.8182
 4173TIP3    H212484   4.349   3.238   2.630 -1.4837 -0.5522  0.1151
 4174TIP3   OH212485   1.095   2.721   0.275  0.5331  0.2382  0.5566
 4174TIP3    H112486   1.082   2.628   0.257  1.6833  0.5760 -2.4927
 4174TIP3    H212487   1.007   2.758   0.277  0.1510 -0.5294 -0.8428
 4175TIP3   OH212488   5.385   0.604   5.594  0.0831 -0.1175 -0.9654
 4175TIP3    H112489   5.414   0.679   5.647  0.7234 -0.3913 -0.9220
 4175TIP3    H212490   5.361   0.643   5.510  2.3993 -0.0617 -1.6913
 4176TIP3   OH212491   0.311   5.467   1.609 -0.0550  0.1513  0.4871
 4176TIP3    H112492   0.253   5.438   1.539 -0.3074  1.4445  0.1457
 4176TIP3    H212493   0.259   5.529   1.659  0.3207 -0.3095  1.4852
 4177TIP3   OH212494   6.272   0.814   3.621 -0.4455 -0.2003 -0.0602
 4177TIP3    H112495   6.214   0.860   3.559 -0.5220 -0.9160 -0.5268
 4177TIP3    H212496   6.317   0.749   3.568 -1.7262 -1.9706  0.9212
 4178TIP3   OH212497   5.594   3.806   2.878 -0.6179 -0.4579 -0.6273
 4178TIP3    H112498   5.668   3.859   2.907 -0.7118 -0.3182 -0.6430
 4178TIP3    H212499   5.535   3.803   2.953 -0.8852 -0.0524 -0.8180
 4179TIP3   OH212500   0.859   0.215   1.771 -0.0329  0.0147  0.7308
 4179TIP3    H112501   0.852   0.126   1.737 -1.6476  0.3245  0.1706
 4179TIP3    H212502   0.810   0.212   1.853 -0.4573  0.4885  0.4938
 4180TIP3   OH212503   1.532   2.346   0.359  0.2691 -0.2064  0.3426
 4180TIP3    H112504   1.623   2.375   0.365  0.1011  0.3090  0.4300
 4180TIP3    H212505   1.481   2.418   0.395 -0.0168 -1.6573  3.1189
 4181TIP3   OH212506   2.638   0.266   0.235 -0.0104 -0.2254 -0.2254
 4181TIP3    H112507   2.702   0.225   0.293 -0.4656 -1.0900 -0.3156
 4181TIP3    H212508   2.612   0.346   0.281  0.0421 -0.6199  0.5180
 4182TIP3   OH212509   3.808   6.312   0.511 -0.7375  0.5925  0.3870
 4182TIP3    H112510   3.903   6.315   0.496 -0.9267  1.4942 -0.7675
 4182TIP3    H212511   3.772   6.371   0.445 -1.9729  1.7812  2.0656
 4183TIP3   OH212512   6.084   0.268   1.709  0.1300  0.6503  0.1802
 4183TIP3    H112513   6.045   0.234   1.629  0.5845  1.9518 -0.6194
 4183TIP3    H212514   6.120   0.353   1.684  1.3569  0.5459  1.4704
 4184TIP3   OH212515   3.036   2.748   0.801 -0.0332  0.1897 -0.5122
 4184TIP3    H112516   3.005   2.659   0.791  2.6471 -0.8541 -0.3852
 4184TIP3    H212517   3.013   2.791   0.718  0.0200 -1.0964 -1.2143
 4185TIP3   OH212518   4.523   4.628   4.247 -0.1950 -0.2830 -0.3606
 4185TIP3    H112519   4.591   4.695   4.248 -1.8853  1.5239  0.1302
 4185TIP3    H212520   4.559   4.556   4.299  0.8943  1.0541  0.8027
 4186TIP3   OH212521   2.553   3.058   5.539  0.2452  0.0903 -0.3915
 4186TIP3    H112522   2.521   2.970   5.519 -1.9999  1.0018 -1.1967
 4186TIP3    H212523   2.567   3.056   5.634 -0.5174 -0.9226 -0.2741
 4187TIP3   OH212524   6.372   4.448   3.685  0.4122 -0.5736  0.0044
 4187TIP3    H112525   6.312   4.414   3.619 -0.2900 -0.5042  0.5971
 4187TIP3    H212526   6.423   4.515   3.639  0.6074 -1.1986 -0.7111
 4188TIP3   OH212527   1.529   5.344   4.143 -0.6504  0.1082 -0.2794
 4188TIP3    H112528   1.522   5.437   4.120  0.4395  0.3568  0.3097
 4188TIP3    H212529   1.604   5.340   4.203 -1.2873 -1.0188  0.4729
 4189TIP3   OH212530   2.533   5.257   5.577  0.2538  0.9656  0.0832
 4189TIP3    H112531   2.618   5.238   5.539  0.1833  1.2772 -0.2374
 4189TIP3    H212532   2.533   5.352   5.591 -0.4554  1.1489 -0.9827
 4190TIP3   OH212533   6.263   5.591   4.236  0.0281  0.5013 -0.5107
 4190TIP3    H112534   6.207   5.524   4.197 -1.1257  1.2190 -0.1129
 4190TIP3    H212535   6.293   5.644   4.162 -3.0589  2.5565 -0.4474
 4191TIP3   OH212536   1.998   5.010   0.999  0.8899  0.6124  0.0169
 4191TIP3    H112537   2.040   5.002   0.913  1.4717 -0.7483  0.4130
 4191TIP3    H212538   2.067   4.992   1.062 -0.2028 -1.5498  0.6845
 4192TIP3   OH212539   6.833   4.065   3.984 -0.0760  0.6595 -0.2724
 4192TIP3    H112540   6.859   4.152   4.014 -0.8839  1.1769 -1.0139
 4192TIP3    H212541   6.774   4.033   4.052 -0.2349  0.9380 -0.2784
 4193TIP3   OH212542   0.345   1.027   2.434 -0.0291 -0.4902  0.0923
 4193TIP3    H112543   0.413   0.982   2.384 -0.7607 -2.5813  0.8655
 4193TIP3    H212544   0.353   1.119   2.409  2.6399 -0.7691 -0.3219
 4194TIP3   OH212545   2.454   4.990   3.193  0.4951  0.0805 -0.3618
 4194TIP3    H112546   2.392   4.994   3.120  0.7424 -0.2730 -0.5889
 4194TIP3    H212547   2.402   4.959   3.267  0.1863  0.6718 -0.3179
 4195TIP3   OH212548   4.342   6.287   4.614  0.5212 -0.2271 -0.3186
 4195TIP3    H112549   4.390   6.353   4.564  0.2562  0.3462  0.1712
 4195TIP3    H212550   4.397   6.209   4.609  1.8504  0.5887  0.7351
 4196TIP3   OH212551   5.561   5.266   1.852  0.4662 -0.1776  0.3337
 4196TIP3    H112552   5.612   5.218   1.917  1.3015  1.0072  0.5700
 4196TIP3    H212553   5.546   5.352   1.891 -0.9297 -0.1807 -0.1253
 4197TIP3   OH212554   6.052   0.137   4.046  0.6068 -0.1522  0.1141
 4197TIP3    H112555   5.994   0.187   3.989  0.5236  0.3392  0.6153
 4197TIP3    H212556   5.997   0.065   4.079  0.3930  0.0878  0.2853
 4198TIP3   OH212557   3.023   2.658   1.616  0.1344  0.1351 -0.1712
 4198TIP3    H112558   3.092   2.596   1.592  0.0234 -0.1262  0.1632
 4198TIP3    H212559   3.069   2.739   1.637  0.1784  0.6095 -1.9828
 4199TIP3   OH212560   0.149   1.376   4.916 -0.1581 -0.1820  0.0254
 4199TIP3    H112561   0.216   1.320   4.955 -0.6309  0.2565  1.5499
 4199TIP3    H212562   0.072   1.363   4.973 -0.8180  0.6384 -0.6684
 4200TIP3   OH212563   3.440   1.605   3.770  0.2060  0.5798  0.3722
 4200TIP3    H112564   3.493   1.654   3.708  0.9843 -0.9847 -0.2277
 4200TIP3    H212565   3.358   1.656   3.777 -0.2939  0.3409 -2.6309
 4201TIP3   OH212566   0.191   4.054   5.348 -0.2630 -0.2344 -0.2378
 4201TIP3    H112567   0.255   3.988   5.321 -0.4808  0.0132 -1.4177
 4201TIP3    H212568   0.228   4.137   5.318 -1.1846 -0.1044 -1.0785
 4202TIP3   OH212569   0.609   4.624   0.142  0.0506 -0.5075 -0.4062
 4202TIP3    H112570   0.645   4.677   0.071  0.7819  0.1576  0.4420
 4202TIP3    H212571   0.535   4.578   0.102  1.0683 -0.9578 -1.8650
 4203TIP3   OH212572   3.504   3.552   0.178  0.6131  0.1865  0.3021
 4203TIP3    H112573   3.525   3.592   0.262 -1.7820 -0.1144  1.1092
 4203TIP3    H212574   3.426   3.598   0.147 -0.1182 -1.4525 -0.4520
 4204TIP3   OH212575   2.528   5.546   5.767  0.8078 -0.3629 -0.1544
 4204TIP3    H112576   2.475   5.572   5.843  1.3712  0.5852 -0.0710
 4204TIP3    H212577   2.577   5.625   5.744 -0.1975 -0.2701 -2.2396
 4205TIP3   OH212578   6.442   1.926   0.340  0.0300 -0.4652  0.1142
 4205TIP3    H112579   6.503   1.997   0.358  0.1635 -0.8378  1.2686
 4205TIP3    H212580   6.478   1.881   0.264 -0.8025  1.4978 -1.5026
 4206TIP3   OH212581   1.663   6.401   0.868  0.2568 -0.0365 -0.2715
 4206TIP3    H112582   1.708   6.375   0.948 -0.9804 -0.8840  0.1793
 4206TIP3    H212583   1.718   6.469   0.830  1.8857 -0.9850  0.2777
 4207TIP3   OH212584   2.200   0.715   5.619  0.3228  0.2539  0.3968
 4207TIP3    H112585   2.216   0.637   5.565 -0.7845 -0.5431  1.1616
 4207TIP3    H212586   2.287   0.742   5.649  0.6732 -1.1948  0.7734
 4208TIP3   OH212587   5.501   1.474   1.161  0.1916 -0.1798  0.6491
 4208TIP3    H112588   5.419   1.444   1.123  0.2895  0.1811  0.1428
 4208TIP3    H212589   5.484   1.479   1.255 -0.4806  0.2540  0.5095
 4209TIP3   OH212590   5.563   5.135   1.100  0.2695 -0.0980 -0.0185
 4209TIP3    H112591   5.635   5.164   1.156  1.3823  0.0798 -1.4960
 4209TIP3    H212592   5.552   5.205   1.037 -0.8123 -0.3985 -0.1854
 4210TIP3   OH212593   3.315   5.409   2.271 -0.0289  0.1126 -0.0232
 4210TIP3    H112594   3.348   5.499   2.279 -2.5882  1.0222  1.5224
 4210TIP3    H212595   3.367   5.359   2.334  0.6212  0.7691 -0.0237
 4211TIP3   OH212596   7.185   2.100   2.391  0.0079 -0.9823 -0.2031
 4211TIP3    H112597   7.202   2.114   2.298  0.0199 -0.8152 -0.1764
 4211TIP3    H212598   7.092   2.079   2.396  0.0732 -1.3029 -0.2851
 4212TIP3   OH212599   3.488   2.166   3.242 -0.0841 -0.2753 -0.0793
 4212TIP3    H112600   3.463   2.086   3.289 -0.7773 -0.7859 -1.2563
 4212TIP3    H212601   3.533   2.219   3.307  0.9176 -1.8755  0.6028
 4213TIP3   OH212602   3.713   3.722   4.211 -0.7009  0.6513 -0.4851
 4213TIP3    H112603   3.658   3.646   4.230 -0.7077  0.3646 -1.5760
 4213TIP3    H212604   3.797   3.685   4.184  0.2568  1.0910  1.6932
 4214TIP3   OH212605   1.720   5.352   5.471 -0.3259  0.3230 -0.3794
 4214TIP3    H112606   1.646   5.410   5.454  1.9212  2.8087 -2.5717
 4214TIP3    H212607   1.769   5.397   5.540 -0.1215 -0.5798  0.0669
 4215TIP3   OH212608   1.592   2.266   3.892 -0.8186  0.4228  0.0127
 4215TIP3    H112609   1.541   2.217   3.829 -1.4747  1.6925 -0.4689
 4215TIP3    H212610   1.528   2.302   3.953 -0.3851  0.9209  0.1869
 4216TIP3   OH212611   0.539   2.290   4.779  0.4541 -0.0826 -0.1838
 4216TIP3    H112612   0.618   2.241   4.755  1.0563 -0.1811  1.7874
 4216TIP3    H212613   0.570   2.379   4.794 -0.0347  0.1498 -0.5405
 4217TIP3   OH212614   4.193   5.748   5.862 -0.2014 -0.4038  0.3728
 4217TIP3    H112615   4.199   5.798   5.780 -0.4079  0.2560  0.7465
 4217TIP3    H212616   4.154   5.664   5.837 -0.3004 -0.1910 -0.1998
 4218TIP3   OH212617   1.847   1.991   2.660 -0.2273 -0.1642 -0.0983
 4218TIP3    H112618   1.896   2.008   2.740  0.5314  1.9752 -0.9545
 4218TIP3    H212619   1.834   2.077   2.620 -1.1369 -1.0961 -1.9614
 4219TIP3   OH212620   3.506   0.696   1.104 -0.0581 -0.2102  0.3688
 4219TIP3    H112621   3.479   0.663   1.190  0.7741  1.0339  1.1262
 4219TIP3    H212622   3.527   0.788   1.119  1.2342 -0.2629 -0.9124
 4220TIP3   OH212623   3.600   3.228   2.137 -0.3509  0.0924  0.0701
 4220TIP3    H112624   3.687   3.208   2.170 -1.3531 -4.0861  0.8257
 4220TIP3    H212625   3.611   3.234   2.042  0.6252 -1.8055  0.0274
 4221TIP3   OH212626   4.475   2.186   3.113 -0.2367 -0.3525  0.3126
 4221TIP3    H112627   4.408   2.254   3.112  0.5735  0.4818 -1.1942
 4221TIP3    H212628   4.522   2.199   3.196 -0.5284  0.4950  0.3502
 4222TIP3   OH212629   2.745   4.709   5.850  0.1859 -0.0192  0.2968
 4222TIP3    H112630   2.735   4.800   5.822  0.3680 -0.1275 -0.1404
 4222TIP3    H212631   2.663   4.688   5.894  0.2599  0.4452  0.6672
 4223TIP3   OH212632   1.812   3.674   3.827 -0.3367 -0.3110 -0.3704
 4223TIP3    H112633   1.875   3.650   3.894  0.4595 -0.6692 -1.2286
 4223TIP3    H212634   1.790   3.592   3.783  1.4936  0.2412 -2.5315
 4224TIP3   OH212635   6.973   6.262   2.628 -0.2249 -0.6943  0.0338
 4224TIP3    H112636   7.031   6.232   2.557  1.3066 -1.0387  1.3614
 4224TIP3    H212637   6.899   6.202   2.625 -0.0606 -0.8749 -1.0867
 4225TIP3   OH212638   6.446   5.768   2.571 -0.0697  0.4051 -0.3488
 4225TIP3    H112639   6.464   5.818   2.492  1.6562 -0.7267 -0.7312
 4225TIP3    H212640   6.434   5.678   2.540  1.2840 -0.1689  0.7003
 4226TIP3   OH212641   7.047   0.681   3.610  0.6330  0.6362  0.1902
 4226TIP3    H112642   7.004   0.750   3.662 -0.6334  0.0329 -0.0129
 4226TIP3    H212643   7.074   0.616   3.674 -1.2701 -0.2898  0.1193
 4227TIP3   OH212644   3.260   0.493   0.410  0.3132  0.3095  0.2350
 4227TIP3    H112645   3.220   0.456   0.332  0.5727 -2.8529  1.4495
 4227TIP3    H212646   3.351   0.508   0.386  0.4568 -0.8973 -0.0602
 4228TIP3   OH212647   3.536   0.550   2.110  1.0627 -0.0413  0.1975
 4228TIP3    H112648   3.506   0.473   2.158  0.5140 -1.3106 -2.0295
 4228TIP3    H212649   3.455   0.597   2.089  1.2525  0.2306  0.0755
 4229TIP3   OH212650   5.566   6.752   2.920  0.7465  0.4381 -0.3143
 4229TIP3    H112651   5.598   6.827   2.970  1.9500 -2.2535  3.4312
 4229TIP3    H212652   5.473   6.744   2.945  1.4821 -1.2422  2.2987
 4230TIP3   OH212653   5.801   4.200   0.244  0.1603 -0.1911  0.3354
 4230TIP3    H112654   5.741   4.147   0.192  0.0690  0.2636 -0.0277
 4230TIP3    H212655   5.763   4.287   0.243 -0.5095 -0.4266  2.2147
 4231TIP3   OH212656   1.872   3.488   5.435 -0.2782  0.4618  0.4022
 4231TIP3    H112657   1.820   3.567   5.454 -1.2694 -0.0377 -0.1767
 4231TIP3    H212658   1.887   3.491   5.341  0.8282  0.6332  0.5731
 4232TIP3   OH212659   5.899   2.902   0.743 -0.1694  0.6074 -0.1445
 4232TIP3    H112660   5.941   2.946   0.817 -0.2021 -1.4756  1.1813
 4232TIP3    H212661   5.823   2.857   0.781  0.8107 -1.9779 -1.0295
 4233TIP3   OH212662   6.387   1.758   3.125 -0.1472  0.0495  0.0398
 4233TIP3    H112663   6.473   1.758   3.166  0.6948  1.5203 -1.6269
 4233TIP3    H212664   6.369   1.666   3.105  0.9123 -0.2923  0.6245
 4234TIP3   OH212665   1.223   2.378   3.131 -0.0788 -0.3273  0.4162
 4234TIP3    H112666   1.175   2.437   3.073  0.9793  0.4064  0.2505
 4234TIP3    H212667   1.176   2.382   3.214 -0.4372  0.1911  0.1952
 4235TIP3   OH212668   2.534   3.775   3.694  0.1151  0.3965  0.4273
 4235TIP3    H112669   2.511   3.693   3.738 -0.3152 -1.6090 -3.1212
 4235TIP3    H212670   2.454   3.800   3.648  1.1684  0.8587 -1.2479
 4236TIP3   OH212671   3.709   6.137   4.034 -0.0662  0.1965  0.0713
 4236TIP3    H112672   3.770   6.133   3.960 -0.8994  1.1294 -0.6889
 4236TIP3    H212673   3.730   6.059   4.086 -1.2574 -2.1086 -2.5716
 4237TIP3   OH212674   2.554   0.117   4.287 -0.1927  0.0196  0.0051
 4237TIP3    H112675   2.590   0.205   4.286 -0.6852  0.2352 -1.4220
 4237TIP3    H212676   2.459   0.129   4.291 -0.2330 -0.4790  0.8907
 4238TIP3   OH212677   4.098   2.051   5.824  0.0555 -0.8345 -0.1967
 4238TIP3    H112678   4.177   2.067   5.772  0.2996 -1.1411  0.0765
 4238TIP3    H212679   4.074   1.960   5.804  0.4961 -1.1583  0.6768
 4239TIP3   OH212680   3.756   4.169   0.699  0.2097 -0.2825 -0.2314
 4239TIP3    H112681   3.846   4.156   0.670  0.1337 -1.7683  0.1088
 4239TIP3    H212682   3.707   4.097   0.659 -0.3323 -1.0304  1.6375
 4240TIP3   OH212683   5.913   5.611   1.585  0.2881  0.0128  0.0333
 4240TIP3    H112684   5.975   5.677   1.615  0.2627 -0.1013  0.3491
 4240TIP3    H212685   5.896   5.558   1.663  1.5019 -1.3188 -0.5471
 4241TIP3   OH212686   7.075   1.289   2.008 -0.2626  0.5185  0.2906
 4241TIP3    H112687   7.088   1.194   2.007 -0.7335  0.4462  0.7904
 4241TIP3    H212688   7.011   1.304   2.077 -0.5805  1.1542 -0.1307
 4242TIP3   OH212689   5.842   0.135   1.346 -0.2392  0.1593  0.0105
 4242TIP3    H112690   5.784   0.139   1.422 -0.8048 -1.2622 -0.3141
 4242TIP3    H212691   5.793   0.178   1.276 -0.9038 -0.9417 -0.2337
 4243TIP3   OH212692   1.501   4.404   5.059 -0.3358  0.1254  0.5207
 4243TIP3    H112693   1.537   4.487   5.091 -0.0846 -0.3160  1.4132
 4243TIP3    H212694   1.567   4.370   5.000 -0.4602  0.5781  0.1119
 4244TIP3   OH212695   0.496   4.881   2.685  0.2437 -0.5957  0.0220
 4244TIP3    H112696   0.417   4.907   2.733  0.3703  1.6446 -0.8336
 4244TIP3    H212697   0.465   4.818   2.620 -0.5920 -0.7518  0.5555
 4245TIP3   OH212698   3.941   6.690   0.852  0.3518  0.6602 -0.5394
 4245TIP3    H112699   4.027   6.676   0.814 -0.4380  0.4260 -2.3675
 4245TIP3    H212700   3.948   6.658   0.942  1.6901 -0.9703 -1.1766
 4246TIP3   OH212701   5.780   1.344   0.816  0.1043 -0.5921  0.0996
 4246TIP3    H112702   5.760   1.349   0.722  1.5856  0.0533 -0.2183
 4246TIP3    H212703   5.731   1.415   0.856  0.8155  0.2481 -0.4764
 4247TIP3   OH212704   0.202   3.330   4.405  0.1859 -0.0054 -0.4732
 4247TIP3    H112705   0.173   3.353   4.317  0.0950 -1.0304 -0.7260
 4247TIP3    H212706   0.297   3.339   4.402  0.1802  0.0014 -0.6652
 4248TIP3   OH212707   6.703   2.443   3.376 -0.3496  0.5610  0.2210
 4248TIP3    H112708   6.672   2.354   3.387  0.6380  0.2177  0.3574
 4248TIP3    H212709   6.749   2.463   3.458  2.0403  0.0784 -0.8989
 4249TIP3   OH212710   4.225   5.869   2.315  0.2951  0.1699 -0.3751
 4249TIP3    H112711   4.210   5.919   2.235  0.4230  0.2560 -0.3440
 4249TIP3    H212712   4.312   5.894   2.344 -0.0576  0.7465  0.2270
 4250TIP3   OH212713   1.767   0.607   1.611 -0.4152 -0.2380 -0.1724
 4250TIP3    H112714   1.821   0.684   1.591 -0.2770 -0.2023  0.3241
 4250TIP3    H212715   1.677   0.642   1.616 -0.9020 -0.7058 -3.5436
 4251TIP3   OH212716   6.795   3.122   1.034  0.1185 -0.9230 -0.2844
 4251TIP3    H112717   6.801   3.154   1.123 -2.9966  0.8416 -0.5500
 4251TIP3    H212718   6.838   3.189   0.981 -1.2247 -0.0340 -0.3253
 4252TIP3   OH212719   2.612   2.787   1.337  0.1366  0.0400 -0.2646
 4252TIP3    H112720   2.585   2.700   1.307 -0.9821  0.7125 -1.2759
 4252TIP3    H212721   2.705   2.792   1.315  0.2035 -0.8830 -0.2268
 4253TIP3   OH212722   6.813   6.054   2.484  0.3461  0.0896  0.0245
 4253TIP3    H112723   6.749   6.071   2.415  0.9513  0.9661 -0.3425
 4253TIP3    H212724   6.802   5.962   2.506 -1.8285  0.4649  0.7684
 4254TIP3   OH212725   1.115   0.381   3.935  0.5681 -0.1726  0.0591
 4254TIP3    H112726   1.184   0.315   3.928  0.5372 -0.4942  2.2006
 4254TIP3    H212727   1.038   0.332   3.964  0.3828  0.6991  1.0858
 4255TIP3   OH212728   1.873   5.580   1.608  0.2972  0.1503  0.0735
 4255TIP3    H112729   1.812   5.627   1.665 -0.1535  0.3328 -0.5501
 4255TIP3    H212730   1.870   5.627   1.525  1.3796  0.2247  0.0652
 4256TIP3   OH212731   3.478   2.918   4.983  0.5961  0.5906 -0.7824
 4256TIP3    H112732   3.523   2.941   4.902  2.3438  1.2555  0.3074
 4256TIP3    H212733   3.533   2.955   5.052 -0.4930 -0.5114  0.7477
 4257TIP3   OH212734   0.090   2.624   0.774 -0.4422  0.1020 -0.3641
 4257TIP3    H112735   0.076   2.575   0.693  0.2274  2.5112 -2.0590
 4257TIP3    H212736   0.088   2.716   0.747 -0.1180  1.0032  2.3643
 4258TIP3   OH212737   2.665   3.385   4.262  0.1047 -0.1283 -0.4289
 4258TIP3    H112738   2.723   3.310   4.251 -0.0838 -0.2227 -0.8100
 4258TIP3    H212739   2.616   3.367   4.342  0.4275 -0.1641 -0.2378
 4259TIP3   OH212740   2.833   0.748   1.576  0.5858  0.3582 -0.3944
 4259TIP3    H112741   2.809   0.836   1.604  2.4001  0.3718  1.3671
 4259TIP3    H212742   2.778   0.690   1.628  1.7841  0.4452  1.0384
 4260TIP3   OH212743   2.198   2.077   4.969 -0.3188  0.1067  0.3265
 4260TIP3    H112744   2.130   2.068   4.902  0.0631 -1.3242  0.0990
 4260TIP3    H212745   2.166   2.022   5.041  0.0948  0.2696  0.6329
 4261TIP3   OH212746   4.762   5.842   3.167 -0.2072  0.3899 -0.2136
 4261TIP3    H112747   4.840   5.872   3.214 -0.5444 -0.4193  0.9102
 4261TIP3    H212748   4.707   5.919   3.157 -0.5535  0.4193  1.6017
 4262TIP3   OH212749   3.872   1.148   3.155 -0.5546  0.0120  0.4126
 4262TIP3    H112750   3.914   1.148   3.069  0.9109  0.8850  1.0950
 4262TIP3    H212751   3.816   1.071   3.154  0.4181 -0.7151 -0.8564
 4263TIP3   OH212752   3.547   0.526   4.231  0.3226  0.0316 -0.6549
 4263TIP3    H112753   3.465   0.567   4.207 -0.9327 -1.6028  0.6025
 4263TIP3    H212754   3.543   0.517   4.326  1.4743 -1.0135 -0.6704
 4264TIP3   OH212755   4.781   4.126   0.689  0.0188  0.1800  0.5040
 4264TIP3    H112756   4.863   4.176   0.691  1.1921 -1.4986 -1.5264
 4264TIP3    H212757   4.721   4.182   0.640  0.9444  0.1267 -0.7300
 4265TIP3   OH212758   1.489   6.334   1.414 -0.1286  0.3634 -0.3897
 4265TIP3    H112759   1.502   6.356   1.322  2.5314 -1.5442 -0.5737
 4265TIP3    H212760   1.577   6.333   1.451 -0.7898 -2.1696  1.3498
 4266TIP3   OH212761   4.849   2.180   1.250  0.0246  0.1466 -0.5351
 4266TIP3    H112762   4.870   2.112   1.185 -0.0917 -0.7850  0.3781
 4266TIP3    H212763   4.755   2.195   1.239  0.0479  0.1538 -0.7303
 4267TIP3   OH212764   3.504   5.193   5.525 -0.5567 -0.2456 -0.3895
 4267TIP3    H112765   3.440   5.256   5.492 -0.2162 -0.7627 -2.1652
 4267TIP3    H212766   3.485   5.113   5.476 -0.4482 -1.3077  1.2182
 4268TIP3   OH212767   4.738   6.587   0.213 -0.3889  0.2442 -0.8539
 4268TIP3    H112768   4.739   6.542   0.128  0.2747 -0.7707 -0.3363
 4268TIP3    H212769   4.824   6.569   0.250 -1.5446 -1.6437  1.1894
 4269TIP3   OH212770   4.825   0.788   5.667  0.0820  0.0806  0.1595
 4269TIP3    H112771   4.810   0.718   5.731 -1.3446  0.3831  0.1817
 4269TIP3    H212772   4.781   0.757   5.588 -1.2072  1.2567  0.3848
 4270TIP3   OH212773   0.303   5.144   1.512 -0.0787 -0.0490 -0.2052
 4270TIP3    H112774   0.213   5.117   1.532  0.0973 -1.5340 -1.2146
 4270TIP3    H212775   0.318   5.220   1.567 -1.0941 -1.2563  1.8559
 4271TIP3   OH212776   7.174   4.885   4.704 -0.6535  0.4169 -0.0198
 4271TIP3    H112777   7.175   4.977   4.731 -4.1159 -0.0309  2.3510
 4271TIP3    H212778   7.119   4.884   4.625  1.8534  0.5898 -1.9053
 4272TIP3   OH212779   1.560   4.351   2.610 -0.0987 -0.1361 -0.0901
 4272TIP3    H112780   1.525   4.301   2.683 -2.3521  0.7854 -0.4768
 4272TIP3    H212781   1.518   4.437   2.617  0.6712  0.4109 -1.6903
 4273TIP3   OH212782   5.188   1.210   3.183  0.2188 -0.1969 -0.1871
 4273TIP3    H112783   5.278   1.180   3.195  0.0394 -0.3529  0.9106
 4273TIP3    H212784   5.196   1.306   3.179  0.5750 -0.2749 -1.5871
 4274TIP3   OH212785   2.388   5.807   1.664 -0.0238  0.0666  0.2935
 4274TIP3    H112786   2.383   5.716   1.636  1.8346  0.0473 -0.1099
 4274TIP3    H212787   2.409   5.802   1.758  3.2645 -0.0651 -0.3142
 4275TIP3   OH212788   2.123   2.501   1.656  0.3475  0.5233 -0.1231
 4275TIP3    H112789   2.113   2.592   1.684  0.8429  0.5188  0.0855
 4275TIP3    H212790   2.216   2.482   1.670 -0.0677 -0.5462  1.4664
 4276TIP3   OH212791   6.798   0.290   4.817  0.2314 -0.3981 -0.3673
 4276TIP3    H112792   6.858   0.326   4.882 -0.8971 -0.5064  0.7846
 4276TIP3    H212793   6.849   0.285   4.737  1.0439  1.7430 -0.0349
 4277TIP3   OH212794   6.471   2.632   4.945 -0.3730  0.3801  0.2367
 4277TIP3    H112795   6.476   2.546   4.903 -0.7630  0.3286  0.2957
 4277TIP3    H212796   6.515   2.620   5.029 -1.4468 -0.0666  0.7436
 4278TIP3   OH212797   3.165   0.394   0.804  0.3964  0.4652  0.5162
 4278TIP3    H112798   3.181   0.300   0.793  2.2748  0.5726  1.9034
 4278TIP3    H212799   3.249   0.435   0.784 -0.5125  1.9294 -0.4916
 4279TIP3   OH212800   1.663   4.422   4.140  0.1580 -0.5067  0.5175
 4279TIP3    H112801   1.596   4.375   4.090  0.6520  0.3698 -1.0127
 4279TIP3    H212802   1.696   4.357   4.202 -1.5209 -1.1891  0.7622
 4280TIP3   OH212803   6.637   3.920   5.825  0.2364 -0.1755  0.3997
 4280TIP3    H112804   6.681   3.941   5.743 -0.2323 -0.6859  0.0143
 4280TIP3    H212805   6.549   3.892   5.799 -0.0332 -0.0072  1.0974
 4281TIP3   OH212806   0.313   4.969   1.999  0.2041  0.2773 -0.4090
 4281TIP3    H112807   0.329   4.881   2.033 -1.7095 -0.5168 -1.4702
 4281TIP3    H212808   0.291   5.021   2.077  0.1351 -0.4686  0.0772
 4282TIP3   OH212809   0.274   1.205   0.501 -0.1291 -0.1543  0.4043
 4282TIP3    H112810   0.347   1.262   0.524  0.5873 -1.1957  0.7723
 4282TIP3    H212811   0.256   1.225   0.409 -1.8863  2.8012  1.2698
 4283TIP3   OH212812   2.192   4.084   3.164 -0.1076  0.2420  0.2622
 4283TIP3    H112813   2.140   4.077   3.244  1.8282 -1.3239  1.4571
 4283TIP3    H212814   2.151   4.021   3.104  0.6588 -1.3572  1.3684
 4284TIP3   OH212815   4.673   1.838   3.865 -0.7728  0.3291 -0.6109
 4284TIP3    H112816   4.583   1.806   3.868 -0.2039 -1.2703  0.8360
 4284TIP3    H212817   4.711   1.798   3.787 -0.8981 -0.2002 -0.4021
 4285TIP3   OH212818   3.478   2.570   3.909 -0.1444  0.1973 -0.7191
 4285TIP3    H112819   3.541   2.516   3.955 -0.4325  1.4952  1.3258
 4285TIP3    H212820   3.529   2.641   3.871 -0.2298  0.7138  0.1082
 4286TIP3   OH212821   0.099   5.657   5.366 -0.3167 -0.1969 -0.6621
 4286TIP3    H112822   0.117   5.710   5.288  0.5703  0.8732  0.2306
 4286TIP3    H212823   0.005   5.641   5.363 -0.3968  0.3726 -1.6196
 4287TIP3   OH212824   6.154   3.201   1.392  0.2846 -0.1865 -0.0519
 4287TIP3    H112825   6.185   3.227   1.479  0.8462  4.2500 -1.3325
 4287TIP3    H212826   6.229   3.214   1.334 -0.4914 -1.5891 -1.4425
 4288TIP3   OH212827   5.494   4.139   0.446 -0.3527  0.2292  0.3293
 4288TIP3    H112828   5.517   4.100   0.362  0.2545 -1.8311  1.3729
 4288TIP3    H212829   5.398   4.134   0.449 -0.3624  0.0858 -0.1415
 4289TIP3   OH212830   1.247   4.397   1.876 -0.2593 -0.1598 -0.0325
 4289TIP3    H112831   1.319   4.334   1.880 -0.2062 -0.2470 -1.6817
 4289TIP3    H212832   1.183   4.357   1.818 -0.1868  1.3298 -1.2013
 4290TIP3   OH212833   6.269   1.343   5.624 -0.3929  0.4992  0.1774
 4290TIP3    H112834   6.247   1.251   5.612  0.0567  0.1660  1.7097
 4290TIP3    H212835   6.327   1.364   5.551 -2.5703  0.3460 -1.7376
 4291TIP3   OH212836   6.886   2.738   2.482  0.4910  0.1709 -0.3547
 4291TIP3    H112837   6.838   2.744   2.399 -0.4012 -2.5472 -0.1472
 4291TIP3    H212838   6.817   2.729   2.548  1.1797  2.5329  0.7870
 4292TIP3   OH212839   5.150   2.026   3.040  0.1980  0.1280 -0.3173
 4292TIP3    H112840   5.078   2.019   3.102 -1.6422 -1.1570 -2.4385
 4292TIP3    H212841   5.191   1.940   3.040 -2.5652 -1.4365 -3.7955
 4293TIP3   OH212842   1.154   3.612   1.333 -0.2141 -0.2275  0.2546
 4293TIP3    H112843   1.228   3.673   1.341 -0.3436  0.3756 -2.2327
 4293TIP3    H212844   1.077   3.664   1.356 -0.1480  0.0426 -0.1255
 4294TIP3   OH212845   5.331   1.865   0.835 -0.5809  0.3415 -0.4667
 4294TIP3    H112846   5.357   1.921   0.762 -0.5461 -1.6905 -2.0979
 4294TIP3    H212847   5.267   1.804   0.798 -0.4619 -0.8499  1.1566
 4295TIP3   OH212848   3.752   3.121   2.437 -0.3441  0.5318  0.4412
 4295TIP3    H112849   3.731   3.210   2.463  0.6420  0.5416  1.2682
 4295TIP3    H212850   3.844   3.110   2.461 -0.5334 -0.8032  0.6354
 4296TIP3   OH212851   6.061   0.281   2.284 -0.7368 -0.6334  0.9124
 4296TIP3    H112852   6.138   0.245   2.329  0.0227  1.5899  1.5006
 4296TIP3    H212853   6.075   0.260   2.192 -1.2654 -3.3903  1.3795
 4297TIP3   OH212854   2.695   2.093   2.723  0.2047  0.7564 -0.3320
 4297TIP3    H112855   2.716   2.161   2.787 -0.6109  0.3637  0.3818
 4297TIP3    H212856   2.604   2.069   2.743  0.1974  0.0712 -1.1341
 4298TIP3   OH212857   3.032   3.471   2.642 -0.2313 -0.4179  0.7174
 4298TIP3    H112858   2.938   3.458   2.632 -0.2366 -0.3067  0.6177
 4298TIP3    H212859   3.056   3.417   2.717 -0.5248  0.2279  1.2878
 4299TIP3   OH212860   5.504   0.585   4.842 -0.2046 -0.0484  0.2297
 4299TIP3    H112861   5.428   0.614   4.792 -0.7950 -0.8160  0.6559
 4299TIP3    H212862   5.480   0.497   4.873  0.7657 -0.2108  0.5574
 4300TIP3   OH212863   0.907   5.387   4.669 -0.2776  0.2237 -0.0473
 4300TIP3    H112864   0.971   5.317   4.657  1.7604  2.1164 -1.2113
 4300TIP3    H212865   0.915   5.412   4.761  0.9360  0.6419 -0.2527
 4301TIP3   OH212866   2.078   0.563   5.043 -0.3540  0.0271  0.1264
 4301TIP3    H112867   2.109   0.523   4.962 -1.5374 -0.2023 -0.2340
 4301TIP3    H212868   1.997   0.516   5.063  0.8897 -1.2845  2.5285
 4302TIP3   OH212869   6.488   4.745   2.353  0.5044  0.3666  0.5101
 4302TIP3    H112870   6.493   4.679   2.422  0.2509  0.2609  0.4315
 4302TIP3    H212871   6.410   4.719   2.302  1.4711 -0.3700 -0.6548
 4303TIP3   OH212872   5.485   0.930   0.184  0.0905 -0.1559 -0.1862
 4303TIP3    H112873   5.400   0.966   0.161  0.6559  1.4666  0.1592
 4303TIP3    H212874   5.542   1.006   0.196  1.7778 -1.2022 -1.0690
 4304TIP3   OH212875   6.793   0.794   1.423 -0.2225 -0.0999 -0.4244
 4304TIP3    H112876   6.885   0.810   1.446 -0.9007  0.8490  1.9362
 4304TIP3    H212877   6.793   0.788   1.328  2.3759 -0.7763 -0.4739
 4305TIP3   OH212878   1.259   1.073   2.815  0.4598  0.2800 -0.3387
 4305TIP3    H112879   1.290   0.986   2.788 -1.4196  0.0586 -1.9926
 4305TIP3    H212880   1.230   1.061   2.905  0.8729 -0.6281 -0.3102
 4306TIP3   OH212881   7.163   0.547   5.051 -0.1246  0.0193  0.2110
 4306TIP3    H112882   7.232   0.602   5.013  0.3188 -0.2058  0.6862
 4306TIP3    H212883   7.094   0.608   5.075  0.6422  0.4660  1.3567
 4307TIP3   OH212884   0.648   6.790   2.481 -0.6787 -0.4856  0.0884
 4307TIP3    H112885   0.663   6.704   2.443 -1.1633  0.1380 -1.5854
 4307TIP3    H212886   0.564   6.818   2.445 -0.4888  0.7284  0.5306
 4308TIP3   OH212887   0.360   0.560   1.318 -0.0521  0.4506  0.4896
 4308TIP3    H112888   0.363   0.468   1.289  0.6340  0.3806  0.7483
 4308TIP3    H212889   0.326   0.556   1.407  1.1304  0.3039  0.9642
 4309TIP3   OH212890   4.841   4.712   2.436  0.6560  0.4598  0.5698
 4309TIP3    H112891   4.859   4.619   2.418  0.0657  0.4121  0.2047
 4309TIP3    H212892   4.801   4.712   2.523  0.6393  0.3714  0.5625
 4310TIP3   OH212893   3.286   3.178   3.082  0.3457  0.2862  0.5452
 4310TIP3    H112894   3.365   3.208   3.128  0.8428 -0.2079  0.0428
 4310TIP3    H212895   3.221   3.168   3.151  0.3494  1.8586  0.8065
 4311TIP3   OH212896   2.083   3.648   3.705  0.1517  0.4819 -0.1590
 4311TIP3    H112897   2.076   3.744   3.707 -0.9552  0.4372 -0.7971
 4311TIP3    H212898   2.138   3.626   3.781 -1.1994  1.5073  1.1785
 4312TIP3   OH212899   3.858   5.990   4.228 -0.4112 -0.1760 -0.2763
 4312TIP3    H112900   3.843   6.078   4.263  4.3962  0.2595  1.5917
 4312TIP3    H212901   3.862   5.934   4.306  0.6048 -1.2018 -1.0329
 4313TIP3   OH212902   2.539   6.506   2.212  0.1059  0.6731 -0.0246
 4313TIP3    H112903   2.508   6.427   2.169 -1.3168 -0.4027  2.6843
 4313TIP3    H212904   2.459   6.555   2.233  0.6736  1.0311  1.4645
 4314TIP3   OH212905   1.953   3.770   1.173 -0.0363  0.4556 -0.4011
 4314TIP3    H112906   1.930   3.752   1.264  1.8104 -0.1566 -0.0055
 4314TIP3    H212907   1.972   3.864   1.171  3.9090 -0.1255  0.9283
 4315TIP3   OH212908   5.370   4.633   0.897 -0.2933  0.4667 -0.0187
 4315TIP3    H112909   5.447   4.686   0.878 -0.4013  1.5121  2.1912
 4315TIP3    H212910   5.402   4.564   0.955 -0.9183  0.6686  0.5830
 4316TIP3   OH212911   5.405   6.615   0.291  0.0964 -0.0989 -0.5909
 4316TIP3    H112912   5.327   6.580   0.249  0.5628 -1.4045 -0.4131
 4316TIP3    H212913   5.373   6.654   0.373 -0.3824 -0.4804 -0.5942
 4317TIP3   OH212914   0.338   6.515   3.994  0.0267  0.3141  0.1711
 4317TIP3    H112915   0.245   6.524   4.012  0.2343  1.2508  0.8590
 4317TIP3    H212916   0.346   6.523   3.899 -0.5661  0.4463  0.1322
 4318TIP3   OH212917   3.283   4.487   4.967  0.2742 -0.5710 -0.3179
 4318TIP3    H112918   3.263   4.571   5.007  1.3889 -0.1536 -0.6041
 4318TIP3    H212919   3.370   4.465   5.000  0.0938 -1.4971 -0.4316
 4319TIP3   OH212920   6.853   1.431   1.614  0.2830  0.5964 -0.4903
 4319TIP3    H112921   6.761   1.446   1.637  0.1229 -0.7167 -0.1916
 4319TIP3    H212922   6.902   1.458   1.693  0.2814  2.3255 -1.0259
 4320TIP3   OH212923   0.061   6.680   3.850 -0.4508  0.2104 -0.6522
 4320TIP3    H112924   0.133   6.654   3.792 -1.7586  0.6075 -2.5335
 4320TIP3    H212925   0.059   6.611   3.917  0.8799 -0.4699 -1.2577
 4321TIP3   OH212926   2.828   0.726   3.916 -0.0332 -0.3103  0.2060
 4321TIP3    H112927   2.741   0.745   3.881 -1.2784 -0.1749  3.1022
 4321TIP3    H212928   2.875   0.686   3.843 -1.3170  2.7234 -2.5125
 4322TIP3   OH212929   4.711   5.463   0.777 -0.3127  0.5740  0.3187
 4322TIP3    H112930   4.761   5.414   0.843  0.0793  2.2465  1.3374
 4322TIP3    H212931   4.621   5.433   0.789 -0.2342  0.7653  1.5697
 4323TIP3   OH212932   0.990   2.596   5.812 -0.3749 -0.5330 -0.5570
 4323TIP3    H112933   1.054   2.662   5.786 -1.1569  0.3583 -0.2802
 4323TIP3    H212934   0.983   2.606   5.907 -1.1039 -0.4407 -0.6143
 4324TIP3   OH212935   1.356   5.953   5.067 -0.0391  0.3419 -0.3564
 4324TIP3    H112936   1.275   5.968   5.019  1.2152  0.4226 -2.6115
 4324TIP3    H212937   1.418   6.014   5.028  1.2458 -0.0703  0.9559
 4325TIP3   OH212938   3.421   3.278   0.758 -0.8384  0.1050  0.5607
 4325TIP3    H112939   3.490   3.215   0.777  0.9722  1.4859 -1.0295
 4325TIP3    H212940   3.460   3.363   0.778 -1.5753  1.0160 -1.5477
 4326TIP3   OH212941   5.510   1.990   3.782 -0.1820 -0.4663  0.5028
 4326TIP3    H112942   5.552   1.940   3.852 -1.5748 -0.8097  1.1386
 4326TIP3    H212943   5.458   1.925   3.735 -2.2319  0.3450  1.5021
 4327TIP3   OH212944   5.825   4.057   5.602  0.3667  0.4524  0.4873
 4327TIP3    H112945   5.862   4.115   5.668 -1.6645  2.9814 -0.4286
 4327TIP3    H212946   5.740   4.095   5.581  1.3702  0.6961 -4.5512
 4328TIP3   OH212947   6.354   2.261   4.092  0.6835 -0.3089 -0.7486
 4328TIP3    H112948   6.314   2.330   4.038  1.2890  0.4132 -0.2995
 4328TIP3    H212949   6.311   2.269   4.177  0.4920 -0.7333 -0.8043
 4329TIP3   OH212950   0.380   2.358   4.492  0.1615  0.5746 -0.0494
 4329TIP3    H112951   0.443   2.316   4.551 -0.9978 -1.8330 -0.4061
 4329TIP3    H212952   0.416   2.344   4.404 -0.9701 -1.1545 -0.2836
 4330TIP3   OH212953   5.133   5.375   1.505  0.4898 -0.0258  0.6169
 4330TIP3    H112954   5.197   5.442   1.530 -1.0148  1.1120  1.5722
 4330TIP3    H212955   5.107   5.334   1.587 -0.4346 -0.0832  0.3030
 4331TIP3   OH212956   2.264   3.380   2.982 -0.0231 -0.1217 -0.4403
 4331TIP3    H112957   2.295   3.356   2.894 -0.7446 -0.5178 -0.5996
 4331TIP3    H212958   2.210   3.306   3.009 -1.2738  0.7638 -0.4154
 4332TIP3   OH212959   0.896   5.931   2.429 -0.3380 -0.5704 -0.4270
 4332TIP3    H112960   0.837   6.005   2.446  0.4127 -0.4078  1.7604
 4332TIP3    H212961   0.840   5.854   2.437 -0.7288 -0.3359 -0.8044
 4333TIP3   OH212962   1.696   1.636   2.756 -0.2005  0.1373 -0.5552
 4333TIP3    H112963   1.689   1.550   2.797 -0.1347  0.4996  0.2353
 4333TIP3    H212964   1.633   1.690   2.803  1.2332  1.0513  0.4064
 4334TIP3   OH212965   0.866   5.356   3.448 -0.0752 -0.3993 -0.2441
 4334TIP3    H112966   0.845   5.325   3.360  0.5113 -1.0965 -0.1498
 4334TIP3    H212967   0.953   5.320   3.465  1.2129  2.3391 -0.6139
 4335TIP3   OH212968   5.883   5.192   4.253 -0.0948  0.0763 -0.2830
 4335TIP3    H112969   5.949   5.202   4.322  0.6340  0.2124 -0.9838
 4335TIP3    H212970   5.856   5.100   4.259  1.0358 -0.3136 -0.7314
 4336TIP3   OH212971   2.200   1.056   5.362 -0.1130  0.0845  0.0507
 4336TIP3    H112972   2.202   1.143   5.400 -1.0204 -0.6584  1.9032
 4336TIP3    H212973   2.115   1.020   5.389 -0.1123 -1.0886 -1.3669
 4337TIP3   OH212974   3.821   0.927   0.510 -0.3660 -0.2406  0.1283
 4337TIP3    H112975   3.729   0.949   0.494  0.0982  1.1848 -0.8607
 4337TIP3    H212976   3.831   0.932   0.605 -0.5892  3.0779  0.0932
 4338TIP3   OH212977   2.158   4.193   2.561 -0.2178 -0.3070 -0.4147
 4338TIP3    H112978   2.112   4.113   2.535 -2.0221  0.9407 -1.3580
 4338TIP3    H212979   2.243   4.187   2.518 -0.6956 -1.2649 -1.2846
 4339TIP3   OH212980   0.942   4.969   1.718  0.8560  0.5616  0.0229
 4339TIP3    H112981   0.868   4.939   1.664  0.3946  1.1604  0.3164
 4339TIP3    H212982   0.976   5.046   1.671  2.2334 -0.5482 -0.8943
 4340TIP3   OH212983   1.131   1.749   2.001  0.2641 -0.2497 -0.4655
 4340TIP3    H112984   1.127   1.831   1.952  1.9764  0.5394  0.6458
 4340TIP3    H212985   1.193   1.695   1.952  1.0399  0.0801  0.1321
 4341TIP3   OH212986   2.735   2.187   5.512 -0.3730  0.0961 -0.2858
 4341TIP3    H112987   2.755   2.160   5.602  0.2314  0.0663 -0.4279
 4341TIP3    H212988   2.755   2.281   5.510 -1.5661  0.3831 -0.0578
 4342TIP3   OH212989   2.628   4.199   0.198 -0.1022  0.2518  0.5916
 4342TIP3    H112990   2.541   4.237   0.216 -0.8654 -1.0794 -0.1053
 4342TIP3    H212991   2.609   4.115   0.156  1.5435  0.3182 -0.3863
 4343TIP3   OH212992   1.715   3.511   0.864 -0.1844  0.1495 -0.8358
 4343TIP3    H112993   1.797   3.512   0.814 -0.3651 -0.6661 -1.1596
 4343TIP3    H212994   1.685   3.602   0.863  0.2233  0.2811 -1.5435
 4344TIP3   OH212995   6.002   3.815   4.830 -0.3164 -0.4811 -0.1901
 4344TIP3    H112996   6.077   3.864   4.798 -2.0119  2.1340 -0.4001
 4344TIP3    H212997   6.018   3.806   4.924  0.2477  0.0373 -0.2310
 4345TIP3   OH212998   2.031   1.606   3.727  0.0783 -0.1991  0.1501
 4345TIP3    H112999   1.940   1.580   3.710  0.3576 -1.6553  0.7650
 4345TIP3    H213000   2.035   1.697   3.698 -0.9742 -0.7712 -2.0633
 4346TIP3   OH213001   1.799   6.459   0.211  0.1140  0.5081 -0.0764
 4346TIP3    H113002   1.872   6.511   0.177  3.0879 -2.1864  1.6054
 4346TIP3    H213003   1.804   6.471   0.306 -0.6185 -0.9478  0.1694
 4347TIP3   OH213004   3.940   5.647   5.234  0.1076 -0.0975  0.7606
 4347TIP3    H113005   4.014   5.591   5.257 -0.3199 -0.9917 -0.0151
 4347TIP3    H213006   3.862   5.597   5.257 -0.2903 -0.1161 -0.5297
 4348TIP3   OH213007   3.933   2.366   5.584  0.6307  0.0310  0.0793
 4348TIP3    H113008   3.883   2.398   5.509  1.8855 -1.7394 -1.6291
 4348TIP3    H213009   3.872   2.372   5.658 -0.8699  1.2565 -1.1817
 4349TIP3   OH213010   5.412   4.347   0.222  0.0343  0.2149  0.0636
 4349TIP3    H113011   5.407   4.254   0.243  0.8981 -0.1004 -1.0036
 4349TIP3    H213012   5.498   4.374   0.255  1.0235 -0.0840 -2.0901
 4350TIP3   OH213013   0.121   0.156   3.923  0.0467 -0.1335 -0.4880
 4350TIP3    H113014   0.053   0.105   3.967  0.3942 -0.3373 -0.1819
 4350TIP3    H213015   0.166   0.093   3.867 -0.2549  0.0796 -0.9708
 4351TIP3   OH213016   6.957   6.758   3.818 -0.4521 -0.3050  0.1258
 4351TIP3    H113017   6.883   6.781   3.763  0.5070 -0.3112 -1.2160
 4351TIP3    H213018   6.918   6.722   3.898 -1.8806 -2.0496 -1.2808
 4352TIP3   OH213019   4.328   1.391   4.044 -0.1100  0.2005 -0.3144
 4352TIP3    H113020   4.234   1.408   4.031 -0.8900 -1.4501  2.2645
 4352TIP3    H213021   4.334   1.296   4.047  1.5169  0.2972  0.3589
 4353TIP3   OH213022   6.445   6.134   3.731  0.0173 -0.3058  0.6966
 4353TIP3    H113023   6.484   6.047   3.740  0.1607 -0.3857 -0.5208
 4353TIP3    H213024   6.519   6.193   3.721 -0.0998 -0.1287  0.8598
 4354TIP3   OH213025   4.158   5.449   4.832 -0.0999  0.7122  0.0858
 4354TIP3    H113026   4.247   5.416   4.844 -1.2847 -2.9882 -0.1309
 4354TIP3    H213027   4.141   5.438   4.738 -1.4670 -0.7982  0.4651
 4355TIP3   OH213028   4.014   2.612   3.893  0.2549 -0.0093  0.4296
 4355TIP3    H113029   3.972   2.679   3.839  0.5128  0.2166  0.5022
 4355TIP3    H213030   3.956   2.537   3.889  0.3120 -0.0192 -0.2194
 4356TIP3   OH213031   2.770   2.498   1.054  0.3093 -0.7450  0.5494
 4356TIP3    H113032   2.755   2.457   1.139 -1.0286 -1.0658  0.1836
 4356TIP3    H213033   2.686   2.537   1.031 -0.1070 -2.7171 -1.6901
 4357TIP3   OH213034   6.333   1.299   3.994 -0.0251 -0.2346 -0.2548
 4357TIP3    H113035   6.336   1.204   4.006 -1.0363 -0.1855  0.5134
 4357TIP3    H213036   6.424   1.326   3.993  0.3753 -1.4164 -2.3876
 4358TIP3   OH213037   3.209   2.410   3.310  0.3527 -0.3065 -0.4722
 4358TIP3    H113038   3.294   2.449   3.286  0.2381  1.5670  1.7700
 4358TIP3    H213039   3.225   2.365   3.393 -1.1215  1.6684  1.0019
 4359TIP3   OH213040   0.855   2.290   2.678 -0.4105  0.4597 -0.2639
 4359TIP3    H113041   0.836   2.382   2.698 -0.2820  1.1457 -2.9210
 4359TIP3    H213042   0.938   2.293   2.631 -0.3082 -1.0706 -0.2193
 4360TIP3   OH213043   4.099   5.909   3.532  0.4294  0.1965  0.0653
 4360TIP3    H113044   4.100   5.983   3.471 -0.0818  0.0991 -0.0660
 4360TIP3    H213045   4.161   5.846   3.494  0.1963  0.1817 -0.3029
 4361TIP3   OH213046   3.496   6.148   4.203  0.1630  0.5564  0.1780
 4361TIP3    H113047   3.430   6.115   4.142 -0.6415  2.5501 -0.1058
 4361TIP3    H213048   3.578   6.143   4.154 -0.0439 -0.3144 -0.0972
 4362TIP3   OH213049   4.122   4.171   2.582 -0.5867 -0.1435  0.7124
 4362TIP3    H113050   4.081   4.207   2.504  1.8256  0.1043 -0.5235
 4362TIP3    H213051   4.110   4.077   2.575  0.5557 -0.2171 -0.5642
 4363TIP3   OH213052   3.635   4.448   2.473 -0.1082  0.2058  0.1079
 4363TIP3    H113053   3.554   4.413   2.509  0.2712 -0.0937  0.6871
 4363TIP3    H213054   3.654   4.391   2.398 -0.0555 -0.1685  0.4039
 4364TIP3   OH213055   5.003   2.411   4.854 -0.3082 -0.4874  0.4546
 4364TIP3    H113056   5.042   2.343   4.800 -0.7481  0.3620 -1.0034
 4364TIP3    H213057   4.970   2.365   4.931  2.1602 -1.4455  1.0287
 4365TIP3   OH213058   0.492   6.589   4.690  0.0421 -0.1168 -0.0750
 4365TIP3    H113059   0.473   6.539   4.770 -0.9234  0.6367  0.1894
 4365TIP3    H213060   0.412   6.639   4.674  0.3778  0.0615 -1.2874
 4366TIP3   OH213061   2.941   4.478   2.226  0.4285  0.5372  0.5359
 4366TIP3    H113062   2.880   4.534   2.273  1.4416  1.1334  1.1827
 4366TIP3    H213063   3.011   4.537   2.198 -0.1074  0.1972 -1.7244
 4367TIP3   OH213064   2.461   1.186   1.955  0.6063  0.5451 -0.4679
 4367TIP3    H113065   2.373   1.153   1.976  1.2929 -0.1878  1.4385
 4367TIP3    H213066   2.487   1.135   1.878 -0.1314 -0.1607 -0.2744
 4368TIP3   OH213067   3.921   4.884   5.149  0.1358 -0.7932  0.1633
 4368TIP3    H113068   3.938   4.863   5.058  2.2629 -0.4404  0.4266
 4368TIP3    H213069   3.846   4.944   5.146  2.3112  2.1146 -1.7346
 4369TIP3   OH213070   1.306   3.389   5.265  0.4208 -0.3841 -0.5185
 4369TIP3    H113071   1.267   3.396   5.178 -0.5665  0.0414 -0.0651
 4369TIP3    H213072   1.296   3.297   5.289  0.9451 -0.5569 -0.9650
 4370TIP3   OH213073   7.126   3.159   5.671  0.4114 -0.6037  0.1104
 4370TIP3    H113074   7.121   3.087   5.734 -1.0735  0.0292  0.7590
 4370TIP3    H213075   7.210   3.147   5.628  1.2290 -1.3690  1.8342
 4371TIP3   OH213076   0.721   3.812   4.679 -0.5300 -0.3634 -0.0292
 4371TIP3    H113077   0.755   3.886   4.731  1.3268 -0.2704 -1.2583
 4371TIP3    H213078   0.635   3.842   4.649 -1.1376  0.0464  1.9615
 4372TIP3   OH213079   7.149   4.223   3.974 -0.0712 -0.0366 -0.0562
 4372TIP3    H113080   7.100   4.254   3.897  0.3712 -0.4735 -0.5241
 4372TIP3    H213081   7.218   4.168   3.937  0.4762  0.1882  0.6270
 4373TIP3   OH213082   6.796   2.296   4.617  0.5890  0.0949 -0.5484
 4373TIP3    H113083   6.762   2.369   4.669 -1.7645 -2.2227  1.4582
 4373TIP3    H213084   6.834   2.237   4.681  1.2297 -1.0682 -1.9589
 4374TIP3   OH213085   2.383   0.991   2.681 -0.2403 -0.1998  0.2487
 4374TIP3    H113086   2.430   0.996   2.598 -1.4801 -0.9813 -0.5312
 4374TIP3    H213087   2.312   1.054   2.673 -0.6111 -0.5707  0.5405
 4375TIP3   OH213088   2.119   5.519   2.610 -0.5759  0.5093  0.1720
 4375TIP3    H113089   2.038   5.569   2.618  0.5996  2.3999  0.7643
 4375TIP3    H213090   2.151   5.510   2.699 -0.1184 -0.2448 -0.0542
 4376TIP3   OH213091   0.976   4.443   2.401  0.0356  0.2684 -0.0376
 4376TIP3    H113092   0.900   4.385   2.397 -0.9322  1.5093 -0.1103
 4376TIP3    H213093   0.994   4.465   2.310  0.1757  0.3736  0.0153
 4377TIP3   OH213094   4.641   5.431   3.896 -0.1872  0.1637 -0.0819
 4377TIP3    H113095   4.724   5.445   3.850 -1.2277 -0.0296 -2.1302
 4377TIP3    H213096   4.585   5.502   3.866 -1.3988 -0.8823 -0.3633
 4378TIP3   OH213097   2.297   4.369   1.528  0.3613 -0.2582  0.4686
 4378TIP3    H113098   2.209   4.401   1.545 -0.3836 -3.0481  2.6098
 4378TIP3    H213099   2.294   4.335   1.439 -0.2718  0.9240  0.0231
 4379TIP3   OH213100   0.115   1.816   4.875  0.5468  0.7131 -0.4659
 4379TIP3    H113101   0.159   1.814   4.960 -1.1140  0.6117  0.4232
 4379TIP3    H213102   0.109   1.909   4.853  0.1744  0.7928 -0.0304
 4380TIP3   OH213103   3.971   4.208   5.286  0.2125  0.6974  0.2902
 4380TIP3    H113104   3.910   4.273   5.253  0.1633  0.2614 -0.4839
 4380TIP3    H213105   4.031   4.191   5.213 -0.9565 -1.5621 -0.2293
 4381TIP3   OH213106   3.833   2.301   4.505 -0.5996 -0.0150 -0.5900
 4381TIP3    H113107   3.780   2.236   4.459  0.0372 -0.2593 -0.9803
 4381TIP3    H213108   3.900   2.250   4.550 -0.8117  0.2781  0.0759
 4382TIP3   OH213109   6.248   4.512   3.920  0.0612  0.3464 -0.1095
 4382TIP3    H113110   6.168   4.557   3.894  0.5434  1.2183 -0.1581
 4382TIP3    H213111   6.301   4.509   3.840  0.1496 -0.0593 -0.0372
 4383TIP3   OH213112   2.640   6.443   5.161 -0.4043 -0.5824  0.1867
 4383TIP3    H113113   2.699   6.503   5.115  0.8071 -1.0429  1.0824
 4383TIP3    H213114   2.617   6.489   5.241  0.0896 -1.0784  0.6197
 4384TIP3   OH213115   2.752   4.983   0.484  0.0958 -0.0625  0.1125
 4384TIP3    H113116   2.816   5.054   0.484 -1.1006  1.1067 -2.0257
 4384TIP3    H213117   2.784   4.923   0.416  0.7165 -1.2497  1.4153
 4385TIP3   OH213118   4.812   2.556   1.913 -0.0314 -0.1287  0.5588
 4385TIP3    H113119   4.793   2.537   1.821  0.8923  3.4122 -0.5320
 4385TIP3    H213120   4.801   2.650   1.921  1.0881 -0.1400  3.8304
 4386TIP3   OH213121   1.147   2.540   1.732  0.0331 -0.7459  0.0314
 4386TIP3    H113122   1.092   2.513   1.659 -1.6493  0.1294  0.9157
 4386TIP3    H213123   1.151   2.463   1.789  1.3076 -1.4125 -0.9272
 4387TIP3   OH213124   3.112   4.115   0.815 -0.4649  0.2281  0.1747
 4387TIP3    H113125   3.118   4.163   0.898 -0.3695 -2.3978  1.7836
 4387TIP3    H213126   3.186   4.055   0.817 -1.2078 -0.7730 -1.2337
 4388TIP3   OH213127   2.422   3.996   0.276  0.3600  0.1115  0.5753
 4388TIP3    H113128   2.430   3.988   0.181 -2.3627  1.2166  0.1507
 4388TIP3    H213129   2.409   3.907   0.307  1.5223 -0.2852 -0.0266
 4389TIP3   OH213130   0.065   0.397   2.973  0.0983  0.0688 -0.0829
 4389TIP3    H113131   0.124   0.379   3.047  0.2043  1.1069  0.1008
 4389TIP3    H213132  -0.016   0.428   3.014  0.2616  0.9430 -0.4006
 4390TIP3   OH213133   3.093   0.438   0.184 -0.1771 -0.0065  0.4169
 4390TIP3    H113134   3.093   0.501   0.113  1.3419 -1.1371 -0.6464
 4390TIP3    H213135   3.012   0.388   0.173 -0.9399  1.1438  0.7305
 4391TIP3   OH213136   4.366   6.237   3.839  0.1320 -0.4840  0.3055
 4391TIP3    H113137   4.343   6.226   3.931  0.1285 -0.4953  0.3034
 4391TIP3    H213138   4.327   6.321   3.814  0.1137 -0.4915  0.3084
 4392TIP3   OH213139   2.166   0.124   1.775  0.7402  0.0189 -0.7592
 4392TIP3    H113140   2.224   0.049   1.790  0.0235 -0.4742 -0.3842
 4392TIP3    H213141   2.169   0.138   1.681 -0.0419 -1.2665 -1.0035
 4393TIP3   OH213142   1.698   0.649   3.196  0.3467 -0.1493 -0.2289
 4393TIP3    H113143   1.761   0.720   3.208  2.3650 -2.0160  1.1204
 4393TIP3    H213144   1.669   0.628   3.285 -0.5104 -0.7484 -0.6369
 4394TIP3   OH213145   5.252   1.054   3.600 -0.3193  0.4412 -0.0677
 4394TIP3    H113146   5.286   1.056   3.689 -0.8751 -0.4497  0.1659
 4394TIP3    H213147   5.200   0.974   3.595 -2.3738  1.7275 -0.4234
 4395TIP3   OH213148   6.112   3.513   1.086 -0.4213  0.0388  0.6647
 4395TIP3    H113149   6.032   3.465   1.069 -0.3548 -0.1208  0.7992
 4395TIP3    H213150   6.176   3.478   1.025 -0.3983  0.0222  0.6979
 4396TIP3   OH213151   4.586   3.085   2.018  0.4583  0.4214  0.1955
 4396TIP3    H113152   4.584   3.167   2.067 -1.5242  0.0751  0.8177
 4396TIP3    H213153   4.661   3.094   1.959  2.4268  1.2160  2.6359
 4397TIP3   OH213154   6.594   2.398   2.910 -0.6833  0.0484  0.2328
 4397TIP3    H113155   6.583   2.469   2.972  0.3213  0.5689 -0.1577
 4397TIP3    H213156   6.564   2.434   2.826  1.0550  0.5044 -0.2411
 4398TIP3   OH213157   3.577   6.080   5.126  0.3420  0.0401 -0.1156
 4398TIP3    H113158   3.552   6.000   5.172  0.8286  0.7069  1.4018
 4398TIP3    H213159   3.508   6.094   5.061  1.0007 -2.3583 -1.4313
 4399TIP3   OH213160   0.510   0.837   2.319 -0.2341 -0.5021  0.0872
 4399TIP3    H113161   0.529   0.832   2.225  0.7102 -0.8744  0.2929
 4399TIP3    H213162   0.595   0.824   2.362 -0.8845 -1.8286  1.0371
 4400TIP3   OH213163   2.574   4.276   5.516 -0.3239  0.1309  0.0517
 4400TIP3    H113164   2.663   4.249   5.495  0.0424  1.3857 -0.0846
 4400TIP3    H213165   2.521   4.198   5.501  0.2673  0.2047 -3.1148
 4401TIP3   OH213166   3.734   1.825   2.737  0.0743 -0.2242  0.0696
 4401TIP3    H113167   3.665   1.864   2.684  0.9160  0.0471 -0.8456
 4401TIP3    H213168   3.755   1.742   2.693  0.2109 -0.3878  0.4361
 4402TIP3   OH213169   6.807   5.702   0.548  0.5207 -0.0111 -0.0325
 4402TIP3    H113170   6.842   5.652   0.621 -0.9966 -0.0411  0.7109
 4402TIP3    H213171   6.814   5.643   0.473  2.1652  0.0532  0.0448
 4403TIP3   OH213172   0.388   1.881   3.579  0.3249  0.3652  0.3839
 4403TIP3    H113173   0.367   1.963   3.535  1.7737  0.0205 -1.0419
 4403TIP3    H213174   0.323   1.818   3.547 -0.1647  0.7167  0.6898
 4404TIP3   OH213175   2.996   2.465   0.878  0.0062 -0.4166  0.3134
 4404TIP3    H113176   2.932   2.436   0.813 -0.0108 -1.8676  0.9515
 4404TIP3    H213177   2.946   2.476   0.958  0.4531 -1.0465  0.6867
 4405TIP3   OH213178   6.205   0.603   1.613  0.2111  0.0016 -0.0071
 4405TIP3    H113179   6.276   0.539   1.623  0.4249 -0.0897 -1.7409
 4405TIP3    H213180   6.173   0.589   1.523 -0.5971  1.4711  0.0198
 4406TIP3   OH213181   3.473   3.344   4.888 -0.1072 -0.5300 -0.0996
 4406TIP3    H113182   3.471   3.253   4.918 -0.9695 -0.6675 -0.5622
 4406TIP3    H213183   3.392   3.382   4.922  0.5865  0.2774  0.7142
 4407TIP3   OH213184   2.581   2.220   4.391 -0.0925 -0.6674  0.5146
 4407TIP3    H113185   2.565   2.182   4.477  2.6945 -1.7559  0.6775
 4407TIP3    H213186   2.539   2.159   4.330 -0.4013 -0.9833  1.0314
 4408TIP3   OH213187   3.511   4.549   5.741  0.5516 -0.1038  0.2236
 4408TIP3    H113188   3.526   4.460   5.711  0.9805  0.3544 -0.9726
 4408TIP3    H213189   3.435   4.579   5.691  0.8446  0.4426  0.0918
 4409TIP3   OH213190   3.793   3.610   5.737  0.5657  0.7880  0.2623
 4409TIP3    H113191   3.710   3.566   5.719  0.3748  0.8338  0.9962
 4409TIP3    H213192   3.769   3.685   5.791  0.9789  1.3650 -0.3380
 4410TIP3   OH213193   2.126   2.451   5.431 -0.3545  0.3896 -0.1002
 4410TIP3    H113194   2.165   2.433   5.345 -0.1493 -0.5442  0.1750
 4410TIP3    H213195   2.112   2.364   5.470 -1.7199  0.7473  0.2574
 4411TIP3   OH213196   2.352   5.976   4.274 -0.3165 -0.6093  0.1505
 4411TIP3    H113197   2.328   6.067   4.258  0.4445 -0.4051  0.1575
 4411TIP3    H213198   2.419   5.957   4.209 -0.5516 -1.2055  0.0749
 4412TIP3   OH213199   1.043   1.912   3.784  0.0645  0.8284 -0.6974
 4412TIP3    H113200   1.121   1.958   3.813 -0.7037  2.2628 -0.8253
 4412TIP3    H213201   1.067   1.877   3.698  0.8398  0.4867 -0.3535
 4413TIP3   OH213202   4.421   3.640   4.559  0.8073  0.6038  0.2771
 4413TIP3    H113203   4.397   3.600   4.475 -0.4149 -0.4246  1.0809
 4413TIP3    H213204   4.514   3.661   4.550  0.7412  0.3225 -1.2552
 4414TIP3   OH213205   4.654   5.861   4.763 -0.5152  0.7499  1.0612
 4414TIP3    H113206   4.630   5.789   4.821 -3.4472  0.4598 -0.3064
 4414TIP3    H213207   4.750   5.864   4.766 -0.2952 -2.8129  1.5953
 4415TIP3   OH213208   2.248   0.116   0.618 -0.1917 -0.3378  0.0162
 4415TIP3    H113209   2.342   0.103   0.632 -0.5611 -0.2269  3.4525
 4415TIP3    H213210   2.210   0.028   0.620 -0.3815 -0.2409  0.9245
 4416TIP3   OH213211   3.090   6.054   2.124  0.4273 -0.0312  0.2206
 4416TIP3    H113212   3.080   5.979   2.183  0.1684 -0.6318 -0.5738
 4416TIP3    H213213   3.091   6.130   2.183 -1.2356 -0.4886  0.9158
 4417TIP3   OH213214   5.285   2.138   2.332  0.1051  0.4139  0.6280
 4417TIP3    H113215   5.340   2.201   2.285  1.2086 -0.4257  0.7553
 4417TIP3    H213216   5.205   2.131   2.279  0.6937  0.6297 -0.3015
 4418TIP3   OH213217   3.539   0.106   2.469 -0.6575  0.8560 -0.5839
 4418TIP3    H113218   3.497   0.062   2.544  0.2469 -0.8222 -1.0194
 4418TIP3    H213219   3.630   0.076   2.471 -0.0002  2.6696 -0.9872
 4419TIP3   OH213220   4.282   5.338   5.048  0.0832 -0.3594  0.8921
 4419TIP3    H113221   4.338   5.364   4.974 -1.2661  0.6636  0.1779
 4419TIP3    H213222   4.343   5.329   5.122  1.1568  1.1094  0.2533
 4420TIP3   OH213223   0.798   2.621   4.662  0.2350  0.1729 -0.1112
 4420TIP3    H113224   0.831   2.533   4.679  1.4395  0.1663 -2.0695
 4420TIP3    H213225   0.723   2.608   4.604  0.8705  0.4308 -1.0155
 4421TIP3   OH213226   5.258   3.007   0.814 -0.9739 -0.0009 -0.7223
 4421TIP3    H113227   5.316   2.968   0.748  0.6786  0.7578  0.2263
 4421TIP3    H213228   5.242   3.096   0.782  1.1107  0.9172  0.5790
 4422TIP3   OH213229   2.128   3.604   1.533  0.6050  0.3191  0.6305
 4422TIP3    H113230   2.172   3.688   1.548  0.5652  0.1420  1.8574
 4422TIP3    H213231   2.081   3.616   1.450  0.8013  1.4267  0.6607
 4423TIP3   OH213232   3.431   4.080   1.147  0.1485  0.5070  0.1540
 4423TIP3    H113233   3.433   4.163   1.193  0.8090  1.2735 -1.1745
 4423TIP3    H213234   3.348   4.081   1.098  0.1615  0.3960  0.1283
 4424TIP3   OH213235   1.189   6.034   2.843  0.1023  0.1101  0.2259
 4424TIP3    H113236   1.188   6.019   2.937 -0.0930 -1.1411  0.0463
 4424TIP3    H213237   1.119   5.977   2.809 -1.1219  1.9561 -0.4934
 4425TIP3   OH213238   7.169   3.342   1.628  0.1856 -0.3974 -0.0916
 4425TIP3    H113239   7.251   3.299   1.654  0.2288 -0.4516 -0.3099
 4425TIP3    H213240   7.100   3.290   1.669  0.0149 -2.8760 -3.1733
 4426TIP3   OH213241   7.055   3.737   5.613  0.0039  0.0027 -0.8469
 4426TIP3    H113242   6.991   3.783   5.560  0.0850  1.4853  0.2943
 4426TIP3    H213243   7.010   3.718   5.695  1.2504  1.8881  0.3349
 4427TIP3   OH213244   3.254   3.927   0.478 -0.3416 -0.0820  0.9339
 4427TIP3    H113245   3.311   3.914   0.402 -0.9662 -0.9185  0.5805
 4427TIP3    H213246   3.309   3.970   0.543  0.7685 -1.0601  0.6857
 4428TIP3   OH213247   1.998   4.134   4.581 -0.1437  0.4096 -0.0167
 4428TIP3    H113248   2.051   4.122   4.502  1.9999 -0.4944  1.4785
 4428TIP3    H213249   1.945   4.054   4.587  0.3033  0.1052 -0.1013
 4429TIP3   OH213250   6.308   6.303   2.842  0.0622 -0.1008 -0.1185
 4429TIP3    H113251   6.367   6.278   2.913 -1.0690 -1.3474  0.4357
 4429TIP3    H213252   6.221   6.277   2.873 -0.7675  1.5069 -0.9883
 4430TIP3   OH213253   6.372   4.529   1.816 -0.2604  0.0424  0.0789
 4430TIP3    H113254   6.312   4.596   1.785 -1.8898 -2.5224 -2.9001
 4430TIP3    H213255   6.318   4.450   1.823  2.0286 -1.5441  1.0044
 4431TIP3   OH213256   4.461   4.573   3.255  0.2631 -0.0574  0.0989
 4431TIP3    H113257   4.499   4.650   3.297  2.1142 -1.4787  1.1522
 4431TIP3    H213258   4.476   4.502   3.316  0.1717 -1.6116 -1.5906
 4432TIP3   OH213259   0.168   2.494   1.270  0.3360  0.1274 -0.7541
 4432TIP3    H113260   0.093   2.517   1.216 -0.7531  1.6461  1.2901
 4432TIP3    H213261   0.143   2.411   1.311  0.6178 -0.3370 -1.4773
 4433TIP3   OH213262   6.635   6.039   4.095 -0.1026  0.6584 -0.6400
 4433TIP3    H113263   6.637   5.946   4.117 -0.3496  0.6537 -0.6398
 4433TIP3    H213264   6.661   6.043   4.003 -0.2100  0.5772 -0.6746
 4434TIP3   OH213265   3.771   3.047   3.337 -0.4167 -0.1729  0.2959
 4434TIP3    H113266   3.677   3.062   3.347 -0.5128 -0.6022  0.0123
 4434TIP3    H213267   3.779   2.987   3.263  0.0764 -0.2125  0.3775
 4435TIP3   OH213268   4.330   1.749   1.334  0.3556 -0.1420 -0.1468
 4435TIP3    H113269   4.264   1.680   1.339 -0.3312  0.4694 -0.6813
 4435TIP3    H213270   4.284   1.825   1.299  1.0757  0.6308  0.5195
 4436TIP3   OH213271   0.833   3.918   1.109  0.0739  0.6407 -0.2843
 4436TIP3    H113272   0.759   3.861   1.088  1.0066 -1.0005  0.6007
 4436TIP3    H213273   0.851   3.898   1.201  1.1503  1.5473 -0.2908
 4437TIP3   OH213274   4.088   2.338   3.644  0.8572  0.3696  0.8031
 4437TIP3    H113275   4.092   2.273   3.714  0.2713 -0.3433  0.1855
 4437TIP3    H213276   3.995   2.362   3.639  0.8026  0.0143 -0.0729
 4438TIP3   OH213277   2.236   2.590   0.564  0.4616  0.3300  0.3533
 4438TIP3    H113278   2.181   2.525   0.520  1.3305  0.0047 -0.2774
 4438TIP3    H213279   2.223   2.574   0.657 -1.5014  1.0989  0.2557
 4439TIP3   OH213280   2.187   1.782   4.846 -0.1125 -0.2974 -0.1504
 4439TIP3    H113281   2.158   1.825   4.927 -0.6805 -1.0321  0.0475
 4439TIP3    H213282   2.132   1.704   4.839  1.1586 -1.2177 -0.2867
 4440TIP3   OH213283   5.807   2.359   1.856 -0.2451  0.2745  0.7350
 4440TIP3    H113284   5.802   2.271   1.893  0.5830 -0.0745  0.0488
 4440TIP3    H213285   5.717   2.380   1.832 -0.4341 -0.4344  0.7926
 4441TIP3   OH213286   1.309   3.624   4.962  0.5357 -0.0721  0.6286
 4441TIP3    H113287   1.254   3.555   4.998 -0.0622  0.2171  0.2831
 4441TIP3    H213288   1.362   3.653   5.037  1.6529 -1.6856  0.5121
 4442TIP3   OH213289   6.669   2.447   1.370  0.3374 -0.2945 -0.5939
 4442TIP3    H113290   6.639   2.439   1.460  1.6949 -0.3334 -0.1135
 4442TIP3    H213291   6.682   2.357   1.341  1.8490 -0.2612 -0.1072
 4443TIP3   OH213292   4.637   0.228   4.813  0.1130  0.1399 -0.0807
 4443TIP3    H113293   4.597   0.141   4.814 -0.7307  0.4998 -1.2629
 4443TIP3    H213294   4.680   0.233   4.727  2.3147 -0.0396  0.9380
 4444TIP3   OH213295   0.059   5.336   2.037 -0.1497 -0.2144  0.1031
 4444TIP3    H113296   0.060   5.431   2.047  0.8764  0.0920 -2.2589
 4444TIP3    H213297  -0.011   5.306   2.095 -1.4544  2.1232 -0.1487
 4445TIP3   OH213298   4.956   6.450   0.306  0.0817 -0.1278  0.0866
 4445TIP3    H113299   4.952   6.375   0.246  2.3589  0.0200 -0.3743
 4445TIP3    H213300   4.942   6.412   0.393  0.9061 -1.0665 -0.1659
 4446TIP3   OH213301   0.813   6.213   2.436 -0.2380 -0.4669  0.2812
 4446TIP3    H113302   0.873   6.285   2.456 -0.4250  0.3512 -1.9031
 4446TIP3    H213303   0.797   6.172   2.521  1.5922  0.7041  1.2665
 4447TIP3   OH213304   0.762   4.548   2.174  0.1914 -0.5771 -0.1764
 4447TIP3    H113305   0.692   4.560   2.238 -0.6683 -0.1774 -1.1734
 4447TIP3    H213306   0.783   4.636   2.145 -1.4584 -0.8761 -2.5592
 4448TIP3   OH213307   1.633   5.270   0.360 -0.5100  0.0113 -0.3884
 4448TIP3    H113308   1.687   5.194   0.337 -0.8808 -0.3696 -0.0219
 4448TIP3    H213309   1.543   5.242   0.341 -0.5080  1.0929 -2.2285
 4449TIP3   OH213310   5.278   3.360   2.620 -0.4285  0.7010  0.1796
 4449TIP3    H113311   5.369   3.352   2.591 -0.1652  1.5793  0.7199
 4449TIP3    H213312   5.226   3.331   2.545  0.2862  0.5626 -0.2734
 4450TIP3   OH213313   4.697   0.966   5.392 -0.5785  0.3484  0.3902
 4450TIP3    H113314   4.694   1.008   5.478 -0.6118 -2.2503  1.7367
 4450TIP3    H213315   4.625   0.904   5.393 -2.3908  2.1462 -2.6762
 4451TIP3   OH213316   0.062   5.067   1.621 -0.0618 -0.5242 -0.0795
 4451TIP3    H113317   0.019   4.995   1.667 -0.2172 -0.0989  0.4529
 4451TIP3    H213318   0.035   5.146   1.669  1.0943 -0.2262  0.0920
 4452TIP3   OH213319   1.939   6.522   0.740 -0.3463 -0.8525 -0.1251
 4452TIP3    H113320   1.965   6.613   0.749 -1.2770 -0.4190 -1.5053
 4452TIP3    H213321   2.000   6.474   0.796  1.1557  0.4406 -0.5738
 4453TIP3   OH213322   0.469   4.837   3.172  0.2556  0.5754 -0.4290
 4453TIP3    H113323   0.424   4.863   3.091  0.3459  1.0123 -0.3424
 4453TIP3    H213324   0.401   4.796   3.225 -0.8036  3.7847  0.9108
 4454TIP3   OH213325   1.373   5.776   4.736  0.5657 -0.4708  0.1589
 4454TIP3    H113326   1.278   5.765   4.729  0.5996 -1.7457  1.1874
 4454TIP3    H213327   1.394   5.737   4.821  1.9540  0.2287  0.1535
 4455TIP3   OH213328   0.773   3.790   3.629  0.0739  0.2042 -0.0654
 4455TIP3    H113329   0.850   3.790   3.687 -0.2592  0.9299  0.3876
 4455TIP3    H213330   0.768   3.700   3.597  0.8132  0.0198  0.3061
 4456TIP3   OH213331   1.124   3.260   0.922 -0.0238 -0.1930  0.4877
 4456TIP3    H113332   1.152   3.337   0.971  0.9878  0.5180 -1.1223
 4456TIP3    H213333   1.129   3.287   0.830 -2.2761 -1.3250 -0.0390
 4457TIP3   OH213334   4.745   4.569   3.400 -0.5906  0.4325 -0.3901
 4457TIP3    H113335   4.701   4.484   3.400  0.8175 -0.3862  1.7767
 4457TIP3    H213336   4.766   4.585   3.492 -0.2890  2.8710 -0.8241
 4458TIP3   OH213337   6.078   1.139   2.546  0.2182  0.3102 -0.2871
 4458TIP3    H113338   6.022   1.114   2.472 -1.4812 -2.4691  1.7166
 4458TIP3    H213339   6.018   1.178   2.610  0.4818 -2.3770  1.7723
 4459TIP3   OH213340   3.340   4.366   5.250 -0.8360  0.1807  0.4054
 4459TIP3    H113341   3.339   4.281   5.206  0.3121 -0.1687  1.0095
 4459TIP3    H213342   3.276   4.357   5.321 -2.1348  0.4953 -0.6887
 4460TIP3   OH213343   4.284   1.028   3.842  0.0106 -0.2189 -0.1766
 4460TIP3    H113344   4.249   1.051   3.928 -1.8220 -0.9154 -0.6774
 4460TIP3    H213345   4.378   1.047   3.847 -0.1945  0.4332  1.7189
 4461TIP3   OH213346   2.785   3.440   1.863  0.0087 -0.9603  0.1069
 4461TIP3    H113347   2.840   3.407   1.792  0.2229 -0.7791  0.1887
 4461TIP3    H213348   2.717   3.491   1.819  1.7233  1.5283  0.1500
 4462TIP3   OH213349   6.170   0.743   1.909  0.4830  0.4128  0.5198
 4462TIP3    H113350   6.238   0.717   1.847 -0.0692 -0.7543  0.3711
 4462TIP3    H213351   6.206   0.721   1.995  0.6384  0.5911  0.4996
 4463TIP3   OH213352   0.067   2.541   5.305  0.2564  0.3218 -0.2781
 4463TIP3    H113353   0.139   2.566   5.245 -0.1629  2.3510 -0.0099
 4463TIP3    H213354   0.019   2.473   5.257  2.5961 -1.4874 -0.2612
 4464TIP3   OH213355   0.829   4.979   0.324  0.1806  0.0096  0.6306
 4464TIP3    H113356   0.908   5.009   0.369  0.5489 -0.9174  0.6287
 4464TIP3    H213357   0.798   4.905   0.377 -1.5192  1.2205  1.4551
 4465TIP3   OH213358   1.990   0.074   0.837 -0.0137 -0.2226 -0.2329
 4465TIP3    H113359   1.956   0.129   0.907 -2.8642 -2.2163  0.1391
 4465TIP3    H213360   1.980   0.126   0.757 -3.3645 -0.2892 -0.0003
 4466TIP3   OH213361   1.931   6.584   1.167  0.3715  0.6402 -0.9845
 4466TIP3    H113362   1.865   6.606   1.234 -0.0326 -1.0639 -0.7873
 4466TIP3    H213363   1.903   6.634   1.090 -0.0631  1.4101 -0.3456
 4467TIP3   OH213364   6.564   6.718   4.900 -0.7081  0.4608 -0.2486
 4467TIP3    H113365   6.528   6.794   4.946 -0.2053  0.5280  0.0492
 4467TIP3    H213366   6.645   6.698   4.947 -1.0027 -0.4697 -0.1186
 4468TIP3   OH213367   2.587   0.854   3.807 -0.4395 -0.4468  0.1854
 4468TIP3    H113368   2.519   0.896   3.755 -0.0299 -1.8210 -1.5684
 4468TIP3    H213369   2.546   0.838   3.892 -2.0073 -0.4231 -0.5381
 4469TIP3   OH213370   3.722   4.584   3.663  0.0794  0.5893 -1.2043
 4469TIP3    H113371   3.751   4.660   3.713  0.8329 -1.8196  2.3509
 4469TIP3    H213372   3.627   4.580   3.678  0.3409 -0.2915  0.4577
 4470TIP3   OH213373   5.278   5.812   3.826 -0.0284 -0.1759  0.5890
 4470TIP3    H113374   5.328   5.794   3.746 -0.6085  0.6594  0.0313
 4470TIP3    H213375   5.311   5.896   3.857  0.3487 -0.5950  1.3674
 4471TIP3   OH213376   6.510   4.072   2.704  0.2392 -0.2413  0.0520
 4471TIP3    H113377   6.500   4.043   2.795 -0.5215 -1.1387 -0.3000
 4471TIP3    H213378   6.602   4.054   2.683 -0.1484 -2.3744 -0.0992
 4472TIP3   OH213379   2.216   4.946   5.301 -0.1390  0.0944 -0.5582
 4472TIP3    H113380   2.242   4.891   5.227 -0.6800  0.6946 -1.2131
 4472TIP3    H213381   2.120   4.951   5.294 -0.0525  1.8287 -1.0675
 4473TIP3   OH213382   5.188   3.620   1.707 -0.3590  0.0720  0.0574
 4473TIP3    H113383   5.177   3.525   1.701  1.3662 -0.3447  2.2753
 4473TIP3    H213384   5.265   3.639   1.652  0.4051 -0.1072  1.0459
 4474TIP3   OH213385   0.056   6.416   2.373  0.1272 -0.2794  1.2705
 4474TIP3    H113386   0.046   6.353   2.302 -0.6522  1.6710 -0.4503
 4474TIP3    H213387   0.029   6.368   2.452 -1.3066 -1.8392 -0.0912
 4475TIP3   OH213388   4.842   0.151   2.883  0.0523  0.3019  0.2280
 4475TIP3    H113389   4.914   0.088   2.886 -0.2427 -0.0206  0.7072
 4475TIP3    H213390   4.771   0.108   2.931  0.0890  1.2958  1.2087
 4476TIP3   OH213391   2.236   3.961   0.545  0.5025  1.0089 -0.1947
 4476TIP3    H113392   2.190   3.901   0.603  0.2258 -0.8061 -2.1781
 4476TIP3    H213393   2.174   3.979   0.474  2.2067 -0.2437 -2.1110
 4477TIP3   OH213394   3.096   6.063   4.463  0.0954 -0.1068  0.7021
 4477TIP3    H113395   3.058   6.128   4.523 -2.5384 -0.3616 -0.5482
 4477TIP3    H213396   3.055   5.980   4.488 -0.5566 -0.3269 -0.9410
 4478TIP3   OH213397   2.227   1.268   2.274  0.5840  0.7020 -0.1452
 4478TIP3    H113398   2.164   1.321   2.323  1.4476  0.0006  1.8321
 4478TIP3    H213399   2.282   1.332   2.230 -0.0804  1.3733 -0.0407
 4479TIP3   OH213400   0.253   2.986   1.717 -0.4239  0.0329  0.0031
 4479TIP3    H113401   0.201   2.971   1.796  0.7081 -0.2928  0.7098
 4479TIP3    H213402   0.294   2.901   1.699 -2.0952 -0.4157 -2.0311
 4480TIP3   OH213403   6.013   5.123   1.399  0.3420  0.2831  0.0651
 4480TIP3    H113404   6.090   5.180   1.400 -0.2327  1.0664  0.1494
 4480TIP3    H213405   5.972   5.135   1.485  0.4718 -0.6219  0.2625
 4481TIP3   OH213406   1.272   2.417   1.226  0.8320 -0.0407  0.1517
 4481TIP3    H113407   1.299   2.505   1.200 -0.3190  0.2341 -0.1559
 4481TIP3    H213408   1.299   2.409   1.317  1.6723  0.3258 -0.0587
 4482TIP3   OH213409   4.535   4.516   3.011  0.5081 -0.7573  0.4352
 4482TIP3    H113410   4.468   4.547   2.949  3.1946  1.5900 -1.5488
 4482TIP3    H213411   4.511   4.555   3.095 -1.4127 -1.2962  0.1890
 4483TIP3   OH213412   0.280   4.722   5.901 -0.2961 -0.6009  0.1055
 4483TIP3    H113413   0.262   4.759   5.814 -2.5615  0.6502  1.0200
 4483TIP3    H213414   0.198   4.680   5.926 -0.3189  0.6885  2.3959
 4484TIP3   OH213415   3.307   6.243   1.758 -0.5844  0.3244 -0.6604
 4484TIP3    H113416   3.314   6.313   1.822  0.1933  0.6617 -1.1065
 4484TIP3    H213417   3.321   6.162   1.808  1.3838  0.6508 -0.6084
 4485TIP3   OH213418   3.504   5.903   4.319 -0.2239  0.2326  0.1580
 4485TIP3    H113419   3.509   5.853   4.237 -1.6458  0.1866  0.0753
 4485TIP3    H213420   3.498   5.994   4.292 -0.1037  0.2645  0.2363
 4486TIP3   OH213421   1.341   4.326   4.613  0.0340  0.1879  0.0598
 4486TIP3    H113422   1.302   4.239   4.618 -0.8122  0.5698  0.5556
 4486TIP3    H213423   1.354   4.342   4.520  1.0722 -0.8258  0.0123
 4487TIP3   OH213424   6.994   0.187   1.150 -0.5357  0.6251  0.0234
 4487TIP3    H113425   6.966   0.176   1.059  0.2938 -0.3396 -0.1306
 4487TIP3    H213426   6.921   0.153   1.202 -1.3406  1.8911 -0.2411
 4488TIP3   OH213427   3.083   2.309   3.070  0.3891 -0.3646 -0.7656
 4488TIP3    H113428   2.996   2.299   3.110  1.1292  1.0219  1.3718
 4488TIP3    H213429   3.140   2.331   3.143  2.3165  0.0193 -2.3202
 4489TIP3   OH213430   5.179   6.646   2.646  0.1926 -0.5583  0.2581
 4489TIP3    H113431   5.103   6.701   2.664 -0.1654 -0.7036 -0.7749
 4489TIP3    H213432   5.231   6.696   2.583  1.6813  0.1647  1.9840
 4490TIP3   OH213433   1.943   3.942   1.510 -0.1743  0.1956  0.3808
 4490TIP3    H113434   1.906   3.857   1.486 -0.0437 -0.6295  2.7863
 4490TIP3    H213435   2.038   3.929   1.504 -0.1254 -0.1782  1.6906
 4491TIP3   OH213436   5.891   1.183   5.870 -0.2912  0.3442  0.0615
 4491TIP3    H113437   5.865   1.239   5.943  1.3009 -0.6889  1.4993
 4491TIP3    H213438   5.904   1.243   5.797 -2.0839  1.3884  0.5497
 4492TIP3   OH213439   1.075   2.020   3.208 -0.4704  0.0748  0.1304
 4492TIP3    H113440   1.007   2.057   3.152 -1.0575 -0.5084  0.4400
 4492TIP3    H213441   1.099   2.092   3.268 -0.8474  0.2637  0.0553
 4493TIP3   OH213442   1.550   5.738   2.347 -0.0495 -0.3250 -0.0872
 4493TIP3    H113443   1.641   5.728   2.375  0.7875 -2.2363 -2.9624
 4493TIP3    H213444   1.540   5.831   2.329  1.0808  0.0284  0.9972
 4494TIP3   OH213445   6.677   1.314   1.943 -0.5660  0.3228  0.2303
 4494TIP3    H113446   6.644   1.402   1.925 -1.5840 -0.0385  0.2440
 4494TIP3    H213447   6.608   1.255   1.911  0.0938 -0.4736  0.2246
 4495TIP3   OH213448   0.269   1.163   1.206 -0.2955 -0.3260 -0.1107
 4495TIP3    H113449   0.196   1.222   1.188  0.6249  1.1076  0.5925
 4495TIP3    H213450   0.253   1.129   1.293 -0.4313 -0.5071 -0.2053
 4496TIP3   OH213451   4.586   0.734   3.556  0.0531 -0.0714 -0.6544
 4496TIP3    H113452   4.516   0.794   3.532 -1.2100 -1.6069 -0.9400
 4496TIP3    H213453   4.548   0.647   3.546  1.6297 -0.9240  0.3656
 4497TIP3   OH213454   2.719   6.691   4.515  0.2282  0.2954 -0.0257
 4497TIP3    H113455   2.695   6.639   4.439 -0.2652  1.4685 -0.7150
 4497TIP3    H213456   2.806   6.726   4.494 -0.1496  1.0829 -0.3274
 4498TIP3   OH213457   2.311   5.323   4.888 -0.5507 -0.2451  0.0697
 4498TIP3    H113458   2.333   5.416   4.882 -1.3661 -0.0393  0.1782
 4498TIP3    H213459   2.302   5.306   4.982  2.0737 -1.0471  0.2462
 4499TIP3   OH213460   6.477   2.694   2.994 -0.4191  0.3601  0.1594
 4499TIP3    H113461   6.396   2.686   3.045  0.2659 -0.7963  1.0995
 4499TIP3    H213462   6.454   2.756   2.924 -2.3435 -0.4994 -0.0533
 4500TIP3   OH213463   2.121   0.442   0.262  0.1071 -0.1661 -0.2951
 4500TIP3    H113464   2.102   0.400   0.346 -2.6817  1.1068 -0.1798
 4500TIP3    H213465   2.113   0.536   0.279  3.1792  0.3739 -1.2274
 4501TIP3   OH213466   1.106   4.731   0.621  0.3805 -0.3187 -0.4945
 4501TIP3    H113467   1.020   4.772   0.633  0.2694 -0.8498  0.7105
 4501TIP3    H213468   1.163   4.803   0.594 -0.5590 -0.0748 -1.9605
 4502TIP3   OH213469   0.642   6.794   4.540 -0.1330 -0.3428  0.4419
 4502TIP3    H113470   0.568   6.762   4.489  0.2593  0.7533 -0.8889
 4502TIP3    H213471   0.651   6.732   4.612 -0.7806 -1.8971 -0.7618
 4503TIP3   OH213472   1.133   2.249   3.657  0.0806  0.0732 -0.4882
 4503TIP3    H113473   1.191   2.323   3.672 -0.8128  1.1342 -2.0320
 4503TIP3    H213474   1.045   2.283   3.678 -0.1818 -1.0587  0.3752
 4504TIP3   OH213475   3.172   4.428   0.047  0.1600  0.1036 -0.7946
 4504TIP3    H113476   3.171   4.372   0.124 -1.3174 -1.0537 -1.5850
 4504TIP3    H213477   3.149   4.369  -0.025 -1.6089  1.7294 -1.6586
 4505TIP3   OH213478   3.609   3.271   3.537 -0.1418 -0.1143  0.9420
 4505TIP3    H113479   3.629   3.348   3.484  2.9132 -0.5718  1.2368
 4505TIP3    H213480   3.619   3.302   3.628  1.4376 -0.8707  1.0583
 4506TIP3   OH213481   5.215   5.130   2.860 -0.0573 -0.3582 -0.6398
 4506TIP3    H113482   5.190   5.066   2.927 -0.3237 -0.8273 -1.1756
 4506TIP3    H213483   5.258   5.200   2.909 -1.8986  0.2126  0.2394
 4507TIP3   OH213484   3.557   3.495   5.584 -0.0636 -0.0001  0.4988
 4507TIP3    H113485   3.613   3.528   5.514 -2.6888  2.0727 -0.8038
 4507TIP3    H213486   3.555   3.400   5.570  2.6065 -0.1197  0.3301
 4508TIP3   OH213487   0.167   5.085   0.912  0.3652  0.6150 -0.4903
 4508TIP3    H113488   0.092   5.027   0.897  0.1613 -0.0800  2.6358
 4508TIP3    H213489   0.136   5.172   0.885 -0.3437 -0.1869 -2.4438
 4509TIP3   OH213490   1.669   3.634   0.530 -0.2381  0.1341 -0.0629
 4509TIP3    H113491   1.744   3.689   0.551 -0.0459 -0.6891  1.6279
 4509TIP3    H213492   1.607   3.692   0.487  0.0429  1.6468  1.4630
 4510TIP3   OH213493   1.949   0.780   4.187  0.1257  0.3148 -0.1785
 4510TIP3    H113494   1.911   0.865   4.167 -0.8758 -0.4503 -1.7119
 4510TIP3    H213495   2.041   0.799   4.208 -0.0548  1.7552 -0.5819
 4511TIP3   OH213496   3.146   4.237   2.383 -0.1587  0.2596  0.8834
 4511TIP3    H113497   3.135   4.326   2.418 -0.3354  0.9341 -0.8150
 4511TIP3    H213498   3.097   4.237   2.301  4.3824  0.4360 -2.1740
 4512TIP3   OH213499   0.095   3.844   0.752  0.1009 -0.1957  0.1027
 4512TIP3    H113500   0.116   3.908   0.683 -3.0530 -2.3506 -3.1973
 4512TIP3    H213501   0.136   3.763   0.722 -1.1186 -1.1258  0.8913
 4513TIP3   OH213502   5.862   5.044   3.230 -0.2245  0.3170  0.4296
 4513TIP3    H113503   5.946   5.031   3.186 -0.5307 -0.0828 -0.0438
 4513TIP3    H213504   5.839   5.135   3.212 -0.8301 -0.1207 -1.0999
 4514TIP3   OH213505   5.953   1.147   1.897  0.2625 -0.5369 -0.5501
 4514TIP3    H113506   5.972   1.072   1.954 -0.4997 -0.4475 -0.1640
 4514TIP3    H213507   5.864   1.173   1.921  0.3344  0.1798 -1.0362
 4515TIP3   OH213508   2.314   5.819   0.328  0.3029  0.2006  0.2262
 4515TIP3    H113509   2.316   5.757   0.255 -1.7733 -0.1449  0.4162
 4515TIP3    H213510   2.243   5.880   0.308 -0.0397  0.3520  1.7315
 4516TIP3   OH213511   5.411   0.039   4.958  0.3270  0.4724 -0.0436
 4516TIP3    H113512   5.479   0.065   4.895  1.5380 -1.8790  0.1807
 4516TIP3    H213513   5.330   0.072   4.920  1.1745  0.2938 -2.1649
 4517TIP3   OH213514   2.847   2.555   5.339 -0.3866 -0.2650 -0.0961
 4517TIP3    H113515   2.782   2.580   5.272 -0.8593  0.3319  0.5714
 4517TIP3    H213516   2.931   2.575   5.298 -0.6870  0.4565 -0.3847
 4518TIP3   OH213517   1.757   4.927   5.698  0.4004  0.2083 -0.4158
 4518TIP3    H113518   1.762   4.855   5.635  3.8616 -1.5983  1.6352
 4518TIP3    H213519   1.786   4.889   5.781  2.3069  3.9057  0.8225
 4519TIP3   OH213520   1.436   0.210   2.036 -0.1088 -0.0912 -0.2802
 4519TIP3    H113521   1.357   0.165   2.007  0.7269 -3.8201  2.3567
 4519TIP3    H213522   1.501   0.190   1.969 -0.5135 -0.1868 -0.6478
 4520TIP3   OH213523   3.807   5.566   3.801  0.0996 -0.1071 -0.0835
 4520TIP3    H113524   3.735   5.502   3.806  1.0346 -1.3697 -1.7407
 4520TIP3    H213525   3.873   5.533   3.862  0.1680 -0.1793 -0.1952
 4521TIP3   OH213526   3.012   0.007   3.292 -0.0569  0.1399  0.6615
 4521TIP3    H113527   2.954   0.012   3.368  0.0684  0.4676  0.7371
 4521TIP3    H213528   2.957   0.030   3.218 -0.9023 -2.7514  0.2452
 4522TIP3   OH213529   0.677   5.896   1.241  0.7233 -0.2868  0.1820
 4522TIP3    H113530   0.692   5.989   1.224 -0.7719 -0.1888 -0.7757
 4522TIP3    H213531   0.764   5.861   1.258  1.2759  1.3629  1.0154
 4523TIP3   OH213532   5.440   1.267   4.612  0.1115  0.0282  0.1100
 4523TIP3    H113533   5.468   1.208   4.683  0.9899  0.5673  0.2357
 4523TIP3    H213534   5.482   1.351   4.633  0.4345  0.1838 -1.0759
 4524TIP3   OH213535   6.284   6.080   4.388  0.1183 -0.1061 -0.7680
 4524TIP3    H113536   6.360   6.027   4.364  2.3700  3.1145 -1.3064
 4524TIP3    H213537   6.282   6.078   4.483  0.1132 -1.1072 -0.7719
 4525TIP3   OH213538   3.296   1.180   1.438 -0.2320  0.2354 -0.2004
 4525TIP3    H113539   3.350   1.130   1.500 -0.7339  1.1825  1.0628
 4525TIP3    H213540   3.253   1.114   1.384 -0.3374 -0.6612  0.9429
 4526TIP3   OH213541   6.669   3.035   1.358  0.7578  0.3582  0.5497
 4526TIP3    H113542   6.735   2.998   1.415  1.2237 -0.5371 -0.5316
 4526TIP3    H213543   6.648   2.965   1.296 -1.9019  0.2654  1.4111
 4527TIP3   OH213544   6.454   1.929   2.904  0.1915  0.3687  0.3319
 4527TIP3    H113545   6.407   1.906   2.824  0.4110  1.5361 -0.1406
 4527TIP3    H213546   6.421   1.866   2.969 -0.1209 -0.4725 -0.6111
 4528TIP3   OH213547   5.274   2.618  -0.014  0.1690  0.3566  0.5501
 4528TIP3    H113548   5.312   2.534  -0.041  0.9808  0.9011 -0.0443
 4528TIP3    H213549   5.260   2.608   0.080  0.4518 -0.3709  0.5268
 4529TIP3   OH213550   5.021   0.635   3.081  0.1172 -0.0371 -0.3509
 4529TIP3    H113551   5.088   0.696   3.052  0.5552 -1.1152 -1.7619
 4529TIP3    H213552   4.949   0.648   3.019  0.4233 -1.2661 -1.0077
 4530TIP3   OH213553   1.681   2.483   1.245 -0.3378 -0.2060 -0.3741
 4530TIP3    H113554   1.775   2.467   1.254 -0.3507  0.5102  1.4449
 4530TIP3    H213555   1.640   2.398   1.262 -0.0780 -0.1020  0.8755
 4531TIP3   OH213556   3.673   2.609   1.511  0.0659 -0.2821 -0.1006
 4531TIP3    H113557   3.578   2.603   1.506  0.1173 -0.3881 -1.2293
 4531TIP3    H213558   3.695   2.580   1.600 -1.1952  3.2146  1.5266
 4532TIP3   OH213559   4.249   5.927   0.885 -0.1646 -0.1768  0.4510
 4532TIP3    H113560   4.227   6.020   0.882 -0.6192 -0.0585  3.5847
 4532TIP3    H213561   4.340   5.925   0.914 -0.0603 -0.6984  0.0890
 4533TIP3   OH213562   5.332   6.003   4.872  0.2861 -0.1642  0.0173
 4533TIP3    H113563   5.397   6.069   4.849  0.5056 -0.8923 -1.5542
 4533TIP3    H213564   5.262   6.015   4.808 -0.9217  0.2521  1.3447
 4534TIP3   OH213565   4.594   5.566   1.901  0.6578 -0.0045 -0.1425
 4534TIP3    H113566   4.507   5.584   1.938  0.5781  0.9993 -0.7893
 4534TIP3    H213567   4.583   5.485   1.853  0.4016 -0.5598  0.8197
 4535TIP3   OH213568   0.463   5.215   2.524  0.4119  0.6328 -0.0736
 4535TIP3    H113569   0.550   5.178   2.533 -0.1627 -0.5584  0.8357
 4535TIP3    H213570   0.414   5.150   2.474  0.3701  1.8983 -1.7803
 4536TIP3   OH213571   4.171   4.553   0.233 -0.5368 -0.0449 -0.1224
 4536TIP3    H113572   4.133   4.498   0.301  1.6676 -1.1039  0.3576
 4536TIP3    H213573   4.265   4.547   0.248 -0.1540  3.9059 -0.0666
 4537TIP3   OH213574   6.532   4.053   3.555 -0.1666  0.2334  0.3154
 4537TIP3    H113575   6.618   4.047   3.512  0.4783  0.1167  1.5780
 4537TIP3    H213576   6.520   4.146   3.573  0.2445  0.1194  1.2042
 4538TIP3   OH213577   1.183   3.086   2.596  0.3009 -0.1108  0.2204
 4538TIP3    H113578   1.224   3.008   2.633 -0.5417 -0.1940  1.0389
 4538TIP3    H213579   1.097   3.056   2.566  0.2433  0.3551 -0.0890
 4539TIP3   OH213580   1.767   3.833   4.187 -0.3280 -0.1123  0.3353
 4539TIP3    H113581   1.714   3.779   4.129 -1.3655  0.1455  1.0144
 4539TIP3    H213582   1.746   3.923   4.162  0.1489 -0.0048  0.3035
 4540TIP3   OH213583   3.233   1.308   2.092 -0.3173  0.1411  0.1855
 4540TIP3    H113584   3.258   1.328   2.002 -1.1206 -2.2405 -0.6537
 4540TIP3    H213585   3.316   1.292   2.137  0.0440  0.3508 -0.3965
 4541TIP3   OH213586   4.964   4.885   1.622  0.2033  0.7491  0.0088
 4541TIP3    H113587   4.960   4.796   1.655 -0.4589  1.2685  1.4113
 4541TIP3    H213588   4.990   4.938   1.698 -0.1726  1.8397 -0.5954
 4542TIP3   OH213589   1.194   5.870   4.057 -0.0512 -0.8160  0.0977
 4542TIP3    H113590   1.106   5.840   4.035  0.3018 -0.4822 -1.9553
 4542TIP3    H213591   1.248   5.845   3.982  1.8108 -1.7675  1.6847
 4543TIP3   OH213592   2.289   3.132   4.545  0.0166 -0.0061 -0.2592
 4543TIP3    H113593   2.263   3.040   4.536  1.5057 -0.5656  0.8375
 4543TIP3    H213594   2.375   3.129   4.587  1.0868  1.8250 -2.1251
 4544TIP3   OH213595   6.903   3.600   1.470 -0.3313 -0.5933 -0.0136
 4544TIP3    H113596   6.836   3.634   1.410  0.4983 -1.2410 -1.3595
 4544TIP3    H213597   6.881   3.508   1.480 -0.5891 -0.4428  0.8825
 4545TIP3   OH213598   6.911   0.507   2.807  0.5012  0.1119 -0.7502
 4545TIP3    H113599   6.987   0.546   2.849  0.7909 -0.9535 -0.2399
 4545TIP3    H213600   6.920   0.530   2.715  1.5190 -0.1064 -0.7169
 4546TIP3   OH213601   1.894   1.149   3.800 -0.2778 -0.6967  0.1550
 4546TIP3    H113602   1.808   1.156   3.840  0.0819  0.9156  0.7011
 4546TIP3    H213603   1.892   1.209   3.726 -0.2513 -2.1342 -1.0589
 4547TIP3   OH213604   1.979   0.552   1.401  0.6563 -0.3908  0.3381
 4547TIP3    H113605   1.909   0.586   1.346 -0.5427 -2.2967  0.5744
 4547TIP3    H213606   1.940   0.545   1.488  0.6719 -2.6023  0.2292
 4548TIP3   OH213607   1.651   0.936   3.485 -0.1640 -0.0946 -0.0783
 4548TIP3    H113608   1.705   0.896   3.553 -0.1102 -0.2165 -0.1931
 4548TIP3    H213609   1.563   0.904   3.503  0.0560 -1.1583 -0.8339
 4549TIP3   OH213610   2.086   0.994   4.918 -0.3756  0.1127 -0.2354
 4549TIP3    H113611   2.012   1.036   4.874  0.0109  0.7661 -0.2751
 4549TIP3    H213612   2.150   0.978   4.849 -0.6101 -0.7686 -0.2625
 4550TIP3   OH213613   3.425   2.310   1.282 -0.0057 -0.0077 -0.0691
 4550TIP3    H113614   3.490   2.311   1.352  0.6534  0.2367 -0.6810
 4550TIP3    H213615   3.448   2.384   1.226 -0.7268 -0.0039 -0.3772
 4551TIP3   OH213616   1.530   6.109   0.331  0.5880  0.2461  0.1345
 4551TIP3    H113617   1.556   6.199   0.351  0.2930  0.6365 -1.1201
 4551TIP3    H213618   1.584   6.085   0.255 -1.3241  0.4070 -1.3624
 4552TIP3   OH213619   5.523   3.860   4.116  0.7305  0.8063  0.0210
 4552TIP3    H113620   5.432   3.833   4.107  0.4915  1.0940  1.3433
 4552TIP3    H213621   5.525   3.949   4.082 -0.2826  2.1133  3.0189
 4553TIP3   OH213622   0.905   2.112   4.032 -0.0966 -0.6280  0.9111
 4553TIP3    H113623   0.915   2.043   4.097 -1.8816 -1.1629  0.6589
 4553TIP3    H213624   0.907   2.193   4.084 -2.8494 -1.0839  1.9104
 4554TIP3   OH213625  -0.015   3.786   3.246  0.9319  0.1788  0.3548
 4554TIP3    H113626  -0.025   3.814   3.337 -0.5895 -2.5482  1.1555
 4554TIP3    H213627   0.060   3.726   3.248  1.2627  0.5569 -0.3357
 4555TIP3   OH213628   4.410   5.327   1.845  0.2229  0.7312  0.1189
 4555TIP3    H113629   4.466   5.250   1.838  0.0212  0.5483  0.5412
 4555TIP3    H213630   4.413   5.352   1.937 -1.2348  0.0886  0.3715
 4556TIP3   OH213631   0.421   5.267   5.010  0.2519 -0.4185  0.0623
 4556TIP3    H113632   0.454   5.245   5.097 -0.6860 -2.9520 -0.1355
 4556TIP3    H213633   0.354   5.200   4.992 -0.3705  0.6947 -2.1589
 4557TIP3   OH213634   3.535   1.354   3.854  0.3090  0.0342 -0.4430
 4557TIP3    H113635   3.497   1.435   3.820  1.7527  1.7016  1.6340
 4557TIP3    H213636   3.627   1.358   3.829  0.5226 -0.6915  0.1665
 4558TIP3   OH213637   1.146   6.335   1.257 -0.1894  0.5622 -0.1156
 4558TIP3    H113638   1.083   6.323   1.328 -0.3040  0.3013 -0.2576
 4558TIP3    H213639   1.100   6.306   1.178 -0.3182  1.5715 -0.4139
 4559TIP3   OH213640   3.655   6.750   5.337 -0.5897  1.0562  0.0220
 4559TIP3    H113641   3.734   6.722   5.383 -1.4825  0.2716  1.1442
 4559TIP3    H213642   3.683   6.767   5.248  0.5458 -0.8068 -0.0136
 4560TIP3   OH213643   5.313   0.721   4.408 -0.4017 -0.3873 -0.7655
 4560TIP3    H113644   5.369   0.651   4.376  0.3184  0.2848 -1.0026
 4560TIP3    H213645   5.326   0.793   4.346  1.3087  1.0820  1.1549
 4561TIP3   OH213646   0.771   5.864   5.076 -0.1085  0.1380  0.5436
 4561TIP3    H113647   0.713   5.788   5.088 -0.1291 -0.0819 -0.8133
 4561TIP3    H213648   0.716   5.940   5.097  0.6789 -0.2308  4.7995
 4562TIP3   OH213649   7.096   5.035   3.774  0.2375 -0.0770  0.2771
 4562TIP3    H113650   7.142   5.034   3.690 -0.9475  1.0645 -0.4245
 4562TIP3    H213651   7.163   5.010   3.838  1.6079  0.6449 -0.8101
 4563TIP3   OH213652   2.119   5.945   0.751 -0.4626 -0.5239 -0.4292
 4563TIP3    H113653   2.118   5.878   0.820  0.2260 -0.6853 -0.5735
 4563TIP3    H213654   2.096   5.897   0.671 -0.2060 -0.5398 -0.4925
 4564TIP3   OH213655   2.835   1.603   1.783 -0.0558 -0.5811 -0.2785
 4564TIP3    H113656   2.822   1.545   1.708 -1.9495 -2.0929  1.0998
 4564TIP3    H213657   2.913   1.570   1.826 -1.1378 -2.2783  0.5236
 4565TIP3   OH213658   6.769   3.950   2.936  0.2617 -0.1018  0.6065
 4565TIP3    H113659   6.805   3.937   3.023 -1.4176  0.7165  1.4771
 4565TIP3    H213660   6.733   3.864   2.912 -0.1087 -0.1000  1.1381
 4566TIP3   OH213661   1.227   1.266   3.450  0.4789 -0.1085  0.1817
 4566TIP3    H113662   1.151   1.291   3.397  1.2329  2.6820  0.2545
 4566TIP3    H213663   1.198   1.277   3.541  0.2871 -1.3409  0.2817
 4567TIP3   OH213664   0.760   5.649   1.682 -0.0567 -0.3148 -0.5010
 4567TIP3    H113665   0.745   5.626   1.774  0.1058 -0.2108 -0.4473
 4567TIP3    H213666   0.773   5.744   1.683  0.1326 -0.3392 -0.6069
 4568TIP3   OH213667   0.080   2.546   5.577 -0.0564 -0.2604 -0.0760
 4568TIP3    H113668   0.068   2.550   5.482 -1.6303 -0.4951  0.0941
 4568TIP3    H213669   0.154   2.605   5.593 -1.2040  1.6307 -1.2258
 4569TIP3   OH213670   5.576   4.750   2.526 -0.1537  0.6584 -0.0095
 4569TIP3    H113671   5.595   4.679   2.465 -1.3111 -0.4770  0.8858
 4569TIP3    H213672   5.525   4.708   2.596 -0.5404  2.2988  0.7346
 4570TIP3   OH213673   1.473   0.209   0.265 -0.4746  0.1947 -0.6467
 4570TIP3    H113674   1.507   0.131   0.309  0.2363  0.5146 -0.6147
 4570TIP3    H213675   1.536   0.225   0.194 -0.3817  0.9843 -0.3929
 4571TIP3   OH213676   1.835   4.343   2.659  0.2099  0.0195  0.0884
 4571TIP3    H113677   1.745   4.325   2.632 -0.0798 -0.1027  1.1066
 4571TIP3    H213678   1.873   4.257   2.679  0.6640  0.0386 -0.6521
 4572TIP3   OH213679   6.458   0.540   4.043  0.0547  0.2635  0.5571
 4572TIP3    H113680   6.455   0.453   4.082 -0.4986 -0.5710 -1.2337
 4572TIP3    H213681   6.437   0.600   4.115  0.7510 -1.0334  1.8911
 4573TIP3   OH213682   0.886   4.682   2.922  0.3029  0.1967  0.0200
 4573TIP3    H113683   0.896   4.620   2.850  0.9658  0.2692  0.0450
 4573TIP3    H213684   0.808   4.734   2.899  1.2353  1.0782 -1.2876
 4574TIP3   OH213685   5.281   2.980   3.586 -0.3668 -0.0991 -0.1191
 4574TIP3    H113686   5.271   3.039   3.661 -1.7130 -0.3934 -0.0460
 4574TIP3    H213687   5.324   2.903   3.622 -0.4272  0.0179  0.2083
 4575TIP3   OH213688   2.504   0.079   1.873 -0.0538 -0.5063 -0.1956
 4575TIP3    H113689   2.461   0.063   1.790 -1.4533  0.5792  0.2782
 4575TIP3    H213690   2.549  -0.003   1.894 -1.6823 -1.6088 -0.8538
 4576TIP3   OH213691   1.749   5.630   3.759  0.3518  0.4972 -0.5526
 4576TIP3    H113692   1.811   5.603   3.827  0.5078  0.5034 -0.6919
 4576TIP3    H213693   1.687   5.558   3.753  1.0358 -0.0467 -1.2540
 4577TIP3   OH213694   2.546   2.499   0.763 -0.0982  0.2394  0.6117
 4577TIP3    H113695   2.538   2.592   0.744  1.3624  0.2336 -0.1320
 4577TIP3    H213696   2.617   2.469   0.707  0.3584 -1.0436  1.8246
 4578TIP3   OH213697   6.743   2.913   0.644 -0.1351 -0.4854  0.0813
 4578TIP3    H113698   6.708   2.986   0.593 -0.5591  0.8456  2.1762
 4578TIP3    H213699   6.704   2.923   0.731  2.1208 -1.4348  1.2908
 4579TIP3   OH213700   4.595   5.228   3.050 -0.5223  0.1611  0.6156
 4579TIP3    H113701   4.527   5.283   3.010  0.8535  1.6382  0.1903
 4579TIP3    H213702   4.579   5.235   3.144 -1.7989 -0.6822  0.4847
 4580TIP3   OH213703   0.390   2.742   1.701  0.3285  0.7044  0.3322
 4580TIP3    H113704   0.343   2.696   1.770  1.1250  0.8793  1.0162
 4580TIP3    H213705   0.393   2.680   1.628 -0.4757  0.4971  0.4698
 4581TIP3   OH213706   6.727   1.189   4.639 -0.1351 -0.1409 -0.0396
 4581TIP3    H113707   6.716   1.208   4.732  1.0601  1.6460 -0.2124
 4581TIP3    H213708   6.642   1.208   4.600 -0.2834  0.3405  0.5022
 4582TIP3   OH213709   3.507   0.490   4.515  0.9187  0.3833 -0.1589
 4582TIP3    H113710   3.555   0.428   4.571  1.3145  0.5567 -0.2987
 4582TIP3    H213711   3.415   0.472   4.532  1.0083 -0.8028 -0.7955
 4583TIP3   OH213712   0.772   2.070   5.296  0.3624 -0.4428 -0.5165
 4583TIP3    H113713   0.864   2.083   5.319 -0.4794  0.2446  3.1705
 4583TIP3    H213714   0.762   1.975   5.290  0.9687 -0.6667  1.2386
 4584TIP3   OH213715   0.362   0.765   3.995  0.0153 -0.3433  0.0215
 4584TIP3    H113716   0.327   0.853   4.012  1.1238  0.0801  0.1521
 4584TIP3    H213717   0.332   0.744   3.906  0.9814  0.7848 -0.5870
 4585TIP3   OH213718   5.290   5.424   2.602 -0.4825 -0.5099 -0.0538
 4585TIP3    H113719   5.349   5.497   2.625  0.8125 -1.1277 -1.2351
 4585TIP3    H213720   5.263   5.443   2.513 -1.2508 -0.7861  0.1149
 4586TIP3   OH213721   5.528   5.165   3.223 -0.3094  0.6090 -0.2694
 4586TIP3    H113722   5.503   5.121   3.304  0.0458 -1.1524 -1.0692
 4586TIP3    H213723   5.561   5.250   3.251  0.3240 -0.1740  1.4963
 4587TIP3   OH213724   3.242   0.576   2.055  0.6195  0.2174  0.1071
 4587TIP3    H113725   3.187   0.582   2.133 -2.0200  1.0482 -1.6823
 4587TIP3    H213726   3.248   0.482   2.038 -0.6243  0.1072  0.1508
 4588TIP3   OH213727   2.680   0.224   2.008  0.5360 -0.2513 -0.2386
 4588TIP3    H113728   2.628   0.177   1.944  1.8933 -1.8823 -0.1979
 4588TIP3    H213729   2.628   0.222   2.088 -0.4055  0.3247 -0.8113
 4589TIP3   OH213730   1.834   4.549   3.879  0.3657 -0.1707  0.0515
 4589TIP3    H113731   1.790   4.608   3.941  0.4021  0.1223 -0.1978
 4589TIP3    H213732   1.865   4.607   3.809  1.7067 -0.2709  0.5266
 4590TIP3   OH213733   4.343   5.952   4.800 -0.2220  0.8988  0.1457
 4590TIP3    H113734   4.420   6.001   4.772  0.7973 -0.4943  0.3850
 4590TIP3    H213735   4.326   5.982   4.889  1.2162 -0.0858  0.7950
 4591TIP3   OH213736   6.100   0.296   5.107  0.0871 -0.1700 -0.0386
 4591TIP3    H113737   6.161   0.322   5.039  0.0703 -0.2359 -0.0789
 4591TIP3    H213738   6.144   0.223   5.152 -0.4284 -0.9382 -0.7600
 4592TIP3   OH213739   0.904   4.992   5.125  0.2540  0.3015  0.2903
 4592TIP3    H113740   0.925   4.907   5.164 -2.6522  0.1454  1.7931
 4592TIP3    H213741   0.975   5.050   5.153  3.3201 -1.8880 -2.2841
 4593TIP3   OH213742   5.990   2.923   3.847 -0.6522  0.1119 -0.1126
 4593TIP3    H113743   5.958   2.923   3.937 -0.0019  0.9501  0.1267
 4593TIP3    H213744   5.963   3.007   3.811 -0.8019 -0.1674 -0.6678
 4594TIP3   OH213745   2.394   6.722   0.691 -0.0630  0.7796 -0.9916
 4594TIP3    H113746   2.413   6.741   0.600 -0.3583 -0.3362 -1.3027
 4594TIP3    H213747   2.391   6.808   0.734  3.3583  1.1990 -1.3401
 4595TIP3   OH213748   4.284   6.030   5.059 -0.2280 -0.6308 -0.3587
 4595TIP3    H113749   4.334   6.111   5.070  0.6635 -0.9677 -1.7982
 4595TIP3    H213750   4.302   5.980   5.139 -1.1375  0.7276  0.7543
 4596TIP3   OH213751   7.067   5.622   1.395 -0.3592 -0.4943 -0.3748
 4596TIP3    H113752   7.156   5.636   1.425 -1.0787 -1.2104  2.3696
 4596TIP3    H213753   7.057   5.526   1.390 -1.1630 -0.4429  0.0248
 4597TIP3   OH213754   4.703   4.429   2.087  0.0895 -0.4873  0.4834
 4597TIP3    H113755   4.790   4.394   2.067 -0.8382 -1.8505 -1.5301
 4597TIP3    H213756   4.714   4.524   2.084  1.5799 -0.6287  0.6699
 4598TIP3   OH213757   3.760   4.491   5.533  0.4142 -0.1626 -0.4675
 4598TIP3    H113758   3.687   4.458   5.480  0.0655 -0.5502  0.2434
 4598TIP3    H213759   3.773   4.424   5.600  0.4779  0.5888  0.2873
 4599TIP3   OH213760   6.768   5.563   3.540 -0.6470 -0.1056 -0.2205
 4599TIP3    H113761   6.705   5.540   3.473 -0.9064 -0.1324  0.0283
 4599TIP3    H213762   6.757   5.658   3.552 -2.4527 -0.4851  1.6145
 4600TIP3   OH213763   3.564   2.378   4.532  0.3520 -0.1035 -0.3323
 4600TIP3    H113764   3.652   2.344   4.547 -0.3124 -2.0298 -0.4515
 4600TIP3    H213765   3.577   2.454   4.475  1.9612  0.0252  0.1491
 4601TIP3   OH213766   3.158   3.598   1.728  0.5696  0.0477  0.3484
 4601TIP3    H113767   3.118   3.673   1.684  0.7425  1.8686  3.0554
 4601TIP3    H213768   3.251   3.620   1.731  0.6205 -0.2589  1.1729
 4602TIP3   OH213769   6.379   5.200   3.163 -0.4186  0.2793 -0.0717
 4602TIP3    H113770   6.292   5.166   3.142 -0.6765 -1.0064  2.6355
 4602TIP3    H213771   6.362   5.286   3.204 -0.5826 -0.4623  1.4996
 4603TIP3   OH213772   0.394   5.665   5.372  0.5169 -0.0881  0.1833
 4603TIP3    H113773   0.311   5.618   5.385 -0.1289  0.5134 -1.4428
 4603TIP3    H213774   0.387   5.742   5.427 -0.8323  0.8884 -1.2578
 4604TIP3   OH213775   1.361   5.101   0.559  0.3781  0.5554  0.0293
 4604TIP3    H113776   1.448   5.081   0.593 -0.3691  0.2757  1.8751
 4604TIP3    H213777   1.378   5.139   0.472  2.1986 -1.6776 -0.7021
 4605TIP3   OH213778   4.717   2.765   5.516  0.1426 -0.6330 -0.5576
 4605TIP3    H113779   4.678   2.784   5.601  2.0262 -3.6157  1.1316
 4605TIP3    H213780   4.642   2.760   5.457 -1.2553  1.1508  0.9348
 4606TIP3   OH213781   0.719   5.087   2.509  0.5318 -0.1655 -0.0586
 4606TIP3    H113782   0.801   5.120   2.474  1.0354 -1.4076 -0.0891
 4606TIP3    H213783   0.740   5.000   2.543 -0.8679 -0.7087 -0.5102
 4607TIP3   OH213784   6.300   5.280   4.176 -0.7312  0.8782 -0.6522
 4607TIP3    H113785   6.257   5.351   4.128  0.2552  1.0990 -1.2279
 4607TIP3    H213786   6.310   5.314   4.265 -1.2860  1.0106 -0.6343
 4608TIP3   OH213787   6.014   3.017   5.291  0.0985 -0.2832  0.2112
 4608TIP3    H113788   5.989   3.014   5.199 -0.5610 -0.9253  0.4003
 4608TIP3    H213789   6.108   2.999   5.291  0.3815  1.1266 -0.4311
 4609TIP3   OH213790   1.660   3.512   4.875  0.3882  0.1002  0.0267
 4609TIP3    H113791   1.668   3.419   4.899  1.1033 -0.0500 -0.7379
 4609TIP3    H213792   1.736   3.554   4.913 -0.8540  0.7572  1.9394
 4610TIP3   OH213793   2.998   4.626   3.862  0.2727  0.1510 -0.1758
 4610TIP3    H113794   2.982   4.556   3.925 -2.8399  0.8303 -0.0286
 4610TIP3    H213795   3.071   4.676   3.900 -0.3281 -0.4879  1.9754
 4611TIP3   OH213796   1.890   0.691   2.173  0.2172 -0.2434 -0.2394
 4611TIP3    H113797   1.859   0.663   2.087 -0.6294  0.4472 -0.1856
 4611TIP3    H213798   1.934   0.775   2.156  0.2878 -0.2408 -0.0425
 4612TIP3   OH213799   6.435   1.297   2.550 -0.1503  0.4635 -0.5637
 4612TIP3    H113800   6.366   1.271   2.611  0.1544 -1.7457 -1.0701
 4612TIP3    H213801   6.440   1.392   2.559 -0.9900  0.3485  1.8881
 4613TIP3   OH213802   5.416   4.889   2.911 -0.1252  0.0359 -0.0644
 4613TIP3    H113803   5.453   4.976   2.897  0.5406 -0.1815  0.2988
 4613TIP3    H213804   5.341   4.903   2.968  1.0784  0.1813  1.5624
 4614TIP3   OH213805   1.888   2.247   1.014  0.4416 -0.4004  0.0955
 4614TIP3    H113806   1.899   2.243   1.109 -2.2435 -2.4792  0.4555
 4614TIP3    H213807   1.938   2.172   0.981  0.3058 -0.4578  0.0183
 4615TIP3   OH213808   4.209   2.364   2.560 -0.2267 -0.5033  0.0458
 4615TIP3    H113809   4.195   2.373   2.466  0.1910  1.2996  0.1097
 4615TIP3    H213810   4.286   2.419   2.578  0.0446 -1.2602  1.3634
 4616TIP3   OH213811   4.507   6.818   2.338  0.4442  0.8713  0.4797
 4616TIP3    H113812   4.450   6.747   2.367 -0.6359  0.9997 -1.2068
 4616TIP3    H213813   4.593   6.777   2.330 -0.0132 -0.0817  0.2162
 4617TIP3   OH213814   0.181   6.629   1.957  0.4828 -0.1320 -0.6554
 4617TIP3    H113815   0.128   6.555   1.926  0.8115 -0.1698 -1.1504
 4617TIP3    H213816   0.246   6.589   2.014 -0.3727 -0.0165  0.4434
 4618TIP3   OH213817   0.659   5.308   4.608 -0.0766  0.5541 -0.1965
 4618TIP3    H113818   0.715   5.361   4.665  1.6090  0.5481 -1.7773
 4618TIP3    H213819   0.650   5.225   4.655 -0.1226  1.1291  0.8398
 4619TIP3   OH213820   6.823   3.499   5.635  0.0834 -0.6505  0.7018
 4619TIP3    H113821   6.770   3.470   5.709 -0.5452 -0.5264  0.3083
 4619TIP3    H213822   6.771   3.569   5.595 -0.1413 -1.5109 -0.5501
 4620TIP3   OH213823   2.706   5.172   3.299 -0.1318  0.3367  0.0668
 4620TIP3    H113824   2.791   5.136   3.323 -1.4854 -0.9329  3.5899
 4620TIP3    H213825   2.669   5.108   3.239  0.0885 -0.9127  1.2183
 4621TIP3   OH213826   3.088   3.094   5.256  0.4404  0.0837 -0.3970
 4621TIP3    H113827   3.180   3.091   5.283  0.4285 -0.0636 -0.3678
 4621TIP3    H213828   3.039   3.101   5.338  0.4670  1.2636 -0.4753
 4622TIP3   OH213829   6.295   3.587   5.435  0.7331  0.4737  0.2514
 4622TIP3    H113830   6.371   3.530   5.445 -0.2767 -0.9971 -0.1389
 4622TIP3    H213831   6.291   3.606   5.342  1.1940  1.4005  0.4094
 4623TIP3   OH213832   2.861   5.620   1.863  0.3670  0.8139 -0.0850
 4623TIP3    H113833   2.923   5.662   1.923  1.0145  0.2703 -0.3678
 4623TIP3    H213834   2.814   5.557   1.917  0.3616  0.9148  0.0294
 4624TIP3   OH213835   6.708   6.406   3.043  0.7991  0.0275  0.3724
 4624TIP3    H113836   6.659   6.392   3.125 -0.8853 -1.6416 -0.8315
 4624TIP3    H213837   6.670   6.485   3.006  0.9034  0.2611  0.7576
 4625TIP3   OH213838   5.823   1.148   3.115 -0.0724  0.0722 -0.1315
 4625TIP3    H113839   5.766   1.225   3.113  1.6718  1.4331 -1.3408
 4625TIP3    H213840   5.787   1.089   3.050 -1.5950 -0.2879  1.0003
 4626TIP3   OH213841   4.087   4.907   3.203 -0.3155  0.6100  0.3208
 4626TIP3    H113842   4.130   4.880   3.122 -0.2820 -0.0151  0.5351
 4626TIP3    H213843   4.158   4.912   3.267 -0.2200  1.8635  0.1460
 4627TIP3   OH213844   0.670   2.303   5.394  0.8602  0.1298 -0.1907
 4627TIP3    H113845   0.681   2.299   5.489 -2.0723 -1.5592  0.1778
 4627TIP3    H213846   0.717   2.226   5.361  0.3946 -0.2749  0.0843
 4628TIP3   OH213847   2.832   0.678   2.190 -0.2247 -0.2719 -0.2407
 4628TIP3    H113848   2.812   0.611   2.125  0.4028 -0.4860 -0.2158
 4628TIP3    H213849   2.746   0.705   2.224 -0.7199  1.1415 -2.4195
 4629TIP3   OH213850   7.090   0.883   5.737  0.5726  0.0568  0.0028
 4629TIP3    H113851   7.149   0.810   5.719  1.5257  0.7382  0.2753
 4629TIP3    H213852   7.070   0.919   5.651 -0.1257 -0.6859 -0.1553
 4630TIP3   OH213853   1.608   6.692   3.854  0.4326  0.3809  0.0960
 4630TIP3    H113854   1.671   6.647   3.910  1.3508 -0.6214 -1.6746
 4630TIP3    H213855   1.612   6.646   3.770 -2.4665  0.4303 -0.1922
 4631TIP3   OH213856   5.795   5.719   5.539  0.2053  0.7689  0.2987
 4631TIP3    H113857   5.718   5.673   5.507 -0.1502  0.1523  1.9815
 4631TIP3    H213858   5.869   5.662   5.515  0.0284  0.7025 -0.1008
 4632TIP3   OH213859   5.243   3.485   1.347  0.3819 -0.1089 -0.1095
 4632TIP3    H113860   5.336   3.483   1.324  0.4459  0.9354  0.0366
 4632TIP3    H213861   5.218   3.577   1.338 -0.5468 -0.3224  0.2242
 4633TIP3   OH213862   7.037   1.374   3.216 -0.6158 -0.3112  0.1462
 4633TIP3    H113863   7.056   1.448   3.274 -2.0433 -0.5791  0.9962
 4633TIP3    H213864   7.023   1.414   3.130 -0.6150  0.3144  0.4319
 4634TIP3   OH213865   3.267   4.889   0.726  0.1540  0.0637  0.1458
 4634TIP3    H113866   3.306   4.846   0.803  0.1340  0.5606  0.4353
 4634TIP3    H213867   3.341   4.906   0.668  0.0779 -0.9734 -0.2775
 4635TIP3   OH213868   1.208   1.772   4.979 -0.3805 -0.2792  0.0585
 4635TIP3    H113869   1.256   1.711   4.924  1.3220  1.6337 -0.6789
 4635TIP3    H213870   1.267   1.847   4.990 -2.4413  1.3502  0.7102
 4636TIP3   OH213871   4.471   4.454   5.479  0.1139  0.5453  0.0626
 4636TIP3    H113872   4.434   4.405   5.553 -0.3340  0.4097 -0.2499
 4636TIP3    H213873   4.565   4.459   5.498  0.0259  0.3516  0.5495
 4637TIP3   OH213874   6.563   0.117   0.129 -0.2172 -0.0742  0.0723
 4637TIP3    H113875   6.477   0.081   0.152  0.0477  0.0437  1.3249
 4637TIP3    H213876   6.552   0.150   0.040 -1.8054  0.9601  0.6045
 4638TIP3   OH213877   1.436   5.625   4.112  0.0967 -0.3221 -0.0306
 4638TIP3    H113878   1.414   5.608   4.020  1.1607 -1.1084 -0.1526
 4638TIP3    H213879   1.351   5.624   4.157 -0.4262 -0.0254 -0.9810
 4639TIP3   OH213880   1.881   5.651   4.529  0.3146 -0.1299  0.4760
 4639TIP3    H113881   1.792   5.658   4.493  0.0330  0.0487  1.1972
 4639TIP3    H213882   1.910   5.563   4.503 -0.4032 -0.5225  0.9547
 4640TIP3   OH213883   1.908   3.570   4.988  0.1728 -0.3566 -0.3242
 4640TIP3    H113884   1.935   3.537   5.073 -1.1777 -1.4000 -0.2613
 4640TIP3    H213885   1.920   3.665   4.994 -0.4338 -0.3473  1.2318
 4641TIP3   OH213886   5.170   0.126   0.971  0.6918  0.2944  0.5992
 4641TIP3    H113887   5.212   0.174   1.042 -0.4062 -0.0183  1.4969
 4641TIP3    H213888   5.109   0.189   0.932  0.1620  0.0177  0.9640
 4642TIP3   OH213889   4.317   0.879   5.177 -0.5542 -0.8866  0.8459
 4642TIP3    H113890   4.229   0.847   5.156 -0.5612 -0.1222 -0.4314
 4642TIP3    H213891   4.373   0.836   5.113 -0.4951  1.1395 -0.5688
 4643TIP3   OH213892   4.539   2.992   3.266  0.3287 -0.0841  0.0130
 4643TIP3    H113893   4.577   2.905   3.275  0.9375  0.1625 -0.1556
 4643TIP3    H213894   4.450   2.983   3.300  1.1549 -0.1887  2.2727
 4644TIP3   OH213895   6.232   1.049   1.790 -0.2559  0.1206  0.0644
 4644TIP3    H113896   6.176   1.098   1.730 -0.5382 -0.8070 -0.4569
 4644TIP3    H213897   6.292   1.001   1.733 -0.2667 -0.4622  0.5313
 4645TIP3   OH213898   2.987   0.147   0.905 -0.0804  0.5130 -0.4006
 4645TIP3    H113899   3.061   0.131   0.847  1.6846  0.3198  1.7970
 4645TIP3    H213900   2.989   0.075   0.968 -0.8074  1.6717  1.0026
 4646TIP3   OH213901   6.953   5.055   2.295  0.9936 -0.1717  0.2940
 4646TIP3    H113902   7.019   5.124   2.304 -0.8851  2.3026 -2.5123
 4646TIP3    H213903   6.981   5.005   2.219  1.4633 -1.4814  1.3027
 4647TIP3   OH213904   0.567   1.566   0.291 -0.1701 -0.0102  0.5223
 4647TIP3    H113905   0.611   1.644   0.325  0.9221  0.1394 -1.1060
 4647TIP3    H213906   0.638   1.507   0.268 -0.9835 -1.6682  2.0112
 4648TIP3   OH213907   3.255   5.501   3.750  0.1117 -0.0233  0.6342
 4648TIP3    H113908   3.187   5.501   3.817 -0.4739  0.6373  0.0535
 4648TIP3    H213909   3.216   5.545   3.675  0.8831 -0.4139 -0.0229
 4649TIP3   OH213910   0.837   3.705   0.808  0.0985 -0.1592  0.0629
 4649TIP3    H113911   0.831   3.640   0.738 -0.3199  0.4538 -0.4698
 4649TIP3    H213912   0.774   3.675   0.874 -0.4262 -0.0486 -0.3853
 4650TIP3   OH213913   4.620   4.805   3.321 -0.0426 -0.8302  0.0240
 4650TIP3    H113914   4.640   4.727   3.373  0.3866  0.8451  2.5338
 4650TIP3    H213915   4.703   4.853   3.318 -0.4148 -0.2373 -1.1141
 4651TIP3   OH213916   1.950   3.145   0.858  0.1897  0.1822 -0.4203
 4651TIP3    H113917   1.947   3.240   0.865 -3.2114  0.0822  1.7451
 4651TIP3    H213918   1.924   3.127   0.767  0.8125  1.2657 -0.8340
 4652TIP3   OH213919   3.591   5.453   1.475 -0.4322  0.6209  0.0366
 4652TIP3    H113920   3.518   5.419   1.424 -0.7290  0.0839  0.7954
 4652TIP3    H213921   3.659   5.386   1.470 -0.1201  0.9520 -0.3531
 4653TIP3   OH213922   5.309   2.632   3.901 -0.0589 -0.3065 -0.4553
 4653TIP3    H113923   5.244   2.562   3.902 -1.2216  0.7276 -1.3539
 4653TIP3    H213924   5.375   2.601   3.839  1.5380 -2.3436  2.0274
 4654TIP3   OH213925   0.741   6.513   3.338  0.1442  0.5120  0.8760
 4654TIP3    H113926   0.696   6.596   3.321 -1.7981 -0.6376  0.0596
 4654TIP3    H213927   0.726   6.496   3.431 -0.8823  0.2957  0.6802
 4655TIP3   OH213928   2.489   1.616   4.254  0.5066  0.0854  0.1237
 4655TIP3    H113929   2.580   1.629   4.227  0.2676  0.7230 -0.4254
 4655TIP3    H213930   2.486   1.528   4.290  1.4962  0.3280  0.8125
 4656TIP3   OH213931   5.519   0.875   2.249 -0.0324 -0.3824 -0.6320
 4656TIP3    H113932   5.599   0.898   2.202 -0.1280  0.8898 -0.2109
 4656TIP3    H213933   5.459   0.844   2.181  0.2944  0.1252 -1.1595
 4657TIP3   OH213934   0.375   5.123   0.411  0.1430  0.0540  0.3958
 4657TIP3    H113935   0.351   5.172   0.332 -0.6701  2.3867  1.9940
 4657TIP3    H213936   0.419   5.187   0.467 -1.3815 -0.8676  2.8126
 4658TIP3   OH213937   4.056   3.020   3.092 -0.2025  0.0546  0.2553
 4658TIP3    H113938   4.059   3.042   2.999  0.1064  0.5661  0.3834
 4658TIP3    H213939   3.964   2.999   3.109 -0.4302  0.8735  0.0402
 4659TIP3   OH213940   2.107   3.476   0.773 -0.2408  0.5943  0.2494
 4659TIP3    H113941   2.202   3.464   0.767 -0.2081 -0.2506  1.9108
 4659TIP3    H213942   2.095   3.531   0.851 -1.1641 -0.5323  0.9319
 4660TIP3   OH213943   1.018   4.215   4.543 -0.0480 -0.2626  0.0928
 4660TIP3    H113944   1.066   4.149   4.592 -1.7906 -1.0902  0.7775
 4660TIP3    H213945   0.975   4.268   4.610 -0.9635 -0.2498 -0.4790
 4661TIP3   OH213946   6.970   5.424   3.785  0.5461  0.6837  0.3106
 4661TIP3    H113947   7.012   5.509   3.794  1.2028  0.3494  0.4809
 4661TIP3    H213948   6.995   5.376   3.864  1.7733 -0.3203 -0.6359
 4662TIP3   OH213949   3.451   3.641   2.417  0.2743  0.0997  0.3196
 4662TIP3    H113950   3.520   3.695   2.379  0.4175 -0.2121  0.1309
 4662TIP3    H213951   3.370   3.687   2.396  0.4025  0.3042  0.2669
 4663TIP3   OH213952   6.042   4.877   4.345 -0.1151 -0.5599 -0.1605
 4663TIP3    H113953   6.038   4.839   4.257 -1.1880  1.1547 -0.9041
 4663TIP3    H213954   6.133   4.904   4.356  0.3358 -1.9911 -0.1709
 4664TIP3   OH213955   5.654   4.246   0.886  0.6539 -0.6293  0.9682
 4664TIP3    H113956   5.671   4.196   0.806  1.1229 -4.2641  3.1057
 4664TIP3    H213957   5.740   4.253   0.928  0.3152  0.6787  1.5001
 4665TIP3   OH213958   3.234   3.485   3.676 -0.3050  0.3166 -0.0790
 4665TIP3    H113959   3.238   3.514   3.767  0.7733 -0.5879  0.1862
 4665TIP3    H213960   3.301   3.417   3.669 -0.1122  0.6195 -1.6426
 4666TIP3   OH213961   6.525   5.063   4.110  0.6169 -0.0874 -0.6633
 4666TIP3    H113962   6.446   5.070   4.164 -0.1378 -3.5159 -1.0441
 4666TIP3    H213963   6.538   5.150   4.074 -0.3402  1.7381  2.9359
 4667TIP3   OH213964   1.974   4.720   3.671 -0.0716  0.4870  0.4798
 4667TIP3    H113965   1.965   4.751   3.581 -0.2157 -2.4305 -0.6197
 4667TIP3    H213966   2.065   4.735   3.693  0.1824  0.4286 -0.5005
 4668TIP3   OH213967   1.811   1.080   2.139 -0.2696  0.1698  0.0803
 4668TIP3    H113968   1.829   1.169   2.110  0.4068 -0.0717 -0.2704
 4668TIP3    H213969   1.895   1.048   2.172 -0.6192 -0.1705  0.6639
 4669TIP3   OH213970   4.675   5.428   1.643  0.5186 -0.3886  0.1713
 4669TIP3    H113971   4.675   5.340   1.681  0.6363 -0.5924 -0.2882
 4669TIP3    H213972   4.752   5.470   1.679  0.4345 -0.4563  0.4339
 4670TIP3   OH213973   5.108   0.793   3.492  0.4185 -0.0592  0.6575
 4670TIP3    H113974   5.014   0.774   3.499  0.6979 -1.2012  2.0923
 4670TIP3    H213975   5.114   0.867   3.432 -1.4433  0.3976  0.9662
 4671TIP3   OH213976   0.798   4.988   1.279 -0.5069 -0.9727 -0.3156
 4671TIP3    H113977   0.764   5.040   1.206 -2.8663 -0.4246  1.0522
 4671TIP3    H213978   0.890   5.014   1.286 -1.4484  2.9961  0.1343
 4672TIP3   OH213979   1.733   6.001   1.382  0.1424  0.6567 -0.2785
 4672TIP3    H113980   1.698   5.912   1.372  0.0169  0.5830  0.7462
 4672TIP3    H213981   1.771   6.022   1.296 -1.2544  0.2324 -1.0347
 4673TIP3   OH213982   4.005   0.702   2.393  0.0104  0.6644 -0.1909
 4673TIP3    H113983   4.018   0.670   2.304 -1.4545 -0.9915  0.1291
 4673TIP3    H213984   4.093   0.729   2.422  0.9304 -0.9136 -1.3427
 4674TIP3   OH213985   2.088   6.606   5.769 -0.3600  0.1005  0.1741
 4674TIP3    H113986   2.034   6.686   5.773  1.4428  1.3509  0.6719
 4674TIP3    H213987   2.038   6.542   5.819 -2.2106  0.6596 -0.8558
 4675TIP3   OH213988   6.843   2.234   0.327 -0.4794  0.1869  0.4660
 4675TIP3    H113989   6.886   2.298   0.271  1.0824  1.5285  2.9828
 4675TIP3    H213990   6.894   2.154   0.317 -1.3047 -0.1754 -1.2700
 4676TIP3   OH213991   0.868   3.220   4.374  0.2752 -0.2322  0.1637
 4676TIP3    H113992   0.820   3.297   4.343  0.9309  0.3700  0.6356
 4676TIP3    H213993   0.801   3.152   4.382 -0.4545  0.5253  0.5552
 4677TIP3   OH213994   6.717   0.749   0.780  0.1119  0.6036  0.2642
 4677TIP3    H113995   6.800   0.743   0.828 -0.4300  1.0484  1.2776
 4677TIP3    H213996   6.660   0.799   0.837 -0.5990  1.0421 -0.8071
 4678TIP3   OH213997   5.156   0.535   0.976  0.3054 -0.3671  0.3497
 4678TIP3    H113998   5.189   0.506   1.061  1.9203 -0.0142 -0.1167
 4678TIP3    H213999   5.064   0.510   0.976  0.5417 -1.3564  1.7614
 4679TIP3   OH214000   0.755   3.232   4.915 -0.4322  0.7285  0.3658
 4679TIP3    H114001   0.681   3.291   4.899 -0.1122  1.5009  1.6544
 4679TIP3    H214002   0.823   3.287   4.953  0.2353 -0.2875  0.6988
 4680TIP3   OH214003   5.272   1.379   1.021 -0.2227 -0.1163 -0.1235
 4680TIP3    H114004   5.246   1.343   1.105 -1.1532  2.3706  0.7372
 4680TIP3    H214005   5.279   1.303   0.963 -2.1425 -1.6345  1.5148
 4681TIP3   OH214006   1.633   5.786   5.640 -0.7092  0.0252  0.0508
 4681TIP3    H114007   1.613   5.816   5.551  0.7109  0.6703 -0.0693
 4681TIP3    H214008   1.547   5.764   5.677 -1.6045  2.1168 -0.6188
 4682TIP3   OH214009   3.973   1.978   1.947  0.4712  0.3815  0.2783
 4682TIP3    H114010   3.934   1.892   1.966  1.4648 -0.3960 -1.0041
 4682TIP3    H214011   3.917   2.040   1.993 -2.4759 -0.6563 -1.6183
 4683TIP3   OH214012   0.214   4.871   1.190 -0.0787 -0.6237  0.2630
 4683TIP3    H114013   0.223   4.922   1.110  0.3675  1.0594  1.3349
 4683TIP3    H214014   0.298   4.881   1.235 -0.7031 -0.5486  1.4744
 4684TIP3   OH214015   6.301   5.024   4.320 -0.2335  0.7797 -0.2158
 4684TIP3    H114016   6.277   5.095   4.261  0.5655  1.5142  0.3042
 4684TIP3    H214017   6.285   5.059   4.407  1.6323  0.9311  0.1120
 4685TIP3   OH214018   1.222   2.744   1.511 -0.0722  0.0277 -0.2430
 4685TIP3    H114019   1.145   2.687   1.515  0.9236 -1.3344  0.6755
 4685TIP3    H214020   1.224   2.775   1.421 -1.6883  0.1041 -0.2854
 4686TIP3   OH214021   3.034   4.763   3.289  0.3509 -0.0043  0.4797
 4686TIP3    H114022   2.988   4.692   3.334  1.5142 -1.4689 -0.4988
 4686TIP3    H214023   3.100   4.718   3.236  0.0512  1.7083 -1.4934
 4687TIP3   OH214024   1.579   3.790   1.731 -0.2603  0.2294 -0.1587
 4687TIP3    H114025   1.546   3.702   1.747 -2.2870  1.1225  0.9909
 4687TIP3    H214026   1.673   3.778   1.715 -0.6443 -2.2129 -1.1186
 4688TIP3   OH214027   6.591   2.662   5.437 -0.6605  0.3948 -0.3711
 4688TIP3    H114028   6.528   2.661   5.509 -0.0531  0.6024  0.1687
 4688TIP3    H214029   6.584   2.750   5.401 -0.5189  0.4912 -0.1649
 4689TIP3   OH214030   6.092   3.721   0.788 -0.0908  0.3915  0.1469
 4689TIP3    H114031   6.052   3.638   0.814 -0.3371  0.9815  1.7689
 4689TIP3    H214032   6.020   3.770   0.747  0.3310 -0.5953 -1.8797
 4690TIP3   OH214033   4.770   5.860   5.183  0.5761 -0.0039 -0.3502
 4690TIP3    H114034   4.748   5.826   5.269  1.8144  1.6894  0.7118
 4690TIP3    H214035   4.859   5.827   5.166 -0.0126 -1.0958 -1.4286
 4691TIP3   OH214036   3.455   5.407   0.502  0.3221  0.1261  0.1530
 4691TIP3    H114037   3.474   5.331   0.556 -0.7174 -0.8439 -0.7971
 4691TIP3    H214038   3.404   5.465   0.560 -0.8483 -0.9319  0.2371
 4692TIP3   OH214039   2.181   2.351   4.985  0.2631 -0.2295  0.2220
 4692TIP3    H114040   2.194   2.375   4.893  0.2573  1.5820  0.6651
 4692TIP3    H214041   2.183   2.255   4.984  1.8372 -0.2490 -1.4383
 4693TIP3   OH214042   4.255   0.205   0.991 -0.2462  0.4088  0.4191
 4693TIP3    H114043   4.175   0.248   0.959 -0.1650  0.7877  0.7200
 4693TIP3    H214044   4.224   0.123   1.030 -0.5330  0.7208  0.8599
 4694TIP3   OH214045   2.517   5.729   2.649  0.1562 -0.3905 -0.0659
 4694TIP3    H114046   2.434   5.740   2.603  0.6167 -0.7720 -1.0127
 4694TIP3    H214047   2.581   5.771   2.593  0.9667 -2.2359 -0.6037
 4695TIP3   OH214048   4.310   5.246   1.007  0.1288  0.3712 -0.3843
 4695TIP3    H114049   4.236   5.267   1.064  0.9283 -0.3726  0.9820
 4695TIP3    H214050   4.339   5.159   1.037  2.1056  1.0299 -0.2509
 4696TIP3   OH214051   0.560   3.095   0.330 -0.1736 -0.5399  0.2449
 4696TIP3    H114052   0.591   3.184   0.316 -1.0949 -0.3108 -0.4072
 4696TIP3    H214053   0.471   3.105   0.363  0.0593 -1.2096  1.1383
 4697TIP3   OH214054   2.661   4.265   4.829 -0.0067  0.4358 -0.2453
 4697TIP3    H114055   2.612   4.341   4.859  0.1227  0.9611 -1.3481
 4697TIP3    H214056   2.594   4.199   4.811 -0.0349 -0.5121  2.7069
 4698TIP3   OH214057   3.888   0.428   5.286 -0.2708  0.0263  0.4277
 4698TIP3    H114058   3.959   0.375   5.322  0.9508 -0.0702 -1.9289
 4698TIP3    H214059   3.911   0.439   5.194 -2.3700  1.6096  0.0233
 4699TIP3   OH214060   0.175   3.128   3.451 -0.3287  0.4262 -0.1560
 4699TIP3    H114061   0.263   3.098   3.474 -1.0523 -2.0426 -0.2359
 4699TIP3    H214062   0.151   3.188   3.522  0.5769 -0.6389  1.1210
 4700TIP3   OH214063   0.973   5.185   5.724  0.4495  0.1827 -0.2445
 4700TIP3    H114064   0.889   5.162   5.762 -0.0266 -0.3742 -1.5743
 4700TIP3    H214065   1.033   5.116   5.754  0.3654  0.4042  0.4402
 4701TIP3   OH214066   1.593   5.399   3.735  0.0981  0.3811 -0.4765
 4701TIP3    H114067   1.640   5.320   3.760 -1.2708 -0.4020 -0.2688
 4701TIP3    H214068   1.595   5.399   3.639  1.2981  0.8699 -0.4716
 4702TIP3   OH214069   1.423   4.665   5.470  0.1176  0.3097 -0.4118
 4702TIP3    H114070   1.413   4.760   5.456 -0.5498  0.3130  0.0147
 4702TIP3    H214071   1.461   4.633   5.389  1.1228  1.0617 -0.2564
 4703TIP3   OH214072   4.507   2.810   5.308 -0.2164 -0.2633  0.0201
 4703TIP3    H114073   4.489   2.716   5.300  0.1147 -0.3169 -0.1390
 4703TIP3    H214074   4.429   2.853   5.275 -0.3331 -0.4855  0.0051
 4704TIP3   OH214075   1.871   0.237   4.492 -0.5397 -0.3145  0.1497
 4704TIP3    H114076   1.812   0.230   4.417 -1.2077 -0.7931  0.7148
 4704TIP3    H214077   1.958   0.220   4.455 -0.8510 -0.4778 -0.5266
 4705TIP3   OH214078   1.921   2.260   2.671  0.2947  0.1337 -0.0799
 4705TIP3    H114079   1.860   2.281   2.742  0.7707  1.2288  0.0253
 4705TIP3    H214080   1.916   2.335   2.612 -0.7347 -1.1418 -1.6797
 4706TIP3   OH214081   1.439   6.357   4.962  0.0543 -0.0533  0.3099
 4706TIP3    H114082   1.427   6.367   5.056 -0.9188  1.0674  0.0891
 4706TIP3    H214083   1.414   6.442   4.925 -0.9114 -0.8910 -1.0606
 4707TIP3   OH214084   2.409   2.709   5.343  0.0523 -0.8588 -0.2092
 4707TIP3    H114085   2.498   2.735   5.319 -0.7378  0.1349 -2.3051
 4707TIP3    H214086   2.421   2.632   5.399  2.2810  0.5958  1.5176
 4708TIP3   OH214087   6.104   5.202   3.314  0.4556 -0.3131 -0.5808
 4708TIP3    H114088   6.038   5.264   3.284  0.4226 -0.3837 -0.6536
 4708TIP3    H214089   6.061   5.117   3.312 -0.4480 -0.0265  2.2752
 4709TIP3   OH214090   0.144   2.271   1.502 -0.6422 -0.0579  0.6664
 4709TIP3    H114091   0.208   2.208   1.535 -0.6274 -1.3450 -1.5665
 4709TIP3    H214092   0.093   2.221   1.438 -1.8563  1.7407  0.1533
 4710TIP3   OH214093   1.637   3.130   4.662 -0.0512  0.1574 -0.3713
 4710TIP3    H114094   1.674   3.042   4.663 -0.6663 -0.1085 -0.3331
 4710TIP3    H214095   1.688   3.177   4.596  0.2402 -0.2480 -0.4359
 4711TIP3   OH214096   0.192   1.829   3.889 -0.2479  0.0863  0.0275
 4711TIP3    H114097   0.107   1.816   3.932  0.4838  0.2209  1.5910
 4711TIP3    H214098   0.252   1.848   3.961  1.2688 -0.7459 -0.9696
 4712TIP3   OH214099   4.060   5.364   3.502  0.4428  0.3680 -0.2821
 4712TIP3    H114100   4.096   5.449   3.474  0.9943  0.2613  0.0802
 4712TIP3    H214101   3.966   5.372   3.488  0.2790  1.6188  1.1762
 4713TIP3   OH214102  -0.020   6.091   2.113 -0.1161  0.6243 -0.0419
 4713TIP3    H114103  -0.021   6.153   2.041 -1.4207  0.5359 -0.1338
 4713TIP3    H214104   0.058   6.114   2.164  1.0870  0.3916 -1.7040
 4714TIP3   OH214105   4.066   4.659   4.790  0.3559 -0.0699 -0.3989
 4714TIP3    H114106   4.035   4.747   4.811  0.2312 -0.3529  0.6562
 4714TIP3    H214107   4.030   4.604   4.859  2.1073 -0.6228  0.1122
 4715TIP3   OH214108   2.509   3.163   4.748  0.0931  0.1591 -0.2959
 4715TIP3    H114109   2.569   3.095   4.779 -0.3974  0.8507  2.4700
 4715TIP3    H214110   2.555   3.245   4.766 -0.9469  0.6451  0.2378
 4716TIP3   OH214111   1.518   4.712   4.641  0.5882 -0.3417  0.1776
 4716TIP3    H114112   1.526   4.730   4.735  0.8286  0.3656  0.0296
 4716TIP3    H214113   1.500   4.797   4.602 -0.2992 -0.7504 -0.3418
 4717TIP3   OH214114   0.035   3.317   2.812 -0.3274  0.0557  0.7905
 4717TIP3    H114115   0.030   3.326   2.717 -2.9535  0.8905  0.9348
 4717TIP3    H214116   0.091   3.390   2.840  0.8313 -0.4626 -0.1133
 4718TIP3   OH214117   1.132   5.559   0.759 -0.2123  0.3261 -0.1006
 4718TIP3    H114118   1.122   5.622   0.687 -2.1682  1.2295  0.8776
 4718TIP3    H214119   1.111   5.474   0.720  3.1742  0.0507 -1.6214
 4719TIP3   OH214120   5.518   5.625   0.789 -0.2202 -0.4185  0.1157
 4719TIP3    H114121   5.543   5.662   0.873 -1.0323 -2.1826  1.1939
 4719TIP3    H214122   5.468   5.694   0.745  1.6824  1.1430  0.2870
 4720TIP3   OH214123   6.820   1.141   0.308  0.0730 -0.1004 -0.3545
 4720TIP3    H114124   6.851   1.171   0.393 -1.9725  0.4581  0.2508
 4720TIP3    H214125   6.814   1.046   0.316 -3.2875  0.1038  1.4141
 4721TIP3   OH214126   1.370   0.448  -0.002  0.1786  0.2410 -0.1402
 4721TIP3    H114127   1.463   0.427   0.007 -0.1026 -0.9452  0.1572
 4721TIP3    H214128   1.356   0.523   0.056  0.7253 -0.2797  0.6866
 4722TIP3   OH214129   4.050   2.422   0.745 -0.0080 -0.1228  0.2631
 4722TIP3    H114130   4.041   2.342   0.798  0.3928  0.2651  0.9234
 4722TIP3    H214131   4.057   2.493   0.809  0.0925  0.3986 -0.3173
 4723TIP3   OH214132   2.439   2.445   5.442 -0.1563  0.1903 -0.0763
 4723TIP3    H114133   2.450   2.366   5.495 -0.3408 -0.3165 -0.7638
 4723TIP3    H214134   2.396   2.413   5.362 -1.4917  1.2117  0.2095
 4724TIP3   OH214135   2.054   1.955   2.414  0.2173  0.1089 -0.4830
 4724TIP3    H114136   2.080   1.941   2.505 -0.4252  0.2185 -0.2799
 4724TIP3    H214137   2.107   1.892   2.364  0.4896 -0.0290 -0.0266
 4725TIP3   OH214138   4.333   2.482   1.597 -0.5383  0.5495  0.0486
 4725TIP3    H114139   4.339   2.394   1.633  1.0181  0.6597  0.0878
 4725TIP3    H214140   4.243   2.488   1.565 -1.1334 -0.5037  1.4193
 4726TIP3   OH214141   6.447   5.887   0.776  0.1919  0.7443  0.1982
 4726TIP3    H114142   6.508   5.835   0.829  0.8428  3.1184  1.9478
 4726TIP3    H214143   6.362   5.872   0.817  0.0158 -0.4310 -0.5457
 4727TIP3   OH214144   4.245   4.418   4.818 -0.0466  0.0642  0.1318
 4727TIP3    H114145   4.190   4.441   4.893 -1.8094 -1.6147 -0.5559
 4727TIP3    H214146   4.294   4.498   4.799 -2.3831  1.7501  0.7108
 4728TIP3   OH214147   1.004   4.971   5.500  0.2497 -0.2643  0.3177
 4728TIP3    H114148   1.053   4.903   5.546 -1.2036 -1.2193  0.5406
 4728TIP3    H214149   0.925   4.983   5.553 -1.9337 -2.0432 -2.2361
 4729TIP3   OH214150   0.454   0.991   4.829 -0.5620 -0.2230 -0.2393
 4729TIP3    H114151   0.547   0.971   4.826 -0.3535  0.2479  1.7870
 4729TIP3    H214152   0.445   1.072   4.778 -0.1413 -1.0344 -1.6722
 4730TIP3   OH214153   6.842   0.195   3.577  0.4211 -0.3239  0.3268
 4730TIP3    H114154   6.811   0.147   3.654  0.9377  0.3473  0.9694
 4730TIP3    H214155   6.869   0.280   3.612 -0.3804  0.4118 -0.7687
 4731TIP3   OH214156   2.945   3.176   5.749 -0.9343 -0.9177  0.0833
 4731TIP3    H114157   2.908   3.089   5.764  1.6831 -2.6170 -2.3228
 4731TIP3    H214158   3.001   3.191   5.825 -2.5419 -0.5816  1.2532
 4732TIP3   OH214159   3.171   5.915   4.989 -0.3626  0.3432 -0.4324
 4732TIP3    H114160   3.083   5.879   5.001 -0.3164  0.2641 -0.3284
 4732TIP3    H214161   3.174   5.991   5.047 -0.8798  1.2523 -1.5509
 4733TIP3   OH214162   5.092   5.000   1.866  0.0116 -0.2558  0.1545
 4733TIP3    H114163   5.003   4.993   1.900  0.4923  1.7978  2.0178
 4733TIP3    H214164   5.146   5.020   1.942  1.6083  1.6353 -1.3640
 4734TIP3   OH214165   4.245   0.830   2.196 -0.0516  0.3174  0.3269
 4734TIP3    H114166   4.205   0.914   2.221  0.0207  0.2128  0.8010
 4734TIP3    H214167   4.187   0.796   2.128  0.4662  1.2240 -0.6128
 4735TIP3   OH214168   5.926   0.537   0.194  0.3343 -0.4365  0.0890
 4735TIP3    H114169   5.912   0.520   0.287  0.1306 -0.0655  0.1277
 4735TIP3    H214170   5.844   0.578   0.165  0.4866 -0.3333 -0.1967
 4736TIP3   OH214171   5.714   1.771   4.991 -0.7302  0.0849  0.2323
 4736TIP3    H114172   5.630   1.742   4.956 -1.6658  0.4142  2.0581
 4736TIP3    H214173   5.692   1.846   5.047  0.8117  0.3075  0.5963
 4737TIP3   OH214174   2.256   1.228   3.429  0.0563 -0.1279 -0.5963
 4737TIP3    H114175   2.248   1.137   3.400  0.9389 -0.4612  0.1819
 4737TIP3    H214176   2.292   1.275   3.353  3.2349 -1.1634  0.1456
 4738TIP3   OH214177   1.353   2.945   5.584 -0.2277  0.0879 -0.1330
 4738TIP3    H114178   1.433   2.995   5.571 -0.4553  0.5847  0.3446
 4738TIP3    H214179   1.373   2.887   5.658 -0.3415  0.2759  0.0441
 4739TIP3   OH214180   0.283   0.589   3.794  0.0918 -0.5237  0.4231
 4739TIP3    H114181   0.371   0.594   3.759  0.3564 -1.8166  0.8328
 4739TIP3    H214182   0.227   0.620   3.723  0.8996  1.0744  0.4406
 4740TIP3   OH214183   3.482   3.409   1.608 -0.4412  0.3597  0.0380
 4740TIP3    H114184   3.435   3.441   1.531 -1.2043 -1.5616 -0.3481
 4740TIP3    H214185   3.543   3.343   1.574  1.5933  1.7965  0.7097
 4741TIP3   OH214186   0.500   1.527   4.579  0.3941  0.4204  0.5833
 4741TIP3    H114187   0.411   1.546   4.606  0.5646  0.5690  1.0534
 4741TIP3    H214188   0.539   1.480   4.653  0.4988 -0.2647  0.1137
 4742TIP3   OH214189   5.577   3.091   4.086  0.4328  0.7492  0.3910
 4742TIP3    H114190   5.563   3.102   4.180 -0.7744  0.9987  0.1930
 4742TIP3    H214191   5.518   3.020   4.061 -0.2279  1.5587 -0.4015
 4743TIP3   OH214192   2.624   1.812   2.523 -0.3858  0.2000 -0.4203
 4743TIP3    H114193   2.529   1.812   2.526 -0.3783  0.6933 -0.1317
 4743TIP3    H214194   2.651   1.877   2.588  0.1998 -1.4668  1.0745
 4744TIP3   OH214195   1.093   4.688   3.463 -0.0320 -0.3378 -0.7113
 4744TIP3    H114196   1.100   4.671   3.369  1.3875  1.9516 -1.0977
 4744TIP3    H214197   1.184   4.693   3.494 -0.4682 -1.0054  0.8125
 4745TIP3   OH214198   4.785   1.637   4.156 -0.0511  0.0887  0.2181
 4745TIP3    H114199   4.750   1.644   4.067  0.8832  0.2622 -0.1441
 4745TIP3    H214200   4.879   1.632   4.144  0.1439  1.0190  1.2620
 4746TIP3   OH214201   5.931   1.215   4.969  0.0665 -0.3656 -0.0201
 4746TIP3    H114202   5.987   1.196   5.044 -1.4391 -0.2005  1.1694
 4746TIP3    H214203   5.869   1.142   4.966 -0.8723  0.4106 -0.1310
 4747TIP3   OH214204   4.217   1.847   4.569  0.1866  0.0473  0.1317
 4747TIP3    H114205   4.294   1.834   4.514  1.2385  0.4820  1.4259
 4747TIP3    H214206   4.159   1.903   4.517  0.2683 -1.1050 -1.2664
 4748TIP3   OH214207   6.297   2.193   3.712  0.2900  0.1201  0.0326
 4748TIP3    H114208   6.247   2.270   3.684  0.1558 -0.0104 -0.0934
 4748TIP3    H214209   6.341   2.220   3.792 -0.4541  0.0494  0.4706
 4749TIP3   OH214210   6.503   3.863   4.696  0.3128  0.6794 -0.0770
 4749TIP3    H114211   6.467   3.918   4.765 -2.8530 -0.7606 -0.4292
 4749TIP3    H214212   6.585   3.829   4.733 -1.7050 -0.8547  3.5237
 4750TIP3   OH214213   6.460   0.310   4.189 -0.7442 -0.0113  0.0450
 4750TIP3    H114214   6.392   0.318   4.256  0.7179 -1.6436  1.8409
 4750TIP3    H214215   6.447   0.223   4.152 -1.4144  0.8033 -1.7281
 4751TIP3   OH214216   2.939   0.693   4.627  0.3194  0.5403  0.3056
 4751TIP3    H114217   2.971   0.656   4.545  0.7795  0.1347  0.6667
 4751TIP3    H214218   2.941   0.788   4.612 -0.1214  0.4526 -0.3412
 4752TIP3   OH214219   0.860   6.532   1.173 -0.1796  0.4304  0.5141
 4752TIP3    H114220   0.776   6.504   1.211  0.7502 -0.7222  1.8294
 4752TIP3    H214221   0.861   6.627   1.184 -1.6719  0.5842 -0.3368
 4753TIP3   OH214222   5.844   3.928   4.628 -0.6120  0.1370  0.9466
 4753TIP3    H114223   5.767   3.871   4.638  0.7550 -1.6679  1.6032
 4753TIP3    H214224   5.897   3.910   4.706  0.9083  0.6886  0.0736
 4754TIP3   OH214225   2.954   3.456   5.287 -0.8220 -0.2894 -0.0062
 4754TIP3    H114226   2.917   3.424   5.205 -0.7163 -1.2461  0.3122
 4754TIP3    H214227   2.977   3.377   5.336 -0.8746  0.2704  0.9438
 4755TIP3   OH214228   5.782   3.108   1.008 -0.1464 -0.1484  0.1224
 4755TIP3    H114229   5.801   3.155   0.927 -1.8290 -1.2023 -0.9578
 4755TIP3    H214230   5.690   3.128   1.027  0.4850  0.9315  2.4089
 4756TIP3   OH214231   1.706   0.774   2.785 -0.0316  0.0032  0.9294
 4756TIP3    H114232   1.659   0.699   2.822 -0.0620  0.6890  2.3665
 4756TIP3    H214233   1.670   0.850   2.831  1.1302  0.7300  0.6759
 4757TIP3   OH214234   1.404   2.234   4.111 -0.6253  0.4827 -0.2810
 4757TIP3    H114235   1.324   2.207   4.156  0.2030 -0.5587  0.6313
 4757TIP3    H214236   1.459   2.270   4.180 -0.1512  0.8479 -0.8385
 4758TIP3   OH214237   1.190   3.650   5.547  0.3896  0.6138  0.2048
 4758TIP3    H114238   1.174   3.662   5.640 -0.4525  0.6897  0.0608
 4758TIP3    H214239   1.269   3.597   5.543 -0.0659 -0.1637  0.9885
 4759TIP3   OH214240   3.177   2.862   0.512 -0.0848 -0.0507  1.0471
 4759TIP3    H114241   3.129   2.920   0.571 -2.7517 -0.4812 -0.5750
 4759TIP3    H214242   3.134   2.777   0.521  0.2786 -0.4323 -0.5630
 4760TIP3   OH214243   2.441   4.158   4.731  0.2692 -0.0169  0.1748
 4760TIP3    H114244   2.366   4.099   4.720  0.2730 -0.1246  0.7237
 4760TIP3    H214245   2.402   4.245   4.737  0.2734  0.0634 -0.7895
 4761TIP3   OH214246   5.279   1.958   1.105 -0.1396 -0.0926 -0.1268
 4761TIP3    H114247   5.249   1.893   1.169  0.5177 -0.5255 -0.2388
 4761TIP3    H214248   5.277   1.912   1.021  1.4210 -0.3758 -0.0547
 4762TIP3   OH214249   3.515   3.634   3.619 -0.6308 -0.3060  0.1510
 4762TIP3    H114250   3.530   3.725   3.594  0.5194 -0.6065 -0.3240
 4762TIP3    H214251   3.582   3.616   3.685 -0.5871 -0.9182 -0.0483
 4763TIP3   OH214252   4.288   2.956   5.206  0.3253 -0.2783 -0.1891
 4763TIP3    H114253   4.243   2.929   5.126  1.9587 -0.5130 -1.0822
 4763TIP3    H214254   4.305   3.050   5.194  0.4551 -0.2850 -0.0647
 4764TIP3   OH214255   2.418   3.873   4.014  0.0662 -0.1672  0.0432
 4764TIP3    H114256   2.345   3.825   4.054  0.4125 -0.1710  0.6671
 4764TIP3    H214257   2.393   3.880   3.922 -0.7014 -0.2172  0.2415
 4765TIP3   OH214258   2.434   3.323   5.535 -0.1998  0.1363 -0.3170
 4765TIP3    H114259   2.488   3.244   5.528 -1.7719 -0.8361 -3.4692
 4765TIP3    H214260   2.462   3.379   5.463 -0.8693  1.3082  0.2952
 4766TIP3   OH214261   4.032   3.018   1.416  0.1365 -0.1531 -0.3919
 4766TIP3    H114262   4.122   3.017   1.385  0.3495  0.4469  0.1862
 4766TIP3    H214263   4.004   2.927   1.411  0.9499 -0.4300 -0.0812
 4767TIP3   OH214264   0.658   5.744   4.208 -0.4114  0.1711 -0.2740
 4767TIP3    H114265   0.652   5.721   4.301  1.4834  0.2000 -0.1069
 4767TIP3    H214266   0.575   5.714   4.170 -1.4522  0.6598  1.5132
 4768TIP3   OH214267   6.640   0.921   0.533 -0.1685 -0.4213 -0.4317
 4768TIP3    H114268   6.663   0.959   0.618 -2.1680 -0.6963  0.3039
 4768TIP3    H214269   6.672   0.831   0.537  0.1962 -0.2829 -0.1770
 4769TIP3   OH214270   2.056   4.108   0.766  0.0346 -0.4673 -0.8616
 4769TIP3    H114271   2.149   4.092   0.748  0.1699  0.7380 -1.3028
 4769TIP3    H214272   2.030   4.172   0.700 -0.2860  1.6186  1.1931
 4770TIP3   OH214273   2.067   6.252   2.391  0.5399 -0.3619 -0.5035
 4770TIP3    H114274   1.998   6.253   2.458 -0.7896 -0.7876 -1.8181
 4770TIP3    H214275   2.147   6.274   2.439 -0.5977  0.8299  0.9507
 4771TIP3   OH214276   7.101   1.931   3.248 -0.0441  0.1228 -0.4563
 4771TIP3    H114277   7.176   1.871   3.249 -0.2280 -0.1028  0.6313
 4771TIP3    H214278   7.047   1.901   3.174  1.3050  0.7783 -1.7691
 4772TIP3   OH214279   1.432   5.239   1.128  0.3772 -0.2391 -0.1475
 4772TIP3    H114280   1.454   5.165   1.185 -2.2713 -0.2768  0.9787
 4772TIP3    H214281   1.367   5.203   1.067  0.1845  0.8048 -0.5751
 4773TIP3   OH214282   2.931   6.037   4.674 -0.1710 -0.4622 -0.1802
 4773TIP3    H114283   2.881   5.985   4.736 -0.3863 -0.4092 -0.3077
 4773TIP3    H214284   2.875   6.042   4.596 -1.4858  2.4416  0.8218
 4774TIP3   OH214285   4.455   4.005   1.539  0.2139  0.4104  0.1427
 4774TIP3    H114286   4.498   3.919   1.541  3.0387  1.7320  0.9758
 4774TIP3    H214287   4.373   3.992   1.587  0.7566 -1.7124  0.5974
 4775TIP3   OH214288   3.358   6.825   3.697 -0.1090  0.1706  0.2828
 4775TIP3    H114289   3.304   6.809   3.620  1.0988  1.0079 -0.7856
 4775TIP3    H214290   3.361   6.741   3.743 -0.3426 -0.5150 -0.9200
 4776TIP3   OH214291   3.275   0.048   2.702 -0.3051 -0.0910 -0.3212
 4776TIP3    H114292   3.190   0.028   2.661 -0.5524  0.6460 -0.1808
 4776TIP3    H214293   3.330  -0.026   2.678 -0.7504 -0.1818 -1.1189
 4777TIP3   OH214294   0.362   3.451   3.305  0.0749 -0.5228  0.0489
 4777TIP3    H114295   0.307   3.529   3.307  2.9623  1.7499 -1.6314
 4777TIP3    H214296   0.391   3.440   3.396  1.8161  2.1681 -0.0706
 4778TIP3   OH214297   3.033   0.339   0.526 -0.6906  0.6218 -0.2714
 4778TIP3    H114298   3.095   0.393   0.478  0.1432  0.1959  0.3046
 4778TIP3    H214299   3.080   0.312   0.605 -2.4596  2.4502  1.5556
 4779TIP3   OH214300   4.041   3.851   5.809 -0.3895 -0.1749 -0.1909
 4779TIP3    H114301   4.004   3.895   5.733 -2.1844 -0.2852  0.5542
 4779TIP3    H214302   4.111   3.908   5.839  0.0587  0.0702 -1.6569
 4780TIP3   OH214303   4.105   2.814   4.390 -0.8285 -0.0372 -0.2263
 4780TIP3    H114304   4.092   2.892   4.336 -0.5866  1.1557  1.3676
 4780TIP3    H214305   4.146   2.751   4.331  0.1320  1.4645 -1.2549
 4781TIP3   OH214306   3.990   5.513   4.000  0.0097  0.6553 -0.6477
 4781TIP3    H114307   4.039   5.552   3.928 -0.1270  2.2191  0.0802
 4781TIP3    H214308   4.056   5.461   4.047  0.1204 -0.2957 -1.8038
 4782TIP3   OH214309   3.078   4.358   1.358  0.1380  0.3383  0.7716
 4782TIP3    H114310   3.065   4.422   1.428  2.3083  0.4464  1.1456
 4782TIP3    H214311   3.045   4.276   1.395  0.3791  0.5813  1.5494
 4783TIP3   OH214312   5.305   0.930   4.209 -0.1265  0.1507 -0.4040
 4783TIP3    H114313   5.307   1.005   4.268  1.4625  1.0834 -1.5780
 4783TIP3    H214314   5.397   0.910   4.192 -0.5250 -1.3870 -0.9957
 4784TIP3   OH214315   4.251   2.271   2.204 -0.0776  0.7579  0.0670
 4784TIP3    H114316   4.326   2.226   2.242 -0.8792 -0.1562  0.6054
 4784TIP3    H214317   4.239   2.230   2.118 -0.6224  0.1327  0.4332
 4785TIP3   OH214318   3.958   0.687   0.127  0.8031 -0.3497  0.3015
 4785TIP3    H114319   4.011   0.767   0.129 -1.2109  1.0235  1.2179
 4785TIP3    H214320   3.930   0.679   0.036 -2.8242  2.7650  0.9004
 4786TIP3   OH214321   7.047   3.965   1.070  0.1437  0.0013  0.3828
 4786TIP3    H114322   6.963   3.992   1.108 -0.2295  1.1988 -1.1892
 4786TIP3    H214323   7.104   4.041   1.081  1.4371 -1.1756  2.4315
 4787TIP3   OH214324   1.276   4.988   4.516 -0.0860 -0.1521 -0.6642
 4787TIP3    H114325   1.367   5.003   4.490 -0.4347 -0.1342 -1.9936
 4787TIP3    H214326   1.241   5.075   4.531  0.1027 -0.1564 -0.1918
 4788TIP3   OH214327   0.371   0.649   2.796  0.0044 -0.0307  0.2596
 4788TIP3    H114328   0.407   0.724   2.748 -0.1501 -0.4408 -0.5132
 4788TIP3    H214329   0.296   0.622   2.744 -0.2157 -0.4379  0.7863
 4789TIP3   OH214330   1.721   2.973   0.991 -0.1479  0.5928 -0.2164
 4789TIP3    H114331   1.628   2.999   0.988 -0.6097 -0.9788 -0.3831
 4789TIP3    H214332   1.768   3.056   1.001 -1.6626  1.3270  1.6611
 4790TIP3   OH214333   3.871   0.412   0.735  0.4985 -0.2794 -0.4782
 4790TIP3    H114334   3.858   0.318   0.722  0.2198 -0.2592 -0.3592
 4790TIP3    H214335   3.961   0.428   0.708 -0.0511 -0.2249 -2.4103
 4791TIP3   OH214336   7.030   5.152   5.105  0.4931  0.1906  0.2888
 4791TIP3    H114337   7.032   5.056   5.108  1.3834  0.1648 -0.6989
 4791TIP3    H214338   7.054   5.174   5.015  2.7098  1.3896  1.1006
 4792TIP3   OH214339   3.249   4.265   5.482 -0.4059  0.2886  0.2921
 4792TIP3    H114340   3.276   4.343   5.530 -2.1842  0.1825  1.5810
 4792TIP3    H214341   3.166   4.239   5.523  0.1596 -2.3377 -0.0170
 4793TIP3   OH214342   5.540   6.674   1.178 -0.3560 -0.4556 -0.3300
 4793TIP3    H114343   5.454   6.661   1.137 -1.1912  0.4504  1.0461
 4793TIP3    H214344   5.535   6.625   1.260  0.3193 -0.1107 -0.0725
 4794TIP3   OH214345   4.822   2.089   5.834 -0.0704 -0.4693 -0.1590
 4794TIP3    H114346   4.752   2.087   5.769  0.0942 -2.6997 -0.3413
 4794TIP3    H214347   4.778   2.118   5.915 -0.7119  0.2613 -0.7464
 4795TIP3   OH214348   3.942   0.064   1.391 -0.4714 -0.5060 -0.1740
 4795TIP3    H114349   3.885  -0.011   1.410  0.8436 -1.6728 -0.6762
 4795TIP3    H214350   3.991   0.078   1.471 -0.0698 -0.7874 -0.3645
 4796TIP3   OH214351   2.277   1.637   1.064  0.0924 -0.3917  0.4243
 4796TIP3    H114352   2.233   1.719   1.088 -1.0457 -1.3706  1.8867
 4796TIP3    H214353   2.348   1.628   1.128 -0.5388 -1.1154  1.0454
 4797TIP3   OH214354   5.114   2.838   5.545 -0.1854  0.1147  0.6503
 4797TIP3    H114355   5.057   2.818   5.471  0.3783  0.6208  0.0704
 4797TIP3    H214356   5.125   2.754   5.590 -0.7983 -0.1307  0.3585
 4798TIP3   OH214357   6.730   1.713   1.392  0.6468  0.0310  0.0367
 4798TIP3    H114358   6.779   1.673   1.320  0.7079 -1.6943  0.9718
 4798TIP3    H214359   6.640   1.685   1.379  0.7621 -0.8186  0.9382
 4799TIP3   OH214360   0.357   2.351   3.215  0.4119 -0.2725 -0.4770
 4799TIP3    H114361   0.417   2.384   3.282 -1.1110  0.0975  0.7611
 4799TIP3    H214362   0.360   2.256   3.225 -0.2800 -0.1979  0.5747
 4800TIP3   OH214363   4.881   4.900   3.264  0.1531 -0.0463  0.4071
 4800TIP3    H114364   4.933   4.838   3.213  0.2393 -0.5672  1.1098
 4800TIP3    H214365   4.923   4.985   3.249 -0.9405  0.1757 -1.8831
 4801TIP3   OH214366   5.947   6.102   0.315  0.2875  0.2063 -0.1675
 4801TIP3    H114367   5.961   6.102   0.410  0.9738 -1.6616 -0.2287
 4801TIP3    H214368   6.015   6.158   0.280  0.3179  0.5376  0.4178
 4802TIP3   OH214369   3.429   1.583   2.450 -0.1157 -0.3105 -0.6424
 4802TIP3    H114370   3.454   1.491   2.449  0.9523 -0.0510  0.1598
 4802TIP3    H214371   3.391   1.596   2.537 -1.3830 -0.2603 -1.1832
 4803TIP3   OH214372   3.176   2.501   1.918  0.5017 -0.3297  0.5923
 4803TIP3    H114373   3.097   2.554   1.930  0.1304 -0.6685 -0.2760
 4803TIP3    H214374   3.244   2.565   1.897  0.0806 -0.1616 -0.3321
 4804TIP3   OH214375   0.511   0.440   5.326  0.4580  0.2214 -0.7232
 4804TIP3    H114376   0.422   0.437   5.360  0.4522 -0.3573 -0.7716
 4804TIP3    H214377   0.537   0.532   5.334 -0.1740  0.4117 -0.8000
 4805TIP3   OH214378   4.136   4.269   5.507 -0.4938  0.0256 -0.0555
 4805TIP3    H114379   4.161   4.179   5.525  1.4402  0.4322 -0.5175
 4805TIP3    H214380   4.070   4.262   5.438  0.1083 -1.0131 -0.5501
 4806TIP3   OH214381   1.042   5.534   2.559  0.1173  0.3844 -0.2680
 4806TIP3    H114382   0.987   5.562   2.486  0.2887 -1.4813 -1.1581
 4806TIP3    H214383   0.982   5.524   2.633 -0.3581  0.5538 -0.6308
 4807TIP3   OH214384   1.551   5.042   2.761 -0.3900  0.2576 -0.3181
 4807TIP3    H114385   1.535   5.068   2.670  1.9493  2.0346 -0.3162
 4807TIP3    H214386   1.491   4.969   2.776 -3.2049  1.9722 -2.2388
 4808TIP3   OH214387   5.784   1.004   0.842  0.1689  0.3263  0.0994
 4808TIP3    H114388   5.691   1.022   0.836 -0.2087 -1.5386 -0.1235
 4808TIP3    H214389   5.824   1.056   0.772 -0.7143  0.9322  0.0324
 4809TIP3   OH214390   2.395   5.544   4.294 -0.1327  0.1538  0.0560
 4809TIP3    H114391   2.366   5.569   4.381 -0.1587  1.6061 -0.3313
 4809TIP3    H214392   2.486   5.518   4.305 -0.3894 -0.4989  0.6466
 4810TIP3   OH214393   6.619   1.963   1.640  0.4148  0.2351  0.4289
 4810TIP3    H114394   6.706   1.945   1.605 -0.1829  0.2239 -1.1593
 4810TIP3    H214395   6.624   2.053   1.673  1.0629  0.1792  0.4944
 4811TIP3   OH214396   5.841   5.874   4.330 -0.5423 -0.5205 -0.2184
 4811TIP3    H114397   5.863   5.957   4.288 -1.5532  0.1388  0.4950
 4811TIP3    H214398   5.925   5.833   4.348 -0.0017  0.5892 -0.1330
 4812TIP3   OH214399   5.096   2.024   5.808 -0.5023  0.5709 -0.2954
 4812TIP3    H114400   5.004   2.033   5.834 -0.4602 -1.1889  0.6370
 4812TIP3    H214401   5.094   1.969   5.730 -0.2322  0.2757 -0.0964
 4813TIP3   OH214402   5.544   0.580   1.829 -0.1948  0.1652  0.0900
 4813TIP3    H114403   5.545   0.670   1.861  0.3431 -0.1445  0.9653
 4813TIP3    H214404   5.557   0.588   1.734  0.0236  0.9912  0.1848
 4814TIP3   OH214405   3.872   1.712   4.094 -0.5454  0.1404  0.0910
 4814TIP3    H114406   3.964   1.719   4.120 -0.2672 -0.5228 -0.6835
 4814TIP3    H214407   3.855   1.792   4.045  0.1459 -0.5366 -1.3039
 4815TIP3   OH214408   3.499   4.481   4.560 -0.0301  0.1794 -0.3952
 4815TIP3    H114409   3.432   4.538   4.522 -0.0463 -0.6707 -1.7159
 4815TIP3    H214410   3.517   4.417   4.491 -0.0667 -1.4660  1.0777
 4816TIP3   OH214411   3.401   4.992   2.450  0.0888  0.3651  0.0613
 4816TIP3    H114412   3.364   4.924   2.508 -1.6059  1.5954  0.5077
 4816TIP3    H214413   3.484   5.015   2.491  0.7432 -1.4510 -0.1375
 4817TIP3   OH214414   6.995   5.367   1.417 -0.1797 -0.0504  0.3602
 4817TIP3    H114415   6.938   5.334   1.348  2.4243 -0.9827 -1.4660
 4817TIP3    H214416   6.972   5.314   1.494 -1.5405 -0.5808 -0.3733
 4818TIP3   OH214417   7.200   1.614   1.701  0.2671 -0.1798 -0.5709
 4818TIP3    H114418   7.130   1.569   1.749 -0.7266  0.3457 -1.4891
 4818TIP3    H214419   7.237   1.547   1.644 -0.0238 -0.2789 -0.6465
 4819TIP3   OH214420   2.544   4.479   3.907 -0.2157  0.3682  0.1269
 4819TIP3    H114421   2.506   4.399   3.870 -1.0269  1.2283 -0.9861
 4819TIP3    H214422   2.490   4.497   3.985  0.2116 -0.3484  0.6028
 4820TIP3   OH214423   1.906   6.299   2.600 -0.2766  0.3859 -0.3095
 4820TIP3    H114424   1.939   6.302   2.690  2.1956  1.3462 -1.1607
 4820TIP3    H214425   1.822   6.254   2.607  0.2881 -0.4528  2.3442
 4821TIP3   OH214426   6.355   2.046   5.092 -0.2177  0.1163 -0.5112
 4821TIP3    H114427   6.296   2.116   5.118 -1.8530  0.0895 -3.6739
 4821TIP3    H214428   6.439   2.089   5.077 -0.3856  0.8124  0.4648
 4822TIP3   OH214429   5.157   4.956   4.390 -0.5228 -0.3800 -0.0486
 4822TIP3    H114430   5.067   4.973   4.363 -0.4609  1.8460  0.9182
 4822TIP3    H214431   5.197   5.043   4.395  1.3481 -1.2317  0.6435
 4823TIP3   OH214432   2.786   6.087   3.964 -0.1501 -0.5075 -0.2854
 4823TIP3    H114433   2.765   6.105   3.872  1.9260 -2.1765 -1.1667
 4823TIP3    H214434   2.855   6.021   3.960 -0.1845 -0.8107  2.5083
 4824TIP3   OH214435   6.313   3.362   4.343 -0.5617 -0.0017 -0.1402
 4824TIP3    H114436   6.252   3.307   4.392 -0.1982 -0.7437 -0.5056
 4824TIP3    H214437   6.258   3.431   4.306 -1.2174 -0.7527 -0.5972
 4825TIP3   OH214438   6.790   6.091   0.847 -0.6907 -0.5088 -0.7186
 4825TIP3    H114439   6.759   6.034   0.917 -3.8634  1.1872 -0.5651
 4825TIP3    H214440   6.853   6.149   0.890  0.3499 -1.9453 -0.2257
 4826TIP3   OH214441   3.289   5.773   4.399  0.9467  0.7615  0.1130
 4826TIP3    H114442   3.200   5.808   4.388  0.8476  1.0530  1.6342
 4826TIP3    H214443   3.345   5.850   4.398  1.0330  0.7075  0.4513
 4827TIP3   OH214444   5.772   0.857   1.270  0.2450  0.2344  0.1086
 4827TIP3    H114445   5.770   0.799   1.346  1.3163 -1.9295 -1.4197
 4827TIP3    H214446   5.844   0.824   1.216 -0.5223  1.6289 -1.9002
 4828TIP3   OH214447   3.907   4.636   5.242 -0.2123 -0.2218  0.2056
 4828TIP3    H114448   3.890   4.643   5.336  0.6477  0.8044  0.3092
 4828TIP3    H214449   3.925   4.725   5.214  3.2902 -0.8990 -0.1562
 4829TIP3   OH214450   2.495   2.097   0.082  0.4329  0.4231 -0.1226
 4829TIP3    H114451   2.462   2.172   0.131  0.4102 -0.1886  0.8380
 4829TIP3    H214452   2.538   2.135   0.006 -0.5008  1.3511 -0.2167
 4830TIP3   OH214453   4.293   1.178   4.487 -0.1002 -0.0515 -0.2294
 4830TIP3    H114454   4.305   1.160   4.580  0.3789  0.7879 -0.1127
 4830TIP3    H214455   4.233   1.110   4.457 -1.3191  0.4362  0.9894
 4831TIP3   OH214456   7.103   2.862   4.045  0.0452 -0.3283  0.1455
 4831TIP3    H114457   7.042   2.914   3.992 -0.0688  1.1134  1.6097
 4831TIP3    H214458   7.051   2.837   4.122  0.5527 -1.3402  0.1642
 4832TIP3   OH214459   6.086   0.454   1.095  0.1589 -0.3265  0.2388
 4832TIP3    H114460   6.168   0.486   1.059  0.6454 -1.0950  0.6358
 4832TIP3    H214461   6.106   0.365   1.126 -0.6487 -0.2769  0.9447
 4833TIP3   OH214462   6.524   1.890   4.314 -0.4930 -0.3870 -0.2695
 4833TIP3    H114463   6.569   1.969   4.344 -1.9992  0.4746 -0.1125
 4833TIP3    H214464   6.560   1.820   4.367  0.6079  0.2532 -0.1332
 4834TIP3   OH214465   3.053   4.716   5.103  0.0153  0.3258 -0.7417
 4834TIP3    H114466   3.129   4.767   5.076  2.4737 -1.6257  1.9211
 4834TIP3    H214467   3.036   4.744   5.193 -1.8684  0.0236 -0.9629
 4835TIP3   OH214468   7.119   6.773   2.702 -0.2337  0.6020 -0.3474
 4835TIP3    H114469   7.188   6.784   2.637  0.0740  1.1442  0.0585
 4835TIP3    H214470   7.040   6.807   2.660  0.4372  3.3933  0.4070
 4836TIP3   OH214471   3.144   0.148   1.644  0.1255 -0.0725  0.1106
 4836TIP3    H114472   3.140   0.059   1.678  1.7008 -0.4009 -0.4795
 4836TIP3    H214473   3.233   0.178   1.664 -0.6998  1.7740  1.2382
 4837TIP3   OH214474   0.047   4.413   5.324  0.5123 -0.1567  0.1508
 4837TIP3    H114475  -0.025   4.469   5.295 -0.4058 -0.5342  1.5616
 4837TIP3    H214476   0.010   4.363   5.397  3.1064  2.1054  3.3440
 4838TIP3   OH214477   0.509   4.621   4.290  0.2319  0.0533  0.6225
 4838TIP3    H114478   0.480   4.709   4.312 -0.3388  0.0996 -0.2697
 4838TIP3    H214479   0.526   4.625   4.195 -1.4870 -1.2473  0.2193
 4839TIP3   OH214480   1.173   5.098   5.008  0.0082  0.4132  0.9243
 4839TIP3    H114481   1.193   5.042   5.084 -2.1943  0.0149  1.2676
 4839TIP3    H214482   1.223   5.059   4.936  0.4580 -0.4896  1.6950
 4840TIP3   OH214483   4.344   2.414   1.219 -0.1255 -0.5443 -0.5237
 4840TIP3    H114484   4.382   2.476   1.157 -0.7450  0.0631 -0.3077
 4840TIP3    H214485   4.255   2.399   1.187 -0.6641  0.2512  0.5489
 4841TIP3   OH214486   4.377   1.245   5.034  0.4901 -0.4998  0.0882
 4841TIP3    H114487   4.291   1.242   5.077  0.3094 -2.9660 -0.3026
 4841TIP3    H214488   4.436   1.204   5.097  1.4280  1.1659  0.3471
 4842TIP3   OH214489   0.714   0.861   3.751 -0.2291 -0.3725 -0.4440
 4842TIP3    H114490   0.788   0.917   3.729 -0.9452  0.0736 -1.8147
 4842TIP3    H214491   0.663   0.856   3.671 -0.3394 -2.7846 -0.2984
 4843TIP3   OH214492   5.306   4.114   2.890  0.0225 -0.7254  0.8627
 4843TIP3    H114493   5.246   4.152   2.954 -0.6125 -0.1790 -0.0222
 4843TIP3    H214494   5.379   4.080   2.941 -0.5348 -0.4234  1.8726
 4844TIP3   OH214495   2.261   5.023   3.961 -0.1826  0.9732  0.0795
 4844TIP3    H114496   2.242   5.028   3.867  1.3555 -1.3654 -0.4436
 4844TIP3    H214497   2.352   5.051   3.969  0.3245 -0.7264  0.5567
 4845TIP3   OH214498   6.889   4.181   2.986  0.0060  0.2439 -0.8644
 4845TIP3    H114499   6.855   4.093   2.970  0.4351  0.0811 -0.8993
 4845TIP3    H214500   6.965   4.189   2.928  1.1259 -0.0726  0.4944
 4846TIP3   OH214501   0.070   2.890   4.681  0.4901 -0.0724 -0.1970
 4846TIP3    H114502   0.099   2.798   4.677 -0.3457 -0.3489 -0.1389
 4846TIP3    H214503   0.076   2.920   4.590  0.5362 -0.2537 -0.2553
 4847TIP3   OH214504   0.220   5.064   4.931  0.4137 -0.3281 -0.0252
 4847TIP3    H114505   0.182   4.976   4.927 -0.2650 -0.0213 -2.0679
 4847TIP3    H214506   0.152   5.120   4.893  1.2923  0.9054  0.1663
 4848TIP3   OH214507   6.349   1.060   3.348 -0.6906 -0.4512  0.3641
 4848TIP3    H114508   6.308   1.018   3.424  1.3931 -1.2942  1.0921
 4848TIP3    H214509   6.310   1.147   3.346 -1.2272 -0.6027  2.0806
 4849TIP3   OH214510   6.878   0.118   3.317  0.4681  0.1305 -0.0813
 4849TIP3    H114511   6.849   0.130   3.407 -0.4764  1.3126 -0.4939
 4849TIP3    H214512   6.844   0.196   3.271  2.6045  0.5675 -1.0622
 4850TIP3   OH214513   2.526   0.535   5.598 -0.2165 -0.1178 -0.2362
 4850TIP3    H114514   2.463   0.479   5.552 -0.8552  0.9412 -0.6989
 4850TIP3    H214515   2.597   0.547   5.536  0.0837 -0.6759 -0.0085
 4851TIP3   OH214516   3.974   0.108   4.757 -0.1351 -0.1874 -0.5354
 4851TIP3    H114517   3.955   0.186   4.705  1.0366 -0.1811 -0.9713
 4851TIP3    H214518   3.929   0.124   4.841 -1.0346  0.3363 -1.0971
 4852TIP3   OH214519   6.045   5.592   4.628 -0.3128  0.2020 -0.3185
 4852TIP3    H114520   6.054   5.538   4.707 -0.1316 -0.2635 -0.6554
 4852TIP3    H214521   6.097   5.670   4.647 -0.0991  0.0011 -0.0554
 4853TIP3   OH214522   4.316   1.742   3.233 -1.0435 -0.2289  0.2106
 4853TIP3    H114523   4.403   1.711   3.209 -0.1363  2.3917 -0.1935
 4853TIP3    H214524   4.280   1.672   3.288  1.1653 -1.5083  0.1502
 4854TIP3   OH214525   2.175   5.748   4.160 -0.0812 -0.5990 -0.1659
 4854TIP3    H114526   2.252   5.703   4.195 -0.7122 -1.2800  0.3826
 4854TIP3    H214527   2.195   5.841   4.170  1.2146 -0.7367 -1.2454
 4855TIP3   OH214528   3.255   1.369   1.819  0.2377  0.2595  0.3294
 4855TIP3    H114529   3.270   1.401   1.730 -1.1874 -0.4867 -0.2070
 4855TIP3    H214530   3.177   1.416   1.848  0.1926 -0.1430  0.8751
 4856TIP3   OH214531   1.595   0.989   3.219  0.4997  0.3044 -0.0349
 4856TIP3    H114532   1.505   1.001   3.249  0.3260 -0.4465 -0.2157
 4856TIP3    H214533   1.638   0.942   3.290  0.9686  1.3151  0.3721
 4857TIP3   OH214534   3.775   3.918   3.421 -0.1318 -0.1560 -0.3308
 4857TIP3    H114535   3.811   3.972   3.351 -1.2194  2.9192  1.2978
 4857TIP3    H214536   3.851   3.873   3.459  1.3876  2.5683  0.0935
 4858TIP3   OH214537   7.071   1.690   0.082  0.1280 -0.8135 -0.4894
 4858TIP3    H114538   7.066   1.661   0.173 -0.9347  0.5820 -0.0640
 4858TIP3    H214539   7.146   1.749   0.079 -0.6105  0.1643 -0.1841
 4859TIP3   OH214540   1.465   4.441   1.640 -0.2250 -0.5396 -0.3464
 4859TIP3    H114541   1.539   4.394   1.679 -0.6431 -0.9517 -0.0449
 4859TIP3    H214542   1.460   4.406   1.550  0.4077  0.0311 -0.6120
 4860TIP3   OH214543   6.531   6.520   5.797 -0.0346  0.3117  0.4376
 4860TIP3    H114544   6.602   6.474   5.752  0.0588  1.4757 -0.6522
 4860TIP3    H214545   6.572   6.559   5.874  0.1630 -0.2862  0.6436
 4861TIP3   OH214546   5.466   1.179   4.898 -0.0619 -0.1329 -0.5393
 4861TIP3    H114547   5.499   1.090   4.913  0.8634 -0.1002 -2.1141
 4861TIP3    H214548   5.371   1.169   4.895  0.0574 -1.3393 -1.9657
 4862TIP3   OH214549   2.965   1.507   0.755 -0.6856 -0.3560  0.4763
 4862TIP3    H114550   2.977   1.518   0.660  1.4620  1.0805  0.8304
 4862TIP3    H214551   2.871   1.524   0.769 -1.1709 -1.1569 -1.4169
 4863TIP3   OH214552   1.190   1.763   4.519  0.0077 -0.0978 -0.3906
 4863TIP3    H114553   1.164   1.824   4.588  1.8081 -0.4212  0.6598
 4863TIP3    H214554   1.206   1.818   4.442 -0.1486  0.5283  0.0200
 4864TIP3   OH214555   1.397   5.730   0.196  0.4648  0.0805 -0.4032
 4864TIP3    H114556   1.369   5.701   0.109  0.6472 -0.1535 -0.3827
 4864TIP3    H214557   1.436   5.653   0.236 -1.6439 -0.4913  0.7511
 4865TIP3   OH214558   6.839   4.853   5.359 -0.9117 -0.0665 -0.1157
 4865TIP3    H114559   6.912   4.852   5.298 -0.4990 -3.3653  0.2537
 4865TIP3    H214560   6.844   4.939   5.401  3.0187 -0.2470  0.1752
 4866TIP3   OH214561   4.662   4.930   4.466 -0.0107 -0.0721  0.2393
 4866TIP3    H114562   4.687   4.982   4.389 -2.5806 -0.4635 -0.9771
 4866TIP3    H214563   4.693   4.841   4.446  1.6134  0.3209  0.8900
 4867TIP3   OH214564   4.333   1.252   2.341 -0.5191  0.1791 -0.0933
 4867TIP3    H114565   4.257   1.308   2.327 -0.8561 -0.3768 -0.5418
 4867TIP3    H214566   4.335   1.239   2.436 -0.4919  0.8648  0.0068
 4868TIP3   OH214567   1.383   4.904   5.738 -0.3788 -0.3680 -0.3265
 4868TIP3    H114568   1.429   4.832   5.781 -2.0266 -1.1995  0.1572
 4868TIP3    H214569   1.430   4.983   5.766  0.3543 -1.1182  0.6427
 4869TIP3   OH214570   3.879   4.267   4.978  0.0344 -0.3416 -0.0510
 4869TIP3    H114571   3.865   4.275   4.884 -0.6775  1.5777  0.1565
 4869TIP3    H214572   3.912   4.178   4.991  1.8715 -0.0600 -2.2945
 4870TIP3   OH214573   4.507   3.510   3.310 -0.1230 -0.1012  0.5824
 4870TIP3    H114574   4.554   3.430   3.288  1.5693  0.4288  2.0331
 4870TIP3    H214575   4.472   3.542   3.227 -0.7371 -2.2452 -0.0516
 4871TIP3   OH214576   0.135   6.195   5.103 -0.0941  0.3243 -0.5819
 4871TIP3    H114577   0.172   6.279   5.075  0.1886  0.3390 -0.1809
 4871TIP3    H214578   0.104   6.154   5.022  3.4767 -1.0402 -1.4768
 4872TIP3   OH214579   3.766   5.542   4.159  0.4408  0.7549 -0.2293
 4872TIP3    H114580   3.710   5.465   4.149 -0.1368  0.8720  1.8046
 4872TIP3    H214581   3.840   5.525   4.100  0.1609 -1.2016 -0.0822
 4873TIP3   OH214582   3.295   0.837   1.954  0.8737  0.1981  0.2153
 4873TIP3    H114583   3.268   0.755   1.995  1.0827  0.7028  1.3991
 4873TIP3    H214584   3.213   0.880   1.929  0.7694 -0.4950 -0.7203
 4874TIP3   OH214585   6.845   6.679   3.341  0.4717  1.2767  0.0663
 4874TIP3    H114586   6.927   6.657   3.297  0.1696  0.4163 -0.0867
 4874TIP3    H214587   6.830   6.606   3.402  0.1275  1.7233  0.5292
 4875TIP3   OH214588   0.153   5.879   5.783 -0.1999  0.3774 -0.2561
 4875TIP3    H114589   0.144   5.823   5.860  0.1613  0.7999  0.1005
 4875TIP3    H214590   0.170   5.966   5.819 -0.6917  0.7057 -0.8075
 4876TIP3   OH214591   6.205   1.361   2.174  0.0595  0.5765 -0.5480
 4876TIP3    H114592   6.147   1.287   2.157 -0.4185  0.6948  0.5186
 4876TIP3    H214593   6.151   1.423   2.223  0.4354  1.6618 -1.4585
 4877TIP3   OH214594   3.837   4.684   2.588 -0.3037  0.0084  0.6359
 4877TIP3    H114595   3.762   4.711   2.535 -1.2576 -2.1112  0.8272
 4877TIP3    H214596   3.889   4.764   2.598 -2.5455  1.5665  0.5373
 4878TIP3   OH214597   2.080   6.760   0.668 -0.1200 -0.1997  0.1935
 4878TIP3    H114598   2.111   6.765   0.577  2.8906 -0.7634  1.1055
 4878TIP3    H214599   2.065   6.851   0.693  0.3003  0.0606 -0.4684
 4879TIP3   OH214600   0.269   6.461   1.502 -0.2941  0.3113 -0.3401
 4879TIP3    H114601   0.277   6.497   1.414 -0.1730 -1.6425 -1.1905
 4879TIP3    H214602   0.264   6.366   1.489  0.7817 -0.1210  1.8135
 4880TIP3   OH214603   1.191   1.090   4.077  0.2500  0.2496 -0.4308
 4880TIP3    H114604   1.175   0.996   4.065 -1.1703  0.3017  0.7941
 4880TIP3    H214605   1.280   1.103   4.045  0.4367 -1.4927 -0.7328
 4881TIP3   OH214606   0.037   0.644   3.334 -0.0556 -0.2051 -0.4761
 4881TIP3    H114607  -0.025   0.573   3.352 -0.2467  0.4312  1.7391
 4881TIP3    H214608   0.107   0.631   3.398  0.5673  0.8436 -0.9144
 4882TIP3   OH214609   7.185   2.404   3.606 -0.3315 -0.5314 -0.4335
 4882TIP3    H114610   7.216   2.490   3.579 -1.2736  0.0399  0.2873
 4882TIP3    H214611   7.186   2.352   3.525  0.0850  0.1902 -0.8986
 4883TIP3   OH214612   4.038   3.943   2.427 -0.3795  0.5055 -0.2656
 4883TIP3    H114613   4.041   3.889   2.348 -1.4818 -0.3812  0.2711
 4883TIP3    H214614   3.982   4.017   2.403 -1.1317 -0.0246 -0.1747
 4884TIP3   OH214615   6.102   1.412   0.140 -0.8460  0.0669 -0.1465
 4884TIP3    H114616   6.076   1.444   0.053  1.4632  2.0805 -0.2051
 4884TIP3    H214617   6.143   1.488   0.182  2.1141 -1.9688  0.9808
 4885TIP3   OH214618   3.577   1.250   0.691 -0.3830 -0.3377 -0.2326
 4885TIP3    H114619   3.483   1.245   0.673 -0.4859 -0.5403  0.3127
 4885TIP3    H214620   3.619   1.238   0.606 -0.8521 -0.1505 -0.4957
 4886TIP3   OH214621   5.404   1.941   0.085 -0.1763  0.0632 -0.3888
 4886TIP3    H114622   5.473   1.876   0.093 -0.0653  0.3295  1.1576
 4886TIP3    H214623   5.419   1.982  -0.000  1.2603 -0.2233 -0.2924
 4887TIP3   OH214624   6.254   1.542   1.238  0.1145 -0.4704 -0.4413
 4887TIP3    H114625   6.192   1.470   1.248  0.0711 -0.3490  0.1947
 4887TIP3    H214626   6.259   1.582   1.324 -1.6278  1.7376 -1.2808
 4888TIP3   OH214627   6.612   5.102   3.352  0.0603 -0.2863 -0.4683
 4888TIP3    H114628   6.614   5.145   3.267 -2.1624  0.4297 -0.2275
 4888TIP3    H214629   6.559   5.160   3.407  1.3974 -0.7372  1.4190
 4889TIP3   OH214630   3.677   3.264   3.827 -0.2813 -0.8063 -0.3597
 4889TIP3    H114631   3.637   3.283   3.912 -2.0160 -0.7530 -1.1275
 4889TIP3    H214632   3.767   3.294   3.835 -0.2571 -1.2869  1.6197
 4890TIP3   OH214633   6.554   4.473   5.099 -0.0268  0.0788 -0.1167
 4890TIP3    H114634   6.563   4.411   5.171 -0.7807  1.3577  1.1108
 4890TIP3    H214635   6.466   4.458   5.065 -0.1157  0.3025  0.0145
 4891TIP3   OH214636   4.195   3.883   1.331 -1.0991 -0.4545  0.4341
 4891TIP3    H114637   4.208   3.948   1.262 -0.6100  0.3156  1.2361
 4891TIP3    H214638   4.153   3.931   1.402 -0.5237 -0.9540  1.1226
 4892TIP3   OH214639   1.358   4.797   0.954  0.5839 -0.7378  0.2481
 4892TIP3    H114640   1.447   4.832   0.949  0.5992 -0.8338 -0.1275
 4892TIP3    H214641   1.370   4.703   0.966  0.5441 -0.6281  1.3119
 4893TIP3   OH214642   2.076   1.680   1.360 -0.3402  0.0667  0.6768
 4893TIP3    H114643   2.100   1.587   1.355  0.2769  0.1939  1.1342
 4893TIP3    H214644   1.989   1.684   1.321 -0.0990 -0.6047  0.0256
 4894TIP3   OH214645   2.551   6.559   5.396  0.3482 -0.1252 -0.0821
 4894TIP3    H114646   2.580   6.650   5.397 -2.6496  0.9308 -0.3326
 4894TIP3    H214647   2.564   6.529   5.486  2.2535  0.1846 -0.2142
 4895TIP3   OH214648   4.000   0.653   4.697 -0.5931  0.4865  0.2159
 4895TIP3    H114649   3.977   0.659   4.604 -0.3674 -0.5334  0.0836
 4895TIP3    H214650   4.040   0.738   4.717 -1.2463  0.9596 -0.4427
 4896TIP3   OH214651   3.692   0.166   0.267  0.2103  0.1023  0.1145
 4896TIP3    H114652   3.680   0.108   0.191  0.8772  1.0194 -0.7159
 4896TIP3    H214653   3.747   0.117   0.327 -0.0756 -0.5179 -0.1210
 4897TIP3   OH214654   5.464   5.936   0.351 -0.6940 -0.1020  0.0598
 4897TIP3    H114655   5.393   5.889   0.309 -0.9202 -0.9631  1.3523
 4897TIP3    H214656   5.528   5.868   0.372  0.5774  0.6682 -1.1499
 4898TIP3   OH214657   4.461   5.931   3.225 -0.6078  0.1009 -0.3710
 4898TIP3    H114658   4.394   5.917   3.158 -0.3626 -0.0105 -0.5921
 4898TIP3    H214659   4.527   5.985   3.183 -0.5189  0.1427 -0.1780
 4899TIP3   OH214660   4.168   3.372   5.555  0.4276  0.4461  0.2032
 4899TIP3    H114661   4.169   3.419   5.472  0.8174 -0.7571 -0.4895
 4899TIP3    H214662   4.117   3.293   5.537  0.5140  0.1729  1.1145
 4900TIP3   OH214663   4.727   1.633   0.999 -0.3825 -0.5317 -0.4022
 4900TIP3    H114664   4.809   1.678   0.977 -1.0969 -0.1255 -2.5555
 4900TIP3    H214665   4.735   1.611   1.091  2.2098 -0.6339 -0.5755
 4901TIP3   OH214666   0.283   1.054   0.222  0.1498 -0.4009 -0.6727
 4901TIP3    H114667   0.209   1.026   0.168 -2.2849  0.5829  1.9593
 4901TIP3    H214668   0.304   0.978   0.275 -1.0857  0.1916  0.7347
 4902TIP3   OH214669   3.731   0.792   1.972 -0.6054  0.2368  0.0009
 4902TIP3    H114670   3.706   0.703   1.995 -0.0300  0.2363  0.6449
 4902TIP3    H214671   3.795   0.781   1.901 -2.2283  0.2339 -1.5395
 4903TIP3   OH214672   2.960   2.979   2.254  0.8903  0.4329  0.2043
 4903TIP3    H114673   2.887   2.998   2.195  0.3614  0.5663  0.8840
 4903TIP3    H214674   2.970   3.058   2.307  0.8458  0.0408  0.8137
 4904TIP3   OH214675   1.496   1.559   0.496  0.3001  0.5289  0.5288
 4904TIP3    H114676   1.533   1.566   0.584  0.9734 -0.0962  0.3135
 4904TIP3    H214677   1.482   1.465   0.484 -0.1703  0.6505  0.1214
 4905TIP3   OH214678   1.817   1.892   0.360 -0.5967  0.3823 -0.0014
 4905TIP3    H114679   1.842   1.806   0.325 -0.5127  0.4089 -0.0062
 4905TIP3    H214680   1.897   1.944   0.356  0.1107 -0.3504  2.5417
 4906TIP3   OH214681   6.992   0.673   4.472  0.8383 -0.8789  0.0271
 4906TIP3    H114682   6.968   0.764   4.487 -0.4349 -1.2814  0.5888
 4906TIP3    H214683   7.059   0.677   4.404  1.8373  0.5569  1.0326
 4907TIP3   OH214684   3.162   3.620   5.247  0.4822 -0.2346 -0.3425
 4907TIP3    H114685   3.076   3.582   5.261 -0.4579  1.6393 -0.6819
 4907TIP3    H214686   3.156   3.662   5.161  2.2335 -1.3016 -1.0422
 4908TIP3   OH214687   5.944   1.753   2.930  0.5285 -0.0542  0.4033
 4908TIP3    H114688   6.003   1.695   2.881 -0.9131 -0.5069 -0.8551
 4908TIP3    H214689   5.947   1.720   3.020  2.0507 -0.1624  0.3478
 4909TIP3   OH214690   4.282   6.045   2.073  0.7977  0.3726  0.3210
 4909TIP3    H114691   4.322   6.007   1.995  1.2297  0.2073  0.6260
 4909TIP3    H214692   4.342   6.114   2.101  0.7698  0.2636  0.6570
 4910TIP3   OH214693   2.269   5.076   0.870  0.7642  0.5629 -0.6662
 4910TIP3    H114694   2.307   4.999   0.828  0.1512  0.1340 -0.4373
 4910TIP3    H214695   2.337   5.108   0.929  0.2688 -1.0575  0.8435
 4911TIP3   OH214696   3.618   3.541   5.000  0.0144 -0.7337  0.6967
 4911TIP3    H114697   3.586   3.474   4.940 -0.2315 -1.3555  1.5149
 4911TIP3    H214698   3.540   3.593   5.021  0.3339  0.2767 -0.4958
 4912TIP3   OH214699   5.102   2.475   2.529  0.6186 -0.1403 -0.2950
 4912TIP3    H114700   5.096   2.393   2.578  0.4558  0.2992  0.4402
 4912TIP3    H214701   5.013   2.492   2.499  0.7133 -0.3964 -0.7251
 4913TIP3   OH214702   1.578   6.567   1.161 -0.3262  0.4058 -0.5108
 4913TIP3    H114703   1.611   6.477   1.162  0.2156  0.5989 -0.1953
 4913TIP3    H214704   1.538   6.578   1.075 -1.0735 -0.3712 -0.2749
 4914TIP3   OH214705   6.628   1.219   3.642 -0.3219 -0.2943  0.4582
 4914TIP3    H114706   6.696   1.282   3.665 -0.2493 -0.7318  1.5120
 4914TIP3    H214707   6.599   1.245   3.555  0.5984  0.4118  0.3522
 4915TIP3   OH214708   1.437   0.658   2.014  0.1892 -0.2011 -0.1393
 4915TIP3    H114709   1.386   0.632   1.938 -1.0102 -1.6837  1.0975
 4915TIP3    H214710   1.425   0.753   2.019 -0.8265 -0.2551 -1.0305
 4916TIP3   OH214711   2.849   3.169   1.816  0.3839  0.6794 -0.0780
 4916TIP3    H114712   2.783   3.152   1.748  1.7386  1.2752 -1.6229
 4916TIP3    H214713   2.805   3.225   1.879 -0.2205  2.3022 -1.8264
 4917TIP3   OH214714   3.225   0.931   2.362 -0.4527 -0.0878  0.0529
 4917TIP3    H114715   3.226   0.987   2.439  0.3368  1.2097 -0.8553
 4917TIP3    H214716   3.281   0.857   2.385 -0.4837  0.1191  0.8282
 4918TIP3   OH214717   5.318   3.467   5.791  0.0517  0.8995 -0.1931
 4918TIP3    H114718   5.376   3.482   5.866  0.3469  0.0024 -0.2313
 4918TIP3    H214719   5.230   3.482   5.826  0.1656  0.2352  0.4179
 4919TIP3   OH214720   4.847   1.478   1.693  0.6231 -0.3684  0.1252
 4919TIP3    H114721   4.918   1.429   1.734  0.7575  1.0534  1.6913
 4919TIP3    H214722   4.770   1.459   1.746  0.3365 -0.1443 -0.2033
 4920TIP3   OH214723   3.503   5.160   0.647  0.1107  0.1240 -0.3237
 4920TIP3    H114724   3.500   5.078   0.598 -2.6587 -1.1959  1.7891
 4920TIP3    H214725   3.542   5.136   0.731  0.0464  1.1887  0.0165
 4921TIP3   OH214726   2.663   6.583   3.108 -0.6355 -0.2417  0.5513
 4921TIP3    H114727   2.682   6.637   3.185  1.4807  0.5890 -0.4627
 4921TIP3    H214728   2.706   6.500   3.126 -0.6710 -0.2623  0.5396
 4922TIP3   OH214729   4.732   2.084   3.949  0.8064  0.1738 -0.4152
 4922TIP3    H114730   4.706   1.994   3.930 -1.7477  1.1129 -1.9139
 4922TIP3    H214731   4.765   2.081   4.039 -0.7715 -2.0017  0.1777
 4923TIP3   OH214732   6.690   4.377   3.772  0.0931 -0.0614 -0.2958
 4923TIP3    H114733   6.710   4.464   3.739  0.2912 -0.2657 -0.7216
 4923TIP3    H214734   6.599   4.362   3.746  0.5670 -0.6462 -1.7189
 4924TIP3   OH214735   6.162   1.588   2.658 -0.1222  0.4365  0.2517
 4924TIP3    H114736   6.199   1.544   2.734 -0.9612  2.1781  1.7343
 4924TIP3    H214737   6.067   1.582   2.671 -0.3815 -1.3155 -1.9251
 4925TIP3   OH214738   4.602   1.922   4.631 -0.3125  0.3412 -0.3671
 4925TIP3    H114739   4.696   1.915   4.617 -0.1896 -0.4612  0.7339
 4925TIP3    H214740   4.578   2.007   4.594  1.2521  1.6761  1.4674
 4926TIP3   OH214741   1.439   1.127   0.471  0.0337  0.3813 -0.1981
 4926TIP3    H114742   1.505   1.191   0.442  0.8917 -0.2398  0.3252
 4926TIP3    H214743   1.356   1.173   0.465  0.5766  1.3532 -0.4040
 4927TIP3   OH214744   5.843   4.602   4.367  0.0364  0.1585 -0.1633
 4927TIP3    H114745   5.868   4.679   4.419 -0.4150 -1.0399  1.9180
 4927TIP3    H214746   5.907   4.535   4.391  1.3462  0.2070 -3.0626
 4928TIP3   OH214747   1.202   1.164   5.154 -0.4890  0.4607  0.4021
 4928TIP3    H114748   1.159   1.125   5.077 -0.1723 -1.7975  1.2824
 4928TIP3    H214749   1.289   1.124   5.155  0.6115  2.7288  0.3099
 4929TIP3   OH214750   6.691   2.767   3.523 -0.1749 -0.2835  0.5660
 4929TIP3    H114751   6.705   2.748   3.430 -0.0674  0.8658  0.3336
 4929TIP3    H214752   6.751   2.840   3.542  0.7195 -1.2966  1.8539
 4930TIP3   OH214753   0.883   2.430   3.659 -0.2182 -0.2547 -0.2900
 4930TIP3    H114754   0.869   2.355   3.602 -3.9672 -0.6992  0.9134
 4930TIP3    H214755   0.796   2.449   3.695  1.5083  1.2246  3.6943
 4931TIP3   OH214756   4.712   1.911   2.426  0.3334 -0.2116 -0.3877
 4931TIP3    H114757   4.749   1.898   2.514  0.2615  2.8610  0.2075
 4931TIP3    H214758   4.621   1.882   2.435 -0.1790  1.6671  1.1214
 4932TIP3   OH214759   1.770   4.209   1.391 -0.7976  0.7252  0.9303
 4932TIP3    H114760   1.802   4.189   1.479  1.3530  3.1070  0.8029
 4932TIP3    H214761   1.703   4.276   1.405 -0.1268  1.4455  0.7690
 4933TIP3   OH214762   5.451   3.288   3.640  0.1083 -0.1265  0.1429
 4933TIP3    H114763   5.533   3.285   3.590 -0.3890 -0.1089 -0.6747
 4933TIP3    H214764   5.480   3.304   3.731  0.8712  3.8737 -0.6021
 4934TIP3   OH214765   1.480   0.876   0.619  0.1349 -0.6678  0.2968
 4934TIP3    H114766   1.401   0.870   0.673  0.2339 -0.0508  0.5104
 4934TIP3    H214767   1.460   0.942   0.553  0.3161 -0.8244  0.0809
 4935TIP3   OH214768   2.841   4.885   4.029 -0.0764  0.1460 -0.4024
 4935TIP3    H114769   2.823   4.820   3.962  2.0887 -1.2460  0.2709
 4935TIP3    H214770   2.865   4.964   3.980 -2.1556  0.3233 -1.2152
 4936TIP3   OH214771   6.105   2.050   4.902  0.4276 -0.7494 -0.2959
 4936TIP3    H114772   6.034   2.113   4.917 -1.4090 -3.1839  1.9658
 4936TIP3    H214773   6.067   1.984   4.844  0.0975 -2.9797  2.2645
 4937TIP3   OH214774   1.146   1.829   2.280  0.1812 -0.4446 -0.0321
 4937TIP3    H114775   1.198   1.787   2.212 -0.8558 -0.8460 -0.5977
 4937TIP3    H214776   1.057   1.829   2.246  0.0425  1.7773  0.1713
 4938TIP3   OH214777   0.823   2.096   1.153  0.4759  0.1734 -0.7848
 4938TIP3    H114778   0.788   2.007   1.159 -0.5596  0.6025 -0.1905
 4938TIP3    H214779   0.907   2.092   1.200  0.4631 -0.4930 -0.8089
 4939TIP3   OH214780   3.682   3.130   1.858  0.1321 -0.6338  0.5181
 4939TIP3    H114781   3.735   3.149   1.781 -0.4761  1.9823  0.6369
 4939TIP3    H214782   3.592   3.141   1.828 -0.1022  0.8208  1.6393
 4940TIP3   OH214783   1.077   1.620   0.590 -0.4469 -0.5405  0.3192
 4940TIP3    H114784   1.084   1.581   0.503  0.6138 -0.8543  0.5194
 4940TIP3    H214785   1.128   1.701   0.584  0.4774 -1.0547  0.8932
 4941TIP3   OH214786   4.387   4.791   2.338 -0.5075 -0.0900  0.0516
 4941TIP3    H114787   4.475   4.785   2.301 -0.4035  0.7530  0.1443
 4941TIP3    H214788   4.330   4.759   2.268 -0.1333 -0.6312 -0.0133
 4942TIP3   OH214789   3.391   2.096   1.651  1.2917 -0.3174 -0.2283
 4942TIP3    H114790   3.456   2.046   1.701  0.6729  0.6846  1.6807
 4942TIP3    H214791   3.317   2.035   1.641  0.5363  0.1128  2.0978
 4943TIP3   OH214792   1.122   2.931   0.874  0.2616  0.0461 -0.6468
 4943TIP3    H114793   1.175   2.989   0.930  1.4639  0.0149 -1.7078
 4943TIP3    H214794   1.050   2.986   0.844  0.7831  0.6765 -0.7598
 4944TIP3   OH214795   5.915   5.655   0.517 -0.4842  0.4051  0.3006
 4944TIP3    H114796   5.988   5.711   0.488 -0.3341 -0.6034 -1.4395
 4944TIP3    H214797   5.862   5.712   0.573  0.7450  1.6644  0.2514
 4945TIP3   OH214798   6.893   4.885   4.835  0.2436  0.0854  0.1348
 4945TIP3    H114799   6.837   4.904   4.911  1.0274  1.2035  0.4507
 4945TIP3    H214800   6.904   4.969   4.792 -0.2718 -0.5566 -1.3029
 4946TIP3   OH214801   5.651   1.655   3.644 -0.3304  0.3256 -0.1928
 4946TIP3    H114802   5.703   1.614   3.575 -0.7609 -0.6091  0.0233
 4946TIP3    H214803   5.715   1.676   3.712 -0.1156 -0.0847 -0.2652
 4947TIP3   OH214804   2.131   4.827   0.782  0.0423  0.0871  0.4415
 4947TIP3    H114805   2.226   4.836   0.781  0.1027 -0.4427  0.8861
 4947TIP3    H214806   2.115   4.742   0.824 -0.6223  0.1512  0.3326
 4948TIP3   OH214807   6.442   1.516   1.799 -0.5605  0.3529  0.3466
 4948TIP3    H114808   6.406   1.604   1.797  0.4027  0.7760  0.8095
 4948TIP3    H214809   6.427   1.486   1.888 -0.0394  0.4269  0.4649
 4949TIP3   OH214810   0.673   2.753   3.544 -0.1271  0.0482  0.0999
 4949TIP3    H114811   0.673   2.731   3.451  0.2652 -1.5936  0.4526
 4949TIP3    H214812   0.593   2.715   3.578 -0.2904  0.6806  0.4461
 4950TIP3   OH214813   5.064   5.388   5.027 -0.0923 -0.2045 -0.2994
 4950TIP3    H114814   5.086   5.446   5.100  0.1034 -1.6607  0.8587
 4950TIP3    H214815   5.092   5.435   4.949  0.8146  0.8952  0.6589
 4951TIP3   OH214816   5.196   5.193   0.138  0.2584  0.0622 -0.9316
 4951TIP3    H114817   5.146   5.131   0.086  0.0191  0.0493 -0.6867
 4951TIP3    H214818   5.280   5.149   0.154 -0.3777 -0.7485  0.3357
 4952TIP3   OH214819   4.840   6.041   2.881  0.1784 -0.0554  0.3619
 4952TIP3    H114820   4.928   6.050   2.845 -0.7431  2.0000 -1.5771
 4952TIP3    H214821   4.798   5.975   2.826  0.2582 -0.5227  0.8472
 4953TIP3   OH214822   4.207   0.222   2.015 -0.7612  0.2111  0.5898
 4953TIP3    H114823   4.122   0.184   2.038 -0.5012 -0.2563  0.8112
 4953TIP3    H214824   4.269   0.150   2.029 -0.3030  0.6118  0.6407
 4954TIP3   OH214825   2.832   3.436   5.688 -0.8354  0.0738 -0.2616
 4954TIP3    H114826   2.916   3.481   5.678 -0.4240 -0.3511  1.0684
 4954TIP3    H214827   2.855   3.348   5.718 -1.7655  0.2020  0.9152
 4955TIP3   OH214828   3.719   1.192   4.621  0.2936  0.2543 -0.5090
 4955TIP3    H114829   3.625   1.190   4.600  0.2589 -3.3369 -0.6888
 4955TIP3    H214830   3.761   1.225   4.542 -0.7406  1.9820 -0.4075
 4956TIP3   OH214831   4.858   0.215   5.848 -0.1313 -0.3364 -1.0393
 4956TIP3    H114832   4.871   0.309   5.859  0.2033 -0.5442  0.7180
 4956TIP3    H214833   4.766   0.201   5.870  0.4131 -0.6948  1.2198
 4957TIP3   OH214834   1.810   0.039   4.290 -0.3575 -0.4704  0.1080
 4957TIP3    H114835   1.823  -0.048   4.328 -2.1840 -0.8997 -0.1360
 4957TIP3    H214836   1.715   0.045   4.276 -0.8351  2.8918  3.2818
 4958TIP3   OH214837   4.229   6.552   0.556  0.2837  0.7104  1.1542
 4958TIP3    H114838   4.256   6.482   0.616 -1.0540 -0.6591  0.2164
 4958TIP3    H214839   4.289   6.543   0.481  0.9749  1.4607  1.5947
 4959TIP3   OH214840   2.009   1.556   4.880 -0.0565  0.4406 -0.3868
 4959TIP3    H114841   2.057   1.488   4.927  0.0480  0.2737 -0.7265
 4959TIP3    H214842   1.959   1.508   4.814 -0.1531  0.6743 -0.4825
 4960TIP3   OH214843   5.156   0.030   2.983 -0.5369  0.2909  0.0346
 4960TIP3    H114844   5.120   0.043   3.070 -1.8659  0.0450 -0.4530
 4960TIP3    H214845   5.151  -0.064   2.968 -1.1957  0.4224 -0.6463
 4961TIP3   OH214846   4.319   3.175   3.832  0.3025  0.9481  0.2691
 4961TIP3    H114847   4.300   3.244   3.769  0.7075  0.5559 -0.2895
 4961TIP3    H214848   4.384   3.214   3.890  1.1885  0.7528 -0.5714
 4962TIP3   OH214849   1.929   5.392   0.537 -0.2684 -0.5074 -0.2807
 4962TIP3    H114850   1.931   5.323   0.604  0.6057  0.1037  0.3446
 4962TIP3    H214851   1.915   5.345   0.455 -0.9421 -1.3125  0.2754
 4963TIP3   OH214852   1.786   0.418   2.327 -0.6365  0.0172 -0.0104
 4963TIP3    H114853   1.720   0.434   2.259  0.5589 -0.3935 -1.3034
 4963TIP3    H214854   1.773   0.327   2.352 -1.0555  0.1587  0.2992
 4964TIP3   OH214855   3.565   4.467   0.205  0.0469 -0.0706  0.1690
 4964TIP3    H114856   3.513   4.546   0.215  0.8936  0.4039  0.9463
 4964TIP3    H214857   3.640   4.479   0.263  0.4462 -1.2298 -0.0646
 4965TIP3   OH214858   2.629   1.332   5.426  0.1828  0.3979 -0.1737
 4965TIP3    H114859   2.650   1.419   5.392  0.0411  0.7645  0.6632
 4965TIP3    H214860   2.713   1.286   5.427  0.2452  0.4896 -0.6807
 4966TIP3   OH214861   6.231   3.874   1.600 -0.0340 -0.4020 -0.3802
 4966TIP3    H114862   6.280   3.796   1.624  0.3362 -0.4725 -1.3529
 4966TIP3    H214863   6.274   3.945   1.647  0.9485 -0.4785 -1.1441
 4967TIP3   OH214864   4.230   2.102   5.399  0.4789 -0.0236 -0.0136
 4967TIP3    H114865   4.202   2.010   5.400  0.5087 -0.0640  2.2200
 4967TIP3    H214866   4.176   2.143   5.332 -0.6493 -1.3580  0.0363
 4968TIP3   OH214867   3.195   5.471   2.633  0.0267 -0.1939 -0.8426
 4968TIP3    H114868   3.246   5.483   2.713 -1.8076  0.2546  0.3338
 4968TIP3    H214869   3.235   5.396   2.589  1.3818 -0.1364  0.2307
 4969TIP3   OH214870   6.275   0.584   2.365  0.6296  0.1447  0.3416
 4969TIP3    H114871   6.299   0.675   2.348  2.3232 -0.0167  1.5535
 4969TIP3    H214872   6.306   0.567   2.454 -3.5029 -0.3949  1.8955
 4970TIP3   OH214873   5.792   0.329  -0.029  0.0878 -0.2371  0.0832
 4970TIP3    H114874   5.851   0.382   0.025 -2.2888  2.4428  0.3188
 4970TIP3    H214875   5.741   0.278   0.034 -0.6084  0.6047  0.2326
 4971TIP3   OH214876   2.086   2.483   2.303 -0.1043  0.3042 -0.0522
 4971TIP3    H114877   2.176   2.515   2.304  0.1242 -0.3198  0.0539
 4971TIP3    H214878   2.095   2.388   2.295 -0.7705  0.3262 -1.3456
 4972TIP3   OH214879   6.356   2.186   2.800 -0.4936 -0.1235 -0.0319
 4972TIP3    H114880   6.346   2.174   2.894 -2.8518  1.6649  0.0440
 4972TIP3    H214881   6.271   2.217   2.771  1.1341  2.8253 -2.1750
 4973TIP3   OH214882   1.931   0.461   0.059  0.1704 -0.0278 -0.3586
 4973TIP3    H114883   2.001   0.470   0.123  0.6997  2.0382 -1.1388
 4973TIP3    H214884   1.861   0.414   0.105  2.3718 -3.1027  0.1488
 4974TIP3   OH214885   5.801   5.828   0.708 -0.3098  0.0444  0.0589
 4974TIP3    H114886   5.895   5.837   0.728 -0.5784  1.2361  0.8924
 4974TIP3    H214887   5.774   5.916   0.682 -1.4212 -0.0480  0.8445
 4975TIP3   OH214888   5.646   0.942   4.182 -0.4523 -0.8681 -0.0193
 4975TIP3    H114889   5.661   0.942   4.277 -0.7317 -0.8302  0.0249
 4975TIP3    H214890   5.694   0.865   4.151  0.0273 -0.6191  0.0899
 4976TIP3   OH214891   6.250   4.784   5.138 -0.1315  0.0574 -0.1698
 4976TIP3    H114892   6.305   4.767   5.061 -0.4637 -0.8970 -0.2107
 4976TIP3    H214893   6.163   4.799   5.102 -0.4728 -1.2751  0.0554
 4977TIP3   OH214894   4.934   1.085   2.357  0.1358  0.4295  0.3065
 4977TIP3    H114895   4.949   1.041   2.274  1.0276 -0.2815  0.8286
 4977TIP3    H214896   4.997   1.157   2.359 -0.3599  0.8788  0.0726
 4978TIP3   OH214897   6.805   3.746   5.027  0.2587  0.1524  0.1312
 4978TIP3    H114898   6.718   3.784   5.037 -0.7201 -1.3455 -1.8199
 4978TIP3    H214899   6.807   3.673   5.089  0.3954  0.6119  0.6681
 4979TIP3   OH214900   1.421   6.136   3.454  0.1720  0.7581  0.2360
 4979TIP3    H114901   1.456   6.107   3.538  0.6212 -0.0247 -0.2037
 4979TIP3    H214902   1.382   6.057   3.416  0.2500  1.0269 -0.4208
 4980TIP3   OH214903   4.413   4.362   4.539 -0.2302 -0.3762 -1.0437
 4980TIP3    H114904   4.330   4.380   4.497 -0.5135  1.4086  0.1904
 4980TIP3    H214905   4.396   4.287   4.595 -1.0836  0.1283 -0.6184
 4981TIP3   OH214906   1.026   5.161   5.315  0.1192 -0.0809 -0.1084
 4981TIP3    H114907   1.015   5.110   5.395  0.5910 -2.9225 -1.7430
 4981TIP3    H214908   0.943   5.208   5.304 -0.4454 -0.7014  1.3112
 4982TIP3   OH214909   2.473   6.152   2.629 -0.1524 -0.2664  0.1856
 4982TIP3    H114910   2.406   6.217   2.609  0.2695  0.8044  2.0279
 4982TIP3    H214911   2.477   6.097   2.551 -1.6701  0.9245 -0.7899
 4983TIP3   OH214912   5.656   4.873   1.862 -0.0913  0.5535 -0.3356
 4983TIP3    H114913   5.611   4.903   1.784  1.4320  1.7709 -0.7990
 4983TIP3    H214914   5.720   4.809   1.830  2.1160  2.6972 -0.4920
 4984TIP3   OH214915   4.577   2.820   0.909  0.4123 -0.3119  0.7691
 4984TIP3    H114916   4.655   2.773   0.880 -0.4845 -0.7231 -1.1236
 4984TIP3    H214917   4.600   2.912   0.904  0.4591 -0.3884 -0.8537
 4985TIP3   OH214918   6.516   4.908   3.570 -0.2441  0.3389  0.7371
 4985TIP3    H114919   6.600   4.951   3.586 -1.2601  2.3966  0.8733
 4985TIP3    H214920   6.490   4.938   3.483 -0.4697 -0.9580  0.3356
 4986TIP3   OH214921   4.652   2.929   2.391 -0.4943 -0.0174  0.3255
 4986TIP3    H114922   4.633   3.023   2.395 -0.3891  0.0005  0.4140
 4986TIP3    H214923   4.569   2.886   2.411 -0.7716  0.0523 -0.6173
 4987TIP3   OH214924   6.888   3.554   4.243 -0.2986  0.0956 -0.2194
 4987TIP3    H114925   6.924   3.527   4.327 -0.2727 -0.5918 -0.4415
 4987TIP3    H214926   6.818   3.615   4.265 -1.3576 -1.2769  0.3993
 4988TIP3   OH214927   3.021   5.184   1.260 -0.1746 -0.2965  0.4061
 4988TIP3    H114928   3.031   5.276   1.235  0.3270  0.0332  1.7235
 4988TIP3    H214929   2.929   5.165   1.243  0.0866 -0.0611 -1.4311
 4989TIP3   OH214930   2.700   1.717   2.254  0.0693  0.2400  0.3001
 4989TIP3    H114931   2.619   1.691   2.211  0.1984 -0.2888  0.3646
 4989TIP3    H214932   2.677   1.793   2.307 -0.5108 -0.2535  0.7605
 4990TIP3   OH214933   1.527   3.606   3.637  0.1366 -0.4446  0.1891
 4990TIP3    H114934   1.480   3.525   3.617 -0.3077 -0.3084  0.6661
 4990TIP3    H214935   1.477   3.646   3.708 -0.5400  1.0092 -1.0253
 4991TIP3   OH214936   3.697   2.305   3.394  0.4007  0.7536  0.0950
 4991TIP3    H114937   3.751   2.228   3.378  1.3854  1.1212  1.4001
 4991TIP3    H214938   3.718   2.364   3.321  0.3749  0.1712 -0.3878
 4992TIP3   OH214939   6.889   0.311   5.530  0.2758 -0.2470 -0.0055
 4992TIP3    H114940   6.873   0.229   5.484  0.1381 -0.7792  0.9697
 4992TIP3    H214941   6.970   0.296   5.580  0.3222  0.2547  0.0799
 4993TIP3   OH214942   3.901   4.175   2.772  0.6058 -0.0386  0.8192
 4993TIP3    H114943   3.974   4.121   2.804  0.6494 -0.3110  0.2686
 4993TIP3    H214944   3.885   4.144   2.683 -0.8332 -0.6516  1.2569
 4994TIP3   OH214945   6.470   5.614   0.603  0.0643 -0.2368 -0.7663
 4994TIP3    H114946   6.395   5.642   0.655 -1.3740 -1.8481 -1.8667
 4994TIP3    H214947   6.487   5.687   0.544  1.2414  1.3020  1.3524
 4995TIP3   OH214948   0.875   6.722   5.262 -0.4662  0.2324  0.1505
 4995TIP3    H114949   0.909   6.811   5.259 -0.4719  0.2687  0.9467
 4995TIP3    H214950   0.782   6.731   5.246 -0.2735  0.2277 -1.0837
 4996TIP3   OH214951   6.923  -0.011   4.768  0.8760  0.1400 -0.3500
 4996TIP3    H114952   6.987   0.038   4.819  0.5636  0.7749 -0.5607
 4996TIP3    H214953   6.930   0.025   4.679  0.3752  0.0745 -0.4207
 4997TIP3   OH214954   3.182   6.320   2.908  0.1200  0.6482  0.5060
 4997TIP3    H114955   3.131   6.321   2.989 -0.3421  1.0891  0.2204
 4997TIP3    H214956   3.140   6.251   2.855  0.3132  0.4776  0.5758
 4998TIP3   OH214957   5.301   2.834   0.356 -0.0330 -0.1605  0.2708
 4998TIP3    H114958   5.325   2.812   0.447 -0.1112 -0.4199  0.2300
 4998TIP3    H214959   5.281   2.749   0.316  2.0384 -0.3003 -0.5927
 4999TIP3   OH214960   4.078   2.622   0.944  0.3805  0.0791 -0.5653
 4999TIP3    H114961   4.134   2.673   1.003  0.6509  1.3183 -1.8332
 4999TIP3    H214962   4.067   2.678   0.868  0.0621 -1.4831 -1.7170
 5000TIP3   OH214963   0.172   4.792   4.376 -0.0412  0.0079 -0.2973
 5000TIP3    H114964   0.246   4.817   4.320  0.4141 -0.8772 -0.1182
 5000TIP3    H214965   0.128   4.874   4.396  1.8403  0.7812  0.9313
 5001TIP3   OH214966   0.920   5.609   2.336 -0.2691 -0.6915 -0.0509
 5001TIP3    H114967   1.000   5.576   2.296 -0.9213 -0.4482 -1.6187
 5001TIP3    H214968   0.901   5.690   2.289 -0.8535 -0.1829  1.0311
 5002TIP3   OH214969   5.706   2.951   1.331  0.0643 -0.0388 -0.1616
 5002TIP3    H114970   5.644   3.015   1.296 -0.1648  0.1109  0.5074
 5002TIP3    H214971   5.651   2.886   1.375  0.4094  0.5802  1.2348
 5003TIP3   OH214972   3.939   3.724   3.952  0.2829 -0.1687 -0.1782
 5003TIP3    H114973   3.941   3.819   3.961  1.6170 -0.3996  4.6924
 5003TIP3    H214974   4.024   3.702   3.913 -0.0021  0.5854 -1.2555
 5004TIP3   OH214975   2.388   1.692   2.808  0.4145  0.3496  0.5724
 5004TIP3    H114976   2.310   1.747   2.811 -0.2953 -0.3734 -2.1491
 5004TIP3    H214977   2.358   1.607   2.841 -0.1287 -0.0526 -0.8772
 5005TIP3   OH214978   0.611   0.944   5.626 -0.2990  0.3253  0.6530
 5005TIP3    H114979   0.638   0.965   5.536  0.7726  0.0059  0.8856
 5005TIP3    H214980   0.565   1.023   5.655 -1.4048  0.1230 -0.4428
 5006TIP3   OH214981   1.988   0.996   0.132 -0.2054  0.0495  0.0066
 5006TIP3    H114982   1.909   1.049   0.122 -0.8136 -0.9072 -0.3298
 5006TIP3    H214983   1.963   0.927   0.194  0.9731  0.9022  1.5105
 5007TIP3   OH214984   2.570   5.988   0.738 -0.9333  0.3889  0.6184
 5007TIP3    H114985   2.510   5.990   0.663 -1.4268  1.2243  1.0179
 5007TIP3    H214986   2.610   6.075   0.740  0.6160 -0.2806  0.1234
 5008TIP3   OH214987   3.521   0.500   1.732 -0.1567 -0.3350  0.4124
 5008TIP3    H114988   3.465   0.578   1.736  0.3219 -0.0114  1.1260
 5008TIP3    H214989   3.592   0.526   1.673 -0.2968 -0.4367  0.1979
 5009TIP3   OH214990   3.489   4.133   2.472  0.3660 -0.1906 -0.6124
 5009TIP3    H114991   3.463   4.221   2.499  2.0689  0.3692 -0.6859
 5009TIP3    H214992   3.520   4.144   2.382 -0.8657 -1.1759 -1.1901
 5010TIP3   OH214993   3.332   6.027   3.992 -0.4795  0.2754 -0.0836
 5010TIP3    H114994   3.299   5.951   3.944  0.1682 -1.5124  2.0945
 5010TIP3    H214995   3.265   6.044   4.058  0.0792  0.6050  0.4016
 5011TIP3   OH214996   5.328   3.056   4.772 -0.6740 -0.5350 -0.5565
 5011TIP3    H114997   5.410   3.088   4.810 -0.3444 -1.0679 -0.8042
 5011TIP3    H214998   5.340   3.065   4.678 -0.5843 -1.3539 -0.6291
 5012TIP3   OH214999   7.078   4.171   2.797  0.4989 -0.6915  0.1190
 5012TIP3    H115000   7.072   4.217   2.713  4.8425  0.9546  0.4634
 5012TIP3    H215001   7.101   4.081   2.773 -1.0621 -0.9856 -0.4179
 5013TIP3   OH215002   2.493   1.598   0.375 -0.1599 -0.0159  1.0530
 5013TIP3    H115003   2.567   1.657   0.363  0.9277 -0.6777  3.8149
 5013TIP3    H215004   2.492   1.545   0.295  0.7927  1.6008 -0.0898
 5014TIP3   OH215005   0.619   2.614   2.229 -0.2061  0.3191  0.0408
 5014TIP3    H115006   0.709   2.644   2.215 -0.2579  0.8528  0.8355
 5014TIP3    H215007   0.587   2.593   2.141  0.5553  0.5145 -0.2885
 5015TIP3   OH215008   5.079   1.560   4.205 -0.3612  0.2560  0.5089
 5015TIP3    H115009   5.129   1.584   4.283 -1.0189 -0.9281  1.3398
 5015TIP3    H215010   5.047   1.472   4.224 -0.8943  0.1101 -0.9362
 5016TIP3   OH215011   0.099   1.160   4.211 -0.1383 -0.5589 -0.6149
 5016TIP3    H115012   0.090   1.233   4.150  0.1878 -0.1333 -0.1520
 5016TIP3    H215013   0.174   1.111   4.178  0.9331  0.4612  0.2441
 5017TIP3   OH215014   4.076   4.773   0.588  1.2409  0.3113  0.1259
 5017TIP3    H115015   4.057   4.776   0.494  1.5738 -1.1398 -0.0140
 5017TIP3    H215016   3.991   4.755   0.628  1.5742 -2.6477 -0.2294
 5018TIP3   OH215017   2.096   2.674   1.931 -0.6330 -0.0339 -0.0234
 5018TIP3    H115018   2.039   2.637   1.999 -1.2997 -0.6626 -0.8871
 5018TIP3    H215019   2.042   2.672   1.852  0.7531 -1.0907 -0.9848
 5019TIP3   OH215020   1.018   5.854   5.875  0.2555 -0.4046 -0.5099
 5019TIP3    H115021   0.969   5.843   5.794  0.3321 -1.1873 -0.4554
 5019TIP3    H215022   1.101   5.809   5.859  0.4181 -0.2479 -0.1262
 5020TIP3   OH215023   4.274   2.252   4.982  0.0255 -0.2493  0.5104
 5020TIP3    H115024   4.187   2.278   5.012  0.1561  0.5601  0.2335
 5020TIP3    H215025   4.258   2.197   4.905 -0.3171 -2.6556  2.2138
 5021TIP3   OH215026   0.791   2.894   4.628  0.5516 -0.0212  0.0829
 5021TIP3    H115027   0.782   2.916   4.535 -0.3139 -0.2013  0.1121
 5021TIP3    H215028   0.786   2.798   4.631  0.0768  0.0097  0.3600
 5022TIP3   OH215029   2.655   2.911   4.788  0.3726 -0.3237  0.2930
 5022TIP3    H115030   2.749   2.921   4.803  0.6920  1.7716 -2.3437
 5022TIP3    H215031   2.650   2.847   4.716 -0.0900  0.5727 -0.4922
 5023TIP3   OH215032   0.598   6.011   2.185  0.0268  0.2984  0.0840
 5023TIP3    H115033   0.612   6.105   2.188 -0.3633  0.3637  2.7895
 5023TIP3    H215034   0.503   6.000   2.188  0.0928 -0.1266  1.9783
 5024TIP3   OH215035   7.070   2.821   2.801  0.0676  0.3069 -0.1968
 5024TIP3    H115036   6.989   2.769   2.807 -0.0997  0.5087 -0.7087
 5024TIP3    H215037   7.105   2.801   2.714  1.0123 -0.4241  0.3342
 5025TIP3   OH215038   3.146   6.307   3.867 -0.7838 -0.4886  0.0959
 5025TIP3    H115039   3.190   6.382   3.827 -0.4589 -0.5783  0.2770
 5025TIP3    H215040   3.092   6.344   3.937  0.8354 -0.5792  1.4474
 5026TIP3   OH215041   3.134   2.776   2.532 -0.3845  0.1776 -0.3692
 5026TIP3    H115042   3.111   2.742   2.446 -0.2685 -0.8569 -0.0028
 5026TIP3    H215043   3.136   2.699   2.589  0.5987  0.6919  0.3302
 5027TIP3   OH215044   5.770   1.224   4.368 -0.5138 -0.1916 -0.0062
 5027TIP3    H115045   5.777   1.199   4.460  0.3143 -1.3326 -0.3729
 5027TIP3    H215046   5.676   1.221   4.350 -0.5725 -1.3214  0.4332
 5028TIP3   OH215047   5.970   2.790   5.674 -0.4442  0.6599 -0.3396
 5028TIP3    H115048   5.914   2.848   5.725  1.8792  1.0370  1.9494
 5028TIP3    H215049   6.015   2.736   5.738  0.5396 -0.8530 -2.1777
 5029TIP3   OH215050   7.007   2.716   5.043 -0.0143 -0.1847 -0.0021
 5029TIP3    H115051   6.980   2.762   5.123  0.1662 -0.7476  0.3875
 5029TIP3    H215052   6.928   2.713   4.989  0.0777  0.9712 -0.2317
 5030TIP3   OH215053   3.346   2.307   3.882  0.1076 -0.3009 -0.6114
 5030TIP3    H115054   3.407   2.374   3.912  0.2582 -0.4120 -0.6731
 5030TIP3    H215055   3.260   2.349   3.888  0.1313 -0.3292  0.0045
 5031TIP3   OH215056   3.593   2.390   5.876 -0.1742  0.1385 -0.2359
 5031TIP3    H115057   3.539   2.376   5.798  0.5531 -2.5154 -0.3798
 5031TIP3    H215058   3.682   2.368   5.848  0.7552  2.6601  0.4690
 5032TIP3   OH215059   0.072   3.788   2.366 -0.3111 -0.3788 -0.3220
 5032TIP3    H115060  -0.014   3.777   2.326 -0.5214  0.3832 -0.0942
 5032TIP3    H215061   0.076   3.722   2.435  0.0584 -1.7279 -1.5700
 5033TIP3   OH215062   5.088   5.160   5.159 -0.6458  0.1323  0.3973
 5033TIP3    H115063   5.113   5.243   5.118 -0.7890  1.4150  2.7037
 5033TIP3    H215064   5.171   5.116   5.176 -0.5733 -0.2919 -0.9471
 5034TIP3   OH215065   6.666   2.859   1.145 -0.1684 -0.2825  0.2273
 5034TIP3    H115066   6.573   2.872   1.128 -0.2736  1.0492  1.5957
 5034TIP3    H215067   6.710   2.924   1.090 -0.1204 -0.1703  0.3976
 5035TIP3   OH215068   7.113   4.252   2.517 -0.2101  0.4492 -0.2396
 5035TIP3    H115069   7.055   4.326   2.537 -0.7147 -0.5253  2.2055
 5035TIP3    H215070   7.099   4.237   2.423 -0.7887  2.8303 -0.6162
 5036TIP3   OH215071   2.389   3.118   0.709 -0.2019 -0.1119 -0.6956
 5036TIP3    H115072   2.351   3.206   0.712  1.9751  0.8801 -0.1042
 5036TIP3    H215073   2.367   3.085   0.622 -2.9624  0.0535 -0.1547
 5037TIP3   OH215074   5.133   0.213   2.592 -0.3200  0.4808  0.0471
 5037TIP3    H115075   5.048   0.171   2.607 -0.7362  0.8282 -1.1793
 5037TIP3    H215076   5.180   0.151   2.536 -0.1402  0.7181 -0.0670
 5038TIP3   OH215077   0.485   1.963   1.164  0.3316 -0.1227 -0.1193
 5038TIP3    H115078   0.458   2.038   1.112 -1.3201 -0.5750  0.0497
 5038TIP3    H215079   0.405   1.913   1.179  1.0869 -0.9860  1.2774
 5039TIP3   OH215080   0.093   2.107   4.833  0.2406 -0.2469 -0.2580
 5039TIP3    H115081   0.187   2.122   4.838 -0.1344  3.4580 -1.3466
 5039TIP3    H215082   0.056   2.160   4.903 -1.0987 -0.4239 -0.8002
 5040TIP3   OH215083   5.402   5.643   2.727  0.7356  0.5548 -0.5326
 5040TIP3    H115084   5.329   5.678   2.779  1.0581  0.4020  0.0316
 5040TIP3    H215085   5.390   5.681   2.640 -0.3177  0.1243 -0.5916
 5041TIP3   OH215086   0.705   3.254   3.695 -0.0979  0.1780  0.1969
 5041TIP3    H115087   0.706   3.348   3.680  0.2515  0.5261  2.1597
 5041TIP3    H215088   0.797   3.232   3.712 -0.1172 -0.6025 -0.6559
 5042TIP3   OH215089   2.031   2.993   4.250  0.1643  0.3357  0.1196
 5042TIP3    H115090   2.059   2.981   4.340  0.6111  1.3205  0.1137
 5042TIP3    H215091   2.079   3.069   4.218  1.4971 -1.1275 -1.5725
 5043TIP3   OH215092   3.624   4.705   2.413 -0.4234 -0.2217  0.1133
 5043TIP3    H115093   3.610   4.686   2.320  1.0397 -1.5912  0.1278
 5043TIP3    H215094   3.638   4.619   2.453 -0.9450  0.3506  1.6002
 5044TIP3   OH215095   3.683   3.883   4.440 -0.1689 -0.0541 -0.5902
 5044TIP3    H115096   3.760   3.893   4.496 -0.5846  0.8700 -0.1651
 5044TIP3    H215097   3.715   3.836   4.363  0.6549 -0.3267 -0.0893
 5045TIP3   OH215098   0.223   2.011   0.453 -0.2562 -0.2754  0.4568
 5045TIP3    H115099   0.271   2.093   0.465 -1.5450  1.0849 -2.6128
 5045TIP3    H215100   0.280   1.958   0.397 -0.4872 -0.4390  0.3744
 5046TIP3   OH215101   7.005   3.448   4.479 -0.1498  0.1557 -0.0731
 5046TIP3    H115102   7.088   3.451   4.526 -0.5788 -0.5504  0.7821
 5046TIP3    H215103   6.999   3.358   4.446  0.5351  0.8746 -2.2614
 5047TIP3   OH215104   0.508   3.127   0.912  0.2282 -0.0305 -0.9418
 5047TIP3    H115105   0.493   3.037   0.940  1.2476 -0.3098 -1.2268
 5047TIP3    H215106   0.498   3.180   0.991  0.4806 -0.4967 -0.5985
 5048TIP3   OH215107   0.711   0.434   5.544 -0.1027 -0.3860 -0.2953
 5048TIP3    H115108   0.660   0.431   5.625  1.3031 -2.3496  0.5967
 5048TIP3    H215109   0.645   0.431   5.475 -1.2950 -0.3240  0.7878
 5049TIP3   OH215110   0.889   5.669   3.269 -0.0106 -0.1522  0.1621
 5049TIP3    H115111   0.817   5.605   3.272 -1.8030  1.7724  0.8639
 5049TIP3    H215112   0.845   5.754   3.267  2.2662  1.1566  1.6698
 5050TIP3   OH215113   6.893   5.041   0.187  0.9240 -0.7112  0.1822
 5050TIP3    H115114   6.952   5.114   0.167  0.0665 -0.2726 -0.8359
 5050TIP3    H215115   6.823   5.080   0.239  0.6333 -0.8660 -0.0876
 5051TIP3   OH215116   2.915   3.362   0.154 -0.2839  0.1063  0.3234
 5051TIP3    H115117   2.972   3.287   0.137 -0.4944  0.3017 -1.3999
 5051TIP3    H215118   2.826   3.328   0.144 -0.4632  0.1061  1.7074
 5052TIP3   OH215119   1.204   2.869   0.490 -0.3940 -0.0570  0.3407
 5052TIP3    H115120   1.274   2.813   0.458  0.3324 -0.6765  2.7671
 5052TIP3    H215121   1.174   2.827   0.571 -0.4315  2.5260  1.7873
 5053TIP3   OH215122   7.116   3.776   1.971  0.0298 -0.4672  0.6509
 5053TIP3    H115123   7.087   3.746   1.885  0.5892 -0.1229  0.3319
 5053TIP3    H215124   7.083   3.711   2.032 -0.5680 -0.5972  0.2016
 5054TIP3   OH215125   2.611   5.494   0.570 -0.0623  0.2418  0.5764
 5054TIP3    H115126   2.537   5.554   0.581  0.0132  0.3667  0.4120
 5054TIP3    H215127   2.677   5.546   0.525  0.9503  0.8065  2.5641
 5055TIP3   OH215128   3.697   1.852   4.239 -0.2088  0.7350  0.0519
 5055TIP3    H115129   3.746   1.783   4.194  0.4467 -0.1023  1.9172
 5055TIP3    H215130   3.618   1.808   4.271  1.2350  0.1512  3.1574
 5056TIP3   OH215131   7.016   4.865   1.647  0.4203  0.2358  0.2714
 5056TIP3    H115132   6.944   4.857   1.710 -0.0111 -1.7156 -0.3984
 5056TIP3    H215133   7.048   4.775   1.636  1.1636  0.6840 -1.4887
 5057TIP3   OH215134   2.401   5.577   4.849 -0.3542  0.0068  0.0211
 5057TIP3    H115135   2.355   5.656   4.876 -0.1132  0.5090 -0.9774
 5057TIP3    H215136   2.466   5.608   4.786 -0.0342 -0.9503 -0.1342
 5058TIP3   OH215137   4.152   6.618   1.192  0.3333 -0.4172  0.0752
 5058TIP3    H115138   4.229   6.606   1.137 -0.7391  1.2684 -1.9092
 5058TIP3    H215139   4.169   6.699   1.240 -0.1398 -0.1237 -0.2507
 5059TIP3   OH215140   0.775   4.819   2.177 -0.0843 -0.0048  0.2204
 5059TIP3    H115141   0.867   4.804   2.202 -0.3907 -1.7713  0.4235
 5059TIP3    H215142   0.755   4.905   2.213  1.7361  0.8048 -0.5627
 5060TIP3   OH215143   0.520   1.054   1.504  0.0074  0.0656 -0.3639
 5060TIP3    H115144   0.540   1.142   1.535  0.3098 -0.7827  2.0579
 5060TIP3    H215145   0.605   1.017   1.480  0.1948 -0.3184  0.8324
 5061TIP3   OH215146   2.519   3.511   3.797  0.6850  0.3949 -0.2018
 5061TIP3    H115147   2.429   3.506   3.828  0.1800 -0.9024 -1.7778
 5061TIP3    H215148   2.568   3.453   3.856  0.1515 -0.3352 -0.4733
 5062TIP3   OH215149   0.490   4.864   4.389  0.6381 -0.0636  0.3469
 5062TIP3    H115150   0.504   4.959   4.393 -2.2129  0.5624 -1.4444
 5062TIP3    H215151   0.510   4.833   4.477 -1.1366  2.7011  1.8798
 5063TIP3   OH215152   3.356   0.153   4.098  0.0947 -0.2271 -0.0113
 5063TIP3    H115153   3.341   0.157   4.004 -0.5103  2.2306  0.1368
 5063TIP3    H215154   3.274   0.120   4.134 -0.2995  0.4797 -0.2366
 5064TIP3   OH215155   4.078   6.196   3.692  0.0100  0.3454  0.3723
 5064TIP3    H115156   4.148   6.240   3.740  0.9456 -0.5353 -0.1363
 5064TIP3    H215157   4.071   6.244   3.610 -1.4702  1.7433  1.2516
 5065TIP3   OH215158   3.745   2.582   2.390  0.4936 -0.0521 -0.2736
 5065TIP3    H115159   3.704   2.509   2.436 -0.2063 -0.0648 -0.9119
 5065TIP3    H215160   3.725   2.567   2.298  1.9732 -0.0909 -0.6152
 5066TIP3   OH215161   7.158   4.106   3.232 -0.1196 -0.2327  0.1901
 5066TIP3    H115162   7.159   4.189   3.183  0.6670  0.6164  1.5733
 5066TIP3    H215163   7.248   4.074   3.225  0.2299  0.3333  1.7412
 5067TIP3   OH215164   3.654   6.616   4.977  0.8954  0.2350  0.3598
 5067TIP3    H115165   3.707   6.544   4.943  1.6854 -0.0963  2.1496
 5067TIP3    H215166   3.591   6.573   5.035  1.4857  0.9618  1.5757
 5068TIP3   OH215167   0.159   4.896   2.722 -0.3236 -0.1622 -0.1918
 5068TIP3    H115168   0.183   4.817   2.674  0.1229 -0.3159  0.2681
 5068TIP3    H215169   0.151   4.964   2.656 -1.7587 -0.8130 -0.7345
 5069TIP3   OH215170   2.894   4.217   0.374  0.0192  0.5952 -0.2934
 5069TIP3    H115171   2.894   4.124   0.352  0.3204  1.0109 -2.2964
 5069TIP3    H215172   2.906   4.220   0.469  3.2658 -1.3900 -0.4937
 5070TIP3   OH215173   1.498   6.257   5.728 -0.4586  0.0272  0.0393
 5070TIP3    H115174   1.479   6.289   5.816  0.5023 -1.2888  0.7552
 5070TIP3    H215175   1.587   6.286   5.711  0.2969 -1.8671  0.5569
 5071TIP3   OH215176  -0.026   1.376   5.322 -0.1978  0.2553  0.0639
 5071TIP3    H115177   0.022   1.294   5.337 -0.6824 -0.4769 -2.0066
 5071TIP3    H215178   0.040   1.438   5.293  0.0538  0.4044  0.9212
 5072TIP3   OH215179   0.940   5.745   4.241 -0.3793  0.1439 -0.0049
 5072TIP3    H115180   0.852   5.722   4.214 -0.1764 -0.8469  0.1510
 5072TIP3    H215181   0.930   5.831   4.282 -1.1114  0.4553 -0.8126
 5073TIP3   OH215182   3.267   0.015   1.148  0.4526  0.2129  0.2760
 5073TIP3    H115183   3.310  -0.024   1.071 -0.1327 -2.4308  1.1641
 5073TIP3    H215184   3.327   0.084   1.176  2.5520 -1.1971 -0.4182
 5074TIP3   OH215185   6.914   5.429   0.065  0.5784 -0.4172  0.0128
 5074TIP3    H115186   6.921   5.482  -0.014 -0.1044  1.4876  1.1713
 5074TIP3    H215187   6.831   5.455   0.105  0.7813 -1.5120  1.2390
 5075TIP3   OH215188   5.654   6.159   5.132  0.1418  0.5270  0.1897
 5075TIP3    H115189   5.635   6.068   5.155  1.2886 -0.0243 -0.9168
 5075TIP3    H215190   5.720   6.187   5.196 -0.0149  0.4933  0.3664
 5076TIP3   OH215191   7.007   0.039   0.663 -0.0245  0.1880  0.5556
 5076TIP3    H115192   7.037  -0.007   0.585  0.0381 -0.7867  1.1457
 5076TIP3    H215193   7.037   0.129   0.651 -1.0414  0.3419 -1.0957
 5077TIP3   OH215194   2.778   3.921   1.971  0.0297  0.5881  0.1033
 5077TIP3    H115195   2.746   3.951   2.056 -0.6109 -1.1055  0.4944
 5077TIP3    H215196   2.844   3.855   1.992  0.0576  0.3464 -0.7168
 5078TIP3   OH215197   2.759   4.186   1.925 -0.6341 -0.4350 -0.6044
 5078TIP3    H115198   2.833   4.214   1.871 -0.2339 -0.6759 -0.1847
 5078TIP3    H215199   2.744   4.095   1.898 -2.9903  0.5608 -3.1726
 5079TIP3   OH215200   2.136   0.808   0.916 -0.0283  0.2041  0.0428
 5079TIP3    H115201   2.138   0.734   0.856 -2.8967 -0.0319  0.1188
 5079TIP3    H215202   2.153   0.884   0.861  3.6292 -0.4094  0.0612
 5080TIP3   OH215203   4.034   5.720   0.491  1.0115 -0.1946 -0.5691
 5080TIP3    H115204   4.023   5.814   0.498  2.0425 -0.1013  0.0438
 5080TIP3    H215205   4.050   5.704   0.398 -1.1026 -0.0209 -1.0167
 5081TIP3   OH215206   1.168   4.376   4.886 -0.1809 -0.0078  0.0234
 5081TIP3    H115207   1.249   4.330   4.864 -0.1735 -1.0637  2.0486
 5081TIP3    H215208   1.195   4.451   4.939 -0.3735  1.1220 -1.4134
 5082TIP3   OH215209   5.384   0.560   0.360 -0.1728  0.3041 -0.3372
 5082TIP3    H115210   5.373   0.540   0.453 -0.5515  1.2944 -0.1646
 5082TIP3    H215211   5.420   0.479   0.323 -1.6979 -0.7175  0.3270
 5083TIP3   OH215212   1.761   1.372   4.407  0.0269  0.2327 -0.1999
 5083TIP3    H115213   1.717   1.316   4.472 -0.4758  1.7668  0.8224
 5083TIP3    H215214   1.734   1.335   4.323 -1.3790 -0.2766  0.4293
 5084TIP3   OH215215   2.364   4.403   4.834 -0.3030  0.0296 -0.3222
 5084TIP3    H115216   2.333   4.383   4.922  1.6325 -0.2822  0.3166
 5084TIP3    H215217   2.361   4.499   4.830  1.1390  0.1416  0.6930
 5085TIP3   OH215218   1.448   4.201   1.897 -0.0286 -0.5343 -0.4361
 5085TIP3    H115219   1.449   4.208   1.992 -1.0648 -0.4121 -0.4249
 5085TIP3    H215220   1.415   4.113   1.879  0.0505 -0.5144 -0.6863
 5086TIP3   OH215221   5.424   2.793   5.828 -0.0343 -0.1539  0.7069
 5086TIP3    H115222   5.504   2.745   5.848 -0.7235 -1.4199  0.4798
 5086TIP3    H215223   5.434   2.876   5.875  1.2903 -0.3920  0.8889
 5087TIP3   OH215224   6.782   5.479   3.041  0.5905  0.0194 -0.0259
 5087TIP3    H115225   6.804   5.534   3.116 -1.1022  2.2611 -1.0356
 5087TIP3    H215226   6.755   5.541   2.973 -0.3303 -2.0284 -1.6527
 5088TIP3   OH215227   1.693   4.717   3.422  0.4916  0.2174 -0.0758
 5088TIP3    H115228   1.781   4.680   3.410  0.8087  0.2952  1.7492
 5088TIP3    H215229   1.673   4.759   3.338  2.4522  0.7270 -0.3350
 5089TIP3   OH215230   3.801   4.832   3.784 -0.4575  0.4815  0.3503
 5089TIP3    H115231   3.868   4.769   3.810  0.0036 -0.3349 -2.5367
 5089TIP3    H215232   3.843   4.917   3.793  0.7919  0.0132 -0.7951
 5090TIP3   OH215233   5.810   1.774   1.119  0.0110 -0.3929 -0.3534
 5090TIP3    H115234   5.856   1.693   1.095  1.6579 -0.0273  1.3422
 5090TIP3    H215235   5.753   1.792   1.044  1.4324 -1.7640 -1.8605
 5091TIP3   OH215236   1.479   0.624   3.720 -0.5827  0.2537  0.4165
 5091TIP3    H115237   1.384   0.631   3.728 -0.5924  1.3471 -0.4605
 5091TIP3    H215238   1.513   0.665   3.800 -0.8456 -0.6297  0.9908
 5092TIP3   OH215239   0.943   6.316   3.387 -0.1136  0.1607 -0.0322
 5092TIP3    H115240   1.026   6.345   3.424  1.8377 -2.1210 -2.2518
 5092TIP3    H215241   0.894   6.397   3.372  1.3710  1.5303  1.9291
 5093TIP3   OH215242   1.381   0.634   4.536  0.4955  0.3075 -0.6960
 5093TIP3    H115243   1.295   0.595   4.518  0.4289  0.5054 -0.8176
 5093TIP3    H215244   1.439   0.593   4.471 -0.1294  2.4428 -2.7565
 5094TIP3   OH215245   7.203   0.445   2.081 -0.1543  0.3758 -0.2796
 5094TIP3    H115246   7.150   0.488   2.148  0.3478 -0.4023  0.6458
 5094TIP3    H215247   7.241   0.518   2.030 -0.5005  0.9817  0.3143
 5095TIP3   OH215248   6.658   4.487   2.797  0.3888 -0.1705 -0.0123
 5095TIP3    H115249   6.667   4.458   2.706 -0.8963  2.7381 -1.1863
 5095TIP3    H215250   6.669   4.582   2.794 -2.9272  0.4802  2.3011
 5096TIP3   OH215251   1.314   5.852   5.292 -0.5100  0.5911 -0.2836
 5096TIP3    H115252   1.329   5.867   5.199  0.2126  0.1202 -0.2524
 5096TIP3    H215253   1.300   5.757   5.299 -0.7288  0.6477  0.0676
 5097TIP3   OH215254   7.051   3.547   0.829 -0.9941  0.4508 -0.3571
 5097TIP3    H115255   7.091   3.517   0.911 -2.7917  0.7058  0.6830
 5097TIP3    H215256   7.108   3.617   0.799  1.4826 -1.7112 -1.0906
 5098TIP3   OH215257   1.630   5.915   3.358  0.6787 -0.3228  0.3175
 5098TIP3    H115258   1.601   5.908   3.267  1.6945 -0.0884 -0.0383
 5098TIP3    H215259   1.600   6.001   3.386  0.0440 -0.5420  0.3275
 5099TIP3   OH215260   0.797   3.339   5.891 -0.4272 -0.3688  0.2573
 5099TIP3    H115261   0.778   3.246   5.903  0.3805 -0.7670 -1.2533
 5099TIP3    H215262   0.770   3.358   5.801  0.4002  0.5860  0.1833
 5100TIP3   OH215263   1.637   3.708   5.552 -0.5040 -0.5158  0.5832
 5100TIP3    H115264   1.677   3.644   5.610 -0.8020 -1.4370 -0.2123
 5100TIP3    H215265   1.597   3.657   5.483 -0.4956  0.5447 -0.2368
 5101TIP3   OH215266   4.217   4.230   0.085 -0.4756  0.0419 -0.6146
 5101TIP3    H115267   4.166   4.162   0.041 -1.4052 -2.4611  3.7521
 5101TIP3    H215268   4.159   4.261   0.155  2.3056  0.5097  1.6455
 5102TIP3   OH215269   4.697   4.818   3.895 -0.5037 -0.3685  0.0922
 5102TIP3    H115270   4.779   4.852   3.860 -1.0028  0.1042 -0.6462
 5102TIP3    H215271   4.630   4.847   3.832 -1.0525 -2.0473 -0.1590
 5103TIP3   OH215272   3.099   1.579   1.888  0.0373  0.0010  0.3544
 5103TIP3    H115273   3.032   1.597   1.954 -0.9866  0.6325 -0.8235
 5103TIP3    H215274   3.152   1.659   1.885  0.3488 -0.1912  0.7137
 5104TIP3   OH215275   5.688   0.690   4.050  0.0000  0.4077  0.6261
 5104TIP3    H115276   5.733   0.697   3.966  0.3454  0.9611  0.8554
 5104TIP3    H215277   5.719   0.608   4.087 -0.2388  0.1050  0.1666
 5105TIP3   OH215278   2.867   0.358   0.050 -0.1159  0.1445  0.0388
 5105TIP3    H115279   2.833   0.442   0.080  1.5040  1.4802 -1.6040
 5105TIP3    H215280   2.792   0.298   0.055 -1.0834  1.4058  2.1127
 5106TIP3   OH215281   3.269   2.865   0.071  0.3852 -0.0645  0.2837
 5106TIP3    H115282   3.193   2.810   0.091 -0.6261  1.3782  0.6146
 5106TIP3    H215283   3.336   2.838   0.133 -0.3408 -0.4244  0.9221
 5107TIP3   OH215284   1.872   5.438   4.893 -0.0734  0.0202 -0.5590
 5107TIP3    H115285   1.805   5.500   4.862  0.4094  0.8701  0.0450
 5107TIP3    H215286   1.952   5.465   4.847  0.3091  0.3356  0.2730
 5108TIP3   OH215287   4.028   3.073   3.786  0.2949 -0.7618 -0.1015
 5108TIP3    H115288   3.960   3.079   3.718  0.1744 -0.9872 -0.0016
 5108TIP3    H215289   4.107   3.105   3.743 -0.5144  2.6389  0.7121
 5109TIP3   OH215290   6.117   1.391   2.448 -0.1484  0.6002  0.7155
 5109TIP3    H115291   6.153   1.307   2.477 -1.0437  0.6313  1.9527
 5109TIP3    H215292   6.089   1.435   2.528  1.0652  2.4747  0.1919
 5110TIP3   OH215293   6.917   1.806   1.559  0.4015 -0.2801 -0.3762
 5110TIP3    H115294   6.977   1.732   1.564 -0.5834 -1.0783 -0.1524
 5110TIP3    H215295   6.846   1.777   1.501 -0.8152 -0.1273  0.9817
 5111TIP3   OH215296   1.414   4.945   5.456 -0.4135 -0.1716 -0.5513
 5111TIP3    H115297   1.494   4.998   5.465  0.9295 -2.3041  1.2560
 5111TIP3    H215298   1.377   4.943   5.544 -1.6904 -0.4383 -1.0718
 5112TIP3   OH215299   3.344   0.102   0.052 -0.6411  0.5118  0.8008
 5112TIP3    H115300   3.407   0.136  -0.012 -0.6562 -0.8129  0.0391
 5112TIP3    H215301   3.396   0.051   0.113 -1.0805 -2.0463 -0.8256
 5113TIP3   OH215302   6.951   4.241   3.721 -0.0062  0.1308 -0.3807
 5113TIP3    H115303   6.972   4.285   3.639 -0.0337  0.9736  0.0624
 5113TIP3    H215304   6.887   4.298   3.764  1.4734  0.7332  1.1482
 5114TIP3   OH215305   5.585   6.540   1.415 -0.2944 -0.8504  0.3398
 5114TIP3    H115306   5.619   6.593   1.486 -1.1887 -2.8528  2.4260
 5114TIP3    H215307   5.660   6.489   1.384  0.1144  0.0786 -0.2170
 5115TIP3   OH215308   3.791   4.524   0.385 -0.1021 -0.0440 -0.0198
 5115TIP3    H115309   3.757   4.525   0.475  1.1822 -1.5715  0.5356
 5115TIP3    H215310   3.885   4.510   0.396 -0.1030 -1.6755 -1.6346
 5116TIP3   OH215311   1.664   5.074   1.552  0.2689 -0.3901 -0.2108
 5116TIP3    H115312   1.705   5.156   1.578  0.2332 -0.0990 -1.0630
 5116TIP3    H215313   1.635   5.035   1.635 -2.4658  1.8877  0.0675
 5117TIP3   OH215314   1.986   5.982   2.566 -0.5402 -0.0118 -0.0380
 5117TIP3    H115315   1.971   6.004   2.474  1.4479 -0.6436 -0.5652
 5117TIP3    H215316   1.909   6.016   2.612 -0.3106  2.8190 -1.5408
 5118TIP3   OH215317   4.684   1.076   5.120 -0.2226  0.2652 -0.3524
 5118TIP3    H115318   4.705   1.048   5.209  0.0830  0.9185 -0.2114
 5118TIP3    H215319   4.708   1.001   5.065 -1.1607 -0.4390  0.1822
 5119TIP3   OH215320   0.677   3.052   2.748  0.2085 -0.9236  0.0389
 5119TIP3    H115321   0.682   3.107   2.671 -0.0439 -0.7525  0.1435
 5119TIP3    H215322   0.760   3.067   2.794 -0.0556 -0.2597  0.3156
 5120TIP3   OH215323   1.180   4.911   1.177  0.0909  0.4907 -0.2095
 5120TIP3    H115324   1.199   4.853   1.251  1.1343  1.8802  0.6884
 5120TIP3    H215325   1.137   4.987   1.218 -0.9649  0.4995 -1.2962
 5121TIP3   OH215326   1.918   4.119   3.614 -0.7950  0.0948 -0.2799
 5121TIP3    H115327   1.934   4.209   3.640 -0.9068 -0.5086  2.1145
 5121TIP3    H215328   1.851   4.088   3.676 -1.7708 -1.2327 -1.9164
 5122TIP3   OH215329   3.063   3.263   2.048 -0.1913  0.0190 -0.2202
 5122TIP3    H115330   2.996   3.203   2.080  0.0828 -0.4689 -0.5551
 5122TIP3    H215331   3.122   3.209   1.996  0.5361  0.4126  0.1690
 5123TIP3   OH215332   6.460   0.377   0.451  0.0875  0.1957 -0.0068
 5123TIP3    H115333   6.394   0.439   0.481  0.8078  0.3888  1.2167
 5123TIP3    H215334   6.483   0.327   0.529  0.0418 -1.1416 -0.8171
 5124TIP3   OH215335   4.970   0.515   4.827  0.1042  0.3927 -0.5714
 5124TIP3    H115336   4.979   0.610   4.834  0.0528  0.5230 -2.0127
 5124TIP3    H215337   4.979   0.496   4.734  1.6616 -1.2004 -0.1457
 5125TIP3   OH215338   6.138   2.156   1.583 -0.1779  0.0742  0.6933
 5125TIP3    H115339   6.048   2.188   1.584 -0.1417  0.2174  0.0430
 5125TIP3    H215340   6.185   2.214   1.642 -0.4573  0.1614  0.8317
 5126TIP3   OH215341   4.606   3.196   2.409  0.0477 -0.4687 -0.3668
 5126TIP3    H115342   4.684   3.237   2.447  0.0196 -0.2066 -0.5859
 5126TIP3    H215343   4.589   3.247   2.330 -2.1099  1.4058  1.1938
 5127TIP3   OH215344   5.340   0.732   4.680  0.2422 -0.5116  0.4249
 5127TIP3    H115345   5.336   0.708   4.587  0.9995 -0.8570  0.4680
 5127TIP3    H215346   5.293   0.815   4.686 -0.5651 -0.9166 -0.1100
 5128TIP3   OH215347   4.814   2.182   5.074  0.0589 -0.1601  0.0532
 5128TIP3    H115348   4.719   2.195   5.069 -0.2282 -2.2117 -0.8434
 5128TIP3    H215349   4.830   2.166   5.167 -0.3040  1.1201  0.3601
 5129TIP3   OH215350   5.835   5.558   4.178  0.1769 -0.1658  0.6126
 5129TIP3    H115351   5.742   5.579   4.162  0.4907  0.3649 -0.7053
 5129TIP3    H215352   5.838   5.528   4.269 -0.7606  3.0403  1.8330
 5130TIP3   OH215353   3.133   2.781   5.435 -0.4974  0.1245  0.4420
 5130TIP3    H115354   3.180   2.841   5.494  0.1958  0.4099 -0.3764
 5130TIP3    H215355   3.044   2.816   5.431 -0.3633  0.5157  0.7671
 5131TIP3   OH215356   1.169   6.418   1.930  0.1901 -0.1519 -0.0769
 5131TIP3    H115357   1.236   6.402   1.996 -0.5319 -3.3728  0.0430
 5131TIP3    H215358   1.180   6.346   1.867 -2.7032 -0.4517 -0.3812
 5132TIP3   OH215359   2.656   2.459   3.986  0.1037 -0.1911 -0.1385
 5132TIP3    H115360   2.615   2.387   4.034  0.8875 -0.2597  0.4520
 5132TIP3    H215361   2.590   2.486   3.923 -0.6595 -0.6272  0.4470
 5133TIP3   OH215362   3.357   0.700   5.522  0.6026 -0.0985 -0.3039
 5133TIP3    H115363   3.273   0.722   5.562  1.4273  0.1927  1.3190
 5133TIP3    H215364   3.422   0.742   5.577  1.8472 -0.4997 -1.4158
 5134TIP3   OH215365   0.536   6.364   2.620 -0.0714  0.2271 -0.2051
 5134TIP3    H115366   0.619   6.337   2.658 -2.2692 -2.8587  3.1106
 5134TIP3    H215367   0.496   6.421   2.686 -2.6799 -2.7375  1.0513
 5135TIP3   OH215368   7.101   1.100   3.219 -0.3809 -0.2590 -0.4920
 5135TIP3    H115369   7.104   1.190   3.188  1.8334 -0.3049 -0.5591
 5135TIP3    H215370   7.092   1.107   3.314  0.0930  0.0535 -0.4684
 5136TIP3   OH215371   4.989   4.466   1.889 -0.0837 -0.1509 -0.3608
 5136TIP3    H115372   4.951   4.392   1.936 -0.2819 -1.5877 -2.6212
 5136TIP3    H215373   5.075   4.435   1.862 -0.5225  0.0469 -2.1234
 5137TIP3   OH215374   4.306   0.137   1.394 -0.1003  0.3371 -0.2926
 5137TIP3    H115375   4.342   0.156   1.481 -0.6932  1.3862 -0.2525
 5137TIP3    H215376   4.252   0.059   1.407 -1.3076  1.2832  0.6187
 5138TIP3   OH215377   1.300   4.214   5.195  0.4494 -0.1120 -0.3370
 5138TIP3    H115378   1.348   4.274   5.138 -1.7120  2.3845  0.2354
 5138TIP3    H215379   1.286   4.136   5.142  0.9129  1.0171 -2.2148
 5139TIP3   OH215380   5.077   3.989   3.500  0.0485 -0.3210  0.0333
 5139TIP3    H115381   5.100   3.910   3.549 -0.4226 -0.6317 -0.2289
 5139TIP3    H215382   5.040   4.048   3.565  0.7647 -0.1579  0.3004
 5140TIP3   OH215383   3.848   3.362   5.386  0.1557  0.0338 -0.1465
 5140TIP3    H115384   3.900   3.425   5.336 -3.2706  2.6753 -0.7847
 5140TIP3    H215385   3.797   3.315   5.319  0.2848 -1.1377  0.5494
 5141TIP3   OH215386   0.798   5.344   2.106  0.0668  0.5725 -0.8040
 5141TIP3    H115387   0.822   5.437   2.097 -0.4077  0.5891 -2.0994
 5141TIP3    H215388   0.848   5.300   2.038  3.3224 -0.7866  2.1539
 5142TIP3   OH215389   5.652   6.594   0.727  0.6126 -0.5693 -0.4763
 5142TIP3    H115390   5.688   6.637   0.650  0.0242  0.2382 -0.3199
 5142TIP3    H215391   5.672   6.654   0.799 -0.3038 -0.4856 -0.2679
 5143TIP3   OH215392   1.501   0.550   1.045 -0.4134  0.4448  0.4662
 5143TIP3    H115393   1.482   0.625   1.102  0.0055  0.1812  0.9597
 5143TIP3    H215394   1.588   0.569   1.009 -0.2067  0.0865  0.7729
 5144TIP3   OH215395   1.398   6.367   0.887 -0.2056  0.5701  0.4056
 5144TIP3    H115396   1.379   6.336   0.975 -1.7793 -0.1800 -0.1552
 5144TIP3    H215397   1.486   6.405   0.893 -0.0246 -0.0355  2.1320
 5145TIP3   OH215398   4.617   3.503   0.207 -0.0541 -0.2224 -0.1961
 5145TIP3    H115399   4.689   3.564   0.197 -0.0581 -0.3762 -1.3593
 5145TIP3    H215400   4.598   3.473   0.118 -1.6651 -0.0512  0.0533
 5146TIP3   OH215401   3.813   4.388   1.911  0.0993 -0.1505  0.0802
 5146TIP3    H115402   3.854   4.473   1.898 -0.6965  0.2352  0.0239
 5146TIP3    H215403   3.884   4.325   1.899  0.5453  0.4663 -0.6076
 5147TIP3   OH215404   1.151   2.658   2.099  0.3133 -0.2383  0.3869
 5147TIP3    H115405   1.202   2.734   2.074 -1.1252  0.6278 -0.0602
 5147TIP3    H215406   1.102   2.635   2.021  1.1870 -2.0481  0.3229
 5148TIP3   OH215407   3.660   3.279   0.479 -0.4669  0.0070  0.3438
 5148TIP3    H115408   3.643   3.312   0.567 -1.9930  1.0804 -0.3259
 5148TIP3    H215409   3.668   3.357   0.425  3.0135 -0.4995 -0.1227
 5149TIP3   OH215410   2.359   0.169   5.863  0.1305  0.0956  0.2440
 5149TIP3    H115411   2.311   0.139   5.786  1.1494 -1.7770  0.2781
 5149TIP3    H215412   2.375   0.262   5.846 -1.5818  0.2575 -0.7522
 5150TIP3   OH215413   1.655   0.649   4.972 -0.3959  0.1956  0.1455
 5150TIP3    H115414   1.571   0.665   5.014 -1.5924 -1.9544 -1.2518
 5150TIP3    H215415   1.673   0.728   4.923 -0.8422  1.2485  1.6115
 5151TIP3   OH215416   6.886   4.720   3.212  0.3391  0.3730 -0.0032
 5151TIP3    H115417   6.811   4.757   3.259 -0.5515 -1.8272  0.4018
 5151TIP3    H215418   6.858   4.718   3.121  0.6369  1.2181 -0.1247
 5152TIP3   OH215419   0.683   2.118   2.851  0.0236  0.4889 -0.8019
 5152TIP3    H115420   0.658   2.197   2.900 -0.3114  0.3350 -0.7228
 5152TIP3    H215421   0.745   2.150   2.785  1.6270  0.4949  0.6184
 5153TIP3   OH215422   0.107   4.244   5.012  0.0036 -0.2408 -0.5505
 5153TIP3    H115423   0.193   4.204   4.995 -0.1703 -1.2620  0.8837
 5153TIP3    H215424   0.059   4.231   4.930  0.6596 -1.1240 -0.8125
 5154TIP3   OH215425   1.241   1.224   0.215 -0.0212  0.0956 -0.7424
 5154TIP3    H115426   1.192   1.289   0.165 -0.9254  0.2554  0.2956
 5154TIP3    H215427   1.235   1.254   0.306 -0.2494 -1.2824 -0.2750
 5155TIP3   OH215428   0.976   5.950   3.909  0.8694 -0.1372  0.0673
 5155TIP3    H115429   0.978   6.032   3.958 -1.5839 -0.4649  0.8534
 5155TIP3    H215430   0.957   5.977   3.819 -0.2399  0.1856  0.3784
 5156TIP3   OH215431   0.630   3.963   0.255 -0.2085  0.2846 -0.2710
 5156TIP3    H115432   0.675   4.010   0.325 -1.7111  2.5957 -0.7570
 5156TIP3    H215433   0.555   4.018   0.233 -1.8655 -2.1821 -1.2141
 5157TIP3   OH215434   1.674   5.832   3.067 -0.4003 -0.6060 -0.1533
 5157TIP3    H115435   1.621   5.752   3.058 -1.9732  0.4473 -0.5604
 5157TIP3    H215436   1.637   5.893   3.004  2.3372 -0.2987 -1.6541
 5158TIP3   OH215437   1.246   0.646   5.416  0.0544 -0.0197 -0.6271
 5158TIP3    H115438   1.154   0.627   5.434  0.1360  0.0435 -0.1274
 5158TIP3    H215439   1.245   0.732   5.374 -0.1039  0.0489 -0.4828
 5159TIP3   OH215440   0.455   3.324   4.396  0.3444  0.3326  0.4312
 5159TIP3    H115441   0.513   3.259   4.436  0.0576 -0.6219 -0.6258
 5159TIP3    H215442   0.495   3.344   4.312  0.5801  1.7874  0.8612
 5160TIP3   OH215443   1.868   3.674   2.346 -0.4956  0.1484  0.2074
 5160TIP3    H115444   1.881   3.768   2.353 -0.0822  0.0687  0.5635
 5160TIP3    H215445   1.773   3.663   2.350 -0.6140  0.6281 -0.9801
 5161TIP3   OH215446   0.150   2.112   1.847 -0.2674 -0.1439  0.9072
 5161TIP3    H115447   0.216   2.119   1.778  0.1687  1.8210  1.4558
 5161TIP3    H215448   0.125   2.020   1.848  1.2063 -0.5905 -0.4856
 5162TIP3   OH215449   1.890   3.157   3.606 -0.1599 -0.6441 -0.5790
 5162TIP3    H115450   1.874   3.063   3.615 -0.7680 -0.4866  0.0567
 5162TIP3    H215451   1.808   3.198   3.635 -0.0074  0.0756 -1.1378
 5163TIP3   OH215452   0.619   1.140   0.559 -0.3201  0.2500  0.3130
 5163TIP3    H115453   0.603   1.151   0.652  0.8584  0.8694  0.4609
 5163TIP3    H215454   0.663   1.220   0.532 -2.0771  0.7956 -1.1418
 5164TIP3   OH215455   6.900   2.401   3.178  0.0229 -0.4983  0.7607
 5164TIP3    H115456   6.844   2.475   3.152  0.9326  0.3993  1.3074
 5164TIP3    H215457   6.865   2.373   3.262 -0.4092 -0.7891  0.4888
 5165TIP3   OH215458   7.148   2.996   3.443 -0.1925  0.8393 -0.1843
 5165TIP3    H115459   7.117   3.063   3.383 -0.5787  1.3184  0.5309
 5165TIP3    H215460   7.242   3.009   3.450  0.3129 -0.8334 -2.6399
 5166TIP3   OH215461   3.324   1.131   4.313 -0.4616  0.0031 -0.6663
 5166TIP3    H115462   3.372   1.176   4.244  1.3817  0.7713  1.0333
 5166TIP3    H215463   3.247   1.187   4.328  1.5166  2.4815  1.0483
 5167TIP3   OH215464   6.514   0.065   3.833  0.0434 -0.4822 -0.0713
 5167TIP3    H115465   6.550   0.145   3.871  0.3152 -0.2419 -0.8048
 5167TIP3    H215466   6.420   0.068   3.855  0.5631 -1.6220  2.7362
 5168TIP3   OH215467   6.085   5.439   4.045 -0.6188  0.0233 -0.3476
 5168TIP3    H115468   6.060   5.470   3.958  0.3272 -0.2928 -0.7462
 5168TIP3    H215469   6.004   5.442   4.095 -0.9857  1.1419 -0.9566
 5169TIP3   OH215470   4.623   0.696   5.274 -0.2036  0.5982  0.1727
 5169TIP3    H115471   4.568   0.720   5.349 -0.3048  1.5919 -0.2057
 5169TIP3    H215472   4.562   0.669   5.207 -0.1091 -0.3532  0.4602
 5170TIP3   OH215473   5.862   3.660   5.726  0.0960  0.1671  0.0783
 5170TIP3    H115474   5.790   3.673   5.664  0.3421 -1.0201 -0.4736
 5170TIP3    H215475   5.940   3.648   5.672  0.6879  1.1521  0.6693
 5171TIP3   OH215476   5.422   4.721   2.102  0.4703 -0.4323  0.0225
 5171TIP3    H115477   5.447   4.661   2.172  2.2710 -0.3948 -0.5487
 5171TIP3    H215478   5.433   4.670   2.022 -0.4724 -0.1160 -0.3197
 5172TIP3   OH215479   5.570   6.100   2.259 -0.1361 -0.1213 -0.1960
 5172TIP3    H115480   5.596   6.147   2.180  0.2308 -2.6444 -1.6961
 5172TIP3    H215481   5.569   6.008   2.233  0.2598 -1.1047  2.8219
 5173TIP3   OH215482   6.651   0.894   2.848 -0.1124  0.2337  0.4348
 5173TIP3    H115483   6.706   0.860   2.778  0.9176  0.6439  1.0291
 5173TIP3    H215484   6.686   0.981   2.866 -0.6389  0.3006  1.1766
 5174TIP3   OH215485   5.123   5.535   1.011 -0.3425 -0.3708 -0.2713
 5174TIP3    H115486   5.074   5.608   0.974  1.5532  0.7932 -0.5604
 5174TIP3    H215487   5.147   5.564   1.099  1.9124  0.1056 -1.0047
 5175TIP3   OH215488   5.690   0.134   3.440  0.4648 -0.6123 -0.2962
 5175TIP3    H115489   5.653   0.084   3.368  1.4790 -1.2993 -0.3633
 5175TIP3    H215490   5.733   0.208   3.397  0.2493 -0.4994 -0.3180
 5176TIP3   OH215491   7.142   3.067   1.188 -0.0601 -0.3289  0.4398
 5176TIP3    H115492   7.145   3.030   1.276  0.0106  1.6396  1.3014
 5176TIP3    H215493   7.084   3.142   1.195  0.3194  0.1486 -1.0964
 5177TIP3   OH215494   4.851   4.239   3.237  0.3510 -0.0708 -0.0438
 5177TIP3    H115495   4.905   4.160   3.235  1.9959  1.0062 -0.5000
 5177TIP3    H215496   4.900   4.299   3.293 -0.1768  1.0981 -0.7988
 5178TIP3   OH215497   3.623   1.908   4.606 -0.7115  0.4237 -0.0969
 5178TIP3    H115498   3.534   1.877   4.587 -0.1893 -1.4671  0.3228
 5178TIP3    H215499   3.614   1.957   4.688 -1.3512  0.0850  0.0436
 5179TIP3   OH215500   4.313   5.007   4.731 -0.1314 -0.4850 -0.0068
 5179TIP3    H115501   4.293   5.067   4.660  1.1128 -0.3303 -0.2453
 5179TIP3    H215502   4.250   5.030   4.800  0.3706  1.1715 -0.0562
 5180TIP3   OH215503   3.128   2.312   5.444  0.1563 -0.2321  0.4464
 5180TIP3    H115504   3.065   2.318   5.372 -0.9615 -0.6787  1.3624
 5180TIP3    H215505   3.172   2.228   5.430 -0.9829 -0.9394  0.9978
 5181TIP3   OH215506   4.512   3.448   1.884  0.0145 -0.2933 -0.0832
 5181TIP3    H115507   4.531   3.469   1.976  0.3753  0.7290 -0.3832
 5181TIP3    H215508   4.571   3.505   1.834 -2.0372  1.1244 -0.9963
 5182TIP3   OH215509   1.038   1.716   5.202  0.2537  0.2925  0.5268
 5182TIP3    H115510   1.106   1.720   5.269  0.8896 -0.9797 -0.0010
 5182TIP3    H215511   1.087   1.711   5.119 -0.4479 -0.9858  0.1630
 5183TIP3   OH215512   2.941   4.134   1.442 -0.6125  0.1319 -0.1332
 5183TIP3    H115513   2.852   4.116   1.413 -0.9622  1.3320  0.1312
 5183TIP3    H215514   2.995   4.070   1.395 -1.5593 -0.3406 -0.6073
 5184TIP3   OH215515   1.872   1.360   2.096 -0.1732 -0.1624  0.1911
 5184TIP3    H115516   1.808   1.395   2.036 -0.9039  0.4393  1.2842
 5184TIP3    H215517   1.948   1.340   2.042 -1.0864 -0.3891 -1.0366
 5185TIP3   OH215518   2.282   4.290   3.513  0.1678 -0.4600  0.2563
 5185TIP3    H115519   2.356   4.257   3.462 -0.0176 -0.8282  0.2161
 5185TIP3    H215520   2.312   4.284   3.604  0.4150 -0.0168  0.2080
 5186TIP3   OH215521   0.367   4.970   2.942 -0.2064  0.5046 -0.2212
 5186TIP3    H115522   0.284   4.944   2.903 -0.1260  1.7066 -1.2798
 5186TIP3    H215523   0.358   5.064   2.959  1.0921  0.7678 -0.8217
 5187TIP3   OH215524   0.219   3.302   0.627  0.2354  0.0511 -0.5199
 5187TIP3    H115525   0.178   3.329   0.709 -0.7589  0.8003 -1.2309
 5187TIP3    H215526   0.293   3.247   0.653 -2.1973 -2.8853  0.8214
 5188TIP3   OH215527   5.034   6.156   3.117  0.0893 -0.2046 -0.2123
 5188TIP3    H115528   5.092   6.143   3.042 -0.4259 -0.1808 -0.6169
 5188TIP3    H215529   5.034   6.251   3.131 -0.4054 -0.1351 -0.6587
 5189TIP3   OH215530   6.850   1.186   4.026 -0.4272  0.0742  0.6313
 5189TIP3    H115531   6.871   1.189   4.119  0.2349 -0.7353  0.5225
 5189TIP3    H215532   6.907   1.253   3.986 -0.3354  0.0638  0.7450
 5190TIP3   OH215533   3.689   1.409   4.796  0.3505  0.5423  0.3314
 5190TIP3    H115534   3.740   1.465   4.855  1.6625  0.7961 -0.9823
 5190TIP3    H215535   3.754   1.364   4.743 -0.7668 -0.3221 -0.3587
 5191TIP3   OH215536   0.255   3.711   4.977  0.1817  0.3740  0.4211
 5191TIP3    H115537   0.297   3.651   4.915  0.5520 -0.1863  1.1934
 5191TIP3    H215538   0.319   3.722   5.047 -0.9543 -0.5163  1.6472
 5192TIP3   OH215539   5.418   1.078   3.338  0.0798  0.3868 -0.2652
 5192TIP3    H115540   5.342   1.034   3.375  0.7323 -1.1589 -0.7054
 5192TIP3    H215541   5.450   1.019   3.270  1.8636  0.8412  0.1260
 5193TIP3   OH215542   3.226   5.182   3.825  0.6906 -0.2045 -0.2271
 5193TIP3    H115543   3.320   5.188   3.840  0.5292  2.3174  0.2075
 5193TIP3    H215544   3.208   5.243   3.754 -0.8025  0.6724  0.8342
 5194TIP3   OH215545   4.177   2.807   1.630  0.2355  0.4649 -0.1036
 5194TIP3    H115546   4.233   2.824   1.554  0.2584  0.9679  0.0216
 5194TIP3    H215547   4.088   2.823   1.599  0.0706 -1.1016 -0.5223
 5195TIP3   OH215548   6.288   3.183   0.519  0.6228 -0.0564  0.4109
 5195TIP3    H115549   6.324   3.267   0.491  0.3996 -0.2056 -0.3655
 5195TIP3    H215550   6.258   3.197   0.608  1.4085  0.4361  0.6018
 5196TIP3   OH215551   5.062   0.763   4.852  0.3048 -0.0604  0.0030
 5196TIP3    H115552   5.076   0.779   4.945  1.1969  0.7232 -0.2503
 5196TIP3    H215553   5.150   0.760   4.814  0.0461  4.7690 -1.6323
 5197TIP3   OH215554   6.148   2.563   5.106  0.0916  0.3983  0.1792
 5197TIP3    H115555   6.163   2.541   5.013 -0.3755 -2.1867  0.6402
 5197TIP3    H215556   6.054   2.579   5.112 -0.3251 -1.8689  0.5752
 5198TIP3   OH215557   3.774   1.529   5.850 -0.1799 -0.4842 -0.3106
 5198TIP3    H115558   3.765   1.604   5.791 -0.4607  2.8915  3.5362
 5198TIP3    H215559   3.688   1.487   5.849 -1.0299  1.1513 -0.4339
 5199TIP3   OH215560   2.658   3.887   0.765  0.4560 -0.0081  0.0135
 5199TIP3    H115561   2.754   3.888   0.766  0.4511  0.7578  1.2403
 5199TIP3    H215562   2.634   3.960   0.708  0.6097  0.4572  0.5359
 5200TIP3   OH215563   5.936   3.220   3.875  0.1596  0.4430 -0.0696
 5200TIP3    H115564   5.845   3.219   3.907  0.0711 -0.0558 -0.3315
 5200TIP3    H215565   5.957   3.313   3.867  0.2347  0.5888  1.5681
 5201TIP3   OH215566   0.124   0.773   1.438 -0.6881 -0.0959 -0.0609
 5201TIP3    H115567   0.190   0.837   1.411 -0.7015 -0.3662 -0.7421
 5201TIP3    H215568   0.174   0.705   1.484 -0.5411 -0.0990 -0.2233
 5202TIP3   OH215569   7.055   0.703   0.229 -0.6716  0.0818 -0.3759
 5202TIP3    H115570   7.128   0.754   0.265 -3.1009  3.3793  0.3417
 5202TIP3    H215571   7.038   0.744   0.144 -1.4786 -0.8443 -0.6701
 5203TIP3   OH215572   2.386   0.751   2.952  0.1990  0.1486 -0.0230
 5203TIP3    H115573   2.451   0.819   2.931  1.9574 -1.5761 -0.4921
 5203TIP3    H215574   2.419   0.672   2.908 -1.2572 -1.2582  1.2818
 5204TIP3   OH215575   6.549   6.313   0.226  0.2975 -0.1078  0.4309
 5204TIP3    H115576   6.636   6.317   0.186  0.0166 -0.7415 -0.2765
 5204TIP3    H215577   6.538   6.398   0.267  0.5690  0.6216 -0.9295
 5205TIP3   OH215578   3.368   5.048   1.445 -0.4635 -0.4913 -0.1291
 5205TIP3    H115579   3.393   5.060   1.536 -1.0077  0.1241 -0.0506
 5205TIP3    H215580   3.282   5.005   1.449 -0.2202 -1.0203 -0.3678
 5206TIP3   OH215581   3.520   4.193   2.770  0.1900 -0.3529 -0.0739
 5206TIP3    H115582   3.475   4.110   2.753 -0.2957 -0.0225 -0.4135
 5206TIP3    H215583   3.467   4.259   2.727  0.6139  0.1344  0.1337
 5207TIP3   OH215584   0.029   3.766   2.963 -0.4842  0.0122 -0.2941
 5207TIP3    H115585   0.099   3.832   2.958  0.0111 -0.5512 -0.9456
 5207TIP3    H215586   0.003   3.766   3.055  0.7334 -0.1362  0.0657
 5208TIP3   OH215587   4.102   3.316   4.262  0.2930 -0.2892 -0.0601
 5208TIP3    H115588   4.034   3.255   4.289  2.6050 -2.8374  0.3889
 5208TIP3    H215589   4.120   3.294   4.171  0.5364  0.3811 -0.1823
 5209TIP3   OH215590   4.714   6.231   0.333 -0.0933 -0.1605  0.2906
 5209TIP3    H115591   4.662   6.202   0.258  0.8638  1.4716 -1.0639
 5209TIP3    H215592   4.799   6.255   0.296 -0.6355  3.9952  1.2310
 5210TIP3   OH215593   5.301   1.156   2.920  0.2975 -0.0545 -0.5814
 5210TIP3    H115594   5.224   1.203   2.950  0.7780 -0.4855  1.5000
 5210TIP3    H215595   5.271   1.066   2.908  0.1341  0.0931 -1.3248
 5211TIP3   OH215596   2.875   5.856   3.336 -0.2237  0.1530 -0.8542
 5211TIP3    H115597   2.940   5.806   3.286  1.2513  2.4103 -1.3160
 5211TIP3    H215598   2.903   5.845   3.427 -0.1662 -0.1859 -0.9090
 5212TIP3   OH215599   0.180   5.953   5.443 -0.0302  0.2965 -0.0242
 5212TIP3    H115600   0.092   5.991   5.450  0.2195  0.6409  1.9211
 5212TIP3    H215601   0.189   5.929   5.351 -2.8089 -1.2527 -0.0006
 5213TIP3   OH215602   6.786   6.464   4.631 -0.4700  0.7028  0.4784
 5213TIP3    H115603   6.771   6.548   4.589  0.3419  1.1362  1.0383
 5213TIP3    H215604   6.736   6.468   4.713  1.4495  1.6291  1.6949
 5214TIP3   OH215605   6.366   2.937   0.427  0.1965  0.6089  0.1010
 5214TIP3    H115606   6.337   3.028   0.428  1.3982  1.0274  1.5880
 5214TIP3    H215607   6.353   2.907   0.517  0.5936 -0.4270 -0.1715
 5215TIP3   OH215608   6.097   3.670   2.520  0.1364  0.4962  0.2172
 5215TIP3    H115609   6.027   3.617   2.557  0.6048 -0.7305 -0.5942
 5215TIP3    H215610   6.131   3.720   2.595 -1.2921  0.7978  0.7013
 5216TIP3   OH215611   5.306   3.677   3.122 -0.1997 -0.8500 -0.5893
 5216TIP3    H115612   5.325   3.597   3.171 -0.5363 -1.2190 -1.0599
 5216TIP3    H215613   5.285   3.647   3.034 -0.0099 -0.2190 -0.8562
 5217TIP3   OH215614   1.771   4.361   4.966  0.1491 -0.1162  0.0519
 5217TIP3    H115615   1.804   4.372   5.055  0.8703  0.2496 -0.2495
 5217TIP3    H215616   1.814   4.430   4.916  0.6724 -1.0465 -0.8182
 5218TIP3   OH215617   3.872   0.468   1.929 -0.4409 -0.0244 -0.2666
 5218TIP3    H115618   3.856   0.374   1.936 -0.3731 -0.0018  0.1727
 5218TIP3    H215619   3.849   0.489   1.838 -1.3091 -0.3052 -0.1192
 5219TIP3   OH215620   3.268   0.384   3.654 -0.3621 -0.2713  0.0707
 5219TIP3    H115621   3.276   0.476   3.630  1.6015 -0.1419  1.0065
 5219TIP3    H215622   3.194   0.352   3.602 -1.5231  1.9714  0.2387
 5220TIP3   OH215623   6.385   4.096   3.018  0.2147  0.1324  0.1434
 5220TIP3    H115624   6.387   4.183   2.978  1.0292 -0.4921 -1.2556
 5220TIP3    H215625   6.416   4.110   3.107  2.8610  0.9632 -0.8124
 5221TIP3   OH215626   3.626   2.094  -0.028  0.8181 -0.0215  0.1609
 5221TIP3    H115627   3.619   2.007   0.012  0.0694  0.2264  0.5881
 5221TIP3    H215628   3.584   2.152   0.035 -1.3617  0.2367 -1.4504
 5222TIP3   OH215629   1.022   0.427   3.116 -0.0276 -0.7204 -0.1907
 5222TIP3    H115630   0.963   0.432   3.040  0.6524  2.5517 -0.6857
 5222TIP3    H215631   1.110   0.425   3.077  0.3409  1.3028  0.4009
 5223TIP3   OH215632   5.225   2.517   2.294  0.1621  0.0159  0.3054
 5223TIP3    H115633   5.275   2.585   2.341  2.7298 -2.0382  0.7732
 5223TIP3    H215634   5.172   2.475   2.362  1.0074 -0.4897  0.6697
 5224TIP3   OH215635   0.163   0.129   5.472  0.3545  0.1723  0.5746
 5224TIP3    H115636   0.108   0.204   5.494 -0.1884 -0.1806  0.4516
 5224TIP3    H215637   0.141   0.109   5.381 -0.6568 -1.0739  1.0553
 5225TIP3   OH215638   2.184   6.298   3.568  0.5842  0.1072 -0.2082
 5225TIP3    H115639   2.160   6.318   3.658  2.9365 -1.8117  0.9460
 5225TIP3    H215640   2.189   6.202   3.565 -1.3578 -0.0467 -2.9802
 5226TIP3   OH215641   2.723   5.125   0.971 -0.0046  0.1166 -0.2766
 5226TIP3    H115642   2.740   5.062   0.902  0.2438 -0.4984  0.3276
 5226TIP3    H215643   2.778   5.200   0.950 -0.9813  0.5294 -1.4964
 5227TIP3   OH215644   0.851   2.338   5.045 -0.4208 -0.3283 -0.3384
 5227TIP3    H115645   0.916   2.268   5.043  0.4984  0.4408  0.9747
 5227TIP3    H215646   0.901   2.417   5.063 -1.4770  0.6463 -1.5031
 5228TIP3   OH215647   1.814   3.350   2.276  0.4737 -0.4108  0.2186
 5228TIP3    H115648   1.862   3.426   2.243 -0.0461  0.7927  2.0971
 5228TIP3    H215649   1.834   3.348   2.370 -2.0290 -0.6659  0.8207
 5229TIP3   OH215650   0.586   2.787   5.263  0.3335 -0.3179 -0.3955
 5229TIP3    H115651   0.621   2.868   5.299  0.2474 -0.5593  0.2342
 5229TIP3    H215652   0.628   2.718   5.314 -1.4815 -0.6096  0.8095
 5230TIP3   OH215653   3.149   1.370   1.131 -0.1902 -0.6151 -0.0902
 5230TIP3    H115654   3.216   1.334   1.073  0.8590  0.8634  0.1462
 5230TIP3    H215655   3.167   1.330   1.216  1.3839  0.8490  0.3291
 5231TIP3   OH215656   0.738   4.140   0.884  0.0284  0.6178  0.7055
 5231TIP3    H115657   0.832   4.124   0.877 -0.2655 -1.4220  1.0706
 5231TIP3    H215658   0.697   4.065   0.842 -1.4622  1.4048  0.6824
 5232TIP3   OH215659   4.795   1.590   4.910 -0.3734  0.0818 -0.3227
 5232TIP3    H115660   4.871   1.535   4.891  1.0600  1.2110  1.7422
 5232TIP3    H215661   4.766   1.622   4.825  1.5015 -0.3345 -1.1730
 5233TIP3   OH215662   5.171   5.251   4.285  0.3201  0.4411  0.1481
 5233TIP3    H115663   5.105   5.305   4.328  0.6989  2.5384 -1.6964
 5233TIP3    H215664   5.250   5.263   4.339 -0.2502 -0.3763  1.1835
 5234TIP3   OH215665   2.485   2.495   1.036  0.0279 -0.0234 -0.0323
 5234TIP3    H115666   2.398   2.535   1.039  0.8158  1.9651 -1.3797
 5234TIP3    H215667   2.507   2.495   0.943  0.8263 -2.0242  0.1231
 5235TIP3   OH215668   3.025   4.229   2.935  0.3041  0.0681  0.2954
 5235TIP3    H115669   2.970   4.150   2.931  0.2153  0.1396  0.0291
 5235TIP3    H215670   2.972   4.293   2.983  0.5956 -0.2022  0.9841
 5236TIP3   OH215671   2.765   5.955   2.820  0.5324  0.4860  0.4239
 5236TIP3    H115672   2.776   6.048   2.799  0.1394  0.1649 -1.3587
 5236TIP3    H215673   2.704   5.955   2.894 -1.4638  1.6111 -1.1088
 5237TIP3   OH215674   5.365   6.403   5.280 -0.1330 -0.1979 -0.3009
 5237TIP3    H115675   5.328   6.315   5.287  0.3201 -0.4325 -0.7744
 5237TIP3    H215676   5.289   6.461   5.284 -0.4525 -0.6191 -0.1758
 5238TIP3   OH215677   5.809   0.887   3.550 -0.2685 -0.3186  0.4442
 5238TIP3    H115678   5.832   0.917   3.462 -4.4446 -2.7888 -1.7618
 5238TIP3    H215679   5.827   0.793   3.549 -0.6378 -0.4384  2.2102
 5239TIP3   OH215680   2.651   2.204   3.130  0.2040  0.6222 -0.1618
 5239TIP3    H115681   2.662   2.146   3.205  0.6027  0.6268 -0.2145
 5239TIP3    H215682   2.599   2.277   3.163  0.2369  0.5415  0.0674
 5240TIP3   OH215683   6.104   2.132   2.444 -0.8196  0.0951 -0.1266
 5240TIP3    H115684   6.047   2.122   2.367  1.1441 -2.8814 -1.3923
 5240TIP3    H215685   6.064   2.075   2.510 -1.1829  0.7774  0.2577
 5241TIP3   OH215686   5.756   5.244   5.887  0.2708 -0.4737  0.5669
 5241TIP3    H115687   5.781   5.167   5.836 -1.1543 -1.0019  0.6093
 5241TIP3    H215688   5.745   5.313   5.822 -0.9268 -0.9838  0.1903
 5242TIP3   OH215689   2.299   0.347   5.243 -0.8753 -0.8148  0.1346
 5242TIP3    H115690   2.377   0.296   5.263  0.1602  0.4230 -0.6691
 5242TIP3    H215691   2.314   0.382   5.155 -1.8083  0.3929  0.4254
 5243TIP3   OH215692   5.037   4.632   3.316 -0.3010  0.5460 -0.2449
 5243TIP3    H115693   4.948   4.596   3.311  0.7029 -1.9408 -2.2259
 5243TIP3    H215694   5.077   4.584   3.389 -0.3328  1.0922  0.1354
 5244TIP3   OH215695   4.419   3.749   1.275 -0.4111 -0.1867  0.2481
 5244TIP3    H115696   4.386   3.692   1.205 -0.2649 -2.7152  2.1059
 5244TIP3    H215697   4.344   3.802   1.300 -0.7231  0.0697 -1.1390
 5245TIP3   OH215698   5.216   2.975   1.793  0.0954  0.3177 -0.7151
 5245TIP3    H115699   5.143   2.932   1.838 -0.8058  1.3636 -1.1540
 5245TIP3    H215700   5.256   2.906   1.740 -0.3798 -0.3320 -0.2427
 5246TIP3   OH215701   1.199   1.309   1.604 -0.4888  0.9574  0.1744
 5246TIP3    H115702   1.143   1.306   1.526 -0.7242 -0.3632  0.3709
 5246TIP3    H215703   1.138   1.309   1.677 -0.2591 -0.4474  0.3902
 5247TIP3   OH215704   2.197   4.833   3.714 -0.2689 -0.3850 -0.2459
 5247TIP3    H115705   2.225   4.885   3.639 -0.1169  1.7618  1.2262
 5247TIP3    H215706   2.277   4.820   3.765 -0.9884  1.6156  1.5139
 5248TIP3   OH215707   3.337   4.462   3.973 -0.2254 -0.4969 -0.0389
 5248TIP3    H115708   3.295   4.481   4.057 -0.1470 -0.4063 -0.0195
 5248TIP3    H215709   3.348   4.548   3.933  0.1775 -0.4974  0.0700
 5249TIP3   OH215710   3.458   4.948   5.422 -0.6920  0.1647 -0.6763
 5249TIP3    H115711   3.389   4.915   5.479 -0.9588  1.3207 -0.2943
 5249TIP3    H215712   3.479   4.875   5.364  0.0667 -1.2980  1.3375
 5250TIP3   OH215713   4.495   6.659   3.189  0.0575 -0.4419  0.4744
 5250TIP3    H115714   4.446   6.667   3.107  0.2277 -1.4717  0.2570
 5250TIP3    H215715   4.512   6.749   3.216  0.3716 -0.0777 -0.8493
 5251TIP3   OH215716   1.770   1.895   5.797  0.2826 -0.1374  0.4395
 5251TIP3    H115717   1.814   1.976   5.771 -1.8202  0.3334 -2.0944
 5251TIP3    H215718   1.733   1.915   5.883 -0.3310  1.7094 -0.1962
 5252TIP3   OH215719   6.989   4.950   2.028  0.0569  0.0485 -0.1798
 5252TIP3    H115720   7.080   4.926   2.007 -0.0404 -0.6847  0.2133
 5252TIP3    H215721   6.936   4.889   1.976 -0.2183  0.5146 -0.4542
 5253TIP3   OH215722   0.749   1.392   3.500 -0.5423 -0.3166 -0.2367
 5253TIP3    H115723   0.791   1.398   3.585 -1.4064  1.7837  0.1024
 5253TIP3    H215724   0.726   1.300   3.490  0.6736 -0.8040  1.2374
 5254TIP3   OH215725   5.652   4.455   0.566 -0.7913 -0.0470  0.5284
 5254TIP3    H115726   5.584   4.495   0.511 -0.1070 -0.9020 -0.9864
 5254TIP3    H215727   5.723   4.436   0.506  1.0148  1.2197  2.1535
 5255TIP3   OH215728   0.850   1.629   3.433 -0.1116  0.7101  0.1322
 5255TIP3    H115729   0.792   1.694   3.472  0.2065 -0.6388  3.1288
 5255TIP3    H215730   0.802   1.547   3.439  0.1587  0.3339 -2.0558
 5256TIP3   OH215731   2.468   4.807   5.648  0.3563 -0.0258  0.1226
 5256TIP3    H115732   2.446   4.717   5.622  1.2547 -0.2263  0.0379
 5256TIP3    H215733   2.402   4.829   5.714 -0.5667 -0.3308 -0.6633
 5257TIP3   OH215734   4.027   0.387   4.759  0.4651 -0.2131  0.0847
 5257TIP3    H115735   4.023   0.480   4.738 -2.3752 -0.1573  0.5106
 5257TIP3    H215736   4.022   0.384   4.855  3.0438 -0.7986  0.2789
 5258TIP3   OH215737   4.132   4.798   5.511  0.1900  0.0576  0.3301
 5258TIP3    H115738   4.176   4.718   5.539  0.7116  0.2012 -0.0527
 5258TIP3    H215739   4.050   4.799   5.560  0.1933 -0.6927  0.3656
 5259TIP3   OH215740   6.250   5.006   2.334  0.1378 -0.4418 -0.0819
 5259TIP3    H115741   6.276   4.958   2.255  1.9230 -1.1818  0.9022
 5259TIP3    H215742   6.193   4.945   2.381 -0.8557 -0.0343 -0.7194
 5260TIP3   OH215743   5.533   3.394   2.047 -0.2436  0.3398  0.1936
 5260TIP3    H115744   5.459   3.414   2.104 -0.5909 -0.8638  0.1775
 5260TIP3    H215745   5.532   3.299   2.037 -0.0171  0.4783 -1.5775
 5261TIP3   OH215746   5.276   5.950   5.792 -0.0977  0.4940 -0.8374
 5261TIP3    H115747   5.273   5.976   5.700 -0.4752  1.0070 -0.6779
 5261TIP3    H215748   5.194   5.981   5.829  0.7661  1.7695  0.0716
 5262TIP3   OH215749   2.827   3.539   1.300  0.4553  0.2079  0.0985
 5262TIP3    H115750   2.855   3.589   1.223  1.2744 -1.4060 -0.6961
 5262TIP3    H215751   2.906   3.527   1.351  0.1478  0.2199  0.5834
 5263TIP3   OH215752   3.623   1.058   1.460 -0.0025  0.2426  0.1077
 5263TIP3    H115753   3.570   1.062   1.540 -0.6843  2.0539 -0.3842
 5263TIP3    H215754   3.713   1.073   1.489 -0.4047  2.2965  0.4364
 5264TIP3   OH215755   4.350   4.425   2.106  1.0169 -0.2679 -0.1188
 5264TIP3    H115756   4.419   4.431   2.039  0.1636 -0.9524 -1.0824
 5264TIP3    H215757   4.273   4.394   2.059  0.5113 -1.2352  1.2726
 5265TIP3   OH215758   3.792   6.013   3.060 -0.1855 -0.6720 -0.2615
 5265TIP3    H115759   3.746   6.093   3.084 -0.9565 -1.3235  0.4844
 5265TIP3    H215760   3.867   6.043   3.008  0.0022  0.5846  0.6951
 5266TIP3   OH215761   1.792   0.871   1.510  0.2605 -0.1477  0.9499
 5266TIP3    H115762   1.721   0.916   1.465 -0.0026  0.1118  1.6024
 5266TIP3    H215763   1.827   0.936   1.571  0.8414 -0.3787  0.8672
 5267TIP3   OH215764   2.391   2.470   5.712 -0.7331 -0.4174 -0.2641
 5267TIP3    H115765   2.465   2.484   5.652 -1.6933 -0.8125 -1.5841
 5267TIP3    H215766   2.380   2.375   5.714 -1.4911 -0.3407 -0.4523
 5268TIP3   OH215767   7.107   2.445   2.232 -0.4765 -0.2724 -0.0275
 5268TIP3    H115768   7.137   2.413   2.146 -0.2911 -0.5876  0.1522
 5268TIP3    H215769   7.185   2.440   2.287 -0.9667 -1.5980  0.5898
 5269TIP3   OH215770   0.330   2.107   3.761 -0.6797 -0.3135 -0.9271
 5269TIP3    H115771   0.375   2.025   3.780 -0.1685  0.0448 -0.5413
 5269TIP3    H215772   0.300   2.099   3.671  0.2644 -0.5178 -1.2277
 5270TIP3   OH215773   5.027   2.213   0.404 -0.3427 -0.1376 -0.0593
 5270TIP3    H115774   5.011   2.123   0.432 -1.3842 -0.3179 -1.1403
 5270TIP3    H215775   4.942   2.256   0.412 -0.0504  0.5216 -0.4010
 5271TIP3   OH215776   0.937   4.359   5.102  0.1618  0.7526 -0.1628
 5271TIP3    H115777   1.032   4.346   5.101 -0.0562 -1.0778 -0.7361
 5271TIP3    H215778   0.905   4.304   5.031 -1.3054  1.7884 -0.3473
 5272TIP3   OH215779   5.123   5.247   0.720 -0.0208 -0.2475 -0.0644
 5272TIP3    H115780   5.133   5.342   0.710  0.4292 -0.3587 -0.7191
 5272TIP3    H215781   5.099   5.216   0.633  2.3061 -1.0255 -0.5044
 5273TIP3   OH215782   0.728   0.138   4.530 -0.3758 -0.3238 -0.3886
 5273TIP3    H115783   0.763   0.180   4.608 -0.8775  0.3949 -0.5425
 5273TIP3    H215784   0.638   0.115   4.554 -0.8818  0.8483 -1.0826
 5274TIP3   OH215785   3.421   4.617   5.270 -0.2029 -0.3632 -0.4998
 5274TIP3    H115786   3.382   4.533   5.244  0.1933 -0.4782 -0.7209
 5274TIP3    H215787   3.365   4.647   5.342 -0.0392 -1.0773 -0.0555
 5275TIP3   OH215788   3.208   0.858   4.243  0.3765 -0.7202  0.3546
 5275TIP3    H115789   3.170   0.943   4.264 -3.1367 -2.0568  0.1580
 5275TIP3    H215790   3.220   0.815   4.327  3.3291  0.3048  0.5475
 5276TIP3   OH215791   2.173   6.082   4.565 -0.5545 -0.3259 -0.0715
 5276TIP3    H115792   2.260   6.068   4.602 -1.6373 -2.8437  1.7861
 5276TIP3    H215793   2.143   5.995   4.539 -2.3462  0.5457 -1.1395
 5277TIP3   OH215794   3.851   2.129   1.632  0.1826  0.3525 -0.9300
 5277TIP3    H115795   3.803   2.086   1.703  0.7108  0.8040 -0.2914
 5277TIP3    H215796   3.910   2.062   1.599  0.8566  0.5070 -0.0743
 5278TIP3   OH215797   3.485   0.219   3.700  0.0186 -0.6579  0.5887
 5278TIP3    H115798   3.457   0.156   3.766 -2.5218  0.5624  0.8096
 5278TIP3    H215799   3.403   0.252   3.663  1.2550 -1.7325 -3.6807
 5279TIP3   OH215800   3.959   1.491   0.768  0.3023 -0.3269 -0.2767
 5279TIP3    H115801   3.989   1.495   0.678  2.1730 -0.8371  0.2826
 5279TIP3    H215802   4.015   1.426   0.810  0.3765  0.8194  1.5533
 5280TIP3   OH215803   3.061   2.235   1.670  0.3021  0.5185 -0.5129
 5280TIP3    H115804   2.970   2.245   1.697  0.2890 -0.1450 -0.3047
 5280TIP3    H215805   3.109   2.219   1.751  0.3375 -0.9814 -0.8116
 5281TIP3   OH215806   3.267   6.010   1.927 -0.3306  0.5277  0.0528
 5281TIP3    H115807   3.194   6.015   1.866 -0.2991 -1.8573 -0.2958
 5281TIP3    H215808   3.231   6.039   2.010 -1.5838 -0.2171 -0.2000
 5282TIP3   OH215809   7.166   4.487   4.622 -0.1390 -0.1595  0.6058
 5282TIP3    H115810   7.238   4.425   4.627 -0.0149 -0.0044  0.7202
 5282TIP3    H215811   7.207   4.573   4.615 -0.3117 -0.0557  0.8533
 5283TIP3   OH215812   3.405   0.749   3.119  0.8456  0.1246  0.7638
 5283TIP3    H115813   3.311   0.755   3.098  0.9031  3.8287  0.8276
 5283TIP3    H215814   3.414   0.667   3.167 -2.1879 -0.7961 -0.0097
 5284TIP3   OH215815   5.301   4.610   3.134  0.2601 -0.6524  0.7910
 5284TIP3    H115816   5.340   4.692   3.165  0.3691 -0.0705 -0.8391
 5284TIP3    H215817   5.231   4.593   3.197  1.0260  0.0155  1.8749
 5285TIP3   OH215818   3.293   0.583   4.173  0.0143 -0.4013  0.2182
 5285TIP3    H115819   3.261   0.496   4.196  0.5275 -0.5227  0.4867
 5285TIP3    H215820   3.238   0.643   4.223 -0.0313 -0.5894  0.3956
 5286TIP3   OH215821   2.667   4.682   3.278 -0.4965 -0.0732 -0.2096
 5286TIP3    H115822   2.630   4.740   3.345  2.1800  0.6075  0.8365
 5286TIP3    H215823   2.751   4.653   3.315  0.0905 -1.4280 -2.3887
 5287TIP3   OH215824   6.250   4.679   4.694  0.4969 -0.2791 -0.1499
 5287TIP3    H115825   6.213   4.735   4.626  0.4009 -1.0906 -0.7713
 5287TIP3    H215826   6.188   4.607   4.703  0.8367 -0.5175  0.3285
 5288TIP3   OH215827   6.669   1.798   2.738  0.2799 -0.0132 -0.3376
 5288TIP3    H115828   6.669   1.713   2.783 -0.5911  0.0752 -0.1471
 5288TIP3    H215829   6.611   1.853   2.791 -1.4810 -0.1584 -2.0041
 5289TIP3   OH215830   1.023   1.526   5.492  0.1032  0.0413 -0.1340
 5289TIP3    H115831   1.047   1.460   5.428  0.1645  0.3107 -0.3924
 5289TIP3    H215832   1.084   1.512   5.565  0.9253  0.5818 -0.6990
 5290TIP3   OH215833   5.565   0.839   1.009 -0.1449 -0.1385 -0.5133
 5290TIP3    H115834   5.566   0.921   0.959 -0.5677 -0.0065 -0.3163
 5290TIP3    H215835   5.602   0.863   1.095  0.5958 -0.3684 -0.7614
 5291TIP3   OH215836   0.114   6.643   4.322 -0.2523 -0.0607 -0.0151
 5291TIP3    H115837   0.146   6.727   4.291 -0.3365 -0.5593 -1.5422
 5291TIP3    H215838   0.037   6.663   4.374  0.1152  0.8426  0.1890
 5292TIP3   OH215839   7.003   1.246   4.238  0.0197  0.2175  0.1974
 5292TIP3    H115840   7.033   1.156   4.225 -1.5128 -0.4154  0.8669
 5292TIP3    H215841   7.022   1.264   4.331  0.2879  0.5855  0.0751
 5293TIP3   OH215842   4.279   4.347   0.992 -0.6007 -0.3425  0.1088
 5293TIP3    H115843   4.316   4.278   1.048  1.9395  2.3800  2.1388
 5293TIP3    H215844   4.242   4.409   1.054 -3.1962  0.0370 -1.6737
 5294TIP3   OH215845   2.055   1.264   1.922  0.5797  0.1273  0.0289
 5294TIP3    H115846   2.129   1.314   1.886  0.7097 -0.5413 -0.6715
 5294TIP3    H215847   2.087   1.174   1.924 -0.7143 -0.4347 -1.7564
 5295TIP3   OH215848   6.923   6.378   3.215 -0.3594 -0.0513  0.5984
 5295TIP3    H115849   6.903   6.286   3.233  0.5689 -0.2654  0.5476
 5295TIP3    H215850   6.884   6.394   3.129  2.5230 -1.4435 -1.1155
 5296TIP3   OH215851   3.681   4.299   1.619  0.2561  0.3565  0.2122
 5296TIP3    H115852   3.618   4.274   1.686 -0.2172 -0.2545 -0.4365
 5296TIP3    H215853   3.679   4.395   1.618  0.0147  0.3588  0.8269
 5297TIP3   OH215854   0.675   0.238   2.017  0.2067  0.1599  0.5118
 5297TIP3    H115855   0.735   0.196   2.079  0.8426 -0.2424 -0.3495
 5297TIP3    H215856   0.589   0.201   2.038  0.9368 -2.7909 -1.1365
 5298TIP3   OH215857   6.366   1.511   0.988 -0.0568 -0.3272  0.0418
 5298TIP3    H115858   6.329   1.500   1.075  0.0784  0.1030  0.1551
 5298TIP3    H215859   6.312   1.454   0.932 -0.2650 -0.4542  0.3698
 5299TIP3   OH215860   6.204   4.908   1.438  0.8080  0.3283 -0.1832
 5299TIP3    H115861   6.247   4.878   1.359  1.4027  1.7517 -0.4167
 5299TIP3    H215862   6.121   4.945   1.408  0.7571  0.2992 -0.0794
 5300TIP3   OH215863   4.502   1.048   1.507  0.0618 -0.5216 -0.1350
 5300TIP3    H115864   4.586   1.006   1.486  0.0948 -0.9680  0.8102
 5300TIP3    H215865   4.474   1.005   1.588  0.1009  1.2853  0.9014
 5301TIP3   OH215866   5.697   5.947   5.846  1.0456 -0.0162 -0.4910
 5301TIP3    H115867   5.692   5.919   5.937  0.7930 -1.2380 -0.8638
 5301TIP3    H215868   5.788   5.974   5.834  0.6573  2.0040  0.6157
 5302TIP3   OH215869   3.166   4.294   0.295 -0.1747  0.0571  0.1779
 5302TIP3    H115870   3.098   4.228   0.303 -1.0038  0.9203  0.4289
 5302TIP3    H215871   3.182   4.323   0.385  0.3202  0.0654  0.0884
 5303TIP3   OH215872   0.688   5.971   3.755  0.4817  0.3366  0.0775
 5303TIP3    H115873   0.723   6.029   3.687 -2.2972  1.6209 -0.4045
 5303TIP3    H215874   0.695   5.883   3.718  0.1638  0.8910 -1.3752
 5304TIP3   OH215875   6.751   4.045   3.366  0.3359  0.4554 -0.2216
 5304TIP3    H115876   6.818   4.009   3.308 -1.6915 -1.9473 -1.2420
 5304TIP3    H215877   6.754   4.140   3.350  2.7343  0.3017 -0.9862
 5305TIP3   OH215878   1.446   3.301   3.734 -0.1391 -0.2098  0.1054
 5305TIP3    H115879   1.374   3.363   3.734  1.1703  1.4565  1.9519
 5305TIP3    H215880   1.414   3.226   3.784 -0.9017  0.1109  0.1029
 5306TIP3   OH215881   5.282   5.834   3.130 -0.0194  0.5082 -0.0032
 5306TIP3    H115882   5.267   5.774   3.057 -0.4795  1.1201 -0.4194
 5306TIP3    H215883   5.317   5.913   3.090  0.2840  0.6407  0.5111
 5307TIP3   OH215884   0.189   1.368   2.654  0.1987 -0.1206 -0.2415
 5307TIP3    H115885   0.150   1.281   2.661  0.0382 -0.0405 -0.1268
 5307TIP3    H215886   0.283   1.354   2.668  0.2387 -0.3427 -0.7107
 5308TIP3   OH215887   2.705   6.265   4.912  0.1524 -0.1078  0.0840
 5308TIP3    H115888   2.711   6.295   5.003  0.7558 -0.1018  0.0480
 5308TIP3    H215889   2.790   6.288   4.874 -0.1709  0.0757 -0.5413
 5309TIP3   OH215890   3.748   5.759   1.765 -0.2524 -0.8359 -0.0298
 5309TIP3    H115891   3.654   5.771   1.752 -0.2420 -0.2651  0.3777
 5309TIP3    H215892   3.768   5.814   1.840  0.7406  0.4726 -1.2146
 5310TIP3   OH215893   2.798   4.406   0.201  0.3071  0.1283 -0.3315
 5310TIP3    H115894   2.721   4.349   0.198 -0.7213  1.4775 -0.9484
 5310TIP3    H215895   2.856   4.365   0.266 -0.5660 -1.3564 -0.4472
 5311TIP3   OH215896   1.877   3.223   5.574 -0.7457  0.5854  0.1656
 5311TIP3    H115897   1.951   3.161   5.575 -1.2775 -0.1257 -1.1748
 5311TIP3    H215898   1.906   3.293   5.515 -0.2150  1.5801  1.5440
 5312TIP3   OH215899   5.135   4.545   4.887  0.1914 -0.3234 -0.3712
 5312TIP3    H115900   5.172   4.597   4.958 -0.2967 -0.1415 -0.2488
 5312TIP3    H215901   5.195   4.471   4.878  0.1725 -0.4277  0.3288
 5313TIP3   OH215902   4.237   5.044   1.680 -0.6438  0.4611 -0.3774
 5313TIP3    H115903   4.282   4.960   1.684 -0.8378  0.3521 -0.4309
 5313TIP3    H215904   4.197   5.045   1.593 -0.8796  0.4811 -0.2715
 5314TIP3   OH215905   0.916   2.872   1.357 -0.2750 -0.1073  0.0711
 5314TIP3    H115906   0.959   2.824   1.286 -0.3329  0.1837 -0.1634
 5314TIP3    H215907   0.823   2.856   1.343 -0.2370 -1.2246  0.9250
 5315TIP3   OH215908   4.599   2.246   3.374  0.4819 -0.1597  0.4822
 5315TIP3    H115909   4.677   2.275   3.422 -0.2322  3.2821 -0.2251
 5315TIP3    H215910   4.529   2.304   3.404 -1.4890 -2.0848 -0.1352
 5316TIP3   OH215911   2.397   4.048   5.618 -0.0300 -0.0868 -0.2072
 5316TIP3    H115912   2.458   3.977   5.639 -0.4244 -0.4773 -0.3808
 5316TIP3    H215913   2.388   4.044   5.523 -0.9844 -0.5825 -0.1090
 5317TIP3   OH215914   2.049   3.528   2.508 -0.2572  0.9766  0.2651
 5317TIP3    H115915   2.087   3.600   2.559  0.9716  0.9090 -0.4941
 5317TIP3    H215916   2.008   3.571   2.433 -0.5801  0.9613  0.4314
 5318TIP3   OH215917   1.138   4.735   4.866 -0.0989  0.0923  0.0890
 5318TIP3    H115918   1.178   4.668   4.810 -1.0514  0.2827 -0.8478
 5318TIP3    H215919   1.165   4.712   4.955  0.5451 -0.8462 -0.3377
 5319TIP3   OH215920   2.329   2.576   2.330 -0.0168 -0.0347 -0.4316
 5319TIP3    H115921   2.360   2.562   2.420 -1.4088  0.5411  0.1624
 5319TIP3    H215922   2.402   2.620   2.287 -0.9264  4.2237  1.8108
 5320TIP3   OH215923   6.581   6.040   5.803 -0.1795  0.4009 -0.2621
 5320TIP3    H115924   6.487   6.034   5.822 -0.4781  2.2111 -0.9339
 5320TIP3    H215925   6.613   6.111   5.860  1.5332 -2.2257  2.3348
 5321TIP3   OH215926   2.495   4.541   5.589 -0.6491 -0.4460  0.7485
 5321TIP3    H115927   2.429   4.542   5.519 -0.4965 -0.9452  0.5961
 5321TIP3    H215928   2.522   4.450   5.595 -0.4869 -0.3630  1.3021
 5322TIP3   OH215929   4.321   3.500   2.299  0.7187 -0.6846  0.9742
 5322TIP3    H115930   4.308   3.594   2.310 -0.5291 -0.5467 -1.1325
 5322TIP3    H215931   4.253   3.459   2.353 -0.2387 -0.2935  0.0842
 5323TIP3   OH215932   3.753   4.049   1.832 -0.3277  0.2569  0.0946
 5323TIP3    H115933   3.680   4.022   1.777  1.6341 -1.0084 -2.0952
 5323TIP3    H215934   3.723   4.036   1.921 -2.2552 -1.6677 -0.7572
 5324TIP3   OH215935   2.344   1.592   3.466 -0.0571 -0.1528  0.6206
 5324TIP3    H115936   2.375   1.641   3.542  0.9296 -0.8707  0.7109
 5324TIP3    H215937   2.388   1.506   3.474  0.6414 -0.0024 -1.1224
 5325TIP3   OH215938   1.507   3.675   0.153  0.4219  0.3317  0.7760
 5325TIP3    H115939   1.415   3.695   0.173  0.2636  0.1024  0.2952
 5325TIP3    H215940   1.556   3.746   0.193  0.0516  0.3454  1.2223
 5326TIP3   OH215941   4.514   0.563   1.800  0.2328 -0.0505  0.0018
 5326TIP3    H115942   4.546   0.480   1.834 -1.3684 -0.6636  0.0971
 5326TIP3    H215943   4.509   0.550   1.705  0.3496  0.0787 -0.0231
 5327TIP3   OH215944   2.001   3.729   4.312 -0.9353  0.2245  0.5639
 5327TIP3    H115945   1.907   3.729   4.331 -0.6737 -0.6130  2.0179
 5327TIP3    H215946   2.039   3.675   4.381  0.2720 -2.3355 -1.9384
 5328TIP3   OH215947   4.710   5.596   2.621 -0.3452  0.5007  0.1586
 5328TIP3    H115948   4.618   5.575   2.610  0.1014 -1.6217  0.1745
 5328TIP3    H215949   4.755   5.512   2.620  1.7630  1.5543 -1.2430
 5329TIP3   OH215950   0.862   2.825   0.191 -0.0202  0.0114 -0.0832
 5329TIP3    H115951   0.776   2.865   0.201  0.7486  1.6374  0.3479
 5329TIP3    H215952   0.856   2.774   0.110 -1.4086  0.0153  0.0022
 5330TIP3   OH215953   6.654   4.510   1.988  0.1755  0.3149  0.0711
 5330TIP3    H115954   6.689   4.502   1.899 -0.7958  0.6765 -0.3646
 5330TIP3    H215955   6.691   4.592   2.021 -0.1332  0.6238 -0.3317
 5331TIP3   OH215956   3.767   6.269   4.417 -0.3557 -0.3730  0.4967
 5331TIP3    H115957   3.857   6.256   4.446 -0.2301  0.0492  0.2979
 5331TIP3    H215958   3.727   6.323   4.486 -0.3936 -0.3632  0.4673
 5332TIP3   OH215959   2.468   5.094  -0.004  0.1890  0.3333  0.1015
 5332TIP3    H115960   2.510   5.018   0.037 -1.3977 -0.1558  0.9365
 5332TIP3    H215961   2.460   5.158   0.066  0.2137  0.7009 -0.2286
 5333TIP3   OH215962   2.605   1.946   3.949 -0.3349  0.2102  0.4423
 5333TIP3    H115963   2.681   1.989   3.988  0.3701 -0.1684 -0.4842
 5333TIP3    H215964   2.641   1.876   3.896 -1.3424 -0.0339  0.0468
 5334TIP3   OH215965   2.687   0.252   3.253 -0.5344 -0.1004 -0.4476
 5334TIP3    H115966   2.721   0.182   3.197  0.4468  0.9476 -1.2222
 5334TIP3    H215967   2.686   0.214   3.340  0.0746 -1.0575 -0.8362
 5335TIP3   OH215968   3.740   5.036   4.909 -0.2074  0.2254  0.4713
 5335TIP3    H115969   3.665   4.991   4.947 -0.3827  0.1664  0.0626
 5335TIP3    H215970   3.706   5.122   4.884 -0.0674  0.3014  0.5395
 5336TIP3   OH215971   6.136   3.913   1.887  0.0455  0.1719  0.4704
 5336TIP3    H115972   6.078   3.985   1.862 -0.2054 -0.3531 -0.5373
 5336TIP3    H215973   6.125   3.849   1.817  0.9191 -0.4705  0.9059
 5337TIP3   OH215974   3.573   5.010   3.070  0.6598  0.2095  0.1180
 5337TIP3    H115975   3.574   4.915   3.055  2.8481  0.4135 -1.6175
 5337TIP3    H215976   3.657   5.040   3.035 -0.1147  2.8549  0.3314
 5338TIP3   OH215977   2.547   6.310   0.146  0.4242 -0.2439 -0.1885
 5338TIP3    H115978   2.621   6.259   0.114  1.9399  0.9476  1.2840
 5338TIP3    H215979   2.531   6.277   0.234 -0.2720  0.0666 -0.1888
 5339TIP3   OH215980   4.765   5.902   2.583 -0.2434  0.5078 -0.2434
 5339TIP3    H115981   4.762   5.919   2.489  1.3564  0.1480 -0.3764
 5339TIP3    H215982   4.807   5.816   2.591  1.5477  1.4328  0.8649
 5340TIP3   OH215983   2.612   5.060   3.747  0.1972  0.5175 -0.2207
 5340TIP3    H115984   2.692   5.032   3.702 -0.4210  0.3342 -1.2259
 5340TIP3    H215985   2.553   5.086   3.677 -0.6360  0.6504  0.5173
 5341TIP3   OH215986   0.111   1.739   3.164 -0.0421  0.0506  0.3209
 5341TIP3    H115987   0.109   1.659   3.112 -1.1908  0.7866 -0.8119
 5341TIP3    H215988   0.128   1.809   3.101 -1.5868  0.9803  0.8773
 5342TIP3   OH215989   5.890   3.361   4.314 -0.1970 -0.2808 -0.2430
 5342TIP3    H115990   5.828   3.416   4.363 -1.2725  1.7917 -3.6305
 5342TIP3    H215991   5.964   3.419   4.297  0.1048 -0.9198 -1.1274
 5343TIP3   OH215992   6.719   6.225   5.340  0.0129 -0.5083  0.0498
 5343TIP3    H115993   6.789   6.203   5.401 -0.3296 -0.5021  0.4568
 5343TIP3    H215994   6.639   6.200   5.387 -0.4359  1.9881  0.7245
 5344TIP3   OH215995   1.620   5.065   0.628 -0.0525 -0.4019  0.2334
 5344TIP3    H115996   1.619   5.154   0.593 -1.3173 -1.3022 -2.2562
 5344TIP3    H215997   1.711   5.038   0.619  0.0132  0.0611 -0.6263
 5345TIP3   OH215998   3.561   5.376   0.980 -0.2560  0.5482  0.1742
 5345TIP3    H115999   3.612   5.379   1.061 -0.6597 -0.3902  0.4851
 5345TIP3    H216000   3.531   5.465   0.967  0.2351  0.8142  0.7820
 5346TIP3   OH216001   5.095   6.381   5.859 -0.0308  0.0872  0.0684
 5346TIP3    H116002   5.004   6.412   5.851 -0.0530  0.2117  0.8189
 5346TIP3    H216003   5.142   6.430   5.792  0.0825  2.3280  1.7129
 5347TIP3   OH216004   6.265   1.855   2.705 -0.7611 -0.0733 -0.4191
 5347TIP3    H116005   6.196   1.789   2.696  0.1090 -1.1033  0.2948
 5347TIP3    H216006   6.320   1.843   2.627 -1.7666  1.2580 -1.3877
 5348TIP3   OH216007   0.548   4.197   3.036  0.2826 -0.2090 -0.4763
 5348TIP3    H116008   0.584   4.154   3.114 -0.4801  0.1600  0.1001
 5348TIP3    H216009   0.617   4.257   3.008 -0.0494  0.9004  0.9442
 5349TIP3   OH216010   4.502   4.625   2.558 -0.4822 -0.0080 -0.4296
 5349TIP3    H116011   4.479   4.653   2.469 -0.2882 -2.1671 -1.2284
 5349TIP3    H216012   4.419   4.626   2.606 -0.8001  0.0793 -0.9734
 5350TIP3   OH216013   2.063   5.464   4.645 -0.3599  0.3180  0.3651
 5350TIP3    H116014   1.998   5.449   4.577 -0.1904 -0.1978  0.3113
 5350TIP3    H216015   2.103   5.378   4.659 -0.6472  0.3421  1.3831
 5351TIP3   OH216016   1.492   4.360   1.394 -0.3012  0.4982  0.2228
 5351TIP3    H116017   1.549   4.413   1.339  0.5398 -0.5861  0.0160
 5351TIP3    H216018   1.416   4.340   1.339  0.5908 -0.6877 -0.6193
 5352TIP3   OH216019   2.837   2.524   4.357 -0.1011 -0.2377 -0.8576
 5352TIP3    H116020   2.853   2.500   4.448  2.6931 -1.0470 -1.4624
 5352TIP3    H216021   2.864   2.616   4.351 -1.0011  0.0461 -0.7450
 5353TIP3   OH216022   0.305   2.037   2.432  0.1455 -0.3163  0.2478
 5353TIP3    H116023   0.255   2.067   2.508 -0.8653  0.8730 -0.8396
 5353TIP3    H216024   0.260   1.957   2.403 -0.9065  0.4912 -0.4428
 5354TIP3   OH216025   2.952   1.299   2.092 -0.9164  0.6438 -0.3494
 5354TIP3    H116026   2.942   1.204   2.081 -0.9003  0.3137  2.0196
 5354TIP3    H216027   3.046   1.311   2.108 -1.2505  0.6503  2.0339
 5355TIP3   OH216028   0.295   2.271   5.911  0.1825 -0.1438 -0.0912
 5355TIP3    H116029   0.316   2.263   5.818 -1.5713 -0.3258 -0.5000
 5355TIP3    H216030   0.199   2.266   5.915  0.0826  1.9420  1.5290
 5356TIP3   OH216031   5.596   2.345   4.620  0.1093  0.1893  0.3889
 5356TIP3    H116032   5.619   2.436   4.636 -1.1129  0.1403  2.9386
 5356TIP3    H216033   5.644   2.295   4.685 -0.6661 -0.7835  0.2505
 5357TIP3   OH216034   1.356   3.126   1.620 -0.0488  0.0572  0.0819
 5357TIP3    H116035   1.272   3.081   1.628 -0.2357 -0.0654 -2.1103
 5357TIP3    H216036   1.410   3.088   1.688 -2.0282  0.8462  2.2436
 5358TIP3   OH216037   5.497   2.114   2.519 -0.3449  0.0879  0.2551
 5358TIP3    H116038   5.428   2.132   2.455 -1.0170  1.3517  1.2713
 5358TIP3    H216039   5.578   2.120   2.469 -0.9298 -0.9692 -0.8721
 5359TIP3   OH216040   4.086   3.528   0.384  0.5614  0.1100  0.1555
 5359TIP3    H116041   4.097   3.435   0.368  0.5856 -0.3893  2.6522
 5359TIP3    H216042   4.165   3.568   0.348  0.3824 -0.7532 -1.2691
 5360TIP3   OH216043   2.615   0.985   1.784 -0.1979 -0.1586 -0.0300
 5360TIP3    H116044   2.544   0.956   1.727 -1.4583  1.0070  0.9063
 5360TIP3    H216045   2.665   1.047   1.730 -0.8426  0.2374 -0.1862
 5361TIP3   OH216046   5.354   3.965   2.410 -0.8040  0.4774 -0.3461
 5361TIP3    H116047   5.293   3.973   2.337  0.6159  0.5773 -1.5739
 5361TIP3    H216048   5.418   3.900   2.382  0.3606  1.2664  0.3615
 5362TIP3   OH216049   6.020   5.052   0.278  0.0127 -0.3766  0.6069
 5362TIP3    H116050   6.101   5.002   0.290 -0.0316 -0.8074 -0.7152
 5362TIP3    H216051   5.990   5.071   0.367  1.0688 -1.0191  1.1200
 5363TIP3   OH216052   4.967   2.183   3.860 -0.5279 -0.7457 -0.1312
 5363TIP3    H116053   4.951   2.275   3.837 -1.6864 -1.0919 -0.8088
 5363TIP3    H216054   4.882   2.152   3.893 -0.4096 -1.8030 -0.7618
 5364TIP3   OH216055   0.810   1.215   4.434 -0.4314  0.1782 -0.6294
 5364TIP3    H116056   0.725   1.195   4.474  0.4027  0.7868  1.6192
 5364TIP3    H216057   0.829   1.139   4.379 -0.7705 -1.7582  1.7591
 5365TIP3   OH216058   5.586   4.829   0.391 -0.4057  0.4896 -0.0968
 5365TIP3    H116059   5.536   4.910   0.383  1.1190  1.6069  1.0262
 5365TIP3    H216060   5.674   4.857   0.419  0.2767 -1.5215 -0.0236
 5366TIP3   OH216061   7.076   5.886   0.800  0.4601  0.3173  0.3831
 5366TIP3    H116062   7.054   5.812   0.857 -2.5756  0.6643 -0.1318
 5366TIP3    H216063   7.051   5.963   0.851  1.1367  0.8417 -0.0697
 5367TIP3   OH216064   0.619   3.233   2.120  0.1966  0.2624  0.3667
 5367TIP3    H116065   0.678   3.301   2.089  0.4484  0.3765  1.0921
 5367TIP3    H216066   0.671   3.152   2.117  0.4138  0.3733  1.0662
 5368TIP3   OH216067   3.188  -0.012   2.194 -0.3968 -0.7657 -0.6111
 5368TIP3    H116068   3.269  -0.028   2.242 -1.3672 -2.2014  0.6364
 5368TIP3    H216069   3.214   0.044   2.121  1.4793 -0.1342  0.4742
 5369TIP3   OH216070   2.154   5.753   1.836  0.7247 -0.5107 -0.3102
 5369TIP3    H116071   2.149   5.757   1.741 -1.2654  0.1976 -0.2235
 5369TIP3    H216072   2.160   5.660   1.857  0.3505 -0.7127 -1.0960
 5370TIP3   OH216073   2.400   2.799   3.891 -0.4168 -0.0837 -0.0022
 5370TIP3    H116074   2.340   2.780   3.963  0.0471 -0.1516  0.3750
 5370TIP3    H216075   2.443   2.881   3.918 -0.9445  0.4262 -0.6659
 5371TIP3   OH216076   5.630   5.694   5.011  0.3041 -0.2735 -0.6076
 5371TIP3    H116077   5.681   5.634   4.957 -1.1041 -1.0519 -1.1103
 5371TIP3    H216078   5.553   5.714   4.959  0.7871  2.0895 -0.4872
 5372TIP3   OH216079   5.432   3.478   4.556  0.3837 -0.2711  0.2571
 5372TIP3    H116080   5.445   3.501   4.648 -0.5234  0.7992  0.1328
 5372TIP3    H216081   5.346   3.436   4.554 -0.5723  1.6564 -0.4085
 5373TIP3   OH216082   2.450   2.810   2.177  0.3560  0.6604 -0.1942
 5373TIP3    H116083   2.414   2.837   2.093  0.2060  0.3236 -0.2370
 5373TIP3    H216084   2.544   2.801   2.162  0.4824  1.5927 -0.0705
 5374TIP3   OH216085   4.110   4.988   4.282  0.1066 -0.7694  0.0234
 5374TIP3    H116086   4.028   4.972   4.329 -1.1289  1.6767 -1.1047
 5374TIP3    H216087   4.178   4.973   4.348 -1.1911 -2.9153  0.9777
 5375TIP3   OH216088   6.156   1.655   2.332  0.0266  0.8473  0.3959
 5375TIP3    H116089   6.160   1.574   2.383  0.3122 -0.1060 -1.0828
 5375TIP3    H216090   6.112   1.717   2.390  0.9104  0.0149  2.0337
 5376TIP3   OH216091   4.081   6.107   1.459  0.1168  0.1808  0.2514
 5376TIP3    H116092   4.020   6.072   1.394  0.3832 -0.9950  0.5972
 5376TIP3    H216093   4.032   6.173   1.507  0.5407  2.6817 -2.5241
 5377TIP3   OH216094   6.389   3.496   1.380  0.5408  0.1374  0.0207
 5377TIP3    H116095   6.419   3.453   1.460  1.1297  2.1111  0.9279
 5377TIP3    H216096   6.444   3.459   1.311  1.2582 -0.3269  0.8207
 5378TIP3   OH216097   5.395   6.116   5.301 -0.0869  0.6389  0.3820
 5378TIP3    H116098   5.491   6.119   5.299 -0.0542  2.7801  1.5207
 5378TIP3    H216099   5.371   6.051   5.234  2.1392  0.0323  0.0963
 5379TIP3   OH216100   3.450   4.303   1.327 -0.3186 -0.5062  0.3661
 5379TIP3    H116101   3.417   4.268   1.410 -1.1441  0.3319  0.4057
 5379TIP3    H216102   3.392   4.377   1.307  0.8748  0.3206 -0.1374
 5380TIP3   OH216103   2.119   0.186   1.494 -0.2751 -0.5509  0.4141
 5380TIP3    H116104   2.165   0.261   1.533  0.7095 -1.1113  0.3518
 5380TIP3    H216105   2.128   0.199   1.400 -0.6910 -0.4030  0.3906
 5381TIP3   OH216106   0.415   0.077   0.233 -0.1963 -0.2037 -0.2038
 5381TIP3    H116107   0.454   0.145   0.178  1.7784 -0.1298  1.1860
 5381TIP3    H216108   0.485   0.053   0.294 -2.1965 -0.4756  2.0850
 5382TIP3   OH216109   0.259   3.810   2.120 -0.8582 -0.0410  0.2951
 5382TIP3    H116110   0.196   3.882   2.124  0.3540  1.0828 -0.1511
 5382TIP3    H216111   0.225   3.753   2.051 -1.3410  0.5997 -0.0106
 5383TIP3   OH216112   1.200   0.833   2.544 -0.4154 -0.4355 -0.1866
 5383TIP3    H116113   1.187   0.800   2.455 -1.1245  0.6622 -0.5050
 5383TIP3    H216114   1.127   0.796   2.594  0.1145 -1.2459  0.0148
 5384TIP3   OH216115   5.653   1.920   1.307  0.8634  0.8037  0.3849
 5384TIP3    H116116   5.667   2.002   1.259 -1.6202  1.4353  0.5979
 5384TIP3    H216117   5.675   1.852   1.243 -2.4721  1.6047 -1.9441
 5385TIP3   OH216118   1.449   0.169   2.312 -0.0947 -0.8619  0.3387
 5385TIP3    H116119   1.436   0.195   2.221  0.8291  3.3558  1.1746
 5385TIP3    H216120   1.385   0.221   2.361  1.3325 -0.8338  2.2883
 5386TIP3   OH216121   1.443   2.327   1.824  0.2428 -0.8633 -0.5634
 5386TIP3    H116122   1.366   2.278   1.794  0.4236 -1.4545 -0.0669
 5386TIP3    H216123   1.411   2.417   1.834 -0.0492 -0.8284 -1.6476
 5387TIP3   OH216124   1.892   3.202   5.273  0.7396 -0.0234  0.0656
 5387TIP3    H116125   1.916   3.203   5.180  0.4948  0.4212 -0.0000
 5387TIP3    H216126   1.891   3.109   5.297  0.4508 -0.1671 -0.4745
 5388TIP3   OH216127   3.765   2.434   3.959 -0.0406  0.0609 -0.1858
 5388TIP3    H116128   3.800   2.481   4.035 -0.1593 -0.0271 -0.0763
 5388TIP3    H216129   3.758   2.343   3.988 -1.5741  0.2748  0.2332
 5389TIP3   OH216130   3.715   2.950   4.549 -1.0098 -0.0177 -0.2104
 5389TIP3    H116131   3.629   2.972   4.585 -0.5840  0.5314  0.5021
 5389TIP3    H216132   3.757   3.035   4.536  0.5121 -0.3199  2.1717
 5390TIP3   OH216133   1.667   4.890   2.159 -0.9316  0.1269 -0.1190
 5390TIP3    H116134   1.702   4.962   2.211  0.5510  0.0483 -0.9602
 5390TIP3    H216135   1.708   4.899   2.074 -1.1475 -1.3929 -0.4229
 5391TIP3   OH216136   4.974   0.115   5.316 -0.0540  0.1710  0.4276
 5391TIP3    H116137   4.956   0.126   5.410 -0.8155  0.0587  0.2955
 5391TIP3    H216138   5.067   0.136   5.308 -0.6058  3.2641  0.7238
 5392TIP3   OH216139   4.716   3.438   2.126  0.1110  0.2425 -0.6988
 5392TIP3    H116140   4.681   3.527   2.123  0.4186  0.3849 -0.2212
 5392TIP3    H216141   4.811   3.449   2.114  0.1559 -0.0181 -0.5971
 5393TIP3   OH216142   2.511   3.417   3.545  0.0585  0.0850  0.0339
 5393TIP3    H116143   2.418   3.396   3.544  0.2766 -0.9414 -1.2297
 5393TIP3    H216144   2.525   3.462   3.628 -1.3469 -0.7275  0.7372
 5394TIP3   OH216145   0.012   2.423   4.805 -0.6746 -0.3279  0.1373
 5394TIP3    H116146  -0.061   2.370   4.836  0.2778 -2.2028 -0.6840
 5394TIP3    H216147   0.090   2.377   4.836  0.2044  1.4738  0.7420
 5395TIP3   OH216148   5.865   5.476   1.373  0.2186 -0.0812  0.0062
 5395TIP3    H116149   5.944   5.502   1.326  1.8248  0.1650  2.6220
 5395TIP3    H216150   5.873   5.518   1.459 -2.1317 -1.1181  0.8295
 5396TIP3   OH216151   1.256   5.688   2.262  0.0915  0.1433  0.2056
 5396TIP3    H116152   1.253   5.604   2.307  0.7015 -0.5347 -0.9577
 5396TIP3    H216153   1.249   5.754   2.332  1.3436 -0.8503  1.3127
 5397TIP3   OH216154   4.081   6.422   3.503 -0.8026  0.0711 -0.3151
 5397TIP3    H116155   4.134   6.461   3.433  0.2561 -0.5595  0.1172
 5397TIP3    H216156   4.057   6.495   3.559  0.1396  0.2865 -0.1805
 5398TIP3   OH216157   3.589   1.644   0.023 -0.2869  0.5434  0.0499
 5398TIP3    H116158   3.581   1.569   0.081  0.9277  0.8841  0.6979
 5398TIP3    H216159   3.596   1.606  -0.064  0.3038 -0.1021  0.3672
 5399TIP3   OH216160   5.612   5.667   1.888  0.1509 -0.0392  0.4143
 5399TIP3    H116161   5.647   5.748   1.850 -1.6826  0.1477 -1.0707
 5399TIP3    H216162   5.592   5.689   1.978 -3.1696  2.2585 -0.6942
 5400TIP3   OH216163   5.318   1.684   0.564  0.0847  0.4800  0.8754
 5400TIP3    H116164   5.372   1.745   0.514 -1.9717  1.2566 -0.5368
 5400TIP3    H216165   5.332   1.599   0.522 -0.2597  0.7980  0.0993
 5401TIP3   OH216166   5.680   4.746   1.324 -0.1699  0.5477  0.1087
 5401TIP3    H116167   5.653   4.836   1.339  0.8165  1.0315 -0.8972
 5401TIP3    H216168   5.775   4.748   1.326 -0.1405 -0.6245  0.8494
 5402TIP3   OH216169   5.990   1.876   2.435  0.0357 -0.0832  0.2014
 5402TIP3    H116170   5.920   1.866   2.500  0.1211  1.8188  0.6444
 5402TIP3    H216171   5.950   1.851   2.352 -0.5369 -1.0265  0.7465
 5403TIP3   OH216172   0.553   3.067   3.138 -0.1442 -0.5647  0.3948
 5403TIP3    H116173   0.461   3.058   3.165 -0.2151  1.0306  0.8152
 5403TIP3    H216174   0.551   3.133   3.069  0.5095 -1.7797 -0.8309
 5404TIP3   OH216175   4.341   1.166   1.043 -0.5351  0.7649  0.5556
 5404TIP3    H116176   4.291   1.247   1.059 -0.3236  0.6078  2.1450
 5404TIP3    H216177   4.274   1.103   1.016 -0.5939  1.6546 -1.6209
 5405TIP3   OH216178   5.532   5.301   0.138  0.0003  0.6623  0.3988
 5405TIP3    H116179   5.529   5.377   0.195 -0.4868 -0.0235  1.3255
 5405TIP3    H216180   5.581   5.329   0.061  2.6355  0.9927  2.0891
 5406TIP3   OH216181   5.271   4.610   5.104 -0.2501 -0.3614  0.4689
 5406TIP3    H116182   5.319   4.541   5.150 -2.2454 -1.8213  0.5127
 5406TIP3    H216183   5.230   4.661   5.174  1.1137  0.8401  0.4308
 5407TIP3   OH216184   2.058   3.841   3.049  0.2180 -0.1640  0.4346
 5407TIP3    H116185   2.019   3.804   2.970 -0.2928 -0.4828  0.8354
 5407TIP3    H216186   2.037   3.779   3.119 -0.4962  0.7721  1.0802
 5408TIP3   OH216187   3.482   3.102   4.593  0.2680  0.9863 -0.6630
 5408TIP3    H116188   3.525   3.186   4.607  0.0704  0.9458  0.3147
 5408TIP3    H216189   3.470   3.095   4.499  0.4861  1.9546 -0.7648
 5409TIP3   OH216190   5.455   4.181   3.728 -0.5663 -0.0120 -0.7959
 5409TIP3    H116191   5.502   4.099   3.736 -2.3904 -0.9837  1.0915
 5409TIP3    H216192   5.522   4.245   3.704  1.3969 -1.5659  0.2183
 5410TIP3   OH216193   0.963   0.017   0.195 -0.4850 -0.3213 -0.1223
 5410TIP3    H116194   1.016   0.032   0.117 -0.2436  2.2377  0.4290
 5410TIP3    H216195   0.938   0.105   0.224 -1.7399 -1.2624  1.8864
 5411TIP3   OH216196   6.378   5.043   5.206 -0.0637 -0.1529  0.3912
 5411TIP3    H116197   6.440   5.011   5.272  0.3799 -0.7847 -0.3104
 5411TIP3    H216198   6.318   4.969   5.193  0.4210 -0.3870 -0.5880
 5412TIP3   OH216199   4.205   3.706   3.850 -0.8753 -0.5832  0.0677
 5412TIP3    H116200   4.270   3.769   3.880 -2.3610  1.0161  0.0891
 5412TIP3    H216201   4.219   3.699   3.756 -1.9259  1.3633 -0.2885
 5413TIP3   OH216202   3.331   0.262   5.506  0.5982 -0.5205 -0.1107
 5413TIP3    H116203   3.285   0.186   5.541 -1.1749 -0.6057 -2.3505
 5413TIP3    H216204   3.280   0.338   5.536  1.1906 -0.3430  0.4630
 5414TIP3   OH216205   4.722   5.321   1.274 -0.2245 -0.8121  0.5199
 5414TIP3    H116206   4.719   5.311   1.369 -1.2332 -0.4459  0.5411
 5414TIP3    H216207   4.631   5.340   1.249  0.2559  0.4599 -0.3618
 5415TIP3   OH216208   6.462   4.794   0.048 -0.4502 -0.2015  0.0213
 5415TIP3    H116209   6.539   4.817  -0.003 -0.1780  0.3970  0.6823
 5415TIP3    H216210   6.397   4.860   0.024  0.2271  1.1366  1.6820
 5416TIP3   OH216211   4.098   1.576   0.551 -0.2669 -0.5678 -0.1582
 5416TIP3    H116212   4.189   1.583   0.581 -1.1138  1.2039  2.2331
 5416TIP3    H216213   4.092   1.640   0.480  0.3684 -0.7644 -0.3967
 5417TIP3   OH216214   4.383   5.607   0.113 -0.3583 -0.3095  0.2967
 5417TIP3    H116215   4.345   5.640   0.194  0.2741  2.0365 -0.3007
 5417TIP3    H216216   4.469   5.572   0.139  0.1695  1.1299  0.5504
 5418TIP3   OH216217   3.178   6.512   0.828 -0.8837  0.9110 -0.1604
 5418TIP3    H116218   3.159   6.604   0.844  0.7083  1.1341  0.6894
 5418TIP3    H216219   3.270   6.511   0.801 -0.2139 -0.5901  1.9320
 5419TIP3   OH216220   1.815   1.977   2.161  1.1396  0.0288  0.0194
 5419TIP3    H116221   1.788   2.014   2.245  0.4476  0.0406 -0.2063
 5419TIP3    H216222   1.853   1.892   2.184 -0.9762 -0.9269  0.1577
 5420TIP3   OH216223   6.533   5.482   5.771 -0.4891 -0.0129  0.0328
 5420TIP3    H116224   6.554   5.575   5.763  1.8329 -0.4553  0.4732
 5420TIP3    H216225   6.507   5.456   5.682  2.5717  0.2762 -1.0730
 5421TIP3   OH216226   2.442   0.236   0.929  0.2274  0.9498 -0.4083
 5421TIP3    H116227   2.498   0.159   0.937  0.4061  1.1848  0.7082
 5421TIP3    H216228   2.354   0.204   0.947  0.4881  1.2627  1.7104
 5422TIP3   OH216229   6.685   4.424   2.523  0.2903 -0.4768  0.2549
 5422TIP3    H116230   6.615   4.457   2.466 -0.5656 -1.0945  0.9113
 5422TIP3    H216231   6.725   4.353   2.474 -0.1319 -0.6963  0.2187
 5423TIP3   OH216232   2.399   4.520   1.797 -0.8089  0.4652 -0.0307
 5423TIP3    H116233   2.339   4.509   1.724  0.3962  1.7819 -1.2965
 5423TIP3    H216234   2.444   4.603   1.779  1.1035 -0.2680  1.0481
 5424TIP3   OH216235   2.507   2.582   3.757 -0.2199  0.1478 -0.0311
 5424TIP3    H116236   2.469   2.664   3.789  1.6471  0.6453  1.1438
 5424TIP3    H216237   2.547   2.605   3.673 -0.8984  0.0790 -0.3766
 5425TIP3   OH216238   6.303   3.640   5.839 -0.4366  0.3599 -0.2537
 5425TIP3    H116239   6.345   3.602   5.916  0.2237  0.1002 -0.7337
 5425TIP3    H216240   6.233   3.695   5.875 -1.5982 -1.4775  0.4564
 5426TIP3   OH216241   1.240   5.774   0.890 -0.3040 -0.0086 -0.5263
 5426TIP3    H116242   1.219   5.696   0.839  1.9375  0.0774 -1.6775
 5426TIP3    H216243   1.172   5.837   0.867 -0.6560 -0.7562 -1.6028
 5427TIP3   OH216244   6.309   2.984   3.162  0.1595  0.2488 -0.1972
 5427TIP3    H116245   6.364   2.963   3.086 -3.1806  1.0729 -3.1123
 5427TIP3    H216246   6.290   3.077   3.152 -2.4167 -0.1789  0.0789
 5428TIP3   OH216247   2.881   0.665   2.909  0.4369 -0.3680 -0.0486
 5428TIP3    H116248   2.827   0.616   2.847  2.9761 -1.7033 -1.3797
 5428TIP3    H216249   2.956   0.608   2.924  1.6949  1.5584  1.3657
 5429TIP3   OH216250   6.583   3.147   2.370 -0.4418  0.2505  0.4622
 5429TIP3    H116251   6.598   3.160   2.464  0.2446  2.3333  0.1347
 5429TIP3    H216252   6.522   3.217   2.346 -1.0332 -0.5842 -0.5650
 5430TIP3   OH216253   4.027   1.601   2.179 -0.3813  0.1252 -0.1447
 5430TIP3    H116254   3.976   1.680   2.165 -0.1983 -0.0557 -2.0032
 5430TIP3    H216255   3.962   1.531   2.192 -0.6613 -0.0865 -2.3854
 5431TIP3   OH216256   4.412   3.369   4.605  0.0224  0.9108  0.4438
 5431TIP3    H116257   4.415   3.464   4.609 -0.5653  0.9751 -0.3873
 5431TIP3    H216258   4.411   3.349   4.511  0.2536  0.0835  0.6087
 5432TIP3   OH216259   0.347   2.589   0.867  0.5579 -0.2058 -0.0347
 5432TIP3    H116260   0.261   2.595   0.825  0.4535 -1.0068  0.0609
 5432TIP3    H216261   0.357   2.673   0.912  0.5145  0.5299 -1.3483
 5433TIP3   OH216262   1.004   0.963   5.180 -0.1483  0.0600  0.5907
 5433TIP3    H116263   0.930   1.008   5.138 -1.1786 -0.1268  2.1386
 5433TIP3    H216264   1.000   0.874   5.146  0.5689  0.5344 -0.8103
 5434TIP3   OH216265   0.749   4.545   3.240  0.2408  0.3746 -0.2446
 5434TIP3    H116266   0.784   4.498   3.316 -1.0830 -3.9748 -1.9914
 5434TIP3    H216267   0.822   4.545   3.178 -0.4667 -2.0281 -1.1975
 5435TIP3   OH216268   3.312   5.800   0.340 -0.0628 -0.0760 -0.7395
 5435TIP3    H116269   3.239   5.805   0.401  1.0579  1.9582  0.5871
 5435TIP3    H216270   3.312   5.710   0.308 -2.6454 -0.3290 -0.2329
 5436TIP3   OH216271   4.218   5.503   4.312 -0.8052 -0.7798 -0.1566
 5436TIP3    H116272   4.156   5.575   4.313 -3.1932 -2.6633  1.9526
 5436TIP3    H216273   4.249   5.500   4.222 -2.6218  1.2240 -0.9497
 5437TIP3   OH216274   7.058   3.466   1.134 -0.0213  0.2577 -0.3810
 5437TIP3    H116275   7.059   3.396   1.199 -0.7693 -0.5183 -1.1772
 5437TIP3    H216276   7.095   3.542   1.180 -0.0785 -0.3949  0.7869
 5438TIP3   OH216277   2.465   1.151   0.696 -0.1578  0.3307  0.1988
 5438TIP3    H116278   2.489   1.078   0.754  1.6725 -0.0969 -1.0052
 5438TIP3    H216279   2.376   1.131   0.667 -0.6335 -0.0937  1.8201
 5439TIP3   OH216280   1.127   3.134   3.390  0.2314 -0.0989 -0.6959
 5439TIP3    H116281   1.169   3.120   3.306  1.0983  0.1817 -0.3156
 5439TIP3    H216282   1.094   3.048   3.415  0.1441 -0.2240 -1.2216
 5440TIP3   OH216283   6.143   6.098   0.578  0.1484 -0.5670  0.0499
 5440TIP3    H116284   6.216   6.154   0.606 -0.2185 -0.2115  0.3102
 5440TIP3    H216285   6.075   6.114   0.643  0.3606 -2.0246  0.6680
 5441TIP3   OH216286   2.230   4.825   3.011 -0.6952 -0.1228 -0.6807
 5441TIP3    H116287   2.161   4.806   3.074 -1.2922 -0.6820 -1.4774
 5441TIP3    H216288   2.309   4.783   3.047 -1.2599 -1.3373 -0.7981
 5442TIP3   OH216289   3.834   2.253   5.820 -0.2622  0.4271  0.1222
 5442TIP3    H116290   3.871   2.171   5.789 -0.1397  0.0461  1.2190
 5442TIP3    H216291   3.808   2.234   5.911 -2.4680  0.8708 -0.3480
 5443TIP3   OH216292   1.787   0.817   2.407 -0.2352  0.1612 -0.2641
 5443TIP3    H116293   1.793   0.729   2.370 -0.3753  1.3878 -3.5643
 5443TIP3    H216294   1.877   0.847   2.411 -0.3364  0.8651 -2.0873
 5444TIP3   OH216295   3.503   4.554   1.135  0.0217 -0.1994 -0.1328
 5444TIP3    H116296   3.427   4.537   1.190  0.0306  2.4550  0.8815
 5444TIP3    H216297   3.577   4.559   1.196  0.4305  0.4561 -0.6568
 5445TIP3   OH216298   0.311   0.255   4.765 -0.0668 -0.4316 -0.0261
 5445TIP3    H116299   0.328   0.173   4.810  0.9753  0.1319  0.6550
 5445TIP3    H216300   0.359   0.321   4.816  0.1642  0.4073 -1.2760
 5446TIP3   OH216301   2.885   6.140   1.732  1.2131 -0.7174  0.1444
 5446TIP3    H116302   2.905   6.213   1.673  1.3356 -1.4522 -0.7334
 5446TIP3    H216303   2.792   6.150   1.751  1.3421 -0.0251  0.4655
 5447TIP3   OH216304   0.717   0.606   3.918  0.0839  0.3432 -0.2190
 5447TIP3    H116305   0.740   0.677   3.857  1.1659  0.0809 -0.1316
 5447TIP3    H216306   0.735   0.526   3.869 -3.5373 -0.0040 -1.2773
 5448TIP3   OH216307   2.982   1.755   4.750 -0.2189  0.1205  0.7088
 5448TIP3    H116308   3.013   1.836   4.710 -0.3896 -0.4935 -0.7605
 5448TIP3    H216309   2.952   1.780   4.837  0.7459  1.4210  0.6908
 5449TIP3   OH216310   0.948   3.793   2.691 -0.3672  0.0129  0.1077
 5449TIP3    H116311   0.997   3.847   2.628 -0.5749 -0.9658 -0.9131
 5449TIP3    H216312   0.949   3.705   2.654 -2.0679 -0.2310  0.5603
 5450TIP3   OH216313   7.039   4.807   1.188 -0.0853  0.0021 -0.8706
 5450TIP3    H116314   7.068   4.785   1.099 -0.4945  0.7115 -1.1834
 5450TIP3    H216315   7.111   4.859   1.224  0.0114 -0.1547 -0.8313
 5451TIP3   OH216316   1.712   6.668   3.411 -0.4080 -0.1967 -0.2553
 5451TIP3    H116317   1.700   6.591   3.467  3.2445 -1.6902 -1.2470
 5451TIP3    H216318   1.735   6.633   3.325  2.0600  1.9130 -0.5813
 5452TIP3   OH216319   0.552   2.288   3.775  0.2307  0.4984  0.5433
 5452TIP3    H116320   0.569   2.222   3.842  1.2151 -0.9836 -1.0564
 5452TIP3    H216321   0.468   2.263   3.737  0.5453  0.1914  0.0214
 5453TIP3   OH216322   1.182   6.619   4.115  0.0384  0.0509  0.2267
 5453TIP3    H116323   1.268   6.661   4.120  0.0374  0.2299 -1.1186
 5453TIP3    H216324   1.196   6.540   4.063  0.1439 -2.0119  3.0927
 5454TIP3   OH216325   5.483   0.018   2.736 -0.7640  0.2267 -0.3627
 5454TIP3    H116326   5.486   0.071   2.815  2.0399 -0.7153  0.3109
 5454TIP3    H216327   5.455  -0.068   2.766 -2.2350  0.5013 -0.8941
 5455TIP3   OH216328   1.312   6.553   5.406  0.8477  0.7706  0.3309
 5455TIP3    H116329   1.233   6.557   5.351  0.7630 -0.4052  0.3559
 5455TIP3    H216330   1.384   6.558   5.343  0.7500 -0.3932  0.1121
 5456TIP3   OH216331   7.084   6.008   0.129  0.0107  0.2763 -0.0529
 5456TIP3    H116332   7.103   6.081   0.070  0.0952 -0.4515 -0.9460
 5456TIP3    H216333   6.993   6.023   0.156 -0.6679 -0.3785 -1.8630
 5457TIP3   OH216334   5.000   3.020   3.173  0.3778 -0.2144 -0.3843
 5457TIP3    H116335   5.075   3.074   3.196 -0.9479  1.3137  0.6292
 5457TIP3    H216336   5.037   2.936   3.146  2.3776  0.0275  1.3910
 5458TIP3   OH216337   0.413   1.672   0.569  0.4355  0.5873  0.0842
 5458TIP3    H116338   0.361   1.675   0.489  2.1644  0.2028 -1.1097
 5458TIP3    H216339   0.349   1.681   0.640 -1.2055  0.2931 -1.3029
 5459TIP3   OH216340   4.946   2.313   0.114 -0.0201 -0.7643  0.0298
 5459TIP3    H116341   4.867   2.259   0.106 -0.2445 -0.6500  1.3065
 5459TIP3    H216342   4.997   2.271   0.183  0.0566  0.3256  0.6604
 5460TIP3   OH216343   6.853   6.541   0.287 -0.1477 -0.1793  0.1559
 5460TIP3    H116344   6.853   6.517   0.194  2.3171 -0.7468  0.2099
 5460TIP3    H216345   6.905   6.472   0.328  0.9605  1.3972  1.5313
 5461TIP3   OH216346   5.447   6.502   4.414  0.1016 -0.3292 -0.2831
 5461TIP3    H116347   5.352   6.501   4.424  0.0093 -0.8884 -1.0927
 5461TIP3    H216348   5.465   6.583   4.366 -0.0426 -0.5607 -0.7347
 5462TIP3   OH216349   1.286   1.959   4.311 -0.3761 -0.3850  0.0001
 5462TIP3    H116350   1.379   1.970   4.330 -0.7843 -0.5598  2.3375
 5462TIP3    H216351   1.283   1.942   4.217  2.0358 -1.2987  0.0184
 5463TIP3   OH216352   3.824   5.220   3.036 -0.0888  0.1370  0.5102
 5463TIP3    H116353   3.867   5.169   3.105  0.4670 -0.6310 -0.3914
 5463TIP3    H216354   3.895   5.265   2.991 -0.4535  0.6633  0.4527
 5464TIP3   OH216355   0.042   5.298   2.956  0.2158  0.2317  0.2922
 5464TIP3    H116356   0.022   5.376   3.007  1.5139 -0.4801  1.9962
 5464TIP3    H216357   0.014   5.225   3.012 -0.0289 -0.5673 -0.8222
 5465TIP3   OH216358   0.701   0.889   1.391 -0.1704 -0.2721  0.4718
 5465TIP3    H116359   0.797   0.881   1.394 -0.2366 -1.0335  2.5340
 5465TIP3    H216360   0.670   0.799   1.405 -1.1816  0.1255  0.8206
 5466TIP3   OH216361   3.312   2.207   0.375 -0.1079 -0.3467  0.1464
 5466TIP3    H116362   3.223   2.182   0.349 -0.3600 -1.1787  1.6910
 5466TIP3    H216363   3.303   2.237   0.466  1.2180 -0.6521  0.3981
 5467TIP3   OH216364   2.243   1.296   4.126 -0.8006 -0.1008  0.0368
 5467TIP3    H116365   2.174   1.233   4.106 -0.1849 -0.4425 -1.0765
 5467TIP3    H216366   2.278   1.322   4.041 -0.2090  0.8149  0.5396
 5468TIP3   OH216367   1.260   2.612   1.016  0.6609 -0.4988 -0.2965
 5468TIP3    H116368   1.266   2.675   1.088  0.0054  3.0712 -3.0190
 5468TIP3    H216369   1.349   2.582   1.003  0.9265 -0.5481  1.4073
 5469TIP3   OH216370   2.964   1.669   0.182 -0.6320 -0.8590  0.4284
 5469TIP3    H116371   2.944   1.646   0.273 -0.6410 -1.5489  0.2499
 5469TIP3    H216372   2.904   1.618   0.129 -1.1031  0.0709  0.0493
 5470TIP3   OH216373   3.708   0.989   3.560  0.1082  0.1341  0.1508
 5470TIP3    H116374   3.790   0.981   3.512 -0.0379 -0.1538 -0.0513
 5470TIP3    H216375   3.659   1.055   3.513 -1.1791 -2.0452 -1.7583
 5471TIP3   OH216376   0.072   4.013   2.017  0.5442  0.9039 -0.0233
 5471TIP3    H116377   0.020   3.932   2.014 -1.3827  2.1224 -1.4497
 5471TIP3    H216378   0.103   4.025   1.928  0.6970  1.8157  0.1495
 5472TIP3   OH216379   6.310   1.123   0.939  0.1488  0.3312  0.4703
 5472TIP3    H116380   6.335   1.187   0.872  0.8559 -1.3075 -0.9083
 5472TIP3    H216381   6.222   1.095   0.914  0.2520  0.0189  0.4467
 5473TIP3   OH216382   2.821   5.304   0.700 -0.0264 -0.0883  0.9623
 5473TIP3    H116383   2.870   5.316   0.781  1.0610 -0.9481  0.4729
 5473TIP3    H216384   2.886   5.318   0.631 -0.6026 -0.6920  0.2709
 5474TIP3   OH216385   0.764   1.275   3.178 -0.5898 -0.0183 -0.0998
 5474TIP3    H116386   0.675   1.241   3.185 -0.4849 -0.4421 -0.6879
 5474TIP3    H216387   0.756   1.356   3.129 -0.9306  1.2446  1.9278
 5475TIP3   OH216388   1.785   0.077   3.926 -0.1719  0.2236  0.2024
 5475TIP3    H116389   1.812   0.028   3.848 -1.1600 -1.7515  1.0462
 5475TIP3    H216390   1.864   0.081   3.980  0.2132  0.6166 -0.3660
 5476TIP3   OH216391   1.234   0.330   5.150 -0.0766 -0.9046  0.1985
 5476TIP3    H116392   1.318   0.358   5.114 -0.0574  0.3783  1.1794
 5476TIP3    H216393   1.170   0.352   5.082  0.2465 -0.8405 -0.0846
 5477TIP3   OH216394   4.126   2.283   0.313  0.0561  0.0597  0.4877
 5477TIP3    H116395   4.108   2.220   0.382 -0.9091 -0.3063 -0.0852
 5477TIP3    H216396   4.076   2.361   0.337 -0.8160 -0.3018 -0.1372
 5478TIP3   OH216397   6.433   2.661   5.764 -0.1713 -0.5434 -0.4718
 5478TIP3    H116398   6.408   2.599   5.696 -2.3026 -1.7931  1.3397
 5478TIP3    H216399   6.421   2.614   5.846  2.5884  0.8119  0.8487
 5479TIP3   OH216400   3.242   5.869   1.488  0.1493 -0.0158  0.3296
 5479TIP3    H116401   3.197   5.886   1.406  1.5200 -0.8172 -0.6377
 5479TIP3    H216402   3.181   5.897   1.556 -1.2054  0.2101 -0.9431
 5480TIP3   OH216403   5.991   2.214   3.045 -0.1582 -0.3214 -0.4074
 5480TIP3    H116404   5.984   2.186   3.136 -1.5638 -0.4712 -0.5366
 5480TIP3    H216405   6.043   2.146   3.002  3.6758  1.4551  0.9366
 5481TIP3   OH216406   6.881   5.071   0.866 -0.2025 -0.1524  0.0255
 5481TIP3    H116407   6.895   5.068   0.960  1.6223  0.5389 -0.1702
 5481TIP3    H216408   6.866   4.980   0.840  1.0962 -0.5983  0.7588
 5482TIP3   OH216409   6.429   3.711   3.404 -0.2196  0.0927  0.2115
 5482TIP3    H116410   6.372   3.778   3.365  0.9484  1.2394  0.3945
 5482TIP3    H216411   6.421   3.725   3.499  0.7031  0.5756  0.2281
 5483TIP3   OH216412   5.745   1.255   4.656  0.4212  0.1638  0.5564
 5483TIP3    H116413   5.769   1.226   4.744 -0.4505  0.1692  0.8087
 5483TIP3    H216414   5.732   1.349   4.663 -1.4533 -0.0787  0.8810
 5484TIP3   OH216415   0.987   2.087   1.415  0.2453  0.1587  0.1207
 5484TIP3    H116416   1.079   2.081   1.391  0.3053 -0.5731  0.5100
 5484TIP3    H216417   0.986   2.140   1.495  0.2513  0.7679 -0.2751
 5485TIP3   OH216418   5.821   5.553   2.757 -0.6271 -0.2358  0.5188
 5485TIP3    H116419   5.838   5.647   2.753  1.5974 -0.5090  1.7099
 5485TIP3    H216420   5.904   5.513   2.733 -1.4346 -1.9050  0.3842
 5486TIP3   OH216421   4.195   4.483   3.286  0.1360 -0.2416  0.0336
 5486TIP3    H116422   4.270   4.527   3.246  0.9076 -1.0873  0.5134
 5486TIP3    H216423   4.186   4.524   3.372 -0.5022  0.4466 -0.3469
 5487TIP3   OH216424   5.165   6.673   4.226 -0.3545  0.4730  0.3739
 5487TIP3    H116425   5.097   6.624   4.180 -0.1091  0.6353 -0.1810
 5487TIP3    H216426   5.173   6.630   4.311 -0.5051 -0.1250  0.0915
 5488TIP3   OH216427   1.124   1.395   4.460  0.4914 -0.8099 -0.0826
 5488TIP3    H116428   1.209   1.392   4.416  0.1870 -0.1244 -0.7337
 5488TIP3    H216429   1.083   1.311   4.440  0.3875 -0.5344 -1.0549
 5489TIP3   OH216430   3.896   6.426   3.252  0.0676  0.4306  0.7203
 5489TIP3    H116431   3.919   6.449   3.342 -0.4290  1.2365  0.6491
 5489TIP3    H216432   3.850   6.502   3.218 -0.6974 -0.2701  0.1221
 5490TIP3   OH216433   3.001   1.839   0.836  0.1972  0.0198  0.4324
 5490TIP3    H116434   3.062   1.764   0.833  0.6136  0.2920  1.5692
 5490TIP3    H216435   2.947   1.823   0.913  1.1456  1.5119  1.4593
 5491TIP3   OH216436   2.106   1.902   3.181 -0.6695 -0.4195  0.0507
 5491TIP3    H116437   2.183   1.873   3.229 -0.1545  1.0963  0.1849
 5491TIP3    H216438   2.075   1.979   3.229 -0.4370  0.8508 -1.7190
 5492TIP3   OH216439   3.318   3.580   2.763  0.2815  0.2760  0.0146
 5492TIP3    H116440   3.223   3.590   2.759  0.1319 -0.6741  0.7081
 5492TIP3    H216441   3.335   3.495   2.723  0.8501  0.4691 -0.1668
 5493TIP3   OH216442   6.390   0.429   1.697 -0.0397 -0.0240 -0.3342
 5493TIP3    H116443   6.481   0.459   1.706 -0.2558  1.7188 -2.8279
 5493TIP3    H216444   6.396   0.347   1.648  0.1901  0.0039 -0.3534
 5494TIP3   OH216445   6.533   6.282   2.109 -0.4325  0.1117 -0.0527
 5494TIP3    H116446   6.439   6.269   2.100 -0.4540 -0.7621  1.1702
 5494TIP3    H216447   6.542   6.366   2.155 -0.6832 -0.5104  1.1593
 5495TIP3   OH216448   3.056   2.269   5.719  0.0289 -0.1336  0.4917
 5495TIP3    H116449   3.095   2.254   5.632 -0.3371  1.5884 -0.0110
 5495TIP3    H216450   2.975   2.317   5.701  0.0741  0.4752  1.7897
 5496TIP3   OH216451   4.933   5.865   5.555  0.5124  0.0454  0.3275
 5496TIP3    H116452   4.898   5.954   5.544 -1.0702 -0.5011  0.6419
 5496TIP3    H216453   4.866   5.809   5.516  1.2815 -1.0409  0.5470
 5497TIP3   OH216454   4.560   1.507   3.774 -0.0333 -0.2726  0.3422
 5497TIP3    H116455   4.500   1.458   3.717  1.2377 -1.0860 -0.3336
 5497TIP3    H216456   4.514   1.590   3.791 -0.2229  0.2855 -2.3686
 5498TIP3   OH216457   6.543   3.885   1.041  0.4514  0.3980  0.0353
 5498TIP3    H116458   6.466   3.904   1.095  0.5322 -0.0953  0.3268
 5498TIP3    H216459   6.508   3.851   0.959  0.3290  1.1105 -0.2150
 5499TIP3   OH216460   1.849   4.741   0.115  0.3397 -0.4640  0.3452
 5499TIP3    H116461   1.883   4.819   0.071  1.0482 -1.4548 -0.9481
 5499TIP3    H216462   1.919   4.676   0.106  0.7350 -0.6098  3.4438
 5500TIP3   OH216463   1.427   2.650   4.666 -0.5816  0.5126  0.1381
 5500TIP3    H116464   1.511   2.689   4.690 -0.3537 -0.0302  0.2381
 5500TIP3    H216465   1.372   2.725   4.644 -0.2684  0.9115  0.6836
 5501TIP3   OH216466   2.738   2.871   0.258 -0.2718 -0.2220 -0.4422
 5501TIP3    H116467   2.830   2.895   0.257 -0.0027 -1.2337 -0.9247
 5501TIP3    H216468   2.708   2.888   0.169 -0.3671 -0.5888 -0.4803
 5502TIP3   OH216469   1.998   1.362   2.930  0.8150 -0.3633  0.4288
 5502TIP3    H116470   1.978   1.427   2.998  1.2262  0.0008  0.2112
 5502TIP3    H216471   1.925   1.301   2.933 -0.0887  0.6556 -0.0165
 5503TIP3   OH216472   3.662   2.769   2.013  0.0969  0.1459 -0.1661
 5503TIP3    H116473   3.746   2.734   1.983  0.4871  2.2620 -1.7670
 5503TIP3    H216474   3.684   2.823   2.089 -0.4759 -2.6082  2.1510
 5504TIP3   OH216475   1.779   1.022   0.453  0.2089 -0.2784  0.4229
 5504TIP3    H116476   1.818   0.940   0.423  1.4412  1.0911 -2.0033
 5504TIP3    H216477   1.688   1.017   0.425  0.6335 -0.2589 -1.0631
 5505TIP3   OH216478   1.373   1.766   0.351 -0.2075 -0.0025  0.0135
 5505TIP3    H116479   1.343   1.821   0.423 -3.3564 -1.5724  0.0635
 5505TIP3    H216480   1.431   1.702   0.393  1.3103  1.5435  0.3817
 5506TIP3   OH216481   5.414   1.136   2.338  0.1566  0.3481  0.1643
 5506TIP3    H116482   5.436   1.046   2.315 -0.0676  0.8168 -2.1452
 5506TIP3    H216483   5.482   1.163   2.400  1.0930 -0.9174 -0.2763
 5507TIP3   OH216484   5.488   0.270   1.531  0.9332  0.1888  0.1865
 5507TIP3    H116485   5.544   0.300   1.459  1.0838 -0.5809 -0.0316
 5507TIP3    H216486   5.419   0.220   1.488  0.8351  0.0077  0.5577
 5508TIP3   OH216487   4.014   3.085   5.849 -0.1448  0.4909 -0.0492
 5508TIP3    H116488   4.007   3.169   5.895 -2.3420  1.0077 -1.1723
 5508TIP3    H216489   3.999   3.106   5.757 -2.3218 -1.2353 -0.1995
 5509TIP3   OH216490   1.771   2.883   1.763  0.5108  0.2774  0.7257
 5509TIP3    H116491   1.805   2.818   1.824  0.7015 -0.1097  0.2163
 5509TIP3    H216492   1.701   2.838   1.715 -2.1775  1.6327  3.0994
 5510TIP3   OH216493   2.569   1.387   4.390  0.2907  0.0880 -0.5345
 5510TIP3    H116494   2.615   1.316   4.345 -1.7877 -2.1680  0.6173
 5510TIP3    H216495   2.627   1.412   4.462  0.9272 -0.6960 -0.7577
 5511TIP3   OH216496   3.063   2.982   4.088 -0.2458 -0.4401  0.3464
 5511TIP3    H116497   3.015   3.044   4.143  1.5172  0.6742  0.7207
 5511TIP3    H216498   3.051   2.897   4.130 -1.2771 -0.0840  0.8039
 5512TIP3   OH216499   1.049   2.818   1.842 -0.2488 -0.2975  0.1645
 5512TIP3    H116500   1.110   2.882   1.879 -0.1854 -0.0894 -0.2975
 5512TIP3    H216501   1.083   2.801   1.754 -1.3962  0.5294 -0.4556
 5513TIP3   OH216502   0.616   5.266   1.507  0.3303 -0.1428  0.2402
 5513TIP3    H116503   0.693   5.304   1.548  1.4025  0.7930 -2.4262
 5513TIP3    H216504   0.542   5.314   1.545  1.2787  0.9139  0.8138
 5514TIP3   OH216505   0.253   2.876   0.166  0.0435  0.7506  0.3991
 5514TIP3    H116506   0.160   2.882   0.147  0.2737  0.7861 -0.7883
 5514TIP3    H216507   0.261   2.800   0.224 -0.7192  0.7273  0.4779
 5515TIP3   OH216508   5.195   1.579   1.975 -0.3257  0.6614  0.4638
 5515TIP3    H116509   5.263   1.568   2.043  0.3135 -1.0566 -0.3876
 5515TIP3    H216510   5.144   1.654   2.005  0.9121  0.9573  2.0212
 5516TIP3   OH216511   1.316   5.159   2.576  0.3029  0.2170 -0.0262
 5516TIP3    H116512   1.284   5.242   2.612  1.6435  0.2189  1.2167
 5516TIP3    H216513   1.317   5.099   2.650  1.9839 -0.1210 -0.2892
 5517TIP3   OH216514   4.641   1.068   1.050 -0.3158  0.3049 -0.1176
 5517TIP3    H116515   4.653   0.994   0.991  0.2121  0.7174 -0.5304
 5517TIP3    H216516   4.560   1.109   1.021  0.7125  1.3969 -1.5385
 5518TIP3   OH216517   6.987   5.429   3.493 -0.0043  0.4591  0.2655
 5518TIP3    H116518   7.004   5.418   3.586  1.5134  2.0541  0.2273
 5518TIP3    H216519   6.903   5.476   3.490 -0.6885 -0.6806  0.7437
 5519TIP3   OH216520   2.257   4.352   4.434 -0.1751  0.2202  0.0732
 5519TIP3    H116521   2.255   4.448   4.437 -1.0155  0.3566 -2.4345
 5519TIP3    H216522   2.346   4.330   4.405 -0.4030  0.3556 -0.7676
 5520TIP3   OH216523   1.821   6.400   0.509  0.0124 -0.3355 -0.1589
 5520TIP3    H116524   1.854   6.433   0.592 -1.5176  1.4491 -0.1864
 5520TIP3    H216525   1.755   6.335   0.533  0.5702 -0.8569 -0.0212
 5521TIP3   OH216526   3.811   1.792   2.425 -0.1055 -0.3359  0.1867
 5521TIP3    H116527   3.733   1.745   2.396  0.0797  1.2947 -3.5464
 5521TIP3    H216528   3.792   1.884   2.407  2.4604  0.1602 -0.3505
 5522TIP3   OH216529   6.606   2.197   2.690 -0.1480  0.4477  0.0066
 5522TIP3    H116530   6.529   2.199   2.747  1.6138 -0.0794  2.6035
 5522TIP3    H216531   6.621   2.288   2.666 -0.0350  0.9230  1.7733
 5523TIP3   OH216532   6.483   3.355   4.023 -0.3345  0.0804 -0.1406
 5523TIP3    H116533   6.565   3.312   4.045 -0.4394 -0.9599 -1.6805
 5523TIP3    H216534   6.419   3.284   4.019 -1.5037  0.9305  1.6602
 5524TIP3   OH216535   3.281   1.406   5.837 -0.0274  0.2312 -0.3405
 5524TIP3    H116536   3.215   1.341   5.858  0.6694 -0.7633 -1.1858
 5524TIP3    H216537   3.307   1.442   5.922 -1.2384  0.2478  0.0353
 5525TIP3   OH216538   1.210   0.577   2.728  0.0479 -0.0512 -0.3871
 5525TIP3    H116539   1.226   0.553   2.637 -0.1027 -1.4730 -0.0672
 5525TIP3    H216540   1.169   0.499   2.766 -1.7551  1.2189  0.4121
 5526TIP3   OH216541   3.850   1.388   5.200 -0.3419 -0.7994 -0.1879
 5526TIP3    H116542   3.848   1.483   5.189 -1.8459 -0.6982  0.6471
 5526TIP3    H216543   3.834   1.375   5.293 -0.8912 -1.8848 -0.4218
 5527TIP3   OH216544   0.184   0.415   4.357 -0.9030 -0.2054  0.3516
 5527TIP3    H116545   0.206   0.328   4.327  0.8021  0.5179 -0.6303
 5527TIP3    H216546   0.089   0.421   4.347 -1.3068 -2.4735  2.0097
 5528TIP3   OH216547   6.977   0.149   4.226 -0.0660  0.0912 -0.4636
 5528TIP3    H116548   6.905   0.201   4.190 -0.1706  0.1816 -0.1358
 5528TIP3    H216549   6.954   0.059   4.206 -0.5679  0.0743  0.1317
 5529TIP3   OH216550   5.021   5.640   2.166 -0.2227 -0.7016  0.1518
 5529TIP3    H116551   5.070   5.711   2.122 -0.8706 -0.3447 -0.0087
 5529TIP3    H216552   5.063   5.632   2.252 -0.1797 -0.0772  0.1951
 5530TIP3   OH216553   6.551   2.418   1.666  0.3645 -0.1051 -0.1390
 5530TIP3    H116554   6.512   2.441   1.751  1.2665  0.7987  0.0545
 5530TIP3    H216555   6.622   2.358   1.687  1.7711  1.5117 -0.0171
 5531TIP3   OH216556   3.547   5.930   3.852  0.4482  0.4365  0.4469
 5531TIP3    H116557   3.483   5.946   3.921 -2.2512 -0.8001 -1.6247
 5531TIP3    H216558   3.555   6.013   3.806 -1.0213  0.1948 -0.2968
 5532TIP3   OH216559   1.013   6.745   3.596  0.2267  1.0992  0.3625
 5532TIP3    H116560   0.977   6.731   3.508 -0.7681  2.2551  0.5680
 5532TIP3    H216561   1.059   6.829   3.590  1.0075  0.7095  0.7074
 5533TIP3   OH216562   2.063   3.446   1.743 -0.2942  0.3787  0.1955
 5533TIP3    H116563   2.084   3.488   1.659 -0.7119  1.1521  0.4702
 5533TIP3    H216564   2.125   3.373   1.749  0.6584  1.1430 -0.1384
 5534TIP3   OH216565   5.137   0.702   0.272 -0.4381  0.0872 -0.2574
 5534TIP3    H116566   5.067   0.637   0.273 -1.6538  1.3544  0.2603
 5534TIP3    H216567   5.216   0.652   0.293 -0.9527 -1.5863 -1.9782
 5535TIP3   OH216568   0.699   2.446   5.753  0.1049  0.1558  0.1214
 5535TIP3    H116569   0.766   2.407   5.809  1.3106  1.2998 -0.4525
 5535TIP3    H216570   0.657   2.512   5.808  0.4391  0.4239  0.0590
 5536TIP3   OH216571   6.125   6.308   3.303  0.8103 -0.6017 -0.0814
 5536TIP3    H116572   6.081   6.340   3.224 -1.0246  0.0156  1.1218
 5536TIP3    H216573   6.194   6.372   3.320 -0.5017  0.7807  0.2651
 5537TIP3   OH216574   0.216   6.638   2.941  0.3132  0.1723  0.4916
 5537TIP3    H116575   0.197   6.622   2.849  0.3786  3.1673 -0.1380
 5537TIP3    H216576   0.131   6.630   2.984 -0.7060  3.3327 -0.6712
 5538TIP3   OH216577   1.139   1.966   4.719  0.4043  0.4293  0.1768
 5538TIP3    H116578   1.106   1.940   4.806 -1.5578  2.7536  0.2465
 5538TIP3    H216579   1.208   2.030   4.738  1.5817 -0.7629 -0.0020
 5539TIP3   OH216580   5.423   3.173   5.737  0.1693  0.4092  0.1540
 5539TIP3    H116581   5.396   3.093   5.692 -0.2385  0.7108 -0.1341
 5539TIP3    H216582   5.353   3.235   5.721  0.1531  0.6148  0.9573
 5540TIP3   OH216583   6.380   0.377   0.762  0.7680  0.4987  0.3216
 5540TIP3    H116584   6.456   0.399   0.815  1.3349  3.1983 -1.4214
 5540TIP3    H216585   6.366   0.453   0.706 -1.7573 -0.8791 -1.1398
 5541TIP3   OH216586   2.264   1.306   1.119  0.1172 -0.1426  0.4164
 5541TIP3    H116587   2.283   1.378   1.059  1.5632  0.0758  1.0842
 5541TIP3    H216588   2.236   1.350   1.200  0.4761 -0.3517  0.6540
 5542TIP3   OH216589   0.229   3.085   0.398  0.6147  0.3470 -0.1779
 5542TIP3    H116590   0.234   3.156   0.461  0.4064 -0.4204  0.7159
 5542TIP3    H216591   0.273   3.011   0.440  0.4634 -0.1876 -0.9212
 5543TIP3   OH216592   4.437   6.431   3.569  0.2646  0.1886 -0.7216
 5543TIP3    H116593   4.388   6.500   3.615  0.9215  0.2026 -0.0343
 5543TIP3    H216594   4.500   6.478   3.514 -0.2097  0.1576 -1.3133
 5544TIP3   OH216595   4.234   2.852   0.070 -0.1603  0.2227  0.3023
 5544TIP3    H116596   4.291   2.816   0.139 -1.5963 -0.6950  1.0809
 5544TIP3    H216597   4.202   2.935   0.106  0.5708  0.6813 -0.0861
 5545TIP3   OH216598   0.170   3.517   0.917  0.0850 -0.0756 -0.4980
 5545TIP3    H116599   0.200   3.566   0.841  1.2612 -1.2765 -0.8415
 5545TIP3    H216600   0.198   3.568   0.992  0.3441  0.3121 -0.8581
 5546TIP3   OH216601   2.891   3.250   3.637  0.6476 -0.3606 -0.1818
 5546TIP3    H116602   2.896   3.177   3.575 -0.1381 -0.0650 -0.6090
 5546TIP3    H216603   2.981   3.265   3.664  0.9845 -0.5689 -1.1689
 5547TIP3   OH216604   0.265   4.445   0.354 -0.0928  0.0014 -0.0850
 5547TIP3    H116605   0.202   4.381   0.386 -0.9205  0.0167 -1.5766
 5547TIP3    H216606   0.326   4.458   0.427 -2.0603  0.3357  1.5686
 5548TIP3   OH216607   0.497   5.298   3.165  0.2106  0.1821 -0.4463
 5548TIP3    H116608   0.546   5.224   3.201 -0.2397  0.9474  1.9770
 5548TIP3    H216609   0.419   5.258   3.126  0.2168 -0.6807  0.3737
 5549TIP3   OH216610   6.945   6.276   2.204 -0.0901 -0.1614  0.3387
 5549TIP3    H116611   6.859   6.296   2.167  1.1207  0.9357 -2.0830
 5549TIP3    H216612   6.950   6.180   2.202 -1.0922 -0.2159  0.0842
 5550TIP3   OH216613   3.543   0.553   0.427  0.6228 -0.5878 -1.0942
 5550TIP3    H116614   3.636   0.577   0.425  0.2904  0.8039 -3.1388
 5550TIP3    H216615   3.512   0.584   0.511  1.9410 -0.8287 -0.4923
 5551TIP3   OH216616   5.541   0.338   2.317 -0.3103 -0.8599  0.3868
 5551TIP3    H116617   5.580   0.395   2.251  0.9201 -2.0801 -0.0022
 5551TIP3    H216618   5.467   0.388   2.352 -1.6197 -0.5314 -2.5675
 5552TIP3   OH216619   0.156   1.876   5.548 -0.3069  0.3815 -0.1554
 5552TIP3    H116620   0.216   1.819   5.596 -0.8582 -1.0648 -1.0992
 5552TIP3    H216621   0.213   1.937   5.501  0.5297 -1.3361 -1.5097
 5553TIP3   OH216622   0.376   2.317   2.924 -0.0323 -0.2732 -0.7687
 5553TIP3    H116623   0.293   2.272   2.937  0.7412 -2.2149 -1.9496
 5553TIP3    H216624   0.400   2.350   3.010 -0.8654 -1.8358  0.1070
 5554TIP3   OH216625   0.131   4.614   1.145  0.1275  0.3848  0.5729
 5554TIP3    H116626   0.106   4.569   1.225  0.3457  0.8159  0.8886
 5554TIP3    H216627   0.169   4.697   1.175  0.6194  0.3538  0.0432
 5555TIP3   OH216628   2.624   4.791   5.363 -0.1824 -0.3861  0.0946
 5555TIP3    H116629   2.569   4.754   5.294 -1.1505  0.2437  0.5064
 5555TIP3    H216630   2.578   4.771   5.445  0.6705 -0.6413  0.5227
 5556TIP3   OH216631   6.095   6.160   2.972 -0.2326 -0.2599  0.6427
 5556TIP3    H116632   6.153   6.091   3.005 -0.0342 -0.3199  0.1833
 5556TIP3    H216633   6.007   6.122   2.978 -0.2474 -0.1136  1.4859
 5557TIP3   OH216634   2.085   5.949   0.246  0.3027 -0.6727 -0.3419
 5557TIP3    H116635   2.072   6.032   0.292 -1.3714 -0.7634 -0.6190
 5557TIP3    H216636   2.082   5.971   0.153 -0.3391 -1.0673 -0.4191
 5558TIP3   OH216637   0.797   4.465   5.356 -0.5850  0.2476  0.2800
 5558TIP3    H116638   0.848   4.503   5.285 -0.1297 -0.3593  0.2764
 5558TIP3    H216639   0.786   4.373   5.331  0.5574 -0.2542  1.5279
 5559TIP3   OH216640   0.016   1.789   0.459  0.1552 -0.6939  0.1275
 5559TIP3    H116641   0.060   1.862   0.502 -0.4380 -1.3770  2.0032
 5559TIP3    H216642   0.087   1.738   0.420  0.6455  0.3592 -0.4112
 5560TIP3   OH216643   1.273   4.665   1.856 -0.5599 -0.4079  0.4920
 5560TIP3    H116644   1.279   4.571   1.868  0.5964 -0.2472  1.3061
 5560TIP3    H216645   1.343   4.701   1.911 -1.8668  1.0037  1.3166
 5561TIP3   OH216646   4.342   3.200   0.622  0.4619 -0.4388  0.1710
 5561TIP3    H116647   4.418   3.217   0.566  0.2077 -0.1845 -0.0950
 5561TIP3    H216648   4.268   3.196   0.562  0.1463  0.1096  0.5106
 5562TIP3   OH216649   1.922   0.750   3.893 -0.0396  0.1783 -0.1416
 5562TIP3    H116650   1.981   0.677   3.873  1.8943  1.9328 -1.2387
 5562TIP3    H216651   1.856   0.712   3.952  0.3205 -2.6435 -1.3939
 5563TIP3   OH216652   6.066   5.916   1.676  0.6174 -0.3530  0.2431
 5563TIP3    H116653   6.028   5.993   1.634 -0.9539 -0.1745  1.8724
 5563TIP3    H216654   6.158   5.918   1.651  0.5990  2.0325  0.1768
 5564TIP3   OH216655   1.240   5.698   4.414 -0.4082  0.2723 -0.1430
 5564TIP3    H116656   1.148   5.704   4.437 -0.6442 -1.9064 -0.3297
 5564TIP3    H216657   1.275   5.629   4.471  0.5856 -0.3929 -1.4805
 5565TIP3   OH216658   0.247   5.753   1.006 -0.1121  0.3135  0.3390
 5565TIP3    H116659   0.332   5.747   1.051 -0.1870  0.6725  0.5318
 5565TIP3    H216660   0.220   5.663   0.995  0.5327  0.1712 -0.1697
 5566TIP3   OH216661   6.208   6.559   2.194  0.0721  0.1712  0.2816
 5566TIP3    H116662   6.151   6.486   2.173  0.5917  0.4594 -2.6317
 5566TIP3    H216663   6.188   6.581   2.285 -1.7615 -2.0553  0.4937
 5567TIP3   OH216664   0.505   5.329   0.536  0.1820 -0.3665  0.0901
 5567TIP3    H116665   0.521   5.407   0.589  1.8075 -1.7166  1.7104
 5567TIP3    H216666   0.558   5.341   0.457  4.1272 -1.6373  2.2785
 5568TIP3   OH216667   3.747   0.678   0.702  0.5303  0.5702 -0.1228
 5568TIP3    H116668   3.752   0.585   0.725  1.4543  1.1051  1.9914
 5568TIP3    H216669   3.838   0.706   0.693  0.2742  1.4070 -0.1785
 5569TIP3   OH216670   2.270   6.589   2.261  0.2473  0.5124 -0.1951
 5569TIP3    H116671   2.247   6.681   2.247 -2.6185  0.2154  1.7161
 5569TIP3    H216672   2.194   6.541   2.227  0.0378 -0.9044  2.0907
 5570TIP3   OH216673   0.819   5.937   4.427 -0.8893 -0.1244  0.0076
 5570TIP3    H116674   0.880   5.940   4.501 -0.2465 -0.9468 -0.4663
 5570TIP3    H216675   0.824   6.024   4.387 -0.6721  0.0806  0.4810
 5571TIP3   OH216676   1.962   4.155   4.924  0.0331 -0.1259 -0.1269
 5571TIP3    H116677   1.960   4.137   5.018  0.6758 -1.8499 -0.4148
 5571TIP3    H216678   1.895   4.222   4.911 -0.3521 -0.1611  1.4885
 5572TIP3   OH216679   0.146   0.025   2.677 -0.4252 -0.2383 -0.0999
 5572TIP3    H116680   0.059  -0.016   2.684 -1.0382  1.0234  0.0984
 5572TIP3    H216681   0.132   0.100   2.619  0.2280  0.7121  0.9276
 5573TIP3   OH216682   5.977   0.956   4.569 -0.3401 -0.5005 -0.3898
 5573TIP3    H116683   6.047   1.020   4.582 -0.8248 -0.1928  0.8669
 5573TIP3    H216684   6.022   0.872   4.558  0.2485 -0.1723 -0.5188
 5574TIP3   OH216685   2.751   3.955   1.110  0.3259  0.1079 -0.1063
 5574TIP3    H116686   2.762   3.994   1.023 -0.1745  0.5197  0.0122
 5574TIP3    H216687   2.840   3.946   1.143  0.4288  3.0350  0.6875
 5575TIP3   OH216688   5.948   5.394   0.037  0.2227  0.1801  0.2307
 5575TIP3    H116689   5.860   5.411   0.001 -0.5547 -0.5999  1.6582
 5575TIP3    H216690   5.946   5.433   0.124  0.6093 -1.4888  1.0245
 5576TIP3   OH216691   2.248   4.192   0.359  0.0457  0.1105  0.5706
 5576TIP3    H116692   2.300   4.111   0.359  0.1044  0.0639 -2.1191
 5576TIP3    H216693   2.302   4.254   0.310 -1.9791  0.3012 -1.5946
 5577TIP3   OH216694   5.174   2.498   5.563 -0.4001  0.1414  0.9254
 5577TIP3    H116695   5.160   2.404   5.557  0.6217 -0.0506  1.3723
 5577TIP3    H216696   5.086   2.536   5.557 -0.8822 -0.8712  1.3692
 5578TIP3   OH216697   5.912   1.755   4.505  0.7853  0.2967 -0.2107
 5578TIP3    H116698   5.896   1.663   4.484 -0.1275  0.2743  0.5589
 5578TIP3    H216699   6.001   1.772   4.472  0.7641 -0.7164 -0.8046
 5579TIP3   OH216700   6.731   0.236   0.779 -0.0319 -0.5861  0.4495
 5579TIP3    H116701   6.713   0.180   0.703 -3.8941  0.4159  0.3900
 5579TIP3    H216702   6.733   0.324   0.743 -0.3840 -0.2241  1.2970
 5580TIP3   OH216703   4.503   0.823   0.068  0.0161  0.6620  0.1096
 5580TIP3    H116704   4.500   0.882   0.143  0.2520  2.2540 -1.0815
 5580TIP3    H216705   4.574   0.857   0.013 -0.4395 -0.1826 -1.0536
 5581TIP3   OH216706   3.267   4.698   2.367  0.2104  0.2820 -0.2118
 5581TIP3    H116707   3.352   4.658   2.346  0.6983  1.2234 -0.0881
 5581TIP3    H216708   3.240   4.739   2.285 -0.2389 -0.1964 -0.3083
 5582TIP3   OH216709   7.171   2.507   3.142 -0.0558  0.2545 -0.1694
 5582TIP3    H116710   7.106   2.554   3.088 -0.5999 -0.8475 -0.5056
 5582TIP3    H216711   7.121   2.437   3.183  1.3921 -2.4829 -2.7214
 5583TIP3   OH216712   5.688   0.916   2.032 -0.6592  0.5877  0.2410
 5583TIP3    H116713   5.719   1.005   2.049  0.0319  0.4169 -0.0854
 5583TIP3    H216714   5.644   0.922   1.947 -0.7493  0.6463  0.2914
 5584TIP3   OH216715   7.100   1.912   4.551  0.0550 -0.3120 -0.0090
 5584TIP3    H116716   7.188   1.942   4.575 -1.1598  2.1187  1.8431
 5584TIP3    H216717   7.062   1.882   4.633 -1.2574 -0.1076 -0.5247
 5585TIP3   OH216718   0.808   1.701   1.765  0.8409 -0.1538 -0.0512
 5585TIP3    H116719   0.815   1.662   1.852  0.6450  0.6157  0.3225
 5585TIP3    H216720   0.802   1.627   1.705  1.0075 -0.6914  0.5898
 5586TIP3   OH216721   1.434   3.538   2.566 -0.4663  0.1407 -0.5394
 5586TIP3    H116722   1.395   3.456   2.534 -0.2925  0.2000 -0.9064
 5586TIP3    H216723   1.478   3.575   2.489  2.8545 -1.3529  0.4769
 5587TIP3   OH216724   2.087   2.382   0.468 -0.1649  0.6925 -0.0135
 5587TIP3    H116725   2.017   2.422   0.415  0.9834  2.8221 -0.0387
 5587TIP3    H216726   2.041   2.344   0.543 -1.5550 -0.0750 -1.1795
 5588TIP3   OH216727   5.365   2.370   5.058 -0.2450 -0.0565  0.2807
 5588TIP3    H116728   5.373   2.298   4.995  0.3832 -0.6369  1.0122
 5588TIP3    H216729   5.301   2.339   5.123 -1.4203  0.8147 -0.4101
 5589TIP3   OH216730   5.915   6.053   4.958 -0.0550  0.4945 -0.5861
 5589TIP3    H116731   5.835   6.091   4.921 -0.0286  1.3649  0.2330
 5589TIP3    H216732   5.964   6.023   4.881 -1.3029 -0.3747 -1.0827
 5590TIP3   OH216733   0.546   2.841   0.780  0.3261  0.5768 -0.2426
 5590TIP3    H116734   0.521   2.831   0.872  3.0625 -1.6277  0.3708
 5590TIP3    H216735   0.614   2.909   0.780 -1.6459  2.7025 -1.1607
 5591TIP3   OH216736   3.402   3.314   0.269 -0.0403 -0.1945 -0.3070
 5591TIP3    H116737   3.378   3.338   0.359  1.0463 -1.9539  0.5139
 5591TIP3    H216738   3.434   3.395   0.230 -1.6783  0.8695  0.4781
 5592TIP3   OH216739   5.995   1.390   5.680  0.5862 -0.0233  0.5875
 5592TIP3    H116740   6.091   1.386   5.688  0.9155  0.8673 -2.0618
 5592TIP3    H216741   5.979   1.414   5.589 -2.0863  2.8465  1.6141
 5593TIP3   OH216742   5.709   4.076   1.137 -0.6311  0.3254  0.1308
 5593TIP3    H116743   5.668   4.000   1.177 -0.3035 -0.2032 -0.5179
 5593TIP3    H216744   5.680   4.075   1.046  2.0450 -1.0492 -0.8314
 5594TIP3   OH216745   3.788   0.669   0.355 -0.0300  0.0412 -0.2838
 5594TIP3    H116746   3.859   0.646   0.295  0.3901  0.2386  0.1245
 5594TIP3    H216747   3.821   0.745   0.403  0.6139 -1.4233  1.7606
 5595TIP3   OH216748   2.407   2.106   4.607 -0.4813 -0.0610 -0.0993
 5595TIP3    H116749   2.330   2.154   4.577 -0.3627 -0.1186 -0.4958
 5595TIP3    H216750   2.374   2.021   4.634 -0.6420  0.1210  0.2858
 5596TIP3   OH216751   5.436   3.104   1.713 -0.3818  0.3118  0.2789
 5596TIP3    H116752   5.439   3.101   1.617 -0.6474  1.1039  0.2410
 5596TIP3    H216753   5.357   3.055   1.735  0.1218 -0.5795  0.1411
 5597TIP3   OH216754   4.891   5.859   5.829 -0.3115 -0.3928  0.4291
 5597TIP3    H116755   4.877   5.886   5.738  0.6557  0.9080  0.6365
 5597TIP3    H216756   4.958   5.919   5.861  0.6294 -1.9669  1.4901
 5598TIP3   OH216757   0.623   6.477   1.302 -0.0478  0.0149  0.4067
 5598TIP3    H116758   0.541   6.437   1.274 -1.5137  1.3462  2.5784
 5598TIP3    H216759   0.600   6.566   1.328  2.2465  0.7054  0.3328
 5599TIP3   OH216760   1.175   0.104   0.436  0.1408  0.0988 -0.2818
 5599TIP3    H116761   1.130   0.026   0.468  2.5151 -1.6769 -0.9756
 5599TIP3    H216762   1.166   0.167   0.507 -0.7837 -1.2131  0.8452
 5600TIP3   OH216763   5.442   5.056   3.474  0.1467 -0.0451  0.0408
 5600TIP3    H116764   5.390   5.135   3.485 -1.6581 -1.3735  1.7970
 5600TIP3    H216765   5.516   5.067   3.533 -0.1957  0.2547  0.4109
 5601TIP3   OH216766   7.081   3.800   1.336 -0.2772  0.5944 -0.2410
 5601TIP3    H116767   7.049   3.793   1.246 -0.2703 -0.1036 -0.2004
 5601TIP3    H216768   7.031   3.733   1.383 -0.3083  0.9838  0.2798
 5602TIP3   OH216769   6.741   1.155   2.736  0.0770  0.0538 -0.1737
 5602TIP3    H116770   6.729   1.230   2.795 -1.2047 -0.2736  0.0146
 5602TIP3    H216771   6.836   1.146   2.729  0.2666  0.6888  1.0889
 5603TIP3   OH216772   6.604   3.107   2.662  0.1102 -0.4152 -0.3291
 5603TIP3    H116773   6.689   3.114   2.705  0.9593 -1.7508 -1.6571
 5603TIP3    H216774   6.545   3.074   2.730  0.8059 -0.0690  0.4515
 5604TIP3   OH216775   4.862   6.083   1.612  0.1675  0.3356 -0.0076
 5604TIP3    H116776   4.830   6.150   1.672  0.0253  0.8134 -0.6022
 5604TIP3    H216777   4.940   6.048   1.654  0.1025  0.7049  0.4278
 5605TIP3   OH216778   5.350   0.348   4.909 -0.0738  0.1828  0.0081
 5605TIP3    H116779   5.336   0.288   4.836  2.0802 -1.6455  0.9397
 5605TIP3    H216780   5.281   0.326   4.972 -0.2159 -0.2708 -0.3036
 5606TIP3   OH216781   0.554   0.911   0.075  0.0549  0.2122 -0.4712
 5606TIP3    H116782   0.470   0.870   0.094  0.8645 -0.7472  1.2116
 5606TIP3    H216783   0.591   0.859   0.005  0.7677 -1.6107  1.1783
 5607TIP3   OH216784   6.079   0.213   3.307  0.5602  0.5449 -0.5318
 5607TIP3    H116785   6.165   0.210   3.348  0.1632  0.9960  0.3573
 5607TIP3    H216786   6.046   0.123   3.312  0.8794  0.4211 -0.6584
 5608TIP3   OH216787   0.323   2.083   3.216  0.2203  0.8827 -0.5797
 5608TIP3    H116788   0.390   2.017   3.235  0.3635  0.5960 -2.0218
 5608TIP3    H216789   0.287   2.057   3.132 -1.2039  1.4586 -0.1766
 5609TIP3   OH216790   1.799   2.804   0.032  0.0190 -0.0857 -0.1785
 5609TIP3    H116791   1.829   2.758  -0.047 -0.8917  1.2267 -1.3388
 5609TIP3    H216792   1.727   2.751   0.065  1.1450 -1.2581  0.4712
 5610TIP3   OH216793   3.846   5.277   0.943  0.0644 -0.8854  0.0488
 5610TIP3    H116794   3.929   5.316   0.918 -0.3059 -0.0709  0.0719
 5610TIP3    H216795   3.802   5.344   0.995 -1.1582 -0.7896 -1.0501
 5611TIP3   OH216796   5.015   4.766   5.205 -0.0634  0.1084  0.6960
 5611TIP3    H116797   4.987   4.827   5.137  0.0672 -1.6192 -0.9889
 5611TIP3    H216798   5.035   4.821   5.280 -0.6943  2.0477 -0.4959
 5612TIP3   OH216799   6.106   6.552   2.491  0.4922  0.2420 -0.4124
 5612TIP3    H116800   6.188   6.530   2.536  0.2706  1.1821  0.4923
 5612TIP3    H216801   6.056   6.470   2.493  0.8137  0.0481  0.3778
 5613TIP3   OH216802   3.192   3.162   4.923 -0.3321  0.0801 -0.6661
 5613TIP3    H116803   3.155   3.100   4.985 -1.0102  0.9882 -0.1267
 5613TIP3    H216804   3.253   3.214   4.976  0.4666 -0.3225 -1.1778
 5614TIP3   OH216805   6.841   3.696   3.903  0.0987  0.2782 -0.5250
 5614TIP3    H116806   6.865   3.671   3.992 -0.9070 -0.0096 -0.3221
 5614TIP3    H216807   6.757   3.742   3.913 -0.4202 -0.4442 -1.3982
 5615TIP3   OH216808   6.151   5.188   1.923 -0.1733 -0.0237  0.1163
 5615TIP3    H116809   6.168   5.183   1.829 -0.8253 -0.4104  0.0049
 5615TIP3    H216810   6.082   5.255   1.932 -0.7279 -0.5959  0.2166
 5616TIP3   OH216811   1.446   0.166   5.265  0.7228 -0.4306 -0.1424
 5616TIP3    H116812   1.361   0.155   5.223  1.1202 -2.2482 -0.5709
 5616TIP3    H216813   1.442   0.108   5.342  1.1110  0.4951  0.5990
 5617TIP3   OH216814   3.027   5.934   0.456  0.3379 -0.4309 -0.2499
 5617TIP3    H116815   3.086   5.999   0.494  1.1946 -1.7808  0.8224
 5617TIP3    H216816   2.939   5.965   0.478  0.6440  1.0471 -0.9465
 5618TIP3   OH216817   4.530   4.267   4.935 -0.3283  0.1904  0.5639
 5618TIP3    H116818   4.504   4.231   4.850  0.1373  0.3853  0.3329
 5618TIP3    H216819   4.594   4.204   4.969  0.7261  0.9274  0.0175
 5619TIP3   OH216820   6.895   3.466   5.342 -0.1886 -1.0795  0.0570
 5619TIP3    H116821   6.862   3.448   5.430 -0.9240 -0.7907 -0.1582
 5619TIP3    H216822   6.820   3.499   5.294  0.8589  1.9827  0.2441
 5620TIP3   OH216823   0.491   1.195   3.193 -0.3250 -0.2404 -0.3747
 5620TIP3    H116824   0.462   1.133   3.259 -0.6981  0.9407  0.6077
 5620TIP3    H216825   0.419   1.259   3.187  1.3884  1.9761  1.1047
 5621TIP3   OH216826   2.563   6.771   4.923  0.1204 -0.1083  0.7468
 5621TIP3    H116827   2.614   6.740   4.998 -1.3240 -0.3759  1.6596
 5621TIP3    H216828   2.611   6.847   4.891  0.6555  0.1471  2.0844
 5622TIP3   OH216829   6.227   2.146   5.360  0.4728  0.4614  0.3789
 5622TIP3    H116830   6.246   2.095   5.438 -0.1034 -0.5980 -0.1460
 5622TIP3    H216831   6.288   2.220   5.363  2.3674 -1.0440  0.4100
 5623TIP3   OH216832   6.145   5.141   2.579 -0.6150 -0.0200  0.2449
 5623TIP3    H116833   6.197   5.098   2.511  0.9317  0.3669  1.1383
 5623TIP3    H216834   6.059   5.098   2.574  0.0233 -1.2569 -0.7207
 5624TIP3   OH216835   1.838   3.369   2.556 -0.3692  0.0543  0.0976
 5624TIP3    H116836   1.908   3.431   2.535  0.4265 -0.8952 -0.1201
 5624TIP3    H216837   1.799   3.403   2.637  0.2860  0.6354  0.1784
 5625TIP3   OH216838   4.666   1.175   4.876  0.4752  0.5162  0.0974
 5625TIP3    H116839   4.616   1.256   4.884 -1.3374 -0.6352  1.3355
 5625TIP3    H216840   4.662   1.136   4.963 -1.4615 -2.3921 -1.1334
 5626TIP3   OH216841   0.147   0.380   1.819 -0.2740  0.7639  0.0624
 5626TIP3    H116842   0.208   0.308   1.828 -1.1154  0.0630  0.2524
 5626TIP3    H216843   0.186   0.452   1.870 -0.3208 -0.1254  1.3937
 5627TIP3   OH216844   6.383   1.652   5.659 -0.0177 -0.1115  0.0886
 5627TIP3    H116845   6.315   1.633   5.594 -0.6646  0.5005  0.5711
 5627TIP3    H216846   6.450   1.586   5.644 -0.6697 -0.6545 -0.4794
 5628TIP3   OH216847   4.508   3.487   2.709 -0.2564  0.0893 -0.1611
 5628TIP3    H116848   4.552   3.407   2.738  2.2115  1.9112  1.5180
 5628TIP3    H216849   4.560   3.518   2.636 -2.1645 -0.5900 -1.9079
 5629TIP3   OH216850   3.397   0.570   0.903 -0.5134  0.1317 -0.4984
 5629TIP3    H116851   3.465   0.505   0.889 -0.8329 -0.6653  1.2967
 5629TIP3    H216852   3.430   0.625   0.974 -0.7479  1.2213 -1.2035
 5630TIP3   OH216853   2.862   6.613   5.327 -0.2960 -0.2829 -0.4695
 5630TIP3    H116854   2.942   6.561   5.326 -0.1194 -0.0057 -0.7572
 5630TIP3    H216855   2.845   6.633   5.236 -0.1371  0.5026 -0.3329
 5631TIP3   OH216856   1.707   0.198   1.547 -0.0896  0.1959  0.1478
 5631TIP3    H116857   1.722   0.260   1.475 -0.5204  0.1402  0.0068
 5631TIP3    H216858   1.764   0.124   1.526 -0.2001  0.1862 -0.1319
 5632TIP3   OH216859   4.585   4.060   4.530 -0.1904 -0.0373 -0.3435
 5632TIP3    H116860   4.611   4.049   4.622 -0.2753 -0.4953 -0.3741
 5632TIP3    H216861   4.499   4.101   4.534 -0.3928 -0.4666 -0.2083
 5633TIP3   OH216862   0.107   4.493   2.505  0.2469 -0.4618  0.7301
 5633TIP3    H116863   0.054   4.525   2.431  0.6362  0.7746  0.9728
 5633TIP3    H216864   0.073   4.405   2.521 -1.0085 -0.1063  0.1841
 5634TIP3   OH216865   1.896   3.865   3.491 -0.3989  0.1442  0.0397
 5634TIP3    H116866   1.804   3.838   3.501 -0.1011 -0.2749  2.0921
 5634TIP3    H216867   1.904   3.942   3.547  0.5925 -0.0398  0.1585
 5635TIP3   OH216868   6.845   0.314   1.429 -0.4149 -0.3315 -0.3307
 5635TIP3    H116869   6.761   0.299   1.386  0.1460 -2.0624 -0.8902
 5635TIP3    H216870   6.899   0.356   1.362 -0.3181 -0.7188 -0.4922
 5636TIP3   OH216871   5.140   6.420   2.792 -0.0625  0.0906  0.4844
 5636TIP3    H116872   5.155   6.497   2.736  0.3731 -0.2636  0.1053
 5636TIP3    H216873   5.157   6.345   2.735 -1.1296 -0.3089  0.6699
 5637TIP3   OH216874   5.272   3.079   0.039 -0.7310 -0.1282 -0.1150
 5637TIP3    H116875   5.178   3.089   0.021 -0.6345  2.5445  0.4718
 5637TIP3    H216876   5.288   3.133   0.116  1.5315  0.5364 -0.9612
 5638TIP3   OH216877   3.477   5.831   1.999  0.7107  0.1795 -0.6770
 5638TIP3    H116878   3.543   5.900   1.995  0.5373  0.3043 -1.6480
 5638TIP3    H216879   3.402   5.867   1.952  0.2187 -0.2570 -0.2459
 5639TIP3   OH216880   7.152   5.343   2.647  0.2050 -0.0620  0.5368
 5639TIP3    H116881   7.206   5.320   2.723 -2.0243  0.7643  2.4945
 5639TIP3    H216882   7.183   5.430   2.621  1.2513 -0.5188  0.2368
 5640TIP3   OH216883   2.651   1.340   0.885  0.2080  0.3969  0.4263
 5640TIP3    H116884   2.684   1.285   0.813  1.1188 -0.0317  1.1567
 5640TIP3    H216885   2.638   1.426   0.845 -1.8137 -0.4546 -0.8879
 5641TIP3   OH216886   6.434   6.466   4.619  0.0619 -0.1138 -0.1911
 5641TIP3    H116887   6.466   6.547   4.580 -0.2467  0.3353  0.4681
 5641TIP3    H216888   6.383   6.494   4.695  0.7078 -0.9713  0.5781
 5642TIP3   OH216889   4.381   2.150   4.359  0.2892 -0.1366  0.2196
 5642TIP3    H116890   4.422   2.076   4.403 -0.2336 -0.2869  0.4672
 5642TIP3    H216891   4.452   2.213   4.346  0.3535  0.1604  1.8084
 5643TIP3   OH216892   1.475   6.660   5.194 -0.1485  0.6393  0.0051
 5643TIP3    H116893   1.485   6.637   5.101  0.8195 -1.6007  0.5878
 5643TIP3    H216894   1.557   6.703   5.217  0.6158 -0.9208  0.3331
 5644TIP3   OH216895   1.563   6.354   3.344  0.4131 -0.4259  0.2569
 5644TIP3    H116896   1.512   6.433   3.326  1.5688 -0.1500 -2.2036
 5644TIP3    H216897   1.497   6.287   3.362 -0.7030  0.5257 -0.1326
 5645TIP3   OH216898   5.806   4.895   2.580  0.6277 -0.1264  0.5074
 5645TIP3    H116899   5.771   4.984   2.586  0.1622 -0.2245 -0.5188
 5645TIP3    H216900   5.730   4.841   2.558  1.3949 -0.2809 -2.1878
 5646TIP3   OH216901   1.857   5.924   5.734 -0.3863  0.3488 -0.2680
 5646TIP3    H116902   1.894   5.984   5.670 -1.1384 -1.1883 -2.2329
 5646TIP3    H216903   1.779   5.888   5.692 -0.1236 -1.7847  0.8931
 5647TIP3   OH216904   4.646   2.221   3.713 -0.3254  0.0263 -0.0108
 5647TIP3    H116905   4.667   2.186   3.800  1.2562  2.4714  0.7014
 5647TIP3    H216906   4.575   2.283   3.729  0.8997  1.5260 -0.1540
 5648TIP3   OH216907   0.971   5.135   2.418 -0.6166  0.4339 -0.2370
 5648TIP3    H116908   1.042   5.136   2.353 -0.4762  0.4716 -0.0837
 5648TIP3    H216909   1.013   5.106   2.499 -0.8137  0.2915 -0.1872
 5649TIP3   OH216910   0.547   6.789   5.845  0.0511  0.5733  0.1376
 5649TIP3    H116911   0.625   6.746   5.881 -0.6272 -1.4967 -0.7151
 5649TIP3    H216912   0.541   6.756   5.755 -1.9345  0.4699  0.2701
 5650TIP3   OH216913   6.921   3.607   3.142 -0.5501  0.1532 -0.0393
 5650TIP3    H116914   6.830   3.634   3.149 -0.4485  0.7243 -0.8248
 5650TIP3    H216915   6.942   3.617   3.049  0.4295  0.4012  0.1997
 5651TIP3   OH216916   0.934   3.963   4.063  0.3060  0.3689 -0.0028
 5651TIP3    H116917   0.991   3.891   4.089  2.1323  1.3220 -1.0857
 5651TIP3    H216918   0.894   3.934   3.982 -0.2038 -0.0181  0.3789
 5652TIP3   OH216919   2.186   5.391   3.988  0.4639 -0.1624  0.4211
 5652TIP3    H116920   2.151   5.340   4.062 -1.4389 -0.1533 -0.3991
 5652TIP3    H216921   2.119   5.458   3.972  1.4339  0.6096 -0.5418
 5653TIP3   OH216922   6.302   3.590   1.678  0.1291  0.7724 -0.0835
 5653TIP3    H116923   6.291   3.541   1.759  0.4229  1.0921  0.1522
 5653TIP3    H216924   6.222   3.573   1.629  0.2706 -0.0356 -0.0582
 5654TIP3   OH216925   6.856   4.446   5.350  0.3495 -0.2262  0.0255
 5654TIP3    H116926   6.938   4.490   5.371  0.0998  0.4971 -0.4520
 5654TIP3    H216927   6.879   4.382   5.283  0.2474  1.3056 -1.5715
 5655TIP3   OH216928   1.748   6.356   5.533  0.3755  0.6467 -0.2024
 5655TIP3    H116929   1.689   6.303   5.480  0.4792  1.1932 -0.8788
 5655TIP3    H216930   1.715   6.446   5.523  0.4551  0.7686  0.5814
 5656TIP3   OH216931   4.677   3.628   5.599 -0.8411  0.1168 -0.3931
 5656TIP3    H116932   4.722   3.704   5.637 -2.7896  0.4160  1.5093
 5656TIP3    H216933   4.737   3.596   5.532  1.0981  1.8987  0.3756
 5657TIP3   OH216934   3.824   0.382   2.361 -0.7349 -0.1072  0.7436
 5657TIP3    H116935   3.910   0.410   2.330 -0.5561 -1.7637 -0.4176
 5657TIP3    H216936   3.763   0.442   2.319 -0.3678 -1.2612 -1.6810
 5658TIP3   OH216937   3.893   6.611   4.008 -0.3032 -0.0376  0.4695
 5658TIP3    H116938   3.850   6.561   3.939  2.6027 -0.5154 -1.1930
 5658TIP3    H216939   3.882   6.557   4.086 -2.1475 -0.3819  0.0207
 5659TIP3   OH216940   5.377   0.098   2.484 -0.0112 -0.0388  0.0357
 5659TIP3    H116941   5.390   0.187   2.453 -0.5083 -0.3193 -1.0075
 5659TIP3    H216942   5.418   0.097   2.571 -0.3943  1.3215  0.2580
 5660TIP3   OH216943   1.547   0.508   4.289 -0.2826 -0.1340  0.6019
 5660TIP3    H116944   1.587   0.426   4.258 -1.6962 -0.4479 -0.5038
 5660TIP3    H216945   1.620   0.569   4.297  0.6922 -1.2745  0.6532
 5661TIP3   OH216946   7.049   2.616   4.705  0.2026  0.3496 -0.1994
 5661TIP3    H116947   7.110   2.562   4.754  0.0205 -1.2761 -1.6479
 5661TIP3    H216948   7.092   2.701   4.698  1.1958 -0.0422  0.8506
 5662TIP3   OH216949   4.105   1.883   1.177 -0.3467  0.3039  1.0103
 5662TIP3    H116950   4.076   1.893   1.086 -0.9235  0.4893  1.2091
 5662TIP3    H216951   4.051   1.812   1.211 -0.5636  0.6464  1.3836
 5663TIP3   OH216952   0.923   1.935   4.247 -0.5026  0.5461  0.0575
 5663TIP3    H116953   0.870   1.955   4.323 -0.5352  0.6512  0.0069
 5663TIP3    H216954   0.898   1.845   4.223  0.2002  0.1502  0.7440
 5664TIP3   OH216955   1.205   3.313   2.218  0.3109 -0.4403  0.0785
 5664TIP3    H116956   1.149   3.375   2.172  1.3005 -0.3703 -1.0593
 5664TIP3    H216957   1.199   3.340   2.310 -0.6468  0.2315 -0.1598
 5665TIP3   OH216958   6.778   4.033   2.660 -0.3952  0.6895  0.4455
 5665TIP3    H116959   6.769   4.001   2.750 -0.5113  0.2317  0.2729
 5665TIP3    H216960   6.863   4.001   2.632 -0.5228  0.5082  0.2631
 5666TIP3   OH216961   3.046   1.971   4.573  0.4755 -0.2167  0.0455
 5666TIP3    H116962   2.985   2.044   4.587  1.0995 -0.0763  2.4480
 5666TIP3    H216963   3.007   1.921   4.501 -1.9981  0.3918  0.8643
 5667TIP3   OH216964   5.303   1.259   4.208 -0.6240  0.4272  0.2536
 5667TIP3    H116965   5.347   1.330   4.255  0.3857  0.8725 -1.3035
 5667TIP3    H216966   5.373   1.217   4.157 -1.6065 -0.2851 -0.5476
 5668TIP3   OH216967   3.000   3.230   2.451  0.2142 -0.4351 -0.7072
 5668TIP3    H116968   3.053   3.307   2.470 -0.5573  0.3566 -1.6050
 5668TIP3    H216969   2.911   3.257   2.475  0.0210 -1.2706 -0.4645
 5669TIP3   OH216970   0.560   0.773   4.294 -0.1642  0.1764  0.1452
 5669TIP3    H116971   0.574   0.831   4.220  2.3045 -0.2944  0.1565
 5669TIP3    H216972   0.555   0.685   4.255  1.0235 -0.0605  0.4745
 5670TIP3   OH216973   2.776   1.097   1.014  0.9103 -0.3639  0.3477
 5670TIP3    H116974   2.855   1.109   0.962  0.4325 -3.2989 -1.3184
 5670TIP3    H216975   2.797   1.025   1.074  0.4744  0.9586  2.1507
 5671TIP3   OH216976   2.916   2.832   4.716  0.3233  0.0359  0.6434
 5671TIP3    H116977   3.002   2.820   4.675  0.1122  0.0207  0.2082
 5671TIP3    H216978   2.876   2.745   4.714 -0.1735  0.2765 -0.2130
 5672TIP3   OH216979   3.945   4.646   1.784  0.2641  0.1616 -0.6570
 5672TIP3    H116980   3.972   4.642   1.692  2.2849  1.3253 -0.1754
 5672TIP3    H216981   3.979   4.730   1.815 -0.2559 -0.2810  1.1886
 5673TIP3   OH216982   5.018   3.883   2.803 -0.6194  0.5800  0.2743
 5673TIP3    H116983   4.991   3.960   2.753 -0.9861 -0.0232 -0.4693
 5673TIP3    H216984   4.936   3.846   2.835 -0.5066 -0.0108 -0.1245
 5674TIP3   OH216985   3.095   4.994   2.977 -0.1170 -0.5935 -0.4787
 5674TIP3    H116986   3.026   5.049   3.014 -0.8850 -1.0962 -1.0998
 5674TIP3    H216987   3.115   4.931   3.046 -0.0475 -0.2375 -0.1731
 5675TIP3   OH216988   5.529   3.211   1.303 -0.0191  0.3991  0.2705
 5675TIP3    H116989   5.448   3.204   1.254  0.8071  0.1255 -1.1185
 5675TIP3    H216990   5.553   3.304   1.297  1.2286  0.0088 -1.8614
 5676TIP3   OH216991   2.535   6.593   1.707  0.1235  0.0619  0.7900
 5676TIP3    H116992   2.486   6.646   1.770 -0.3776  0.5119  0.0341
 5676TIP3    H216993   2.515   6.631   1.622  1.4171 -0.0497  0.4132
 5677TIP3   OH216994   2.790   6.210   2.736  0.5926 -0.1308  0.2666
 5677TIP3    H116995   2.732   6.211   2.660  0.3315  0.2550  0.4643
 5677TIP3    H216996   2.785   6.300   2.771  2.0901  0.2092 -0.3006
 5678TIP3   OH216997   3.680   4.404   4.360 -0.2411  0.3541 -0.3489
 5678TIP3    H116998   3.716   4.461   4.428  2.1287 -2.7527  1.2346
 5678TIP3    H216999   3.742   4.411   4.288 -0.9751  1.1250 -0.9300
 5679TIP3   OH217000   4.877   0.148   5.588  0.3387 -0.2197 -0.0988
 5679TIP3    H117001   4.891   0.166   5.681  0.5460  0.2305 -0.2131
 5679TIP3    H217002   4.850   0.057   5.585 -0.9240  0.1123  0.5214
 5680TIP3   OH217003   7.094   3.175   3.255 -0.4121  0.1781  0.9535
 5680TIP3    H117004   7.016   3.221   3.225  0.3085 -0.2564 -1.9163
 5680TIP3    H217005   7.166   3.217   3.208  0.6580 -1.6423  0.8529
 5681TIP3   OH217006   4.362   0.658   2.970 -0.3081 -0.1520 -0.0975
 5681TIP3    H117007   4.354   0.684   3.061 -3.6814 -1.8439  0.2353
 5681TIP3    H217008   4.301   0.715   2.923 -0.6122 -1.0783 -0.8516
 5682TIP3   OH217009   4.735   3.950   3.652  0.2529 -0.2795  0.0767
 5682TIP3    H117010   4.808   4.005   3.623 -1.1406  1.8456  0.4387
 5682TIP3    H217011   4.680   4.007   3.705 -2.0676 -1.6147 -0.7382
 5683TIP3   OH217012   4.025   2.873   3.486  0.0143  0.2359  0.2364
 5683TIP3    H117013   4.095   2.921   3.529  1.0498 -0.9607 -0.0572
 5683TIP3    H217014   3.987   2.935   3.424  2.0082  0.3931 -0.8922
 5684TIP3   OH217015   6.132   1.598   4.389 -0.0433 -0.2303  0.2114
 5684TIP3    H117016   6.118   1.528   4.453  0.2111 -1.1054 -0.6678
 5684TIP3    H217017   6.226   1.612   4.388 -0.1569  0.7085  0.9659
 5685TIP3   OH217018   6.766   0.276   4.128 -0.3269 -0.0275 -0.3024
 5685TIP3    H117019   6.684   0.285   4.078 -0.4821  0.1642 -0.0184
 5685TIP3    H217020   6.737   0.264   4.218 -0.0262  0.5751 -0.1240
 5686TIP3   OH217021   3.260   1.490   4.191  0.3915  1.0399 -0.0116
 5686TIP3    H117022   3.218   1.546   4.256  1.6196  1.5677  0.3603
 5686TIP3    H217023   3.252   1.537   4.109  0.4504  1.2427  0.0989
 5687TIP3   OH217024   0.151   0.781   1.102  0.1022  0.3701 -0.6434
 5687TIP3    H117025   0.170   0.838   1.177 -0.7400  0.3212 -0.3761
 5687TIP3    H217026   0.233   0.734   1.087 -0.2223 -1.0374  1.4920
 5688TIP3   OH217027   5.163   5.781   4.463  0.0740 -0.6626  0.0304
 5688TIP3    H117028   5.117   5.735   4.533 -1.3287 -1.2231 -1.1990
 5688TIP3    H217029   5.250   5.743   4.462 -0.1787 -1.3013  0.8749
 5689TIP3   OH217030   7.082   2.911   1.871  0.4045  0.2635  0.1709
 5689TIP3    H117031   6.997   2.873   1.849 -0.3012  2.1323 -0.4735
 5689TIP3    H217032   7.121   2.934   1.787  1.4061 -0.1870  0.4834
 5690TIP3   OH217033   5.565   1.256   5.583  0.0315  0.5092  0.6930
 5690TIP3    H117034   5.641   1.245   5.527  0.1723 -1.0110  1.1414
 5690TIP3    H217035   5.490   1.253   5.523  0.2903  1.5427  0.3071
 5691TIP3   OH217036   4.213   2.069   1.984 -0.0854 -0.1744  0.2639
 5691TIP3    H117037   4.134   2.024   1.956 -0.5673 -0.1235  1.4895
 5691TIP3    H217038   4.284   2.007   1.964 -0.2902  0.1576 -1.6973
 5692TIP3   OH217039   2.674   4.064   3.077 -0.8219 -0.2639  0.1569
 5692TIP3    H117040   2.591   4.018   3.090 -1.6695  1.3501  0.7792
 5692TIP3    H217041   2.736   4.017   3.132 -1.8764 -0.1190  1.5262
 5693TIP3   OH217042   4.170   2.836   4.995 -0.2057 -0.3232 -0.1246
 5693TIP3    H117043   4.156   2.757   5.046  0.0179 -0.1840  0.1570
 5693TIP3    H217044   4.084   2.857   4.958 -0.3710 -0.4117  0.2106
 5694TIP3   OH217045   4.497   2.088   1.757  0.1731  0.3103 -0.3153
 5694TIP3    H117046   4.474   1.998   1.778 -0.1023  0.3320 -0.5165
 5694TIP3    H217047   4.498   2.092   1.662  0.7741  0.3747 -0.3124
 5695TIP3   OH217048   1.783   3.067   2.288  0.2897 -0.1424 -0.5808
 5695TIP3    H117049   1.788   3.159   2.263 -0.4406 -0.0299 -0.3211
 5695TIP3    H217050   1.875   3.038   2.289  0.4340  0.2356 -1.8811
 5696TIP3   OH217051   3.231   1.127   0.185 -0.5599  0.5689 -0.8186
 5696TIP3    H117052   3.299   1.117   0.118  1.3323 -0.0002  1.0839
 5696TIP3    H217053   3.271   1.184   0.251 -1.1814 -1.2453  1.2430
 5697TIP3   OH217054   3.019   3.246   5.494 -0.1582  0.1246  0.1007
 5697TIP3    H117055   2.987   3.207   5.575  0.6467 -0.9746 -0.0934
 5697TIP3    H217056   3.114   3.240   5.500 -0.0649  0.6557 -0.6330
 5698TIP3   OH217057   6.201   3.872   1.010  0.1144  0.2500 -0.0976
 5698TIP3    H117058   6.213   3.817   1.088  1.1054 -0.0947 -0.4805
 5698TIP3    H217059   6.146   3.819   0.952  1.3202 -0.5023 -0.5954
 5699TIP3   OH217060   4.245   4.249   5.138 -0.1976 -0.1625  0.4800
 5699TIP3    H117061   4.305   4.271   5.067 -0.3840 -0.6396  0.1694
 5699TIP3    H217062   4.225   4.333   5.180  1.1279 -0.0641  0.9537
 5700TIP3   OH217063   6.451   2.712   1.856 -0.2665 -0.6444  0.6371
 5700TIP3    H117064   6.509   2.774   1.811 -0.6960 -0.6048  0.1315
 5700TIP3    H217065   6.363   2.746   1.840 -0.3997 -0.1691  2.2109
 5701TIP3   OH217066   1.031   4.566   5.815 -0.2765 -0.1100 -0.0005
 5701TIP3    H117067   0.978   4.645   5.806  0.0354  0.0215 -0.7115
 5701TIP3    H217068   0.979   4.497   5.772  0.1418  0.0289 -0.7407
 5702TIP3   OH217069   0.903   3.056   3.946 -0.2569 -0.6395 -0.0768
 5702TIP3    H117070   0.954   3.015   4.017 -0.5855 -1.3696 -0.2545
 5702TIP3    H217071   0.913   2.997   3.872  2.0898  1.2865 -1.4501
 5703TIP3   OH217072   2.312   1.754   5.633  0.2709 -0.4441  0.4679
 5703TIP3    H117073   2.302   1.739   5.727  2.0534  2.6195  1.2994
 5703TIP3    H217074   2.404   1.732   5.615  0.1037 -0.4512 -0.4277
 5704TIP3   OH217075   0.467   5.064   1.311  0.3841  0.2687  0.3937
 5704TIP3    H117076   0.560   5.072   1.330  0.3588  0.6233  0.3803
 5704TIP3    H217077   0.424   5.077   1.396  0.2959  1.3181  0.2109
 5705TIP3   OH217078   4.339   0.543   5.200  0.2684 -0.3664 -0.6700
 5705TIP3    H117079   4.404   0.478   5.175  0.0834 -1.1082  0.6666
 5705TIP3    H217080   4.320   0.591   5.119  0.9509 -1.4871 -1.5232
 5706TIP3   OH217081   7.069   6.786   2.097 -0.0128  0.0890 -0.3278
 5706TIP3    H117082   6.990   6.761   2.146  1.3876 -0.3867  1.8429
 5706TIP3    H217083   7.041   6.788   2.006 -3.2107  2.4977  0.5018
 5707TIP3   OH217084   2.724   6.452   3.825 -0.2394 -0.3877 -1.4946
 5707TIP3    H117085   2.664   6.514   3.784 -2.8305 -1.5698  0.2715
 5707TIP3    H217086   2.721   6.375   3.767 -1.2382 -0.8100 -0.8949
 5708TIP3   OH217087   3.847   2.853   3.092  0.3338  0.4713  0.0351
 5708TIP3    H117088   3.800   2.840   3.010 -0.8704  0.0546  0.7581
 5708TIP3    H217089   3.901   2.774   3.101 -0.2743  0.0535  0.1041
 5709TIP3   OH217090   3.009   6.430   1.761  0.6379 -0.0782 -0.4882
 5709TIP3    H117091   3.013   6.368   1.833 -1.5469  0.8606  0.5157
 5709TIP3    H217092   3.010   6.516   1.803  1.3013  0.5411 -1.7101
 5710TIP3   OH217093   4.527   5.861   0.098 -0.0829 -0.1886  0.0788
 5710TIP3    H117094   4.618   5.881   0.120  0.1095 -0.6911 -0.2647
 5710TIP3    H217095   4.518   5.767   0.113 -0.6878 -0.0580  0.6010
 5711TIP3   OH217096   3.264   2.229   4.497  0.0389 -0.1722 -0.4930
 5711TIP3    H117097   3.231   2.190   4.416 -0.0851 -0.1880 -0.4353
 5711TIP3    H217098   3.356   2.250   4.478 -0.5183  1.7056 -1.3370
 5712TIP3   OH217099   6.725   6.457   0.943  0.4291  0.4071  0.0889
 5712TIP3    H117100   6.785   6.499   0.881  0.8603  0.7517  0.7321
 5712TIP3    H217101   6.780   6.401   0.997 -0.1099 -0.8275 -0.5871
 5713TIP3   OH217102   1.549   4.799   1.366 -0.0119  0.1355  0.1199
 5713TIP3    H117103   1.459   4.773   1.345 -0.1480  1.0777 -0.5052
 5713TIP3    H217104   1.544   4.893   1.382  0.9706  0.3110 -0.5619
 5714TIP3   OH217105   4.077   1.689   3.855 -0.5628 -0.3112  0.2650
 5714TIP3    H117106   4.023   1.767   3.867 -2.2728 -1.2605 -0.8322
 5714TIP3    H217107   4.158   1.722   3.816 -1.5634  0.8823 -0.9388
 5715TIP3   OH217108   1.253   0.142   3.941  0.1486 -0.1203  1.1190
 5715TIP3    H117109   1.343   0.113   3.956  0.1352  0.4327  2.3700
 5715TIP3    H217110   1.202   0.098   4.008 -0.1570  1.2381  1.8195
 5716TIP3   OH217111   4.353   1.609   0.630 -0.4251 -0.2213  0.6055
 5716TIP3    H117112   4.419   1.642   0.690  1.1043 -1.1834 -0.4905
 5716TIP3    H217113   4.386   1.523   0.603 -1.3173 -0.0246 -1.2137
 5717TIP3   OH217114   1.059   4.587   1.261  0.0856  0.5721  0.1119
 5717TIP3    H117115   1.011   4.516   1.304 -0.0233 -0.6313 -1.8847
 5717TIP3    H217116   1.035   4.666   1.310  1.0775 -0.8581  3.1273
 5718TIP3   OH217117   4.861   0.355   3.156 -0.5301 -0.1434 -0.1087
 5718TIP3    H117118   4.873   0.280   3.214  1.2090 -0.4597 -0.8242
 5718TIP3    H217119   4.903   0.428   3.201 -1.0241  0.1035 -0.0355
 5719TIP3   OH217120   3.106   2.075   4.967  0.0977  1.0094  0.2940
 5719TIP3    H117121   3.092   2.116   4.881  1.3065 -1.0966 -0.9893
 5719TIP3    H217122   3.200   2.063   4.973 -0.0770  0.0619  1.4038
 5720TIP3   OH217123   0.307   4.652   3.357 -0.2440  0.2803 -0.5655
 5720TIP3    H117124   0.258   4.571   3.376 -2.8800  1.7267 -0.6384
 5720TIP3    H217125   0.381   4.623   3.304 -0.8020 -2.1563 -0.1465
 5721TIP3   OH217126   0.108   6.325   3.829  0.5781 -0.0699  0.4716
 5721TIP3    H117127   0.170   6.381   3.782 -0.2901 -1.1637 -2.1683
 5721TIP3    H217128   0.022   6.364   3.813  0.1650 -1.0018  0.3475
 5722TIP3   OH217129   4.255   6.311   1.409  0.4105  0.6976  0.0377
 5722TIP3    H117130   4.279   6.314   1.317 -2.6923  1.5286 -0.8577
 5722TIP3    H217131   4.212   6.226   1.421  1.8957  0.0497  1.0868
 5723TIP3   OH217132   6.445   0.539   1.408 -0.2005  0.1941 -0.6838
 5723TIP3    H117133   6.490   0.608   1.457  0.4457 -0.2245 -0.6614
 5723TIP3    H217134   6.406   0.584   1.334 -1.4813  0.8976  0.3788
 5724TIP3   OH217135   4.753   6.075   5.537  0.1800  0.5009 -0.2403
 5724TIP3    H117136   4.710   6.091   5.621  0.4415  1.1853 -0.2356
 5724TIP3    H217137   4.688   6.025   5.487 -0.2293  0.6559  0.1281
 5725TIP3   OH217138   0.728   5.864   5.692 -0.6540 -0.7349 -0.1367
 5725TIP3    H117139   0.801   5.854   5.631 -1.7014 -1.7782 -1.2826
 5725TIP3    H217140   0.684   5.944   5.664  0.1890  0.0702  0.7533
 5726TIP3   OH217141   4.457   3.868   1.978 -0.1503 -0.0237  0.1614
 5726TIP3    H117142   4.405   3.949   1.983 -0.8643 -0.5172  0.9798
 5726TIP3    H217143   4.503   3.875   1.895  1.1982  2.0552  1.0036
 5727TIP3   OH217144   2.565   3.799   5.342 -0.2438 -0.3433 -0.4014
 5727TIP3    H117145   2.497   3.860   5.312 -0.5905 -0.8581 -0.6773
 5727TIP3    H217146   2.540   3.778   5.432 -1.3152 -1.6959 -0.9801
 5728TIP3   OH217147   5.862   4.995   3.505 -0.9465 -0.1440  0.1387
 5728TIP3    H117148   5.869   4.989   3.410 -0.1305  1.1507  0.0933
 5728TIP3    H217149   5.803   5.069   3.521 -2.6563 -1.5337  0.6687
 5729TIP3   OH217150   1.854   3.153   1.965 -0.2791 -0.4290 -0.1189
 5729TIP3    H117151   1.900   3.230   1.999 -0.5454 -0.7960  1.1189
 5729TIP3    H217152   1.916   3.081   1.973 -0.5341 -0.6262  0.1163
 5730TIP3   OH217153   3.149   2.949   5.671 -0.3217  0.3503 -0.0248
 5730TIP3    H117154   3.168   3.041   5.654  1.0408  0.2178  0.6157
 5730TIP3    H217155   3.064   2.950   5.715 -0.0122  1.3729  0.5918
 5731TIP3   OH217156   3.839   6.510   1.704  0.2058  0.6348 -0.1830
 5731TIP3    H117157   3.770   6.569   1.672  0.0742 -0.2165 -1.5815
 5731TIP3    H217158   3.917   6.565   1.708  0.3539  0.7145 -2.5622
 5732TIP3   OH217159   0.153   1.103   3.825  0.2191 -0.4256 -0.0165
 5732TIP3    H117160   0.203   1.034   3.870 -1.1371 -1.5854 -0.2243
 5732TIP3    H217161   0.062   1.087   3.850 -0.2890  0.4010 -1.2465
 5733TIP3   OH217162   2.084   6.014   2.278  0.0507 -0.4197  0.6060
 5733TIP3    H117163   2.111   6.017   2.187 -0.4301 -2.3583  0.3660
 5733TIP3    H217164   2.101   6.103   2.311  2.3351 -0.2791 -0.7314
 5734TIP3   OH217165   2.683   1.282   0.585 -0.1482  0.4747  0.0223
 5734TIP3    H117166   2.611   1.224   0.611 -1.4103  0.7109 -2.6378
 5734TIP3    H217167   2.647   1.370   0.595  0.0143  0.6182 -0.6334
 5735TIP3   OH217168   6.507   2.241   3.892 -0.2739  0.5015  0.2430
 5735TIP3    H117169   6.451   2.204   3.960 -1.6673  0.8952 -0.6431
 5735TIP3    H217170   6.557   2.309   3.936  0.0082 -0.2991  1.1981
 5736TIP3   OH217171   5.594   3.213   5.112 -0.1253  0.8521 -0.3066
 5736TIP3    H117172   5.544   3.190   5.190  0.4548 -0.4975 -0.3115
 5736TIP3    H217173   5.619   3.305   5.127 -2.2162  1.4530 -0.1297
 5737TIP3   OH217174   6.618   4.723   1.198  0.5652 -0.2058 -0.6446
 5737TIP3    H117175   6.523   4.714   1.210  0.3232  2.0342 -0.3707
 5737TIP3    H217176   6.652   4.733   1.286  0.4756  2.9261 -0.8313
 5738TIP3   OH217177   0.570   2.578   1.960 -0.3191 -0.1560  0.6518
 5738TIP3    H117178   0.656   2.547   1.931 -0.1932 -0.3410  1.2251
 5738TIP3    H217179   0.509   2.539   1.897 -0.1528 -1.4642  1.2726
 5739TIP3   OH217180   2.198   6.547   4.912  0.3487 -0.1918 -0.2191
 5739TIP3    H117181   2.243   6.514   4.990  1.0646 -0.0383 -0.5536
 5739TIP3    H217182   2.218   6.482   4.844  0.5577  0.1831 -0.5194
 5740TIP3   OH217183   3.412   0.507   0.019 -0.1453  0.3429 -0.4620
 5740TIP3    H117184   3.399   0.422  -0.025  0.3324  0.6714 -1.2735
 5740TIP3    H217185   3.324   0.536   0.041 -0.2672 -0.7293  0.5497
 5741TIP3   OH217186   2.671   1.907   1.486  0.0181  0.2454 -0.1361
 5741TIP3    H117187   2.642   1.945   1.569 -1.9215  0.3375 -0.7856
 5741TIP3    H217188   2.738   1.967   1.453  0.9188  0.1208  1.4114
 5742TIP3   OH217189   0.385   5.013   1.034  0.2155 -0.6126  0.1411
 5742TIP3    H117190   0.425   5.090   1.075  0.3510 -0.8238  0.4060
 5742TIP3    H217191   0.314   5.049   0.981 -1.6092 -0.5095  2.4957
 5743TIP3   OH217192   4.580   4.554   0.558  0.3037 -0.0201  0.0568
 5743TIP3    H117193   4.639   4.568   0.484 -0.7657 -0.2464 -0.8695
 5743TIP3    H217194   4.549   4.642   0.579 -0.3798 -0.0865 -0.6250
 5744TIP3   OH217195   4.322   4.067   3.525  0.3544 -0.0483 -0.5514
 5744TIP3    H117196   4.230   4.041   3.522  0.3067 -0.9981  3.6256
 5744TIP3    H217197   4.369   3.995   3.482 -0.6249 -1.6228  0.8874
 5745TIP3   OH217198   4.838   3.053   0.078  0.1738 -0.5769 -0.5048
 5745TIP3    H117199   4.892   3.068   0.155 -0.7045  0.3976 -0.0491
 5745TIP3    H217200   4.890   3.087   0.005 -0.4187  1.9301  0.1218
 5746TIP3   OH217201   6.496   2.480   1.984 -0.4109  0.4255  0.1641
 5746TIP3    H117202   6.406   2.491   2.015 -1.2304  0.0148 -1.9034
 5746TIP3    H217203   6.507   2.549   1.919  0.5399  0.0401 -0.0992
 5747TIP3   OH217204   1.289   1.339   3.095  0.5186 -0.0679 -0.3353
 5747TIP3    H117205   1.377   1.301   3.095  1.0915  1.1111 -2.6930
 5747TIP3    H217206   1.248   1.304   3.016 -0.8119  0.1495  0.2333
 5748TIP3   OH217207   0.086   5.511   4.386 -0.5571 -0.1794 -0.1234
 5748TIP3    H117208   0.062   5.432   4.434  1.2778 -0.1941  0.8243
 5748TIP3    H217209   0.157   5.549   4.436 -0.8691  1.6681 -1.0023
 5749TIP3   OH217210   7.114   5.621   2.672 -0.0637  0.7929 -0.0666
 5749TIP3    H117211   7.100   5.680   2.746  0.0442  0.1624  0.4562
 5749TIP3    H217212   7.056   5.655   2.604 -0.3402  1.2363  0.3834
 5750TIP3   OH217213   1.656   1.568   2.157 -0.0336  0.4255  0.5132
 5750TIP3    H117214   1.737   1.588   2.204 -1.0328  0.3276  2.3765
 5750TIP3    H217215   1.610   1.652   2.151  0.3023  0.5327 -0.7793
 5751TIP3   OH217216   1.470   6.046   3.138  0.2906  0.2434 -0.3318
 5751TIP3    H117217   1.456   6.052   3.043 -0.8004  1.8755 -0.1096
 5751TIP3    H217218   1.388   6.077   3.176  1.3989  1.4978  1.1441
 5752TIP3   OH217219   0.363   1.388   5.117 -0.0818 -0.2021 -0.1830
 5752TIP3    H117220   0.406   1.452   5.061 -1.0875 -1.1812 -2.1515
 5752TIP3    H217221   0.426   1.316   5.123 -0.2815 -0.4201 -0.6895
 5753TIP3   OH217222   3.176   4.090   0.049  0.1676  0.0259 -0.4044
 5753TIP3    H117223   3.270   4.107   0.054  0.1218 -0.1480  1.8166
 5753TIP3    H217224   3.158   4.086  -0.045  2.5504 -0.9306 -0.8968
 5754TIP3   OH217225   4.100   0.752   1.031  0.0551  0.0929  0.3240
 5754TIP3    H117226   4.103   0.683   1.098  0.8384  0.4379  0.6559
 5754TIP3    H217227   4.054   0.712   0.957  0.4441 -0.7628  0.5384
 5755TIP3   OH217228   2.067   3.836   2.100  0.4955  0.1089 -0.4268
 5755TIP3    H117229   2.113   3.894   2.160  2.4036 -1.4678 -0.2720
 5755TIP3    H217230   1.974   3.853   2.117  0.9910  2.1987  0.4434
 5756TIP3   OH217231   0.600   1.189   5.328 -0.0283 -0.1675 -0.2918
 5756TIP3    H117232   0.566   1.207   5.416 -2.4602  0.2756 -1.2289
 5756TIP3    H217233   0.661   1.116   5.341 -0.6897 -0.4471  1.7108
 5757TIP3   OH217234   5.585   6.612   2.664  0.1002 -0.3473  0.2696
 5757TIP3    H117235   5.560   6.668   2.738  0.2132  1.1240 -0.7639
 5757TIP3    H217236   5.554   6.659   2.587 -0.2884 -1.9957 -0.6341
 5758TIP3   OH217237   0.973   3.327   2.743  0.5139 -0.1433 -0.0885
 5758TIP3    H117238   0.956   3.259   2.808  1.1254  0.5997  0.8916
 5758TIP3    H217239   1.014   3.398   2.794 -1.9983  1.8486 -0.6254
 5759TIP3   OH217240   5.029   2.327   3.029  0.2832 -0.0247  0.0265
 5759TIP3    H117241   5.044   2.355   2.939 -0.1830  0.1800  0.0065
 5759TIP3    H217242   4.934   2.315   3.035  0.1283  1.4034  0.8880
 5760TIP3   OH217243   0.763   0.108   1.418 -0.0058  0.8795 -0.0039
 5760TIP3    H117244   0.855   0.134   1.416  0.1026  0.5045  0.0823
 5760TIP3    H217245   0.755   0.054   1.497 -0.0788  0.1056 -0.5306
 5761TIP3   OH217246   3.308   1.931   0.571  0.3178  0.6060 -0.2356
 5761TIP3    H117247   3.228   1.893   0.534 -0.9565 -0.3021  3.0529
 5761TIP3    H217248   3.284   2.022   0.590  0.0924  0.3699  0.6296
 5762TIP3   OH217249   1.175   3.210   0.494 -0.1857  0.0839  0.5076
 5762TIP3    H117250   1.141   3.220   0.405  0.6346  0.4901  0.2289
 5762TIP3    H217251   1.155   3.119   0.517  0.8102 -0.4523 -0.6213
 5763TIP3   OH217252   5.904   3.852   1.577  0.0722 -0.0617 -0.2719
 5763TIP3    H117253   5.898   3.836   1.671 -0.6451 -2.0407 -0.6143
 5763TIP3    H217254   5.994   3.829   1.555  0.3432  0.7353 -0.0348
 5764TIP3   OH217255   4.836   5.210   1.524  0.4849  0.6223 -0.2333
 5764TIP3    H117256   4.857   5.263   1.600  0.9823 -1.8721  1.4831
 5764TIP3    H217257   4.920   5.176   1.494  0.1869  0.8336 -1.3496
 5765TIP3   OH217258   2.115   5.300   2.468  0.1067  0.8382  0.5861
 5765TIP3    H117259   2.204   5.280   2.440 -0.0231 -1.8334  1.7735
 5765TIP3    H217260   2.122   5.383   2.515  2.1532  0.2446  1.4258
 5766TIP3   OH217261   2.291   3.479   0.219  0.2229 -0.1028 -0.4286
 5766TIP3    H117262   2.198   3.457   0.231 -0.1855  0.4945 -2.1099
 5766TIP3    H217263   2.313   3.441   0.134  1.3977  0.1755 -0.2626
 5767TIP3   OH217264   2.907   5.795   4.962 -0.2520 -0.7553  0.3976
 5767TIP3    H117265   2.897   5.711   4.917 -0.9160  0.9224 -2.8908
 5767TIP3    H217266   2.819   5.831   4.966  0.1826  0.3202  0.6035
 5768TIP3   OH217267   4.906   3.173   1.159 -0.3431 -0.5359 -0.1215
 5768TIP3    H117268   4.941   3.088   1.131  2.7536  0.5113  0.1118
 5768TIP3    H217269   4.864   3.155   1.243 -1.6364 -2.1510 -1.0596
 5769TIP3   OH217270   5.979   4.512   1.716  0.0250 -0.1743  0.5912
 5769TIP3    H117271   6.061   4.555   1.693 -0.3850 -0.2145 -1.0270
 5769TIP3    H217272   6.006   4.436   1.768  1.0842 -0.6606 -0.6324
 5770TIP3   OH217273   6.074   5.515   0.944  0.3868  0.3439  0.4392
 5770TIP3    H117274   6.084   5.531   1.038 -0.0288 -0.0868  0.5668
 5770TIP3    H217275   5.989   5.555   0.922  0.6186  0.6991  0.1826
 5771TIP3   OH217276   6.305   3.127   1.865 -0.4558  0.7897  0.1762
 5771TIP3    H117277   6.293   3.215   1.899  0.6683  0.7904  0.6142
 5771TIP3    H217278   6.305   3.070   1.942  1.0577  0.6739  0.1211
 5772TIP3   OH217279   6.254   2.973   3.834  0.0258 -0.4172  0.2381
 5772TIP3    H117280   6.160   2.958   3.842  0.1904 -1.1866  0.7134
 5772TIP3    H217281   6.277   3.022   3.912 -0.0315  0.0697 -0.0428
 5773TIP3   OH217282   4.517   0.981   1.793  0.0005  0.2713  0.5163
 5773TIP3    H117283   4.553   0.904   1.836 -1.3613 -1.0325 -0.6039
 5773TIP3    H217284   4.425   0.982   1.819  0.0680  1.7565  0.8076
 5774TIP3   OH217285   1.067   4.139   5.376  0.1449  0.5680  0.2989
 5774TIP3    H117286   1.101   4.073   5.436  0.0265 -0.4937 -0.7793
 5774TIP3    H217287   1.136   4.150   5.310 -0.2472  0.7900 -0.0812
 5775TIP3   OH217288   5.212   4.077   2.637 -0.4104 -0.5846  0.3288
 5775TIP3    H117289   5.274   4.020   2.593 -0.6956 -2.0992  1.7759
 5775TIP3    H217290   5.247   4.087   2.726 -0.5118  1.3215  0.2020
 5776TIP3   OH217291   3.459   5.558   5.428  0.3502 -0.3093 -0.0386
 5776TIP3    H117292   3.431   5.562   5.519 -1.0086  0.6010 -0.4556
 5776TIP3    H217293   3.380   5.581   5.378  1.5311  1.0704 -1.3610
 5777TIP3   OH217294   6.122   1.146   1.479  0.3122  0.2019  0.3385
 5777TIP3    H117295   6.062   1.108   1.543  0.4573  0.7231  0.7819
 5777TIP3    H217296   6.065   1.180   1.410 -0.1611  3.2351  2.0589
 5778TIP3   OH217297   3.083   2.950   3.579 -0.6950  0.1644  0.0085
 5778TIP3    H117298   3.076   2.868   3.628 -2.0376  0.9233  1.1735
 5778TIP3    H217299   3.120   2.924   3.494  0.7531 -1.3334  1.0362
 5779TIP3   OH217300   6.846   5.075   5.511  0.1612  0.2141  0.2737
 5779TIP3    H117301   6.835   5.057   5.604  0.8819 -1.1398  0.1175
 5779TIP3    H217302   6.921   5.134   5.507 -0.1361  0.6136  0.5771
 5780TIP3   OH217303   5.406   1.958   1.422  0.5366 -0.9495  0.1373
 5780TIP3    H117304   5.338   1.918   1.369 -0.1674  0.8860 -0.4442
 5780TIP3    H217305   5.488   1.920   1.389 -0.1072 -2.2634  0.0077
 5781TIP3   OH217306   5.404   5.702   4.468 -0.1546  0.3907  0.6551
 5781TIP3    H117307   5.456   5.772   4.430  0.0685 -0.6996 -1.1671
 5781TIP3    H217308   5.462   5.626   4.468 -1.4476 -0.6721 -0.7456
 5782TIP3   OH217309   4.260   2.156   0.663 -0.0880 -0.1021 -0.6961
 5782TIP3    H117310   4.222   2.241   0.684  1.2827  0.1656  0.8325
 5782TIP3    H217311   4.197   2.117   0.602 -1.1276  1.6682 -0.8290
 5783TIP3   OH217312   1.180   5.891   1.686  0.2803 -0.2408  0.1612
 5783TIP3    H117313   1.162   5.970   1.634  0.8661 -1.0154 -1.2579
 5783TIP3    H217314   1.164   5.818   1.626  2.4690 -1.1343  0.5796
 5784TIP3   OH217315   1.555   2.719   1.305 -0.6484  0.0524  0.1415
 5784TIP3    H117316   1.597   2.640   1.271 -1.1863 -1.2131  2.2405
 5784TIP3    H217317   1.618   2.789   1.287 -0.1123 -0.8309 -1.6709
 5785TIP3   OH217318   0.030   4.986   3.544 -0.3939  0.1677 -0.0045
 5785TIP3    H117319   0.110   4.977   3.493  0.4857 -0.5017  1.4415
 5785TIP3    H217320  -0.040   4.969   3.481  0.6012  0.4523 -1.2229
 5786TIP3   OH217321   1.195   2.829   4.563  0.1175  0.3959  0.0353
 5786TIP3    H117322   1.145   2.747   4.555 -0.9617  1.1188 -0.9103
 5786TIP3    H217323   1.222   2.849   4.474  1.1419  0.6298  0.3854
 5787TIP3   OH217324   1.441   6.580   3.317 -0.2249 -0.1021 -0.1814
 5787TIP3    H117325   1.519   6.591   3.263 -0.3707 -0.7204 -0.5279
 5787TIP3    H217326   1.419   6.669   3.345  0.2922  0.1389 -0.5123
 5788TIP3   OH217327   2.759   0.807   3.579  0.2787  0.1883  0.1793
 5788TIP3    H117328   2.685   0.824   3.520 -0.0009  0.2821  0.5512
 5788TIP3    H217329   2.721   0.816   3.667  1.1034  1.8459  0.3927
 5789TIP3   OH217330   4.278   1.179   4.789 -0.0105  0.0070 -0.2567
 5789TIP3    H117331   4.332   1.099   4.787 -0.2900 -0.2122  0.6116
 5789TIP3    H217332   4.297   1.218   4.874  0.5928  1.2143 -0.9101
 5790TIP3   OH217333   0.162   5.699   1.758 -0.2419  0.0692  0.0792
 5790TIP3    H117334   0.117   5.774   1.798 -0.1279  0.6425 -0.8146
 5790TIP3    H217335   0.165   5.721   1.665 -0.9308 -1.4272 -0.3319
 5791TIP3   OH217336   0.937   0.871   2.354  0.3711  0.3560  0.0366
 5791TIP3    H117337   1.002   0.886   2.285 -0.6106  0.0836 -0.9624
 5791TIP3    H217338   0.962   0.786   2.391  1.4180  0.8974  0.6240
 5792TIP3   OH217339   6.249   5.263   1.372  0.5249 -0.4622 -0.5990
 5792TIP3    H117340   6.247   5.261   1.276  0.2214 -2.6785 -0.6099
 5792TIP3    H217341   6.338   5.237   1.395  0.8316  0.8321 -0.2471
 5793TIP3   OH217342   5.329   6.410   1.243 -0.2242  0.3791 -0.1861
 5793TIP3    H117343   5.284   6.478   1.192 -0.0386  0.0617 -0.7876
 5793TIP3    H217344   5.261   6.373   1.299 -1.0449 -0.9006 -1.9204
 5794TIP3   OH217345   0.036   5.812   3.339 -0.3349  0.2523 -0.1190
 5794TIP3    H117346  -0.039   5.834   3.394  1.5190  1.6844  2.0241
 5794TIP3    H217347   0.028   5.869   3.262 -0.8138  1.2689  0.6669
 5795TIP3   OH217348   2.323   0.934   5.769 -0.0965  0.0590  0.1941
 5795TIP3    H117349   2.275   1.016   5.758 -1.4995 -0.6844  0.5609
 5795TIP3    H217350   2.357   0.915   5.681 -1.3172  0.1235 -0.3243
 5796TIP3   OH217351   6.234   3.932   2.134 -0.1233  0.3466  0.6591
 5796TIP3    H117352   6.192   3.907   2.051 -0.3784  0.9905  0.5887
 5796TIP3    H217353   6.275   4.017   2.115  2.1697 -0.7484  0.3975
 5797TIP3   OH217354   3.498   1.508   0.972  0.7215 -0.2006 -0.7139
 5797TIP3    H117355   3.589   1.478   0.970  0.0892 -2.3023 -0.5047
 5797TIP3    H217356   3.485   1.549   0.887  2.4848  2.3036  0.0960
 5798TIP3   OH217357   0.222   1.563   4.217  0.2549 -1.0888 -0.3624
 5798TIP3    H117358   0.141   1.522   4.186 -0.1119 -1.5722  1.1320
 5798TIP3    H217359   0.198   1.600   4.302  1.0871  0.5725 -0.8264
 5799TIP3   OH217360   6.257   0.007   2.943 -0.3287 -0.3384  0.1952
 5799TIP3    H117361   6.202   0.012   2.864 -1.7855 -0.4616  1.1724
 5799TIP3    H217362   6.290   0.096   2.955 -1.5466  0.1012  0.4286
 5800TIP3   OH217363   5.053   0.285   0.773 -0.3458  0.1953  0.1138
 5800TIP3    H117364   5.020   0.286   0.684 -0.0845 -1.1611 -0.0271
 5800TIP3    H217365   4.988   0.334   0.824 -0.5071  0.9552 -0.7971
 5801TIP3   OH217366   2.077   1.400   1.574 -0.3504 -0.6910 -0.6640
 5801TIP3    H117367   2.013   1.458   1.616 -0.4045 -1.2905  0.1020
 5801TIP3    H217368   2.065   1.416   1.480 -1.7785 -0.9462 -0.5488
 5802TIP3   OH217369   6.025   4.958   5.508 -0.1302 -0.6122  0.0402
 5802TIP3    H117370   6.018   4.891   5.575 -1.0467  0.0420  0.6119
 5802TIP3    H217371   6.113   4.946   5.471 -0.0274 -1.6672  0.6038
 5803TIP3   OH217372   3.224   0.493   4.606 -0.0930  0.1754  0.3413
 5803TIP3    H117373   3.267   0.434   4.669 -0.1490 -0.4587 -0.2111
 5803TIP3    H217374   3.135   0.503   4.639  0.8120  2.7286  2.3753
 5804TIP3   OH217375   5.568   0.352   0.968  0.2822  0.0062  0.1280
 5804TIP3    H117376   5.502   0.320   1.030  0.0328 -0.4483 -0.3620
 5804TIP3    H217377   5.517   0.376   0.890  0.5573  0.8461  0.2003
 5805TIP3   OH217378   4.552   2.999   1.196 -0.1886 -0.3436  0.3448
 5805TIP3    H117379   4.620   2.933   1.205  1.4841  1.5034  2.0765
 5805TIP3    H217380   4.550   3.018   1.102 -0.2532 -2.3067 -0.1015
 5806TIP3   OH217381   2.521   6.027   3.769  0.5109 -0.0887  0.3817
 5806TIP3    H117382   2.547   5.936   3.782  0.8892  0.0595  0.6905
 5806TIP3    H217383   2.458   6.024   3.697  1.3659 -0.4708 -0.3677
 5807TIP3   OH217384   3.734   0.684   5.473 -0.3049  0.2797  0.0539
 5807TIP3    H117385   3.654   0.658   5.518 -0.8914  0.5349 -0.7980
 5807TIP3    H217386   3.716   0.667   5.380  1.9956 -3.1976  0.0928
 5808TIP3   OH217387   4.859   5.538   3.779 -0.4348  0.5242  0.3665
 5808TIP3    H117388   4.877   5.482   3.703  0.7310 -1.1448  1.7749
 5808TIP3    H217389   4.884   5.626   3.751 -0.4962  0.0363 -1.3247
 5809TIP3   OH217390   1.496   4.275   3.159 -0.0088  0.1924 -0.1471
 5809TIP3    H117391   1.528   4.303   3.245 -1.9928  1.8300  0.1142
 5809TIP3    H217392   1.576   4.257   3.109  1.1977 -1.4563  2.1936
 5810TIP3   OH217393   0.176   4.772   2.277  0.4498  0.2912 -0.4773
 5810TIP3    H117394   0.086   4.742   2.292  0.9407 -0.3444  1.5748
 5810TIP3    H217395   0.211   4.712   2.211 -0.8143  0.9949 -1.8439
 5811TIP3   OH217396   7.051   3.739   4.498  0.2481 -0.1376 -0.2212
 5811TIP3    H117397   7.008   3.654   4.508 -1.4814  0.3837 -2.5075
 5811TIP3    H217398   7.100   3.751   4.579 -2.0517 -1.8552  1.5293
 5812TIP3   OH217399   3.854   3.088   0.372 -0.0894  0.2216 -0.2885
 5812TIP3    H117400   3.842   3.080   0.277  0.0604  3.7212 -0.7329
 5812TIP3    H217401   3.791   3.155   0.398  1.7703  1.3257  1.6125
 5813TIP3   OH217402   2.506   1.473   1.610  0.2100  0.3942  0.4058
 5813TIP3    H117403   2.564   1.530   1.559  1.6704 -0.9491  0.4777
 5813TIP3    H217404   2.488   1.522   1.690 -0.3330  1.6277 -0.4412
 5814TIP3   OH217405   3.705   2.483   1.736  0.4566 -0.0818 -0.1952
 5814TIP3    H117406   3.641   2.462   1.805 -0.6882 -3.7193 -2.1409
 5814TIP3    H217407   3.785   2.439   1.763  0.4300 -0.3010 -0.4658
 5815TIP3   OH217408   3.695   1.847   3.177 -0.0233 -0.2546 -0.2054
 5815TIP3    H117409   3.708   1.857   3.271  0.3885  0.6159 -0.3431
 5815TIP3    H217410   3.691   1.752   3.164  0.8684 -0.4207  0.5737
 5816TIP3   OH217411   2.753   6.575   4.767  0.2660 -0.0453  0.2862
 5816TIP3    H117412   2.755   6.632   4.690 -2.4353 -1.1974 -0.7872
 5816TIP3    H217413   2.723   6.490   4.733  1.7159 -1.4207  2.2079
 5817TIP3   OH217414   6.972   4.997   3.422  0.1949 -0.7429 -0.0145
 5817TIP3    H117415   6.911   5.006   3.495  1.4561  1.5123  0.8553
 5817TIP3    H217416   6.967   5.080   3.376  0.4183 -1.6428 -1.7359
 5818TIP3   OH217417   2.738   5.346   5.851 -0.0991  0.4215 -0.9054
 5818TIP3    H117418   2.810   5.388   5.899 -0.9164  1.3655 -0.4879
 5818TIP3    H217419   2.676   5.416   5.833 -1.0061 -0.4120 -1.1089
 5819TIP3   OH217420   3.950   2.591   0.152 -0.3626 -0.0218  0.0519
 5819TIP3    H117421   3.991   2.514   0.112  0.7126  0.3623  0.3897
 5819TIP3    H217422   3.880   2.615   0.091 -0.0935 -0.6883 -0.5388
 5820TIP3   OH217423   3.961   2.429   2.701 -0.5034 -0.0139  0.5875
 5820TIP3    H117424   4.008   2.396   2.625 -2.0136  0.6970 -0.7245
 5820TIP3    H217425   3.945   2.351   2.755  0.1954 -0.6050 -0.0346
 5821TIP3   OH217426   6.858   2.028  -0.017  0.1038  0.5343  0.1013
 5821TIP3    H117427   6.793   2.092   0.009 -1.1165 -1.5096  2.4851
 5821TIP3    H217428   6.925   2.032   0.052  0.7801  0.2548 -0.5213
 5822TIP3   OH217429   5.257   5.454   0.150  0.4900 -0.5119  0.2934
 5822TIP3    H117430   5.306   5.459   0.232 -2.5765  0.4413  2.2387
 5822TIP3    H217431   5.250   5.361   0.131  0.7895 -0.7743  1.4157
 5823TIP3   OH217432   3.259   2.231   0.659  0.2048 -0.1404 -0.5000
 5823TIP3    H117433   3.192   2.187   0.711  0.4042 -1.1865 -1.1149
 5823TIP3    H217434   3.314   2.276   0.723 -1.5278  1.4260 -0.0107
 5824TIP3   OH217435   5.984   1.366   1.360 -0.3079  0.3850 -0.3817
 5824TIP3    H117436   5.936   1.284   1.362 -0.1759  0.3200  0.4857
 5824TIP3    H217437   5.940   1.418   1.292 -0.2709 -0.4612 -1.0707
 5825TIP3   OH217438   7.171   6.369   0.111 -0.1074  0.1221 -0.7439
 5825TIP3    H117439   7.096   6.333   0.063  1.4696 -0.8750 -2.6293
 5825TIP3    H217440   7.236   6.298   0.110  1.2344  1.2923 -0.0806
 5826TIP3   OH217441   4.895   1.108   0.442  0.2816  0.1914  0.6048
 5826TIP3    H117442   4.947   1.036   0.478 -2.3981 -0.6973  3.1330
 5826TIP3    H217443   4.816   1.109   0.496 -0.8632  3.5568 -0.8882
 5827TIP3   OH217444   2.055   2.461   3.548  0.1941 -0.7429  0.2923
 5827TIP3    H117445   2.137   2.468   3.499 -0.6865  0.6424 -1.1023
 5827TIP3    H217446   2.070   2.514   3.627  0.3364  0.3950 -0.4632
 5828TIP3   OH217447   0.756   0.703   5.668 -0.4563 -0.2910  0.6113
 5828TIP3    H117448   0.759   0.639   5.598  0.7033  0.6737 -0.2610
 5828TIP3    H217449   0.680   0.758   5.646 -1.0898 -0.9836  1.0346
 5829TIP3   OH217450   4.225   3.423   3.697 -0.5657 -0.5904 -0.7152
 5829TIP3    H117451   4.150   3.432   3.638 -0.0976 -0.9646 -1.3785
 5829TIP3    H217452   4.301   3.443   3.643 -0.2509  1.0049  0.2567
 5830TIP3   OH217453   5.633   6.633   5.114  0.3044 -0.2472  0.1166
 5830TIP3    H117454   5.671   6.569   5.174  0.4564  0.0785  0.3690
 5830TIP3    H217455   5.544   6.602   5.101  0.1859 -0.1738  0.7187
 5831TIP3   OH217456   2.085   2.023   0.478 -0.4420  0.0375  0.5355
 5831TIP3    H117457   2.029   2.087   0.522  0.4906 -0.1108  2.0298
 5831TIP3    H217458   2.160   2.013   0.537  0.3829 -0.9526 -0.6341
 5832TIP3   OH217459   4.668   1.321   4.271 -0.3591 -0.1147 -0.1228
 5832TIP3    H117460   4.602   1.383   4.299 -0.7127  0.5905 -2.2985
 5832TIP3    H217461   4.619   1.251   4.227  0.2387 -0.3264 -0.4702
 5833TIP3   OH217462   5.325   1.496   2.418 -0.3383 -0.2006  0.4480
 5833TIP3    H117463   5.275   1.560   2.468  0.3118  0.9928 -0.3837
 5833TIP3    H217464   5.410   1.490   2.463 -0.3597 -0.4135  0.4640
 5834TIP3   OH217465   2.505   6.766   1.482 -0.2341  0.2967 -0.1143
 5834TIP3    H117466   2.514   6.693   1.421 -0.1811  1.0366 -1.0065
 5834TIP3    H217467   2.595   6.797   1.495 -0.4035  1.2532 -1.0659
 5835TIP3   OH217468   4.709   4.645   4.484  0.7263  0.1902  0.7857
 5835TIP3    H117469   4.732   4.574   4.424  0.3279  0.0851  0.7534
 5835TIP3    H217470   4.669   4.601   4.559  1.3201  0.3127  1.1822
 5836TIP3   OH217471   1.353   0.410   5.875  0.5484  0.3254  0.6653
 5836TIP3    H117472   1.261   0.431   5.885 -0.0137 -0.6031 -1.7507
 5836TIP3    H217473   1.385   0.473   5.810  1.3228 -0.0532  0.6653
 5837TIP3   OH217474   2.624   3.531   0.450  0.3137 -0.0046 -0.4999
 5837TIP3    H117475   2.634   3.556   0.358  1.0752  0.4504 -0.3023
 5837TIP3    H217476   2.577   3.605   0.489  1.6066  0.6576 -0.1462
 5838TIP3   OH217477   3.528   5.469   3.780  0.1246  0.4443 -0.0092
 5838TIP3    H117478   3.558   5.534   3.716  1.8082 -1.2759 -1.0759
 5838TIP3    H217479   3.434   5.488   3.791 -0.1908  0.9737 -2.8368
 5839TIP3   OH217480   6.009   6.149   4.375 -0.2770 -0.5306 -0.1008
 5839TIP3    H117481   6.102   6.129   4.365 -0.5346 -1.5281 -0.6305
 5839TIP3    H217482   6.000   6.183   4.464  0.7245  0.3870 -0.3350
 5840TIP3   OH217483   6.067   6.577   1.940  0.1198 -0.4852 -1.1845
 5840TIP3    H117484   6.081   6.488   1.907 -2.2967 -1.5439  0.3814
 5840TIP3    H217485   6.148   6.598   1.987  0.7734 -1.8168 -1.6632
 5841TIP3   OH217486   7.041   3.990   3.829  0.2464  0.0616  0.1693
 5841TIP3    H117487   6.973   3.983   3.896  1.4957  0.5726  1.5359
 5841TIP3    H217488   7.030   4.078   3.792  0.7439  0.5060  1.0560
 5842TIP3   OH217489   4.036   5.433   3.139 -0.2489  0.1702 -0.3114
 5842TIP3    H117490   4.088   5.353   3.147  0.6590  0.6358 -1.4263
 5842TIP3    H217491   4.100   5.503   3.127 -0.9155  1.3450  2.1898
 5843TIP3   OH217492   0.829   3.105   5.580 -0.1022 -0.3292  0.2750
 5843TIP3    H117493   0.908   3.158   5.584 -0.5219  0.3664 -0.2882
 5843TIP3    H217494   0.759   3.164   5.608 -0.3544 -1.1138  1.3721
 5844TIP3   OH217495   4.453   0.778   4.896  0.2608 -0.2464  0.2298
 5844TIP3    H117496   4.523   0.722   4.863  0.1766 -0.9983  1.2725
 5844TIP3    H217497   4.455   0.856   4.840  1.0245 -0.8638 -0.6139
 5845TIP3   OH217498   2.038   3.361   0.513  0.6254 -1.0080  0.3097
 5845TIP3    H117499   1.964   3.316   0.553  1.2484 -1.1218  1.3730
 5845TIP3    H217500   2.065   3.425   0.579  0.6005  0.0119 -0.6311
 5846TIP3   OH217501   2.224   3.632   5.365  0.1187  0.3542  0.0989
 5846TIP3    H117502   2.309   3.646   5.406 -0.0758 -1.0237  0.9999
 5846TIP3    H217503   2.178   3.715   5.378  0.9089  0.7290  0.5868
 5847TIP3   OH217504   1.613   4.724   4.344 -0.3429  0.0805  0.4501
 5847TIP3    H117505   1.539   4.666   4.325  1.6402 -2.1325 -1.0886
 5847TIP3    H217506   1.663   4.678   4.411  0.5330  0.7440  0.2714
 5848TIP3   OH217507   4.369   4.801   1.642 -0.5763  0.8494 -0.0706
 5848TIP3    H117508   4.414   4.725   1.678 -2.0738  0.0267  0.1621
 5848TIP3    H217509   4.391   4.801   1.549 -0.8495 -0.1023 -0.1462
 5849TIP3   OH217510   2.537   4.103   5.066  0.6706  0.1549  0.1636
 5849TIP3    H117511   2.613   4.051   5.039  1.7774 -0.2591  3.5737
 5849TIP3    H217512   2.574   4.187   5.093 -0.7546  1.7481 -2.3724
 5850TIP3   OH217513   2.270   0.175   4.178 -0.6507 -0.1281 -0.5139
 5850TIP3    H117514   2.335   0.180   4.108 -0.6581  0.7794 -0.4615
 5850TIP3    H217515   2.253   0.081   4.188 -0.2427 -0.2999 -1.3516
 5851TIP3   OH217516   6.320   1.340   3.331 -0.0754  0.1370 -0.0966
 5851TIP3    H117517   6.388   1.376   3.387 -0.5530  0.8935  0.0095
 5851TIP3    H217518   6.244   1.395   3.347 -0.4279 -0.0781 -0.9581
 5852TIP3   OH217519   1.316   4.015   5.011  0.4769  0.4869 -0.0626
 5852TIP3    H117520   1.264   3.936   5.025  0.0725  0.7280 -0.1985
 5852TIP3    H217521   1.404   3.982   4.992  0.2528  0.0598 -0.3784
 5853TIP3   OH217522   2.638   6.544   4.280  0.2943  0.4297 -0.0372
 5853TIP3    H117523   2.571   6.608   4.305  0.5586  0.7353 -0.1020
 5853TIP3    H217524   2.621   6.468   4.336 -1.0427 -0.0795 -1.0963
 5854TIP3   OH217525   4.930   6.639   1.858 -0.4015 -0.1753  0.1244
 5854TIP3    H117526   4.993   6.648   1.930 -1.3413 -1.4076  1.1514
 5854TIP3    H217527   4.920   6.727   1.824  0.6574  0.3086  1.0096
 5855TIP3   OH217528   5.382   6.106   3.102 -0.4118  0.2190 -0.0033
 5855TIP3    H117529   5.362   6.105   3.196  1.3379 -0.4787  0.3919
 5855TIP3    H217530   5.395   6.198   3.081 -0.3214  0.3372  0.5511
 5856TIP3   OH217531   1.370   2.431   2.577  0.0426  0.3190 -0.2089
 5856TIP3    H117532   1.357   2.525   2.592  1.5341  0.6495 -0.7489
 5856TIP3    H217533   1.443   2.428   2.515  1.2413 -1.2426  1.2151
 5857TIP3   OH217534   3.603   5.746   5.003 -0.4060  0.6864  0.3904
 5857TIP3    H117535   3.607   5.653   4.978 -2.4536  1.1469 -2.1720
 5857TIP3    H217536   3.537   5.749   5.072 -0.2675  0.2018  0.5466
 5858TIP3   OH217537   1.741   6.405   2.175  0.1233 -1.1354  0.1178
 5858TIP3    H117538   1.725   6.314   2.201 -2.8824 -0.6848  0.2160
 5858TIP3    H217539   1.773   6.447   2.254  0.0508 -1.7799  0.5015
 5859TIP3   OH217540   6.517   0.315   4.800  0.3669  0.4310  0.0832
 5859TIP3    H117541   6.599   0.299   4.847 -0.2893  0.4497  1.2498
 5859TIP3    H217542   6.529   0.269   4.716  0.8352 -1.2154  0.9986
 5860TIP3   OH217543   1.246   2.476   3.737  0.1849  0.2389 -0.3749
 5860TIP3    H117544   1.307   2.549   3.729  0.0011  0.3531 -0.8105
 5860TIP3    H217545   1.159   2.516   3.731  0.0856 -0.0707 -1.3298
 5861TIP3   OH217546   6.413   5.942   2.352 -0.3477  0.3948  0.5991
 5861TIP3    H117547   6.443   5.949   2.262  3.3828 -2.2065  1.3732
 5861TIP3    H217548   6.319   5.924   2.345 -0.0218 -0.7005 -2.8448
 5862TIP3   OH217549   3.423   2.204   2.970 -0.4153  0.1987 -0.1325
 5862TIP3    H117550   3.439   2.213   3.064 -0.7929  0.5668 -0.1022
 5862TIP3    H217551   3.444   2.113   2.951  0.4314  0.3254  0.1562
 5863TIP3   OH217552   1.378   1.477   1.423 -0.0564 -0.1427 -0.2702
 5863TIP3    H117553   1.335   1.464   1.507  0.6206  0.0335  0.1139
 5863TIP3    H217554   1.316   1.443   1.358 -0.5844 -0.2728  0.2984
 5864TIP3   OH217555   3.658   2.700   4.876  0.2687 -0.2516 -0.4320
 5864TIP3    H117556   3.596   2.748   4.821  0.0919 -0.1071 -0.1076
 5864TIP3    H217557   3.734   2.687   4.819 -0.2500 -0.8796 -1.0046
 5865TIP3   OH217558   5.203   2.332   0.604  0.2062  0.0994 -0.1481
 5865TIP3    H117559   5.141   2.282   0.550 -0.0331  0.6787 -0.4345
 5865TIP3    H217560   5.282   2.337   0.550  0.3406 -0.2495  0.0194
 5866TIP3   OH217561   1.042   2.458   0.225 -0.1153 -0.4949 -0.0919
 5866TIP3    H117562   1.068   2.366   0.234 -1.3010 -0.9130 -0.7400
 5866TIP3    H217563   0.950   2.454   0.200  0.2203  0.8109 -1.6989
 5867TIP3   OH217564   0.750   3.950   5.180  0.8270  0.0361  0.1477
 5867TIP3    H117565   0.798   3.890   5.237  1.1209 -0.6456 -0.7846
 5867TIP3    H217566   0.789   3.936   5.094 -1.9502 -1.6035 -0.9836
 5868TIP3   OH217567   1.093   4.157   0.325 -0.6058  0.5144 -1.0811
 5868TIP3    H117568   1.097   4.224   0.257 -1.6535 -1.1107 -2.8429
 5868TIP3    H217569   1.174   4.107   0.313 -0.7701  0.2499 -1.0808
 5869TIP3   OH217570   3.780   0.523   1.142 -0.2864  0.0550 -0.5544
 5869TIP3    H117571   3.758   0.448   1.197  0.1219 -0.2509 -0.8031
 5869TIP3    H217572   3.699   0.541   1.094 -0.4204 -0.1571 -0.4148
 5870TIP3   OH217573   2.940   3.670   3.299 -0.0784 -0.8122 -0.4106
 5870TIP3    H117574   2.998   3.633   3.233 -0.0245  0.6168 -1.1986
 5870TIP3    H217575   2.967   3.628   3.381  1.2404 -1.0675 -0.9587
 5871TIP3   OH217576   3.437   4.734   4.034  0.5298  0.1312  0.3014
 5871TIP3    H117577   3.441   4.743   4.129 -2.0071 -1.2275  0.6237
 5871TIP3    H217578   3.527   4.713   4.008  1.5932  2.0094  2.1607
 5872TIP3   OH217579   4.947   1.710   2.918  0.4511 -0.4489  0.1326
 5872TIP3    H117580   4.862   1.754   2.919  0.6083 -0.0570 -1.3082
 5872TIP3    H217581   4.926   1.617   2.931  0.1742 -0.0147  4.0126
 5873TIP3   OH217582   4.948   1.028   4.271 -0.4946  0.2425  0.1151
 5873TIP3    H117583   4.948   1.122   4.255 -0.6465  0.4952  1.4844
 5873TIP3    H217584   4.937   1.020   4.366  0.4169 -1.1310  0.1320
 5874TIP3   OH217585   6.724   6.160   1.677 -0.4253  0.2751 -0.4369
 5874TIP3    H117586   6.763   6.073   1.670  0.3101  0.4469  1.1835
 5874TIP3    H217587   6.643   6.154   1.626 -0.5813 -1.4791 -0.0388
 5875TIP3   OH217588   2.701   6.628   2.433 -0.0706  0.3970  0.0307
 5875TIP3    H117589   2.788   6.668   2.430  0.3041 -0.4600 -2.0654
 5875TIP3    H217590   2.707   6.551   2.377 -2.2464  0.4489 -0.3867
 5876TIP3   OH217591   4.842   3.713   2.946  0.5117 -0.0832  0.3161
 5876TIP3    H117592   4.896   3.732   3.023  2.4423  2.9525 -1.5623
 5876TIP3    H217593   4.883   3.636   2.907  0.0562 -1.1163  1.7891
 5877TIP3   OH217594   3.685   4.536   2.146  0.1006  0.2546 -0.2458
 5877TIP3    H117595   3.769   4.561   2.110 -0.0148  1.5165  0.3277
 5877TIP3    H217596   3.693   4.442   2.164  0.8915  0.0677 -1.4769
 5878TIP3   OH217597   3.783   2.813   4.081  0.1736 -0.0412  0.7885
 5878TIP3    H117598   3.846   2.884   4.075  1.0024 -0.8219 -0.1568
 5878TIP3    H217599   3.836   2.736   4.104 -0.5340 -0.5666  0.7075
 5879TIP3   OH217600   0.771   3.222   2.552  0.4074  0.3052 -0.4657
 5879TIP3    H117601   0.848   3.185   2.509  0.8409 -2.7297  2.5397
 5879TIP3    H217602   0.806   3.280   2.620 -0.0681  0.5643 -0.4312
 5880TIP3   OH217603   1.333   0.314   1.081  0.2681  0.2141  0.8310
 5880TIP3    H117604   1.244   0.321   1.047  1.0615  0.5910 -1.3680
 5880TIP3    H217605   1.370   0.402   1.067  1.9081 -0.7267 -1.2653
 5881TIP3   OH217606   1.120   1.479   2.693  0.3425  0.0071  0.3561
 5881TIP3    H117607   1.088   1.551   2.748 -0.8117 -0.4217  0.2635
 5881TIP3    H217608   1.177   1.522   2.628 -0.3987  0.8528  0.2525
 5882TIP3   OH217609   2.366   6.466   5.143  0.1405 -0.4127  0.4265
 5882TIP3    H117610   2.326   6.389   5.183 -0.9434 -1.2697 -2.0976
 5882TIP3    H217611   2.460   6.445   5.139  0.1363 -0.7025  1.5656
 5883TIP3   OH217612   5.367   0.048   3.315 -0.3782 -0.0196 -0.1485
 5883TIP3    H117613   5.301   0.065   3.381  0.0380  0.7710  0.0789
 5883TIP3    H217614   5.397   0.135   3.288  0.4064 -0.3591 -0.4040
 5884TIP3   OH217615   7.123   4.593   0.788 -0.0727  0.2252 -0.4016
 5884TIP3    H117616   7.201   4.555   0.747 -0.3337 -0.0168 -0.6703
 5884TIP3    H217617   7.075   4.517   0.821 -0.1187  0.3859 -0.0961
 5885TIP3   OH217618   0.912   5.682   3.855  0.2264  0.9258  0.2608
 5885TIP3    H117619   0.946   5.770   3.869  0.7329  0.9596 -1.0734
 5885TIP3    H217620   0.942   5.658   3.767 -0.7463 -0.1872  0.2075
 5886TIP3   OH217621   4.074   2.903   0.510 -0.6919  0.0972  0.0596
 5886TIP3    H117622   4.165   2.876   0.504 -0.6683  0.2548 -0.3562
 5886TIP3    H217623   4.024   2.829   0.476 -0.7355 -0.0958  0.5460
 5887TIP3   OH217624   5.577   4.555   4.412 -0.0484 -0.6560  0.2355
 5887TIP3    H117625   5.669   4.567   4.388  1.2095 -1.9064  3.7181
 5887TIP3    H217626   5.566   4.612   4.489 -1.6684 -1.7919  0.8817
 5888TIP3   OH217627   2.035   4.449   1.508 -0.1194  0.5408  0.1450
 5888TIP3    H117628   2.029   4.431   1.414  0.3171  0.9388  0.0401
 5888TIP3    H217629   1.958   4.503   1.526 -1.2021 -0.9925  0.3779
 5889TIP3   OH217630   6.863   3.001   4.993  0.3529  0.1381  0.4691
 5889TIP3    H117631   6.958   3.011   4.987  0.4976  1.0230  3.1340
 5889TIP3    H217632   6.847   2.978   5.084 -1.8407 -2.6987 -0.4722
 5890TIP3   OH217633   5.940   4.836   2.856  0.0871 -0.0939 -0.1570
 5890TIP3    H117634   5.886   4.787   2.917  1.2696  0.0609  1.0764
 5890TIP3    H217635   5.882   4.857   2.783 -2.3525  2.4474  2.2719
 5891TIP3   OH217636   6.006   0.910   2.043 -0.3412 -0.2675 -0.0225
 5891TIP3    H117637   5.955   0.862   2.109 -1.8424 -0.4890 -1.2757
 5891TIP3    H217638   6.044   0.842   1.988 -1.0597 -0.0817 -0.7751
 5892TIP3   OH217639   6.684   2.615   4.485 -0.1137  0.5350  0.5480
 5892TIP3    H117640   6.741   2.596   4.559  0.9642  1.2114 -0.0735
 5892TIP3    H217641   6.637   2.534   4.469  2.1191 -0.7228 -0.1449
 5893TIP3   OH217642   2.253   2.808   1.412 -0.1659 -0.2349  0.2210
 5893TIP3    H117643   2.244   2.716   1.386 -0.9114 -0.3198  0.7449
 5893TIP3    H217644   2.343   2.831   1.388 -0.6252 -0.4611 -1.8954
 5894TIP3   OH217645   5.976   1.850   5.361  0.1584 -0.1423  0.0892
 5894TIP3    H117646   6.022   1.869   5.279 -0.5793 -2.0914 -0.8563
 5894TIP3    H217647   5.886   1.877   5.345  0.4240  1.3788  1.0368
 5895TIP3   OH217648   4.439   4.778   0.090  0.0677  0.4201 -0.0107
 5895TIP3    H117649   4.397   4.699   0.057 -0.8153  0.5538  0.7556
 5895TIP3    H217650   4.523   4.782   0.043 -0.7720  0.1600 -1.6048
 5896TIP3   OH217651   6.732   0.715   5.387 -0.2162  0.0848  0.8842
 5896TIP3    H117652   6.797   0.645   5.384 -2.7393 -2.4638 -1.1975
 5896TIP3    H217653   6.753   0.764   5.466  3.8198 -0.8285  0.6106
 5897TIP3   OH217654   5.188   4.256   0.636  0.2715 -0.6587  0.4113
 5897TIP3    H117655   5.269   4.272   0.684  0.0911 -0.7918  0.7672
 5897TIP3    H217656   5.193   4.314   0.560  0.3723 -0.1285  0.8134
 5898TIP3   OH217657   1.131   6.462   0.091  0.5249 -0.2238 -0.2675
 5898TIP3    H117658   1.205   6.489   0.037 -0.2171  1.7493 -0.3780
 5898TIP3    H217659   1.079   6.405   0.033  0.8598  0.1041 -0.9045
 5899TIP3   OH217660   5.450   1.765   5.535  0.1250  0.1309  0.0752
 5899TIP3    H117661   5.433   1.679   5.497 -1.1265  0.0549  0.7349
 5899TIP3    H217662   5.545   1.772   5.538  0.4483  0.8784 -4.5905
 5900TIP3   OH217663   6.337   5.815   3.027 -0.1483  0.3604  0.2174
 5900TIP3    H117664   6.338   5.851   2.938  0.5104  0.2374  0.1630
 5900TIP3    H217665   6.281   5.874   3.077  1.6593  2.0815  0.3598
 5901TIP3   OH217666   1.046   2.010   0.677  0.1101  0.1858 -0.3226
 5901TIP3    H117667   1.087   2.093   0.702 -0.7023  0.3188  0.6367
 5901TIP3    H217668   1.001   1.981   0.756  1.0326 -1.5787 -0.3924
 5902TIP3   OH217669   3.304   2.920   1.369  0.0562  0.7031  0.0460
 5902TIP3    H117670   3.352   2.841   1.396 -0.2278  1.3121  2.5426
 5902TIP3    H217671   3.293   2.909   1.275  0.9028 -1.7588  0.1431
 5903TIP3   OH217672   3.359   3.430   1.059  0.6482  0.0218  0.2952
 5903TIP3    H117673   3.371   3.516   1.019 -0.5367  0.4010  0.7143
 5903TIP3    H217674   3.424   3.374   1.016 -0.3415  0.4685 -1.9203
 5904TIP3   OH217675   6.802   3.303   3.499  0.6547 -0.0305  0.2245
 5904TIP3    H117676   6.880   3.310   3.443  0.9549  0.0245  0.6404
 5904TIP3    H217677   6.766   3.217   3.480  0.1311  0.3988 -0.8473
 5905TIP3   OH217678   6.710   1.184   1.593  0.4868 -0.1224  0.0280
 5905TIP3    H117679   6.716   1.135   1.674  2.1437 -2.1946 -1.2412
 5905TIP3    H217680   6.775   1.254   1.601  0.6572 -0.3315  0.4667
 5906TIP3   OH217681   5.500   3.852   0.648 -0.6720 -0.7558 -0.5277
 5906TIP3    H117682   5.563   3.875   0.717  0.2580 -0.9626 -1.2952
 5906TIP3    H217683   5.416   3.886   0.681 -0.3648 -1.3448  0.9693
 5907TIP3   OH217684   3.485   3.064   3.394 -0.1144 -0.1623  0.1837
 5907TIP3    H117685   3.394   3.040   3.413  0.8280 -1.3131  4.0259
 5907TIP3    H217686   3.498   3.146   3.442  0.6006  0.7048 -1.4037
 5908TIP3   OH217687   1.064   4.475   2.110 -0.3215 -0.0684 -0.0115
 5908TIP3    H117688   1.017   4.433   2.038 -0.8343  0.5976 -0.0685
 5908TIP3    H217689   1.156   4.470   2.084 -0.2005 -2.3363  0.5944
 5909TIP3   OH217690   6.062   4.758   4.104 -0.1757 -0.3265  0.3577
 5909TIP3    H117691   6.156   4.761   4.122 -0.2643 -0.6540  0.8822
 5909TIP3    H217692   6.056   4.728   4.013  0.2935  2.0172 -0.5167
 5910TIP3   OH217693   6.169   6.547   4.724  0.0807  0.1307  0.1376
 5910TIP3    H117694   6.080   6.563   4.693  0.2073 -1.2666 -1.0237
 5910TIP3    H217695   6.160   6.541   4.819 -0.9230  0.8292  0.1034
 5911TIP3   OH217696   4.147   3.135   3.538 -0.5639 -0.4607  0.6205
 5911TIP3    H117697   4.241   3.148   3.527 -0.3738 -1.5863  0.8181
 5911TIP3    H217698   4.108   3.180   3.462  0.0193  1.1386  1.2277
 5912TIP3   OH217699   1.471   2.831   5.858 -0.1262  0.0676  0.0252
 5912TIP3    H117700   1.492   2.881   5.936 -1.0293  0.1114  0.2550
 5912TIP3    H217701   1.541   2.851   5.796 -0.8672  2.3008 -0.1896
 5913TIP3   OH217702   5.366   0.901   1.357 -0.2480  0.6643  0.9470
 5913TIP3    H117703   5.326   0.949   1.284  0.7394 -0.6014 -0.4756
 5913TIP3    H217704   5.381   0.813   1.323 -0.7405 -0.2908  3.0519
 5914TIP3   OH217705   0.115   5.073   3.957  0.0947 -0.3423  0.2372
 5914TIP3    H117706   0.167   5.090   3.878 -1.1279  0.4253 -0.4482
 5914TIP3    H217707   0.161   5.003   4.002  3.6572  2.5355  1.5152
 5915TIP3   OH217708   6.889   5.179   4.766  0.4244 -0.2869 -0.2581
 5915TIP3    H117709   6.982   5.158   4.758  0.2249 -1.4052  0.1659
 5915TIP3    H217710   6.854   5.162   4.678  0.2143 -2.1625  0.1367
 5916TIP3   OH217711   6.843   4.343   3.993  0.1927 -0.2292  0.1612
 5916TIP3    H117712   6.902   4.413   3.965 -0.3379  0.8443  1.6354
 5916TIP3    H217713   6.779   4.335   3.922  1.6960 -1.0037 -1.1838
 5917TIP3   OH217714   3.524   6.681   4.349 -0.4523 -0.5758 -0.2146
 5917TIP3    H117715   3.566   6.662   4.266 -1.2088  1.0165 -1.0118
 5917TIP3    H217716   3.597   6.691   4.411  0.2690  0.4708 -1.2000
 5918TIP3   OH217717   6.971   0.560   5.419  0.2589 -0.3598  0.2734
 5918TIP3    H117718   6.934   0.472   5.421  1.4532 -0.8814  1.6340
 5918TIP3    H217719   6.997   0.573   5.328 -3.8430  0.3839 -1.0144
 5919TIP3   OH217720   6.322   5.959   1.518  0.1004  0.4569  0.2974
 5919TIP3    H117721   6.329   6.047   1.480  1.1494  1.1324  1.9634
 5919TIP3    H217722   6.411   5.925   1.515 -0.2124 -0.3618  0.1271
 5920TIP3   OH217723   7.203   1.197   1.043 -0.3895  0.2337 -0.4701
 5920TIP3    H117724   7.238   1.117   1.003  0.8736  0.9252 -0.7852
 5920TIP3    H217725   7.108   1.191   1.028 -0.4874 -1.7782  0.5791
 5921TIP3   OH217726   5.524   0.562   2.861 -0.4035  0.6591 -0.0684
 5921TIP3    H117727   5.436   0.537   2.890 -1.6795  3.6266 -1.0101
 5921TIP3    H217728   5.518   0.656   2.844  2.7363  0.7964 -1.0439
 5922TIP3   OH217729   3.593   1.041   2.656 -0.3406  0.8965  0.1827
 5922TIP3    H117730   3.517   0.999   2.696  1.5086 -1.3649  1.5813
 5922TIP3    H217731   3.589   1.131   2.687 -0.5633 -0.0470  3.2508
 5923TIP3   OH217732   0.385   5.697   5.777 -0.2915 -0.1070  0.2301
 5923TIP3    H117733   0.391   5.648   5.859 -0.1064  0.6633  0.6938
 5923TIP3    H217734   0.300   5.741   5.782 -0.4986 -0.4474 -0.2253
 5924TIP3   OH217735   7.128   4.059   1.403  0.2569 -0.0084 -0.2308
 5924TIP3    H117736   7.203   4.033   1.456  1.3360 -1.5772 -2.3597
 5924TIP3    H217737   7.094   3.977   1.366 -1.6143  0.8186 -0.4907
 5925TIP3   OH217738   3.106   2.001   0.055 -0.0966  0.0623 -0.0251
 5925TIP3    H117739   3.190   1.956   0.059  0.1172  0.4900  0.3688
 5925TIP3    H217740   3.065   1.968  -0.026  0.1078 -0.7281  0.1867
 5926TIP3   OH217741   0.091   3.864   3.519  0.2985 -0.5949 -0.1896
 5926TIP3    H117742   0.025   3.933   3.521  0.3209 -0.5750 -0.1178
 5926TIP3    H217743   0.171   3.906   3.551  1.0276  0.0864 -2.6693
 5927TIP3   OH217744   5.146   2.945   2.350 -0.2593  0.4008  0.2885
 5927TIP3    H117745   5.155   2.870   2.408 -1.0793  0.4914  0.5415
 5927TIP3    H217746   5.059   2.937   2.312 -0.4283  1.3187  0.4513
 5928TIP3   OH217747   2.893   2.885   5.342  0.0226 -0.2941 -0.3567
 5928TIP3    H117748   2.855   2.863   5.257 -1.4084 -1.0027  0.4348
 5928TIP3    H217749   2.848   2.964   5.370 -1.0834 -1.2402  0.6670
 5929TIP3   OH217750   0.830   2.389   3.319 -0.1888 -0.0443  0.3017
 5929TIP3    H117751   0.799   2.316   3.266 -0.5961  0.5498 -0.2908
 5929TIP3    H217752   0.845   2.350   3.405 -1.5434 -0.5923  0.3301
 5930TIP3   OH217753   4.891   2.927   4.971  0.4742  0.0493 -0.1335
 5930TIP3    H117754   4.938   2.845   4.957  1.1867  0.4675 -0.2528
 5930TIP3    H217755   4.860   2.922   5.062  1.4320  0.1044  0.2025
 5931TIP3   OH217756   0.535   4.506   1.440  0.5209  0.5347 -0.4671
 5931TIP3    H117757   0.453   4.496   1.489  1.0486  0.2836  0.3892
 5931TIP3    H217758   0.536   4.598   1.413  0.4024  0.7914  0.3631
 5932TIP3   OH217759   0.737   2.380   2.978  0.3093 -0.1382 -0.6757
 5932TIP3    H117760   0.671   2.434   3.021  1.2153 -0.1585  0.7840
 5932TIP3    H217761   0.753   2.424   2.895  0.1367  1.1445 -0.0534
 5933TIP3   OH217762   2.424   5.460   3.531 -0.0700 -0.2251  0.1822
 5933TIP3    H117763   2.379   5.544   3.533  0.6520  0.2140 -1.0089
 5933TIP3    H217764   2.380   5.407   3.598 -0.3850  1.1662  1.1100
 5934TIP3   OH217765   4.828   3.114   2.981 -0.2010 -0.1159 -0.3006
 5934TIP3    H117766   4.851   3.201   2.951 -2.7656  0.4084 -0.8955
 5934TIP3    H217767   4.890   3.097   3.052  1.5775  1.3620 -1.4068
 5935TIP3   OH217768   4.523   6.350   0.929 -0.0698  0.1116  0.3790
 5935TIP3    H117769   4.568   6.266   0.938 -1.8252 -1.3449 -2.7020
 5935TIP3    H217770   4.577   6.400   0.867 -1.1355 -0.5035 -1.0947
 5936TIP3   OH217771   2.784   2.384   4.620 -0.0426 -0.5288 -0.0459
 5936TIP3    H117772   2.705   2.411   4.666 -0.4499  1.1882 -1.6264
 5936TIP3    H217773   2.781   2.288   4.621 -1.1770 -0.5029  1.4901
 5937TIP3   OH217774   5.219   6.114   1.540  0.1848  0.0902  0.5265
 5937TIP3    H117775   5.217   6.036   1.484 -1.8322  0.2545  0.2819
 5937TIP3    H217776   5.216   6.080   1.629  2.3687 -0.1462  0.5558
 5938TIP3   OH217777   3.892   0.977   3.759  0.6407 -0.0934 -0.5812
 5938TIP3    H117778   3.813   0.967   3.705 -0.6480  3.0161  0.5055
 5938TIP3    H217779   3.862   0.956   3.848  1.5323 -0.6305 -0.3969
 5939TIP3   OH217780   2.413   4.866   0.776  0.2523 -0.5452  0.0862
 5939TIP3    H117781   2.430   4.773   0.784 -1.3601 -0.7486  2.0233
 5939TIP3    H217782   2.499   4.907   0.783  1.2187 -1.8983 -2.7031
 5940TIP3   OH217783   4.082   0.958   0.454  0.4311  0.1844  0.6327
 5940TIP3    H117784   3.987   0.948   0.451  0.2642  1.3189  1.2902
 5940TIP3    H217785   4.095   1.046   0.489  1.7387 -0.6836  2.4598
 5941TIP3   OH217786   4.749   2.766   0.148  0.0019 -0.2364  0.1237
 5941TIP3    H117787   4.752   2.728   0.236 -1.9289 -0.0466  0.3166
 5941TIP3    H217788   4.826   2.823   0.144  0.5499 -0.8449  1.3848
 5942TIP3   OH217789   3.015   5.481   4.268 -0.0218  0.1980  0.3440
 5942TIP3    H117790   2.949   5.412   4.260 -0.5516  0.5057  1.7404
 5942TIP3    H217791   3.066   5.475   4.187 -2.2493  0.4952 -1.1740
 5943TIP3   OH217792   3.408   3.790   1.955 -0.1630  0.1580  0.1578
 5943TIP3    H117793   3.481   3.741   1.994  0.8891  1.2062 -0.4096
 5943TIP3    H217794   3.406   3.762   1.864  0.3713  1.0401 -0.1425
 5944TIP3   OH217795   3.642   6.099   0.543  0.0008  0.9224  0.2528
 5944TIP3    H117796   3.627   6.099   0.638  0.9564  0.8300  0.4112
 5944TIP3    H217797   3.708   6.166   0.529 -2.0404  2.8464 -0.7035
 5945TIP3   OH217798   6.146   3.758   0.065  0.2584  0.9010  0.1254
 5945TIP3    H117799   6.155   3.676   0.017 -1.1020  1.2007 -0.6669
 5945TIP3    H217800   6.157   3.732   0.157 -0.9147 -0.3016 -0.0472
 5946TIP3   OH217801   0.255   3.443   4.797  0.3310  0.3459  0.1157
 5946TIP3    H117802   0.335   3.494   4.804  0.3276  0.6798 -1.9027
 5946TIP3    H217803   0.282   3.352   4.810  0.9800  0.4814 -0.3026
 5947TIP3   OH217804   4.663   6.245   3.371 -0.0360 -0.3371 -0.1990
 5947TIP3    H117805   4.668   6.198   3.454  0.2667 -0.3431 -0.2179
 5947TIP3    H217806   4.601   6.195   3.318 -0.6297 -0.0363  0.2094
 5948TIP3   OH217807   5.344   3.510   2.903  0.1825  0.3604 -0.4678
 5948TIP3    H117808   5.415   3.501   2.966  0.5723  0.4353 -0.8949
 5948TIP3    H217809   5.321   3.420   2.880  0.6041  0.3475 -0.8464
 5949TIP3   OH217810   4.891   0.777   1.355  0.4109  0.0991 -0.2918
 5949TIP3    H117811   4.871   0.686   1.374  0.0406  0.0715 -0.8196
 5949TIP3    H217812   4.934   0.775   1.269 -0.5083  0.5229 -0.7689
 5950TIP3   OH217813   4.257   5.428   1.633  0.5370 -0.2721 -0.6792
 5950TIP3    H117814   4.307   5.404   1.712 -1.2686  2.6914  1.5795
 5950TIP3    H217815   4.323   5.454   1.570  1.9865 -0.3217  0.7431
 5951TIP3   OH217816   2.811   1.083   0.376  0.1286 -0.2620  0.2574
 5951TIP3    H117817   2.745   1.028   0.332  1.0017  0.0332 -1.5164
 5951TIP3    H217818   2.763   1.127   0.446 -1.8161  0.6512 -1.5524
 5952TIP3   OH217819   4.095   0.701   3.473 -0.2809 -0.1655 -0.5525
 5952TIP3    H117820   4.104   0.777   3.531 -3.5641  1.3850 -1.8212
 5952TIP3    H217821   4.040   0.640   3.522  0.2865 -0.6579 -0.5143
 5953TIP3   OH217822   3.906   6.151   3.333  0.2734 -0.1306  0.8129
 5953TIP3    H117823   3.903   6.245   3.317 -3.8071 -0.4482 -2.1234
 5953TIP3    H217824   3.993   6.124   3.304  0.4639  2.3843 -1.3404
 5954TIP3   OH217825   1.761   2.652   5.019 -0.3915 -0.1466  0.2664
 5954TIP3    H117826   1.713   2.672   5.099 -0.4439  0.2084  0.1470
 5954TIP3    H217827   1.713   2.697   4.949 -0.3008 -0.3862  0.0447
 5955TIP3   OH217828   1.661   2.344   4.723  0.3512 -0.5904 -0.0547
 5955TIP3    H117829   1.585   2.358   4.780 -0.0454 -1.2697 -0.4097
 5955TIP3    H217830   1.692   2.432   4.702 -0.5097 -0.3056 -0.1430
 5956TIP3   OH217831   0.755   5.105   3.526  0.0379 -0.1675 -0.3261
 5956TIP3    H117832   0.798   5.187   3.503 -0.3247  0.6420  1.6610
 5956TIP3    H217833   0.827   5.045   3.547  0.3243 -0.5769 -2.3040
 5957TIP3   OH217834   1.249   6.746   2.219  0.4248 -0.1398 -0.6821
 5957TIP3    H117835   1.279   6.831   2.187 -1.1942  1.0973  0.8803
 5957TIP3    H217836   1.284   6.741   2.308 -1.9274  0.3143  0.3382
 5958TIP3   OH217837   3.360   3.301   2.638 -0.1448 -0.0537 -0.4663
 5958TIP3    H117838   3.295   3.232   2.625 -1.7551  1.5362 -1.2721
 5958TIP3    H217839   3.414   3.299   2.559 -0.0896 -0.4795 -0.4180
 5959TIP3   OH217840   4.804   4.968   5.643  0.2743  0.0321 -0.3793
 5959TIP3    H117841   4.710   4.951   5.645  0.5962 -1.8483 -0.2586
 5959TIP3    H217842   4.845   4.882   5.638  2.0128  0.8023 -0.2476
 5960TIP3   OH217843   4.556   5.857   5.499 -0.4436 -0.1119 -0.1319
 5960TIP3    H117844   4.628   5.796   5.481 -2.0738 -1.9573 -0.6857
 5960TIP3    H217845   4.538   5.846   5.593  0.2021  0.6342  0.0934
 5961TIP3   OH217846   4.916   2.949   4.277  0.2707  0.0327 -0.0750
 5961TIP3    H117847   4.877   2.962   4.191  1.2811  1.7197 -0.3307
 5961TIP3    H217848   4.843   2.921   4.333 -0.5839 -0.1685 -1.2614
 5962TIP3   OH217849   6.723   3.774   4.229  0.1678 -0.2549  0.4307
 5962TIP3    H117850   6.707   3.822   4.310 -0.1361  1.4166 -0.5686
 5962TIP3    H217851   6.640   3.727   4.212 -1.3139  2.6267 -0.9649
 5963TIP3   OH217852   5.510   0.469   5.201  0.0007  0.2437  0.4579
 5963TIP3    H117853   5.554   0.553   5.208  1.0513 -0.0612 -1.5907
 5963TIP3    H217854   5.439   0.484   5.138 -0.5354 -0.1487  0.9506
 5964TIP3   OH217855   1.617   3.826   3.933  0.3570 -0.1381  0.1013
 5964TIP3    H117856   1.702   3.790   3.907  1.5691  1.5423  1.4637
 5964TIP3    H217857   1.574   3.754   3.979  0.5637 -1.3406 -1.5003
 5965TIP3   OH217858   3.564   3.222   5.548  0.4083  0.0186  0.6396
 5965TIP3    H117859   3.608   3.202   5.465 -0.8276  0.3971 -0.1349
 5965TIP3    H217860   3.613   3.173   5.614 -0.4821 -2.8855 -0.6989
 5966TIP3   OH217861   2.414   6.153   4.690 -0.3234  0.2411  0.0708
 5966TIP3    H117862   2.423   6.121   4.779 -1.5046  0.2955  0.2214
 5966TIP3    H217863   2.440   6.078   4.635 -2.1987 -0.7405  0.4308
 5967TIP3   OH217864   1.920   2.528   2.531 -0.2883  0.5665  0.2661
 5967TIP3    H117865   1.950   2.506   2.443 -2.1557 -0.5965 -0.1309
 5967TIP3    H217866   1.916   2.623   2.532 -2.4510  0.5790 -1.7545
 5968TIP3   OH217867   6.731   2.290   2.013  0.0158 -0.5990 -0.0015
 5968TIP3    H117868   6.651   2.342   2.013  0.0910 -0.4244  1.7209
 5968TIP3    H217869   6.802   2.354   2.007  0.0653 -0.6733 -0.2502
 5969TIP3   OH217870   5.144   2.032   1.895  0.4092 -0.3642  0.1604
 5969TIP3    H117871   5.217   1.973   1.911  0.0152 -1.3149 -1.3554
 5969TIP3    H217872   5.086   2.019   1.969  0.9664 -0.8822  0.5138
 5970TIP3   OH217873   2.028   6.198   0.346  0.0508 -0.1800 -0.5209
 5970TIP3    H117874   1.954   6.243   0.387 -0.0341 -2.5492  2.2158
 5970TIP3    H217875   2.046   6.250   0.268 -2.4340  2.3185  0.3669
 5971TIP3   OH217876   5.991   0.529   1.908  0.0490  0.2946  0.0326
 5971TIP3    H117877   6.067   0.584   1.889  0.4688 -0.0480  0.7020
 5971TIP3    H217878   5.931   0.587   1.955 -0.2843  0.6746 -0.8321
 5972TIP3   OH217879   0.061   5.866   2.447 -0.0765  0.3224 -0.2997
 5972TIP3    H117880   0.138   5.906   2.406 -0.5789 -0.1495 -1.7618
 5972TIP3    H217881   0.074   5.772   2.436 -0.6921  0.2255 -0.2371
 5973TIP3   OH217882   5.896   1.087   4.129 -0.2228  1.1940  0.2370
 5973TIP3    H117883   5.802   1.074   4.121 -0.7337  2.9157  2.4768
 5973TIP3    H217884   5.907   1.140   4.208  2.5275  2.2988 -0.7418
 5974TIP3   OH217885   2.256   0.452   1.646  0.3036  0.5176 -0.1022
 5974TIP3    H117886   2.207   0.531   1.668  0.7292  0.6991  0.2169
 5974TIP3    H217887   2.307   0.433   1.725  1.1574  0.6427 -0.6035
 5975TIP3   OH217888   2.340   4.739   0.407 -0.5214  0.6534 -0.0731
 5975TIP3    H117889   2.254   4.763   0.372 -0.2065  0.9995 -0.6343
 5975TIP3    H217890   2.377   4.822   0.439 -0.2270  0.5834 -0.2229
 5976TIP3   OH217891   4.570   6.013   5.042  0.4290 -0.0637 -0.5676
 5976TIP3    H117892   4.622   5.952   5.095  1.1439 -0.1779 -1.3715
 5976TIP3    H217893   4.537   5.960   4.970 -0.4047  0.1228 -0.3248
 5977TIP3   OH217894   3.927   1.929   3.890  0.0940  0.4431 -0.8961
 5977TIP3    H117895   3.837   1.949   3.864 -0.2731  1.7598  1.1752
 5977TIP3    H217896   3.971   2.014   3.896  1.4887 -0.1729 -1.7772
 5978TIP3   OH217897   5.772   4.931   0.172  0.0745  0.2360 -0.7053
 5978TIP3    H117898   5.715   4.992   0.218  1.3258  1.2300 -0.4117
 5978TIP3    H217899   5.858   4.973   0.174  1.5003 -2.4855  1.3731
 5979TIP3   OH217900   3.231   6.070   3.690 -0.3499  0.8453  0.1148
 5979TIP3    H117901   3.150   6.116   3.667  0.0054  1.4030 -0.0240
 5979TIP3    H217902   3.263   6.115   3.768  0.3885  1.3107 -0.4498
 5980TIP3   OH217903   1.164   5.608   2.024 -0.5310  0.0305 -0.3155
 5980TIP3    H117904   1.200   5.646   2.104  0.1435  0.1373 -0.6640
 5980TIP3    H217905   1.218   5.530   2.008 -1.0675 -0.3436 -0.3215
 5981TIP3   OH217906   1.321   6.170   0.637  0.0561  0.1675  0.5364
 5981TIP3    H117907   1.329   6.107   0.566  2.1206  1.6162 -0.6072
 5981TIP3    H217908   1.263   6.238   0.603  0.6748  0.6294  0.3835
 5982TIP3   OH217909   2.825   4.225   5.401  0.0830 -0.3403 -0.0701
 5982TIP3    H117910   2.852   4.306   5.443  1.5430 -0.6174 -0.4035
 5982TIP3    H217911   2.890   4.211   5.332 -1.0051 -1.0230 -0.9932
 5983TIP3   OH217912   0.939   1.903   0.902  0.1043  0.0181  0.8536
 5983TIP3    H117913   0.958   1.891   0.995 -0.3833 -1.5264  0.7906
 5983TIP3    H217914   0.897   1.821   0.876  0.5166  0.2991 -0.8058
 5984TIP3   OH217915   2.535   0.113   2.525  0.0753  0.2574 -0.4278
 5984TIP3    H117916   2.503   0.202   2.539  0.1863  0.0140  1.6983
 5984TIP3    H217917   2.527   0.099   2.430  0.8761  2.8287 -0.9626
 5985TIP3   OH217918   5.441   6.031   3.916  0.3647 -0.3081 -0.0469
 5985TIP3    H117919   5.524   5.989   3.896  0.0486 -0.5090 -1.0174
 5985TIP3    H217920   5.438   6.107   3.858 -0.4194 -0.6972 -0.5548
 5986TIP3   OH217921   4.413   1.100   5.317  0.2316 -0.2713  0.3732
 5986TIP3    H117922   4.396   1.018   5.271 -0.2923  0.2986 -0.4827
 5986TIP3    H217923   4.326   1.140   5.327  0.5734  0.6171 -0.0901
 5987TIP3   OH217924   4.471   5.977   0.637  0.0071  0.2783 -0.1948
 5987TIP3    H117925   4.478   5.952   0.729 -0.4426 -0.7858 -0.4313
 5987TIP3    H217926   4.486   6.071   0.636  1.4292  0.0906  0.7907
 5988TIP3   OH217927   5.944   3.949   0.298  0.1872  0.2391  0.0357
 5988TIP3    H117928   5.950   4.042   0.277 -0.2450  0.1056 -0.7053
 5988TIP3    H217929   5.855   3.925   0.272  0.0295 -0.2043  0.9471
 5989TIP3   OH217930   2.631   3.026   0.550 -0.2291 -0.0585 -0.4145
 5989TIP3    H117931   2.719   3.062   0.537  0.1406 -0.0024  1.8791
 5989TIP3    H217932   2.576   3.102   0.564 -0.0312 -0.1986  1.2801
 5990TIP3   OH217933   6.155   5.268   0.158  0.2091 -0.0301  0.5366
 5990TIP3    H117934   6.084   5.215   0.195  0.6404 -0.1648  1.1873
 5990TIP3    H217935   6.111   5.343   0.120 -0.3465 -0.4748  0.2906
 5991TIP3   OH217936   3.099   0.723   5.616 -0.0133  0.5396 -0.0639
 5991TIP3    H117937   3.066   0.676   5.539  0.0989  1.7994 -0.9184
 5991TIP3    H217938   3.035   0.704   5.684 -2.0136  2.0618 -1.3971
 5992TIP3   OH217939   3.455   4.614   3.736 -0.2053 -0.0561  0.2201
 5992TIP3    H117940   3.424   4.698   3.771 -1.5654 -1.8494  3.9081
 5992TIP3    H217941   3.383   4.583   3.681 -1.2503 -0.2499  1.6297
 5993TIP3   OH217942   5.126   3.183   5.530 -0.4115 -0.0372 -0.2528
 5993TIP3    H117943   5.088   3.223   5.609  1.2021  1.3139 -0.1223
 5993TIP3    H217944   5.052   3.174   5.470 -1.7842 -1.5074  1.5175
 5994TIP3   OH217945   6.811   4.774   4.603  0.0794  0.2884  0.4720
 5994TIP3    H117946   6.836   4.804   4.691 -2.0542 -0.7494  1.5314
 5994TIP3    H217947   6.851   4.688   4.595  0.3952  0.4445  0.3603
 5995TIP3   OH217948   3.933   3.044   1.947 -0.0879  0.5454 -0.5461
 5995TIP3    H117949   4.004   3.069   1.888 -0.4351  0.6036 -0.9512
 5995TIP3    H217950   3.860   3.100   1.920 -0.9644 -1.0182 -1.6302
 5996TIP3   OH217951   4.456   5.645   2.424  0.0237  0.4454  0.5057
 5996TIP3    H117952   4.530   5.603   2.379 -0.5707  0.6093 -0.6787
 5996TIP3    H217953   4.434   5.586   2.495 -1.0406 -1.5107 -1.3411
 5997TIP3   OH217954   6.532   1.954   5.777  0.2784 -0.3747 -0.1695
 5997TIP3    H117955   6.544   1.882   5.715  2.1207 -0.0934 -0.2041
 5997TIP3    H217956   6.602   2.016   5.755 -0.2191  0.6206  0.9563
 5998TIP3   OH217957   6.886   2.762   5.495  0.3653  0.6602 -0.6657
 5998TIP3    H117958   6.925   2.675   5.501  1.1165  1.0846  1.1995
 5998TIP3    H217959   6.796   2.746   5.465  0.5568 -0.7238 -0.5740
 5999TIP3   OH217960   3.838   1.376   2.116  0.2226  0.8805  0.0151
 5999TIP3    H117961   3.758   1.359   2.165 -0.4378  2.8398 -0.3253
 5999TIP3    H217962   3.872   1.288   2.094 -1.7724  0.0142  0.2263
 6000TIP3   OH217963   6.498   1.994   2.035  0.1565 -0.3442  0.7471
 6000TIP3    H117964   6.464   2.009   2.123 -1.5322 -1.0443  0.2466
 6000TIP3    H217965   6.486   1.900   2.020  1.1736 -0.3778  0.0552
 6001TIP3   OH217966   2.617   6.482   0.634  0.3025  0.1083  0.4408
 6001TIP3    H117967   2.639   6.541   0.706  1.5509 -1.2985  1.3028
 6001TIP3    H217968   2.554   6.529   0.581 -0.3384  1.3600  2.2426
 6002TIP3   OH217969   1.204   1.391   5.645  0.4607  0.1719 -0.1984
 6002TIP3    H117970   1.272   1.458   5.645 -0.0900  0.7536  0.8656
 6002TIP3    H217971   1.168   1.393   5.733 -1.4288  0.3804 -0.9214
 6003TIP3   OH217972   1.232   0.640   5.007 -0.1817 -0.1321 -0.2245
 6003TIP3    H117973   1.289   0.675   5.075 -0.6776  1.2864 -0.4901
 6003TIP3    H217974   1.285   0.576   4.961  0.4910 -0.3740  0.8569
 6004TIP3   OH217975   6.917   1.909   1.086 -0.5630 -0.4656  0.3488
 6004TIP3    H117976   6.907   1.849   1.160 -1.2449  1.0035  1.4915
 6004TIP3    H217977   6.827   1.925   1.056 -0.2470 -1.9873 -1.6399
 6005TIP3   OH217978   1.496   0.017   2.944 -0.5337 -0.2715  0.2989
 6005TIP3    H117979   1.498   0.074   3.021  0.3340  0.8904 -0.5413
 6005TIP3    H217980   1.495  -0.071   2.979  1.0418  0.2045  1.6591
 6006TIP3   OH217981   4.035   3.965   3.004 -0.2915  0.0944 -0.2544
 6006TIP3    H117982   3.981   3.918   3.067 -0.2027  1.6923  1.0712
 6006TIP3    H217983   4.042   4.054   3.039  2.0179  0.3223 -1.1021
 6007TIP3   OH217984   4.951   4.349   0.760  0.0248 -0.4191  0.2841
 6007TIP3    H117985   4.978   4.432   0.799 -0.5320 -0.2485  0.3095
 6007TIP3    H217986   5.031   4.314   0.720  0.3378 -0.0401  0.5740
 6008TIP3   OH217987   6.134   3.252   5.526  0.6721 -0.1195 -0.2347
 6008TIP3    H117988   6.066   3.185   5.537 -0.0500  0.5669 -0.4264
 6008TIP3    H217989   6.120   3.313   5.598  1.7173 -0.4841  0.2990
 6009TIP3   OH217990   4.008   5.367   5.160 -0.9132 -0.0668 -0.1112
 6009TIP3    H117991   4.093   5.345   5.122 -0.6516  0.4498  0.1771
 6009TIP3    H217992   3.987   5.292   5.217 -0.3613  0.0927  0.3059
 6010TIP3   OH217993   3.378   6.486   2.947 -0.0732 -0.4669 -0.8444
 6010TIP3    H117994   3.310   6.553   2.952  0.9190  0.5779 -0.9313
 6010TIP3    H217995   3.330   6.405   2.931 -1.2304  0.3934 -1.9482
 6011TIP3   OH217996   0.144   3.563   2.181 -0.3803  0.8243  0.3246
 6011TIP3    H117997   0.234   3.595   2.180  0.4118 -1.1369  1.4675
 6011TIP3    H217998   0.125   3.549   2.274 -1.5586  0.4050  0.0367
 6012TIP3   OH217999   2.413   1.011   3.655 -0.3299  0.1404 -0.1934
 6012TIP3    H118000   2.322   1.041   3.655 -0.1362  0.9430  2.0310
 6012TIP3    H218001   2.461   1.081   3.700  1.0394 -1.1798  0.4748
 6013TIP3   OH218002   6.212   4.609   5.640  0.0013 -0.0621  0.2580
 6013TIP3    H118003   6.260   4.682   5.601  1.8250 -1.6762 -0.6784
 6013TIP3    H218004   6.273   4.569   5.701 -0.1744 -1.9918 -0.7308
 6014TIP3   OH218005   5.249   1.348   5.789 -0.7596 -0.2540 -0.0950
 6014TIP3    H118006   5.215   1.284   5.726 -1.5824  1.1200 -1.1168
 6014TIP3    H218007   5.173   1.402   5.812  0.0501  0.8149  0.1523
 6015TIP3   OH218008   1.570   1.030   2.318 -0.0860 -0.7777 -0.6486
 6015TIP3    H118009   1.482   1.057   2.293 -0.0739 -0.2500 -0.1513
 6015TIP3    H218010   1.627   1.068   2.252 -0.1226 -0.0384 -0.2663
 6016TIP3   OH218011   2.463   1.319   2.837 -0.1188 -0.2476  0.6446
 6016TIP3    H118012   2.501   1.324   2.749  0.3402 -0.7410  0.8057
 6016TIP3    H218013   2.388   1.261   2.827 -0.0192 -0.3681  0.5890
 6017TIP3   OH218014   3.924   1.180   4.818 -0.1154 -0.4012  0.1525
 6017TIP3    H118015   3.857   1.174   4.750  0.2478 -0.6540 -0.1888
 6017TIP3    H218016   4.001   1.214   4.773 -0.7540  2.4874  1.0739
 6018TIP3   OH218017   1.520   3.200   5.392  0.0269  0.3849 -0.1279
 6018TIP3    H118018   1.448   3.178   5.333  0.1794  0.3325 -0.2936
 6018TIP3    H218019   1.589   3.234   5.335  0.4785 -0.4209 -0.0682
 6019TIP3   OH218020   6.066   5.617   3.521 -0.2240 -0.6388  0.7733
 6019TIP3    H118021   6.159   5.597   3.521  0.4262  1.6291 -2.1936
 6019TIP3    H218022   6.047   5.643   3.611  1.8436 -1.6313  1.5684
 6020TIP3   OH218023   3.523   0.908   4.696  0.0692 -0.1920  0.0360
 6020TIP3    H118024   3.505   0.906   4.602  0.0197 -1.0315  0.0544
 6020TIP3    H218025   3.491   0.993   4.725  0.4853  0.2486 -0.7836
 6021TIP3   OH218026   1.655   5.618   2.726 -0.0469  0.0681  0.0707
 6021TIP3    H118027   1.620   5.532   2.748  0.2301 -0.8253 -2.6719
 6021TIP3    H218028   1.578   5.672   2.709 -0.1994  0.1912  1.0644
 6022TIP3   OH218029   3.641   5.159   3.992  0.2033  0.3298 -0.6659
 6022TIP3    H118030   3.625   5.235   4.047 -2.4701  0.9290 -2.0925
 6022TIP3    H218031   3.633   5.084   4.051  1.1034  1.0626  0.4196
 6023TIP3   OH218032   6.235   3.396   3.358  0.0418 -0.2099 -0.2277
 6023TIP3    H118033   6.220   3.385   3.452 -0.8227 -0.9403 -0.4439
 6023TIP3    H218034   6.148   3.400   3.320  0.3871  0.1707 -0.9936
 6024TIP3   OH218035   1.233   1.846   0.559  0.3224  0.3288 -0.2483
 6024TIP3    H118036   1.158   1.903   0.578 -0.7054 -0.6580 -1.1719
 6024TIP3    H218037   1.295   1.864   0.630 -0.8422  1.0873  0.6202
 6025TIP3   OH218038   4.480   0.989   4.741 -0.3634 -0.5799 -0.3367
 6025TIP3    H118039   4.513   1.010   4.653 -0.7563 -0.0886 -0.3690
 6025TIP3    H218040   4.530   1.046   4.800 -1.1881  0.2141 -0.3928
 6026TIP3   OH218041   2.485   3.735   3.043  0.1921 -0.6224 -0.0225
 6026TIP3    H118042   2.422   3.668   3.071 -1.1705 -0.1079 -1.6833
 6026TIP3    H218043   2.530   3.695   2.969 -0.7071  0.3119 -1.0949
 6027TIP3   OH218044   6.933   0.230   2.788 -0.3850  0.2935 -0.2570
 6027TIP3    H118045   6.946   0.211   2.695 -0.4050 -1.6915  0.1107
 6027TIP3    H218046   6.913   0.324   2.791 -3.4578 -0.1115 -2.6068
 6028TIP3   OH218047   1.300   2.918   2.811 -0.2310 -0.6549 -0.0083
 6028TIP3    H118048   1.395   2.911   2.821 -0.3926 -1.6537  0.8352
 6028TIP3    H218049   1.272   2.973   2.884 -0.2416  0.2606 -0.6695
 6029TIP3   OH218050   4.041   6.015   4.917 -0.3184 -0.1584 -0.1000
 6029TIP3    H118051   3.975   5.969   4.969  0.8805 -0.8156  0.8903
 6029TIP3    H218052   4.121   6.011   4.969  0.3520  1.2667 -0.9279
 6030TIP3   OH218053   0.555   3.274   4.137 -0.2209 -0.7588  0.6824
 6030TIP3    H118054   0.468   3.278   4.095  0.7665 -0.0448 -1.4263
 6030TIP3    H218055   0.588   3.187   4.113  0.3927 -0.3065 -0.1733
 6031TIP3   OH218056   2.478   5.731   5.160  0.3074  0.0469 -0.7630
 6031TIP3    H118057   2.384   5.747   5.159  0.2939 -0.0573 -1.4259
 6031TIP3    H218058   2.507   5.765   5.245 -0.7487 -2.4020  0.6571
 6032TIP3   OH218059   5.426   1.387   1.425 -0.4649 -0.0673  0.2258
 6032TIP3    H118060   5.477   1.463   1.454  1.2507 -0.1476 -2.1895
 6032TIP3    H218061   5.411   1.336   1.504  1.0587  1.2492  1.4486
 6033TIP3   OH218062   6.124   1.335   1.060  0.1199 -0.0420 -0.4429
 6033TIP3    H118063   6.072   1.295   0.990  0.4559 -0.4390 -0.4704
 6033TIP3    H218064   6.188   1.268   1.084  1.2879  0.7932 -1.0978
 6034TIP3   OH218065   3.930   2.534   3.013 -0.2590  0.1013 -0.5289
 6034TIP3    H118066   4.009   2.579   2.985 -0.0289 -0.5787 -0.9988
 6034TIP3    H218067   3.956   2.442   3.019 -0.9718 -0.1036 -0.5267
 6035TIP3   OH218068   5.323   4.332   2.172 -0.8587 -0.0527  0.0038
 6035TIP3    H118069   5.343   4.414   2.216 -4.1703  0.4281  0.8947
 6035TIP3    H218070   5.279   4.279   2.239  2.8616 -3.5448  0.1225
 6036TIP3   OH218071   6.722   6.796   0.201  0.3532 -0.3194  0.2771
 6036TIP3    H118072   6.723   6.713   0.152  0.6520  0.2190 -0.6535
 6036TIP3    H218073   6.726   6.769   0.293  1.1948 -1.3189 -0.0326
 6037TIP3   OH218074   6.746   0.036   5.854  0.0076 -0.2917  0.4027
 6037TIP3    H118075   6.810   0.013   5.922  0.2005 -0.7148  0.0839
 6037TIP3    H218076   6.762   0.128   5.836  0.7390 -0.4672  0.1067
 6038TIP3   OH218077   2.138   5.032   2.522  0.0665 -0.1731  0.2858
 6038TIP3    H118078   2.099   5.120   2.520  0.9218  0.2076  0.2623
 6038TIP3    H218079   2.217   5.042   2.574  0.8386 -0.6593 -0.7738
 6039TIP3   OH218080   4.790   6.281   4.243  0.1410  0.1530 -0.0306
 6039TIP3    H118081   4.720   6.328   4.199  1.4219  1.7896 -0.3914
 6039TIP3    H218082   4.806   6.204   4.188 -3.1157 -1.7960  1.4449
 6040TIP3   OH218083   2.671   6.218   3.675 -0.4175 -0.3376  0.1694
 6040TIP3    H118084   2.604   6.157   3.706  0.4046 -1.2771  0.1230
 6040TIP3    H218085   2.646   6.236   3.584 -2.0823  1.4042  0.8942
 6041TIP3   OH218086   6.869   2.386   2.882  0.4858 -0.3599  0.0601
 6041TIP3    H118087   6.773   2.390   2.878  0.5249  0.8059 -0.0076
 6041TIP3    H218088   6.889   2.368   2.974  0.1935 -2.1281 -0.1744
 6042TIP3   OH218089   5.244   1.424   5.000 -0.1167 -0.5727  0.7428
 6042TIP3    H118090   5.309   1.367   4.961 -0.8026 -0.8927  0.0328
 6042TIP3    H218091   5.286   1.510   5.003 -0.0988 -0.4725 -0.9514
 6043TIP3   OH218092   0.526   5.563   0.656  0.7299 -0.5257 -0.0127
 6043TIP3    H118093   0.461   5.627   0.629 -0.3828 -1.3632  0.6011
 6043TIP3    H218094   0.599   5.615   0.688 -0.3851  0.4626  1.0326
 6044TIP3   OH218095   3.278   5.568   0.151  0.4060  0.0715  0.5503
 6044TIP3    H118096   3.292   5.618   0.071  1.4855  0.5978  1.0451
 6044TIP3    H218097   3.210   5.505   0.128 -0.0449  0.8914 -0.4721
 6045TIP3   OH218098   1.321   4.916   3.222 -0.0154 -0.0830  0.2183
 6045TIP3    H118099   1.291   4.968   3.147 -0.3027 -0.1269  0.2999
 6045TIP3    H218100   1.287   4.962   3.299 -0.5710 -0.5771  0.2758
 6046TIP3   OH218101   1.811   1.994   5.391  0.3447  0.1958 -0.1249
 6046TIP3    H118102   1.799   2.015   5.298  1.5154  1.2920 -0.0549
 6046TIP3    H218103   1.793   2.076   5.437 -1.0670 -0.5521  0.7132
 6047TIP3   OH218104   2.404   1.934   2.155  0.1795  0.4408 -0.3113
 6047TIP3    H118105   2.361   1.848   2.153  0.5848  0.1310  1.8136
 6047TIP3    H218106   2.332   1.996   2.166  0.0765  0.0781  1.3146
 6048TIP3   OH218107   6.833   0.482   3.510  0.6737 -1.0866 -0.2435
 6048TIP3    H118108   6.769   0.541   3.469 -0.3688 -1.5289  0.7114
 6048TIP3    H218109   6.861   0.528   3.589  0.8110 -1.3236 -0.1534
 6049TIP3   OH218110   5.382   3.183   3.368 -0.1164  0.1055 -0.5429
 6049TIP3    H118111   5.379   3.196   3.462 -0.6432  3.8594 -0.9124
 6049TIP3    H218112   5.339   3.099   3.354 -0.7274 -0.1988  2.4989
 6050TIP3   OH218113   4.365   0.715   1.251 -0.1868  0.0401  0.2606
 6050TIP3    H118114   4.369   0.807   1.224 -0.1620 -0.1569 -0.4225
 6050TIP3    H218115   4.416   0.712   1.332  0.6689  0.4457 -0.2449
 6051TIP3   OH218116   6.568   1.459   0.770  0.2716 -0.0632 -0.3489
 6051TIP3    H118117   6.526   1.462   0.856  0.2938  0.2112 -0.3463
 6051TIP3    H218118   6.641   1.398   0.781  0.8121  0.6472  0.0693
 6052TIP3   OH218119   2.521   0.921   0.839  0.2049 -0.4192  0.1241
 6052TIP3    H118120   2.477   0.842   0.807  1.8191 -0.6977 -1.5550
 6052TIP3    H218121   2.535   0.904   0.933 -0.4713 -1.6220  0.0293
 6053TIP3   OH218122   0.983   6.248   4.471  0.0504  0.0406  0.1931
 6053TIP3    H118123   0.941   6.332   4.451  0.4691  0.4439  0.9481
 6053TIP3    H218124   1.038   6.230   4.394  2.6236  2.1957  1.3597
 6054TIP3   OH218125   6.622   6.181   4.798 -0.1679  0.6517  0.2539
 6054TIP3    H118126   6.658   6.265   4.825  0.9393 -0.0001  0.8696
 6054TIP3    H218127   6.605   6.190   4.705  1.9235  0.8872 -0.1368
 6055TIP3   OH218128   2.895   5.288   4.522 -0.2130 -0.7604  0.8566
 6055TIP3    H118129   2.983   5.306   4.554 -0.1726 -1.1838  0.9930
 6055TIP3    H218130   2.904   5.285   4.427 -0.0558 -0.9171  0.8753
 6056TIP3   OH218131   2.759   1.559   5.016 -0.1013 -0.4010  0.1494
 6056TIP3    H118132   2.794   1.499   5.082  2.5783  0.0107 -0.7721
 6056TIP3    H218133   2.716   1.628   5.066 -0.2666 -1.3459  1.3427
 6057TIP3   OH218134   1.981   0.534   2.494  0.2109 -0.2127  0.1339
 6057TIP3    H118135   1.945   0.494   2.573 -0.4846 -0.1060 -0.1260
 6057TIP3    H218136   1.917   0.515   2.426  0.0730  0.9822 -0.0906
 6058TIP3   OH218137   1.404   2.608   1.842 -0.1606  0.6464  0.6255
 6058TIP3    H118138   1.314   2.618   1.812 -0.4771  0.6524  1.5365
 6058TIP3    H218139   1.457   2.624   1.764 -0.9758 -1.8802 -0.5790
 6059TIP3   OH218140   3.234   3.818   1.110  0.3844  0.0625  0.1002
 6059TIP3    H118141   3.292   3.856   1.044  0.3726  0.6629  0.4327
 6059TIP3    H218142   3.190   3.746   1.064 -0.2611  1.0075 -0.7915
 6060TIP3   OH218143   2.822   1.076   1.509 -0.0543 -0.9916  1.0502
 6060TIP3    H118144   2.902   1.058   1.459 -1.5383  0.4219 -2.1158
 6060TIP3    H218145   2.830   1.168   1.535 -0.4828 -0.9426  1.0177
 6061TIP3   OH218146   6.010   1.413   1.864  0.2918 -0.2747  0.4609
 6061TIP3    H118147   5.984   1.322   1.875  0.6426 -0.3846  0.3812
 6061TIP3    H218148   6.071   1.412   1.790 -1.0770  0.2658 -0.7454
 6062TIP3   OH218149   5.837   4.922   4.804  0.0058  0.0531  0.5468
 6062TIP3    H118150   5.753   4.880   4.824 -0.1866  0.3031  0.2848
 6062TIP3    H218151   5.827   4.953   4.714  0.4216 -0.0122  0.4789
 6063TIP3   OH218152   5.967   6.581   5.237  0.3229  0.6136 -0.0216
 6063TIP3    H118153   6.031   6.542   5.296  0.9101  0.6044 -0.6514
 6063TIP3    H218154   5.888   6.528   5.248  0.6734  0.1279  0.1720
 6064TIP3   OH218155   5.840   2.657   0.581 -0.3151  0.1534  0.3847
 6064TIP3    H118156   5.779   2.707   0.635  0.0477 -0.2548  1.1953
 6064TIP3    H218157   5.920   2.710   0.580  0.3195 -0.7323  1.8658
 6065TIP3   OH218158   3.180   2.797   4.651 -0.4069  0.1765  0.4392
 6065TIP3    H118159   3.224   2.800   4.736 -0.7421  0.4009  0.6084
 6065TIP3    H218160   3.227   2.730   4.601 -0.1622  0.0974  0.7758
 6066TIP3   OH218161   6.646   1.691   0.631 -0.1860 -0.5555  0.0393
 6066TIP3    H118162   6.619   1.624   0.694  1.6129 -0.6644  0.7680
 6066TIP3    H218163   6.567   1.711   0.581 -0.8719 -3.0262 -0.0219
 6067TIP3   OH218164   4.602   6.364   5.485 -0.0772  0.2824  0.2410
 6067TIP3    H118165   4.691   6.368   5.448 -0.6697  1.4501 -1.1803
 6067TIP3    H218166   4.558   6.296   5.434  0.3059 -1.2181  1.7988
 6068TIP3   OH218167  -0.008   5.568   5.053 -0.1673  0.3206 -0.7106
 6068TIP3    H118168   0.056   5.507   5.017  0.7157  0.1174  1.0790
 6068TIP3    H218169  -0.047   5.521   5.126 -0.0182  1.5920  0.2315
 6069TIP3   OH218170   4.240   2.046   3.126  0.6135 -0.8845 -0.2811
 6069TIP3    H118171   4.208   2.135   3.111 -1.2822 -1.6550 -1.1963
 6069TIP3    H218172   4.335   2.052   3.116  0.7827  1.4030  1.7135
 6070TIP3   OH218173   3.720   3.114   5.293 -0.2349 -0.3266 -0.2367
 6070TIP3    H118174   3.784   3.093   5.225  0.9469  1.0248  0.4170
 6070TIP3    H218175   3.693   3.029   5.328  0.8285 -0.9340 -0.8569
 6071TIP3   OH218176   6.014   4.887   1.991 -0.1550  0.4014  0.4400
 6071TIP3    H118177   5.922   4.873   1.970  0.2104 -2.3437  0.2792
 6071TIP3    H218178   6.036   4.969   1.947 -2.0004  0.0679 -1.3010
 6072TIP3   OH218179   6.627   3.677   5.553 -0.1105 -0.5154 -1.6159
 6072TIP3    H118180   6.631   3.760   5.505  0.0456  1.5012  1.5232
 6072TIP3    H218181   6.553   3.689   5.613  0.8037 -2.0549 -0.0953
 6073TIP3   OH218182   1.764   2.567   4.623 -0.1850  0.2340 -0.2700
 6073TIP3    H118183   1.796   2.582   4.534 -0.9522  3.5619 -0.1283
 6073TIP3    H218184   1.843   2.571   4.677  0.5198 -3.3632 -0.7656
 6074TIP3   OH218185   3.918   4.457   0.776 -0.5202  0.8104  0.3853
 6074TIP3    H118186   3.885   4.421   0.859  0.2711 -2.2737 -0.4961
 6074TIP3    H218187   4.013   4.451   0.784 -0.4457 -0.3522 -1.0341
 6075TIP3   OH218188   0.622   2.135   5.877  0.3449  0.5505 -0.3901
 6075TIP3    H118189   0.630   2.048   5.838 -0.3624  0.9651 -1.5172
 6075TIP3    H218190   0.649   2.195   5.807 -2.5545  1.4054 -0.9137
 6076TIP3   OH218191   1.325   5.134   1.737 -0.1550 -0.2068 -0.1738
 6076TIP3    H118192   1.307   5.216   1.690  0.2426  0.2955  0.5330
 6076TIP3    H218193   1.263   5.134   1.810  0.2490 -0.2401  0.1734
 6077TIP3   OH218194   1.775   3.814   5.259 -0.7663 -0.1336  0.0921
 6077TIP3    H118195   1.844   3.840   5.198 -1.6886  1.3644 -0.3460
 6077TIP3    H218196   1.808   3.840   5.345 -0.1168 -0.8846  0.0841
 6078TIP3   OH218197   4.449   4.971   5.323 -0.1248 -0.3247  0.0351
 6078TIP3    H118198   4.462   4.877   5.325 -2.4216 -0.7106  2.8203
 6078TIP3    H218199   4.354   4.982   5.322  0.0747  1.9435  0.4610
 6079TIP3   OH218200   6.394   2.958   4.235 -0.2702  0.2652  0.6156
 6079TIP3    H118201   6.334   2.886   4.254 -0.1445  0.0671  0.2679
 6079TIP3    H218202   6.411   2.999   4.320 -0.3653 -0.0950  0.8073
 6080TIP3   OH218203   6.885   5.927   1.916  0.7246  0.5140  0.3159
 6080TIP3    H118204   6.870   6.019   1.935 -0.7548  0.0229  1.7772
 6080TIP3    H218205   6.864   5.918   1.823 -0.7018  1.3657  0.5231
 6081TIP3   OH218206   2.062   5.034   0.601  0.7754  0.3492 -0.3242
 6081TIP3    H118207   2.130   5.040   0.534  0.3064 -2.1508 -1.1398
 6081TIP3    H218208   2.090   4.961   0.658 -0.0970  0.7662  0.6803
 6082TIP3   OH218209   1.674   4.077   4.110  0.2374 -0.1092  0.0671
 6082TIP3    H118210   1.580   4.097   4.102 -0.2750 -1.0463  2.7417
 6082TIP3    H218211   1.704   4.133   4.182  1.3154 -1.0262  0.3603
 6083TIP3   OH218212   3.087   6.139   2.717 -0.2362 -0.3820 -0.4111
 6083TIP3    H118213   3.001   6.177   2.702 -0.7008 -0.5458  1.5746
 6083TIP3    H218214   3.071   6.045   2.723 -0.2216 -0.2876  1.6089
 6084TIP3   OH218215   4.296   2.275   1.784 -0.2379 -0.4838  0.1107
 6084TIP3    H118216   4.372   2.218   1.777 -1.1629 -1.8411  0.7998
 6084TIP3    H218217   4.231   2.223   1.830 -2.0945  0.1112 -1.6787
 6085TIP3   OH218218   5.008   6.103   3.454 -0.1697  0.1825 -0.3622
 6085TIP3    H118219   4.945   6.061   3.512 -0.2387 -1.1015 -1.3303
 6085TIP3    H218220   5.005   6.052   3.373 -0.1586  1.9984 -1.5628
 6086TIP3   OH218221   1.723   1.060   5.754  0.2796 -0.0496  0.1683
 6086TIP3    H118222   1.685   1.024   5.834 -0.8423 -0.7828 -0.6628
 6086TIP3    H218223   1.650   1.099   5.708  0.2709 -2.2379 -1.8785
 6087TIP3   OH218224   0.119   0.680   1.956 -0.0108  0.3609 -0.5408
 6087TIP3    H118225   0.109   0.709   1.865 -0.4753  1.3425 -0.1904
 6087TIP3    H218226   0.155   0.756   2.002  1.4117 -0.5128 -0.1321
 6088TIP3   OH218227   4.775   0.872  -0.003 -0.6190  0.2168  0.1406
 6088TIP3    H118228   4.844   0.884   0.063  1.6217 -0.7438 -1.9076
 6088TIP3    H218229   4.751   0.961  -0.028  1.8448  0.6574 -0.9621
 6089TIP3   OH218230   1.599   2.896   3.949  0.6783 -0.0735  0.3123
 6089TIP3    H118231   1.596   2.832   4.019  1.5227  0.2398  0.6590
 6089TIP3    H218232   1.685   2.883   3.908  0.9562  0.9615  0.5277
 6090TIP3   OH218233   3.983   5.298   1.661  0.1720 -0.2786  0.1615
 6090TIP3    H118234   3.948   5.347   1.735 -1.6343  1.1876 -1.5489
 6090TIP3    H218235   4.068   5.339   1.644 -0.0553  0.3603  0.5344
 6091TIP3   OH218236   3.517   2.688   0.111  0.0248  0.3165  0.6152
 6091TIP3    H118237   3.572   2.619   0.148 -1.8307 -1.1065  0.8541
 6091TIP3    H218238   3.486   2.738   0.186 -1.6979 -1.0171  0.8723
 6092TIP3   OH218239   1.082   0.309   0.975 -0.2323 -0.0384  1.0195
 6092TIP3    H118240   1.027   0.333   1.049 -0.2087  0.9963  0.7200
 6092TIP3    H218241   1.076   0.384   0.915  0.7114 -0.3263  0.5368
 6093TIP3   OH218242   0.942   1.895   4.550 -0.5043 -0.2569  0.5438
 6093TIP3    H118243   1.003   1.942   4.607  0.0053  1.5106 -1.3287
 6093TIP3    H218244   0.991   1.818   4.521  0.2263  0.2450  0.4103
 6094TIP3   OH218245   5.612   5.514   4.449 -0.1930 -0.4848  0.5178
 6094TIP3    H118246   5.599   5.420   4.435  0.3038 -0.3698 -0.8974
 6094TIP3    H218247   5.706   5.523   4.468  0.1862 -0.1149 -1.3024
 6095TIP3   OH218248   3.674   4.096   0.407 -0.4149  0.3995  0.0322
 6095TIP3    H118249   3.746   4.123   0.350 -1.0716 -0.1054 -1.0717
 6095TIP3    H218250   3.614   4.171   0.406 -1.8648 -0.6593 -2.4120
 6096TIP3   OH218251   6.568   1.260   4.300  0.3076  0.1931  0.0342
 6096TIP3    H118252   6.641   1.321   4.290  1.3792 -0.7446  1.7924
 6096TIP3    H218253   6.608   1.174   4.306 -0.9394 -0.3711  0.7683
 6097TIP3   OH218254   7.143   3.099   2.089 -0.1820 -0.1765  0.1160
 6097TIP3    H118255   7.140   3.193   2.105  1.5475 -0.1393  0.4192
 6097TIP3    H218256   7.052   3.074   2.075 -0.7437  1.4160  0.7115
 6098TIP3   OH218257   1.894   4.860   5.268  0.1088 -0.1400 -0.3675
 6098TIP3    H118258   1.884   4.919   5.343 -1.3379 -0.3720 -0.3349
 6098TIP3    H218259   1.846   4.781   5.295 -1.1223  0.0682 -1.8240
 6099TIP3   OH218260   5.627   4.401   3.739  0.0498  0.1826  0.0052
 6099TIP3    H118261   5.621   4.430   3.830 -0.0209  0.0503  0.0424
 6099TIP3    H218262   5.720   4.386   3.724 -0.0524 -0.9747  0.4215
 6100TIP3   OH218263   1.614   0.106   0.643 -0.1508 -0.3024  0.2415
 6100TIP3    H118264   1.553   0.038   0.668  0.2226 -0.7311  0.0053
 6100TIP3    H218265   1.560   0.182   0.625 -0.8209 -1.2322 -1.9507
 6101TIP3   OH218266   0.865   1.657   3.846 -0.0010 -0.0320 -0.6300
 6101TIP3    H118267   0.801   1.662   3.918 -1.8562  0.8233 -2.2598
 6101TIP3    H218268   0.919   1.735   3.858 -0.3129  0.1250 -0.1999
 6102TIP3   OH218269   6.613   0.317   3.862 -0.3119 -0.2134  0.1141
 6102TIP3    H118270   6.559   0.345   3.788  0.7893  1.0692 -0.2506
 6102TIP3    H218271   6.694   0.367   3.853  0.3974 -1.0577  1.4212
 6103TIP3   OH218272   2.113   4.326   5.655 -0.2020 -0.0080  0.4475
 6103TIP3    H118273   2.103   4.231   5.667 -0.0690  0.1965  2.5034
 6103TIP3    H218274   2.098   4.363   5.742 -0.2822  1.8794 -0.3229
 6104TIP3   OH218275   5.047   2.351   4.511  0.1835  0.2385 -0.0422
 6104TIP3    H118276   5.141   2.336   4.518  0.3796  1.2469 -0.3629
 6104TIP3    H218277   5.036   2.444   4.531 -0.4865  0.6362 -2.0148
 6105TIP3   OH218278   2.600   3.190   3.670 -0.0988  0.2098 -0.7496
 6105TIP3    H118279   2.571   3.248   3.600 -1.0439  0.5623 -0.1014
 6105TIP3    H218280   2.695   3.200   3.672 -0.1480  0.9058 -1.3669
 6106TIP3   OH218281   3.439   0.322   2.293 -0.4442  0.1522  0.3863
 6106TIP3    H118282   3.487   0.280   2.364 -1.1368 -0.3029  0.5988
 6106TIP3    H218283   3.347   0.302   2.311 -0.6114 -0.2284 -0.8108
 6107TIP3   OH218284   0.835   3.489   4.315  0.0455  0.1978  0.0879
 6107TIP3    H118285   0.871   3.512   4.230 -1.1039 -0.5727 -0.6316
 6107TIP3    H218286   0.769   3.556   4.333  1.4273  1.3347  1.1864
 6108TIP3   OH218287   5.528   0.055   0.848 -0.5249  0.3127  0.8573
 6108TIP3    H118288   5.571   0.085   0.928 -2.0068  0.8325  1.4904
 6108TIP3    H218289   5.439   0.031   0.875 -1.0383  0.4053 -0.6084
 6109TIP3   OH218290   0.710   4.210   4.952  0.4080 -0.6158  0.2378
 6109TIP3    H118291   0.745   4.124   4.929 -1.2293 -0.5910 -3.0204
 6109TIP3    H218292   0.623   4.192   4.987  1.0487 -0.3660  2.0207
 6110TIP3   OH218293   0.384   2.054   5.518  0.2096 -0.0248  0.0009
 6110TIP3    H118294   0.407   2.092   5.602 -1.3230 -0.5211  0.6788
 6110TIP3    H218295   0.438   1.976   5.511 -1.0647 -1.1055  1.4975
 6111TIP3   OH218296   4.329   1.407   5.826  0.4267  0.1207  0.0559
 6111TIP3    H118297   4.405   1.389   5.770 -0.4487  0.4742 -1.3153
 6111TIP3    H218298   4.339   1.347   5.900  1.5765 -0.4567 -0.5245
 6112TIP3   OH218299   1.711   0.323   4.096 -0.0550  0.2260 -0.5856
 6112TIP3    H118300   1.783   0.262   4.117 -0.9595 -0.0156  2.1760
 6112TIP3    H218301   1.645   0.267   4.054 -0.8210 -0.8058  1.8018
 6113TIP3   OH218302   5.994   4.292   0.670  0.2589  0.1527 -0.6211
 6113TIP3    H118303   5.936   4.226   0.708 -0.6656  1.0962 -0.3367
 6113TIP3    H218304   5.985   4.368   0.728 -0.2313  1.2050 -2.0209
 6114TIP3   OH218305   3.027   5.932   0.146 -0.4914 -0.0561 -0.1715
 6114TIP3    H118306   3.051   5.933   0.238  1.4530  0.2172 -0.6315
 6114TIP3    H218307   2.935   5.905   0.145 -0.9060  1.0656  1.8975
 6115TIP3   OH218308   3.726   3.457   0.060 -0.0435  0.0196 -0.3839
 6115TIP3    H118309   3.650   3.477   0.115 -1.0754  0.7386 -1.9775
 6115TIP3    H218310   3.697   3.385   0.003  0.6164  0.0133 -0.7290
 6116TIP3   OH218311   1.844   2.441   5.372 -0.6815  0.2904 -0.0212
 6116TIP3    H118312   1.936   2.447   5.345 -1.0255  1.5260 -0.9953
 6116TIP3    H218313   1.795   2.440   5.290 -1.5324 -1.1300  0.4631
 6117TIP3   OH218314   3.620   3.834   4.752  0.2723  0.4779  0.3817
 6117TIP3    H118315   3.566   3.759   4.729 -0.5032  0.6051  1.7070
 6117TIP3    H218316   3.660   3.861   4.669 -0.7155 -0.3811 -0.3968
 6118TIP3   OH218317   0.250   3.385   4.121  0.2716  0.6618  0.2057
 6118TIP3    H118318   0.330   3.423   4.158  0.2294  0.7297  0.2271
 6118TIP3    H218319   0.273   3.363   4.030  0.1133  1.2952  0.0122
 6119TIP3   OH218320   0.127   0.254   0.043 -0.0418 -0.1939 -0.2097
 6119TIP3    H118321   0.217   0.276   0.019 -0.3747  1.4758 -0.0641
 6119TIP3    H218322   0.105   0.180  -0.013  1.3745 -0.5516 -0.3365
 6120TIP3   OH218323   0.722   1.262   5.079  0.1304  0.1411  0.1609
 6120TIP3    H118324   0.801   1.316   5.086  1.4292 -1.4770 -1.2565
 6120TIP3    H218325   0.684   1.263   5.168  1.6344  1.0726  0.8291
 6121TIP3   OH218326   1.215   5.608   5.286  0.0367 -0.1661  0.7055
 6121TIP3    H118327   1.239   5.515   5.295  1.1262  0.0052 -0.2044
 6121TIP3    H218328   1.140   5.608   5.227 -0.5641 -0.5212  1.4477
 6122TIP3   OH218329   1.185   3.857   4.343  0.5437 -0.2022  0.0881
 6122TIP3    H118330   1.277   3.856   4.318  0.5542 -1.4039  0.1092
 6122TIP3    H218331   1.158   3.948   4.332  1.3182 -0.1243 -1.4180
 6123TIP3   OH218332   4.752   5.835   3.830  0.0696 -0.0059  0.0370
 6123TIP3    H118333   4.836   5.838   3.874  0.1541  1.2253 -0.1903
 6123TIP3    H218334   4.694   5.789   3.892  0.8716 -0.8011  0.2159
 6124TIP3   OH218335   1.262   3.496   3.639  0.1130 -0.1264  0.5374
 6124TIP3    H118336   1.243   3.546   3.718 -0.4932 -1.4005  1.2252
 6124TIP3    H218337   1.190   3.433   3.633  0.7096 -0.7372 -0.4549
 6125TIP3   OH218338   2.963   3.367   1.604  0.2866 -0.2397 -0.1593
 6125TIP3    H118339   2.987   3.455   1.574 -1.5562 -0.2936 -1.9969
 6125TIP3    H218340   3.028   3.347   1.672  1.8735  1.7852 -0.9540
 6126TIP3   OH218341   4.749   0.616   2.574  0.1625 -0.0007 -0.1443
 6126TIP3    H118342   4.775   0.684   2.635 -1.1571  0.7826 -0.4270
 6126TIP3    H218343   4.676   0.653   2.525 -1.6643 -2.1735  0.7675
 6127TIP3   OH218344   3.965   2.647   3.338 -0.1153 -0.1931 -0.1386
 6127TIP3    H118345   4.024   2.653   3.263 -2.0846 -0.0663 -1.7772
 6127TIP3    H218346   3.968   2.734   3.379  1.1454 -0.3348  0.0975
 6128TIP3   OH218347   5.049   0.789   4.185 -0.2177  0.4418  0.5287
 6128TIP3    H118348   5.019   0.875   4.216  1.0136  0.1280  2.8564
 6128TIP3    H218349   5.140   0.803   4.159 -1.1043  0.5971 -2.9103
 6129TIP3   OH218350   6.594   0.671   2.493  0.1494  0.1533  0.1159
 6129TIP3    H118351   6.666   0.708   2.543  0.2572 -0.8274  0.7211
 6129TIP3    H218352   6.542   0.746   2.465 -0.4115  0.7017  2.4678
 6130TIP3   OH218353   2.167   2.110   2.662  0.0544 -0.4600 -0.0649
 6130TIP3    H118354   2.198   2.151   2.742  0.7597  2.3157 -1.6071
 6130TIP3    H218355   2.073   2.129   2.659  0.2679  0.5843 -0.4792
 6131TIP3   OH218356   2.549   4.741   4.912  0.3539  0.4963  0.2777
 6131TIP3    H118357   2.505   4.746   4.827  0.8795 -0.3161 -0.0496
 6131TIP3    H218358   2.629   4.793   4.900  1.4001 -1.1647 -0.3616
 6132TIP3   OH218359   3.933   5.228   4.186 -0.2170  0.4508 -0.3249
 6132TIP3    H118360   3.987   5.222   4.107  0.1750 -2.5184  0.0523
 6132TIP3    H218361   3.983   5.182   4.253 -1.8356  0.3571  0.8849
 6133TIP3   OH218362   3.181   3.977   2.502  0.0455  0.7518 -0.5763
 6133TIP3    H118363   3.096   3.980   2.545 -0.1455 -0.2139 -0.8650
 6133TIP3    H218364   3.186   4.060   2.454 -0.0970  1.4655  0.6003
 6134TIP3   OH218365   0.883   4.382   4.728  0.4742 -0.2756 -0.8241
 6134TIP3    H118366   0.963   4.393   4.779  1.1088 -1.2884 -1.5456
 6134TIP3    H218367   0.849   4.470   4.715  1.6933  0.2009 -0.8290
 6135TIP3   OH218368   4.267   1.702   0.153  0.2091  0.0518 -0.3691
 6135TIP3    H118369   4.182   1.726   0.117  0.4302  1.1436 -0.2176
 6135TIP3    H218370   4.264   1.734   0.243  1.2233  1.2461 -0.7361
 6136TIP3   OH218371   4.913   4.250   2.023  0.3017 -0.2882 -0.6158
 6136TIP3    H118372   4.869   4.168   2.045 -2.0444  0.9627 -0.3044
 6136TIP3    H218373   5.005   4.227   2.014 -0.5435 -3.3696 -2.7212
 6137TIP3   OH218374   4.363   2.867   0.483 -0.1941  0.6522 -0.2981
 6137TIP3    H118375   4.375   2.908   0.397 -0.1563  1.3705  0.0414
 6137TIP3    H218376   4.430   2.799   0.487  1.8524  2.5865  0.3410
 6138TIP3   OH218377   2.168   0.536   2.780  0.1365 -0.0420  0.0971
 6138TIP3    H118378   2.183   0.482   2.857 -2.2185  0.9742  1.3822
 6138TIP3    H218379   2.116   0.480   2.722 -0.1305 -0.0177  0.3105
 6139TIP3   OH218380   3.986   2.551   2.191  0.1830 -0.4779 -0.0718
 6139TIP3    H118381   4.063   2.519   2.145 -0.9528 -0.0286 -2.4290
 6139TIP3    H218382   3.961   2.631   2.146 -1.0428 -0.0129  1.3283
 6140TIP3   OH218383   4.921   2.004   4.640  0.5481  0.0266  0.1307
 6140TIP3    H118384   4.996   1.996   4.580  0.0771 -2.6535 -0.2290
 6140TIP3    H218385   4.856   2.053   4.591  1.3477  0.6860 -0.2953
 6141TIP3   OH218386   1.175   0.030   5.136  0.0511 -0.2474  0.5818
 6141TIP3    H118387   1.121   0.092   5.185 -0.7387 -1.3484  1.1549
 6141TIP3    H218388   1.177  -0.048   5.191  2.2917 -0.2368  0.5979
 6142TIP3   OH218389   4.947   6.635   3.397  0.6242  0.1212  0.0687
 6142TIP3    H118390   4.966   6.542   3.412  0.8725  0.0082 -0.8846
 6142TIP3    H218391   5.014   6.663   3.335  0.5812  0.9568  0.3934
 6143TIP3   OH218392   4.877   3.274   4.230  0.8279 -0.4074 -1.0148
 6143TIP3    H118393   4.847   3.362   4.208  1.2292 -0.0650 -0.2393
 6143TIP3    H218394   4.810   3.216   4.194 -0.7954  0.3255  0.6072
 6144TIP3   OH218395   4.896   5.017   3.859 -0.0136  0.2411  0.0030
 6144TIP3    H118396   4.876   5.065   3.778  0.8296  1.4093  0.4516
 6144TIP3    H218397   4.975   5.060   3.892 -0.4837 -0.0717  1.5733
 6145TIP3   OH218398   4.510   4.060   5.588  0.0826 -0.2255  0.5678
 6145TIP3    H118399   4.499   4.116   5.665  1.7339 -1.3067  1.6603
 6145TIP3    H218400   4.457   3.983   5.606 -1.6892  0.6301 -0.6551
 6146TIP3   OH218401   6.955   5.286   4.234  0.5073 -0.4089  0.4685
 6146TIP3    H118402   7.038   5.286   4.284  0.4191  2.3769  0.7908
 6146TIP3    H218403   6.888   5.306   4.300  0.0370  0.6242 -0.2970
 6147TIP3   OH218404   3.707   1.908   0.617  0.7074  0.6460 -0.0544
 6147TIP3    H118405   3.720   2.003   0.623  1.1932  0.5655  0.2412
 6147TIP3    H218406   3.632   1.891   0.674 -1.2970  1.2173 -2.3879
 6148TIP3   OH218407   5.669   6.340   0.896 -0.4942 -0.0588 -0.1416
 6148TIP3    H118408   5.611   6.264   0.896 -0.6706 -0.0548 -3.2733
 6148TIP3    H218409   5.626   6.403   0.839  1.9961  0.4068 -1.6505
 6149TIP3   OH218410   1.033   0.498   4.190  0.0482  0.2739 -0.1690
 6149TIP3    H118411   0.961   0.439   4.168 -0.3152  0.2068  1.1005
 6149TIP3    H218412   1.097   0.486   4.121 -1.3590  0.6675 -1.5883
 6150TIP3   OH218413   2.636   2.460   3.296  0.0481  0.3258 -0.3172
 6150TIP3    H118414   2.647   2.399   3.369  0.0743  0.6138 -0.0787
 6150TIP3    H218415   2.725   2.477   3.265 -0.0522 -0.8958 -1.3346
 6151TIP3   OH218416   4.370   1.757   5.120  0.4161  0.4631 -0.0430
 6151TIP3    H118417   4.445   1.732   5.174  0.5383 -0.6202 -0.6998
 6151TIP3    H218418   4.407   1.817   5.055  0.8092 -0.3899 -0.6211
 6152TIP3   OH218419   1.558   4.953   0.904 -0.1838 -0.2528 -0.0601
 6152TIP3    H118420   1.541   4.969   0.811  0.8744  1.0089 -0.0668
 6152TIP3    H218421   1.616   5.024   0.930  2.8962 -2.8026  0.5763
 6153TIP3   OH218422   6.606   5.783   0.013 -0.0107  0.1370  0.0755
 6153TIP3    H118423   6.567   5.861   0.051  1.0174  0.5837  0.2530
 6153TIP3    H218424   6.532   5.725  -0.005 -0.7134  0.8330  0.6641
 6154TIP3   OH218425   7.143   3.065   4.863  0.1184 -0.3745 -0.7820
 6154TIP3    H118426   7.188   3.000   4.809 -0.0183  0.9980 -2.6457
 6154TIP3    H218427   7.206   3.085   4.932  1.1478 -0.7201 -1.5799
 6155TIP3   OH218428   5.896   3.628   2.956  0.4661  0.5028 -0.0610
 6155TIP3    H118429   5.903   3.688   3.031  0.9125  1.2798 -0.7046
 6155TIP3    H218430   5.810   3.587   2.966 -0.0156  1.5301  0.2006
 6156TIP3   OH218431   2.050   6.791   3.191  0.2692  0.4356  0.1626
 6156TIP3    H118432   2.000   6.710   3.192  1.4577 -0.3867 -1.7852
 6156TIP3    H218433   1.994   6.855   3.235 -2.4460 -0.4384 -1.8169
 6157TIP3   OH218434   2.151   3.169   0.156  0.3710  0.4306  0.1863
 6157TIP3    H118435   2.094   3.242   0.178  0.0278  0.4444 -0.6710
 6157TIP3    H218436   2.097   3.114   0.098  1.0501  0.1628 -0.2025
 6158TIP3   OH218437   5.065   5.636   5.820  0.2829 -0.1640 -0.3008
 6158TIP3    H118438   5.010   5.714   5.810 -1.0815 -1.1624 -0.9383
 6158TIP3    H218439   5.142   5.667   5.866 -1.2069  1.1455  1.4723
 6159TIP3   OH218440   4.701   2.868   2.994 -0.1365  0.0666 -0.3798
 6159TIP3    H118441   4.764   2.809   3.036  1.1302 -0.4369 -2.8273
 6159TIP3    H218442   4.751   2.947   2.974 -1.0473  0.7951  0.1221
 6160TIP3   OH218443   5.828   4.890   0.502  0.2928  0.2538  0.6281
 6160TIP3    H118444   5.883   4.955   0.545  1.0270 -1.2102  2.0134
 6160TIP3    H218445   5.888   4.818   0.480 -0.7725 -0.7027  0.7422
 6161TIP3   OH218446   4.347   5.698   1.887  0.3862 -0.6616  0.1145
 6161TIP3    H118447   4.287   5.664   1.820 -0.1508  1.0144 -0.3017
 6161TIP3    H218448   4.305   5.674   1.970 -0.5354 -0.1138 -0.1701
 6162TIP3   OH218449   0.810   4.597   5.639  0.2087 -0.8831 -0.0077
 6162TIP3    H118450   0.719   4.566   5.636  0.3688 -1.8539  2.3647
 6162TIP3    H218451   0.848   4.568   5.556 -1.3813 -1.3514 -0.6159
 6163TIP3   OH218452   3.698   0.055   5.319 -0.3386  0.0223  0.9646
 6163TIP3    H118453   3.735  -0.029   5.292  0.2297  0.6475 -0.2662
 6163TIP3    H218454   3.604   0.047   5.300 -0.3963 -0.5651  1.4766
 6164TIP3   OH218455   2.043   0.446   3.579 -0.3277  0.1463  0.4043
 6164TIP3    H118456   2.058   0.510   3.510  0.1392 -0.4623 -0.0674
 6164TIP3    H218457   2.052   0.361   3.535  0.2447 -0.2478  1.2630
 6165TIP3   OH218458   4.455   1.679   4.679  0.3474 -0.1953  0.7033
 6165TIP3    H118459   4.519   1.609   4.693  1.3828  0.7869  1.0205
 6165TIP3    H218460   4.507   1.757   4.660 -0.7595  0.6080  0.8175
 6166TIP3   OH218461   7.018   0.600   5.698  0.0803  0.7729  0.2582
 6166TIP3    H118462   6.992   0.603   5.605 -0.2078  2.3616  0.3607
 6166TIP3    H218463   6.975   0.521   5.732  1.6146 -0.8311 -1.3346
 6167TIP3   OH218464   4.127   4.193   3.192 -0.4823  0.2641 -0.4211
 6167TIP3    H118465   4.141   4.287   3.206 -0.4070  0.5298 -2.0526
 6167TIP3    H218466   4.213   4.160   3.165 -0.5952 -0.2120 -0.2116
 6168TIP3   OH218467   2.905   5.189   5.102  0.3027  0.8181  0.1971
 6168TIP3    H118468   2.864   5.186   5.015  2.1857  0.8642 -0.7392
 6168TIP3    H218469   2.859   5.122   5.153 -1.4953  1.4574 -0.4986
 6169TIP3   OH218470   0.210   0.289   2.230 -0.0922 -0.3325 -0.7635
 6169TIP3    H118471   0.149   0.322   2.165 -0.0007 -1.8101 -1.6366
 6169TIP3    H218472   0.154   0.260   2.303 -0.1967  1.2450 -0.1701
 6170TIP3   OH218473   6.538   5.877   3.482 -0.2054  0.3141  0.2846
 6170TIP3    H118474   6.570   5.839   3.564  0.5173  1.0984  0.3816
 6170TIP3    H218475   6.497   5.804   3.436 -3.1312  0.3716  2.5267
 6171TIP3   OH218476   1.487   4.304   0.690  0.1209 -0.3797 -0.2759
 6171TIP3    H118477   1.502   4.312   0.785 -1.5523 -0.9134  0.0619
 6171TIP3    H218478   1.494   4.211   0.672  2.0713 -0.1414 -1.0207
 6172TIP3   OH218479   1.680   3.847   0.248 -0.4499 -0.2017 -0.1312
 6172TIP3    H118480   1.735   3.913   0.206 -1.0820  0.0621 -0.5628
 6172TIP3    H218481   1.677   3.873   0.340  1.0148 -0.8314  0.1265
 6173TIP3   OH218482   0.444   2.622   2.617  0.1054 -0.3631 -0.1852
 6173TIP3    H118483   0.374   2.566   2.650 -0.2653 -0.9858 -1.9425
 6173TIP3    H218484   0.491   2.568   2.554  0.3599  0.9566 -1.1753
 6174TIP3   OH218485   3.172   2.664   5.770  0.0293 -0.2587 -0.1543
 6174TIP3    H118486   3.254   2.623   5.797  0.5864 -0.2323 -1.6738
 6174TIP3    H218487   3.188   2.758   5.779  0.0422 -0.2677 -0.0862
 6175TIP3   OH218488   5.245   3.180   2.281  0.1666 -0.1713 -0.1943
 6175TIP3    H118489   5.335   3.147   2.286  0.1718  0.0243  1.7554
 6175TIP3    H218490   5.190   3.105   2.301  0.0154  0.1951  0.8084
 6176TIP3   OH218491   6.116   0.055   4.478 -0.3747 -0.6667 -0.0425
 6176TIP3    H118492   6.194  -0.001   4.487  0.8252  1.2310  3.3172
 6176TIP3    H218493   6.140   0.117   4.409  0.0958 -1.5596 -0.7049
 6177TIP3   OH218494   1.009   2.966   1.599 -0.2699 -0.1974 -0.2841
 6177TIP3    H118495   0.944   2.937   1.664 -0.6395  2.2657  0.5519
 6177TIP3    H218496   0.983   2.922   1.518 -2.1022 -0.4647  0.3919
 6178TIP3   OH218497   0.212   5.021   0.177 -0.2550  0.0871 -0.0073
 6178TIP3    H118498   0.300   5.058   0.169  0.0041 -0.3293  0.8246
 6178TIP3    H218499   0.223   4.942   0.229 -1.2426  0.5175  0.9157
 6179TIP3   OH218500   0.501   5.637   4.759 -0.2082 -0.1874  0.0245
 6179TIP3    H118501   0.464   5.708   4.813  0.5174  0.1428  0.0985
 6179TIP3    H218502   0.538   5.576   4.822 -0.6273 -0.5187 -0.0501
 6180TIP3   OH218503   1.897   5.365   4.442  0.2921  0.5349 -0.1931
 6180TIP3    H118504   1.806   5.337   4.450  0.0126  0.7531 -2.0093
 6180TIP3    H218505   1.932   5.311   4.371  1.3755  0.9264  0.0337
 6181TIP3   OH218506   4.484   5.664   3.856  0.5510 -0.1249 -0.5962
 6181TIP3    H118507   4.473   5.727   3.785  0.5421  0.4748 -0.0681
 6181TIP3    H218508   4.396   5.636   3.878  0.5104  0.1342 -0.4266
 6182TIP3   OH218509   3.515   4.639   4.306  0.3112  0.6492 -0.1875
 6182TIP3    H118510   3.555   4.719   4.340  0.9518 -0.6492  2.3817
 6182TIP3    H218511   3.580   4.571   4.323 -1.3037 -0.8547  0.2483
 6183TIP3   OH218512   0.258   4.078   4.034 -0.6596 -0.1521  0.2327
 6183TIP3    H118513   0.227   4.049   4.119 -0.8074 -0.7525 -0.0213
 6183TIP3    H218514   0.347   4.110   4.049 -0.3615 -1.0696  0.4524
 6184TIP3   OH218515   3.504   2.891   5.863 -0.5866 -0.0784  0.8382
 6184TIP3    H118516   3.463   2.817   5.907 -0.6609 -0.8446 -0.4617
 6184TIP3    H218517   3.433   2.954   5.850 -0.5218  0.2365  1.9469
 6185TIP3   OH218518   6.157   1.547   0.626 -0.0646  0.1687 -0.0648
 6185TIP3    H118519   6.194   1.465   0.658 -1.8259  0.1770  2.2443
 6185TIP3    H218520   6.186   1.613   0.688 -0.3802  0.9306 -0.7094
 6186TIP3   OH218521   1.151   1.122   4.338 -0.4773 -0.1067 -0.9180
 6186TIP3    H118522   1.173   1.139   4.247 -0.4809  1.6030 -0.6415
 6186TIP3    H218523   1.208   1.049   4.364 -1.4225 -1.5019 -2.6156
 6187TIP3   OH218524   7.050   1.803   2.376  0.4129 -0.3471  0.1952
 6187TIP3    H118525   7.008   1.763   2.452 -1.1560 -0.3838 -0.6368
 6187TIP3    H218526   7.008   1.889   2.368 -0.3047 -0.7865 -1.2609
 6188TIP3   OH218527   5.730   6.442   5.763  0.1855 -0.7571 -0.3259
 6188TIP3    H118528   5.695   6.371   5.818  3.2392 -1.8520  0.3891
 6188TIP3    H218529   5.736   6.404   5.676 -0.5985 -0.4818 -0.5054
 6189TIP3   OH218530   3.014   2.270   5.186  0.4442  0.0069 -0.5402
 6189TIP3    H118531   2.958   2.283   5.109 -0.6332 -1.4773 -0.0478
 6189TIP3    H218532   3.101   2.255   5.151  0.3420  1.1881 -1.3756
 6190TIP3   OH218533   4.691   3.378   1.284 -0.2106  0.7079  0.7597
 6190TIP3    H118534   4.785   3.396   1.276 -0.3368  1.5095  0.9622
 6190TIP3    H218535   4.685   3.283   1.292  0.2954  0.0490 -3.8335
 6191TIP3   OH218536   4.435   2.385   3.745  0.1255  0.1971 -0.6525
 6191TIP3    H118537   4.343   2.362   3.760  0.4464 -1.6751 -1.2469
 6191TIP3    H218538   4.442   2.476   3.773 -1.5812 -0.0519  0.7743
 6192TIP3   OH218539   1.800   5.554   5.664 -0.1828  0.8137  0.3641
 6192TIP3    H118540   1.889   5.577   5.689 -0.1083  1.3265 -0.3603
 6192TIP3    H218541   1.756   5.639   5.652 -0.6203  0.5628  0.1903
 6193TIP3   OH218542   3.593   3.945   5.559 -0.3268 -0.4529  0.0916
 6193TIP3    H118543   3.516   3.898   5.592  0.5838 -1.8448  0.3331
 6193TIP3    H218544   3.653   3.875   5.532  1.0997  0.5956  0.4829
 6194TIP3   OH218545   2.157   1.380   5.014  0.3230 -0.4785 -0.5692
 6194TIP3    H118546   2.245   1.349   5.034  0.3426 -0.4951 -0.6805
 6194TIP3    H218547   2.100   1.329   5.071  0.3654 -0.6377 -0.6684
 6195TIP3   OH218548   2.758   0.384   2.338  0.1052  0.2415  0.8105
 6195TIP3    H118549   2.788   0.443   2.407  0.0814  0.1476  0.9004
 6195TIP3    H218550   2.678   0.425   2.305 -0.1353  0.0451  1.1518
 6196TIP3   OH218551   0.028   0.377   2.689 -0.1757 -0.1446 -0.1498
 6196TIP3    H118552   0.083   0.454   2.670  0.4088 -0.4739  0.1934
 6196TIP3    H218553   0.031   0.368   2.784  0.9173 -1.4349 -0.2888
 6197TIP3   OH218554   3.347   1.283   0.944 -0.2920  0.0216  0.7738
 6197TIP3    H118555   3.394   1.202   0.960 -1.7246 -0.4543  3.1431
 6197TIP3    H218556   3.412   1.352   0.960  0.4001 -0.6224  0.8065
 6198TIP3   OH218557   4.874   3.506   5.431  0.7183  0.9245 -0.0491
 6198TIP3    H118558   4.931   3.461   5.367 -0.8626 -0.3520 -0.6405
 6198TIP3    H218559   4.838   3.435   5.484 -1.8018  1.4096 -0.9546
 6199TIP3   OH218560   1.922   4.869   2.522 -0.4992 -0.0627 -0.6670
 6199TIP3    H118561   1.955   4.925   2.452 -1.4917 -0.1819 -1.2537
 6199TIP3    H218562   1.986   4.877   2.592 -0.6969  1.9388 -0.6779
 6200TIP3   OH218563   7.131   5.284   0.820 -0.1098  0.0517  0.4889
 6200TIP3    H118564   7.073   5.210   0.837  0.4602  0.1614  3.3140
 6200TIP3    H218565   7.152   5.319   0.906  3.1860  0.7964 -0.4687
 6201TIP3   OH218566   5.994   3.995   0.808  0.1490  0.1460  0.6176
 6201TIP3    H118567   6.005   4.014   0.715 -1.5123  1.0159  0.5517
 6201TIP3    H218568   6.082   3.999   0.844  0.7309  0.6230 -0.7687
 6202TIP3   OH218569   1.822   3.519   1.168 -0.3557 -0.4411 -0.2529
 6202TIP3    H118570   1.872   3.592   1.130 -1.0993 -0.0086 -0.4268
 6202TIP3    H218571   1.744   3.561   1.204 -0.4314 -1.0650  0.3180
 6203TIP3   OH218572   5.895   0.322   0.910  0.1513  0.3931 -0.1167
 6203TIP3    H118573   5.922   0.385   0.977  0.6106  0.4917 -0.3918
 6203TIP3    H218574   5.800   0.314   0.921 -0.1209  2.0768 -0.8761
 6204TIP3   OH218575   5.901   1.971   3.871 -0.2953 -0.4583  0.1398
 6204TIP3    H118576   5.872   2.014   3.791 -1.1027 -1.4534 -0.1289
 6204TIP3    H218577   5.996   1.964   3.862 -0.0026  2.1219  0.6580
 6205TIP3   OH218578   3.821   0.062   0.476 -0.7205 -0.1485 -0.1848
 6205TIP3    H118579   3.840  -0.022   0.517  0.3991  0.0208 -0.3340
 6205TIP3    H218580   3.824   0.125   0.548 -1.0350 -0.1572 -0.1609
 6206TIP3   OH218581   5.366   2.170   5.702 -0.0911 -0.3402 -0.0845
 6206TIP3    H118582   5.271   2.167   5.714 -0.2648  1.3347 -0.7312
 6206TIP3    H218583   5.402   2.167   5.790 -0.8704  1.4373  0.3302
 6207TIP3   OH218584   1.870   1.381   2.367  0.0070 -0.4580  0.2002
 6207TIP3    H118585   1.784   1.383   2.408  0.7044  1.3137  1.7264
 6207TIP3    H218586   1.853   1.396   2.274 -1.3839 -1.3024  0.2892
 6208TIP3   OH218587   0.998   1.353   2.079  0.2769  0.0563  0.4779
 6208TIP3    H118588   0.928   1.295   2.111 -0.9880  0.8090 -0.8160
 6208TIP3    H218589   0.985   1.435   2.127  1.2684 -0.2723  1.3606
 6209TIP3   OH218590   1.619   5.455   5.851  0.1668 -0.0837  0.0790
 6209TIP3    H118591   1.664   5.494   5.776 -1.1172 -0.0383 -0.7014
 6209TIP3    H218592   1.689   5.423   5.907  1.2004  1.4020 -0.3113
 6210TIP3   OH218593   2.352   2.506   1.893  0.1690 -0.4721  0.0024
 6210TIP3    H118594   2.261   2.534   1.902  0.4346  0.6743 -0.6451
 6210TIP3    H218595   2.367   2.448   1.968 -1.6102 -2.1423 -0.8565
 6211TIP3   OH218596   3.592   1.202   2.068 -0.1523 -0.1348 -0.1826
 6211TIP3    H118597   3.576   1.119   2.024 -2.1696 -0.2201  0.6199
 6211TIP3    H218598   3.536   1.200   2.146 -0.4598  2.0653 -0.2774
 6212TIP3   OH218599   0.884   1.391   3.726 -0.7027  0.0517  0.4909
 6212TIP3    H118600   0.960   1.360   3.775 -1.4582 -2.1994  0.3803
 6212TIP3    H218601   0.860   1.473   3.768  0.2346 -0.5021  2.2228
 6213TIP3   OH218602   3.237   1.829   3.765 -0.0172 -0.3907 -0.1711
 6213TIP3    H118603   3.298   1.902   3.757 -0.8530  0.5359  1.3374
 6213TIP3    H218604   3.151   1.870   3.770 -0.4639 -1.4196  1.2406
 6214TIP3   OH218605   1.527   2.551   1.028  0.1035 -0.1868 -0.5585
 6214TIP3    H118606   1.589   2.519   1.093  0.4047  0.6339 -0.4284
 6214TIP3    H218607   1.576   2.618   0.980 -0.6010  0.2841 -0.6259
 6215TIP3   OH218608   4.505   1.642   2.879 -0.2062 -0.1808 -0.3256
 6215TIP3    H118609   4.510   1.546   2.888 -0.1330  0.0365  4.0831
 6215TIP3    H218610   4.420   1.665   2.917  0.7108  1.6189  0.7456
 6216TIP3   OH218611   5.060   5.264   1.739  0.3207  0.0031  0.0175
 6216TIP3    H118612   5.083   5.194   1.799  0.7522 -0.1222 -0.2893
 6216TIP3    H218613   5.052   5.342   1.794  1.4799  0.0544  0.1449
 6217TIP3   OH218614   4.642   4.309   0.193 -0.3687  0.4427 -0.5264
 6217TIP3    H118615   4.695   4.352   0.126  0.3986  0.9726  0.3984
 6217TIP3    H218616   4.699   4.242   0.230 -1.2917 -0.8844 -1.4033
 6218TIP3   OH218617   1.684   0.831   1.806  0.3842 -0.0488  0.2105
 6218TIP3    H118618   1.617   0.873   1.860 -1.0808 -0.3011 -1.3271
 6218TIP3    H218619   1.708   0.898   1.742 -1.1755 -1.0828 -1.5726
 6219TIP3   OH218620   1.176   1.678   1.315  0.4057  0.1725  0.1147
 6219TIP3    H118621   1.174   1.614   1.386  1.1854 -0.3748 -0.3453
 6219TIP3    H218622   1.268   1.684   1.291  0.5617  2.4589  1.0391
 6220TIP3   OH218623   6.848   2.483   0.053 -0.0838  0.1080 -0.5822
 6220TIP3    H118624   6.789   2.478  -0.022 -0.0173 -0.2275 -0.6097
 6220TIP3    H218625   6.903   2.559   0.035  0.2030 -0.2113 -1.0676
 6221TIP3   OH218626   7.056   2.389   2.605 -0.2069 -0.0331  1.0432
 6221TIP3    H118627   7.070   2.477   2.569 -0.1089 -0.6223 -0.3747
 6221TIP3    H218628   7.134   2.372   2.657  1.3521 -0.5550 -1.3225
 6222TIP3   OH218629   4.959   4.201   1.004  0.2215  0.1698  0.1415
 6222TIP3    H118630   4.951   4.274   1.066  0.2371  0.0902  0.2381
 6222TIP3    H218631   4.937   4.240   0.919 -0.9825  0.0204  0.3673
 6223TIP3   OH218632   4.627   6.222   1.324 -0.5492  0.0736  0.9329
 6223TIP3    H118633   4.581   6.284   1.381  0.0528  1.8782 -0.4601
 6223TIP3    H218634   4.567   6.148   1.317 -0.8830  0.0209  3.4177
 6224TIP3   OH218635   3.851   6.136   5.219 -0.7360  0.0427  0.6103
 6224TIP3    H118636   3.778   6.095   5.171 -1.4502  0.6453  1.1699
 6224TIP3    H218637   3.879   6.208   5.163  0.5525 -1.1653 -0.3987
 6225TIP3   OH218638   4.663   0.799   0.993  0.0396  0.3737  0.2568
 6225TIP3    H118639   4.641   0.744   1.068 -0.4393  2.2314  1.5365
 6225TIP3    H218640   4.755   0.779   0.975 -0.0882 -0.7397  0.7601
 6226TIP3   OH218641   5.386   5.312   3.622 -0.3572 -0.0707 -0.6125
 6226TIP3    H118642   5.412   5.404   3.626  1.3727 -0.5080 -1.0551
 6226TIP3    H218643   5.413   5.276   3.706 -1.2397 -0.1478 -0.3490
 6227TIP3   OH218644   0.418   5.291   1.130  0.8580 -0.3158 -0.4051
 6227TIP3    H118645   0.486   5.273   1.194  0.9636 -0.7064 -0.6267
 6227TIP3    H218646   0.458   5.352   1.068  1.0492 -0.6354 -0.6009
 6228TIP3   OH218647   2.500   0.494   2.209  0.2107  0.2513  0.2563
 6228TIP3    H118648   2.436   0.556   2.245 -0.9122  0.8782 -2.5331
 6228TIP3    H218649   2.448   0.429   2.163  1.5160 -0.5181 -0.2027
 6229TIP3   OH218650   5.042   2.707   5.029  0.1364  0.1055 -0.2443
 6229TIP3    H118651   5.031   2.614   5.047  1.1684 -0.2353 -1.2283
 6229TIP3    H218652   5.137   2.721   5.036  0.2768  0.5421 -2.4409
 6230TIP3   OH218653   2.255   0.122   4.796 -0.1503 -0.9062 -0.1105
 6230TIP3    H118654   2.208   0.063   4.737 -0.3035 -1.1783  0.2767
 6230TIP3    H218655   2.187   0.157   4.854  0.2349 -2.0644  1.1072
 6231TIP3   OH218656   6.612   0.475   5.780  0.5673  0.1063  0.2440
 6231TIP3    H118657   6.520   0.485   5.756  0.8388  0.2506 -0.8156
 6231TIP3    H218658   6.632   0.552   5.833 -0.0768 -0.2520  1.0369
 6232TIP3   OH218659   5.318   6.692   4.604 -0.1436 -0.2485 -0.7959
 6232TIP3    H118660   5.275   6.768   4.565  0.3010 -1.3164 -3.6259
 6232TIP3    H218661   5.377   6.728   4.670 -0.5557  1.7715 -1.4636
 6233TIP3   OH218662   0.234   6.183   1.451  0.3235  0.1230  0.1292
 6233TIP3    H118663   0.161   6.146   1.503  0.7234  1.0316  1.3889
 6233TIP3    H218664   0.269   6.107   1.404  0.5966 -1.0013  2.0074
 6234TIP3   OH218665   0.207   4.719   3.713  0.5437 -0.0054 -0.1573
 6234TIP3    H118666   0.206   4.796   3.657  1.3453  0.5918  0.6077
 6234TIP3    H218667   0.225   4.646   3.654  2.5870  0.7516 -0.5573
 6235TIP3   OH218668   6.046   4.245   4.964  0.3182  0.0781 -0.1721
 6235TIP3    H118669   5.974   4.184   4.947 -1.3028  1.7300  0.2711
 6235TIP3    H218670   6.114   4.222   4.901 -1.5899 -0.0850 -2.3007
 6236TIP3   OH218671   6.973   5.338   0.407 -0.1651 -0.1863  0.0324
 6236TIP3    H118672   7.016   5.299   0.331  1.3541  0.2696  0.6190
 6236TIP3    H218673   7.043   5.385   0.453 -1.7132  2.6539 -0.2492
 6237TIP3   OH218674   7.204   5.334   4.038  0.6148  0.4535  0.1503
 6237TIP3    H118675   7.277   5.274   4.020  0.3967  0.5209 -1.0050
 6237TIP3    H218676   7.126   5.280   4.024  0.4001  0.2292  1.8901
 6238TIP3   OH218677   6.306   6.327   4.276 -0.7528  0.2748 -0.6371
 6238TIP3    H118678   6.284   6.383   4.351 -2.0725  0.5307 -1.1833
 6238TIP3    H218679   6.295   6.238   4.309  0.0672  0.3486 -0.1355
 6239TIP3   OH218680   2.981   2.172   2.441  0.4262  0.2925 -0.2291
 6239TIP3    H118681   3.020   2.092   2.475  0.3784  0.5474  0.4491
 6239TIP3    H218682   3.054   2.220   2.403  0.6073  0.3204  0.1500
 6240TIP3   OH218683   4.955   1.023   5.632  0.8363 -0.3753 -1.1406
 6240TIP3    H118684   4.875   1.059   5.672  1.7012  1.3926 -0.9219
 6240TIP3    H218685   4.949   0.929   5.648 -0.0023 -0.0018  1.0823
 6241TIP3   OH218686   2.429   1.975   2.718 -0.5382 -0.2260  0.2421
 6241TIP3    H118687   2.381   1.930   2.787 -0.4575  0.4434  0.7498
 6241TIP3    H218688   2.362   2.020   2.667 -0.5439 -0.1126  0.3464
 6242TIP3   OH218689   4.969   3.661   1.874 -1.2149 -0.4424 -0.1245
 6242TIP3    H118690   4.974   3.754   1.893 -0.2394 -0.8544  1.9420
 6242TIP3    H218691   5.036   3.646   1.808 -1.2428  0.2829 -0.3202
 6243TIP3   OH218692   2.942   2.502   2.119  0.4318  0.3233  0.4842
 6243TIP3    H118693   2.881   2.432   2.144  2.2864 -2.2684 -1.6509
 6243TIP3    H218694   2.914   2.527   2.031  0.4586  1.5782  0.8117
 6244TIP3   OH218695   1.286   3.497   3.923 -0.4384 -0.4886 -0.4624
 6244TIP3    H118696   1.220   3.535   3.982 -0.5310 -0.6729 -0.4448
 6244TIP3    H218697   1.257   3.406   3.911 -0.5748 -0.3769 -1.0182
 6245TIP3   OH218698   0.050   4.310   3.660  0.4908  0.2081  0.2420
 6245TIP3    H118699   0.111   4.260   3.713  0.8998 -0.4677 -0.8315
 6245TIP3    H218700  -0.033   4.264   3.669  0.7809 -0.4839 -0.4461
 6246TIP3   OH218701   2.229   5.594   0.887 -0.3368 -0.1630  0.3397
 6246TIP3    H118702   2.142   5.628   0.907 -0.7781 -1.3867  0.5574
 6246TIP3    H218703   2.278   5.671   0.857 -0.8221  0.9908  2.2931
 6247TIP3   OH218704   6.843   1.901   0.643  0.1303  0.1276 -0.1471
 6247TIP3    H118705   6.771   1.838   0.644 -0.5715  0.7913 -2.2025
 6247TIP3    H218706   6.800   1.985   0.628  1.3165  0.4657 -1.9299
 6248TIP3   OH218707   2.992   5.653   2.583 -0.3559 -0.4986 -0.6974
 6248TIP3    H118708   2.911   5.605   2.564  0.4061 -1.2572 -2.1620
 6248TIP3    H218709   3.059   5.585   2.584  0.3875  0.2333 -0.2870
 6249TIP3   OH218710   4.138   1.569   1.292 -0.2536  0.4162  0.2169
 6249TIP3    H118711   4.047   1.578   1.263 -0.0831 -0.2733 -0.5931
 6249TIP3    H218712   4.138   1.492   1.348  0.0275 -0.2794 -0.7192
 6250TIP3   OH218713   5.751   4.463   3.373 -0.0278 -0.0962  0.2666
 6250TIP3    H118714   5.709   4.416   3.301 -1.0244  0.8358  0.2264
 6250TIP3    H218715   5.840   4.480   3.342 -0.5652  0.6675 -0.9370
 6251TIP3   OH218716   3.267   6.055   5.851  0.6484 -0.4234 -0.3307
 6251TIP3    H118717   3.206   5.981   5.854  1.3373 -0.9496  1.6490
 6251TIP3    H218718   3.345   6.020   5.809  1.5302 -1.3231  1.9103
 6252TIP3   OH218719   0.492   0.405   4.341  0.0129  0.3547 -0.1918
 6252TIP3    H118720   0.508   0.449   4.258 -0.3778  0.6403 -0.1178
 6252TIP3    H218721   0.397   0.410   4.354 -0.0506 -0.5439 -0.2008
 6253TIP3   OH218722   3.902   6.245   1.615  0.2385 -0.2801 -0.1971
 6253TIP3    H118723   3.897   6.339   1.630  2.0208 -0.0408 -0.7494
 6253TIP3    H218724   3.816   6.211   1.637 -0.6817  1.5942 -0.7645
 6254TIP3   OH218725   1.497   2.099   5.365  0.1984  0.1888  0.1453
 6254TIP3    H118726   1.539   2.131   5.444 -1.2230 -0.5584  1.2490
 6254TIP3    H218727   1.479   2.177   5.313  2.0626  0.5936  0.0586
 6255TIP3   OH218728   2.084   2.977   2.063 -0.4805  0.1518  0.2666
 6255TIP3    H118729   2.068   2.983   2.157  1.8169 -1.5333  0.8401
 6255TIP3    H218730   2.071   2.884   2.042 -0.8772  0.4800 -1.0971
 6256TIP3   OH218731   3.781   0.904   4.788 -0.5447 -0.2855  0.2861
 6256TIP3    H118732   3.831   0.986   4.794  0.3722 -0.3288 -3.7191
 6256TIP3    H218733   3.695   0.931   4.755 -0.1183 -0.8843 -1.4112
 6257TIP3   OH218734   3.393   1.789   4.775  0.5396  0.2470  0.0207
 6257TIP3    H118735   3.368   1.840   4.852 -0.9060  0.3049 -0.4474
 6257TIP3    H218736   3.409   1.701   4.809 -0.1335  0.2610  0.3903
 6258TIP3   OH218737   6.717   2.140   5.689  0.0231 -0.5754 -0.1570
 6258TIP3    H118738   6.725   2.171   5.599 -1.1842  0.7125  0.1487
 6258TIP3    H218739   6.790   2.079   5.700  1.2939  0.6519 -1.4251
 6259TIP3   OH218740   0.040   2.200   0.379  0.1927 -0.3751 -0.1305
 6259TIP3    H118741   0.100   2.140   0.423 -1.2171  0.0543  2.6006
 6259TIP3    H218742  -0.044   2.154   0.378 -0.0059 -0.0725 -1.8630
 6260TIP3   OH218743   6.209   2.638   2.679  0.0756 -0.3300  0.9216
 6260TIP3    H118744   6.214   2.651   2.585 -0.7334  2.0350  1.1467
 6260TIP3    H218745   6.125   2.593   2.693  0.0211 -0.3449  0.5393
 6261TIP3   OH218746   0.351   4.070   3.273  0.4848 -0.4260  0.5380
 6261TIP3    H118747   0.323   3.983   3.244  0.1920 -0.4581  0.9121
 6261TIP3    H218748   0.446   4.062   3.283  0.2770 -1.2052  2.2185
 6262TIP3   OH218749   6.699   3.514   1.711  0.1096 -0.3281  0.2982
 6262TIP3    H118750   6.646   3.573   1.657 -1.0489 -2.1631 -0.6814
 6262TIP3    H218751   6.637   3.478   1.774  0.7215 -0.7464  0.6656
 6263TIP3   OH218752   3.684   4.029   1.084  0.0518  0.5300  0.2702
 6263TIP3    H118753   3.589   4.044   1.085  0.2838  2.1861  1.1685
 6263TIP3    H218754   3.709   4.039   0.992 -0.4138  1.7618  0.2637
 6264TIP3   OH218755   1.857   1.968   3.771 -0.1198  0.2673 -0.0612
 6264TIP3    H118756   1.882   2.045   3.822 -1.4245  0.8241 -0.2246
 6264TIP3    H218757   1.905   1.978   3.688  1.3906 -0.2387  0.7098
 6265TIP3   OH218758   4.224   2.440   3.928  0.4411 -0.0281  0.7675
 6265TIP3    H118759   4.171   2.519   3.919 -0.6175 -0.3432  3.3381
 6265TIP3    H218760   4.160   2.369   3.929  1.2283 -0.7441  0.3128
 6266TIP3   OH218761   4.049   2.358   1.204  0.2833 -0.1540  0.0209
 6266TIP3    H118762   4.005   2.277   1.229 -0.2517 -0.1371 -0.8131
 6266TIP3    H218763   3.981   2.425   1.213  0.8341  0.2830  1.1050
 6267TIP3   OH218764   6.496   1.082   3.013 -0.0154 -0.1632 -0.6591
 6267TIP3    H118765   6.454   1.051   2.933 -0.5057  0.2643 -0.5800
 6267TIP3    H218766   6.508   1.004   3.066  1.5026 -0.6579 -1.6618
 6268TIP3   OH218767   6.418   0.030   5.651 -0.1365 -0.0371 -0.5988
 6268TIP3    H118768   6.496  -0.023   5.669 -0.6204 -1.0572 -1.3731
 6268TIP3    H218769   6.450   0.103   5.598  1.1762  2.5833  3.4295
 6269TIP3   OH218770   2.983   4.202   1.708  0.1149 -0.0581  0.1357
 6269TIP3    H118771   3.030   4.125   1.740 -0.6480 -0.4974  0.2270
 6269TIP3    H218772   2.971   4.185   1.615  1.2864  0.6715 -0.1693
 6270TIP3   OH218773   2.988   1.603   1.040  0.0848 -0.3301 -0.3825
 6270TIP3    H118774   3.012   1.654   1.117 -0.8482 -1.6550  0.8417
 6270TIP3    H218775   3.055   1.536   1.032  0.3455 -0.0150 -0.9255
 6271TIP3   OH218776   0.456   4.598   0.823 -0.3171 -0.5277 -0.0275
 6271TIP3    H118777   0.407   4.633   0.749  0.7905 -1.4726 -1.2685
 6271TIP3    H218778   0.458   4.670   0.887  0.3168  1.0241 -1.7086
 6272TIP3   OH218779   3.635   0.308   1.882 -0.2936 -0.2530  0.2203
 6272TIP3    H118780   3.588   0.385   1.851 -4.2867 -2.6453 -0.3443
 6272TIP3    H218781   3.653   0.257   1.804  0.5548 -0.8246  0.7658
 6273TIP3   OH218782   5.541   0.092   2.998 -0.3623 -0.3785  0.7858
 6273TIP3    H118783   5.502   0.170   3.036 -3.4379 -2.1268  1.5457
 6273TIP3    H218784   5.597   0.057   3.067 -0.1123  0.3503  0.9613
 6274TIP3   OH218785   6.653   5.240   3.095 -0.8991 -0.5333  0.1967
 6274TIP3    H118786   6.561   5.264   3.091 -0.4892  1.1250  0.1675
 6274TIP3    H218787   6.700   5.317   3.064  0.5682 -0.8635  1.4743
 6275TIP3   OH218788   6.397   1.032   4.021 -0.0157 -0.2143  0.4457
 6275TIP3    H118789   6.401   0.962   3.956  0.0967  1.2791 -1.2144
 6275TIP3    H218790   6.463   1.007   4.086 -0.8279 -2.2427  0.5511
 6276TIP3   OH218791   4.740   2.843   1.924 -0.1364 -0.1231  0.5085
 6276TIP3    H118792   4.833   2.853   1.945 -0.0371  0.0623 -0.0120
 6276TIP3    H218793   4.732   2.878   1.836 -0.6667 -0.3196  0.4788
 6277TIP3   OH218794   2.574   2.890   2.491 -0.2101 -0.3193  0.0424
 6277TIP3    H118795   2.555   2.859   2.580 -0.9556 -0.9762 -0.3348
 6277TIP3    H218796   2.517   2.838   2.435 -0.1179  0.4560 -0.7849
 6278TIP3   OH218797   0.904   6.661   0.920  0.4575 -0.0568 -0.1702
 6278TIP3    H118798   0.831   6.640   0.861  0.3301 -0.9263  0.2835
 6278TIP3    H218799   0.906   6.589   0.982  1.4360  0.1812  0.0887
 6279TIP3   OH218800   3.120   0.089   5.519  0.7875 -0.5800 -0.2032
 6279TIP3    H118801   3.059   0.021   5.548 -1.4463  1.2791 -0.2376
 6279TIP3    H218802   3.091   0.111   5.430 -1.0210  2.8599  1.0487
 6280TIP3   OH218803   3.691   3.499   3.391  0.1299  0.1246  0.3367
 6280TIP3    H118804   3.764   3.480   3.331  0.2511 -0.1894  0.5825
 6280TIP3    H218805   3.719   3.577   3.439 -1.2970  2.4198 -2.2465
 6281TIP3   OH218806   1.493   5.192   5.638 -0.0695 -1.1066  0.3235
 6281TIP3    H118807   1.429   5.214   5.706  1.4153 -0.1764  1.4590
 6281TIP3    H218808   1.505   5.273   5.590 -1.0780 -1.7464 -1.0879
 6282TIP3   OH218809   5.214   6.044   3.629 -0.6124 -0.1815  0.2718
 6282TIP3    H118810   5.297   6.069   3.590 -0.8639  0.8633  0.3922
 6282TIP3    H218811   5.148   6.070   3.564 -1.0622  1.9204  1.5031
 6283TIP3   OH218812   6.919   2.661   5.883  0.0340 -0.3654  0.5817
 6283TIP3    H118813   6.933   2.750   5.848  0.5382  0.3392  2.4533
 6283TIP3    H218814   6.977   2.606   5.831  0.3022  0.5308 -0.1004
 6284TIP3   OH218815   2.018   5.522   3.658  0.0046 -0.1420 -0.6799
 6284TIP3    H118816   2.053   5.599   3.702  0.9606  0.0614 -1.7762
 6284TIP3    H218817   1.948   5.555   3.602  0.1944 -0.1263 -0.9044
 6285TIP3   OH218818   2.269   1.729   0.544 -1.1176 -0.1607 -0.0718
 6285TIP3    H118819   2.210   1.663   0.510 -0.8515 -0.8912  0.8439
 6285TIP3    H218820   2.351   1.716   0.497 -1.9026  1.4253 -1.9821
 6286TIP3   OH218821   5.582   2.629   4.427  0.2884 -0.0623 -0.3831
 6286TIP3    H118822   5.490   2.630   4.452  0.3493 -1.0783 -0.0577
 6286TIP3    H218823   5.629   2.657   4.506  0.2674  0.3743 -0.5233
 6287TIP3   OH218824   7.150   3.200   4.098  0.0447  0.1612 -0.2230
 6287TIP3    H118825   7.143   3.295   4.100 -0.2693  0.1353  0.1512
 6287TIP3    H218826   7.133   3.177   4.006  1.3628  0.5391 -0.5882
 6288TIP3   OH218827   4.331   3.212   5.008 -0.3348  0.1676 -0.3388
 6288TIP3    H118828   4.299   3.292   5.051 -0.2724 -0.3061  0.6081
 6288TIP3    H218829   4.379   3.244   4.932 -0.9364  1.0020 -0.3827
 6289TIP3   OH218830   0.587   0.517   0.586  0.4028  0.1255 -0.0239
 6289TIP3    H118831   0.553   0.436   0.548  2.3608 -0.1558 -1.2971
 6289TIP3    H218832   0.610   0.571   0.510  0.6129  1.2422  0.8059
 6290TIP3   OH218833   3.754   5.425   0.469  0.4791 -0.5246  0.1162
 6290TIP3    H118834   3.676   5.478   0.455  1.5356  1.0697  0.0558
 6290TIP3    H218835   3.742   5.386   0.556  0.1670  0.6908  0.6325
 6291TIP3   OH218836   0.627   2.918   1.675 -0.1550 -0.0577  0.6841
 6291TIP3    H118837   0.537   2.885   1.680 -0.2973  0.2433  0.1786
 6291TIP3    H218838   0.618   3.012   1.664  0.1576 -0.2006 -1.2018
 6292TIP3   OH218839   1.275   2.947   4.325 -0.3183 -0.0455  0.2740
 6292TIP3    H118840   1.367   2.919   4.322 -0.1247  0.6201 -1.0641
 6292TIP3    H218841   1.275   3.023   4.383  0.3971  1.2132 -1.2792
 6293TIP3   OH218842   2.695   6.260   5.564 -0.1056 -0.1170  0.3400
 6293TIP3    H118843   2.725   6.251   5.474 -1.3957 -0.2712 -0.0871
 6293TIP3    H218844   2.705   6.353   5.583 -0.8100  0.1007 -0.3236
 6294TIP3   OH218845   3.243   2.094   5.857  0.5410 -0.5178 -0.5121
 6294TIP3    H118846   3.268   2.171   5.908  0.7208 -1.1138  0.3042
 6294TIP3    H218847   3.175   2.126   5.797 -0.5110 -0.0497  0.8744
 6295TIP3   OH218848   0.790   0.164   0.664 -0.2180 -0.8121  0.0398
 6295TIP3    H118849   0.870   0.144   0.711  0.5721 -0.8721 -1.2790
 6295TIP3    H218850   0.723   0.171   0.732  0.5425 -2.4834  1.0112
 6296TIP3   OH218851   3.086   2.469   3.831  0.5606  0.1634  0.4139
 6296TIP3    H118852   3.022   2.448   3.899  1.9802  0.5860  1.9668
 6296TIP3    H218853   3.070   2.562   3.812  1.5736  0.6936  1.8810
 6297TIP3   OH218854   4.388   5.706   0.603  0.2503  0.0070 -0.4274
 6297TIP3    H118855   4.422   5.792   0.627  1.2112 -0.8223  1.3509
 6297TIP3    H218856   4.461   5.664   0.557 -0.0269 -0.0766 -0.7987
 6298TIP3   OH218857   7.150   0.221   5.305  0.1139  0.1071 -0.0075
 6298TIP3    H118858   7.066   0.256   5.276 -0.3307 -0.0732  0.9951
 6298TIP3    H218859   7.201   0.211   5.225 -1.0331 -0.3511 -0.7175
 6299TIP3   OH218860   0.239   3.542   5.666 -0.2714 -0.3212 -0.4485
 6299TIP3    H118861   0.225   3.462   5.616  0.1516 -0.3622 -0.5049
 6299TIP3    H218862   0.240   3.611   5.600  0.6656 -0.4148 -0.5584
 6300TIP3   OH218863   3.217   5.715   4.806  0.1985  0.0268  0.0795
 6300TIP3    H118864   3.234   5.760   4.889  1.0596 -1.6093  0.8387
 6300TIP3    H218865   3.295   5.732   4.753 -0.7661  1.9091 -0.8543
 6301TIP3   OH218866   6.072   2.518   1.266  0.0254  0.3646 -0.0609
 6301TIP3    H118867   6.161   2.491   1.243 -0.1726  0.4209 -0.9203
 6301TIP3    H218868   6.025   2.436   1.280  0.3266  0.3378  0.9079
 6302TIP3   OH218869   5.355   6.596   1.793 -0.4391  0.0435  0.6455
 6302TIP3    H118870   5.449   6.607   1.807 -0.7013  0.9814  1.7929
 6302TIP3    H218871   5.343   6.607   1.698  0.5874 -0.0157  0.5023
 6303TIP3   OH218872   6.435   2.432   4.773  0.2853 -0.0164  0.4030
 6303TIP3    H118873   6.432   2.423   4.678  1.8930 -1.3738  0.4443
 6303TIP3    H218874   6.345   2.451   4.798 -0.4842 -1.3156 -1.2294
 6304TIP3   OH218875   4.831   1.462   2.853 -0.2284 -0.2539 -0.2152
 6304TIP3    H118876   4.832   1.369   2.874 -1.9905 -0.4958 -0.9581
 6304TIP3    H218877   4.763   1.498   2.911 -0.0026  0.4400 -0.3798
 6305TIP3   OH218878   3.293   0.245   3.380 -0.1398  0.0045 -0.1080
 6305TIP3    H118879   3.206   0.259   3.418 -0.7867 -0.0421 -1.5061
 6305TIP3    H218880   3.311   0.152   3.394  0.1516  0.2252  1.0893
 6306TIP3   OH218881   3.494   4.691   4.738  0.4335  0.2043 -0.3621
 6306TIP3    H118882   3.507   4.598   4.717  0.8055  0.3100 -0.6149
 6306TIP3    H218883   3.406   4.711   4.706  0.7126  0.1759 -1.1809
 6307TIP3   OH218884   1.830   4.588   4.828 -0.1900  0.6176 -0.1918
 6307TIP3    H118885   1.881   4.645   4.886 -1.9552  0.6446  1.4301
 6307TIP3    H218886   1.798   4.647   4.759 -2.4769  1.8762  1.7727
 6308TIP3   OH218887   6.260   6.350   3.819 -0.6865  0.2855 -0.2496
 6308TIP3    H118888   6.293   6.374   3.906 -1.5272  0.5293  0.0051
 6308TIP3    H218889   6.323   6.284   3.788 -0.1132  0.5378  0.3388
 6309TIP3   OH218890   3.598   1.879   3.882 -0.1776 -0.2794 -0.1378
 6309TIP3    H118891   3.653   1.808   3.848  0.9546  0.4822  0.0596
 6309TIP3    H218892   3.633   1.958   3.841 -1.0444  0.2431  0.1100
 6310TIP3   OH218893   4.634   0.592   4.854  0.0270  0.2747  0.8921
 6310TIP3    H118894   4.569   0.528   4.882  0.2496 -0.8568 -1.0041
 6310TIP3    H218895   4.713   0.568   4.902  0.6178 -2.1194 -1.0617
 6311TIP3   OH218896   4.583   1.593   2.358  0.2790 -0.7451 -0.3555
 6311TIP3    H118897   4.619   1.638   2.435 -1.2461  0.0450 -0.0651
 6311TIP3    H218898   4.600   1.500   2.375  2.4483 -0.4143 -0.4189
 6312TIP3   OH218899   1.082   0.111   2.623  0.1385 -0.0341 -0.4772
 6312TIP3    H118900   1.135   0.034   2.643 -0.4546 -0.3836 -0.2278
 6312TIP3    H218901   1.118   0.179   2.681  0.4206 -0.2195 -0.4285
 6313TIP3   OH218902   4.945   5.120   4.502 -0.2137 -0.5431  0.2661
 6313TIP3    H118903   4.911   5.094   4.416  0.2559 -1.6007  0.3766
 6313TIP3    H218904   4.987   5.204   4.487  0.7755 -1.1860 -0.7997
 6314TIP3   OH218905   6.063   0.050   2.685 -0.8650 -0.0510  0.2017
 6314TIP3    H118906   5.976   0.039   2.724  0.1159  0.7600  2.8800
 6314TIP3    H218907   6.047   0.101   2.606 -2.8408 -0.0657  0.5314
 6315TIP3   OH218908   2.072   5.802   0.485  0.0681 -0.4904  0.0095
 6315TIP3    H118909   2.056   5.823   0.393 -0.5175  0.0519  0.2273
 6315TIP3    H218910   2.129   5.725   0.483 -0.4766 -0.8769 -0.8016
 6316TIP3   OH218911   0.066   6.512   4.059 -0.0033  0.3564 -0.4483
 6316TIP3    H118912   0.015   6.431   4.063 -0.3656  0.6083  1.6009
 6316TIP3    H218913   0.109   6.517   4.145  1.1769  1.6079 -1.0806
 6317TIP3   OH218914   6.835   4.550   0.036  0.1348 -0.8414  0.6775
 6317TIP3    H118915   6.868   4.515   0.120  0.7898  1.2218  1.3332
 6317TIP3    H218916   6.913   4.579  -0.010 -0.3810 -0.3529  0.0966
 6318TIP3   OH218917   6.503   0.672   0.117  0.1662 -0.1392  0.3868
 6318TIP3    H118918   6.557   0.752   0.119  0.2232 -0.1462 -0.5166
 6318TIP3    H218919   6.417   0.703   0.089 -0.0534 -0.2692  0.9136
 6319TIP3   OH218920   5.386   5.302   2.206  0.1235 -0.1834 -0.4736
 6319TIP3    H118921   5.446   5.272   2.274 -0.3938  0.2070  0.1638
 6319TIP3    H218922   5.435   5.371   2.160 -0.0016  0.4605  0.3406
 6320TIP3   OH218923   2.297   5.135   1.239  0.1901  0.0182  0.1535
 6320TIP3    H118924   2.282   5.050   1.198 -1.9694  0.1695  0.5149
 6320TIP3    H218925   2.327   5.114   1.328 -0.6939 -0.3808  0.3640
 6321TIP3   OH218926   1.718   5.686   0.667  0.0988 -0.3343 -0.4030
 6321TIP3    H118927   1.710   5.634   0.747 -1.4854 -0.5694 -0.6692
 6321TIP3    H218928   1.734   5.775   0.697  3.9399 -1.0179  0.0486
 6322TIP3   OH218929   1.717   2.706   0.373 -0.4813 -0.6425  0.3443
 6322TIP3    H118930   1.671   2.738   0.450  0.5283 -1.8824  1.5026
 6322TIP3    H218931   1.662   2.733   0.299 -2.1872 -0.6524  1.5570
 6323TIP3   OH218932   3.822   6.233   1.220 -0.3019  0.1932  0.4578
 6323TIP3    H118933   3.889   6.248   1.153 -1.1363  0.6617 -0.2974
 6323TIP3    H218934   3.818   6.315   1.269 -1.3299  0.7269 -0.4516
 6324TIP3   OH218935   3.005   1.033   0.784  0.1178  0.2358 -0.1067
 6324TIP3    H118936   2.989   1.119   0.745  0.5032  0.9914  1.3406
 6324TIP3    H218937   2.973   0.971   0.718 -0.9608  1.4899 -0.8146
 6325TIP3   OH218938   1.428   3.137   4.463  0.5682 -0.3758 -0.3094
 6325TIP3    H118939   1.368   3.173   4.529  2.8176  3.4618 -0.0295
 6325TIP3    H218940   1.514   3.139   4.506  2.0386  1.8446 -3.0687
 6326TIP3   OH218941   6.844   0.284   1.702  0.5627  0.1544  0.1157
 6326TIP3    H118942   6.904   0.350   1.736 -0.1785  0.6963  0.4166
 6326TIP3    H218943   6.858   0.285   1.607  1.9124 -0.6313  0.2793
 6327TIP3   OH218944   0.703   3.483   3.569  0.3416  0.4859 -0.1361
 6327TIP3    H118945   0.702   3.444   3.481 -0.7762 -0.3286  0.2162
 6327TIP3    H218946   0.615   3.518   3.580  0.1110 -0.4299  1.0868
 6328TIP3   OH218947   3.522   1.690   5.193  0.0355 -0.4286  0.0397
 6328TIP3    H118948   3.548   1.640   5.116  2.3808  0.3201  0.2586
 6328TIP3    H218949   3.429   1.670   5.205  0.0083 -1.8071 -2.0132
 6329TIP3   OH218950   3.064   6.130   5.366 -0.3303 -0.3760  0.3739
 6329TIP3    H118951   3.110   6.178   5.435  0.0885  0.1105 -0.2326
 6329TIP3    H218952   2.979   6.174   5.358  0.1129  0.3825 -0.2879
 6330TIP3   OH218953   1.031   1.305   3.960 -0.8595 -0.9055  0.4746
 6330TIP3    H118954   1.094   1.253   4.011 -0.8661 -0.7600  0.6303
 6330TIP3    H218955   0.960   1.324   4.021 -1.9823 -2.6751 -0.2014
 6331TIP3   OH218956   3.852   3.001   5.095  0.1805 -0.2993 -0.6494
 6331TIP3    H118957   3.797   3.017   5.018 -0.6160  0.7510  0.1043
 6331TIP3    H218958   3.939   3.031   5.069 -0.2415  0.7518 -0.9168
 6332TIP3   OH218959   5.822   2.930   4.336  0.0858  0.6170 -0.2158
 6332TIP3    H118960   5.847   2.985   4.262  0.9326  1.6749  0.8214
 6332TIP3    H218961   5.726   2.926   4.332  0.0633  1.4719 -0.7827
 6333TIP3   OH218962   5.960   2.592   0.322 -0.4507 -0.0598  0.1046
 6333TIP3    H118963   6.011   2.673   0.313 -1.6587  0.6603 -0.4424
 6333TIP3    H218964   5.902   2.609   0.396  0.2740 -0.9925  0.9164
 6334TIP3   OH218965   7.077   6.585   5.614 -0.5769  0.3915 -0.0863
 6334TIP3    H118966   7.079   6.495   5.647 -1.3659 -0.1116 -1.3041
 6334TIP3    H218967   7.072   6.575   5.519  1.3809  1.7716 -0.3857
 6335TIP3   OH218968   2.277   5.637   3.238  0.0491 -0.1685 -0.2386
 6335TIP3    H118969   2.362   5.604   3.209  0.4964 -0.0076  0.8554
 6335TIP3    H218970   2.214   5.601   3.175  0.8416 -0.8874 -0.6263
 6336TIP3   OH218971   6.099   1.505   2.915 -0.1369 -0.4951 -0.0469
 6336TIP3    H118972   6.173   1.536   2.967 -0.0754  1.1198 -1.0274
 6336TIP3    H218973   6.061   1.434   2.967  0.8453  0.0226  1.4483
 6337TIP3   OH218974   6.637   2.531   2.394 -0.3431 -0.0198 -0.2090
 6337TIP3    H118975   6.606   2.566   2.310 -2.6210  0.6890  0.8430
 6337TIP3    H218976   6.702   2.465   2.370 -1.6026 -0.5255 -2.6019
 6338TIP3   OH218977   4.438   4.681   5.293  0.1450 -0.0463 -0.4286
 6338TIP3    H118978   4.417   4.633   5.213  1.7445  0.4535 -1.1846
 6338TIP3    H218979   4.471   4.615   5.353 -0.4105 -0.3202 -0.4231
 6339TIP3   OH218980   6.288   3.157   4.089 -1.0741 -0.2409  0.1540
 6339TIP3    H118981   6.331   3.083   4.132  0.5770  0.2752 -0.5424
 6339TIP3    H218982   6.204   3.166   4.135 -0.5187 -1.3894  1.4526
 6340TIP3   OH218983   3.219   4.741   1.477 -0.0160  0.1802 -0.3037
 6340TIP3    H118984   3.184   4.718   1.562  0.7970 -0.8301 -0.2190
 6340TIP3    H218985   3.165   4.814   1.447 -1.3978 -0.5617  0.3221
 6341TIP3   OH218986   2.981   0.579   3.735  0.2087 -0.5449  0.2814
 6341TIP3    H118987   3.072   0.592   3.707 -0.1253  0.3576 -0.4096
 6341TIP3    H218988   2.934   0.555   3.655 -0.1724 -1.0429  0.6431
 6342TIP3   OH218989   7.103   6.612   5.348 -0.3526  0.8759  0.1865
 6342TIP3    H118990   7.186   6.618   5.300 -0.6245  0.7472 -0.3133
 6342TIP3    H218991   7.039   6.586   5.281 -0.6938  0.4359  0.6776
 6343TIP3   OH218992   6.225   3.700   1.256  0.1531 -0.4637 -0.2402
 6343TIP3    H118993   6.276   3.649   1.318  0.4552  0.0953 -0.0212
 6343TIP3    H218994   6.183   3.635   1.200  1.5470 -0.9269 -0.7894
 6344TIP3   OH218995   0.032   2.717   4.920  0.5992  0.1968 -0.2406
 6344TIP3    H118996  -0.056   2.735   4.954  0.5008 -0.0541 -0.3564
 6344TIP3    H218997   0.047   2.784   4.854  0.0489 -0.4115 -1.0042
 6345TIP3   OH218998   6.570   4.057   3.881  0.8619  0.0116 -0.6359
 6345TIP3    H118999   6.561   3.962   3.874  0.5686  0.0050 -0.2474
 6345TIP3    H219000   6.664   4.073   3.875  0.7932 -0.1139 -2.7537
 6346TIP3   OH219001   3.360   1.727   3.504  0.1583  0.1452 -0.5762
 6346TIP3    H119002   3.332   1.678   3.427  2.5104 -1.1439 -0.6879
 6346TIP3    H219003   3.279   1.745   3.552 -1.0450 -1.5709 -1.8679
 6347TIP3   OH219004   5.648   4.335   5.684  0.1356 -0.0984 -0.1651
 6347TIP3    H119005   5.657   4.380   5.600 -1.8194  0.4948 -0.1040
 6347TIP3    H219006   5.716   4.374   5.740  1.3658 -0.4091 -1.4032
 6348TIP3   OH219007   6.520   4.103   4.475  0.2052  0.1465 -0.6134
 6348TIP3    H119008   6.591   4.040   4.463  0.6293  0.0138  2.1193
 6348TIP3    H219009   6.528   4.162   4.400  2.2745 -0.7039 -1.1345
 6349TIP3   OH219010   5.892   1.618   0.547 -0.1814 -0.0317  0.2518
 6349TIP3    H119011   5.908   1.684   0.614  0.5130 -0.4715  0.5335
 6349TIP3    H219012   5.958   1.550   0.564  0.4831  0.1765 -1.2980
 6350TIP3   OH219013   4.564   4.922   1.997 -0.0171  0.6874  0.4536
 6350TIP3    H119014   4.511   4.844   1.978  0.1485  0.5447  0.5725
 6350TIP3    H219015   4.534   4.987   1.934  0.3219  0.3094 -0.1137
 6351TIP3   OH219016   5.185   3.663   5.214  0.3171  0.3896 -0.1942
 6351TIP3    H119017   5.185   3.668   5.310 -1.2656  0.4226 -0.1767
 6351TIP3    H219018   5.234   3.583   5.195  1.1803  0.7020  0.6033
 6352TIP3   OH219019   6.878   4.745   2.426 -0.3892 -0.2740 -0.5823
 6352TIP3    H119020   6.844   4.833   2.443 -2.2830 -0.8982 -0.8522
 6352TIP3    H219021   6.813   4.707   2.366  1.2688 -1.2842 -1.8144
 6353TIP3   OH219022   6.236   0.635   5.429  0.5760  0.1628  0.0073
 6353TIP3    H119023   6.310   0.691   5.453  1.0131  1.0889 -3.0704
 6353TIP3    H219024   6.255   0.551   5.472  1.4654  1.4441  2.2828
 6354TIP3   OH219025   0.238   2.732   2.065 -0.0747  0.2422  0.0111
 6354TIP3    H119026   0.225   2.820   2.029  0.9411 -0.0011 -0.9836
 6354TIP3    H219027   0.293   2.746   2.142 -1.1664  0.6136  0.7632
 6355TIP3   OH219028   0.226   4.401   4.620  0.2533  0.3102 -0.4961
 6355TIP3    H119029   0.282   4.329   4.590 -0.6310 -1.1910  1.2941
 6355TIP3    H219030   0.285   4.459   4.667  0.4722 -0.8575  0.7082
 6356TIP3   OH219031   2.974   3.729   1.933 -0.6563  0.0004  0.5921
 6356TIP3    H119032   2.954   3.684   1.850  0.7472  0.1428  0.1567
 6356TIP3    H219033   3.025   3.665   1.983 -0.4262  0.3747  0.8344
 6357TIP3   OH219034   4.879   2.115   5.342 -0.0590 -0.5697 -0.0072
 6357TIP3    H119035   4.833   2.177   5.398  2.2474  0.6107  0.6621
 6357TIP3    H219036   4.882   2.034   5.393  0.8348  0.0976  1.0175
 6358TIP3   OH219037   5.119   4.750   0.159  0.3292  0.7292  0.1403
 6358TIP3    H119038   5.117   4.800   0.078  0.7298  0.5736  0.0308
 6358TIP3    H219039   5.152   4.664   0.134  3.8419  1.6714  0.9448
 6359TIP3   OH219040   4.250   0.966   1.877  0.5413  0.5605 -0.0241
 6359TIP3    H119041   4.225   1.048   1.918 -1.5925  0.0098 -0.1269
 6359TIP3    H219042   4.189   0.901   1.913  1.7945 -0.8777 -0.3802
 6360TIP3   OH219043   1.918   4.436   0.816  0.3661  0.7265  0.3318
 6360TIP3    H119044   1.848   4.463   0.876 -0.4075 -1.9379  0.7754
 6360TIP3    H219045   1.972   4.376   0.868  0.2623 -0.8688 -1.3004
 6361TIP3   OH219046   7.108   6.616   4.557 -0.4424 -0.3711 -0.2174
 6361TIP3    H119047   7.033   6.674   4.573  0.6162  1.3156 -1.0885
 6361TIP3    H219048   7.087   6.536   4.605 -2.2985  0.4602  0.4503
 6362TIP3   OH219049   4.057   0.400   5.023  0.0676  0.1261 -0.2085
 6362TIP3    H119050   4.129   0.361   5.073 -1.2062 -1.8142  0.2347
 6362TIP3    H219051   4.090   0.486   4.996  1.7240  0.2286  1.8547
 6363TIP3   OH219052   1.663   2.621   2.323 -0.0879  0.4604 -0.1022
 6363TIP3    H119053   1.667   2.530   2.354 -0.1893 -0.0290 -1.4510
 6363TIP3    H219054   1.664   2.673   2.403  0.9802 -0.6871  0.6866
 6364TIP3   OH219055   2.562   3.570   2.825 -0.3927 -0.2207 -0.3872
 6364TIP3    H119056   2.532   3.596   2.738 -1.3735  2.0453  0.5340
 6364TIP3    H219057   2.519   3.486   2.842 -1.0646 -0.1501 -1.6424
 6365TIP3   OH219058   0.528   5.442   0.915 -0.1713  0.9571 -0.2840
 6365TIP3    H119059   0.539   5.533   0.885 -1.9899  1.1945 -0.3211
 6365TIP3    H219060   0.565   5.389   0.845  0.1315  1.6522 -0.6624
 6366TIP3   OH219061   0.984   0.673   5.140 -0.2496 -0.7276 -0.1195
 6366TIP3    H119062   0.930   0.696   5.064  0.0640  0.2308 -0.0649
 6366TIP3    H219063   1.068   0.646   5.102 -1.1042 -3.5530 -0.3008
 6367TIP3   OH219064   2.643   5.376   1.706  0.0051  0.0484 -0.9178
 6367TIP3    H119065   2.553   5.406   1.694 -0.1468 -0.6931 -1.7051
 6367TIP3    H219066   2.677   5.367   1.617  0.0983 -1.8865 -0.7230
 6368TIP3   OH219067   6.246   2.952   4.785  0.4302 -0.1992  0.0114
 6368TIP3    H119068   6.238   3.037   4.742  1.4121 -1.2234 -2.3441
 6368TIP3    H219069   6.308   2.903   4.731  1.0774 -1.9027  2.1697
 6369TIP3   OH219070   4.220   4.417   3.881 -0.1591 -0.7646  0.5428
 6369TIP3    H119071   4.239   4.419   3.787  0.1462 -2.1474  0.5502
 6369TIP3    H219072   4.137   4.371   3.887 -0.8228  0.4495  0.8818
 6370TIP3   OH219073   2.132   3.869   5.464  0.1496  0.5513  0.0230
 6370TIP3    H119074   2.102   3.830   5.546 -0.1755  0.3579 -0.1818
 6370TIP3    H219075   2.153   3.960   5.486  0.0361  0.5070  0.3145
 6371TIP3   OH219076   1.770   6.129   4.690 -0.2257  0.3679 -0.3278
 6371TIP3    H119077   1.684   6.086   4.689  0.0924 -0.2696 -0.5724
 6371TIP3    H219078   1.750   6.221   4.710 -0.8133 -0.0834  1.2516
 6372TIP3   OH219079   5.994   3.921   3.368  0.0721  0.3631 -0.1170
 6372TIP3    H119080   6.016   3.913   3.460  1.3228  1.2568 -0.3167
 6372TIP3    H219081   5.906   3.882   3.361 -1.2455  2.7007  1.9407
 6373TIP3   OH219082   4.128   4.826   0.084  0.0345 -0.6619  0.8864
 6373TIP3    H119083   4.156   4.892   0.147 -0.2373 -0.0099  0.3480
 6373TIP3    H219084   4.150   4.743   0.124 -0.7801 -0.2940  2.1678
 6374TIP3   OH219085   4.035   1.290   5.598 -0.7822 -0.1398  0.8679
 6374TIP3    H119086   4.074   1.375   5.581 -2.1456  0.4827  0.7572
 6374TIP3    H219087   4.083   1.256   5.674  1.3326 -0.3315 -0.4911
 6375TIP3   OH219088   0.676   6.552   2.060 -0.5670 -0.4254  0.5249
 6375TIP3    H119089   0.724   6.626   2.098 -0.3427  0.5029 -1.4171
 6375TIP3    H219090   0.744   6.491   2.032 -0.4168  0.7364 -1.9201
 6376TIP3   OH219091   1.517   3.279   0.332 -0.3326  0.8781 -1.0018
 6376TIP3    H119092   1.487   3.223   0.260 -1.0645  0.9287 -0.7430
 6376TIP3    H219093   1.460   3.355   0.329 -2.0816 -0.2245  1.1581
 6377TIP3   OH219094   0.744   4.881   1.548  0.7345 -0.1945 -0.5021
 6377TIP3    H119095   0.739   4.927   1.464  0.6303  1.4817  0.3783
 6377TIP3    H219096   0.663   4.907   1.593  1.3836 -0.0634  0.6028
 6378TIP3   OH219097   4.785   5.066   3.577  0.1627 -0.6461  0.8121
 6378TIP3    H119098   4.711   5.006   3.564 -0.5241  0.1404  0.9768
 6378TIP3    H219099   4.806   5.097   3.488 -0.7679  0.3403  0.9103
 6379TIP3   OH219100   1.490   3.526   2.907 -0.2344 -0.2891 -0.4043
 6379TIP3    H119101   1.583   3.509   2.891 -0.3562 -0.5273 -0.8711
 6379TIP3    H219102   1.449   3.440   2.907 -0.7685 -0.0863 -2.2816
 6380TIP3   OH219103   6.099   2.141   4.346 -0.6947 -0.2174  0.3554
 6380TIP3    H119104   6.056   2.157   4.430  0.8775  0.8972  0.9950
 6380TIP3    H219105   6.155   2.065   4.363 -1.9207 -1.3128 -0.3170
 6381TIP3   OH219106   1.810   5.183   2.740  0.2724 -0.0941 -0.2119
 6381TIP3    H119107   1.788   5.272   2.711 -1.4457 -0.7962 -1.2251
 6381TIP3    H219108   1.725   5.140   2.752  1.0576 -1.3906  0.9803
 6382TIP3   OH219109   1.812   6.249   3.743  0.1123  0.3164  0.3967
 6382TIP3    H119110   1.818   6.246   3.648 -0.0935 -0.8454  0.4104
 6382TIP3    H219111   1.901   6.235   3.774 -0.0451 -0.8198  0.3808
 6383TIP3   OH219112   6.154   3.545   2.929  0.2086 -0.8094 -0.3296
 6383TIP3    H119113   6.066   3.577   2.910  0.2276  1.0442  2.1365
 6383TIP3    H219114   6.207   3.624   2.932  1.4679 -1.6602  0.5849
 6384TIP3   OH219115   6.525   5.621   3.070  0.5489  0.3006  0.4163
 6384TIP3    H119116   6.510   5.575   2.988 -0.5589  1.9268 -0.3329
 6384TIP3    H219117   6.450   5.680   3.079  1.2144  0.9645  2.0311
 6385TIP3   OH219118   3.242   6.386   0.507 -0.1570 -0.1973  0.2097
 6385TIP3    H119119   3.269   6.471   0.473  1.5329 -0.5634  0.5408
 6385TIP3    H219120   3.184   6.350   0.440  1.2753  0.0651 -1.2092
 6386TIP3   OH219121   1.174   1.006   5.586 -0.7673  0.3343 -0.2087
 6386TIP3    H119122   1.163   0.913   5.567 -2.1792  0.1727  1.1607
 6386TIP3    H219123   1.267   1.022   5.574 -0.3927 -1.3988  0.1293
 6387TIP3   OH219124   0.973   0.829   1.145  0.4544  1.0870 -0.0170
 6387TIP3    H119125   0.885   0.797   1.126  0.5099  0.0180  1.3908
 6387TIP3    H219126   1.030   0.782   1.084  0.3122 -0.1433  0.7555
 6388TIP3   OH219127   0.827   6.395   1.900 -0.2040 -0.5415  0.4622
 6388TIP3    H119128   0.916   6.360   1.909  0.2673  0.8668  1.4533
 6388TIP3    H219129   0.830   6.447   1.820 -0.0023 -0.0996  0.7567
 6389TIP3   OH219130   6.522   2.411   4.374  0.2728  0.5433 -0.5274
 6389TIP3    H119131   6.426   2.415   4.375  0.2760  0.6717 -0.6882
 6389TIP3    H219132   6.546   2.449   4.289  0.4971  1.1683 -0.1847
 6390TIP3   OH219133   3.853   5.718   0.878  0.0146 -0.1084  0.1413
 6390TIP3    H119134   3.924   5.676   0.830 -0.1975 -2.1702  1.5102
 6390TIP3    H219135   3.777   5.712   0.820  0.4996  0.3652 -0.5497
 6391TIP3   OH219136   4.579   5.109   3.752  0.2838  0.7277  0.0049
 6391TIP3    H119137   4.661   5.128   3.707  1.5895  0.3149  2.0687
 6391TIP3    H219138   4.544   5.032   3.708  1.6382  0.1631 -0.1183
 6392TIP3   OH219139   5.502   1.320   2.096  0.2110  0.3826 -0.0484
 6392TIP3    H119140   5.466   1.405   2.124 -2.2795 -0.3053 -0.8694
 6392TIP3    H219141   5.491   1.263   2.173  1.3145  0.6133  0.2995
 6393TIP3   OH219142   5.826   4.214   5.237 -0.2776 -0.3580  0.0779
 6393TIP3    H119143   5.852   4.226   5.145  0.1219 -3.1680 -0.2787
 6393TIP3    H219144   5.908   4.212   5.285 -0.5215  3.4990  1.0306
 6394TIP3   OH219145   6.251   6.751   5.439  1.1236 -0.2495 -0.3705
 6394TIP3    H119146   6.190   6.705   5.497 -0.5346  1.2852 -0.8013
 6394TIP3    H219147   6.333   6.756   5.489 -0.3310  1.3193  2.0558
 6395TIP3   OH219148   2.750   5.104   1.320 -0.4144 -0.9522  0.7264
 6395TIP3    H119149   2.748   5.039   1.250 -1.2227 -0.9993  0.7803
 6395TIP3    H219150   2.752   5.053   1.401  0.4276 -0.8980  0.7486
 6396TIP3   OH219151   0.763   2.489   0.252 -0.0730  0.0141 -0.5151
 6396TIP3    H119152   0.774   2.525   0.340  0.8000 -2.9519  0.7176
 6396TIP3    H219153   0.712   2.555   0.205  0.0568  2.0240  1.9669
 6397TIP3   OH219154   5.119   0.315   1.428  0.3026 -0.1085 -0.0121
 6397TIP3    H119155   5.138   0.228   1.463  1.2472 -0.1222 -0.5176
 6397TIP3    H219156   5.184   0.327   1.359  0.3263  1.0932  0.2037
 6398TIP3   OH219157   2.382   5.595   2.306  0.4637 -0.5322 -0.5770
 6398TIP3    H119158   2.375   5.501   2.320 -0.0978 -0.1002  3.2948
 6398TIP3    H219159   2.476   5.612   2.302  0.5783 -1.1854 -0.7543
 6399TIP3   OH219160   3.121   1.181   3.425  0.0711 -0.1254 -0.3751
 6399TIP3    H119161   3.160   1.094   3.425  0.4575  0.0016  1.8592
 6399TIP3    H219162   3.190   1.239   3.457 -0.7934  0.6864  0.0958
 6400TIP3   OH219163   0.757   2.247   1.549 -0.0109 -0.1602 -0.1284
 6400TIP3    H119164   0.685   2.194   1.516  0.1368  0.3120 -1.2429
 6400TIP3    H219165   0.802   2.279   1.471  0.4930  0.7966  0.5260
 6401TIP3   OH219166   4.719   1.561   4.629 -0.3252  1.1695 -0.0611
 6401TIP3    H119167   4.708   1.581   4.536  2.2488 -0.5530 -0.8733
 6401TIP3    H219168   4.690   1.470   4.637 -0.3598  1.2497  0.7707
 6402TIP3   OH219169   6.548   5.055   2.841  0.4153  0.3118  0.4514
 6402TIP3    H119170   6.461   5.086   2.816 -0.0918 -1.5503 -0.2519
 6402TIP3    H219171   6.607   5.093   2.775 -0.0150  0.6980  0.2852
 6403TIP3   OH219172   2.713   1.593   3.881  0.1506 -0.0031 -0.5923
 6403TIP3    H119173   2.713   1.505   3.844 -1.6737 -0.5503  0.5331
 6403TIP3    H219174   2.633   1.633   3.846  0.4396  0.8376 -0.2999
 6404TIP3   OH219175   3.438   0.741   0.241 -0.4807 -0.4550 -0.6095
 6404TIP3    H119176   3.443   0.774   0.151  0.0316  0.1042 -0.3832
 6404TIP3    H219177   3.477   0.654   0.236  3.4648  1.0352 -0.2560
 6405TIP3   OH219178   1.537   3.391   0.700 -0.1059  0.0477  0.7564
 6405TIP3    H119179   1.591   3.447   0.755  0.7161  1.8346 -1.7187
 6405TIP3    H219180   1.580   3.391   0.615 -2.3519 -0.9451 -0.4771
 6406TIP3   OH219181   5.658   3.193   3.202 -0.3814 -0.4442  0.5788
 6406TIP3    H119182   5.585   3.131   3.208 -1.6854  1.1250  2.1537
 6406TIP3    H219183   5.668   3.226   3.292  1.5531  0.1956  0.1685
 6407TIP3   OH219184   4.967   4.700   4.192 -0.2052  0.5628 -0.4280
 6407TIP3    H119185   4.955   4.616   4.236 -0.8446 -0.2508 -2.0552
 6407TIP3    H219186   5.061   4.704   4.174 -0.2279 -0.0269 -0.7267
 6408TIP3   OH219187   3.934   1.011   3.422  0.6431  0.1198  0.2723
 6408TIP3    H119188   3.911   1.063   3.346  1.0768 -0.3076 -0.1544
 6408TIP3    H219189   4.026   0.989   3.409  0.6779 -0.0876  0.8416
 6409TIP3   OH219190   7.021   6.289   1.481  0.4511 -0.9662  0.2746
 6409TIP3    H119191   7.056   6.337   1.405  0.1246 -0.4291  0.4574
 6409TIP3    H219192   7.099   6.256   1.525  0.6223 -1.9194 -0.6888
 6410TIP3   OH219193   1.844   3.122   0.589  0.0441  0.3482  0.2595
 6410TIP3    H119194   1.907   3.054   0.566  1.6305  1.6089  0.6528
 6410TIP3    H219195   1.758   3.082   0.576  0.8902 -2.1523  1.7417
 6411TIP3   OH219196   0.328   2.804   5.213  0.1718  0.2769 -0.0277
 6411TIP3    H119197   0.288   2.884   5.181 -0.2571  0.4936  0.9891
 6411TIP3    H219198   0.419   2.827   5.231  0.1211  0.4638 -0.0114
 6412TIP3   OH219199   4.581   4.036   3.883  0.5206 -0.2561  0.0628
 6412TIP3    H119200   4.577   4.131   3.894  2.1364 -0.3158  1.5580
 6412TIP3    H219201   4.503   4.003   3.928  1.6913  0.1990  2.5386
 6413TIP3   OH219202   4.932   1.290   4.194 -0.1270  0.3150 -0.2285
 6413TIP3    H119203   4.842   1.317   4.214  1.0439  3.2705  1.6497
 6413TIP3    H219204   4.945   1.318   4.103 -0.6670  1.2395 -0.0355
 6414TIP3   OH219205   0.329   6.820   3.089 -0.1513  0.1002 -1.0307
 6414TIP3    H119206   0.264   6.763   3.048  1.1882 -2.1365 -0.2187
 6414TIP3    H219207   0.413   6.781   3.067  0.7228  0.2704  1.6242
 6415TIP3   OH219208   5.610   5.467   0.543  0.1695  0.3723  0.0121
 6415TIP3    H119209   5.681   5.426   0.493  1.1254  2.2456 -0.2514
 6415TIP3    H219210   5.647   5.479   0.631  0.1057  1.1438 -0.0612
 6416TIP3   OH219211   6.123   0.050   0.224 -0.0589  0.2436  0.3773
 6416TIP3    H119212   6.132   0.140   0.253  2.1581  0.5723 -1.0768
 6416TIP3    H219213   6.213   0.020   0.211 -0.7459 -2.0610  0.4266
 6417TIP3   OH219214   6.247   5.030   4.605 -0.2152 -0.5512  0.3897
 6417TIP3    H119215   6.180   5.029   4.673 -0.3467 -0.9379  0.2594
 6417TIP3    H219216   6.330   5.018   4.653 -0.2451 -0.1378  0.5430
 6418TIP3   OH219217   0.125   6.036   0.486  0.0848 -0.8810  0.4748
 6418TIP3    H119218   0.170   6.047   0.402 -0.6277  1.6611  0.3464
 6418TIP3    H219219   0.036   6.009   0.461 -0.9272  2.3523  0.1207
 6419TIP3   OH219220   2.009   3.572   2.861 -0.2602 -0.1692  0.4427
 6419TIP3    H119221   2.073   3.576   2.790 -0.5916 -1.2645  0.0703
 6419TIP3    H219222   2.061   3.546   2.938  0.5078  3.0008  1.1765
 6420TIP3   OH219223   0.219   1.175   1.490 -0.2179  0.6258 -0.8190
 6420TIP3    H119224   0.166   1.111   1.537 -0.3482  2.7500  2.2248
 6420TIP3    H219225   0.309   1.159   1.520 -0.6745  4.2803  3.5912
 6421TIP3   OH219226   3.584   3.063   1.232 -0.3587 -0.4964  0.0731
 6421TIP3    H119227   3.587   2.991   1.295  3.1792 -0.0237  0.6371
 6421TIP3    H219228   3.580   3.142   1.285  0.9166 -0.1513 -0.3076
 6422TIP3   OH219229   4.963   4.893   1.327  0.5902  0.2643  0.4551
 6422TIP3    H119230   4.947   4.862   1.416 -1.4569 -0.5806 -0.1425
 6422TIP3    H219231   4.992   4.984   1.339 -1.0632  0.6603  1.9506
 6423TIP3   OH219232   1.198   0.692   0.969 -0.3194  0.1825 -0.7417
 6423TIP3    H119233   1.215   0.644   1.050  0.6612  1.2745 -0.2697
 6423TIP3    H219234   1.151   0.630   0.913  1.5346 -1.6010 -0.4365
 6424TIP3   OH219235   6.863   1.255   5.208 -0.0448 -0.1565  0.3909
 6424TIP3    H119236   6.814   1.190   5.257  0.7395 -0.6160  0.5838
 6424TIP3    H219237   6.884   1.323   5.271  1.3429 -0.9555  0.8379
 6425TIP3   OH219238   6.425   3.533   3.203 -0.4742  0.0625  0.4973
 6425TIP3    H119239   6.435   3.600   3.271 -0.9727 -0.4649  1.1022
 6425TIP3    H219240   6.358   3.474   3.237 -1.9717  0.7022 -1.1754
 6426TIP3   OH219241   0.397   4.479   2.410 -0.0352  0.0233 -0.6023
 6426TIP3    H119242   0.330   4.538   2.445  0.2953  0.1004 -0.0930
 6426TIP3    H219243   0.453   4.536   2.357 -0.5085 -0.0856 -1.2284
 6427TIP3   OH219244   3.557   1.315   5.178 -0.3180 -0.1597  0.2600
 6427TIP3    H119245   3.611   1.272   5.244 -1.6741 -1.4535  0.5824
 6427TIP3    H219246   3.598   1.401   5.166  1.9754 -1.1780  0.2435
 6428TIP3   OH219247   2.783   2.289   2.188  0.1112  0.4628  0.3007
 6428TIP3    H119248   2.846   2.224   2.156  1.3067  0.7129  1.9798
 6428TIP3    H219249   2.770   2.266   2.279  0.6866  2.6277  0.9870
 6429TIP3   OH219250   5.711   5.293   4.062  0.2474  0.4755  0.1242
 6429TIP3    H119251   5.772   5.255   4.125 -1.7881  1.0530  2.5565
 6429TIP3    H219252   5.627   5.297   4.107 -1.0706  2.0281 -2.2241
 6430TIP3   OH219253   1.331   6.614   1.270 -0.2090 -0.0242 -0.3948
 6430TIP3    H119254   1.297   6.623   1.181  1.2815  0.8536 -0.9083
 6430TIP3    H219255   1.397   6.545   1.263 -0.1598 -0.0257  0.0646
 6431TIP3   OH219256   3.280   5.582   5.216 -0.1433  0.3206  0.4539
 6431TIP3    H119257   3.275   5.534   5.133 -1.5734  0.0946  0.6484
 6431TIP3    H219258   3.335   5.659   5.195  1.2029 -0.7593 -0.1511
 6432TIP3   OH219259   6.027   5.825   1.970 -0.1168 -0.3882  0.3157
 6432TIP3    H119260   6.030   5.850   1.878  0.1127  0.4565  0.5396
 6432TIP3    H219261   6.112   5.851   2.004 -0.6434  0.4786  1.0388
 6433TIP3   OH219262   4.171   1.904   3.421 -0.5697 -0.3525  0.2513
 6433TIP3    H119263   4.181   1.994   3.390 -0.6160 -0.2729  0.4643
 6433TIP3    H219264   4.217   1.851   3.356  0.8723 -0.0372  0.9858
 6434TIP3   OH219265   3.222   0.988   5.782  0.0519  0.8556  0.2497
 6434TIP3    H119266   3.315   0.991   5.804 -0.1069 -1.3065  1.4759
 6434TIP3    H219267   3.220   0.978   5.686  1.1676 -0.9311  0.3759
 6435TIP3   OH219268   5.821   3.567   5.003 -0.1559  0.0772 -0.0895
 6435TIP3    H119269   5.759   3.520   5.059 -0.4595  0.9351  0.3190
 6435TIP3    H219270   5.856   3.636   5.059  1.2539 -0.4413 -0.2897
 6436TIP3   OH219271   5.897   2.773   4.072 -0.0533 -0.1722 -0.6030
 6436TIP3    H119272   5.958   2.702   4.054 -0.2541 -0.0406 -1.9721
 6436TIP3    H219273   5.819   2.730   4.106  0.8011 -0.3337  1.2400
 6437TIP3   OH219274   5.209   3.639   3.425  0.3441 -0.0606 -0.0167
 6437TIP3    H119275   5.242   3.694   3.496  1.3681 -1.1978  0.4129
 6437TIP3    H219276   5.116   3.629   3.444  0.0069  1.8716 -0.3598
 6438TIP3   OH219277   2.622   3.352   3.991  0.7081  0.3656  0.3643
 6438TIP3    H119278   2.614   3.387   4.079 -0.5046  0.4262  0.2430
 6438TIP3    H219279   2.709   3.311   3.989  0.3464 -0.5581  1.9155
 6439TIP3   OH219280   4.830   4.673   2.024  0.4416 -0.1155  0.3004
 6439TIP3    H119281   4.901   4.611   2.005  0.9148  1.0572 -2.2327
 6439TIP3    H219282   4.862   4.756   1.988 -0.8605  1.2352  2.1224
 6440TIP3   OH219283   5.795   4.119   2.152 -0.3762  0.0679 -0.4710
 6440TIP3    H119284   5.865   4.184   2.164  0.5891 -1.2679  1.9493
 6440TIP3    H219285   5.745   4.122   2.234 -0.7970 -1.6518 -0.6174
 6441TIP3   OH219286   6.619   6.531   4.243 -0.0677  0.4448 -0.0579
 6441TIP3    H119287   6.571   6.451   4.223  2.1628 -0.8713 -0.4418
 6441TIP3    H219288   6.596   6.591   4.172 -0.2555 -0.5569 -0.8715
 6442TIP3   OH219289   1.994   2.782   4.113 -0.8108 -0.0305 -0.0159
 6442TIP3    H119290   2.061   2.714   4.119 -0.8639 -0.0738  0.0861
 6442TIP3    H219291   2.026   2.853   4.168 -0.9678 -0.1518  0.2344
 6443TIP3   OH219292   0.795   1.304   2.249 -0.5670 -0.5801  0.2684
 6443TIP3    H119293   0.862   1.296   2.317 -0.7936 -0.0134  0.5706
 6443TIP3    H219294   0.714   1.320   2.298 -0.6163  0.5691 -0.1464
 6444TIP3   OH219295   3.175   5.403   1.522  0.1040  0.0992 -0.0564
 6444TIP3    H119296   3.228   5.364   1.452  1.9456  0.6651  0.9377
 6444TIP3    H219297   3.175   5.338   1.592  0.7525  0.6809  0.5049
 6445TIP3   OH219298   5.144   5.623   2.420  0.3716  0.1274  0.2946
 6445TIP3    H119299   5.095   5.619   2.502 -0.1128 -1.6685 -0.0273
 6445TIP3    H219300   5.215   5.684   2.437  0.5011 -0.4821  2.1974
 6446TIP3   OH219301   2.207   1.274   5.640  0.1563 -0.3696 -0.5883
 6446TIP3    H119302   2.213   1.286   5.734  0.3679  0.9303 -0.7490
 6446TIP3    H219303   2.114   1.256   5.624 -0.4998  2.4441 -0.4072
 6447TIP3   OH219304   3.113   0.521   2.917  0.6250 -0.6571  0.2897
 6447TIP3    H119305   3.138   0.477   2.998 -2.1410 -0.6970  1.2416
 6447TIP3    H219306   3.090   0.450   2.856 -0.5318 -0.6263  0.6613
 6448TIP3   OH219307   5.493   4.524   2.300 -0.0843 -0.2121  0.3004
 6448TIP3    H119308   5.485   4.495   2.391 -0.7570 -1.8055 -0.2248
 6448TIP3    H219309   5.587   4.523   2.282  0.0596  0.2076  0.9888
 6449TIP3   OH219310   0.235   2.361   0.984 -0.2332  0.0248 -0.0916
 6449TIP3    H119311   0.287   2.423   0.933 -0.3017  0.2221  0.0724
 6449TIP3    H219312   0.183   2.417   1.043  0.9672 -0.2387  1.2671
 6450TIP3   OH219313   2.983   0.499   4.395 -0.5141  0.4246 -0.0846
 6450TIP3    H119314   3.063   0.472   4.351  0.0963  0.6046  0.8749
 6450TIP3    H219315   2.922   0.519   4.324 -0.2992 -1.3855 -0.8294
 6451TIP3   OH219316   1.768   6.063   5.040  0.3366 -0.1990  0.1448
 6451TIP3    H119317   1.680   6.092   5.016  0.2057 -1.1000 -0.4937
 6451TIP3    H219318   1.807   6.034   4.958  2.4088  3.1138 -0.2659
 6452TIP3   OH219319   0.112   1.428   1.505 -0.1453  0.0036 -0.2841
 6452TIP3    H119320   0.022   1.439   1.475 -0.5236 -1.1054  0.4010
 6452TIP3    H219321   0.126   1.334   1.505  0.7704  0.1281  0.3341
 6453TIP3   OH219322   0.491   4.901   0.548 -0.9716 -0.0130  0.3597
 6453TIP3    H119323   0.558   4.887   0.481 -1.2788  0.3854 -0.0404
 6453TIP3    H219324   0.430   4.962   0.508 -0.3744  1.4265  1.5351
 6454TIP3   OH219325   1.982   1.235   5.203  0.2113 -0.4241 -0.3849
 6454TIP3    H119326   1.981   1.306   5.267  3.9237 -0.5920  0.0754
 6454TIP3    H219327   1.936   1.163   5.246 -0.6530  0.6131  0.4953
 6455TIP3   OH219328   5.370   3.469   3.266  0.8308  0.0706  0.0832
 6455TIP3    H119329   5.402   3.382   3.287 -0.5637  0.0894  2.5697
 6455TIP3    H219330   5.321   3.497   3.343  0.8267  2.8803 -0.8089
 6456TIP3   OH219331   6.375   1.677   0.011 -0.6998 -0.0196  0.0792
 6456TIP3    H119332   6.415   1.739  -0.049 -1.1396  1.1243  0.9305
 6456TIP3    H219333   6.449   1.642   0.062 -0.5349  0.4560  0.1743
 6457TIP3   OH219334   0.924   0.828   0.462  0.5677 -0.2990 -0.1017
 6457TIP3    H119335   0.884   0.832   0.549  0.2505 -0.7834 -0.2236
 6457TIP3    H219336   0.869   0.767   0.413  1.5436 -1.0898 -0.2350
 6458TIP3   OH219337   6.598   3.066   5.784 -0.2378 -0.4174 -0.0029
 6458TIP3    H119338   6.655   3.120   5.838 -1.0787  1.6080 -1.0179
 6458TIP3    H219339   6.651   2.990   5.762  1.0820  0.0574  1.3369
 6459TIP3   OH219340   1.876   2.854   3.890 -0.0155  0.0413 -0.3702
 6459TIP3    H119341   1.894   2.832   3.981 -0.7168 -1.4367 -0.5671
 6459TIP3    H219342   1.963   2.869   3.851  0.2707  0.9822  0.5936
 6460TIP3   OH219343   1.836   1.247   1.370 -0.2376  0.1647  0.5423
 6460TIP3    H119344   1.807   1.211   1.454 -0.1245 -0.6708  0.2310
 6460TIP3    H219345   1.757   1.249   1.317 -0.0675 -0.4905  0.2598
 6461TIP3   OH219346   4.035   3.212   2.537  0.5358  0.1917  0.6681
 6461TIP3    H119347   4.125   3.238   2.517  0.6557  0.1791  1.1788
 6461TIP3    H219348   4.026   3.228   2.631  0.1681 -0.2974  0.7183
 6462TIP3   OH219349   1.888   2.003   4.169  0.0404  0.9110  0.1113
 6462TIP3    H119350   1.880   1.910   4.147 -1.6358  0.4275  2.3807
 6462TIP3    H219351   1.960   2.007   4.232  0.0701  1.1272  0.0652
 6463TIP3   OH219352   0.759   2.003   3.749  0.3565 -0.1996  0.0520
 6463TIP3    H119353   0.846   2.001   3.790  0.2807 -0.9354  0.2070
 6463TIP3    H219354   0.699   2.025   3.820  0.1393 -2.2083  0.5506
 6464TIP3   OH219355   3.565   6.026   4.639  0.0825  0.2320 -0.4372
 6464TIP3    H119356   3.538   6.016   4.548  1.5179  1.7950 -1.0912
 6464TIP3    H219357   3.661   6.027   4.636  0.1759 -0.3382  1.1876
 6465TIP3   OH219358   0.622   4.907   0.774  0.3358 -0.3836  0.1014
 6465TIP3    H119359   0.596   4.840   0.837  1.0891 -1.2197 -0.4423
 6465TIP3    H219360   0.574   4.884   0.694  0.6992 -0.3680 -0.1263
 6466TIP3   OH219361   3.445   2.126   4.258  0.1262  0.1045 -0.1736
 6466TIP3    H119362   3.448   2.031   4.256 -2.9968 -0.0925 -0.9818
 6466TIP3    H219363   3.499   2.153   4.184  0.0733 -1.1007 -0.6783
 6467TIP3   OH219364   5.706   3.969   0.834 -0.2892  0.2550 -0.2278
 6467TIP3    H119365   5.802   3.978   0.835 -0.2152 -0.0093 -1.7009
 6467TIP3    H219366   5.680   4.007   0.750 -1.4259 -0.1100 -0.0549
 6468TIP3   OH219367   3.895   1.585   4.462 -0.1314 -0.5034 -0.5266
 6468TIP3    H119368   3.803   1.610   4.469  0.2918  0.8110  0.8538
 6468TIP3    H219369   3.908   1.521   4.531  0.2696  0.3151  0.1824
 6469TIP3   OH219370   2.079   2.237   3.048 -0.0070  0.0395 -0.1457
 6469TIP3    H119371   2.114   2.306   2.991 -1.9676  0.6352 -0.7178
 6469TIP3    H219372   2.028   2.181   2.989 -0.7256 -0.2895  0.7607
 6470TIP3   OH219373   1.088   3.654   3.422  0.4452  0.1854  0.4277
 6470TIP3    H119374   1.153   3.585   3.411 -0.8721 -1.2716  1.3081
 6470TIP3    H219375   1.093   3.704   3.340 -0.8541 -3.0547 -1.8855
 6471TIP3   OH219376   1.628   2.750   2.553  0.4363 -0.6087  0.2019
 6471TIP3    H119377   1.717   2.780   2.571 -0.6126  1.4763  2.4301
 6471TIP3    H219378   1.575   2.786   2.624 -2.1338 -2.2325 -0.7330
 6472TIP3   OH219379   7.009   3.735   2.574 -0.7995  0.5672  0.7635
 6472TIP3    H119380   6.939   3.678   2.605 -0.1413 -1.4906 -1.2277
 6472TIP3    H219381   7.063   3.753   2.651 -0.4266 -2.4622  1.3009
 6473TIP3   OH219382   3.925   1.543   0.029  0.0512 -0.3570 -0.0597
 6473TIP3    H119383   3.883   1.565  -0.054  0.6422  0.2193 -0.2124
 6473TIP3    H219384   3.933   1.627   0.075  0.7151 -0.5078  0.1145
 6474TIP3   OH219385   0.663   1.813   3.538  0.4577 -0.1101  0.3089
 6474TIP3    H119386   0.707   1.868   3.602 -0.7402  1.3733 -0.0824
 6474TIP3    H219387   0.570   1.833   3.549  0.1755 -0.2756 -1.4548
 6475TIP3   OH219388   4.876   1.844   2.638  0.3824 -0.0627  0.3678
 6475TIP3    H119389   4.854   1.798   2.719  0.9487 -0.0202  0.5511
 6475TIP3    H219390   4.951   1.899   2.661  1.2284 -0.8540 -0.4520
 6476TIP3   OH219391   5.189   1.878   4.490 -0.2891  0.0908 -0.0791
 6476TIP3    H119392   5.154   1.797   4.452 -0.1047 -0.1170  0.1911
 6476TIP3    H219393   5.216   1.853   4.578 -3.0140  1.1051  1.1534
 6477TIP3   OH219394   1.920   3.854   4.953 -0.4644 -0.3206  0.3738
 6477TIP3    H119395   1.960   3.896   4.876 -2.4976  1.3702  0.1387
 6477TIP3    H219396   1.957   3.901   5.028 -1.4549  0.8096  0.1884
 6478TIP3   OH219397   0.282   4.892   3.489  0.3378 -0.5461  0.2625
 6478TIP3    H119398   0.361   4.930   3.451  0.5552 -0.1609  1.0777
 6478TIP3    H219399   0.284   4.800   3.462  1.6965 -0.8341  1.2461
 6479TIP3   OH219400   1.953   0.747   3.236 -0.4217  0.3424  0.3033
 6479TIP3    H119401   2.011   0.712   3.303 -1.4954  0.1136  1.1439
 6479TIP3    H219402   2.011   0.790   3.173  0.7438 -1.0457  0.3970
 6480TIP3   OH219403   0.780   5.141   0.070  0.0272  0.5428 -0.0100
 6480TIP3    H119404   0.701   5.096   0.041  0.6522 -1.2067  0.8561
 6480TIP3    H219405   0.810   5.089   0.145  1.5902  1.6070  0.1339
 6481TIP3   OH219406   1.860   0.276   3.710 -0.2658  0.1540  0.3559
 6481TIP3    H119407   1.777   0.320   3.690 -0.2021 -0.1975 -0.7160
 6481TIP3    H219408   1.927   0.330   3.667 -0.2643 -1.4319 -1.7931
 6482TIP3   OH219409   3.286   6.724   4.036  0.5436  0.0224  0.2093
 6482TIP3    H119410   3.269   6.803   4.088 -1.5348 -0.0933 -0.2310
 6482TIP3    H219411   3.216   6.664   4.059 -0.3099 -0.1560 -2.4587
 6483TIP3   OH219412   6.172   4.036   4.756  0.1692  0.2127  0.0754
 6483TIP3    H119413   6.263   4.061   4.775 -0.2442  1.5112  0.4616
 6483TIP3    H219414   6.161   4.055   4.662  0.1093  0.6598  0.1730
 6484TIP3   OH219415   4.049   6.609   2.993 -0.2115  0.6350 -0.2480
 6484TIP3    H119416   3.976   6.670   2.991 -0.1904  0.6739  0.0790
 6484TIP3    H219417   4.043   6.561   2.910 -1.5101 -0.4301  0.4292
 6485TIP3   OH219418   0.252   3.131   2.814  0.1733 -0.6323 -0.1231
 6485TIP3    H119419   0.186   3.197   2.837  1.2862  0.6658 -0.5537
 6485TIP3    H219420   0.213   3.084   2.741 -1.6843 -2.1378  1.6869
 6486TIP3   OH219421   5.699   6.179   3.575 -0.9116 -0.6797  0.3455
 6486TIP3    H119422   5.791   6.177   3.547 -1.3294 -0.8293 -1.0883
 6486TIP3    H219423   5.690   6.262   3.621 -0.2154 -0.3680 -0.0617
 6487TIP3   OH219424   1.185   0.795   0.450 -0.1367 -0.7724 -0.1354
 6487TIP3    H119425   1.093   0.792   0.424  0.0222  0.1880 -0.8463
 6487TIP3    H219426   1.225   0.858   0.391  0.9474 -1.0315  0.2943
 6488TIP3   OH219427   7.231   3.037   0.788  0.3631 -0.0880  0.3244
 6488TIP3    H119428   7.149   2.997   0.758  1.0910 -1.5698  0.2344
 6488TIP3    H219429   7.206   3.126   0.813 -0.9704  0.0182 -1.1868
 6489TIP3   OH219430   1.949   2.582   2.981 -0.5076 -0.0130 -0.5932
 6489TIP3    H119431   2.018   2.535   2.935  0.3066 -0.7431  1.2693
 6489TIP3    H219432   1.870   2.564   2.931  0.5014  0.2916 -2.4043
 6490TIP3   OH219433   5.705   1.661   4.212  0.1732  0.3282 -0.3026
 6490TIP3    H119434   5.768   1.729   4.187 -0.6612  1.1144 -0.3615
 6490TIP3    H219435   5.675   1.687   4.299 -0.3121  0.1584 -0.4163
 6491TIP3   OH219436   0.773   5.039   0.981  0.4040 -0.3571 -0.0313
 6491TIP3    H119437   0.782   5.133   0.995 -0.2810 -0.5691  2.2359
 6491TIP3    H219438   0.697   5.030   0.924 -0.6435  0.4357  1.1863
 6492TIP3   OH219439   2.050   2.770   0.780 -0.0221 -0.0631  0.6932
 6492TIP3    H119440   2.138   2.794   0.810  0.2643 -1.3691  0.9876
 6492TIP3    H219441   2.028   2.693   0.833 -0.3791 -1.1663 -0.9832
 6493TIP3   OH219442   6.867   4.743   0.453  0.6357 -0.4989 -0.3659
 6493TIP3    H119443   6.800   4.800   0.416 -0.6745 -1.3085  0.6602
 6493TIP3    H219444   6.904   4.698   0.377 -0.7994 -0.8770 -0.8765
 6494TIP3   OH219445   2.649   2.990   3.859  0.3492 -0.6447 -0.0539
 6494TIP3    H119446   2.620   3.069   3.813 -0.7611 -2.8399 -3.5418
 6494TIP3    H219447   2.620   3.003   3.949 -1.1647  2.2587 -0.8207
 6495TIP3   OH219448   2.632   1.475   3.433 -0.2429 -0.3024 -0.3715
 6495TIP3    H119449   2.674   1.423   3.365  0.7111  0.5035 -0.4329
 6495TIP3    H219450   2.693   1.547   3.449 -1.4191  0.6787 -0.1368
 6496TIP3   OH219451   3.443   1.766   4.099 -0.5749  0.0867 -0.5272
 6496TIP3    H119452   3.490   1.784   4.018 -0.8922 -0.0668 -0.7479
 6496TIP3    H219453   3.382   1.839   4.108  0.6498  1.0438  0.4923
 6497TIP3   OH219454   3.282   2.012   2.046 -0.2386 -0.4062 -0.4836
 6497TIP3    H119455   3.368   2.052   2.037 -0.0715 -0.1957  1.5482
 6497TIP3    H219456   3.223   2.084   2.066 -0.1340 -0.9223  2.0631
 6498TIP3   OH219457   3.881   6.668   5.424 -0.1254  0.6444  0.7175
 6498TIP3    H119458   3.923   6.739   5.474 -0.0860  0.0824  1.4949
 6498TIP3    H219459   3.941   6.594   5.435 -0.0476  0.5546 -0.2934
 6499TIP3   OH219460   4.799   6.030   2.286  0.0691 -0.0546 -0.2117
 6499TIP3    H119461   4.781   6.123   2.272  1.2104  0.5691  1.9927
 6499TIP3    H219462   4.744   5.985   2.222 -0.9282  2.1079 -0.9732
 6500TIP3   OH219463   4.281   0.763   4.470 -0.2579  0.1885 -0.5015
 6500TIP3    H119464   4.321   0.705   4.534 -1.3931  1.0653  1.0826
 6500TIP3    H219465   4.188   0.741   4.473 -0.7447  2.1355  0.2654
 6501TIP3   OH219466   5.269   0.415   5.851  0.2932  0.1443  0.1507
 6501TIP3    H119467   5.212   0.462   5.789  0.9420  0.7249 -0.0190
 6501TIP3    H219468   5.307   0.484   5.905 -0.1595 -0.3494  1.1151
 6502TIP3   OH219469   5.830   2.590   3.658 -0.4404 -0.1218 -0.5143
 6502TIP3    H119470   5.783   2.561   3.737 -0.2469 -2.0647 -1.0510
 6502TIP3    H219471   5.785   2.670   3.632  0.4485  1.4609  2.4019
 6503TIP3   OH219472   5.422   3.357   0.751 -0.1922  0.2453 -0.3041
 6503TIP3    H119473   5.329   3.337   0.753  0.0380 -0.8288  1.0220
 6503TIP3    H219474   5.463   3.275   0.721  0.4365  0.1482  0.7802
 6504TIP3   OH219475   6.138   2.320   2.740  0.1024  0.2307  0.0416
 6504TIP3    H119476   6.073   2.255   2.714  0.1100  0.3825 -0.3605
 6504TIP3    H219477   6.105   2.354   2.824 -0.2286  0.1567 -0.0578
 6505TIP3   OH219478   6.816   0.982   5.574 -0.4327  0.6165  0.5988
 6505TIP3    H119479   6.910   0.969   5.577 -0.5226  0.2529  2.7414
 6505TIP3    H219480   6.803   1.044   5.502  0.9992 -2.4355 -2.5744
 6506TIP3   OH219481   1.443   0.016   1.804  0.1751  0.4246  0.2540
 6506TIP3    H119482   1.513   0.072   1.773  0.9001 -0.6942 -0.2082
 6506TIP3    H219483   1.488  -0.055   1.851 -0.5397 -0.8204 -0.8466
 6507TIP3   OH219484   3.808   2.489   5.050 -1.1289 -0.2344  0.1861
 6507TIP3    H119485   3.767   2.433   4.984  0.2157 -0.3801 -0.5503
 6507TIP3    H219486   3.792   2.578   5.020 -0.6233 -0.2986 -0.2768
 6508TIP3   OH219487   2.228   4.072   1.675 -0.3661  0.7269 -0.7397
 6508TIP3    H119488   2.244   3.977   1.682 -0.9698  0.6247 -0.7068
 6508TIP3    H219489   2.275   4.098   1.596  1.0865  0.6912  0.0632
 6509TIP3   OH219490   5.254   3.043   4.514 -0.1939  0.7705 -0.1198
 6509TIP3    H119491   5.263   2.989   4.435  0.8595  0.5619  0.1332
 6509TIP3    H219492   5.167   3.082   4.506 -2.3095 -3.2219  1.1182
 6510TIP3   OH219493   1.341   0.500   2.245 -0.0552  0.6943  0.8721
 6510TIP3    H119494   1.308   0.444   2.174  0.5470  0.9331  0.3912
 6510TIP3    H219495   1.424   0.534   2.211 -0.7621  2.4928  0.8486
 6511TIP3   OH219496   1.463   4.201   2.793  0.0380 -0.5689  0.0308
 6511TIP3    H119497   1.377   4.206   2.835  0.5579  0.3382  1.0337
 6511TIP3    H219498   1.490   4.110   2.806 -1.0851 -1.0811 -0.9832
 6512TIP3   OH219499   0.776   2.964   4.877  0.5402 -0.2347 -0.6138
 6512TIP3    H119500   0.782   3.058   4.890 -2.4622  0.0346 -0.4275
 6512TIP3    H219501   0.759   2.953   4.783 -1.7398 -0.3077 -0.2540
 6513TIP3   OH219502   3.344   4.454   1.863  0.0357  0.0215 -0.3073
 6513TIP3    H119503   3.270   4.395   1.881 -0.9481  1.0438 -0.8765
 6513TIP3    H219504   3.418   4.414   1.909 -0.7955 -1.1955  0.0261
 6514TIP3   OH219505   3.288   1.209   5.238  0.3124  0.4007  0.0194
 6514TIP3    H119506   3.370   1.245   5.203 -0.0087  1.0030 -0.1365
 6514TIP3    H219507   3.302   1.115   5.239  0.5174  0.3953 -1.2839
 6515TIP3   OH219508   5.653   0.326   5.353  0.4592 -0.4814  0.0907
 6515TIP3    H119509   5.722   0.367   5.301  0.3247 -0.0142  0.2751
 6515TIP3    H219510   5.572   0.347   5.306  0.3508 -0.1735  0.4109
 6516TIP3   OH219511   5.411   2.507   1.518 -0.2486  0.4195 -0.1042
 6516TIP3    H119512   5.479   2.545   1.462  0.1537 -0.1765 -0.0232
 6516TIP3    H219513   5.371   2.439   1.465 -2.3510  2.2191 -1.0111
 6517TIP3   OH219514   6.916   1.617   1.200 -0.2628  0.4575 -0.0472
 6517TIP3    H119515   6.839   1.574   1.161 -1.0182  1.5729  0.1852
 6517TIP3    H219516   6.987   1.600   1.138 -1.1503  1.0928 -1.2711
 6518TIP3   OH219517   3.464   0.267   0.375  0.2999  0.3166 -0.1005
 6518TIP3    H119518   3.469   0.362   0.361 -2.7116  0.4578 -0.8653
 6518TIP3    H219519   3.547   0.233   0.340  1.5588  2.6384  0.4092
 6519TIP3   OH219520   4.385   0.924   3.485 -0.4930 -0.2636 -0.1970
 6519TIP3    H119521   4.370   1.015   3.460 -0.8505 -0.3195 -0.1899
 6519TIP3    H219522   4.329   0.911   3.562 -0.5400 -0.5281 -0.2760
 6520TIP3   OH219523   4.410   6.506   2.122 -0.9396  0.6703  0.2605
 6520TIP3    H119524   4.504   6.516   2.142 -0.8073 -1.5188  0.9351
 6520TIP3    H219525   4.399   6.554   2.040 -0.4063  5.4971  2.6136
 6521TIP3   OH219526   2.555   2.262   4.769  0.0313  0.8741  0.1836
 6521TIP3    H119527   2.505   2.188   4.733  0.0642  0.2923  1.2709
 6521TIP3    H219528   2.621   2.220   4.824 -0.6058  1.7385  1.6437
 6522TIP3   OH219529   6.000   5.735   2.410 -0.3697 -0.1981  0.1406
 6522TIP3    H119530   6.045   5.819   2.422  0.0473 -0.2654 -0.8716
 6522TIP3    H219531   5.914   5.748   2.449 -0.4528  0.8324 -0.3669
 6523TIP3   OH219532   5.655   4.691   5.187  0.0360  0.1886 -0.5947
 6523TIP3    H119533   5.714   4.616   5.180  0.7554  0.7753 -1.0201
 6523TIP3    H219534   5.713   4.767   5.192 -0.6735  0.8426 -1.7013
 6524TIP3   OH219535   5.144   3.713   4.656  0.8927 -0.5464  0.0258
 6524TIP3    H119536   5.158   3.679   4.745  1.0972 -0.4953  0.0149
 6524TIP3    H219537   5.086   3.650   4.615  1.3956 -0.9685 -0.0478
 6525TIP3   OH219538   4.294   3.483   4.332 -0.0603 -0.0889  0.2987
 6525TIP3    H119539   4.257   3.552   4.277  0.6898  0.2384  0.1906
 6525TIP3    H219540   4.233   3.410   4.323  0.1339 -0.1117 -1.1110
 6526TIP3   OH219541   4.192   6.644   0.049 -0.2789  0.4704 -0.0005
 6526TIP3    H119542   4.164   6.698   0.123 -0.9350  0.8826 -0.5468
 6526TIP3    H219543   4.281   6.617   0.072  0.0260  1.7015  0.3307
 6527TIP3   OH219544   1.823   2.798   3.600 -0.3671 -0.4584  0.2163
 6527TIP3    H119545   1.795   2.706   3.599 -1.9206 -0.0179  0.9485
 6527TIP3    H219546   1.833   2.819   3.693  3.4130 -0.8154  0.0561
 6528TIP3   OH219547   2.931   2.552   0.490  0.2079  0.1782  0.4344
 6528TIP3    H119548   2.848   2.574   0.449  0.1651  1.6952  1.2380
 6528TIP3    H219549   2.910   2.480   0.550  0.4277 -2.6548 -2.5867
 6529TIP3   OH219550   1.592   1.309   1.290 -0.1970  0.0828 -0.2527
 6529TIP3    H119551   1.554   1.353   1.366  1.4781  1.3123 -0.0688
 6529TIP3    H219552   1.526   1.245   1.264 -0.6453 -0.7258  2.5294
 6530TIP3   OH219553   6.998   0.828   3.355 -0.3238 -0.7971 -0.5142
 6530TIP3    H119554   7.051   0.817   3.275  2.2327  0.9228  0.8041
 6530TIP3    H219555   7.027   0.758   3.413 -0.6826 -0.8152 -0.3540
 6531TIP3   OH219556   2.863   3.411   0.514  0.1513 -0.1264 -0.0099
 6531TIP3    H119557   2.821   3.370   0.590  0.4871  0.9600  0.7753
 6531TIP3    H219558   2.801   3.477   0.485  0.7880  0.6749  0.4256
 6532TIP3   OH219559   5.707   6.022   1.126  0.5023 -0.6373  0.1195
 6532TIP3    H119560   5.680   6.088   1.190  1.7035 -0.2637  0.2639
 6532TIP3    H219561   5.783   5.980   1.165  1.5644 -0.0806 -1.2410
 6533TIP3   OH219562   2.270   1.381   1.804  0.1418  0.1880  0.4236
 6533TIP3    H119563   2.234   1.379   1.715  0.0966 -3.1489  0.3845
 6533TIP3    H219564   2.359   1.348   1.795  0.5907  1.0411  1.4872
 6534TIP3   OH219565   1.643   4.721   3.709  0.1442  0.0138  0.3492
 6534TIP3    H119566   1.568   4.667   3.684  0.0919 -0.3072  1.1466
 6534TIP3    H219567   1.700   4.722   3.632  0.5105 -1.8172  0.5581
 6535TIP3   OH219568   3.314   6.217   1.501 -0.0901 -0.5520 -0.1439
 6535TIP3    H119569   3.317   6.202   1.595 -0.8950  0.6586  0.1021
 6535TIP3    H219570   3.244   6.160   1.469  1.1153 -2.0362 -0.2721
 6536TIP3   OH219571   2.754   2.390   0.220  0.3123  0.0127 -0.2773
 6536TIP3    H119572   2.715   2.310   0.255  3.3020 -0.3534  2.6668
 6536TIP3    H219573   2.709   2.461   0.267 -0.7743  0.0062 -1.2489
 6537TIP3   OH219574   2.290   6.518   2.924 -0.0711 -0.2553  0.4359
 6537TIP3    H119575   2.277   6.488   3.014 -0.5513 -2.1430 -0.2409
 6537TIP3    H219576   2.254   6.449   2.869  0.6751  0.6265 -1.2422
 6538TIP3   OH219577   6.692   4.224   5.754  0.4310  0.3191 -0.2191
 6538TIP3    H119578   6.647   4.293   5.803  0.1562  1.3206 -1.8311
 6538TIP3    H219579   6.740   4.175   5.821  0.4990  1.9499  0.9883
 6539TIP3   OH219580   0.713   1.876   2.724 -0.3286 -0.1067  0.2524
 6539TIP3    H119581   0.712   1.915   2.812  2.2002  0.6609  0.0274
 6539TIP3    H219582   0.640   1.918   2.679 -1.1948  0.0636  1.7571
 6540TIP3   OH219583   3.574   4.353   5.382  0.2924 -0.1127  0.7214
 6540TIP3    H119584   3.493   4.368   5.332  1.3905  1.1588 -0.7860
 6540TIP3    H219585   3.644   4.372   5.320  1.7789  2.4823  2.9395
 6541TIP3   OH219586   1.226   6.733   4.753 -0.2036 -0.0144 -0.1495
 6541TIP3    H119587   1.145   6.707   4.708  0.0845 -0.1517 -0.6024
 6541TIP3    H219588   1.291   6.739   4.683  0.2754 -0.3098  0.2628
 6542TIP3   OH219589   0.851   6.390   3.928  0.1732 -0.6492  0.0742
 6542TIP3    H119590   0.806   6.427   4.004  1.0721 -0.5986  0.6086
 6542TIP3    H219591   0.782   6.350   3.876 -0.8713  1.8298 -0.5846
 6543TIP3   OH219592   2.402   2.048   4.240 -0.0154  0.0326 -0.5785
 6543TIP3    H119593   2.412   1.973   4.298  1.4853  0.5708 -0.1076
 6543TIP3    H219594   2.367   2.010   4.158 -0.7289 -0.9321  0.1473
 6544TIP3   OH219595   4.447   1.155   4.243 -0.1437  0.1440 -0.0043
 6544TIP3    H119596   4.420   1.065   4.222 -0.4484  0.5367 -1.4091
 6544TIP3    H219597   4.388   1.181   4.314  0.0855 -0.8307  0.5636
 6545TIP3   OH219598   2.568   2.546   1.745 -0.2672  0.6620  0.2739
 6545TIP3    H119599   2.498   2.539   1.810  0.0254  2.9083  0.8954
 6545TIP3    H219600   2.542   2.619   1.689 -1.3724 -2.1873 -3.3251
 6546TIP3   OH219601   4.330   4.588   2.834 -0.3081  0.3800  0.2059
 6546TIP3    H119602   4.304   4.513   2.781 -1.7132  1.3324 -0.5157
 6546TIP3    H219603   4.281   4.578   2.916 -1.3974  1.0594 -0.3306
 6547TIP3   OH219604   1.788   6.148   2.209  0.0164 -0.1445 -0.1107
 6547TIP3    H119605   1.768   6.088   2.136  1.7362 -1.5368  0.4941
 6547TIP3    H219606   1.882   6.138   2.223  0.5390  3.3041 -0.4124
 6548TIP3   OH219607   0.405   5.421   4.411  0.6476 -0.0530 -0.7913
 6548TIP3    H119608   0.432   5.512   4.422  2.1216 -0.3269 -1.9746
 6548TIP3    H219609   0.330   5.412   4.471  1.2511  1.5724  0.2945
 6549TIP3   OH219610   0.720   2.017   4.585 -0.0142 -0.0509  0.3369
 6549TIP3    H119611   0.796   1.964   4.560  0.1735  0.0688  0.6493
 6549TIP3    H219612   0.691   1.980   4.668 -0.8641 -0.6870 -0.2259
 6550TIP3   OH219613   4.035   5.194   0.675 -0.1259 -0.2724  0.2958
 6550TIP3    H119614   4.042   5.243   0.757  2.5923 -1.4373  0.8619
 6550TIP3    H219615   4.022   5.262   0.609  1.4888  1.0966  1.2882
 6551TIP3   OH219616   3.642   3.599   0.940  0.6621 -0.1479 -0.1594
 6551TIP3    H119617   3.619   3.692   0.940  0.5016 -0.1855 -0.9000
 6551TIP3    H219618   3.738   3.598   0.941  0.7226  0.0593 -2.0409
 6552TIP3   OH219619   7.153   1.143   0.334 -0.1533  0.0186 -0.3118
 6552TIP3    H119620   7.108   1.153   0.250 -0.7457 -1.4624 -0.1840
 6552TIP3    H219621   7.084   1.139   0.399  0.0979 -2.1993 -0.1037
 6553TIP3   OH219622   5.993   4.933   3.752 -0.0969 -0.3797 -0.1096
 6553TIP3    H119623   6.019   5.015   3.794 -0.4461 -0.8183  1.0112
 6553TIP3    H219624   5.956   4.959   3.668  3.5669  0.3423 -1.6897
 6554TIP3   OH219625   0.499   4.375   0.540 -0.0295  0.5448 -0.1906
 6554TIP3    H119626   0.546   4.293   0.527 -0.4115 -0.1263  2.1094
 6554TIP3    H219627   0.566   4.436   0.571  0.2379  1.1107 -1.8174
 6555TIP3   OH219628   7.216   3.599   1.676  0.1286 -0.1137  0.5813
 6555TIP3    H119629   7.135   3.648   1.689 -0.0241 -0.6936  1.9781
 6555TIP3    H219630   7.187   3.510   1.658  0.3819  0.3007 -2.5113
 6556TIP3   OH219631   5.477   2.844   3.978 -0.2277 -0.2481  0.1305
 6556TIP3    H119632   5.551   2.835   3.918  0.4882 -0.3784  1.0176
 6556TIP3    H219633   5.423   2.767   3.960  0.2329 -0.5467 -0.0066
 6557TIP3   OH219634   2.883   4.585   0.777 -0.2095  0.3375  0.2498
 6557TIP3    H119635   2.958   4.530   0.798 -0.3198  0.0087 -0.1909
 6557TIP3    H219636   2.918   4.675   0.777 -0.0685  0.2940  1.1440
 6558TIP3   OH219637   2.461   5.952   4.526 -0.5485 -0.3426  0.4974
 6558TIP3    H119638   2.403   5.939   4.450  0.8283 -1.1501 -0.4683
 6558TIP3    H219639   2.549   5.944   4.490  0.3678  3.6330  1.3599
 6559TIP3   OH219640   4.474   2.603   1.079 -0.4363 -0.3747 -0.1655
 6559TIP3    H119641   4.502   2.681   1.030  0.8982 -0.2340  0.7533
 6559TIP3    H219642   4.545   2.588   1.142 -2.4161 -0.0715  2.2767
 6560TIP3   OH219643   1.080   5.968   5.433  0.8015  0.2440 -0.1691
 6560TIP3    H119644   1.172   5.940   5.431  0.9993  0.8799 -0.2882
 6560TIP3    H219645   1.030   5.887   5.439  1.3815 -0.1019  0.1120
 6561TIP3   OH219646   3.621   2.830   1.713 -0.3852 -0.1526 -0.4327
 6561TIP3    H119647   3.626   2.803   1.804  0.7236  0.4892 -0.2715
 6561TIP3    H219648   3.694   2.892   1.703 -0.3614 -0.3707 -1.8031
 6562TIP3   OH219649   0.194   0.573   2.591 -0.3388 -0.1442 -0.0869
 6562TIP3    H119650   0.154   0.611   2.513 -1.1448  1.5403  1.0943
 6562TIP3    H219651   0.288   0.570   2.569 -0.5350  0.3699 -1.0963
 6563TIP3   OH219652   6.374   2.955   1.664 -0.1754 -0.4833 -0.4411
 6563TIP3    H119653   6.303   2.940   1.601 -0.7161 -0.6361  0.1901
 6563TIP3    H219654   6.338   3.018   1.726 -0.0067 -1.0948  0.2868
 6564TIP3   OH219655   6.978   6.103   4.134  0.1144  0.1995  0.2429
 6564TIP3    H119656   6.928   6.142   4.206 -0.8646  0.6422 -0.6504
 6564TIP3    H219657   7.067   6.135   4.147 -0.5063  2.1784 -0.0234
 6565TIP3   OH219658   0.247   1.876   1.465  0.4254  0.1029  0.1898
 6565TIP3    H119659   0.288   1.794   1.493 -1.6406 -0.5095  1.6836
 6565TIP3    H219660   0.232   1.865   1.371 -1.6015 -2.1258  0.6941
 6566TIP3   OH219661   1.086   2.154   2.834 -0.8675 -0.1944  0.0700
 6566TIP3    H119662   1.084   2.190   2.745 -2.5390  1.5671  0.7419
 6566TIP3    H219663   1.115   2.228   2.889  1.1547 -1.5307  0.9365
 6567TIP3   OH219664   3.923   3.658   0.968  0.1563  0.0697 -0.3817
 6567TIP3    H119665   3.939   3.650   1.062 -0.3075  2.2275 -0.0738
 6567TIP3    H219666   4.003   3.625   0.928  0.9842  0.5355  0.8220
 6568TIP3   OH219667   1.744   1.762   1.642  0.2416  0.0376 -0.6018
 6568TIP3    H119668   1.699   1.702   1.583 -0.6580  1.6623 -1.6585
 6568TIP3    H219669   1.674   1.806   1.690  0.9242 -0.4514  0.8959
 6569TIP3   OH219670   6.906   0.558   1.554 -0.0788 -0.1970  0.3930
 6569TIP3    H119671   6.902   0.631   1.492 -0.7826  0.4310  1.1488
 6569TIP3    H219672   6.884   0.481   1.503 -0.9866  0.3580 -0.0713
 6570TIP3   OH219673   3.461   6.512   0.820  0.5162  0.3691 -0.0240
 6570TIP3    H119674   3.447   6.557   0.903  0.4771 -1.1908  0.8587
 6570TIP3    H219675   3.556   6.515   0.808  0.3924  2.1832 -0.8930
 6571TIP3   OH219676   2.735   0.571   3.299 -0.0145 -0.6147  0.4958
 6571TIP3    H119677   2.687   0.512   3.240  0.0444 -0.1788 -0.0022
 6571TIP3    H219678   2.694   0.559   3.384 -0.0757 -1.2931  0.3756
 6572TIP3   OH219679   1.228   4.991   5.254  0.7649  0.2664  0.8224
 6572TIP3    H119680   1.168   5.053   5.295 -0.9934 -0.7519 -0.0808
 6572TIP3    H219681   1.292   4.971   5.322  0.5386  1.9523  1.5909
 6573TIP3   OH219682   1.670   2.769   5.548  0.2524  0.0069  0.6400
 6573TIP3    H119683   1.741   2.723   5.592  3.7414  2.7069 -1.5559
 6573TIP3    H219684   1.656   2.848   5.600  0.0286  0.2521  0.2157
 6574TIP3   OH219685   5.087   1.131   1.065 -0.0364 -0.5071 -0.2341
 6574TIP3    H119686   5.134   1.176   1.135 -0.2873  0.8807 -0.9148
 6574TIP3    H219687   4.997   1.126   1.097 -0.1414  0.0839 -0.4107
 6575TIP3   OH219688   6.005   5.445   3.756 -0.3828  0.3059 -0.0686
 6575TIP3    H119689   5.932   5.410   3.705 -1.5870  2.4186  0.1216
 6575TIP3    H219690   6.081   5.436   3.698 -1.3838  1.0102 -1.5562
 6576TIP3   OH219691   3.115   2.655   1.251  0.1005  0.0284  0.2257
 6576TIP3    H119692   3.153   2.742   1.243 -0.7787  0.4243  0.1559
 6576TIP3    H219693   3.143   2.608   1.173 -1.7424  1.1971 -1.2336
 6577TIP3   OH219694   0.129   2.453   3.838 -0.0331 -0.4885 -0.2388
 6577TIP3    H119695   0.071   2.485   3.906 -1.4208 -0.5926 -1.3320
 6577TIP3    H219696   0.073   2.444   3.761  1.3277 -1.0860 -1.1956
 6578TIP3   OH219697   2.707   6.285   3.103 -0.2711 -0.0350 -0.2973
 6578TIP3    H119698   2.625   6.296   3.055 -2.0910  1.6457  2.8329
 6578TIP3    H219699   2.710   6.192   3.125 -1.4225 -0.1134 -0.4123
 6579TIP3   OH219700   6.266   4.005   4.489  0.1566 -0.5061  0.2174
 6579TIP3    H119701   6.263   3.990   4.395  0.2777 -1.6406  0.3846
 6579TIP3    H219702   6.349   4.049   4.503  0.4201 -0.8804 -0.1386
 6580TIP3   OH219703   0.212   5.313   2.380  0.4742 -0.2100 -0.2316
 6580TIP3    H119704   0.249   5.283   2.464 -2.7649 -2.8449  0.4463
 6580TIP3    H219705   0.252   5.256   2.315 -1.2608 -2.1587  0.3310
 6581TIP3   OH219706   4.160   0.996   0.940  0.2194  0.4428  0.0362
 6581TIP3    H119707   4.080   1.048   0.946  0.2969  0.4867  0.8552
 6581TIP3    H219708   4.139   0.915   0.987  0.6093  0.3943  0.1292
 6582TIP3   OH219709   6.042   6.528   4.977  0.5354 -0.3458 -0.3984
 6582TIP3    H119710   6.005   6.567   5.056 -0.3819 -1.5450 -0.2067
 6582TIP3    H219711   6.059   6.437   5.001  1.7932 -0.3173 -1.0963
 6583TIP3   OH219712   5.224   0.871   2.025  0.1498 -0.1327  0.2696
 6583TIP3    H119713   5.196   0.945   2.079 -1.6382  0.1804 -1.0203
 6583TIP3    H219714   5.147   0.813   2.021  0.4247 -0.4342 -1.4259
 6584TIP3   OH219715   2.706   3.296   2.394 -0.0969  0.7462  0.1215
 6584TIP3    H119716   2.729   3.282   2.302  2.1733 -1.6865  0.9292
 6584TIP3    H219717   2.612   3.279   2.399  0.3340 -2.6979 -1.2441
 6585TIP3   OH219718   3.105   3.856   0.168 -0.1498 -0.2448  0.3492
 6585TIP3    H119719   3.081   3.895   0.253  1.7283  0.7930  0.4666
 6585TIP3    H219720   3.131   3.931   0.114  1.5987 -1.1359 -0.1167
 6586TIP3   OH219721   0.182   5.922   2.876  0.0508  0.3336  0.2387
 6586TIP3    H119722   0.247   5.853   2.888 -0.3035  0.3095  2.3951
 6586TIP3    H219723   0.109   5.879   2.833  0.0961 -0.5123  0.9670
 6587TIP3   OH219724   2.359   3.080   4.269 -0.0964  0.7172  0.2911
 6587TIP3    H119725   2.289   3.136   4.236 -2.1356 -0.8632  1.6845
 6587TIP3    H219726   2.393   3.127   4.346 -1.9434  0.0437  1.5877
 6588TIP3   OH219727   0.536   2.006   2.575  0.3653 -0.5002 -0.1574
 6588TIP3    H119728   0.471   1.981   2.510  0.8529 -2.2568 -0.0102
 6588TIP3    H219729   0.493   2.075   2.626 -2.0886 -2.7125  0.9875
 6589TIP3   OH219730   2.336   3.744   0.290  0.2316  0.7281 -0.0753
 6589TIP3    H119731   2.268   3.781   0.234 -0.2480 -0.1104 -0.0597
 6589TIP3    H219732   2.328   3.650   0.278  0.7146  0.5760  0.7245
 6590TIP3   OH219733   5.495   3.144   0.978  0.4671  0.1456 -0.1763
 6590TIP3    H119734   5.485   3.119   1.070  0.0334 -2.0600 -0.7760
 6590TIP3    H219735   5.405   3.159   0.948  0.5428  0.0589 -0.4447
 6591TIP3   OH219736   4.487   5.286   5.751 -0.0292  0.3419  0.3354
 6591TIP3    H119737   4.412   5.271   5.693 -0.0044  0.5862  0.2371
 6591TIP3    H219738   4.461   5.247   5.835 -0.8405  1.6364  0.7150
 6592TIP3   OH219739   4.127   1.805   0.370  0.1012 -0.3230  0.5554
 6592TIP3    H119740   4.093   1.855   0.296 -1.0411 -1.4288  0.3128
 6592TIP3    H219741   4.204   1.855   0.399  2.2150 -1.1610 -2.9744
 6593TIP3   OH219742   5.475   2.244   3.654 -0.0388 -0.2986  0.7417
 6593TIP3    H119743   5.380   2.228   3.650  0.2153 -1.6331 -1.1293
 6593TIP3    H219744   5.510   2.168   3.700  0.2266 -0.4485  0.3034
 6594TIP3   OH219745   5.140   1.336   4.552 -0.3903  0.4888 -0.0185
 6594TIP3    H119746   5.218   1.295   4.591 -0.4974  0.7562  0.4822
 6594TIP3    H219747   5.123   1.284   4.473 -1.2520 -1.2404  1.2267
 6595TIP3   OH219748   1.475   2.969   3.423  0.6669 -0.3583 -0.3812
 6595TIP3    H119749   1.482   3.064   3.433 -0.2142 -0.2532 -0.7291
 6595TIP3    H219750   1.445   2.938   3.509 -1.4617 -0.0443 -0.9689
 6596TIP3   OH219751   4.576   0.998   4.490  0.0202 -0.1406 -0.0142
 6596TIP3    H119752   4.552   1.040   4.408 -0.1026 -0.2383 -0.0298
 6596TIP3    H219753   4.655   0.948   4.469  1.4647  1.8346  0.5434
 6597TIP3   OH219754   0.771   4.863   2.681  0.3437  0.1341 -0.0211
 6597TIP3    H119755   0.774   4.783   2.627 -0.1800  0.5503 -0.6897
 6597TIP3    H219756   0.678   4.882   2.691  0.4672  0.9811 -0.3617
 6598TIP3   OH219757   4.868   3.505   4.566 -0.2129  0.0800 -0.3003
 6598TIP3    H119758   4.889   3.446   4.639 -2.1001  0.2284  0.4207
 6598TIP3    H219759   4.844   3.446   4.494 -0.6969 -0.0728 -0.0241
 6599TIP3   OH219760   5.074   3.550   2.808 -0.1293 -0.2104  0.2231
 6599TIP3    H119761   5.088   3.644   2.795 -1.7219 -0.2535 -2.4936
 6599TIP3    H219762   5.162   3.514   2.819  1.0486  1.0645 -3.5382
 6600TIP3   OH219763   1.279   0.919   0.237 -0.1374 -0.6307  0.1045
 6600TIP3    H119764   1.247   0.861   0.167 -0.4395 -0.9161  0.4697
 6600TIP3    H219765   1.268   1.007   0.203  1.7437 -0.8160 -1.0655
 6601TIP3   OH219766   7.181   0.453   1.508 -0.9597 -0.2332 -0.1766
 6601TIP3    H119767   7.127   0.489   1.579  0.3184 -1.2789  1.4073
 6601TIP3    H219768   7.255   0.514   1.501 -0.4250 -0.8183  0.2992
 6602TIP3   OH219769   6.897   0.425   3.838 -0.2316  0.2171 -0.2045
 6602TIP3    H119770   6.958   0.495   3.816 -0.9293  0.5113 -1.2347
 6602TIP3    H219771   6.943   0.373   3.904  1.2312  0.2927 -1.1362
 6603TIP3   OH219772   3.399   0.659   1.340 -0.3214 -0.4558 -0.1586
 6603TIP3    H119773   3.341   0.710   1.395 -1.2507 -0.7793 -0.8114
 6603TIP3    H219774   3.415   0.579   1.390 -0.7247 -0.5130 -0.1142
 6604TIP3   OH219775   4.985   4.626   1.677 -0.1423 -0.3362 -0.4083
 6604TIP3    H119776   4.965   4.589   1.763 -0.5694  0.4277 -0.1707
 6604TIP3    H219777   5.035   4.558   1.633  2.6422  0.2926  1.4898
 6605TIP3   OH219778   3.548   5.980   1.420  0.1896  0.1943  0.5628
 6605TIP3    H119779   3.456   5.960   1.437 -0.0699 -1.8030 -2.4338
 6605TIP3    H219780   3.546   6.039   1.345  1.2816 -0.9283 -0.4049
 6606TIP3   OH219781   5.767   6.537   4.147  0.1329  0.0077 -0.5813
 6606TIP3    H119782   5.734   6.615   4.193 -0.2432 -0.6456  0.2964
 6606TIP3    H219783   5.697   6.512   4.088  0.7475  1.0430 -1.7883
 6607TIP3   OH219784   2.079   0.772   3.514 -0.5334  0.3436 -0.3534
 6607TIP3    H119785   2.155   0.750   3.567 -0.8583 -0.8068 -0.3227
 6607TIP3    H219786   2.078   0.868   3.511  1.8843  0.4089 -1.7900
 6608TIP3   OH219787   4.679   1.875   3.153 -0.5832  0.1423 -0.2628
 6608TIP3    H119788   4.653   1.783   3.159 -2.4307  0.5131 -1.7328
 6608TIP3    H219789   4.619   1.921   3.212 -0.2997  0.5161 -0.2623
 6609TIP3   OH219790   0.659   6.428   0.118 -0.1839 -0.0790  0.4172
 6609TIP3    H119791   0.571   6.410   0.151 -0.2766 -1.0602 -0.3196
 6609TIP3    H219792   0.644   6.467   0.032  0.0980  0.3366  0.5539
 6610TIP3   OH219793   2.234   3.148   0.460  0.2027  0.4796 -0.4381
 6610TIP3    H119794   2.200   3.238   0.457 -0.5022  0.2121 -0.7561
 6610TIP3    H219795   2.233   3.119   0.368 -1.2710 -0.4633 -0.1477
 6611TIP3   OH219796   2.919   0.344   5.543 -0.0507  0.7637 -0.2657
 6611TIP3    H119797   2.887   0.279   5.606 -1.3374  1.5808 -0.0472
 6611TIP3    H219798   3.003   0.374   5.580  0.8181 -1.0802 -0.6202
 6612TIP3   OH219799   6.645   3.740   2.844  0.4485  0.5421  0.1297
 6612TIP3    H119800   6.673   3.654   2.814 -1.9090 -0.8507  1.5559
 6612TIP3    H219801   6.562   3.756   2.798  0.8410  2.0567 -0.0977
 6613TIP3   OH219802   6.780   1.266   4.930 -0.5968 -0.3028 -0.0197
 6613TIP3    H119803   6.687   1.286   4.925 -0.4281  0.6534  0.3749
 6613TIP3    H219804   6.801   1.269   5.023 -0.3947 -1.6517 -0.0079
 6614TIP3   OH219805   4.576   6.764   3.772  0.1546 -0.0799 -0.1743
 6614TIP3    H119806   4.491   6.721   3.779  0.2572 -0.2311  0.1752
 6614TIP3    H219807   4.623   6.714   3.706 -0.5495  0.8862 -1.4413
 6615TIP3   OH219808   3.474   4.480   3.086 -0.7181  0.0648 -0.4853
 6615TIP3    H119809   3.432   4.397   3.107 -0.4196 -0.4064 -1.6576
 6615TIP3    H219810   3.422   4.546   3.132 -1.7806 -0.6370 -0.6452
 6616TIP3   OH219811   6.626   4.810   0.312  0.2650 -0.0331 -0.1823
 6616TIP3    H119812   6.543   4.772   0.280 -0.2663  0.3857  0.6582
 6616TIP3    H219813   6.640   4.886   0.256  1.4900 -1.5595 -2.0794
 6617TIP3   OH219814   2.693   2.462   2.582  0.0576 -0.3880  0.3214
 6617TIP3    H119815   2.739   2.406   2.644 -0.1195 -0.8796  0.0111
 6617TIP3    H219816   2.734   2.445   2.498  1.8929  1.9962  0.6303
 6618TIP3   OH219817   3.483   0.811   3.605  0.3166  0.4537  0.2557
 6618TIP3    H119818   3.566   0.857   3.598 -0.2525  1.3411 -0.9815
 6618TIP3    H219819   3.421   0.878   3.634 -0.6892  0.7440 -2.3293
 6619TIP3   OH219820   6.215   1.086   1.196 -0.6544 -0.0059  0.0741
 6619TIP3    H119821   6.260   1.058   1.116 -0.2342  1.1366 -0.1054
 6619TIP3    H219822   6.243   1.024   1.263  2.1016  1.2902  0.2365
 6620TIP3   OH219823   1.557   3.323   1.628  0.4349  0.2728  0.2173
 6620TIP3    H119824   1.629   3.268   1.661  0.4679  0.9011  1.2112
 6620TIP3    H219825   1.482   3.264   1.625  0.6325 -0.0074  0.6129
 6621TIP3   OH219826   4.874   0.507   1.345 -0.2687 -0.2732 -0.3643
 6621TIP3    H119827   4.968   0.489   1.357 -0.2857 -1.1234 -1.3708
 6621TIP3    H219828   4.830   0.433   1.388 -0.5593  0.8951  1.4760
 6622TIP3   OH219829   5.600   6.132   2.889 -0.2945 -0.2890  0.4903
 6622TIP3    H119830   5.649   6.167   2.964 -0.1689 -0.7584  0.6286
 6622TIP3    H219831   5.592   6.206   2.829  1.5325 -0.4563 -0.0270
 6623TIP3   OH219832   7.113   4.070   3.520 -0.3215  0.2502  0.2069
 6623TIP3    H119833   7.152   4.087   3.434  0.3337 -2.2511 -0.0933
 6623TIP3    H219834   7.059   4.146   3.538  0.7381  1.5432 -1.7176
 6624TIP3   OH219835   3.317   5.290   1.270  0.0773  0.4695  0.0661
 6624TIP3    H119836   3.276   5.278   1.185  0.2914 -0.6215  0.1007
 6624TIP3    H219837   3.299   5.209   1.317  0.5918  0.7621  0.7889
 6625TIP3   OH219838   1.524   0.852   4.417  0.4266 -0.4840  0.1791
 6625TIP3    H119839   1.502   0.929   4.470 -1.4209 -0.8986  0.0764
 6625TIP3    H219840   1.457   0.788   4.439  0.6465 -1.2951 -1.3871
 6626TIP3   OH219841   4.635   2.457   4.763 -0.1004 -0.4594  0.1018
 6626TIP3    H119842   4.615   2.451   4.857  0.2017 -1.3562  0.1283
 6626TIP3    H219843   4.728   2.480   4.760  0.1573 -1.4585  0.0466
 6627TIP3   OH219844   0.093   2.601   4.407  0.0501 -0.2223  0.0819
 6627TIP3    H119845   0.171   2.631   4.360  0.2254 -0.7725  0.0154
 6627TIP3    H219846   0.076   2.514   4.371 -1.8955  0.7393 -1.5046
 6628TIP3   OH219847   6.859   2.755   1.777 -0.0895  0.6843  0.5231
 6628TIP3    H119848   6.770   2.787   1.767  0.6189  2.1776 -2.0465
 6628TIP3    H219849   6.856   2.664   1.747 -0.8086  0.6304  0.7491
 6629TIP3   OH219850   6.127   6.652   4.289  0.1722 -0.1156 -0.1809
 6629TIP3    H119851   6.126   6.576   4.348  0.1463 -0.2056 -0.2974
 6629TIP3    H219852   6.096   6.618   4.205 -1.4392  0.3730  0.1818
 6630TIP3   OH219853   2.311   3.965   2.242  0.6275 -0.2725 -0.1049
 6630TIP3    H119854   2.246   4.033   2.228 -0.4391 -1.1926  0.2670
 6630TIP3    H219855   2.365   3.997   2.315 -0.4718 -0.2594  0.7188
 6631TIP3   OH219856   3.349   3.950   2.724  0.7485  0.5412 -0.1377
 6631TIP3    H119857   3.299   3.966   2.644  0.9882 -0.1149 -0.4201
 6631TIP3    H219858   3.289   3.902   2.781  1.2378 -0.8067 -0.7173
 6632TIP3   OH219859   4.578   6.210   3.655  0.0868  0.3077 -0.7054
 6632TIP3    H119860   4.495   6.169   3.682 -0.3201  0.8006 -1.1707
 6632TIP3    H219861   4.551   6.286   3.604  0.8386 -0.0711 -1.6918
 6633TIP3   OH219862   4.445   0.470   4.338  0.2618 -0.0159  0.6629
 6633TIP3    H119863   4.440   0.505   4.427 -1.1185 -0.1028  0.6297
 6633TIP3    H219864   4.429   0.376   4.348  0.5776 -0.1058  0.3662
 6634TIP3   OH219865   0.831   6.176   3.009 -0.4863  0.1048  0.4486
 6634TIP3    H119866   0.771   6.187   3.083 -1.0966  1.7001 -0.2417
 6634TIP3    H219867   0.873   6.262   2.999 -0.3407 -0.1065 -0.9825
 6635TIP3   OH219868   4.165   4.552   1.123  0.3479 -0.3574 -0.4612
 6635TIP3    H119869   4.130   4.541   1.211 -1.3783  0.2298 -1.0296
 6635TIP3    H219870   4.088   4.573   1.069  1.3953 -0.4527 -2.0580
 6636TIP3   OH219871   3.680   2.191   4.070  0.4594  0.6579 -0.0300
 6636TIP3    H119872   3.754   2.182   4.130  0.6027  0.7078 -0.1981
 6636TIP3    H219873   3.687   2.116   4.011 -0.4905 -0.1773  0.8803
 6637TIP3   OH219874   4.053   3.164   5.355 -0.7745  0.4932  0.2840
 6637TIP3    H119875   4.039   3.132   5.266 -2.7188  1.1565  0.2991
 6637TIP3    H219876   4.007   3.248   5.358 -2.1864 -0.2506  2.3247
 6638TIP3   OH219877   1.072   2.187   5.115 -0.0052  0.2090 -0.2715
 6638TIP3    H119878   1.084   2.181   5.210  1.4007  1.8008 -0.3063
 6638TIP3    H219879   1.160   2.180   5.079 -0.6585 -2.0147 -1.6309
 6639TIP3   OH219880   6.851   3.925   1.868 -0.4050 -0.2732  0.6164
 6639TIP3    H119881   6.897   3.864   1.926  2.2433  1.5408  0.5968
 6639TIP3    H219882   6.793   3.974   1.926  0.8753  0.2873  1.4669
 6640TIP3   OH219883   5.530   1.972   2.846  0.1485  0.5424  0.5091
 6640TIP3    H119884   5.513   2.041   2.910  0.4444  2.1534 -1.0771
 6640TIP3    H219885   5.453   1.970   2.790 -0.9581 -2.1599  1.9215
 6641TIP3   OH219886   1.716   1.224   1.642 -0.1487 -0.3317 -0.1994
 6641TIP3    H119887   1.621   1.222   1.629 -0.0504  0.9686 -1.4493
 6641TIP3    H219888   1.732   1.302   1.694  0.1986 -0.9048  0.5719
 6642TIP3   OH219889   1.357   1.265   2.341  0.4017 -0.4180 -0.1712
 6642TIP3    H119890   1.303   1.247   2.264 -0.6717 -1.2300  0.7431
 6642TIP3    H219891   1.302   1.242   2.416  0.7189  2.0753  0.9509
 6643TIP3   OH219892   1.613   4.673   2.993  0.6231  0.2053 -0.2342
 6643TIP3    H119893   1.681   4.703   2.932  0.2387  1.4413 -0.0910
 6643TIP3    H219894   1.645   4.699   3.079  0.5545 -0.3491 -0.0425
 6644TIP3   OH219895   4.672   0.323   1.205 -0.2777 -0.0380  0.1328
 6644TIP3    H119896   4.624   0.302   1.285 -0.4295  0.2253  0.1101
 6644TIP3    H219897   4.745   0.261   1.205 -0.1583  0.1020  0.5806
 6645TIP3   OH219898   3.624   4.771   0.424  0.5360 -0.2240  0.0723
 6645TIP3    H119899   3.558   4.715   0.383  1.4283 -0.8647 -0.5344
 6645TIP3    H219900   3.699   4.767   0.364  1.2351  0.2345  0.8971
 6646TIP3   OH219901   6.953   5.449   1.012  0.1709 -0.0629 -0.0254
 6646TIP3    H119902   6.858   5.438   1.006  0.1844 -0.8573  1.0303
 6646TIP3    H219903   6.983   5.377   1.066  1.6195 -0.8592 -1.7686
 6647TIP3   OH219904   0.276   5.963   0.209 -0.0454 -0.0747  0.8613
 6647TIP3    H119905   0.280   5.873   0.242 -0.6540 -0.2655  0.4424
 6647TIP3    H219906   0.320   5.960   0.125 -0.3007 -0.0424  0.7254
 6648TIP3   OH219907   5.924   5.825   3.705 -0.0067  0.5128  0.2611
 6648TIP3    H119908   5.869   5.891   3.662  0.5228  0.9714  0.2796
 6648TIP3    H219909   5.976   5.874   3.768  1.4614  0.3271 -0.7509
 6649TIP3   OH219910   5.204   0.710   2.652  0.1567  0.0582 -0.2423
 6649TIP3    H119911   5.195   0.760   2.733 -0.7710  0.1214 -0.3764
 6649TIP3    H219912   5.184   0.619   2.677 -1.1913  0.2385 -0.5941
 6650TIP3   OH219913   2.808   0.033   1.267 -0.0468  0.3504 -0.1668
 6650TIP3    H119914   2.827  -0.013   1.186 -0.1526  0.5052 -0.2796
 6650TIP3    H219915   2.885   0.017   1.322  0.6115  1.3344 -0.7802
 6651TIP3   OH219916   4.403   0.051   4.958 -0.2005  0.1079  0.0319
 6651TIP3    H119917   4.362  -0.032   4.980 -1.2314  0.5018 -0.3569
 6651TIP3    H219918   4.465   0.030   4.888 -0.6316 -0.2985 -0.2315
 6652TIP3   OH219919   5.979   1.660   5.067  0.4644 -0.3273 -0.2772
 6652TIP3    H119920   6.023   1.736   5.104  0.2061  0.1771 -0.9897
 6652TIP3    H219921   5.898   1.695   5.030  1.5344 -0.4617 -2.9762
 6653TIP3   OH219922   1.479   1.922   1.508  0.3432  0.2422  0.1477
 6653TIP3    H119923   1.552   1.943   1.449  0.4404 -0.1269  0.1387
 6653TIP3    H219924   1.498   1.973   1.587  1.1648 -0.6554  0.5432
 6654TIP3   OH219925   1.135   0.750   0.064 -0.2454  0.3050 -0.0564
 6654TIP3    H119926   1.071   0.817   0.042  0.3596  0.1000 -2.7814
 6654TIP3    H219927   1.106   0.671   0.017  0.4186 -0.6417  1.0490
 6655TIP3   OH219928   5.462   3.911   5.277 -0.3664  0.3309  0.2689
 6655TIP3    H119929   5.403   3.971   5.322  0.4424  0.8664  0.6331
 6655TIP3    H219930   5.404   3.853   5.228 -1.1341  1.8376 -0.6523
 6656TIP3   OH219931   2.783   4.257   2.707  0.3030 -0.4881  0.1594
 6656TIP3    H119932   2.753   4.310   2.781  0.5132  1.2539 -0.9378
 6656TIP3    H219933   2.874   4.283   2.694  0.2619 -0.7354 -0.7149
 6657TIP3   OH219934   2.324   5.741   3.557 -0.0973 -0.1818  0.1239
 6657TIP3    H119935   2.372   5.762   3.477 -0.5082  0.4710  0.0416
 6657TIP3    H219936   2.232   5.758   3.536 -0.1174  1.0032  1.0305
 6658TIP3   OH219937  -0.013   1.386   0.450  0.0851  0.3672 -0.5284
 6658TIP3    H119938   0.053   1.354   0.512  1.4221  0.6442 -1.7488
 6658TIP3    H219939  -0.038   1.309   0.401 -1.0878  0.1184  0.4073
 6659TIP3   OH219940   6.902   6.403   2.855 -0.1197  0.2768 -0.1532
 6659TIP3    H119941   6.820   6.379   2.897  0.0009 -0.8027 -0.5003
 6659TIP3    H219942   6.897   6.364   2.768  0.4951  0.7351 -0.4014
 6660TIP3   OH219943   6.026   6.730   3.346 -0.1155  0.1438 -0.3773
 6660TIP3    H119944   6.008   6.706   3.255 -0.1270  1.4442 -0.7345
 6660TIP3    H219945   6.116   6.700   3.362  0.6377  1.7161 -1.4780
 6661TIP3   OH219946   4.092   6.496   4.845  0.0182  0.2458  0.4410
 6661TIP3    H119947   4.118   6.423   4.788  1.0818  0.6223  0.4034
 6661TIP3    H219948   4.166   6.557   4.839 -0.5986  1.0533  0.9292
 6662TIP3   OH219949   3.755   3.822   2.942 -0.0466 -0.1252  0.2562
 6662TIP3    H119950   3.804   3.894   2.902 -0.4272  0.4152  0.7510
 6662TIP3    H219951   3.698   3.790   2.872  0.6537 -0.4440 -0.1829
 6663TIP3   OH219952   6.391   0.229   2.662 -0.2308 -0.1968  0.1290
 6663TIP3    H119953   6.383   0.225   2.757  2.3641  0.3984  0.4527
 6663TIP3    H219954   6.407   0.322   2.644 -1.2318 -0.2217 -0.9685
 6664TIP3   OH219955   5.979   6.393   5.569  0.1519 -0.6806 -0.1376
 6664TIP3    H119956   6.053   6.366   5.515  1.4575 -1.2554  1.8214
 6664TIP3    H219957   5.986   6.489   5.574 -1.0725 -0.4016 -2.3767
 6665TIP3   OH219958   3.879   6.065   3.836  0.3142  0.1370 -0.3188
 6665TIP3    H119959   3.940   6.091   3.767  1.0337 -2.0115 -0.5714
 6665TIP3    H219960   3.854   5.975   3.813 -0.5146 -0.1344  1.4793
 6666TIP3   OH219961   0.420   2.993   3.491  0.3083  0.2745  0.0411
 6666TIP3    H119962   0.515   3.006   3.492  0.2181  1.1090 -0.8215
 6666TIP3    H219963   0.406   2.932   3.418  0.1692  0.3363  0.0172
 6667TIP3   OH219964   2.259   1.947   4.016 -0.2843 -0.1506  0.3187
 6667TIP3    H119965   2.250   1.858   4.052  3.0660 -0.5598  0.4512
 6667TIP3    H219966   2.246   1.937   3.922 -0.7670 -0.6303  0.4343
 6668TIP3   OH219967   5.674   3.310   4.603 -0.1579  0.2122  0.2597
 6668TIP3    H119968   5.719   3.235   4.563  1.1640  0.9295  0.3347
 6668TIP3    H219969   5.675   3.377   4.535 -0.0425  0.6395  0.6806
 6669TIP3   OH219970   3.606   2.474   2.874  0.3895  0.4734  0.6430
 6669TIP3    H119971   3.627   2.566   2.890 -0.0981  0.8435 -0.6895
 6669TIP3    H219972   3.510   2.471   2.868  0.4680  0.4359 -2.0356
 6670TIP3   OH219973   2.003   0.540   1.041 -0.1593 -0.1531 -0.1450
 6670TIP3    H119974   1.982   0.631   1.062 -1.4507 -0.0100 -1.8281
 6670TIP3    H219975   2.096   0.532   1.060  0.0607  1.6437 -0.2912
 6671TIP3   OH219976   6.691   1.289   2.998  0.4358  0.5602  0.5092
 6671TIP3    H119977   6.750   1.256   3.066  0.8290  0.7802  0.2823
 6671TIP3    H219978   6.612   1.237   3.008  0.6485  0.2952  0.8576
 6672TIP3   OH219979   4.793   6.724   0.475 -0.3530 -0.2845 -0.6643
 6672TIP3    H119980   4.763   6.646   0.428 -2.2759  0.6579 -1.1374
 6672TIP3    H219981   4.840   6.774   0.409  0.0948 -0.6269 -0.6063
 6673TIP3   OH219982   5.785   2.592   1.023  0.1085  0.1219  0.1221
 6673TIP3    H119983   5.853   2.524   1.024  0.6848  0.5394  3.5099
 6673TIP3    H219984   5.814   2.655   1.089 -2.3626  1.6078 -0.0886
 6674TIP3   OH219985   0.485   6.039   3.376 -0.4916 -1.0087  0.1412
 6674TIP3    H119986   0.392   6.058   3.364 -0.7384 -2.0127  0.3747
 6674TIP3    H219987   0.488   5.949   3.407  0.5097 -0.7056  1.0215
 6675TIP3   OH219988   6.533   2.666   2.182 -0.2790 -0.2412 -0.2522
 6675TIP3    H119989   6.539   2.618   2.099  1.1208  0.0269 -0.3272
 6675TIP3    H219990   6.570   2.752   2.163 -1.6397  0.4836  0.2049
 6676TIP3   OH219991   2.856   1.781   5.671  0.3657 -0.2483  0.2560
 6676TIP3    H119992   2.859   1.872   5.641  0.6269  0.1305  1.3687
 6676TIP3    H219993   2.948   1.755   5.677  0.2934 -0.5635  0.0193
 6677TIP3   OH219994   5.367   4.775   1.251 -0.0178  0.4586 -0.0109
 6677TIP3    H119995   5.370   4.842   1.319 -0.0181  0.0273  0.4137
 6677TIP3    H219996   5.454   4.778   1.211  0.3347 -0.0131  0.7095
 6678TIP3   OH219997   4.028   6.678   5.126  0.3995  0.3320 -0.0753
 6678TIP3    H119998   4.004   6.592   5.160 -4.0849  1.1700 -0.4912
 6678TIP3    H219999   4.068   6.660   5.041 -1.8364 -1.3697 -0.8419
 6679TIP3   OH220000   2.384   5.940   2.948  0.3382 -0.2399  0.1595
 6679TIP3    H120001   2.320   5.967   2.882 -1.3821 -1.7371  1.1136
 6679TIP3    H220002   2.407   5.850   2.925  1.3623 -0.0546  0.4020
 6680TIP3   OH220003   5.773   6.186   5.406 -0.6073  0.1872  0.3687
 6680TIP3    H120004   5.725   6.184   5.489 -3.5300 -2.1540 -1.1759
 6680TIP3    H220005   5.841   6.120   5.416 -1.0339 -0.1866  0.8846
 6681TIP3   OH220006   5.966   3.916   3.000 -0.7669 -0.1338  0.3537
 6681TIP3    H120007   5.984   3.839   2.946  0.5908 -0.9158  1.8221
 6681TIP3    H220008   6.029   3.981   2.972 -1.0667 -0.0017 -0.0194
 6682TIP3   OH220009   4.550   4.549   4.677  0.1074 -0.3110  0.3122
 6682TIP3    H120010   4.493   4.597   4.737  2.3445  0.1202  2.2435
 6682TIP3    H220011   4.491   4.491   4.628 -2.0453  0.7516  1.5289
 6683TIP3   OH220012   1.288   2.898   2.023 -0.2525 -0.3809 -0.0847
 6683TIP3    H120013   1.310   2.989   2.039 -0.1942 -0.5910  1.1606
 6683TIP3    H220014   1.362   2.849   2.058 -0.0114 -0.9053 -1.2629
 6684TIP3   OH220015   1.771   5.159   4.910  0.2837 -0.3210  0.1606
 6684TIP3    H120016   1.782   5.250   4.882  0.5964 -0.4436 -0.1295
 6684TIP3    H220017   1.678   5.150   4.929  0.0438 -0.2413 -0.8900
 6685TIP3   OH220018   1.867   5.480   2.906  0.2073  0.2233 -0.3883
 6685TIP3    H120019   1.945   5.427   2.918  0.3665  0.1114 -1.7905
 6685TIP3    H220020   1.893   5.549   2.845 -0.3176  1.2468  0.4964
 6686TIP3   OH220021   6.234   5.953   0.302  0.0096 -0.3397 -0.3173
 6686TIP3    H120022   6.219   5.999   0.385 -3.2314 -1.9938  0.1865
 6686TIP3    H220023   6.180   6.000   0.238  0.0006 -0.9269 -0.7510
 6687TIP3   OH220024   0.516   5.473   1.789 -0.2447  0.6096 -0.5246
 6687TIP3    H120025   0.451   5.474   1.719 -0.3875  0.1665 -0.4039
 6687TIP3    H220026   0.501   5.390   1.834  0.7787  0.2313 -0.8471
 6688TIP3   OH220027   4.395   3.917   4.058  0.1474  0.1613  0.3822
 6688TIP3    H120028   4.467   3.909   4.121  0.7113  0.4467 -0.2213
 6688TIP3    H220029   4.332   3.975   4.101  1.1446  1.4580  0.1240
 6689TIP3   OH220030   0.137   6.343   5.586  0.3746  0.3364  0.6849
 6689TIP3    H120031   0.214   6.351   5.530 -0.1906  0.9684 -0.0307
 6689TIP3    H220032   0.166   6.290   5.661  1.1854 -0.3697 -0.1150
 6690TIP3   OH220033   2.507   1.115   5.266  0.2260 -0.0391 -0.0977
 6690TIP3    H120034   2.441   1.159   5.321  0.8011  0.4761  0.1956
 6690TIP3    H220035   2.572   1.083   5.328  1.4879  1.5690 -0.5117
 6691TIP3   OH220036   0.803   3.307   1.448 -0.0059 -0.8132 -0.2218
 6691TIP3    H120037   0.864   3.286   1.518  1.2485 -1.3660 -1.4265
 6691TIP3    H220038   0.838   3.386   1.409 -0.2096 -0.9796 -0.7522
 6692TIP3   OH220039   6.209   3.801   2.739 -0.2512 -0.7319 -0.4741
 6692TIP3    H120040   6.201   3.848   2.822  1.7192  0.8199 -1.0825
 6692TIP3    H220041   6.293   3.756   2.745 -0.2412 -0.8735 -1.5000
 6693TIP3   OH220042   1.266   4.407   3.101  0.0612 -0.3501  0.4957
 6693TIP3    H120043   1.342   4.370   3.144 -0.2436 -1.5334  0.0417
 6693TIP3    H220044   1.241   4.342   3.035 -0.4779  0.6613 -0.3386
 6694TIP3   OH220045   2.917   3.645   0.079 -0.5589 -0.3955  0.2944
 6694TIP3    H120046   2.924   3.556   0.113 -1.2483 -0.7220 -0.3825
 6694TIP3    H220047   2.968   3.699   0.140 -0.5818 -1.1699  1.0095
 6695TIP3   OH220048   6.294   5.030   1.677  0.5468 -0.2905  0.1120
 6695TIP3    H120049   6.264   4.998   1.592 -0.2968  0.4117  0.1323
 6695TIP3    H220050   6.335   4.954   1.718  1.1393 -0.5850 -0.9918
 6696TIP3   OH220051   4.270   0.239   5.102  0.7318  0.8117 -0.0640
 6696TIP3    H120052   4.288   0.165   5.044 -0.5460  1.5770 -1.5239
 6696TIP3    H220053   4.307   0.214   5.186 -0.5589 -1.9582 -0.2104
 6697TIP3   OH220054   5.278   6.710   1.098 -0.5659 -0.6617  0.0956
 6697TIP3    H120055   5.266   6.749   1.012 -1.9094  0.9482  0.9587
 6697TIP3    H220056   5.190   6.682   1.124  0.0346 -2.4020  0.4101
 6698TIP3   OH220057   1.821   4.114   1.977  0.1978  0.0582 -0.4930
 6698TIP3    H120058   1.804   4.091   1.886  2.8182  0.8636 -1.2593
 6698TIP3    H220059   1.912   4.144   1.978  0.6604 -1.0910  2.6255
 6699TIP3   OH220060   0.512   6.666   4.219 -0.1165 -0.5255  0.1817
 6699TIP3    H120061   0.455   6.611   4.166 -0.5189  1.1186 -1.2036
 6699TIP3    H220062   0.456   6.695   4.291 -0.4546 -0.4851 -0.0920
 6700TIP3   OH220063   1.083   5.175   2.125 -0.3148 -0.3853 -0.0815
 6700TIP3    H120064   0.988   5.162   2.119 -0.4516 -0.0610  1.0782
 6700TIP3    H220065   1.121   5.100   2.080 -1.1135 -1.4964  1.0291
 6701TIP3   OH220066   4.354   5.550   3.196 -0.5008 -0.4356 -0.2317
 6701TIP3    H120067   4.426   5.610   3.181  0.8201 -1.1460  2.4876
 6701TIP3    H220068   4.374   5.473   3.142  0.2293 -0.2016 -0.2965
 6702TIP3   OH220069   5.389   2.816   0.980  0.1060  0.4639  0.3026
 6702TIP3    H120070   5.348   2.855   1.057  0.1266 -0.1939  0.6526
 6702TIP3    H220071   5.361   2.872   0.907  1.0145  1.7830  0.9167
 6703TIP3   OH220072   5.979   0.086   0.972  0.0219 -0.6712 -0.9933
 6703TIP3    H120073   5.938   0.168   0.944 -0.1727  0.1336  1.4546
 6703TIP3    H220074   6.062   0.083   0.924 -0.2359  0.6440 -1.5691
 6704TIP3   OH220075   0.493   4.830   4.660  0.3867  0.1774 -0.0961
 6704TIP3    H120076   0.541   4.790   4.732  0.3654 -1.0175 -0.7222
 6704TIP3    H220077   0.401   4.807   4.677  0.6017 -2.3839 -1.8131
 6705TIP3   OH220078   1.013   2.422   1.018  0.0635  0.3696  0.0473
 6705TIP3    H120079   1.023   2.334   0.982 -2.3329 -1.1481  2.6541
 6705TIP3    H220080   1.101   2.459   1.016  1.2380 -2.2384 -0.7994
 6706TIP3   OH220081   1.129   3.146   4.995 -0.0348  0.8957  0.3046
 6706TIP3    H120082   1.092   3.126   4.909  0.9301 -0.5803  0.2081
 6706TIP3    H220083   1.088   3.083   5.054  1.4047 -0.0035  0.3956
 6707TIP3   OH220084   3.496   1.056   3.862  0.1034  0.1406  0.0262
 6707TIP3    H120085   3.575   1.109   3.865  0.8784 -1.0231  1.2072
 6707TIP3    H220086   3.521   0.972   3.900 -1.9232  0.0683  1.4289
 6708TIP3   OH220087   0.386   5.699   1.342 -0.0157  0.2174 -0.7084
 6708TIP3    H120088   0.439   5.647   1.401 -1.9970 -0.2920  0.7114
 6708TIP3    H220089   0.417   5.676   1.255  1.9335 -0.1734  0.0457
 6709TIP3   OH220090   0.196   6.293   3.282  0.0844  0.7557 -0.0542
 6709TIP3    H120091   0.178   6.299   3.189  1.2984  1.9153 -0.2425
 6709TIP3    H220092   0.200   6.199   3.300 -0.9147  0.5150 -0.9893
 6710TIP3   OH220093   3.790   0.761   5.000  0.0106  0.1280 -0.2691
 6710TIP3    H120094   3.777   0.670   4.974  0.3783  0.2164 -0.7823
 6710TIP3    H220095   3.796   0.809   4.917  2.1571  0.2843 -0.0793
 6711TIP3   OH220096   0.380   5.235   0.140 -0.4651  0.0587  0.4953
 6711TIP3    H120097   0.303   5.284   0.113  0.4973  1.3930  0.0694
 6711TIP3    H220098   0.431   5.224   0.060  2.2964  3.8201  1.4686
 6712TIP3   OH220099   5.289   3.095   3.856  0.1334  0.2554 -0.2331
 6712TIP3    H120100   5.353   3.165   3.845 -0.0543  0.6703  1.1339
 6712TIP3    H220101   5.272   3.092   3.950 -1.5677 -0.0996 -0.5154
 6713TIP3   OH220102   5.494   6.366   2.701  0.5942  0.1720 -0.1151
 6713TIP3    H120103   5.541   6.449   2.694 -0.4618  1.0312  2.0743
 6713TIP3    H220104   5.435   6.364   2.626  1.4615  0.8376 -0.8217
 6714TIP3   OH220105   3.975   0.750   4.449  0.3444 -0.4685 -0.4383
 6714TIP3    H120106   3.884   0.725   4.469  0.3376 -0.3523 -0.3209
 6714TIP3    H220107   3.971   0.785   4.360  0.1537  0.1515 -0.1911
 6715TIP3   OH220108   6.961   1.165   0.550 -0.2411 -0.1450 -0.7235
 6715TIP3    H120109   6.977   1.234   0.614 -1.7908  0.5565 -1.0281
 6715TIP3    H220110   6.957   1.085   0.601  0.3519  0.1562 -0.1930
 6716TIP3   OH220111   2.640   5.499   2.060  0.2929  0.4046 -0.1715
 6716TIP3    H120112   2.712   5.446   2.092  0.3557  0.2095 -0.6207
 6716TIP3    H220113   2.633   5.572   2.122  0.0810 -0.2271  0.5545
 6717TIP3   OH220114   6.234   6.443   1.355  0.1650  0.0573  0.3173
 6717TIP3    H120115   6.238   6.487   1.440 -1.1242  0.3612  0.2338
 6717TIP3    H220116   6.202   6.509   1.294  0.5612 -0.3096 -0.3083
 6718TIP3   OH220117   6.229   0.146   0.832  0.1062 -0.1345  0.1020
 6718TIP3    H120118   6.303   0.206   0.821  0.4318 -0.8746 -2.2675
 6718TIP3    H220119   6.270   0.060   0.842 -0.4155 -0.3024  0.8567
 6719TIP3   OH220120   6.993   4.383   0.490 -0.5145  0.0180 -0.3637
 6719TIP3    H120121   6.920   4.340   0.444 -2.3787  1.4074  1.1649
 6719TIP3    H220122   6.994   4.342   0.577  1.9556 -1.4596 -0.9745
 6720TIP3   OH220123   3.381   3.039   1.818  0.4966 -0.5137  0.0001
 6720TIP3    H120124   3.370   3.057   1.724 -1.9339 -0.4677  0.2313
 6720TIP3    H220125   3.402   3.125   1.856 -0.4998 -0.1198 -0.2860
 6721TIP3   OH220126   3.444   4.788   2.643  0.1721  0.1720 -0.0908
 6721TIP3    H120127   3.526   4.766   2.599  0.8914  1.5247  0.5220
 6721TIP3    H220128   3.464   4.783   2.736 -0.2496  1.1815  0.0631
 6722TIP3   OH220129   0.917   4.098   0.521 -0.5414  0.1826  0.5993
 6722TIP3    H120130   0.986   4.109   0.455 -0.5280  0.1481  0.6076
 6722TIP3    H220131   0.949   4.148   0.597 -0.9539  0.9406  0.2848
 6723TIP3   OH220132   2.814   2.459   1.372 -0.2692  0.6704  0.1210
 6723TIP3    H120133   2.719   2.447   1.371 -0.1539 -0.7364  1.4760
 6723TIP3    H220134   2.830   2.518   1.445 -0.0446  0.0164  0.6118
 6724TIP3   OH220135   0.740   0.713   1.795  0.2718 -0.0207  0.2401
 6724TIP3    H120136   0.719   0.790   1.742  0.4077 -0.9660 -1.2591
 6724TIP3    H220137   0.742   0.641   1.732  0.6844 -1.1674  1.5186
 6725TIP3   OH220138   4.479   5.251   5.277  0.4425  0.2304 -0.5165
 6725TIP3    H120139   4.517   5.297   5.352  0.1742  0.7104 -0.6749
 6725TIP3    H220140   4.488   5.158   5.299 -0.5925  0.3715  0.5998
 6726TIP3   OH220141   2.631   2.293   0.517 -0.7530 -0.2819  0.7335
 6726TIP3    H120142   2.537   2.280   0.530 -0.8741 -1.0020 -0.7243
 6726TIP3    H220143   2.649   2.258   0.430  0.7280  0.5911  0.6488
 6727TIP3   OH220144   0.038   5.416   1.543 -0.0919 -0.1786  0.4021
 6727TIP3    H120145   0.009   5.371   1.622 -0.6693  0.2363  0.4336
 6727TIP3    H220146  -0.031   5.398   1.479  0.4288 -0.6103 -0.0473
 6728TIP3   OH220147   6.290   3.707   4.304 -0.0657 -0.0077  0.1879
 6728TIP3    H120148   6.336   3.780   4.262 -1.1850  0.8832  0.4561
 6728TIP3    H220149   6.278   3.735   4.395  0.0063 -0.7854  0.4428
 6729TIP3   OH220150   4.239   2.574   2.352  0.1817 -0.4229  0.2968
 6729TIP3    H120151   4.301   2.527   2.297 -0.7291 -2.6045  1.0320
 6729TIP3    H220152   4.169   2.599   2.293  1.1869  1.0958 -0.3212
 6730TIP3   OH220153   6.779   1.525   0.475 -0.0355  0.1497  0.4007
 6730TIP3    H120154   6.761   1.568   0.559  2.0745  0.8079  0.5857
 6730TIP3    H220155   6.839   1.584   0.431  0.9160 -1.3985 -0.4621
 6731TIP3   OH220156   3.155   0.812   0.257 -0.4522 -0.2141  0.3755
 6731TIP3    H120157   3.236   0.762   0.265 -0.3996  0.0157  1.2934
 6731TIP3    H220158   3.177   0.900   0.286 -0.6795  0.2362 -0.7434
 6732TIP3   OH220159   7.124   1.534   1.001  0.0561 -0.4209 -0.1069
 6732TIP3    H120160   7.203   1.485   0.978  0.3074 -0.6047  1.1078
 6732TIP3    H220161   7.099   1.578   0.919  0.7329 -1.2927 -0.8041
 6733TIP3   OH220162   6.848   3.112   3.053  0.3738 -0.0165  0.8950
 6733TIP3    H120163   6.900   3.057   3.110  2.2232 -0.2991 -0.9467
 6733TIP3    H220164   6.865   3.202   3.082 -0.7988 -0.2385  2.3969
 6734TIP3   OH220165   2.165   6.755   4.747 -0.3941  0.3124  0.2194
 6734TIP3    H120166   2.133   6.707   4.670 -1.0033  1.0976 -0.0321
 6734TIP3    H220167   2.195   6.687   4.807 -0.9607 -0.3667 -0.2542
 6735TIP3   OH220168   1.743   1.287   2.688  0.2776  0.5061  0.2405
 6735TIP3    H120169   1.706   1.330   2.766 -0.1821 -0.3290  0.5002
 6735TIP3    H220170   1.713   1.340   2.615  0.8704  1.4160  0.6352
 6736TIP3   OH220171   5.133   0.467   2.737  0.1838  0.3324  0.1040
 6736TIP3    H120172   5.051   0.465   2.785  0.7970  0.7744  1.2100
 6736TIP3    H220173   5.128   0.393   2.676 -1.2184  0.6475 -0.1860
 6737TIP3   OH220174   5.988   1.566   1.055  0.1922  0.0272  0.5979
 6737TIP3    H120175   5.905   1.523   1.073  0.5105 -0.2553  1.4495
 6737TIP3    H220176   6.053   1.495   1.057  0.7174  0.5239  1.9837
 6738TIP3   OH220177   5.314   2.310   4.612 -0.3583 -0.6218 -0.0873
 6738TIP3    H120178   5.410   2.306   4.622 -0.4520 -0.7069  0.9456
 6738TIP3    H220179   5.287   2.380   4.671 -1.0165 -1.2290  0.3575
 6739TIP3   OH220180   1.531   6.476   1.990 -0.1438  0.3324  0.1400
 6739TIP3    H120181   1.598   6.458   2.056 -0.3888 -1.2580 -0.0123
 6739TIP3    H220182   1.576   6.463   1.907 -0.5116 -0.2699  0.0325
 6740TIP3   OH220183   3.254   5.418   3.203  0.0788  0.4970 -0.3885
 6740TIP3    H120184   3.324   5.358   3.176  0.1147  1.1460 -1.8555
 6740TIP3    H220185   3.200   5.427   3.124 -1.6569  0.0431  0.6978
 6741TIP3   OH220186   6.971   2.535   1.353  0.5374  0.3089  0.0681
 6741TIP3    H120187   6.877   2.514   1.350  0.6071  0.1045 -1.3995
 6741TIP3    H220188   7.013   2.464   1.304  1.5191  0.1867  1.0441
 6742TIP3   OH220189   5.481   4.325   4.271  0.0399 -0.5740  0.4616
 6742TIP3    H120190   5.562   4.277   4.286  0.3176 -0.1381  0.3957
 6742TIP3    H220191   5.494   4.408   4.318  0.3842  0.2622 -1.0324
 6743TIP3   OH220192   1.173   6.260   4.227  0.3386  0.3771  0.2854
 6743TIP3    H120193   1.157   6.344   4.184  0.3683  1.3638  2.0720
 6743TIP3    H220194   1.097   6.207   4.207 -0.5887  1.5253  0.6505
 6744TIP3   OH220195   5.715   1.239   3.890  0.2992  0.6323 -0.8592
 6744TIP3    H120196   5.795   1.291   3.897  0.7251 -0.2000  1.4785
 6744TIP3    H220197   5.745   1.151   3.869 -0.2846  0.8688 -2.9297
 6745TIP3   OH220198   3.129   5.524   3.416 -0.1764  0.5982 -0.3946
 6745TIP3    H120199   3.059   5.487   3.362 -0.9702  1.3215  0.1130
 6745TIP3    H220200   3.209   5.511   3.364 -0.3137 -2.2046 -0.0637
 6746TIP3   OH220201   6.394   2.057   4.782  0.2546 -0.4355 -0.6911
 6746TIP3    H120202   6.413   1.965   4.799  3.7605  0.3281  0.2836
 6746TIP3    H220203   6.340   2.085   4.856  2.3187 -0.8952  1.0817
 6747TIP3   OH220204   0.454   3.578   2.085 -0.2596  0.6505  0.2440
 6747TIP3    H120205   0.382   3.626   2.043  0.3809  0.0931 -1.6021
 6747TIP3    H220206   0.532   3.630   2.064  0.3444 -0.7386 -1.1628
 6748TIP3   OH220207   3.925   1.404   3.181 -0.2152 -0.4243  0.0839
 6748TIP3    H120208   3.912   1.309   3.192  1.2871 -0.5553  0.9243
 6748TIP3    H220209   3.838   1.441   3.190 -1.0852 -1.8335 -1.6856
 6749TIP3   OH220210   2.270   3.111   4.865  0.1963  0.1603  0.0434
 6749TIP3    H120211   2.278   3.022   4.899  0.6843 -0.2132 -1.0128
 6749TIP3    H220212   2.323   3.111   4.786  0.0062  1.3305 -0.0961
 6750TIP3   OH220213   3.047   1.611   5.448  0.5561  0.1173  0.2834
 6750TIP3    H120214   3.062   1.609   5.543 -0.7455  1.7010  0.5761
 6750TIP3    H220215   3.077   1.526   5.417  0.9177 -0.4790  2.1284
 6751TIP3   OH220216   6.867   0.582   4.849  0.2623 -0.1457 -0.0702
 6751TIP3    H120217   6.778   0.591   4.814  0.5204  0.0724 -0.6854
 6751TIP3    H220218   6.908   0.518   4.791  1.1225  1.2213 -1.0250
 6752TIP3   OH220219   1.766   6.604   5.803 -0.0679  0.4864  0.6112
 6752TIP3    H120220   1.753   6.542   5.731  2.0133 -0.8419  1.2683
 6752TIP3    H220221   1.764   6.690   5.761  0.2200 -0.2093 -0.9174
 6753TIP3   OH220222   4.100   5.173   3.978 -0.3053 -0.5561 -0.6220
 6753TIP3    H120223   4.166   5.115   4.016 -0.2975  0.3167  0.7858
 6753TIP3    H220224   4.129   5.187   3.888  0.4962 -1.5426 -0.5322
 6754TIP3   OH220225   4.587   0.669   2.823 -0.2542  0.1622 -0.0047
 6754TIP3    H120226   4.548   0.746   2.781 -1.0993  0.5023  1.3499
 6754TIP3    H220227   4.521   0.639   2.885  0.1104 -1.6022 -0.3994
 6755TIP3   OH220228   5.571   0.160   4.519 -1.0068 -0.2620  0.0005
 6755TIP3    H120229   5.548   0.252   4.506 -1.6626 -0.4645 -0.2769
 6755TIP3    H220230   5.665   0.162   4.538 -1.0748  0.4915  0.3046
 6756TIP3   OH220231   0.288   5.180   5.264 -0.2854 -0.0364  0.1422
 6756TIP3    H120232   0.284   5.090   5.294 -0.1735 -1.0051 -2.5041
 6756TIP3    H220233   0.196   5.206   5.253 -0.4167  1.0236  2.9996
 6757TIP3   OH220234   1.198   0.452   1.463  0.0972 -0.5839  0.3101
 6757TIP3    H120235   1.277   0.411   1.496  0.7169  0.4380  0.1390
 6757TIP3    H220236   1.144   0.468   1.541  0.9707  0.6084  0.6866
 6758TIP3   OH220237   4.122   0.593   1.249  0.0067  0.2454 -0.1534
 6758TIP3    H120238   4.211   0.617   1.275 -0.2417  2.1580 -0.9166
 6758TIP3    H220239   4.130   0.502   1.219  1.8726  0.6522 -1.0302
 6759TIP3   OH220240   5.812   3.104   1.592 -0.0086 -0.4136  0.5235
 6759TIP3    H120241   5.747   3.060   1.537  0.0133  1.4182 -1.0892
 6759TIP3    H220242   5.796   3.198   1.577  1.1245  0.1267  2.3677
 6760TIP3   OH220243   5.769   6.710   0.480  0.0410 -0.3436  0.1997
 6760TIP3    H120244   5.735   6.789   0.524  3.4422  1.6378 -0.4096
 6760TIP3    H220245   5.749   6.724   0.388  2.7960  1.2111 -0.2742
 6761TIP3   OH220246   5.684   2.155   3.221 -0.2142 -0.1774 -0.5157
 6761TIP3    H120247   5.614   2.185   3.279  0.8834  0.3103  0.6052
 6761TIP3    H220248   5.754   2.220   3.233  1.0909 -1.5814 -0.2625
 6762TIP3   OH220249   3.585   5.608   0.788  0.0845  0.0927 -0.5774
 6762TIP3    H120250   3.638   5.528   0.784  0.0120  0.0670 -1.1928
 6762TIP3    H220251   3.511   5.590   0.730 -0.1957  0.4177 -0.3205
 6763TIP3   OH220252   5.678   6.411   3.735 -0.1799  0.0940 -0.0032
 6763TIP3    H120253   5.625   6.485   3.707 -0.3667  0.3373  0.9654
 6763TIP3    H220254   5.753   6.450   3.780 -0.1732 -0.2927  0.3321
 6764TIP3   OH220255   6.458   5.502   2.806  0.9386 -0.0515  0.2683
 6764TIP3    H120256   6.445   5.408   2.822  2.3872  0.0580  2.6886
 6764TIP3    H220257   6.374   5.533   2.773 -0.1156 -1.9032  1.0516
 6765TIP3   OH220258   2.688   3.099   5.123 -0.0174  0.1303 -0.0716
 6765TIP3    H120259   2.756   3.078   5.186  1.8283  1.5472 -1.4415
 6765TIP3    H220260   2.698   3.194   5.108 -1.1423  0.0534 -1.5913
 6766TIP3   OH220261   6.577   1.708   5.871 -0.0965  0.1004 -0.1416
 6766TIP3    H120262   6.530   1.660   5.803  0.5207  0.4273 -0.8143
 6766TIP3    H220263   6.544   1.798   5.864 -0.8708 -0.0914  0.7713
 6767TIP3   OH220264   6.498   6.470   5.484  0.5862  0.4975 -0.1611
 6767TIP3    H120265   6.455   6.483   5.568  1.9293 -1.0935  0.8281
 6767TIP3    H220266   6.589   6.448   5.506  0.9347 -0.1262 -2.0107
 6768TIP3   OH220267   6.105   3.536   4.190  0.1710 -0.1349 -0.3433
 6768TIP3    H120268   6.096   3.535   4.095 -0.1253  0.1506 -0.3177
 6768TIP3    H220269   6.162   3.610   4.209  2.1337 -1.5259 -0.4555
 6769TIP3   OH220270   4.887   1.610   5.482 -0.3149  0.8861 -1.0213
 6769TIP3    H120271   4.906   1.516   5.483  1.5539  1.1818  1.6227
 6769TIP3    H220272   4.809   1.619   5.537  0.6559  1.0052  0.3887
 6770TIP3   OH220273   5.001   0.915   0.170  0.6728  0.6246 -0.3487
 6770TIP3    H120274   5.074   0.976   0.156  1.2425  0.3931  1.3729
 6770TIP3    H220275   5.039   0.845   0.223 -0.7227  0.3374  0.2990
 6771TIP3   OH220276   3.704   0.870   3.929 -0.0414  0.4380  0.0145
 6771TIP3    H120277   3.671   0.788   3.890 -2.1648  0.6075  1.2891
 6771TIP3    H220278   3.751   0.842   4.007 -0.1671  0.3775  0.0702
 6772TIP3   OH220279   3.914   1.854   4.561 -0.8738  0.1398 -0.1219
 6772TIP3    H120280   3.957   1.769   4.563 -4.3392 -1.7638  0.5755
 6772TIP3    H220281   3.888   1.866   4.469  0.8099  1.2011 -0.5059
 6773TIP3   OH220282   3.302   5.738   2.634  0.4815 -0.2895  0.4450
 6773TIP3    H120283   3.299   5.644   2.650  0.0638 -0.1684  1.1437
 6773TIP3    H220284   3.214   5.769   2.654  0.2709  0.0788 -0.9551
 6774TIP3   OH220285   3.822   1.406   3.533  0.4907 -0.6227  0.0713
 6774TIP3    H120286   3.908   1.363   3.532  0.3623 -0.9279 -1.4698
 6774TIP3    H220287   3.768   1.351   3.475 -0.2544  0.4984 -0.3212
 6775TIP3   OH220288   1.832   3.866   1.748  0.5046 -0.3042 -0.1043
 6775TIP3    H120289   1.884   3.808   1.802  1.7907  1.2765  0.4254
 6775TIP3    H220290   1.894   3.903   1.685 -0.1293  0.9561 -0.0277
 6776TIP3   OH220291   0.734   6.266   1.626  0.4318  0.4732 -0.0085
 6776TIP3    H120292   0.672   6.338   1.635  0.8829  1.0302 -1.1273
 6776TIP3    H220293   0.693   6.206   1.564  1.6056  1.5826 -1.9550
 6777TIP3   OH220294   2.125   0.287   2.002 -0.5525  0.2907  0.4519
 6777TIP3    H120295   2.127   0.246   1.915 -0.4117  0.2304  0.4848
 6777TIP3    H220296   2.041   0.333   2.003 -0.6792  0.0652  0.3880
 6778TIP3   OH220297   3.363   2.665   1.473 -0.0196 -0.5258  0.7185
 6778TIP3    H120298   3.327   2.682   1.560 -1.5890 -0.3715  0.0702
 6778TIP3    H220299   3.319   2.585   1.444  0.8422 -0.8392  0.2513
 6779TIP3   OH220300   1.098   6.266   0.432 -0.7787 -0.5802 -0.1488
 6779TIP3    H120301   1.145   6.233   0.355 -2.0574  0.3303 -1.3689
 6779TIP3    H220302   1.038   6.195   0.455  0.3558 -1.3000  0.7370
 6780TIP3   OH220303   4.495   3.834   0.441  0.5317 -0.0728  0.4035
 6780TIP3    H120304   4.540   3.762   0.484 -1.0435 -0.7599  0.9927
 6780TIP3    H220305   4.500   3.906   0.503  1.1590 -0.0048  0.2824
 6781TIP3   OH220306   3.801   5.672   1.138 -0.1293  0.1803 -0.3778
 6781TIP3    H120307   3.719   5.711   1.170  0.0974  0.4271 -0.0952
 6781TIP3    H220308   3.796   5.682   1.043 -0.7782 -0.4989 -0.4254
 6782TIP3   OH220309   3.248   0.143   3.864 -0.0162 -0.1578  0.0774
 6782TIP3    H120310   3.261   0.052   3.835 -1.0109 -1.0232  2.1759
 6782TIP3    H220311   3.170   0.172   3.818 -1.8720 -1.6829  2.0759
 6783TIP3   OH220312   1.288   6.260   0.222 -0.2935 -0.9588  0.6825
 6783TIP3    H120313   1.235   6.336   0.198 -0.3224 -1.1721  0.0310
 6783TIP3    H220314   1.362   6.296   0.270 -0.3845 -0.5338  0.5043
 6784TIP3   OH220315   6.277   6.192   1.228  0.4557  0.2495 -0.1173
 6784TIP3    H120316   6.274   6.282   1.259 -0.0066  1.0671 -2.3126
 6784TIP3    H220317   6.291   6.200   1.133  0.5646 -1.9974 -0.3479
 6785TIP3   OH220318   6.061   4.635   0.697  0.0724 -0.1244  0.2464
 6785TIP3    H120319   5.976   4.653   0.737 -0.2500 -1.8437  0.4347
 6785TIP3    H220320   6.100   4.569   0.754  2.0367  1.4149  0.7650
 6786TIP3   OH220321   0.142   1.399   3.379  0.1684 -0.0915  0.0289
 6786TIP3    H120322   0.080   1.469   3.358 -0.1930 -0.9062 -1.8419
 6786TIP3    H220323   0.097   1.346   3.444 -0.6895 -0.0766 -0.5316
 6787TIP3   OH220324   6.978   1.299   4.508  0.3104  0.2974 -0.2327
 6787TIP3    H120325   6.910   1.254   4.557  1.1845 -1.8550 -0.8385
 6787TIP3    H220326   7.057   1.289   4.561  0.7662  0.0583 -0.9361
 6788TIP3   OH220327   5.885   3.578   0.048  0.1171 -0.1644 -0.2023
 6788TIP3    H120328   5.926   3.595   0.133  0.4925  1.4850 -0.6898
 6788TIP3    H220329   5.958   3.560  -0.011  0.0192  0.8673 -0.6517
 6789TIP3   OH220330   6.214   4.750   3.046 -0.0248 -0.0212 -0.2977
 6789TIP3    H120331   6.243   4.791   2.964  0.4110  0.7609  0.2335
 6789TIP3    H220332   6.242   4.811   3.115  2.0565 -1.9144  0.6594
 6790TIP3   OH220333   1.597   4.730   1.649  0.0535 -0.2470  0.2036
 6790TIP3    H120334   1.538   4.655   1.644  1.7367 -1.6181 -0.0506
 6790TIP3    H220335   1.595   4.768   1.562  0.3249 -0.9280 -0.1095
 6791TIP3   OH220336   4.793   3.097   3.367 -0.0553 -0.1038 -0.5296
 6791TIP3    H120337   4.702   3.072   3.350  0.1006 -0.8782 -0.2956
 6791TIP3    H220338   4.843   3.054   3.298  0.4155 -2.0335  0.9155
 6792TIP3   OH220339   1.937   5.900   3.184  0.1605 -0.0486 -0.5577
 6792TIP3    H120340   1.850   5.860   3.187  0.0205  0.1754 -1.2814
 6792TIP3    H220341   1.988   5.841   3.128  0.5683 -0.3436  0.1112
 6793TIP3   OH220342   0.228   5.600   2.708  0.3337  0.1777 -0.2654
 6793TIP3    H120343   0.169   5.627   2.779  0.5027 -0.3065  0.0656
 6793TIP3    H220344   0.178   5.616   2.628 -1.2160 -2.4545  0.0722
 6794TIP3   OH220345   1.324   4.660   2.964 -0.0932  0.1145 -0.3881
 6794TIP3    H120346   1.419   4.663   2.968  0.0253 -1.5122 -1.0142
 6794TIP3    H220347   1.301   4.577   3.006 -1.3842  1.2702  1.3250
 6795TIP3   OH220348   3.426   3.719   5.658  0.7739 -0.0931  0.4573
 6795TIP3    H120349   3.341   3.738   5.619  1.6609  3.8885  0.0615
 6795TIP3    H220350   3.462   3.648   5.605 -0.3611  1.3875 -2.4769
 6796TIP3   OH220351   7.059   4.734  -0.008  0.5083  0.4600  0.2043
 6796TIP3    H120352   7.046   4.817   0.038  1.0491 -0.1590  1.5443
 6796TIP3    H220353   7.116   4.684   0.050 -1.5556 -1.7061  0.5091
 6797TIP3   OH220354   6.160   2.633   1.778  0.3624 -0.0629  0.1823
 6797TIP3    H120355   6.216   2.577   1.724  1.2779  0.0488  1.0005
 6797TIP3    H220356   6.134   2.578   1.852  0.4792  0.2998  0.4957
 6798TIP3   OH220357   1.346   2.254   5.752 -0.2139 -0.2296  0.1269
 6798TIP3    H120358   1.383   2.166   5.760  0.4609  0.0859  0.4825
 6798TIP3    H220359   1.327   2.280   5.843  2.2575  1.1222  0.3364
 6799TIP3   OH220360   6.766   3.671   2.279  0.2479 -0.2847  0.1601
 6799TIP3    H120361   6.708   3.748   2.280 -0.0989 -0.5403  0.6048
 6799TIP3    H220362   6.762   3.637   2.369  1.0663 -0.3307  0.1854
 6800TIP3   OH220363   3.111   5.920   1.209 -0.2364  0.1278 -0.5280
 6800TIP3    H120364   3.025   5.879   1.200 -0.1461 -0.0079 -0.7774
 6800TIP3    H220365   3.161   5.889   1.134 -0.1561  0.6610 -0.6977
 6801TIP3   OH220366   6.428   4.163   4.071  0.2924 -0.4523 -0.2562
 6801TIP3    H120367   6.493   4.129   4.009  0.1962  0.3439 -0.8209
 6801TIP3    H220368   6.352   4.183   4.017 -0.4972 -1.5312  0.4260
 6802TIP3   OH220369   4.990   5.634   2.663 -0.2426  0.2980 -0.0899
 6802TIP3    H120370   5.017   5.549   2.699  0.7273  0.1811 -1.0427
 6802TIP3    H220371   4.895   5.637   2.677 -0.5743 -1.6709 -1.4843
 6803TIP3   OH220372   3.212   1.120   2.569  0.5652  0.6168  0.0651
 6803TIP3    H120373   3.126   1.162   2.572  0.4500  0.4549 -0.7675
 6803TIP3    H220374   3.225   1.087   2.658  0.1090  1.3110  0.4035
 6804TIP3   OH220375   5.683   5.258   3.494  0.0038 -0.0477  0.3280
 6804TIP3    H120376   5.644   5.256   3.582  0.1962 -0.1800  0.4110
 6804TIP3    H220377   5.746   5.330   3.498 -0.0517  0.0047  0.2694
 6805TIP3   OH220378   0.741   5.902   3.257  0.4388 -0.3942  0.3405
 6805TIP3    H120379   0.653   5.895   3.294  0.1250 -0.0613 -0.3431
 6805TIP3    H220380   0.765   5.994   3.268  0.2681 -0.2488 -0.4493
 6806TIP3   OH220381   0.773   5.594   5.779  0.3044  0.1255 -0.1403
 6806TIP3    H120382   0.759   5.673   5.726  0.5884 -0.2550 -0.7980
 6806TIP3    H220383   0.753   5.522   5.720 -0.3680 -0.2926  0.5854
 6807TIP3   OH220384   7.167   3.886   5.338 -0.2297  0.0993 -0.1095
 6807TIP3    H120385   7.239   3.945   5.356 -0.0892 -0.5146  1.5388
 6807TIP3    H220386   7.102   3.940   5.293  0.7299  0.9654 -0.4950
 6808TIP3   OH220387   2.990   0.324   2.147  0.2679 -0.4698 -0.3289
 6808TIP3    H120388   2.904   0.364   2.135 -0.0939 -1.0407  0.2394
 6808TIP3    H220389   2.991   0.298   2.239  0.9456 -0.7012 -0.3983
 6809TIP3   OH220390   7.118   5.918   0.387 -0.3567  0.1317  0.1466
 6809TIP3    H120391   7.031   5.914   0.427 -1.0924  0.6051 -1.3153
 6809TIP3    H220392   7.103   5.959   0.302  0.9802 -1.6461 -1.0244
 6810TIP3   OH220393   5.437   1.449   4.328 -0.0990 -0.3613  0.2241
 6810TIP3    H120394   5.448   1.418   4.418 -2.4912  0.7715  0.9948
 6810TIP3    H220395   5.453   1.543   4.334  2.3982 -0.6110 -1.1480
 6811TIP3   OH220396   3.575   6.789   3.472  0.1823 -0.3592  0.1013
 6811TIP3    H120397   3.605   6.707   3.511 -0.8681 -0.7996  0.0163
 6811TIP3    H220398   3.509   6.823   3.533  1.3032  0.9477  0.6389
 6812TIP3   OH220399   3.431   2.210   2.682  0.1120 -0.0842  0.2758
 6812TIP3    H120400   3.350   2.168   2.712 -1.6971  1.8926 -1.4386
 6812TIP3    H220401   3.475   2.236   2.763 -2.4081  1.2469  1.3709
 6813TIP3   OH220402   4.344   4.173   4.716  0.7329  0.2819 -0.0722
 6813TIP3    H120403   4.300   4.242   4.767 -2.0249 -0.2433 -1.5154
 6813TIP3    H220404   4.336   4.094   4.771  0.6421  0.3721  0.0451
 6814TIP3   OH220405   0.752   5.346   0.356  0.0790 -1.0691  0.6578
 6814TIP3    H120406   0.775   5.264   0.313  0.2567 -1.6345  1.7944
 6814TIP3    H220407   0.828   5.402   0.344 -0.2309 -0.8789 -0.5411
 6815TIP3   OH220408   0.770   6.021   1.490  0.5908  0.0077  0.5628
 6815TIP3    H120409   0.758   5.929   1.468 -0.2099  0.1902  0.1850
 6815TIP3    H220410   0.815   6.020   1.574  0.6167 -0.7264  0.5487
 6816TIP3   OH220411   5.837   6.565   0.963  0.5277 -0.0054 -0.7366
 6816TIP3    H120412   5.768   6.604   1.016  1.1305 -0.8951  0.7860
 6816TIP3    H220413   5.898   6.637   0.947 -0.2176  0.5354 -1.1821
 6817TIP3   OH220414   4.525   5.346   3.285  0.0708  0.3020  0.2792
 6817TIP3    H120415   4.492   5.278   3.344  0.0184  0.7063  0.7196
 6817TIP3    H220416   4.471   5.423   3.304 -0.6137  0.1697 -0.9909
 6818TIP3   OH220417   0.196   2.575   3.272  0.0126  0.0328 -0.2989
 6818TIP3    H120418   0.246   2.495   3.259  0.4584  0.1199  0.7289
 6818TIP3    H220419   0.111   2.558   3.232  0.1233 -0.9307 -0.1414
 6819TIP3   OH220420   3.799   5.024   0.277  0.2108  0.7936 -0.5966
 6819TIP3    H120421   3.806   5.078   0.199  1.3093  0.1845 -0.9468
 6819TIP3    H220422   3.794   4.934   0.244 -0.0428  0.5787  0.0112
 6820TIP3   OH220423   0.333   2.108   1.610  0.2489  0.4081 -0.2710
 6820TIP3    H120424   0.416   2.115   1.657 -0.4663  0.3004  1.0302
 6820TIP3    H220425   0.336   2.021   1.569  0.6650  0.3073 -0.0293
 6821TIP3   OH220426   4.027   1.237   3.601  0.3990 -0.2424  0.0136
 6821TIP3    H120427   3.998   1.147   3.584 -0.2752 -0.4108  1.7507
 6821TIP3    H220428   4.033   1.241   3.697 -0.0935  1.7060 -0.0115
 6822TIP3   OH220429   3.764   4.439   2.710  0.4193 -0.0911  0.0340
 6822TIP3    H120430   3.771   4.520   2.660 -0.9270  0.2722  0.4086
 6822TIP3    H220431   3.727   4.376   2.647 -0.6314  0.1869  0.3568
 6823TIP3   OH220432   5.604   2.395   2.397 -0.1078 -0.2621 -0.2546
 6823TIP3    H120433   5.553   2.358   2.325 -1.2539 -0.6988  0.7500
 6823TIP3    H220434   5.587   2.489   2.392  1.4217 -0.0107 -1.7422
 6824TIP3   OH220435   6.108   5.320   2.227 -0.0009 -0.2749 -0.2776
 6824TIP3    H120436   6.068   5.261   2.291 -2.4601  0.3310 -1.1372
 6824TIP3    H220437   6.199   5.293   2.223 -0.3208 -1.8865  1.7096
 6825TIP3   OH220438   3.550   3.709   3.942  0.2853 -0.2503  0.0530
 6825TIP3    H120439   3.480   3.692   4.005 -0.9735  0.2536 -1.1311
 6825TIP3    H220440   3.595   3.786   3.975 -0.4890  0.1301  0.2411
 6826TIP3   OH220441   1.945   2.485   1.448 -0.0952 -0.5257 -0.0632
 6826TIP3    H120442   2.013   2.467   1.512 -0.8151 -1.8135  0.3671
 6826TIP3    H220443   1.874   2.525   1.498  0.1208  0.3322 -0.4211
 6827TIP3   OH220444   4.307   5.023   4.052 -0.4831 -0.0459 -0.0854
 6827TIP3    H120445   4.375   5.059   4.108 -1.5883  1.0635  0.5836
 6827TIP3    H220446   4.255   4.967   4.111  0.1581 -1.3628 -0.7198
 6828TIP3   OH220447   2.685   5.008   1.800  0.0345  0.1618  0.1366
 6828TIP3    H120448   2.694   4.974   1.889 -0.0898 -0.0793  0.0585
 6828TIP3    H220449   2.725   5.095   1.803  0.2721  0.0466  0.3632
 6829TIP3   OH220450   0.750   3.603   0.009  0.2768  0.0940 -0.1913
 6829TIP3    H120451   0.737   3.629   0.100 -1.4561  0.3578 -0.4687
 6829TIP3    H220452   0.699   3.523  -0.000 -0.0536  0.3919 -1.0639
 6830TIP3   OH220453   0.950   5.858   2.773  0.9082  0.0979  0.5327
 6830TIP3    H120454   0.953   5.762   2.773 -1.4375 -0.0383 -0.1496
 6830TIP3    H220455   0.924   5.882   2.862 -1.6717 -0.1607 -0.0591
 6831TIP3   OH220456   6.619   0.723   1.619  0.2789 -0.1229  0.1294
 6831TIP3    H120457   6.633   0.630   1.634  1.6147  0.1215  0.5973
 6831TIP3    H220458   6.682   0.746   1.550  0.6844  0.6114  0.7231
 6832TIP3   OH220459   1.134   6.012   0.804 -1.3725  0.0568  0.0363
 6832TIP3    H120460   1.077   6.063   0.861 -1.9630  0.1740 -0.6469
 6832TIP3    H220461   1.207   6.070   0.784 -0.0528 -0.6739  2.3267
 6833TIP3   OH220462   1.191   0.558   0.596  0.0480 -0.5942  0.2151
 6833TIP3    H120463   1.278   0.519   0.595  0.7073  0.6924 -2.1560
 6833TIP3    H220464   1.195   0.627   0.530 -2.2320  0.7768  1.3692
 6834TIP3   OH220465   6.128   6.571   1.138 -0.6479  0.1563 -0.4772
 6834TIP3    H120466   6.080   6.654   1.141 -1.4745 -0.1827 -2.5396
 6834TIP3    H220467   6.188   6.582   1.063  0.1499 -0.6417  0.0341
 6835TIP3   OH220468   4.782   2.500   4.488 -0.8641 -0.1185  0.2910
 6835TIP3    H120469   4.689   2.521   4.485 -0.6267  0.9610  0.0482
 6835TIP3    H220470   4.812   2.538   4.571 -0.5308  0.0062  0.1130
 6836TIP3   OH220471   6.881   4.461   2.938  0.1111  0.7733  0.4209
 6836TIP3    H120472   6.877   4.367   2.952  0.2934  0.3138 -2.0578
 6836TIP3    H220473   6.800   4.482   2.890  1.3862  1.2820 -1.6577
 6837TIP3   OH220474   6.134   0.719   4.541 -0.7311  0.0349  0.1057
 6837TIP3    H120475   6.154   0.716   4.447 -0.3791 -0.8728  0.1943
 6837TIP3    H220476   6.108   0.629   4.562 -1.0637  0.2957  0.8234
 6838TIP3   OH220477   5.723   4.143   4.196 -0.1237 -0.4997  0.0324
 6838TIP3    H120478   5.770   4.082   4.253  0.6293 -0.9440 -1.0498
 6838TIP3    H220479   5.776   4.149   4.117  0.2524  2.1829  0.3802
 6839TIP3   OH220480   1.402   4.815   2.506  0.2549  0.2103 -0.2608
 6839TIP3    H120481   1.365   4.856   2.584 -0.7382 -1.9780  0.4846
 6839TIP3    H220482   1.492   4.795   2.531  0.5310  1.2527 -0.3827
 6840TIP3   OH220483   4.322   4.893   0.582 -0.7055  0.1908 -0.2797
 6840TIP3    H120484   4.391   4.853   0.529  1.3195  2.1876  0.6791
 6840TIP3    H220485   4.250   4.830   0.579  0.9923 -1.8337 -1.6275
 6841TIP3   OH220486   1.887   4.178   3.066  0.3027  0.4021 -0.3475
 6841TIP3    H120487   1.849   4.249   3.016 -1.3673 -1.1148 -1.3576
 6841TIP3    H220488   1.968   4.156   3.020 -0.3680  0.1214 -1.4106
 6842TIP3   OH220489   5.296   4.895   0.313 -0.5774  0.3740 -0.5453
 6842TIP3    H120490   5.233   4.859   0.250 -0.1791  0.3804 -0.9540
 6842TIP3    H220491   5.381   4.877   0.274 -0.3077  0.0060  0.1913
 6843TIP3   OH220492   5.482   6.201   0.329  0.0285  0.1392 -0.2114
 6843TIP3    H120493   5.563   6.202   0.279 -0.2058  0.6353 -0.5906
 6843TIP3    H220494   5.466   6.108   0.347  1.0373  0.0944  0.4698
 6844TIP3   OH220495   4.756   4.232   3.650 -0.5289  0.0051 -0.3418
 6844TIP3    H120496   4.848   4.234   3.676 -1.0726  1.7149  1.7822
 6844TIP3    H220497   4.725   4.322   3.663 -2.5273 -0.5533 -0.8564
 6845TIP3   OH220498   0.296   2.558   1.867 -0.0469  0.5319  0.2384
 6845TIP3    H120499   0.283   2.478   1.919 -1.1804  0.5053 -0.0600
 6845TIP3    H220500   0.281   2.629   1.929 -2.1133  0.5057 -0.1606
 6846TIP3   OH220501   6.135   2.838   4.237  0.0723  0.3412 -0.6261
 6846TIP3    H120502   6.119   2.822   4.329  1.1941  0.5237 -0.3884
 6846TIP3    H220503   6.049   2.862   4.202 -0.2277  1.0485  0.5319
 6847TIP3   OH220504   0.849   5.343   2.662  0.7835  0.0228  0.1557
 6847TIP3    H120505   0.907   5.273   2.630  0.4968 -0.5312  0.8362
 6847TIP3    H220506   0.774   5.297   2.699  0.2023  0.7230 -0.1284
 6848TIP3   OH220507   6.341   4.060   1.773  0.2574 -0.1863 -0.4939
 6848TIP3    H120508   6.302   3.995   1.831  0.7153 -0.3554 -0.3775
 6848TIP3    H220509   6.304   4.144   1.802  0.9367 -0.1942  0.4294
 6849TIP3   OH220510   3.622   4.758   5.152 -0.1260  0.1828 -0.1997
 6849TIP3    H120511   3.565   4.686   5.180  1.5937 -1.4335 -0.6934
 6849TIP3    H220512   3.676   4.778   5.229  1.4357 -1.1256 -0.9089
 6850TIP3   OH220513   3.086   0.918   1.013  0.4162  0.6676 -0.0511
 6850TIP3    H120514   3.117   0.844   0.960 -3.5535 -1.0754 -0.2475
 6850TIP3    H220515   3.057   0.983   0.949 -1.6754 -0.2158 -0.0549
 6851TIP3   OH220516   3.030   1.490   2.635  0.0740 -0.0543  0.2551
 6851TIP3    H120517   3.010   1.458   2.547 -0.6769 -0.1028  0.4370
 6851TIP3    H220518   2.949   1.479   2.684  0.8063 -1.0507  1.2750
 6852TIP3   OH220519   2.591   6.612   5.769  0.5994 -0.2479  0.6446
 6852TIP3    H120520   2.641   6.608   5.850  0.8069 -0.7129  0.4987
 6852TIP3    H220521   2.505   6.645   5.795  1.2112  1.2951  0.7784
 6853TIP3   OH220522   6.854   1.058   2.489  0.2852  0.2561  0.2664
 6853TIP3    H120523   6.768   1.050   2.531  0.6754 -2.1306  0.7328
 6853TIP3    H220524   6.868   1.152   2.483 -2.5006  0.7447 -0.1353
 6854TIP3   OH220525   2.891   4.177   3.942 -0.2725 -0.0590  0.6598
 6854TIP3    H120526   2.885   4.247   4.007 -0.0988 -0.1600  0.7838
 6854TIP3    H220527   2.971   4.195   3.894 -1.4393  1.1996 -0.8980
 6855TIP3   OH220528   0.405   3.860   1.392  0.0334 -0.0331 -0.7275
 6855TIP3    H120529   0.334   3.824   1.446  0.1357 -2.0919 -1.8678
 6855TIP3    H220530   0.483   3.848   1.445 -0.2419  0.8245 -0.0992
 6856TIP3   OH220531   4.058   3.333   2.776  0.3121  0.9195 -0.4906
 6856TIP3    H120532   4.008   3.407   2.740 -3.5702 -1.1683  0.1226
 6856TIP3    H220533   4.129   3.375   2.826  1.2925  4.0303 -3.9681
 6857TIP3   OH220534   2.571   4.637   0.831 -0.1585  0.2718  0.2487
 6857TIP3    H120535   2.635   4.573   0.863  0.9853  1.2899  0.0937
 6857TIP3    H220536   2.615   4.679   0.757 -1.4317  0.2943 -0.5128
 6858TIP3   OH220537   4.887   5.572   1.507  0.1681  0.0595  0.1786
 6858TIP3    H120538   4.912   5.564   1.599 -0.3898 -0.8948  0.2597
 6858TIP3    H220539   4.815   5.509   1.496 -0.0839  0.5041 -0.7933
 6859TIP3   OH220540   6.913   1.413   5.411 -0.2108  0.4123 -0.9115
 6859TIP3    H120541   7.007   1.400   5.398 -0.3271 -0.2702 -1.0980
 6859TIP3    H220542   6.907   1.499   5.454  0.6551 -0.4157  0.9748
 6860TIP3   OH220543   5.672   5.006   5.415  0.2528 -0.2034 -0.0624
 6860TIP3    H120544   5.681   5.099   5.397  0.4817 -0.3120 -0.5079
 6860TIP3    H220545   5.726   4.963   5.349  0.6515 -0.6284  0.5299
 6861TIP3   OH220546   5.216   1.589   4.484  0.2326 -0.0236  0.7139
 6861TIP3    H120547   5.295   1.600   4.538  0.9717 -0.1592 -0.3127
 6861TIP3    H220548   5.216   1.497   4.460  2.3107  0.7206 -2.9696
 6862TIP3   OH220549   4.127   1.862   4.173  0.2921  0.3603  0.6706
 6862TIP3    H120550   4.128   1.937   4.233  1.9409  0.1494  0.9546
 6862TIP3    H220551   4.099   1.788   4.228 -0.1538  0.5308  0.6792
 6863TIP3   OH220552   1.501   3.717   1.472 -0.2294  0.3494  0.0371
 6863TIP3    H120553   1.537   3.701   1.559 -0.9528 -0.4512  0.2048
 6863TIP3    H220554   1.486   3.630   1.436 -0.6178  0.6693 -0.6002
 6864TIP3   OH220555   3.819   2.494   1.325  0.0417 -0.7460 -0.7511
 6864TIP3    H120556   3.758   2.547   1.376  1.4479 -0.5894  0.8843
 6864TIP3    H220557   3.789   2.404   1.337  0.5262 -0.7462  0.6913
 6865TIP3   OH220558   4.525   1.362   5.309  0.2125 -0.0476  0.4022
 6865TIP3    H120559   4.584   1.423   5.264 -0.6802  0.5365 -0.0049
 6865TIP3    H220560   4.557   1.276   5.283  1.7421  0.2001  1.3002
 6866TIP3   OH220561   1.750   6.345   1.148  0.3214  0.5370  0.3624
 6866TIP3    H120562   1.754   6.266   1.203  0.8752 -0.9322 -1.6680
 6866TIP3    H220563   1.836   6.386   1.159 -0.3977  1.6848  2.4379
 6867TIP3   OH220564   5.666   2.665   4.685  0.3468  0.6028 -0.2211
 6867TIP3    H120565   5.749   2.711   4.700 -0.1609  1.3058  0.5676
 6867TIP3    H220566   5.623   2.666   4.771 -0.3682  0.0244 -0.5673
 6868TIP3   OH220567   5.199   1.785   1.307  0.2277  0.2303  0.3935
 6868TIP3    H120568   5.207   1.715   1.372 -0.1152 -2.4099 -2.1793
 6868TIP3    H220569   5.113   1.822   1.322  0.3188 -0.0090  1.6756
 6869TIP3   OH220570   4.445   1.818   4.394  0.1973  0.1269 -0.4992
 6869TIP3    H120571   4.515   1.791   4.455 -1.1720 -0.0920  1.0472
 6869TIP3    H220572   4.482   1.802   4.307  1.2865 -2.0252  0.2770
 6870TIP3   OH220573   2.067   4.202   0.033 -0.0693  0.1094  0.0126
 6870TIP3    H120574   2.118   4.191   0.113 -0.2430 -0.6265  0.0260
 6870TIP3    H220575   2.130   4.191  -0.038  0.0602  0.6329  0.0429
 6871TIP3   OH220576   2.251   5.290   1.834 -0.1916 -0.0699  0.2322
 6871TIP3    H120577   2.247   5.196   1.815  0.1520  0.0167 -0.3121
 6871TIP3    H220578   2.320   5.322   1.776 -0.4652  0.5556  0.2521
 6872TIP3   OH220579   1.265   5.638   3.625  0.3375 -0.4777  0.5099
 6872TIP3    H120580   1.293   5.705   3.688  0.6904 -0.5249  0.4093
 6872TIP3    H220581   1.331   5.643   3.555 -0.0298 -0.4520  0.1645
 6873TIP3   OH220582   5.701   4.753   5.732  0.4596 -0.5449  0.4242
 6873TIP3    H120583   5.757   4.682   5.763  0.2684 -1.2683 -0.8009
 6873TIP3    H220584   5.635   4.709   5.679  0.0929  0.5171 -0.0145
 6874TIP3   OH220585   4.416   2.053   3.668 -0.3568 -0.2956  0.2098
 6874TIP3    H120586   4.487   2.002   3.626 -0.4322 -0.1563 -0.0898
 6874TIP3    H220587   4.457   2.137   3.689 -0.6461  0.0983 -0.7241
 6875TIP3   OH220588   5.024   0.532   4.263  0.4735  0.4341  0.4687
 6875TIP3    H120589   5.020   0.628   4.262 -1.4949  0.3912 -0.5368
 6875TIP3    H220590   5.011   0.509   4.355  2.9809  1.1137  1.0720
 6876TIP3   OH220591   1.550   5.855   4.204 -0.1850 -0.3118  0.4971
 6876TIP3    H120592   1.518   5.777   4.158  0.5418  0.5814 -1.6357
 6876TIP3    H220593   1.485   5.923   4.185  0.8922  0.4662 -0.5296
 6877TIP3   OH220594   5.323   5.801   0.688 -0.3810  1.0548 -0.0953
 6877TIP3    H120595   5.348   5.893   0.677  0.2989  0.7440 -1.3627
 6877TIP3    H220596   5.250   5.789   0.626 -1.0380  0.9436  0.6874
 6878TIP3   OH220597   5.582   5.897   5.174  0.4657  0.2826 -0.3025
 6878TIP3    H120598   5.520   5.852   5.232  0.8348  1.8144  1.3805
 6878TIP3    H220599   5.606   5.831   5.109 -0.7681 -1.2127  0.6751
 6879TIP3   OH220600   0.416   0.485   2.213  0.4969 -0.5718 -0.1784
 6879TIP3    H120601   0.442   0.456   2.125  0.3690 -0.4450 -0.2579
 6879TIP3    H220602   0.354   0.418   2.242 -2.6902  1.3953 -1.8150
 6880TIP3   OH220603   6.999   5.652   1.704 -0.1443  0.2938 -0.4391
 6880TIP3    H120604   7.075   5.627   1.650 -0.4648 -2.8547  0.3846
 6880TIP3    H220605   7.017   5.612   1.789 -2.6949 -0.5472 -0.2313
 6881TIP3   OH220606   2.699   4.143   0.896  0.2090 -0.1459 -0.0304
 6881TIP3    H120607   2.701   4.238   0.896 -1.2066 -0.0473 -2.4015
 6881TIP3    H220608   2.613   4.120   0.932  0.9480 -0.6062  1.5300
 6882TIP3   OH220609   0.986   3.528   2.552  0.2347 -0.1837  0.3203
 6882TIP3    H120610   0.955   3.508   2.464 -0.3342 -0.6579  0.6187
 6882TIP3    H220611   0.976   3.445   2.600  1.0921 -0.0926  0.6740
 6883TIP3   OH220612   7.016   3.730   0.452 -0.1088 -0.5879 -0.2889
 6883TIP3    H120613   7.086   3.666   0.461  0.9257  0.6369  0.7267
 6883TIP3    H220614   6.944   3.696   0.506 -0.0378 -1.4865 -0.7503
 6884TIP3   OH220615   0.295   4.693   0.616 -0.2146  0.1558  0.1562
 6884TIP3    H120616   0.218   4.733   0.575 -2.0779 -3.2595 -0.0575
 6884TIP3    H220617   0.368   4.750   0.591 -2.2093  1.8884 -2.2522
 6885TIP3   OH220618   5.894   0.404   4.541  0.3750  0.4353  0.4528
 6885TIP3    H120619   5.896   0.314   4.509 -0.0988  0.5446  0.0836
 6885TIP3    H220620   5.807   0.413   4.580  1.1102  0.1804  2.1957
 6886TIP3   OH220621   6.527   3.580   4.190 -0.4345 -0.1080  0.0565
 6886TIP3    H120622   6.442   3.593   4.233 -0.8317  0.5408 -0.9018
 6886TIP3    H220623   6.512   3.511   4.127 -0.2417 -0.0013 -0.1078
 6887TIP3   OH220624   2.649   3.129   2.697  0.1820 -0.5417  0.1511
 6887TIP3    H120625   2.718   3.081   2.744  1.3474 -1.0215 -1.9163
 6887TIP3    H220626   2.633   3.076   2.619 -2.9402 -0.6897  0.7784
 6888TIP3   OH220627   6.431   4.368   2.948  0.0423  0.3033 -0.2426
 6888TIP3    H120628   6.514   4.396   2.908  0.5633  1.4448  1.5311
 6888TIP3    H220629   6.421   4.424   3.024 -0.5222 -2.2310  1.6937
 6889TIP3   OH220630   4.028   3.047   2.823 -0.2555 -0.4841 -0.3370
 6889TIP3    H120631   3.933   3.040   2.824 -0.2463 -1.0505 -1.4353
 6889TIP3    H220632   4.046   3.141   2.822 -0.8380 -0.3725 -0.9820
 6890TIP3   OH220633   0.419   0.702   1.091  0.0400  0.5592 -0.0496
 6890TIP3    H120634   0.401   0.633   1.028 -0.4149  1.0903 -0.5195
 6890TIP3    H220635   0.421   0.659   1.176 -1.1346  0.1090 -0.2395
 6891TIP3   OH220636   1.075   4.118   1.945  0.4013  0.5239  0.0498
 6891TIP3    H120637   0.983   4.141   1.959  0.5975  1.2120  0.2788
 6891TIP3    H220638   1.110   4.104   2.033 -0.2524 -3.0583 -0.1246
 6892TIP3   OH220639   1.048   6.691   5.484  0.3494 -0.2705  0.0873
 6892TIP3    H120640   1.022   6.778   5.515  0.2382 -0.6275  1.0358
 6892TIP3    H220641   1.004   6.681   5.399 -0.6917  0.0912  0.5679
 6893TIP3   OH220642   2.759   1.601   2.782 -0.4452 -0.1222 -0.2228
 6893TIP3    H120643   2.698   1.560   2.720 -1.2183  1.0348 -0.2670
 6893TIP3    H220644   2.703   1.655   2.838  0.5028  0.6141  0.0388
 6894TIP3   OH220645   3.143   4.753   0.505 -0.5466  0.0197  0.5295
 6894TIP3    H120646   3.071   4.796   0.458  0.3932  1.1302  0.0680
 6894TIP3    H220647   3.167   4.815   0.573  0.5270  0.0215  0.1574
 6895TIP3   OH220648   4.339   0.824   0.455  0.4762  0.1531 -0.0916
 6895TIP3    H120649   4.361   0.864   0.539 -0.5183 -0.4355  0.4677
 6895TIP3    H220650   4.245   0.836   0.446  0.2856 -1.2700 -0.3143
 6896TIP3   OH220651   2.000   0.690   5.789  0.1069  0.1164  0.4529
 6896TIP3    H120652   2.082   0.707   5.743  1.6380 -0.3589  2.8060
 6896TIP3    H220653   1.965   0.777   5.810  1.4405  0.4018  1.6887
 6897TIP3   OH220654   7.130   5.279   5.898  0.2967  0.2529  0.2605
 6897TIP3    H120655   7.205   5.221   5.906 -1.2437 -1.6107  2.3139
 6897TIP3    H220656   7.072   5.235   5.837 -0.6813 -0.1802  1.4722
 6898TIP3   OH220657   0.223   4.169   3.797  0.0980 -0.2127  0.2195
 6898TIP3    H120658   0.231   4.134   3.886  2.9012  1.1792  0.6391
 6898TIP3    H220659   0.270   4.106   3.743 -0.7241 -0.5297 -0.1374
 6899TIP3   OH220660   0.695   6.152   1.268  0.3177  0.0653 -0.3219
 6899TIP3    H120661   0.680   6.243   1.294 -0.8623  0.0831 -1.0043
 6899TIP3    H220662   0.740   6.113   1.343  1.6928  1.4358 -0.3891
 6900TIP3   OH220663   4.438   5.429   2.954  0.1757 -0.4015  0.5481
 6900TIP3    H120664   4.383   5.354   2.934 -0.1082 -0.0642  0.0670
 6900TIP3    H220665   4.407   5.498   2.897 -1.9182  1.1753  3.3250
 6901TIP3   OH220666   0.970   3.283   3.209  0.4491 -0.0421 -0.4151
 6901TIP3    H120667   1.005   3.203   3.248  0.8607  0.2352 -0.2064
 6901TIP3    H220668   1.048   3.332   3.183  0.2186  0.5979  0.0774
 6902TIP3   OH220669   4.027   6.338   1.061  0.3970 -0.1845  0.4221
 6902TIP3    H120670   3.968   6.414   1.052 -0.4657 -1.0386 -1.8539
 6902TIP3    H220671   4.105   6.373   1.104 -0.0642  1.9667 -0.3715
 6903TIP3   OH220672   4.002   1.617   3.557 -0.1163 -0.2814 -0.5528
 6903TIP3    H120673   4.049   1.606   3.639  1.0016 -1.0032 -1.2708
 6903TIP3    H220674   3.934   1.549   3.558  0.0344 -0.4279 -0.3202
 6904TIP3   OH220675   7.109   2.197   3.211  0.3205 -0.0220  0.0687
 6904TIP3    H120676   7.091   2.103   3.206  0.0225  0.0313  0.1051
 6904TIP3    H220677   7.043   2.236   3.154 -0.9402  0.3341  1.7010
 6905TIP3   OH220678   1.980   1.126   1.162  0.1085 -0.2238  0.3554
 6905TIP3    H120679   1.915   1.165   1.220 -0.0081 -0.4668  0.3895
 6905TIP3    H220680   2.057   1.182   1.170 -0.0987  0.0677  0.3129
 6906TIP3   OH220681   5.573   3.501   4.802 -0.5148 -0.2114  1.3259
 6906TIP3    H120682   5.613   3.446   4.735 -1.0281 -0.6269  1.3526
 6906TIP3    H220683   5.642   3.515   4.866  0.7135  2.0268 -0.3201
 6907TIP3   OH220684   5.320   6.593   1.507 -0.4932 -0.3954 -0.1746
 6907TIP3    H120685   5.257   6.550   1.448 -1.6379  0.7595  0.1467
 6907TIP3    H220686   5.405   6.569   1.472 -1.0737 -2.4604 -0.3136
 6908TIP3   OH220687   0.272   4.237   0.703 -0.3019 -1.0666 -0.3594
 6908TIP3    H120688   0.343   4.298   0.683 -1.3796  0.5139  0.4623
 6908TIP3    H220689   0.299   4.195   0.784 -1.0475  0.8579  0.9569
 6909TIP3   OH220690   4.478   1.379   0.546 -0.4430  0.0104  0.4511
 6909TIP3    H120691   4.565   1.396   0.582  1.0265 -0.1498 -2.7215
 6909TIP3    H220692   4.456   1.291   0.578  0.0993  0.3958  2.0046
 6910TIP3   OH220693   1.220   0.808   4.770  0.8680 -0.9343 -0.3881
 6910TIP3    H120694   1.247   0.780   4.857  2.3732 -0.4559 -0.6701
 6910TIP3    H220695   1.271   0.755   4.710  1.0128 -0.1743 -0.9588
 6911TIP3   OH220696   2.962   3.375   3.318  0.7182 -0.1573  0.0661
 6911TIP3    H120697   2.975   3.280   3.316  2.0407  0.0098 -1.2465
 6911TIP3    H220698   3.005   3.406   3.238 -0.2129  1.4922  0.1647
 6912TIP3   OH220699   3.236   2.293   4.190  0.2387 -0.3787  0.5153
 6912TIP3    H120700   3.159   2.238   4.172 -0.4348  0.1257  1.7644
 6912TIP3    H220701   3.305   2.230   4.211 -0.2876 -0.7866  1.0565
 6913TIP3   OH220702   5.598   6.002   2.636 -0.5169 -0.3163 -0.2407
 6913TIP3    H120703   5.545   6.048   2.571 -1.5999  0.1016  0.8927
 6913TIP3    H220704   5.614   6.067   2.704 -0.4375 -1.0657  0.4796
 6914TIP3   OH220705   5.971   2.908   1.063 -0.1935 -0.1441  0.7036
 6914TIP3    H120706   5.987   2.910   1.157 -0.2564  0.8958  0.6953
 6914TIP3    H220707   5.890   2.958   1.050  0.0570  0.1068  0.0539
 6915TIP3   OH220708   6.223   5.944   5.575  0.4543  0.5466  0.1458
 6915TIP3    H120709   6.245   5.852   5.583 -1.3802 -0.0521 -1.0315
 6915TIP3    H220710   6.234   5.980   5.663  0.7811 -0.8728  0.6998
 6916TIP3   OH220711   2.755   3.531   3.123 -0.0582  0.0575 -0.5981
 6916TIP3    H120712   2.671   3.524   3.167 -0.4470 -0.6957 -1.4342
 6916TIP3    H220713   2.820   3.530   3.194 -0.7643  1.6461  0.1224
 6917TIP3   OH220714   2.642   5.449   4.354  0.1926 -0.0283 -0.6107
 6917TIP3    H120715   2.618   5.423   4.443  0.8130 -0.2852 -0.5159
 6917TIP3    H220716   2.693   5.376   4.320  0.2734  0.2257 -1.0482
 6918TIP3   OH220717   0.279   4.666   2.615 -0.0295 -0.4400  0.2282
 6918TIP3    H120718   0.340   4.618   2.671  1.1193 -0.7147 -1.2170
 6918TIP3    H220719   0.216   4.599   2.586 -0.9990 -0.1820  1.6074
 6919TIP3   OH220720   0.841   2.532   2.765  0.5456  0.0000  0.0226
 6919TIP3    H120721   0.816   2.617   2.730  0.4945  0.0879  0.2690
 6919TIP3    H220722   0.911   2.552   2.828  0.3537 -0.1096  0.2745
 6920TIP3   OH220723   2.519   5.405   4.590  0.6168 -0.0051  0.4077
 6920TIP3    H120724   2.470   5.484   4.567  0.8488  0.3199  1.0047
 6920TIP3    H220725   2.452   5.345   4.625  0.6750  0.5785  1.5723
 6921TIP3   OH220726   3.852   3.205   5.632  0.0120  0.0091 -0.2272
 6921TIP3    H120727   3.868   3.119   5.592  0.5384  0.1128 -0.2560
 6921TIP3    H220728   3.856   3.266   5.559  2.4505  0.3687  0.1293
 6922TIP3   OH220729   5.262   5.752   0.195 -0.1128 -0.1201 -0.4936
 6922TIP3    H120730   5.291   5.780   0.108 -1.4524  0.5428 -0.7405
 6922TIP3    H220731   5.279   5.657   0.196  1.6550  0.1489 -0.7543
 6923TIP3   OH220732   4.976   2.997   0.872 -0.3728 -0.0919 -0.0329
 6923TIP3    H120733   5.042   2.983   0.804 -0.8128  0.9611 -0.7159
 6923TIP3    H220734   5.019   2.971   0.953  0.6524 -0.0524 -0.5447
 6924TIP3   OH220735   3.452   0.154   4.415  0.5898  0.3901 -0.2336
 6924TIP3    H120736   3.426   0.245   4.431  1.5855  0.4991  0.9609
 6924TIP3    H220737   3.508   0.159   4.337  0.3774  0.7610 -0.3649
 6925TIP3   OH220738   1.474   2.984   1.830 -0.3133 -0.7951 -0.2576
 6925TIP3    H120739   1.479   2.898   1.873 -1.3652 -0.3095  0.9055
 6925TIP3    H220740   1.490   3.046   1.901  0.2286 -0.0165 -1.0465
 6926TIP3   OH220741   4.374   0.558   4.634  0.1842 -0.1798  0.3041
 6926TIP3    H120742   4.418   0.570   4.718  2.7016 -2.3068 -0.5686
 6926TIP3    H220743   4.328   0.474   4.642 -0.8689  0.3549  0.0473
 6927TIP3   OH220744   6.507   2.868   4.675 -0.2298  0.3332 -0.2937
 6927TIP3    H120745   6.508   2.782   4.716 -3.0569  0.2931 -0.1183
 6927TIP3    H220746   6.591   2.908   4.698  1.7020 -2.7782 -1.3825
 6928TIP3   OH220747   3.962   5.194   2.175  0.3162 -0.4381  0.4656
 6928TIP3    H120748   4.006   5.210   2.258 -1.6467 -1.7110  1.8431
 6928TIP3    H220749   4.026   5.146   2.122  1.1091 -0.9170  1.8187
 6929TIP3   OH220750   3.965   3.332   0.156 -0.0115 -0.0231  0.1427
 6929TIP3    H120751   3.926   3.252   0.122  1.0235 -0.5952  0.2659
 6929TIP3    H220752   3.904   3.401   0.130 -1.5641 -0.9743  1.1250
 6930TIP3   OH220753   5.412   0.412   2.671 -0.2557  0.6655  0.6480
 6930TIP3    H120754   5.491   0.458   2.699  1.2273 -2.1329  1.4639
 6930TIP3    H220755   5.376   0.375   2.752 -1.0845  0.0203  0.0085
 6931TIP3   OH220756   6.735   3.252   5.093  0.1706 -0.3043 -0.0579
 6931TIP3    H120757   6.751   3.176   5.037 -0.2819 -0.4105 -0.0490
 6931TIP3    H220758   6.719   3.215   5.180 -0.8397 -0.2603 -0.2133
 6932TIP3   OH220759   6.515   5.435   0.411 -0.4955 -0.7228  0.2650
 6932TIP3    H120760   6.491   5.477   0.494 -0.4063 -0.1123 -0.0183
 6932TIP3    H220761   6.475   5.489   0.344  0.1804 -0.7061 -0.1319
 6933TIP3   OH220762   3.941   4.040   2.182 -0.1672 -0.1521 -0.2401
 6933TIP3    H120763   3.877   4.111   2.185  0.4008  0.3174  1.4837
 6933TIP3    H220764   3.904   3.978   2.118 -2.3162  0.1429  0.6273
 6934TIP3   OH220765   1.737   2.235   1.584 -0.1879  0.1710 -0.2834
 6934TIP3    H120766   1.714   2.328   1.592  1.0650  0.5236 -0.5418
 6934TIP3    H220767   1.828   2.235   1.555 -0.4728 -1.1477 -1.2718
 6935TIP3   OH220768   5.475   1.719   4.361  0.6873  0.6161  0.3640
 6935TIP3    H120769   5.437   1.761   4.437 -0.0373 -0.5523  0.6785
 6935TIP3    H220770   5.494   1.790   4.300 -1.8075  1.2815  0.2919
 6936TIP3   OH220771   2.217   3.282   5.169  0.2485  0.4526  0.4410
 6936TIP3    H120772   2.164   3.260   5.092 -1.6620  0.0541  1.7808
 6936TIP3    H220773   2.283   3.213   5.172  0.7476  0.8228 -1.1614
 6937TIP3   OH220774   4.465   2.594   3.530 -0.2029 -0.0744  0.5922
 6937TIP3    H120775   4.480   2.535   3.604 -0.3050 -0.4345  0.3256
 6937TIP3    H220776   4.370   2.595   3.519 -0.1919  0.0341  0.5079
 6938TIP3   OH220777   2.221   3.122   2.800  0.2013  0.4410  0.2337
 6938TIP3    H120778   2.192   3.127   2.891 -1.0189 -2.5792  0.1410
 6938TIP3    H220779   2.140   3.129   2.749  0.4833 -0.7685 -0.4250
 6939TIP3   OH220780   5.653   5.336   5.436  0.3563 -0.1917 -0.2324
 6939TIP3    H120781   5.704   5.366   5.512  0.7518  3.3794 -1.7012
 6939TIP3    H220782   5.562   5.342   5.465  0.5343  0.0831  0.2890
 6940TIP3   OH220783   5.892   3.269   1.323  0.0941  0.2601 -0.3091
 6940TIP3    H120784   5.841   3.270   1.404 -0.8072  0.8905 -0.8708
 6940TIP3    H220785   5.974   3.226   1.347  0.4780  1.7871  1.3146
 6941TIP3   OH220786   7.100   2.727   0.424  0.5031  0.3762  0.1406
 6941TIP3    H120787   7.017   2.682   0.440  1.0603 -0.6375  0.2685
 6941TIP3    H220788   7.106   2.734   0.329 -1.2128  3.3528  0.1367
 6942TIP3   OH220789   1.273   4.555   5.081  0.2094  0.3763  0.0872
 6942TIP3    H120790   1.357   4.512   5.096 -1.0049 -1.9546  0.6363
 6942TIP3    H220791   1.238   4.571   5.169 -1.6493 -2.4150 -0.0259
 6943TIP3   OH220792   0.215   4.726   1.550 -0.0691 -0.2936 -0.0988
 6943TIP3    H120793   0.129   4.710   1.513  0.7696 -3.3797 -0.9884
 6943TIP3    H220794   0.213   4.682   1.635  0.3983  0.3430  0.2558
 6944TIP3   OH220795   4.847   2.321   2.093 -0.0564  0.0348 -0.0052
 6944TIP3    H120796   4.803   2.247   2.051  1.2854 -0.6610 -0.2638
 6944TIP3    H220797   4.842   2.392   2.029 -0.5072 -0.1362 -0.1612
 6945TIP3   OH220798   4.073   1.476   4.032 -0.3953  0.1218  0.4803
 6945TIP3    H120799   4.084   1.532   4.109 -1.1790  2.1529 -0.8214
 6945TIP3    H220800   4.056   1.537   3.960 -3.2752 -1.8420 -0.6822
 6946TIP3   OH220801   6.599   6.760   0.504  0.1991  0.2222  0.0427
 6946TIP3    H120802   6.551   6.691   0.459  0.9486 -0.5091  0.3580
 6946TIP3    H220803   6.530   6.818   0.538 -0.4097  0.2343 -1.1263
 6947TIP3   OH220804   4.454   6.683   1.569  0.2024 -0.3756  0.4403
 6947TIP3    H120805   4.385   6.730   1.615 -1.3417 -1.0342 -1.1154
 6947TIP3    H220806   4.529   6.744   1.570 -0.7266  0.8010  1.2082
 6948TIP3   OH220807   0.121   2.202   3.013 -0.0596 -0.3896  0.7071
 6948TIP3    H120808   0.090   2.131   2.956 -0.5453  1.0219 -0.8663
 6948TIP3    H220809   0.047   2.219   3.072 -1.7800  1.7184 -1.8295
 6949TIP3   OH220810   0.492   2.342   1.383  0.1669  0.1082 -0.3013
 6949TIP3    H120811   0.464   2.384   1.464  0.8512 -1.1376  0.6134
 6949TIP3    H220812   0.522   2.255   1.410  0.4516 -0.3159 -1.8848
 6950TIP3   OH220813   6.485   2.967   2.199 -0.2340  0.0902 -0.2547
 6950TIP3    H120814   6.403   2.937   2.240 -0.4742  2.2178  0.9535
 6950TIP3    H220815   6.523   3.027   2.263  2.3117 -0.8329 -0.8047
 6951TIP3   OH220816   3.421   1.210   2.274 -0.1051 -0.1811  0.2145
 6951TIP3    H120817   3.401   1.116   2.269 -0.1555 -0.1754  0.2970
 6951TIP3    H220818   3.406   1.232   2.366  0.6798 -0.2706  0.3740
 6952TIP3   OH220819   2.379   5.122   1.529 -0.1704 -0.4072  0.5984
 6952TIP3    H120820   2.461   5.072   1.518  0.1520  0.4251 -1.0501
 6952TIP3    H220821   2.320   5.061   1.574  0.8013 -1.6297  0.2765
 6953TIP3   OH220822   3.163   4.606   5.457 -0.5470  0.0337 -0.1522
 6953TIP3    H120823   3.150   4.541   5.387 -0.8364 -0.2641  0.1767
 6953TIP3    H220824   3.075   4.639   5.475 -0.2628  1.4214 -1.1672
 6954TIP3   OH220825   6.342   2.397   5.583 -0.8647  0.3782  0.9240
 6954TIP3    H120826   6.301   2.411   5.498  0.9111  0.8432  0.0989
 6954TIP3    H220827   6.407   2.329   5.568 -0.5426  0.4383  1.9282
 6955TIP3   OH220828   2.689   1.344   2.623 -0.1213  0.1081  0.2364
 6955TIP3    H120829   2.637   1.409   2.576  1.9757  1.0732 -0.8491
 6955TIP3    H220830   2.731   1.292   2.555 -0.4500 -1.3444  1.0904
 6956TIP3   OH220831   3.173   5.262   4.650 -0.7876 -0.4105  0.2613
 6956TIP3    H120832   3.268   5.269   4.640 -1.1012  1.3390 -2.5871
 6956TIP3    H220833   3.154   5.316   4.727  0.5169 -1.2847  1.2577
 6957TIP3   OH220834   4.339   6.034   1.559  0.0344  0.2824 -0.0569
 6957TIP3    H120835   4.272   6.051   1.493  0.3800  0.3112 -0.3980
 6957TIP3    H220836   4.304   6.077   1.638 -0.7491 -0.4354 -0.0013
 6958TIP3   OH220837   0.194   5.339   4.591  0.3920 -0.6734 -0.8606
 6958TIP3    H120838   0.158   5.256   4.622 -1.5723 -0.2054 -1.7260
 6958TIP3    H220839   0.190   5.397   4.667  0.6087 -1.0189 -0.5824
 6959TIP3   OH220840   6.690   4.093   4.206  0.2218  0.3926  0.0518
 6959TIP3    H120841   6.750   4.117   4.276  0.9258 -0.6218 -0.1796
 6959TIP3    H220842   6.631   4.167   4.198  1.6311  1.5589  0.0878
 6960TIP3   OH220843   7.030   4.709   2.976  0.6930  1.4300 -0.0696
 6960TIP3    H120844   6.961   4.644   2.987  0.4968  1.2789 -1.9434
 6960TIP3    H220845   7.021   4.766   3.052 -1.4616  1.3811 -0.2209
 6961TIP3   OH220846   4.926   0.221   1.154 -0.6522 -0.3619  0.4829
 6961TIP3    H120847   4.971   0.228   1.238  0.9397 -0.0370 -0.3456
 6961TIP3    H220848   4.924   0.127   1.135  2.4016 -0.2823 -0.7858
 6962TIP3   OH220849   0.831   6.328   0.279  0.4685  0.2789  0.1103
 6962TIP3    H120850   0.864   6.254   0.229 -1.3021 -0.5978  0.1556
 6962TIP3    H220851   0.776   6.376   0.216 -0.9384 -0.2583  0.8719
 6963TIP3   OH220852   2.251   3.494   3.467  1.0648 -0.3250 -0.2893
 6963TIP3    H120853   2.184   3.426   3.463  1.8804 -1.3549  1.8901
 6963TIP3    H220854   2.206   3.570   3.505  0.7711 -0.4936 -0.2978
 6964TIP3   OH220855   1.456   1.377   3.401 -0.7748  0.7324 -0.0297
 6964TIP3    H120856   1.384   1.331   3.444  0.3197  0.2204  1.3335
 6964TIP3    H220857   1.437   1.369   3.308 -2.4535  0.5984  0.2862
 6965TIP3   OH220858   7.032   1.077   3.492  0.0054 -0.5034  0.1163
 6965TIP3    H120859   6.994   1.004   3.444 -1.3767 -0.0346  0.4371
 6965TIP3    H220860   6.993   1.072   3.579  1.8503 -0.8636  0.9807
 6966TIP3   OH220861   6.317   6.732   5.084  0.2147 -0.2821 -0.2655
 6966TIP3    H120862   6.266   6.792   5.138 -0.0790 -1.0724  0.3578
 6966TIP3    H220863   6.356   6.670   5.146 -0.7631 -1.6870 -0.9837
 6967TIP3   OH220864   3.011   3.536   3.541 -0.6642 -0.0576 -0.0200
 6967TIP3    H120865   3.099   3.531   3.576 -1.1735 -1.7624  1.1604
 6967TIP3    H220866   3.004   3.459   3.484 -1.7712 -0.6363  0.8724
 6968TIP3   OH220867   4.045   1.440   4.675 -0.1275 -0.4492  0.0125
 6968TIP3    H120868   4.110   1.428   4.606 -1.3658  0.7652 -1.4400
 6968TIP3    H220869   4.074   1.518   4.722 -0.6011  0.2194 -0.7700
 6969TIP3   OH220870   3.245   1.484   3.073 -0.3245  0.8085  0.8189
 6969TIP3    H120871   3.169   1.441   3.112 -0.4668 -0.1205 -0.4046
 6969TIP3    H220872   3.223   1.492   2.980  1.7220 -1.0952  0.0620
 6970TIP3   OH220873   4.861   4.506   3.991 -0.2686  0.3988  0.2236
 6970TIP3    H120874   4.888   4.576   4.051 -1.2774  1.4672 -0.5131
 6970TIP3    H220875   4.789   4.544   3.941  1.3091  0.0290 -2.5686
 6971TIP3   OH220876   4.517   1.046   5.575  0.1303 -0.2220 -0.3985
 6971TIP3    H120877   4.541   1.132   5.609 -0.4959 -0.1873 -0.0201
 6971TIP3    H220878   4.476   1.064   5.491 -0.3386 -0.1115 -0.1511
 6972TIP3   OH220879   6.727   2.754   4.923 -0.0303 -0.2419  0.5945
 6972TIP3    H120880   6.666   2.717   4.986 -1.4974  0.0241 -0.5990
 6972TIP3    H220881   6.734   2.846   4.948  1.3241 -0.6405  1.8005
 6973TIP3   OH220882   2.094   3.707   0.947 -0.0699  0.2073 -0.5517
 6973TIP3    H120883   2.156   3.734   1.014 -1.4654  1.0408  0.4511
 6973TIP3    H220884   2.009   3.736   0.979 -0.8187  0.4905 -2.5945
 6974TIP3   OH220885   5.748   5.860   2.447 -0.0641  0.5139 -0.4976
 6974TIP3    H120886   5.703   5.899   2.522 -0.2780 -0.4311 -0.1195
 6974TIP3    H220887   5.678   5.838   2.386  0.1635  1.9727 -1.3421
 6975TIP3   OH220888   0.041   0.372   1.063 -0.2592 -0.1079  0.9332
 6975TIP3    H120889   0.024   0.449   1.117 -1.2468 -0.8079  1.6388
 6975TIP3    H220890  -0.037   0.364   1.008 -1.3861 -2.0803  2.6794
 6976TIP3   OH220891   3.022   6.339   0.699 -0.9154  0.5777  0.4948
 6976TIP3    H120892   3.078   6.394   0.754  0.6783 -0.4234 -0.0533
 6976TIP3    H220893   3.077   6.264   0.676 -2.1527  0.0517 -0.9347
 6977TIP3   OH220894   6.267   4.733   3.375  0.4561 -0.1129 -0.1967
 6977TIP3    H120895   6.363   4.731   3.366  0.5254 -1.0583  0.7374
 6977TIP3    H220896   6.252   4.776   3.459  0.0503  0.1805 -0.4195
 6978TIP3   OH220897   4.161   4.928   0.863  0.5310  0.3647 -0.1226
 6978TIP3    H120898   4.184   4.955   0.774  1.4991  0.0479  0.0153
 6978TIP3    H220899   4.081   4.977   0.883  1.7881  2.5856 -0.1588
 6979TIP3   OH220900   4.080   5.327   0.169 -0.5611 -0.0413 -0.1959
 6979TIP3    H120901   4.158   5.290   0.209 -1.3359 -2.6130 -0.9107
 6979TIP3    H220902   4.047   5.390   0.234 -0.2328 -2.0154  1.9992
 6980TIP3   OH220903   2.411   5.317   2.070 -0.0882 -0.2431  0.0372
 6980TIP3    H120904   2.331   5.353   2.032  0.8083  2.0708  0.2166
 6980TIP3    H220905   2.481   5.374   2.038  1.2946 -1.1973  1.2274
 6981TIP3   OH220906   3.375   5.961   5.417  0.0452  0.2590  0.3626
 6981TIP3    H120907   3.302   5.946   5.477  0.8601 -1.2644  1.0154
 6981TIP3    H220908   3.431   6.024   5.462  0.7534 -1.0232  1.3359
 6982TIP3   OH220909   0.576   6.254   1.985  0.1615  0.1675 -0.2375
 6982TIP3    H120910   0.664   6.261   2.022 -0.3786 -0.6938  1.2772
 6982TIP3    H220911   0.520   6.306   2.043 -0.2752  1.2396 -1.5435
 6983TIP3   OH220912   4.457   4.929   4.961  0.1265 -0.3672  0.4606
 6983TIP3    H120913   4.423   4.979   4.886 -0.6085 -0.5551  0.6630
 6983TIP3    H220914   4.520   4.989   5.002 -2.0467  1.1643  1.7653
 6984TIP3   OH220915   0.260   2.294   0.104  0.2977 -0.4794  0.4727
 6984TIP3    H120916   0.294   2.337   0.026 -4.5664 -0.4243 -1.9929
 6984TIP3    H220917   0.234   2.365   0.162  0.4233 -0.4130  0.4480
 6985TIP3   OH220918   6.403   4.470   2.090  0.6045 -0.3362 -0.0622
 6985TIP3    H120919   6.366   4.520   2.018 -0.4665 -0.5972  0.2934
 6985TIP3    H220920   6.496   4.492   2.090  0.5793 -0.1928 -1.4045
 6986TIP3   OH220921   1.434   3.467   1.439 -0.1313  0.3024 -0.0861
 6986TIP3    H120922   1.496   3.424   1.498  0.9719  0.2650 -1.2234
 6986TIP3    H220923   1.348   3.440   1.470  0.4855 -1.4490  0.1973
 6987TIP3   OH220924   6.379   0.056   4.103 -0.2833 -0.5853  0.5991
 6987TIP3    H120925   6.295   0.094   4.075 -0.8547 -0.9403  1.7747
 6987TIP3    H220926   6.383  -0.027   4.056 -0.0119 -0.0421 -0.3753
 6988TIP3   OH220927   3.642   1.371   2.328 -0.2543  0.0389  0.3773
 6988TIP3    H120928   3.569   1.316   2.301 -0.7156 -0.1088  1.8114
 6988TIP3    H220929   3.709   1.309   2.357  1.0974  0.1069 -2.3247
 6989TIP3   OH220930   5.935   0.359   0.648 -0.2080 -0.0941  0.2686
 6989TIP3    H120931   6.020   0.317   0.635  0.1367  0.6688  0.0404
 6989TIP3    H220932   5.915   0.344   0.740  0.5728  0.4359  0.5350
 6990TIP3   OH220933   2.613   0.542   1.174 -0.4735 -0.2883 -0.1519
 6990TIP3    H120934   2.679   0.474   1.190 -2.5423 -1.9915  1.8284
 6990TIP3    H220935   2.588   0.529   1.083  0.2831 -1.1428 -0.2584
 6991TIP3   OH220936   2.448   1.946   0.406 -0.0293 -0.1015 -0.1191
 6991TIP3    H120937   2.485   1.948   0.495 -1.8375 -3.1845  0.8625
 6991TIP3    H220938   2.507   1.891   0.356  1.1737  1.9081 -1.0337
 6992TIP3   OH220939   4.780   6.311   2.172 -0.0240 -0.3065 -0.6112
 6992TIP3    H120940   4.774   6.380   2.106  1.3413 -0.1000 -0.5460
 6992TIP3    H220941   4.734   6.346   2.248 -0.5438 -0.0410 -1.0449
 6993TIP3   OH220942   7.105   2.550   0.209  0.1273 -0.6407 -0.2838
 6993TIP3    H120943   7.119   2.521   0.119  0.5867 -1.2557 -0.0126
 6993TIP3    H220944   7.010   2.561   0.216 -0.2875 -3.6320  0.0653
 6994TIP3   OH220945   3.063   5.002   1.030 -0.2726 -0.5047  0.0765
 6994TIP3    H120946   3.043   5.065   1.100 -0.0252  0.6280 -0.8337
 6994TIP3    H220947   3.133   5.044   0.980  1.0064 -2.2116  0.3279
 6995TIP3   OH220948   0.646   1.080   1.173  0.0816  0.1371  0.5550
 6995TIP3    H120949   0.587   1.156   1.172 -0.4551 -0.2713 -0.2063
 6995TIP3    H220950   0.648   1.053   1.265 -1.3562 -0.1493  0.5377
 6996TIP3   OH220951   6.963   4.117   5.406 -0.5129 -0.4946 -0.6295
 6996TIP3    H120952   6.961   4.165   5.323 -0.8302  1.8469  0.6482
 6996TIP3    H220953   7.055   4.115   5.430 -0.2827 -2.0992 -1.4692
 6997TIP3   OH220954   4.696   6.192   4.891 -0.3524  0.0391 -0.1904
 6997TIP3    H120955   4.652   6.174   4.808 -0.2477  0.7227 -0.4021
 6997TIP3    H220956   4.679   6.114   4.945 -1.4623  0.1046 -0.4137
 6998TIP3   OH220957   2.306   6.675   1.920 -0.4444 -0.4137  0.3717
 6998TIP3    H120958   2.266   6.637   1.997  0.1132 -0.2141  0.7639
 6998TIP3    H220959   2.362   6.745   1.954  1.5046 -1.7253 -0.0169
 6999TIP3   OH220960   1.025   4.915   0.901 -0.3018 -0.0634  0.1855
 6999TIP3    H120961   1.012   4.820   0.889  0.0414 -0.1373  0.3954
 6999TIP3    H220962   0.939   4.948   0.925 -1.0496  0.0709 -2.3121
 7000TIP3   OH220963   4.855   4.169   4.509  0.1519  0.5357 -0.3446
 7000TIP3    H120964   4.921   4.118   4.557  0.8011  1.2613 -0.4446
 7000TIP3    H220965   4.802   4.104   4.464  0.2880 -0.1031  0.3993
 7001TIP3   OH220966   6.602   2.001   3.192 -0.5190  0.4981  0.5964
 7001TIP3    H120967   6.612   2.045   3.107  0.7140 -1.2315 -0.2129
 7001TIP3    H220968   6.642   2.061   3.255  0.5154  0.8517 -0.3667
 7002TIP3   OH220969   2.777   2.100   4.631  0.3123  0.4429  0.4435
 7002TIP3    H120970   2.731   2.032   4.583  1.9011 -0.5016  0.1801
 7002TIP3    H220971   2.777   2.069   4.722 -1.6332  1.6385  0.9099
 7003TIP3   OH220972   6.435   4.853   1.825  0.2652 -0.3055  0.0277
 7003TIP3    H120973   6.437   4.769   1.871 -0.7412 -0.2575  0.1753
 7003TIP3    H220974   6.519   4.857   1.779 -0.3430 -2.1962 -1.3863
 7004TIP3   OH220975   4.520   2.181   5.066  0.0473 -0.2669 -0.3064
 7004TIP3    H120976   4.542   2.089   5.051 -1.1702 -1.2366  2.9381
 7004TIP3    H220977   4.426   2.186   5.050  0.0402  0.3614 -0.1091
 7005TIP3   OH220978   3.555   6.651   4.081 -0.0343  0.0706 -0.0138
 7005TIP3    H120979   3.463   6.675   4.089  0.1534  1.1311 -0.8998
 7005TIP3    H220980   3.554   6.565   4.038 -0.5803  0.7119 -1.3237
 7006TIP3   OH220981   2.117   2.846   5.748  0.5283  0.0401 -0.6383
 7006TIP3    H120982   2.045   2.909   5.737 -0.7998 -1.6504 -2.2017
 7006TIP3    H220983   2.136   2.815   5.659 -0.2725 -3.2217  0.1885
 7007TIP3   OH220984   0.734   1.833   1.210 -0.3739  0.3497  0.3772
 7007TIP3    H120985   0.656   1.861   1.161  0.1739  0.7354 -0.2844
 7007TIP3    H220986   0.743   1.740   1.190 -0.6157  0.3207  0.3976
 7008TIP3   OH220987   5.588   5.762   3.469 -0.1328 -0.8053 -0.3832
 7008TIP3    H120988   5.609   5.792   3.381  1.3418  0.1567  0.2471
 7008TIP3    H220989   5.617   5.833   3.526 -0.0201 -1.8635  0.9423
 7009TIP3   OH220990   4.286   3.915   0.257  0.4046  0.3055 -0.0293
 7009TIP3    H120991   4.361   3.916   0.317 -0.4134  2.2509  1.0571
 7009TIP3    H220992   4.317   3.961   0.179  0.7044  0.0339 -0.0719
 7010TIP3   OH220993   6.830   2.852   0.287  0.1549  0.9687 -0.1653
 7010TIP3    H120994   6.840   2.808   0.372  0.1337 -0.2063 -0.7531
 7010TIP3    H220995   6.749   2.817   0.251  1.2256 -0.2043 -1.5963
 7011TIP3   OH220996   1.612   1.930   3.677 -0.1821  0.1524  0.0529
 7011TIP3    H120997   1.701   1.960   3.691 -0.4772  1.8904 -1.5060
 7011TIP3    H220998   1.621   1.836   3.657  1.5233  0.6536 -1.8909
 7012TIP3   OH220999   5.848   5.001   4.544 -0.1073 -0.0873  0.0350
 7012TIP3    H121000   5.933   4.983   4.503  0.0941  2.5660 -0.8827
 7012TIP3    H221001   5.786   5.001   4.471 -0.6543 -0.4210  0.4887
 7013TIP3   OH221002   6.175   0.836   1.414  0.5159 -0.4356 -0.2197
 7013TIP3    H121003   6.107   0.777   1.382  0.6205 -0.4526 -0.4150
 7013TIP3    H221004   6.135   0.923   1.407  1.9769  0.1359 -4.6757
 7014TIP3   OH221005   5.565   5.132   2.946  0.6918  0.3815  0.0477
 7014TIP3    H121006   5.541   5.136   3.038  0.2460  0.6941 -0.0837
 7014TIP3    H221007   5.657   5.159   2.944  0.9001 -0.2588  0.4760
 7015TIP3   OH221008   7.121   5.656   0.188 -0.6978  0.6188  0.6093
 7015TIP3    H121009   7.146   5.748   0.181 -0.8445  0.5403 -1.5533
 7015TIP3    H221010   7.025   5.657   0.191 -0.6812  0.5606  1.2379
 7016TIP3   OH221011   5.806   5.332   0.413  0.4087  0.6242 -0.0891
 7016TIP3    H121012   5.855   5.360   0.336 -1.5085 -0.3685 -1.7808
 7016TIP3    H221013   5.852   5.255   0.445  1.6180  1.4512  0.2392
 7017TIP3   OH221014   5.453   5.738   4.824  0.6026 -0.0400 -0.0363
 7017TIP3    H121015   5.382   5.800   4.843 -0.9838 -1.1163 -1.9943
 7017TIP3    H221016   5.505   5.781   4.757  1.6572  0.6120  1.1668
 7018TIP3   OH221017   5.734   5.623   3.800  0.4301  0.4444  0.1300
 7018TIP3    H121018   5.732   5.652   3.891 -1.5372 -0.6194  0.5006
 7018TIP3    H221019   5.806   5.672   3.760  2.3266 -0.1563  2.5911
 7019TIP3   OH221020   4.649   0.404   3.363 -0.1743  0.2071 -0.3727
 7019TIP3    H121021   4.631   0.314   3.390 -0.2377  0.1286 -0.6693
 7019TIP3    H221022   4.708   0.395   3.288  1.2700  0.4596  0.6892
 7020TIP3   OH221023   5.043   2.116   3.476  0.0703 -0.4292 -0.8471
 7020TIP3    H121024   4.985   2.103   3.400 -1.6217  0.9926  0.1252
 7020TIP3    H221025   5.075   2.206   3.466  0.1963 -0.3940 -0.1320
 7021TIP3   OH221026   6.154   3.374   0.134 -0.3982  0.1234 -0.3215
 7021TIP3    H121027   6.235   3.420   0.116 -0.7374  0.9084  0.0988
 7021TIP3    H221028   6.112   3.364   0.049  0.9806 -1.9679 -0.8299
 7022TIP3   OH221029   3.161   0.678   0.603  0.5849  0.0020  0.0196
 7022TIP3    H121030   3.166   0.622   0.526  0.2516  1.1462 -0.8730
 7022TIP3    H221031   3.095   0.744   0.580 -0.7532 -0.5658  1.9284
 7023TIP3   OH221032   6.258   3.917   3.283  0.3026 -0.1730 -0.5776
 7023TIP3    H121033   6.169   3.931   3.313  0.3360 -0.1747 -0.4782
 7023TIP3    H221034   6.290   4.004   3.259  0.7232  0.0179  0.6271
 7024TIP3   OH221035   0.168   1.822   2.348 -0.4414  0.2393  0.1767
 7024TIP3    H121036   0.180   1.745   2.405  0.4641  0.1527 -0.1070
 7024TIP3    H221037   0.074   1.827   2.334 -0.5146 -0.8781  0.1363
 7025TIP3   OH221038   0.124   1.409   3.848 -0.8413 -0.1584  0.5125
 7025TIP3    H121039   0.183   1.335   3.853 -2.4182 -1.6374 -1.1994
 7025TIP3    H221040   0.173   1.476   3.800 -0.5517 -1.3929 -0.9818
 7026TIP3   OH221041   4.386   0.781   3.238  0.4315  0.6056  0.0501
 7026TIP3    H121042   4.418   0.805   3.325 -0.2365  2.0291 -0.0599
 7026TIP3    H221043   4.324   0.710   3.254 -0.8611  1.8714  0.9503
 7027TIP3   OH221044   1.880   4.046   2.724 -0.0897 -0.0717  0.4424
 7027TIP3    H121045   1.946   4.039   2.793 -1.4190  0.5808  1.8828
 7027TIP3    H221046   1.797   4.030   2.770 -0.9772 -0.2519 -1.1571
 7028TIP3   OH221047   6.191   6.544   1.602  0.0087 -0.3388  0.2632
 7028TIP3    H121048   6.232   6.507   1.681 -0.4797  0.1350  0.7458
 7028TIP3    H221049   6.110   6.584   1.634  0.1662  0.4959 -0.3642
 7029TIP3   OH221050   5.424   6.294   1.601  0.1640  0.2499 -0.4393
 7029TIP3    H121051   5.344   6.243   1.591 -0.4392  0.9791  0.5268
 7029TIP3    H221052   5.422   6.357   1.528 -0.0832  0.2004 -0.4742
 7030TIP3   OH221053   6.948   4.774   5.122  0.1348  0.3289 -0.5063
 7030TIP3    H121054   6.861   4.744   5.097  0.7647 -1.7923 -0.3316
 7030TIP3    H221055   7.007   4.733   5.059  1.1155  0.6060  0.1987
 7031TIP3   OH221056   0.829   6.160   3.601 -0.5274  0.4186  0.1540
 7031TIP3    H121057   0.915   6.134   3.635 -0.1054  0.7349 -0.6279
 7031TIP3    H221058   0.849   6.228   3.537 -1.4498  1.2309  0.7074
 7032TIP3   OH221059   2.718   2.610   4.897  0.4677  0.5229  0.3313
 7032TIP3    H121060   2.799   2.560   4.887 -0.6772 -1.6056  0.9849
 7032TIP3    H221061   2.688   2.626   4.808  1.0069  0.2878  0.1070
 7033TIP3   OH221062   3.477   2.283   0.172  0.0658  0.2335 -0.2358
 7033TIP3    H121063   3.404   2.270   0.233 -0.8547  1.1775 -1.0941
 7033TIP3    H221064   3.441   2.340   0.103  1.3649  0.0149 -1.1332
 7034TIP3   OH221065   7.191   2.582   4.041  0.1502  0.2924  0.1961
 7034TIP3    H121066   7.148   2.649   3.988  1.0692  0.4638 -0.3568
 7034TIP3    H221067   7.274   2.622   4.067  0.1221 -0.1472  0.9808
 7035TIP3   OH221068   0.777   2.192   3.540 -0.2186 -0.6593 -0.1826
 7035TIP3    H121069   0.737   2.151   3.617  0.0399 -0.4114  0.0853
 7035TIP3    H221070   0.819   2.121   3.493 -0.7437 -0.8817 -0.3219
 7036TIP3   OH221071   0.468   6.133   1.562 -0.3807 -0.4901  0.1397
 7036TIP3    H121072   0.390   6.173   1.524 -0.6777 -1.4129 -0.2494
 7036TIP3    H221073   0.480   6.052   1.512  1.3039  0.0294 -0.3562
 7037TIP3   OH221074   0.368   2.796   4.308 -0.3639  0.0116  0.2562
 7037TIP3    H121075   0.295   2.857   4.295 -0.6008  0.3991  2.8986
 7037TIP3    H221076   0.347   2.722   4.251 -2.2705  0.5852  0.1426
 7038TIP3   OH221077   5.365   5.971   2.829  0.0046 -0.4460  0.0342
 7038TIP3    H121078   5.448   5.958   2.783 -0.4016 -0.1677 -0.7917
 7038TIP3    H221079   5.388   6.027   2.904  0.7279 -1.1804  0.3839
 7039TIP3   OH221080   0.562   3.868   0.647  0.1913 -0.3952  0.1095
 7039TIP3    H121081   0.504   3.846   0.719  0.0825 -0.3048  0.0498
 7039TIP3    H221082   0.537   3.809   0.576 -1.0093  0.7942 -0.5079
 7040TIP3   OH221083   2.336   1.038   2.343  0.0461  0.2178  0.2261
 7040TIP3    H121084   2.307   1.126   2.318  0.1812  0.7157  1.7444
 7040TIP3    H221085   2.428   1.049   2.367 -0.2361 -0.0925  1.5154
 7041TIP3   OH221086   0.163   4.378   0.976  0.2662  0.3468 -0.2188
 7041TIP3    H121087   0.149   4.462   1.021 -0.1415  0.2937 -0.2461
 7041TIP3    H221088   0.178   4.402   0.885 -0.8969  0.3324 -0.4309
 7042TIP3   OH221089   1.957   4.980   3.796 -0.5969  0.1227  0.2440
 7042TIP3    H121090   1.916   4.906   3.752 -1.5155 -0.1655  1.5214
 7042TIP3    H221091   2.047   4.952   3.812 -0.0376  0.4844 -1.9562
 7043TIP3   OH221092   4.864   3.832   5.394 -0.4186 -0.0559 -0.2530
 7043TIP3    H121093   4.806   3.906   5.412  0.8898  0.8679  0.3329
 7043TIP3    H221094   4.806   3.757   5.388 -1.6619  0.8165  0.4063
 7044TIP3   OH221095   6.513   4.909   4.654 -0.0169  0.2118  0.7892
 7044TIP3    H121096   6.454   4.846   4.694 -0.8501 -0.3759 -1.2692
 7044TIP3    H221097   6.601   4.879   4.679 -0.4117 -1.5622  0.1277
 7045TIP3   OH221098   2.063   1.921   0.208 -0.1218 -0.0996 -0.3048
 7045TIP3    H121099   2.085   1.965   0.290 -0.2027 -0.0147 -0.3276
 7045TIP3    H221100   2.114   1.968   0.142 -0.1960 -0.0504 -0.3271
 7046TIP3   OH221101   1.792   1.742   2.544 -0.3721  0.3702 -0.0524
 7046TIP3    H121102   1.779   1.703   2.631 -0.2939  1.5380  0.4973
 7046TIP3    H221103   1.846   1.819   2.560  0.1564  0.2534 -1.2297
 7047TIP3   OH221104   1.982   2.069   4.808  0.0148  0.7001  0.0470
 7047TIP3    H121105   1.930   1.994   4.779 -0.1696  0.1420  1.6957
 7047TIP3    H221106   1.939   2.145   4.770 -1.5630  0.1922  0.7303
 7048TIP3   OH221107   5.527   5.054   4.139 -0.4439  0.5071  0.0520
 7048TIP3    H121108   5.463   4.982   4.139  0.4297 -0.2829 -0.6229
 7048TIP3    H221109   5.589   5.031   4.070  0.5600  1.2828  0.6787
 7049TIP3   OH221110   7.069   3.310   5.056  0.2527 -0.2866 -0.1159
 7049TIP3    H121111   6.983   3.335   5.090  1.0230  0.6915  1.1731
 7049TIP3    H221112   7.073   3.350   4.969  0.1499  1.2957  0.5897
 7050TIP3   OH221113   6.134   2.446   4.762  0.4673  0.0487  0.0133
 7050TIP3    H121114   6.065   2.473   4.823  2.2846  1.1383  1.7285
 7050TIP3    H221115   6.113   2.491   4.681  0.1558  1.9188  1.0614
 7051TIP3   OH221116   3.058   0.982   1.894  0.8311  0.1229 -0.0742
 7051TIP3    H121117   3.032   1.005   1.984  1.6902 -1.4133  0.6059
 7051TIP3    H221118   2.982   0.936   1.858  1.7818 -2.7231  1.2707
 7052TIP3   OH221119   7.071   0.446   3.373 -0.1321  0.0612 -0.1961
 7052TIP3    H121120   6.990   0.465   3.421  0.4511  3.5489 -0.3732
 7052TIP3    H221121   7.128   0.405   3.438 -0.4766  1.7476  1.2407
 7053TIP3   OH221122   0.093   0.714   5.607  0.3406  0.3123 -0.0738
 7053TIP3    H121123   0.060   0.625   5.590 -1.7909  1.4849 -2.8758
 7053TIP3    H221124   0.188   0.703   5.617  0.2039 -2.2370 -0.8635
 7054TIP3   OH221125   6.903   3.044   1.570 -0.0673  0.1086  0.0130
 7054TIP3    H121126   6.896   3.073   1.661 -0.1269 -0.3627  0.1602
 7054TIP3    H221127   6.982   2.989   1.568 -0.5004 -0.5267 -0.0396
 7055TIP3   OH221128   0.856   5.419   1.575 -0.0318  0.1066  0.3694
 7055TIP3    H121129   0.826   5.502   1.614 -0.7809 -0.1202  0.2931
 7055TIP3    H221130   0.930   5.444   1.520  0.5803  0.5395  1.3478
 7056TIP3   OH221131   0.164   2.191   4.550  0.8846 -0.6908 -0.3459
 7056TIP3    H121132   0.126   2.193   4.638  0.6239  0.2869 -0.4735
 7056TIP3    H221133   0.224   2.266   4.548 -0.0564  0.0654 -1.4096
 7057TIP3   OH221134   5.136   5.522   0.703  0.3261  0.2013 -0.5145
 7057TIP3    H121135   5.099   5.562   0.782  1.5054 -1.5997  1.0604
 7057TIP3    H221136   5.203   5.584   0.673 -0.9164  1.4346 -0.8061
 7058TIP3   OH221137   2.945   6.472   4.000 -0.0636  0.5217  0.6199
 7058TIP3    H121138   2.883   6.478   3.927  1.5567 -0.0278 -0.8784
 7058TIP3    H221139   2.946   6.559   4.038  0.3345  1.3383 -1.1591
 7059TIP3   OH221140   4.409   1.533   1.145 -0.0602  0.1978  0.5568
 7059TIP3    H121141   4.333   1.590   1.158  0.3683  0.8883  0.0477
 7059TIP3    H221142   4.434   1.505   1.233  0.3536  1.6227  0.9045
 7060TIP3   OH221143   0.557   3.451   3.127 -0.1382 -0.3060 -0.0915
 7060TIP3    H121144   0.486   3.437   3.189 -0.5452  1.8465  0.0306
 7060TIP3    H221145   0.553   3.376   3.068 -1.5222 -0.9989  0.8287
 7061TIP3   OH221146   1.320   2.845   3.235  0.0895 -0.3040 -0.5824
 7061TIP3    H121147   1.279   2.927   3.205  0.1936  0.7390  1.9058
 7061TIP3    H221148   1.395   2.873   3.286  0.6796 -2.0218 -0.4520
 7062TIP3   OH221149   0.768   0.658   1.058 -0.0974  0.2185  0.1663
 7062TIP3    H121150   0.752   0.589   1.124  0.5162 -0.4666 -0.3847
 7062TIP3    H221151   0.787   0.609   0.978 -1.2151  1.0393 -0.6308
 7063TIP3   OH221152   3.156   2.910   1.957 -0.4317  0.3448  0.1565
 7063TIP3    H121153   3.075   2.860   1.965  0.7330 -1.8739 -1.1094
 7063TIP3    H221154   3.141   2.966   1.880 -1.3791  1.3040  0.9998
 7064TIP3   OH221155   6.242   1.530   0.371 -0.4887 -0.2142 -0.0057
 7064TIP3    H121156   6.327   1.573   0.365 -0.1355 -0.9721 -0.7028
 7064TIP3    H221157   6.199   1.571   0.446 -0.0033  1.0256 -0.3760
 7065TIP3   OH221158   1.734   6.596   4.383 -0.2228 -0.1835 -0.7727
 7065TIP3    H121159   1.763   6.515   4.342  0.1112 -0.5512  0.1760
 7065TIP3    H221160   1.640   6.599   4.365 -0.2723 -0.8709 -0.6627
 7066TIP3   OH221161   0.228   1.897   4.165  1.0272 -0.2470 -0.5826
 7066TIP3    H121162   0.150   1.948   4.185  1.1540  0.2281 -1.2715
 7066TIP3    H221163   0.204   1.807   4.187  1.0664  0.1778  1.4155
 7067TIP3   OH221164   0.827   0.434   0.172  0.3541  0.1738 -0.5605
 7067TIP3    H121165   0.885   0.459   0.244 -0.6039  1.2242 -0.1195
 7067TIP3    H221166   0.807   0.342   0.189  2.0345 -0.2697 -0.8445
 7068TIP3   OH221167   4.553   6.277   2.887 -0.1191  0.6903 -0.2255
 7068TIP3    H121168   4.466   6.307   2.858 -0.2943 -0.4495 -0.9614
 7068TIP3    H221169   4.598   6.255   2.805  0.3214 -0.1403  0.2332
 7069TIP3   OH221170   4.454   5.335   4.782  0.1435  0.2301 -0.2902
 7069TIP3    H121171   4.536   5.302   4.819 -0.5594 -0.9015  0.3167
 7069TIP3    H221172   4.453   5.302   4.692 -0.3750 -1.1305  0.1954
 7070TIP3   OH221173   4.667   1.656   4.395 -0.7836  0.7544 -0.1843
 7070TIP3    H121174   4.592   1.615   4.352  0.0146  0.6157 -1.4806
 7070TIP3    H221175   4.736   1.657   4.329  0.1128  1.6290  0.7202
 7071TIP3   OH221176   6.163   4.264   1.154  0.0259 -0.4223 -0.3818
 7071TIP3    H121177   6.244   4.227   1.189  1.3094  0.2050 -2.4739
 7071TIP3    H221178   6.131   4.197   1.092 -1.3434 -0.8487  0.7170
 7072TIP3   OH221179   1.950   1.137   5.574 -0.0329 -0.4672 -0.2199
 7072TIP3    H121180   1.870   1.135   5.626 -0.1787 -2.0599 -0.4253
 7072TIP3    H221181   1.927   1.091   5.493  0.7920  0.0124 -0.7434
 7073TIP3   OH221182   1.746   5.200   5.733 -0.2727 -0.0343  0.0956
 7073TIP3    H121183   1.689   5.236   5.666  1.5967  0.0025 -1.5539
 7073TIP3    H221184   1.753   5.107   5.711  0.1702 -0.0691  0.3679
 7074TIP3   OH221185   6.571   4.829   5.426 -0.4805  0.5213  0.0617
 7074TIP3    H121186   6.656   4.826   5.383 -0.6689  0.4803 -0.3186
 7074TIP3    H221187   6.589   4.805   5.517  0.1358  2.0357  0.3604
 7075TIP3   OH221188   2.253   2.633   5.016  0.6803 -0.2647 -0.2926
 7075TIP3    H121189   2.246   2.720   5.055 -0.1336 -0.8241  0.8925
 7075TIP3    H221190   2.164   2.597   5.022  0.8873 -0.9666 -1.2736
 7076TIP3   OH221191   1.195   0.618   3.820  0.2480 -0.8954  0.4604
 7076TIP3    H121192   1.127   0.602   3.754  0.9528  0.6770 -0.7305
 7076TIP3    H221193   1.194   0.540   3.876 -0.7164 -2.0777 -1.1230
 7077TIP3   OH221194   1.821   0.991   4.066 -0.4295  0.4028  0.3477
 7077TIP3    H121195   1.771   1.073   4.058 -0.3492  0.5037  0.8888
 7077TIP3    H221196   1.802   0.944   3.984 -3.6959 -0.8711  1.6842
 7078TIP3   OH221197   4.172   6.419   1.768 -0.6174 -0.5203 -0.1946
 7078TIP3    H121198   4.132   6.480   1.829 -1.2986  0.4308 -1.5561
 7078TIP3    H221199   4.171   6.464   1.684  1.9058 -1.0716 -0.6133
 7079TIP3   OH221200   5.364   5.951   0.029 -0.2798 -0.0954 -0.3510
 7079TIP3    H121201   5.318   6.033   0.011  1.2951  0.8805 -0.1089
 7079TIP3    H221202   5.450   5.963  -0.011  0.6057 -0.9021  1.2245
 7080TIP3   OH221203   0.373   6.115   5.215  0.1004  0.2048  0.6495
 7080TIP3    H121204   0.360   6.024   5.187 -1.1279  0.4066  0.5068
 7080TIP3    H221205   0.293   6.160   5.188  0.5629  1.2687  0.9989
 7081TIP3   OH221206   6.859   5.879   1.642  0.0555  0.0373  0.6606
 7081TIP3    H121207   6.889   5.789   1.655  2.4334  0.6574 -0.0744
 7081TIP3    H221208   6.911   5.911   1.569 -1.1150  1.8703  0.5773
 7082TIP3   OH221209   3.195   6.162   3.234  0.2079  0.3307  0.7319
 7082TIP3    H121210   3.139   6.236   3.210  2.2259  1.4238 -0.9647
 7082TIP3    H221211   3.164   6.089   3.181 -0.7309  0.4053  1.1649
 7083TIP3   OH221212   2.128   5.689   5.455 -0.0744 -0.8600 -0.3932
 7083TIP3    H121213   2.089   5.611   5.416  0.0884 -0.6175 -1.0510
 7083TIP3    H221214   2.138   5.667   5.548 -1.7272 -0.9466 -0.2048
 7084TIP3   OH221215   6.552   3.653   2.059  0.4318 -0.1085 -0.0158
 7084TIP3    H121216   6.573   3.718   1.993  2.7541 -1.1069 -0.3653
 7084TIP3    H221217   6.568   3.698   2.142  1.7619 -0.1138 -0.2474
 7085TIP3   OH221218   4.532   0.906   2.716  0.1613 -0.2799  0.4623
 7085TIP3    H121219   4.455   0.958   2.740 -0.0685 -0.1981 -0.4083
 7085TIP3    H221220   4.528   0.901   2.620  1.9180  0.7898  0.2984
 7086TIP3   OH221221   4.226   3.571   1.003 -0.4179  0.6222 -0.2828
 7086TIP3    H121222   4.176   3.503   1.050  0.2972  2.2469  3.1981
 7086TIP3    H221223   4.264   3.525   0.928  0.5795 -3.0825  2.1811
 7087TIP3   OH221224   0.424   6.453   3.379 -0.1853  0.4843  0.5059
 7087TIP3    H121225   0.468   6.426   3.460  1.1541 -1.0986 -0.6924
 7087TIP3    H221226   0.368   6.379   3.356 -0.2782  0.7666 -0.1938
 7088TIP3   OH221227   1.043   5.155   2.705 -0.2466 -0.2885  0.2609
 7088TIP3    H121228   1.108   5.226   2.707 -0.5595  0.0369 -0.4423
 7088TIP3    H221229   1.009   5.151   2.794  0.3553 -0.1022  0.5050
 7089TIP3   OH221230   4.636   4.714   2.243  0.1820 -0.7206  0.3179
 7089TIP3    H121231   4.709   4.687   2.299  1.4327 -0.3380 -1.0824
 7089TIP3    H221232   4.670   4.711   2.154 -1.1711  0.5554 -0.2945
 7090TIP3   OH221233   3.444   0.278   1.488 -0.4909 -0.0862 -0.1114
 7090TIP3    H121234   3.409   0.319   1.567  1.4263  0.2620  0.6112
 7090TIP3    H221235   3.532   0.249   1.513  0.2749  0.2781 -2.1908
 7091TIP3   OH221236   2.568   5.743   4.716 -0.0540 -0.4875  0.4832
 7091TIP3    H121237   2.518   5.808   4.666 -1.5505 -1.3477  0.8253
 7091TIP3    H221238   2.623   5.796   4.774 -1.0477  0.4848  0.5812
 7092TIP3   OH221239   5.365   3.510   5.508 -0.2949 -0.0792 -0.9329
 7092TIP3    H121240   5.376   3.476   5.597  0.1547 -0.8353 -1.2627
 7092TIP3    H221241   5.304   3.583   5.517 -3.0379 -2.2901 -0.4947
 7093TIP3   OH221242   2.456   6.544   2.559  0.1675  0.0460 -0.7021
 7093TIP3    H121243   2.500   6.605   2.500  0.4194  0.6252  0.0737
 7093TIP3    H221244   2.524   6.513   2.618  0.3130 -1.9595 -1.8316
 7094TIP3   OH221245   3.209   4.492   5.694 -0.3741  0.2097 -0.1194
 7094TIP3    H121246   3.163   4.518   5.774 -1.3860 -2.6624  0.3777
 7094TIP3    H221247   3.174   4.549   5.626 -1.3585  1.0618  1.0671
 7095TIP3   OH221248   1.246   0.328   4.753 -0.1462  0.5943 -1.0203
 7095TIP3    H121249   1.318   0.388   4.738  1.2180 -0.8691 -0.5812
 7095TIP3    H221250   1.255   0.260   4.686 -0.1151 -0.4678  0.0082
 7096TIP3   OH221251   0.443   3.607   0.858  0.4373  0.0507  0.5809
 7096TIP3    H121252   0.455   3.564   0.943 -0.0239  1.1866  1.2399
 7096TIP3    H221253   0.394   3.687   0.878  1.6399  1.1102 -0.5344
 7097TIP3   OH221254   5.435   2.379   0.433  0.0789  0.0460 -0.1303
 7097TIP3    H121255   5.522   2.414   0.416 -0.8153  1.5223 -2.1026
 7097TIP3    H221256   5.437   2.292   0.391  1.1364 -0.7767  1.5126
 7098TIP3   OH221257   4.605   0.692   0.731  0.4121  0.2340 -0.3291
 7098TIP3    H121258   4.652   0.614   0.760 -0.0329 -0.1314 -0.5871
 7098TIP3    H221259   4.541   0.708   0.800  0.4246  0.3015 -0.3337
 7099TIP3   OH221260   3.841   6.132   5.627 -0.1241 -0.7251  0.5233
 7099TIP3    H121261   3.850   6.043   5.662 -1.1064 -0.4577  1.5205
 7099TIP3    H221262   3.901   6.134   5.552 -0.2627 -2.3014  0.3243
 7100TIP3   OH221263   2.427   4.823   4.172 -0.1939  0.2596 -0.0687
 7100TIP3    H121264   2.361   4.818   4.103  0.0472  0.0985 -0.2888
 7100TIP3    H221265   2.481   4.898   4.147 -0.1709  0.2658  0.0016
 7101TIP3   OH221266   5.293   1.022   5.170 -0.7171 -0.1970 -0.2214
 7101TIP3    H121267   5.220   1.078   5.196 -1.0551 -0.9728  0.5067
 7101TIP3    H221268   5.255   0.936   5.157  0.0992 -0.6561  0.3525
 7102TIP3   OH221269   6.585   3.371   1.212  0.9062 -0.0136  0.5575
 7102TIP3    H121270   6.666   3.322   1.219  1.1693  0.1854 -0.7995
 7102TIP3    H221271   6.579   3.395   1.120  0.0383  1.2291  0.9021
 7103TIP3   OH221272   5.476   2.149   4.014  0.2601 -0.1463  0.4008
 7103TIP3    H121273   5.488   2.123   3.923 -2.1775  0.0503 -0.0514
 7103TIP3    H221274   5.560   2.188   4.039  0.2399  2.2489 -2.6102
 7104TIP3   OH221275   5.412   3.385   1.781  0.2515 -0.2445  0.2519
 7104TIP3    H121276   5.384   3.297   1.756  0.8468 -0.7012  1.1275
 7104TIP3    H221277   5.465   3.372   1.860  0.6185  0.8690  0.2116
 7105TIP3   OH221278   2.135   3.825   4.599 -0.1042  0.0047  0.8623
 7105TIP3    H121279   2.175   3.739   4.612  0.2021  0.0550  0.3158
 7105TIP3    H221280   2.206   3.879   4.565 -1.0047 -0.3868 -1.9401
 7106TIP3   OH221281   2.357   2.909   2.681 -0.0462  0.5372  0.2356
 7106TIP3    H121282   2.361   2.836   2.742  0.4072  0.7222  0.4282
 7106TIP3    H221283   2.305   2.976   2.727  0.9036  0.9556  0.7218
 7107TIP3   OH221284   3.198   1.984   3.173  0.0967  0.5292  0.3394
 7107TIP3    H121285   3.220   2.070   3.137  0.7416  0.5588  0.8082
 7107TIP3    H221286   3.281   1.946   3.201 -0.1897 -0.2146  0.2270
 7108TIP3   OH221287   2.274   2.318   5.240 -0.2020 -0.4532 -0.2484
 7108TIP3    H121288   2.287   2.338   5.147  0.8417  0.9969  0.1740
 7108TIP3    H221289   2.210   2.247   5.240  1.6831 -2.3235 -2.1988
 7109TIP3   OH221290   4.316   6.347   2.792 -0.0328 -0.2709 -0.1038
 7109TIP3    H121291   4.343   6.428   2.750 -1.2441  0.4329  0.4352
 7109TIP3    H221292   4.220   6.353   2.798  0.0474 -0.4996  2.3942
 7110TIP3   OH221293   6.333   2.459   0.904 -0.2138 -0.1732 -0.1822
 7110TIP3    H121294   6.258   2.471   0.963 -0.8673 -3.2929 -0.2076
 7110TIP3    H221295   6.369   2.547   0.893 -1.5925  0.9012  2.8352
 7111TIP3   OH221296   2.026   6.471   2.198 -0.4001 -0.2834  0.4122
 7111TIP3    H121297   1.964   6.525   2.248 -0.4239 -1.0533  1.2401
 7111TIP3    H221298   2.075   6.423   2.265  0.1991 -0.6548 -0.2837
 7112TIP3   OH221299   5.427   1.586   3.781  0.3902  0.3007  0.4039
 7112TIP3    H121300   5.496   1.624   3.727 -2.3964  2.6555 -1.9089
 7112TIP3    H221301   5.414   1.498   3.745  1.1873  0.4032 -0.1510
 7113TIP3   OH221302   4.236   3.696   3.569  0.8396 -0.3127  0.0382
 7113TIP3    H121303   4.304   3.635   3.596  1.6292  0.5446  0.0608
 7113TIP3    H221304   4.274   3.742   3.493  0.5262  0.5692  0.3979
 7114TIP3   OH221305   0.081   6.789   4.869  0.0419  0.0482 -0.5663
 7114TIP3    H121306   0.013   6.857   4.869 -0.8384 -0.8011  0.9687
 7114TIP3    H221307   0.039   6.712   4.906  0.2995 -2.1595 -4.3021
 7115TIP3   OH221308   5.232   2.580   5.870 -0.0312  0.2907  0.5536
 7115TIP3    H121309   5.291   2.649   5.842 -1.0224  1.4819  1.3206
 7115TIP3    H221310   5.220   2.526   5.792  0.7463  0.9737 -0.0611
 7116TIP3   OH221311   1.291   2.138   0.416  0.6837 -0.2862 -0.1599
 7116TIP3    H121312   1.385   2.147   0.401  0.4834 -0.1535 -1.4743
 7116TIP3    H221313   1.258   2.099   0.335 -0.4393 -0.0302  0.1618
 7117TIP3   OH221314   1.741   4.689   5.483 -0.0310 -0.0770  0.2864
 7117TIP3    H121315   1.684   4.667   5.410 -0.3103  1.2308  0.0809
 7117TIP3    H221316   1.707   4.637   5.556  0.1915 -1.3190 -0.4590
 7118TIP3   OH221317   2.291   1.828   1.443  0.4289  0.6969  0.2484
 7118TIP3    H121318   2.275   1.839   1.536  0.3004  0.3362  0.2726
 7118TIP3    H221319   2.220   1.772   1.413  1.2552 -0.3851  0.2346
 7119TIP3   OH221320   5.105   2.216   4.268 -0.4346  0.3400 -0.4747
 7119TIP3    H121321   5.193   2.251   4.253 -0.0076 -0.1008  0.8778
 7119TIP3    H221322   5.068   2.273   4.336 -0.9378  0.1027 -0.5472
 7120TIP3   OH221323   0.980   5.832   0.612  0.3159  0.1079  0.2923
 7120TIP3    H121324   1.049   5.778   0.574 -0.2032 -0.7520  0.5359
 7120TIP3    H221325   1.024   5.888   0.675  1.0851  1.0414 -1.0252
 7121TIP3   OH221326   1.308   6.458   3.052  0.1697  0.2185  0.3454
 7121TIP3    H121327   1.332   6.480   3.142  2.0807 -2.0375  0.4796
 7121TIP3    H221328   1.224   6.413   3.061 -0.3054  1.1527  0.8095
 7122TIP3   OH221329   5.876   1.882   2.067  0.4303 -0.4814 -0.1414
 7122TIP3    H121330   5.815   1.834   2.123 -0.8512  1.7342  0.4982
 7122TIP3    H221331   5.929   1.814   2.025 -3.0434 -2.6789 -1.4675
 7123TIP3   OH221332   0.977   5.573   4.508 -0.5818 -0.3875 -0.4184
 7123TIP3    H121333   0.924   5.507   4.553 -1.0884  0.5003  0.3330
 7123TIP3    H221334   0.947   5.569   4.417  0.0625 -1.8247 -0.5932
 7124TIP3   OH221335   1.586   0.992   0.876 -0.4241  0.5174 -0.5716
 7124TIP3    H121336   1.579   0.951   0.789 -0.1553  1.8029 -1.2303
 7124TIP3    H221337   1.679   1.015   0.883 -0.0339 -1.3388  0.9167
 7125TIP3   OH221338   5.590   5.945   3.667  0.2586 -0.1844  0.3647
 7125TIP3    H121339   5.625   5.952   3.756 -0.2220 -2.0851  0.7650
 7125TIP3    H221340   5.612   6.028   3.625  1.1290  0.4709  2.0328
 7126TIP3   OH221341   0.691   2.567   5.421 -0.3154  0.4799  0.0449
 7126TIP3    H121342   0.685   2.476   5.392 -0.3652  0.4588  0.1227
 7126TIP3    H221343   0.777   2.574   5.462 -0.3381  0.4522  0.0964
 7127TIP3   OH221344   2.377   3.453   0.689  0.1359  0.2515  0.0069
 7127TIP3    H121345   2.385   3.543   0.659 -0.6261  0.1159 -0.6610
 7127TIP3    H221346   2.437   3.403   0.633 -0.0476  0.2367 -0.1800
 7128TIP3   OH221347   1.912   1.006   3.372  0.2261  0.8181  0.1874
 7128TIP3    H121348   1.937   0.915   3.353 -0.9220  0.4280  0.4611
 7128TIP3    H221349   1.828   0.998   3.419 -1.5512  2.1113 -2.5314
 7129TIP3   OH221350   3.254   0.614   3.510 -0.3798  0.0144  0.4527
 7129TIP3    H121351   3.336   0.615   3.460 -0.8688 -1.0069 -0.3949
 7129TIP3    H221352   3.205   0.689   3.477 -1.4531 -1.6203 -1.9764
 7130TIP3   OH221353   0.641   6.723   1.451  0.1055  0.1904  0.4566
 7130TIP3    H121354   0.619   6.732   1.544  1.1248 -1.0058  0.8443
 7130TIP3    H221355   0.719   6.778   1.440 -0.8155  1.4547 -0.0508
 7131TIP3   OH221356   7.172   6.483   0.638 -0.0987  0.1012 -0.1218
 7131TIP3    H121357   7.130   6.403   0.608 -0.4966  0.1734  0.2306
 7131TIP3    H221358   7.266   6.468   0.626 -0.1214 -0.7192  0.6854
 7132TIP3   OH221359   2.981   3.096   3.166 -0.4309  0.3381 -0.3560
 7132TIP3    H121360   3.013   3.097   3.076 -1.4078  2.1496 -0.7277
 7132TIP3    H221361   2.896   3.053   3.161 -1.1679  1.7717 -0.5888
 7133TIP3   OH221362   7.057   1.656   2.134 -0.0317 -0.3560  0.6087
 7133TIP3    H121363   6.971   1.626   2.104  0.0971 -0.1403  0.0115
 7133TIP3    H221364   7.038   1.728   2.194 -0.2654 -0.3039  0.4712
 7134TIP3   OH221365   1.668   0.826   5.638 -0.3595 -0.6208  0.2443
 7134TIP3    H121366   1.714   0.900   5.678 -0.1876 -0.3374 -0.4701
 7134TIP3    H221367   1.614   0.865   5.569 -0.7317 -1.0944  0.2570
 7135TIP3   OH221368   6.321   4.475   1.443 -0.0020 -0.0431  0.4235
 7135TIP3    H121369   6.386   4.431   1.388  0.1984 -1.1594  1.5031
 7135TIP3    H221370   6.266   4.404   1.476 -2.1477  0.8947 -0.8632
 7136TIP3   OH221371   3.875   0.069   1.119 -0.0236 -0.2163 -0.1394
 7136TIP3    H121372   3.864   0.164   1.127  3.1197  0.2917 -0.5684
 7136TIP3    H221373   3.935   0.045   1.190  1.1871 -1.4059 -1.4907
 7137TIP3   OH221374   2.266   3.157   3.609  0.3038  0.1829  0.1275
 7137TIP3    H121375   2.204   3.088   3.633  0.9985 -0.0947  1.1578
 7137TIP3    H221376   2.315   3.120   3.535 -0.1410  0.0520 -0.1058
 7138TIP3   OH221377   2.844   1.398   5.714 -0.9161 -0.0265  0.0740
 7138TIP3    H121378   2.895   1.325   5.678  0.0880  0.6579  0.0811
 7138TIP3    H221379   2.803   1.438   5.638  0.1078  0.5800 -0.1806
 7139TIP3   OH221380   7.004   2.024   5.057 -0.4943 -0.1559  0.1758
 7139TIP3    H121381   7.092   2.000   5.088 -0.4047  1.3862  1.2538
 7139TIP3    H221382   6.945   1.966   5.106 -0.1128 -0.8035 -0.1216
 7140TIP3   OH221383   3.630   1.631   1.342  0.3537  0.6434 -0.0435
 7140TIP3    H121384   3.545   1.605   1.306  1.2392 -0.4364 -1.4427
 7140TIP3    H221385   3.652   1.561   1.404  0.1798  0.9858  0.4110
 7141TIP3   OH221386   6.256   4.525   4.435 -0.3628  0.2914  0.0979
 7141TIP3    H121387   6.231   4.496   4.347 -1.1615 -0.8552  0.6707
 7141TIP3    H221388   6.281   4.617   4.424 -1.3902  0.4535 -1.1514
 7142TIP3   OH221389   1.881   5.189   0.711  0.1797  0.1864 -0.4090
 7142TIP3    H121390   1.929   5.127   0.656  0.6823  0.1216  0.0909
 7142TIP3    H221391   1.945   5.216   0.777 -0.4280  0.2204  0.1739
 7143TIP3   OH221392   4.547   2.297   1.348 -0.1859  0.5221  0.3778
 7143TIP3    H121393   4.532   2.230   1.414 -2.5093  0.9806  0.4095
 7143TIP3    H221394   4.461   2.311   1.308  1.2228 -0.2180 -3.2664
 7144TIP3   OH221395   2.507   4.536   1.408  0.0688  0.1863  0.2662
 7144TIP3    H121396   2.433   4.530   1.468 -0.5772  0.4840 -0.4714
 7144TIP3    H221397   2.509   4.628   1.382  0.2228  0.0289 -0.3026
 7145TIP3   OH221398   4.580   2.727   3.323 -0.4988  0.0893  0.0752
 7145TIP3    H121399   4.556   2.677   3.401 -0.5909  0.7558  0.4824
 7145TIP3    H221400   4.552   2.672   3.250 -2.1199  0.2807  0.5251
 7146TIP3   OH221401   0.685   5.515   3.175  0.0250  0.0368 -0.2815
 7146TIP3    H121402   0.668   5.530   3.082  0.9325 -1.1355 -0.6629
 7146TIP3    H221403   0.641   5.432   3.195  0.2650  0.0176  0.1953
 7147TIP3   OH221404   4.711   2.268   5.488 -0.0176  0.0293 -0.0828
 7147TIP3    H121405   4.680   2.266   5.579  2.1198  1.6027  0.7708
 7147TIP3    H221406   4.633   2.251   5.435 -1.8244  1.4751  1.9584
 7148TIP3   OH221407   5.481   1.718   5.213 -0.3094  0.1999 -0.2853
 7148TIP3    H121408   5.475   1.728   5.118 -1.6027 -0.6777 -0.3314
 7148TIP3    H221409   5.558   1.769   5.238 -0.1684  0.7643 -1.7509
 7149TIP3   OH221410   2.152   6.741   4.350  0.1481  0.9896  0.1084
 7149TIP3    H121411   2.148   6.829   4.387  1.7855  0.3620  1.9397
 7149TIP3    H221412   2.106   6.686   4.413 -0.0925  0.3840 -0.5809
 7150TIP3   OH221413   0.372   1.263   0.815  0.6481 -0.2214  0.6417
 7150TIP3    H121414   0.333   1.177   0.798  0.8066 -0.7683  2.7201
 7150TIP3    H221415   0.461   1.243   0.846  0.9564  0.7313  0.3920
 7151TIP3   OH221416   4.027   0.465   2.193  0.0879 -0.4481 -0.4891
 7151TIP3    H121417   4.008   0.475   2.099  2.8044 -1.1772 -1.2110
 7151TIP3    H221418   4.097   0.400   2.196  0.3169 -0.1644  2.0308
 7152TIP3   OH221419   4.972   1.958   1.398 -0.1426  0.0867 -0.2656
 7152TIP3    H121420   4.917   2.022   1.353  1.3613  1.1459 -0.6683
 7152TIP3    H221421   5.029   2.010   1.454  1.2213 -0.8839 -0.6984
 7153TIP3   OH221422   2.299   6.426   5.627  0.3670 -0.1508  0.0166
 7153TIP3    H121423   2.253   6.344   5.610  0.4326  0.1509 -1.7197
 7153TIP3    H221424   2.238   6.478   5.680 -0.2801 -0.7191 -0.1686
 7154TIP3   OH221425   1.542   1.255   3.162  0.1245 -0.2770 -0.0643
 7154TIP3    H121426   1.629   1.281   3.190 -0.8731  2.3680  0.9197
 7154TIP3    H221427   1.540   1.160   3.173  2.8620 -0.4151 -0.2075
 7155TIP3   OH221428   1.906   5.209   3.210 -0.3810  0.1096 -0.3609
 7155TIP3    H121429   1.940   5.245   3.292 -0.1089 -1.9013  0.4704
 7155TIP3    H221430   1.984   5.193   3.156 -0.2170 -1.6332  0.3318
 7156TIP3   OH221431   4.210   0.217   4.072 -0.5120  0.0762  0.1701
 7156TIP3    H121432   4.137   0.174   4.117 -0.6385  0.5501  0.4274
 7156TIP3    H221433   4.239   0.285   4.133  0.5992 -0.5476  0.3644
 7157TIP3   OH221434   2.876   0.185   4.663 -0.0047 -0.2521 -0.4129
 7157TIP3    H121435   2.949   0.132   4.632 -0.2419 -0.2761 -0.9365
 7157TIP3    H221436   2.889   0.191   4.758 -1.5710 -3.7791  0.1946
 7158TIP3   OH221437   5.401   2.506   1.923  0.2629  0.3390  0.2748
 7158TIP3    H121438   5.476   2.554   1.889 -0.4052  1.8125  0.8109
 7158TIP3    H221439   5.413   2.417   1.891  1.8520  0.7125 -0.2457
 7159TIP3   OH221440   1.740   0.697   4.385 -0.1891 -0.4376 -0.0452
 7159TIP3    H121441   1.802   0.722   4.317  1.8830  0.9510  2.2134
 7159TIP3    H221442   1.678   0.771   4.389  0.3126 -0.0307  0.2705
 7160TIP3   OH221443   5.604   0.666   0.600  0.3686 -0.1023 -0.0778
 7160TIP3    H121444   5.530   0.643   0.656  0.8339 -1.9746 -0.1799
 7160TIP3    H221445   5.564   0.718   0.529 -0.6522 -0.0905  0.4780
 7161TIP3   OH221446   1.000   3.132   1.279 -0.8077  0.3393  0.2661
 7161TIP3    H121447   0.929   3.189   1.307 -0.4010  1.4354 -0.8478
 7161TIP3    H221448   0.966   3.043   1.291 -2.6331  0.8352 -0.8616
 7162TIP3   OH221449   6.250   0.588   3.428  1.0200  0.0328 -0.0983
 7162TIP3    H121450   6.315   0.588   3.357  2.3699  0.3327  1.0944
 7162TIP3    H221451   6.264   0.504   3.472 -0.3995 -0.5323 -0.6694
 7163TIP3   OH221452   3.339   6.250   2.278  0.4546 -0.1034  0.2790
 7163TIP3    H121453   3.269   6.196   2.314  0.1127  0.1928  0.0571
 7163TIP3    H221454   3.357   6.315   2.345  0.2872  0.0272  0.1969
 7164TIP3   OH221455   0.753   6.057   2.669 -0.4351  0.2400  0.0829
 7164TIP3    H121456   0.815   5.988   2.692 -0.1072  0.5802  0.2237
 7164TIP3    H221457   0.682   6.048   2.733  1.1698  2.1259  2.2868
 7165TIP3   OH221458   5.600   3.428   2.997  0.5863  0.2342 -0.1893
 7165TIP3    H121459   5.626   3.359   3.058  0.2691 -1.9605 -2.3799
 7165TIP3    H221460   5.620   3.393   2.910 -0.9753  2.3063 -1.5043
 7166TIP3   OH221461   1.429   5.116   2.322 -0.2516  0.2134  0.7111
 7166TIP3    H121462   1.389   5.121   2.408 -0.8166 -1.1046  0.5542
 7166TIP3    H221463   1.523   5.116   2.338 -0.3054  2.1397  1.1657
 7167TIP3   OH221464   4.076   3.800   4.281  0.5474 -0.4095  0.0817
 7167TIP3    H121465   4.001   3.859   4.281  2.1092  1.8415  2.9106
 7167TIP3    H221466   4.039   3.712   4.270 -2.3256  0.6986  0.2482
 7168TIP3   OH221467   2.612   1.462   3.068  0.3184  0.6846  0.0110
 7168TIP3    H121468   2.576   1.550   3.080  1.9843  1.9172 -2.9043
 7168TIP3    H221469   2.566   1.428   2.991  0.2853 -0.6654  0.6064
 7169TIP3   OH221470   2.382   0.743   2.303  0.4505 -0.1594  0.4017
 7169TIP3    H121471   2.337   0.714   2.383  0.6057 -0.2469  0.4591
 7169TIP3    H221472   2.345   0.829   2.284  2.7527  1.4146  2.4714
 7170TIP3   OH221473   4.609   1.961   5.591  0.2602  0.5369  0.1491
 7170TIP3    H121474   4.576   2.042   5.630  2.0929  1.0454  0.7458
 7170TIP3    H221475   4.531   1.918   5.556 -0.8069  2.3861  0.1109
 7171TIP3   OH221476   0.753   6.386   0.567  0.5338 -0.7505 -0.3654
 7171TIP3    H121477   0.768   6.339   0.485 -0.1063 -2.4507  0.4435
 7171TIP3    H221478   0.803   6.337   0.632 -0.1723 -0.3200  0.5254
 7172TIP3   OH221479   1.996   6.021   1.480  0.0082 -0.4756  0.5945
 7172TIP3    H121480   2.034   6.066   1.556  1.4023  1.0068 -0.8835
 7172TIP3    H221481   1.903   6.044   1.483 -0.0253 -0.6670  1.9755
 7173TIP3   OH221482   6.595   2.735   4.261  0.0522  0.4016 -0.0253
 7173TIP3    H121483   6.611   2.699   4.348  0.2851  1.0583  0.2097
 7173TIP3    H221484   6.553   2.820   4.278 -0.3520  0.3144 -0.5624
 7174TIP3   OH221485   4.299   5.716   0.355 -0.6202 -0.2735  0.0739
 7174TIP3    H121486   4.318   5.699   0.448 -0.5422  2.0999  0.5525
 7174TIP3    H221487   4.281   5.810   0.351 -1.5029 -0.4781 -2.1956
 7175TIP3   OH221488   3.503   1.615   2.834 -0.1012 -0.4957  0.0632
 7175TIP3    H121489   3.417   1.629   2.795 -0.0376  0.1189  0.1415
 7175TIP3    H221490   3.562   1.603   2.759 -0.1121 -0.0932 -0.0091
 7176TIP3   OH221491   5.131   4.477   2.974 -0.0634 -0.0396 -0.6083
 7176TIP3    H121492   5.069   4.544   2.944 -1.2254 -0.4438  0.7974
 7176TIP3    H221493   5.197   4.525   3.022 -1.7632  0.0524  1.8272
 7177TIP3   OH221494   3.177   0.301   2.726 -0.5573  0.3663  0.1922
 7177TIP3    H121495   3.090   0.273   2.754 -0.5661  0.2179  0.0173
 7177TIP3    H221496   3.232   0.223   2.735  0.2587  1.1207  3.0981
 7178TIP3   OH221497   3.895   4.165   0.244  0.0714 -0.0365 -0.0933
 7178TIP3    H121498   3.917   4.127   0.159 -1.6374  0.2106 -0.6962
 7178TIP3    H221499   3.959   4.128   0.304  0.3949 -1.4134 -1.2144
 7179TIP3   OH221500   2.760   5.020   2.829  0.0892 -0.1893 -0.4925
 7179TIP3    H121501   2.743   4.971   2.910 -1.9642  0.4859 -0.4625
 7179TIP3    H221502   2.840   4.981   2.794 -0.5217 -2.4004  0.3963
 7180TIP3   OH221503   6.270   4.911   0.321  0.0221  0.0568 -0.3675
 7180TIP3    H121504   6.290   4.937   0.411 -0.5300  1.5416 -0.6386
 7180TIP3    H221505   6.218   4.831   0.330 -0.0589  0.2074  0.6458
 7181TIP3   OH221506   2.810   2.168   5.797 -0.2031  0.5589  0.1474
 7181TIP3    H121507   2.905   2.176   5.799 -0.0338 -0.5430 -1.8567
 7181TIP3    H221508   2.788   2.118   5.876  0.7035  1.9523  1.3356
 7182TIP3   OH221509   2.395   0.622   1.919  0.0773  0.3024 -0.9064
 7182TIP3    H121510   2.407   0.528   1.935 -1.1649  0.3863  0.7432
 7182TIP3    H221511   2.300   0.634   1.918  0.2216  1.6188 -0.6852
 7183TIP3   OH221512   4.550   3.496   1.089  0.1111 -0.2392  0.0397
 7183TIP3    H121513   4.575   3.587   1.099  1.0814 -0.3664 -1.0408
 7183TIP3    H221514   4.589   3.451   1.164  1.0397 -0.0299 -0.3128
 7184TIP3   OH221515   2.849   6.135   2.452 -0.2028  0.2094 -0.5269
 7184TIP3    H121516   2.794   6.116   2.376  0.2691  1.7903 -1.3197
 7184TIP3    H221517   2.864   6.230   2.447  1.0494  0.1070  0.7172
 7185TIP3   OH221518   1.829   6.535   2.428 -0.3024  0.0468  0.3928
 7185TIP3    H121519   1.832   6.620   2.473  0.8721 -0.0321  0.4856
 7185TIP3    H221520   1.846   6.471   2.497 -1.1919 -0.2785  0.3220
 7186TIP3   OH221521   2.900   1.577   2.073  0.1922 -0.0496  0.3577
 7186TIP3    H121522   2.806   1.592   2.085  0.4241  0.5614  1.4882
 7186TIP3    H221523   2.914   1.488   2.105 -0.2732 -0.8350 -1.4559
 7187TIP3   OH221524   0.152   3.291   1.860 -0.1347  0.5153 -0.0586
 7187TIP3    H121525   0.079   3.302   1.920 -0.0550  0.8813 -0.0258
 7187TIP3    H221526   0.230   3.295   1.915 -0.1109 -3.1674  0.4281
 7188TIP3   OH221527   0.767   1.452   5.620 -0.3723  0.7171  0.1749
 7188TIP3    H121528   0.795   1.427   5.708  2.7737  1.5999 -0.4591
 7188TIP3    H221529   0.847   1.453   5.569 -1.9289  1.5018 -2.4221
 7189TIP3   OH221530   4.739   6.671   5.115 -0.0291  0.2355 -0.2553
 7189TIP3    H121531   4.736   6.576   5.118  1.5374  0.1765 -0.1387
 7189TIP3    H221532   4.739   6.698   5.207 -1.3433  0.4028 -0.2854
 7190TIP3   OH221533   2.017   4.064   0.384 -0.1394  0.4419 -0.0343
 7190TIP3    H121534   1.941   4.123   0.377 -0.3868 -0.0979 -2.7153
 7190TIP3    H221535   2.093   4.122   0.384 -0.4508  0.8492 -0.2017
 7191TIP3   OH221536   7.066   6.209   4.946 -0.0693  0.0614  0.5016
 7191TIP3    H121537   6.986   6.158   4.934  0.4885 -0.4248 -1.5749
 7191TIP3    H221538   7.135   6.155   4.907  1.4784  0.0683  3.0374
 7192TIP3   OH221539   3.675   2.087   3.718 -0.2455  0.0160 -0.4348
 7192TIP3    H121540   3.644   2.173   3.689  1.5018  0.7123 -0.3688
 7192TIP3    H221541   3.688   2.038   3.637 -0.3474  0.1331 -0.5228
 7193TIP3   OH221542   6.117   0.915   4.075 -0.6456 -0.3935  0.3606
 7193TIP3    H121543   6.193   0.954   4.030 -1.1342 -0.6192 -0.6979
 7193TIP3    H221544   6.051   0.984   4.074 -1.0763 -0.8098 -0.3748
 7194TIP3   OH221545   5.743   3.809   3.379  0.0848 -0.1892 -0.7306
 7194TIP3    H121546   5.709   3.765   3.301  0.1995 -0.8285 -0.4337
 7194TIP3    H221547   5.703   3.762   3.452  0.2052  0.2127 -0.4061
 7195TIP3   OH221548   5.708   5.961   3.929  0.2358  0.2231 -0.1018
 7195TIP3    H121549   5.799   5.959   3.899  0.7603 -1.5018  1.3957
 7195TIP3    H221550   5.711   6.015   4.009  0.1808 -0.7329  0.5609
 7196TIP3   OH221551   2.995   5.893   2.350  0.3638 -0.1499 -0.9147
 7196TIP3    H121552   2.925   5.860   2.407  0.4093 -1.8068 -1.7382
 7196TIP3    H221553   3.076   5.864   2.392  0.4098 -1.0362 -1.5668
 7197TIP3   OH221554   6.066   0.916   2.695 -0.2213 -0.0366  0.2873
 7197TIP3    H121555   6.072   1.003   2.656  1.9069 -0.4099 -0.3233
 7197TIP3    H221556   6.063   0.856   2.620 -3.6564 -0.5154  0.6245
 7198TIP3   OH221557   3.128   5.289   4.920 -0.2190 -0.9178 -0.0914
 7198TIP3    H121558   3.175   5.206   4.925  0.0837 -0.6856  1.0690
 7198TIP3    H221559   3.046   5.274   4.967 -1.2662 -1.2518 -1.9060
 7199TIP3   OH221560   5.031   6.443   3.030  0.4731 -0.0608  0.2453
 7199TIP3    H121561   5.062   6.421   2.942  0.7341  1.4791 -0.0933
 7199TIP3    H221562   4.946   6.484   3.015  0.4033 -0.0275  0.7256
 7200TIP3   OH221563   2.974   5.156   0.339 -0.5356 -0.3670 -0.0564
 7200TIP3    H121564   2.927   5.170   0.257 -0.5140  0.1024  0.0106
 7200TIP3    H221565   3.036   5.086   0.318 -0.3277 -0.0512 -0.5302
 7201TIP3   OH221566   4.586   3.062   0.690 -0.1256  0.3530 -0.5048
 7201TIP3    H121567   4.492   3.080   0.682  0.2718  2.0968 -1.5894
 7201TIP3    H221568   4.617   3.124   0.756  0.3948  0.2652 -0.6649
 7202TIP3   OH221569   2.977   4.011   3.379 -0.5268  0.1824  0.3252
 7202TIP3    H121570   3.038   3.963   3.323 -0.2533  1.8817 -0.9351
 7202TIP3    H221571   3.022   4.020   3.463  0.1057 -0.3115  0.0412
 7203TIP3   OH221572   6.503   6.121   3.359  1.0486  0.2110 -0.4316
 7203TIP3    H121573   6.500   6.033   3.397  0.2066  0.7099  0.7063
 7203TIP3    H221574   6.423   6.163   3.389  3.0780  2.5969  2.1336
 7204TIP3   OH221575   4.940   3.819   5.127 -0.7328  0.7859  0.5816
 7204TIP3    H121576   4.913   3.846   5.215  0.1338  0.6792  0.8918
 7204TIP3    H221577   5.017   3.764   5.141  0.0157  1.5583 -0.2822
 7205TIP3   OH221578   1.515   0.033   3.923  0.4969 -0.7241 -0.4469
 7205TIP3    H121579   1.542  -0.044   3.874  3.0545  0.1474 -0.5276
 7205TIP3    H221580   1.595   0.083   3.936 -0.8319  1.1998  0.9077
 7206TIP3   OH221581   3.608   6.516   5.760 -0.1133 -0.1356 -1.1272
 7206TIP3    H121582   3.534   6.480   5.711  1.0774 -1.2757 -2.1911
 7206TIP3    H221583   3.644   6.441   5.808  0.1438  0.4722 -0.3609
 7207TIP3   OH221584   5.923   3.155   2.086 -0.3907  0.0023 -0.2676
 7207TIP3    H121585   5.999   3.098   2.104  0.2757  0.6881 -0.8398
 7207TIP3    H221586   5.862   3.099   2.038 -0.4660 -0.6959  0.6047
 7208TIP3   OH221587   0.219   1.327   2.309 -0.0460  0.0551  0.1867
 7208TIP3    H121588   0.230   1.404   2.252  0.5917 -0.1574  0.0107
 7208TIP3    H221589   0.128   1.300   2.296 -0.1142  0.4493 -0.1738
 7209TIP3   OH221590   4.480   2.244   0.536  0.2095 -0.2805 -0.4863
 7209TIP3    H121591   4.420   2.188   0.585  1.1620 -1.5233 -0.6892
 7209TIP3    H221592   4.432   2.326   0.524 -1.4197 -1.2029 -0.5894
 7210TIP3   OH221593   5.463   2.841   0.665 -0.1706  0.3037 -0.3344
 7210TIP3    H121594   5.524   2.828   0.737  0.5014  0.2090 -0.9052
 7210TIP3    H221595   5.460   2.757   0.620 -1.4996  0.0143  0.2633
 7211TIP3   OH221596   7.107   5.828   4.897  0.3069  0.2371 -0.5165
 7211TIP3    H121597   7.014   5.848   4.907  0.3624  0.6401 -0.8044
 7211TIP3    H221598   7.126   5.769   4.969 -0.3575 -0.4730 -0.8990
 7212TIP3   OH221599   3.839   1.239   1.872  0.1083  0.6120  0.2130
 7212TIP3    H121600   3.848   1.324   1.829 -0.2699  1.1375  1.1322
 7212TIP3    H221601   3.766   1.252   1.934 -0.3854 -0.5723 -0.0992
 7213TIP3   OH221602   6.713   1.028   3.846  0.2177 -0.0166  0.0388
 7213TIP3    H121603   6.632   1.061   3.809  0.4419 -0.0397 -0.4917
 7213TIP3    H221604   6.747   1.099   3.900 -0.0553  0.0632  0.1033
 7214TIP3   OH221605   5.429   4.565   0.413 -0.2659  0.2091 -0.1636
 7214TIP3    H121606   5.466   4.650   0.435 -1.2733  0.6111  0.0275
 7214TIP3    H221607   5.461   4.547   0.324  2.3122 -0.5713  0.8197
 7215TIP3   OH221608   6.678   5.753   4.217 -0.4266  0.2037  0.5813
 7215TIP3    H121609   6.609   5.689   4.234 -0.1236 -0.3706 -0.2762
 7215TIP3    H221610   6.717   5.770   4.302 -0.6963 -0.5495  0.8596
 7216TIP3   OH221611   6.197   1.885   1.885  0.5883  0.2315 -0.0834
 7216TIP3    H121612   6.141   1.890   1.808 -0.5285  0.5713  0.7144
 7216TIP3    H221613   6.171   1.803   1.928  1.6954 -0.3152 -0.4164
 7217TIP3   OH221614   7.168   2.966   1.627 -0.5159 -0.4854  0.3136
 7217TIP3    H121615   7.173   2.902   1.556 -0.1793 -0.4735  0.3262
 7217TIP3    H221616   7.257   3.000   1.635 -1.0225  1.2589 -0.8645
 7218TIP3   OH221617   1.898   3.495   3.575 -0.4353  0.1476 -0.5420
 7218TIP3    H121618   1.962   3.551   3.619  0.7280 -2.0923  0.7505
 7218TIP3    H221619   1.841   3.464   3.646 -0.9883 -0.4052 -1.2153
 7219TIP3   OH221620   3.742   2.066   4.408 -0.0411  0.6822  0.2088
 7219TIP3    H121621   3.730   1.998   4.342  1.4522 -0.1119  0.7026
 7219TIP3    H221622   3.706   2.028   4.488  1.5452  0.0628  0.6812
 7220TIP3   OH221623   2.260   6.712   5.263  0.1301 -0.5025 -0.0180
 7220TIP3    H121624   2.286   6.637   5.211  0.7035 -0.7613  0.6137
 7220TIP3    H221625   2.343   6.744   5.301 -0.1507  0.2323 -0.0114
 7221TIP3   OH221626   2.433   1.641   3.173 -0.1248 -0.3986 -0.2231
 7221TIP3    H121627   2.385   1.591   3.107 -1.2869  0.5927 -0.1643
 7221TIP3    H221628   2.392   1.618   3.256 -0.4964  0.4133 -0.1656
 7222TIP3   OH221629   1.088   6.352   3.115  0.4053  0.0520 -0.6680
 7222TIP3    H121630   1.006   6.397   3.097  0.8853  1.1163 -0.2705
 7222TIP3    H221631   1.071   6.301   3.194  0.3554  0.9137 -0.1089
 7223TIP3   OH221632   4.113   3.382   1.549 -0.8029 -0.7895  0.3583
 7223TIP3    H121633   4.170   3.390   1.473  0.4053 -2.9289  0.9470
 7223TIP3    H221634   4.173   3.383   1.624 -1.8116 -0.2897  1.1844
 7224TIP3   OH221635   2.332   5.279   2.701 -0.7427  0.0032  0.0945
 7224TIP3    H121636   2.268   5.295   2.770 -1.0862 -1.4898  0.1561
 7224TIP3    H221637   2.334   5.360   2.651 -1.9236  0.4338  0.7054
 7225TIP3   OH221638   5.984   5.497   0.296  0.5388  0.0425 -0.4499
 7225TIP3    H121639   6.045   5.563   0.263 -1.0339  1.3135 -0.9574
 7225TIP3    H221640   5.938   5.540   0.368  0.3866 -0.9655  0.0815
 7226TIP3   OH221641   0.833   0.542   2.631 -0.1448  0.0778  0.5682
 7226TIP3    H121642   0.860   0.489   2.555 -0.5430  2.4711 -1.3896
 7226TIP3    H221643   0.761   0.492   2.670 -1.2922 -0.3979 -1.8803
 7227TIP3   OH221644   6.546   4.331   3.456 -0.0989  0.1818  0.1750
 7227TIP3    H121645   6.596   4.361   3.531  0.7166 -0.3593 -0.1382
 7227TIP3    H221646   6.566   4.394   3.387  2.2019 -1.3765 -0.7066
 7228TIP3   OH221647   5.068   1.698   0.389 -0.1116 -0.1874 -0.0675
 7228TIP3    H121648   5.113   1.615   0.403 -3.0671 -1.8515  0.3649
 7228TIP3    H221649   5.129   1.750   0.337  1.2823 -3.1697 -1.6511
 7229TIP3   OH221650   4.700   3.061   0.974  0.1066  0.3011 -0.4418
 7229TIP3    H121651   4.743   3.137   1.013  1.1088 -1.2269  1.6015
 7229TIP3    H221652   4.771   3.012   0.933 -0.1775 -0.5619  0.0671
 7230TIP3   OH221653   1.735   0.879   1.137  0.1502  0.0357 -0.0139
 7230TIP3    H121654   1.829   0.860   1.135 -0.0738 -1.2280  0.3181
 7230TIP3    H221655   1.708   0.876   1.045  0.2707 -0.5451 -0.0338
 7231TIP3   OH221656   4.106   0.661   4.044  0.3553 -0.1531 -1.0102
 7231TIP3    H121657   4.047   0.587   4.030 -0.0185  0.2360 -1.5335
 7231TIP3    H221658   4.179   0.644   3.985  1.4748 -1.3470  0.6244
 7232TIP3   OH221659   5.962   5.391   2.564 -0.2442 -0.3435 -0.2050
 7232TIP3    H121660   5.970   5.296   2.561 -1.5679 -0.4814 -0.1436
 7232TIP3    H221661   5.880   5.409   2.518 -0.0660  0.7572 -0.1064
 7233TIP3   OH221662   0.814   2.285   4.490 -0.1727 -0.6118 -0.4046
 7233TIP3    H121663   0.867   2.314   4.564  0.4094 -0.7683 -0.7560
 7233TIP3    H221664   0.792   2.194   4.510 -1.7859 -0.0512  0.5751
 7234TIP3   OH221665   3.339   6.722   2.677  0.0989  0.2348  0.1373
 7234TIP3    H121666   3.339   6.700   2.584 -0.2270 -0.6346  0.3378
 7234TIP3    H221667   3.249   6.750   2.695 -0.3296 -1.3461  0.5801
 7235TIP3   OH221668   7.122   5.997   3.706 -0.4056 -0.5451  0.0157
 7235TIP3    H121669   7.135   5.978   3.799 -2.2325  1.1183  0.6773
 7235TIP3    H221670   7.195   6.055   3.683 -1.2160  0.9853  1.1057
 7236TIP3   OH221671   3.707   5.398   3.213 -0.0291  0.3469  0.7525
 7236TIP3    H121672   3.742   5.344   3.142  1.0629  1.7739  0.1424
 7236TIP3    H221673   3.785   5.424   3.263 -0.0548  3.6963 -0.6776
 7237TIP3   OH221674   3.427   2.896   2.353  0.1600  0.1599 -0.0340
 7237TIP3    H121675   3.343   2.928   2.385  1.1954  2.6704  0.3744
 7237TIP3    H221676   3.438   2.937   2.267  1.0154 -0.0793 -0.0552
 7238TIP3   OH221677   0.139   1.405   0.702  0.2701  0.3108  0.2771
 7238TIP3    H121678   0.168   1.489   0.738  1.2795  0.3337 -0.5516
 7238TIP3    H221679   0.217   1.349   0.706  0.0837 -0.0467 -0.7664
 7239TIP3   OH221680   4.216   5.082   2.274  0.0944  0.3862 -0.3023
 7239TIP3    H121681   4.197   5.011   2.336  0.9035  0.5964  0.2058
 7239TIP3    H221682   4.299   5.057   2.234  0.6634  1.2808  0.2694
 7240TIP3   OH221683   4.388   2.168   0.279 -0.0895 -0.0026  0.4747
 7240TIP3    H121684   4.333   2.246   0.291 -2.8598 -1.7320  0.0576
 7240TIP3    H221685   4.443   2.165   0.357  0.8909  2.8804  0.0204
 7241TIP3   OH221686   2.262   0.934   5.122  0.6246  0.5330 -0.1558
 7241TIP3    H121687   2.214   0.971   5.047 -0.4517 -0.2685  0.1174
 7241TIP3    H221688   2.227   0.981   5.198  1.2574  0.8954 -0.0871
 7242TIP3   OH221689   3.134   3.270   4.312  0.0524 -0.0451  0.2890
 7242TIP3    H121690   3.169   3.256   4.400 -1.4299 -0.5613  0.8171
 7242TIP3    H221691   3.060   3.209   4.306  0.6202 -0.6093 -1.6095
 7243TIP3   OH221692   0.790   1.774   5.305  0.4049 -0.4331  0.1353
 7243TIP3    H121693   0.732   1.702   5.279 -0.2065 -1.3538  3.5092
 7243TIP3    H221694   0.871   1.759   5.255 -0.2494 -2.5799 -0.3982
 7244TIP3   OH221695   0.605   1.239   2.869 -0.0495 -0.2838 -0.3394
 7244TIP3    H121696   0.689   1.200   2.893 -0.2748 -1.1789 -0.9814
 7244TIP3    H221697   0.542   1.167   2.872 -0.8442  0.4014  0.2808
 7245TIP3   OH221698   3.473   6.416   1.357 -0.3062  1.1155 -0.3295
 7245TIP3    H121699   3.413   6.341   1.359  1.0719 -0.0256 -0.4223
 7245TIP3    H221700   3.540   6.394   1.422  0.6839  1.7765 -1.1058
 7246TIP3   OH221701   1.363   1.476   5.411 -0.5915  0.6424  0.1018
 7246TIP3    H121702   1.299   1.412   5.380 -0.0401 -0.7424  1.6782
 7246TIP3    H221703   1.448   1.438   5.389 -0.2737  1.4339 -0.0675
 7247TIP3   OH221704   0.510   1.351   1.156  0.3110 -0.2414 -0.1283
 7247TIP3    H121705   0.496   1.407   1.233  1.7903  0.1037 -0.0727
 7247TIP3    H221706   0.432   1.297   1.151  0.2324 -0.3553  1.6917
 7248TIP3   OH221707   0.847   5.368   2.958  0.2424  0.0249  0.2613
 7248TIP3    H121708   0.778   5.410   2.906  0.0654 -1.7661 -1.0641
 7248TIP3    H221709   0.812   5.365   3.047 -0.4446  1.1025  0.0440
 7249TIP3   OH221710   6.768   6.390   5.109 -0.3639  0.3653  0.1092
 7249TIP3    H121711   6.862   6.388   5.127 -0.3951  0.7477  0.3353
 7249TIP3    H221712   6.730   6.329   5.173 -0.1813 -0.4829 -0.5815
 7250TIP3   OH221713   0.140   1.175   5.395  0.1171  0.3376  0.3719
 7250TIP3    H121714   0.125   1.113   5.324 -1.4817  0.0702  0.8914
 7250TIP3    H221715   0.176   1.123   5.466  2.0090  0.6593 -0.2952
 7251TIP3   OH221716   4.218   0.607   4.923  0.2739  0.0219 -0.1276
 7251TIP3    H121717   4.286   0.674   4.910 -0.9404  1.2766 -0.1775
 7251TIP3    H221718   4.141   0.642   4.880 -0.2636 -1.6922 -0.6449
 7252TIP3   OH221719   3.156   0.696   0.878 -0.1177 -0.1016  0.0622
 7252TIP3    H121720   3.134   0.665   0.790  1.0837  1.1442 -0.7031
 7252TIP3    H221721   3.217   0.631   0.912 -0.0793 -0.2421 -0.2752
 7253TIP3   OH221722   1.319   3.097   5.223 -0.0844 -0.6358  0.2237
 7253TIP3    H121723   1.251   3.121   5.161 -0.3257  0.4838  0.8819
 7253TIP3    H221724   1.285   3.020   5.267  0.1708 -1.5486 -1.1311
 7254TIP3   OH221725   6.754   4.078   1.593  0.4645 -0.1200  0.3833
 7254TIP3    H121726   6.819   4.030   1.644  0.9358 -0.3259 -0.3952
 7254TIP3    H221727   6.709   4.133   1.657  1.6281  0.2871  0.8787
 7255TIP3   OH221728   6.386   4.159   2.469  0.3455 -0.4982 -0.1723
 7255TIP3    H121729   6.372   4.069   2.441  2.1289 -1.5839  2.0977
 7255TIP3    H221730   6.423   4.152   2.557 -2.5284  2.5689  1.5189
 7256TIP3   OH221731   5.129   0.744   2.367  0.1828 -0.1083  0.2466
 7256TIP3    H121732   5.057   0.807   2.365  1.7452  1.7996  0.9208
 7256TIP3    H221733   5.134   0.716   2.459  0.3089 -0.2352  0.2028
 7257TIP3   OH221734   6.612   4.503   3.258  0.2717  0.4928  0.2063
 7257TIP3    H121735   6.524   4.512   3.223 -0.7469 -0.6210  2.2894
 7257TIP3    H221736   6.631   4.589   3.297 -0.1587  0.5309  0.3351
 7258TIP3   OH221737   2.779   3.123   5.378  0.6150 -0.9240  0.1938
 7258TIP3    H121738   2.706   3.129   5.440 -0.2065  0.8117 -0.8493
 7258TIP3    H221739   2.832   3.200   5.396 -0.0582  0.0403 -1.6964
 7259TIP3   OH221740   6.333   3.775   0.679 -0.3971  0.0544  0.3262
 7259TIP3    H121741   6.243   3.765   0.710 -0.4055 -0.3920  0.1716
 7259TIP3    H221742   6.333   3.733   0.593  0.0137 -0.1615  0.4284
 7260TIP3   OH221743   3.650   1.785   1.067 -0.5475 -0.0637 -0.0917
 7260TIP3    H121744   3.719   1.783   1.001 -0.2427  0.4392  0.2071
 7260TIP3    H221745   3.621   1.694   1.073 -0.0022 -0.2601 -0.3164
 7261TIP3   OH221746   3.861   3.769   4.908 -0.3126 -0.8834 -0.2153
 7261TIP3    H121747   3.782   3.720   4.931 -0.9318 -0.5349 -1.5161
 7261TIP3    H221748   3.836   3.819   4.830  0.9434 -0.1199 -0.1515
 7262TIP3   OH221749   1.314   2.410   0.130 -0.3086  0.2407  0.3576
 7262TIP3    H121750   1.234   2.457   0.153  0.4712  0.3293  3.2580
 7262TIP3    H221751   1.374   2.427   0.202  1.0231 -2.9058  0.1758
 7263TIP3   OH221752   2.778   4.906   4.938  0.1275  0.5973 -0.7925
 7263TIP3    H121753   2.787   4.906   5.033 -0.8845 -0.8177 -0.6608
 7263TIP3    H221754   2.766   4.998   4.914  1.2189  1.0648  0.3349
 7264TIP3   OH221755   5.653   4.445   0.235 -0.6249 -0.1839  0.7387
 7264TIP3    H121756   5.659   4.453   0.140 -2.1922 -0.8192  0.5589
 7264TIP3    H221757   5.703   4.520   0.269 -1.8190  1.2832 -0.6149
 7265TIP3   OH221758   3.778   2.831   0.228 -0.4142  0.0424  0.0002
 7265TIP3    H121759   3.740   2.854   0.313 -1.6114 -0.9652 -0.2324
 7265TIP3    H221760   3.841   2.762   0.247 -1.8890 -1.3971 -0.0642
 7266TIP3   OH221761   0.463   6.325   2.226 -0.2127 -0.7251  0.0790
 7266TIP3    H121762   0.420   6.284   2.301  0.8377 -1.7643  0.1359
 7266TIP3    H221763   0.423   6.412   2.221 -0.7469 -0.8593  1.4644
 7267TIP3   OH221764   6.278   6.258   5.597  0.0517 -0.4659 -0.2698
 7267TIP3    H121765   6.240   6.346   5.604  0.4395 -0.1374 -1.8319
 7267TIP3    H221766   6.220   6.203   5.648 -1.7039  0.2797 -1.3537
 7268TIP3   OH221767   1.379   5.150   0.290 -0.9298  0.2785  0.0454
 7268TIP3    H121768   1.407   5.124   0.202  0.0456 -1.4356  0.8084
 7268TIP3    H221769   1.291   5.112   0.299 -0.5296 -0.6171  0.2442
 7269TIP3   OH221770   0.769   4.713   1.198 -0.2203 -0.0717 -0.0446
 7269TIP3    H121771   0.786   4.655   1.272  0.3283 -0.3345 -0.3635
 7269TIP3    H221772   0.779   4.802   1.234  0.4005 -0.2020  0.1261
 7270TIP3   OH221773   2.500   5.599   1.422 -0.2851 -0.4922  0.6830
 7270TIP3    H121774   2.436   5.669   1.408  1.4073  0.6604 -2.1296
 7270TIP3    H221775   2.450   5.529   1.465 -3.7439 -0.0901 -2.1894
 7271TIP3   OH221776   2.742   4.335   3.102  0.1849  0.5999  0.1718
 7271TIP3    H121777   2.710   4.248   3.077  0.2909  0.6664 -0.2021
 7271TIP3    H221778   2.771   4.325   3.193 -2.4459  0.9643  1.1147
 7272TIP3   OH221779   6.949   3.264   2.545 -0.1173 -0.2471  0.2806
 7272TIP3    H121780   6.944   3.210   2.623 -0.8020 -0.3653  0.1571
 7272TIP3    H221781   6.940   3.202   2.472  0.0286 -0.0778  0.1158
 7273TIP3   OH221782   5.029   1.115   5.121 -0.1220  0.0033 -0.1485
 7273TIP3    H121783   4.945   1.089   5.083  0.7788 -1.9772 -0.9078
 7273TIP3    H221784   5.018   1.208   5.141 -2.5150 -0.2100 -0.1362
 7274TIP3   OH221785   1.589   0.345   3.652  0.3650  0.2384 -0.3009
 7274TIP3    H121786   1.531   0.269   3.661  1.1133 -0.1328  2.5603
 7274TIP3    H221787   1.548   0.412   3.706  1.1155  0.9538 -0.6033
 7275TIP3   OH221788   1.720   1.556   1.016  0.1407 -0.3067  0.7055
 7275TIP3    H121789   1.637   1.518   0.985 -0.5030  1.0106  0.7252
 7275TIP3    H221790   1.779   1.549   0.941 -0.1475 -0.8198  0.5234
 7276TIP3   OH221791   3.279   3.402   5.074  0.2005 -0.3596  0.6323
 7276TIP3    H121792   3.299   3.344   5.148  2.6604 -0.5159 -0.0645
 7276TIP3    H221793   3.299   3.490   5.107  3.2321 -0.5720 -0.2815
 7277TIP3   OH221794   5.100   1.818   4.944 -0.2736 -0.2390 -0.5125
 7277TIP3    H121795   5.175   1.761   4.961 -0.9521 -0.5673  1.6672
 7277TIP3    H221796   5.077   1.800   4.853  2.0957 -0.3269 -1.1680
 7278TIP3   OH221797   4.562   3.660   2.141 -0.1370 -0.3946 -0.6724
 7278TIP3    H121798   4.513   3.693   2.217 -1.3859 -0.8076 -1.2707
 7278TIP3    H221799   4.540   3.720   2.070 -0.6797 -1.2425 -1.2293
 7279TIP3   OH221800   4.272   5.270   0.367  0.3237 -0.0362 -0.1246
 7279TIP3    H121801   4.348   5.299   0.416  0.1307  0.3349 -0.0441
 7279TIP3    H221802   4.198   5.310   0.411 -0.0227 -1.3011  0.4896
 7280TIP3   OH221803   2.546   5.798   3.396  0.6437 -0.9000 -0.0005
 7280TIP3    H121804   2.628   5.755   3.419  1.4800 -0.0693 -1.2348
 7280TIP3    H221805   2.552   5.811   3.301  1.7782  4.3208  0.4979
 7281TIP3   OH221806   4.037   0.789   3.177 -0.4184 -0.1245 -0.2004
 7281TIP3    H121807   3.986   0.772   3.256  0.0383 -0.6066 -0.0026
 7281TIP3    H221808   4.083   0.871   3.195  0.4650 -0.7382  0.4484
 7282TIP3   OH221809   0.393   2.841   1.037  0.8069 -0.1550  0.4850
 7282TIP3    H121810   0.298   2.840   1.022  0.8864 -0.1732 -0.0292
 7282TIP3    H221811   0.405   2.787   1.116  0.2984  0.6848  1.1478
 7283TIP3   OH221812   4.028   6.382   2.791  0.1240 -0.3914  0.5367
 7283TIP3    H121813   3.974   6.415   2.719 -0.5016 -3.3437 -0.5008
 7283TIP3    H221814   3.965   6.353   2.857  0.6587  0.8311  1.6369
 7284TIP3   OH221815   0.355   2.468   1.596 -0.6122  0.3144 -0.0049
 7284TIP3    H121816   0.337   2.459   1.689 -1.0902  0.4619 -0.0813
 7284TIP3    H221817   0.279   2.429   1.553 -0.7711  0.9705 -0.3310
 7285TIP3   OH221818   5.980   1.638   5.890 -0.1966  0.3607  0.2113
 7285TIP3    H121819   5.891   1.662   5.866  0.2434  1.1148 -0.7221
 7285TIP3    H221820   5.998   1.557   5.841 -0.0793  0.6656 -0.2491
 7286TIP3   OH221821   0.855   4.835   0.615 -0.0392  0.0004 -0.3308
 7286TIP3    H121822   0.793   4.837   0.689  0.8005  0.1517  0.3786
 7286TIP3    H221823   0.809   4.786   0.547 -0.9007  0.0164  0.2240
 7287TIP3   OH221824   4.645   4.499   3.692  0.2209 -0.0480  0.0474
 7287TIP3    H121825   4.601   4.475   3.773  0.3521  1.9519  0.7507
 7287TIP3    H221826   4.577   4.540   3.639  0.4040 -0.3235 -0.4139
 7288TIP3   OH221827   3.599   3.139   4.092 -0.2994  0.7737  0.4584
 7288TIP3    H121828   3.584   3.178   4.178 -0.9530 -0.5294  0.9657
 7288TIP3    H221829   3.544   3.061   4.091 -0.1396  0.6499 -1.0719
 7289TIP3   OH221830   1.181   5.817   2.543 -0.4585  0.3676  0.1330
 7289TIP3    H121831   1.093   5.800   2.578 -0.6369  2.4347  0.8505
 7289TIP3    H221832   1.170   5.894   2.488  0.7967  0.2385 -0.3262
 7290TIP3   OH221833   6.466   6.544   5.226  0.3561  0.2588 -0.4474
 7290TIP3    H121834   6.476   6.502   5.311  1.8979  2.6099  0.6647
 7290TIP3    H221835   6.551   6.587   5.211 -1.1371  3.2724 -1.1571
 7291TIP3   OH221836   0.554   3.675   5.642 -0.4279 -0.1266 -0.6305
 7291TIP3    H121837   0.540   3.612   5.713 -2.2888  0.6103 -0.3033
 7291TIP3    H221838   0.480   3.735   5.647 -0.1253  0.5003 -2.6345
 7292TIP3   OH221839   1.197   0.139   3.025  0.5352 -0.3919 -0.0228
 7292TIP3    H121840   1.163   0.052   3.000  1.4676 -1.1648  1.2662
 7292TIP3    H221841   1.273   0.120   3.080  1.6586  1.2824 -0.9169
 7293TIP3   OH221842   2.740   6.809   4.214 -0.0566 -0.2169  0.5114
 7293TIP3    H121843   2.772   6.720   4.206  1.7483  0.5157 -1.0722
 7293TIP3    H221844   2.798   6.851   4.277 -1.0211 -0.1808  1.4080
 7294TIP3   OH221845   5.022   0.318   1.987  0.6224 -0.3776  0.3359
 7294TIP3    H121846   4.995   0.231   2.014  1.9105 -1.3491 -1.3133
 7294TIP3    H221847   4.947   0.374   2.008 -0.8625 -2.1491  0.0345
 7295TIP3   OH221848   3.403   4.861   5.868  0.4325 -0.2728  0.1161
 7295TIP3    H121849   3.372   4.829   5.783 -2.3786  1.1628  0.4837
 7295TIP3    H221850   3.475   4.919   5.847 -0.5411  0.4584 -1.3781
 7296TIP3   OH221851   1.327   6.489   2.173 -0.0229  0.0956  0.2549
 7296TIP3    H121852   1.317   6.582   2.192 -0.8690  0.0939 -0.1347
 7296TIP3    H221853   1.384   6.486   2.096  2.5990  0.1376  2.0598
 7297TIP3   OH221854   0.115   3.965   4.935  0.0517  0.1239  0.3685
 7297TIP3    H121855   0.177   3.907   4.979 -1.1160 -2.0934 -0.7394
 7297TIP3    H221856   0.035   3.959   4.988 -0.5938 -0.6659 -0.6416
 7298TIP3   OH221857  -0.009   3.431   3.463  0.2692  0.0378 -0.6014
 7298TIP3    H121858   0.036   3.405   3.544  0.7291 -0.2015 -0.9297
 7298TIP3    H221859  -0.009   3.351   3.410  0.3060  0.2955 -0.9902
 7299TIP3   OH221860   5.297   4.094   1.250 -0.6208  0.1645  0.3369
 7299TIP3    H121861   5.304   4.113   1.157  0.0553  0.0346  0.3564
 7299TIP3    H221862   5.312   4.178   1.293  0.1493  0.0187  0.3582
 7300TIP3   OH221863   1.652   3.209   4.967  0.3162 -0.5748 -0.2273
 7300TIP3    H121864   1.716   3.208   4.896  0.7727  0.3011  0.1496
 7300TIP3    H221865   1.592   3.138   4.946  0.8346 -0.7702 -1.1238
 7301TIP3   OH221866   2.074   6.596   4.126  0.4633  0.2299 -0.2546
 7301TIP3    H121867   2.112   6.513   4.155 -0.8518 -0.1336  0.5110
 7301TIP3    H221868   2.084   6.655   4.201  0.0405  0.2980 -0.2474
 7302TIP3   OH221869   4.448   6.256   5.061  0.3185 -0.1439 -0.0925
 7302TIP3    H121870   4.474   6.337   5.018 -2.0221  0.5762 -0.2557
 7302TIP3    H221871   4.512   6.192   5.031 -0.5466  0.5405 -3.9260
 7303TIP3   OH221872   1.558   4.457   5.641 -0.0142 -0.1994 -0.0073
 7303TIP3    H121873   1.482   4.515   5.643 -2.1214 -2.7284 -0.9211
 7303TIP3    H221874   1.532   4.381   5.693  2.2337 -0.8377  0.3129
 7304TIP3   OH221875   4.925   3.342   3.856 -0.0248  0.5112 -0.2924
 7304TIP3    H121876   4.957   3.252   3.865 -0.6266  0.0615 -2.1367
 7304TIP3    H221877   4.969   3.390   3.926 -0.9994 -1.5279  1.8436
 7305TIP3   OH221878   3.936   3.814   2.051  0.0305 -0.4632 -0.3818
 7305TIP3    H121879   3.908   3.799   1.961  1.8359  0.4820 -1.1372
 7305TIP3    H221880   4.024   3.778   2.055 -0.0768 -0.6137  1.0607
 7306TIP3   OH221881   6.750   0.380   1.082 -0.2797 -0.1017 -0.5448
 7306TIP3    H121882   6.835   0.404   1.118 -0.4701  2.3069 -1.5765
 7306TIP3    H221883   6.701   0.348   1.158  1.8865 -2.8501 -0.1524
 7307TIP3   OH221884   1.004   5.656   1.179 -0.2825 -0.0078  0.1929
 7307TIP3    H121885   0.920   5.630   1.141  0.1423 -1.0750 -0.0552
 7307TIP3    H221886   1.041   5.575   1.213  0.4887  0.5114  0.6302
 7308TIP3   OH221887   1.447   0.662   3.068  0.5620 -0.3444 -0.0890
 7308TIP3    H121888   1.414   0.591   3.123  0.2985 -2.3693 -2.6722
 7308TIP3    H221889   1.537   0.676   3.097  0.0368 -0.4400  1.6530
 7309TIP3   OH221890   6.286   3.873   5.431 -0.3583 -0.2402  0.2043
 7309TIP3    H121891   6.313   3.797   5.380  1.4435  1.2425 -1.1702
 7309TIP3    H221892   6.191   3.877   5.420 -0.3722 -1.7942 -0.3694
 7310TIP3   OH221893   4.292   2.072   4.765  0.2721 -0.0312  0.0841
 7310TIP3    H121894   4.379   2.049   4.799 -0.4884 -0.5928  1.7896
 7310TIP3    H221895   4.261   1.992   4.723  0.8793  0.4167 -1.2739
 7311TIP3   OH221896   5.267   2.421   3.167  0.1654 -0.6646 -0.5763
 7311TIP3    H121897   5.172   2.419   3.158  0.3194  1.0812 -3.8352
 7311TIP3    H221898   5.299   2.352   3.109  0.9415 -0.6373 -0.2028
 7312TIP3   OH221899   3.111   5.231   1.727  0.5207  0.0333 -0.0245
 7312TIP3    H121900   3.021   5.248   1.755  1.2178  1.3584  1.6152
 7312TIP3    H221901   3.140   5.159   1.782  1.1334  1.0773  1.0751
 7313TIP3   OH221902   6.674   4.071   0.677  0.1085 -0.3788 -0.4594
 7313TIP3    H121903   6.673   4.086   0.583 -1.1049 -1.1621 -0.6023
 7313TIP3    H221904   6.581   4.069   0.701  0.3145 -2.4606  0.3544
 7314TIP3   OH221905   1.449   1.045   5.153 -0.3477  0.1174  0.1381
 7314TIP3    H121906   1.488   1.032   5.066 -0.4128  1.9248 -0.1965
 7314TIP3    H221907   1.521   1.078   5.207 -0.9148  1.5250  0.0553
 7315TIP3   OH221908   0.170   4.023   0.569 -0.2648 -0.2605 -0.1748
 7315TIP3    H121909   0.221   4.103   0.580 -0.9123  0.1582 -0.2118
 7315TIP3    H221910   0.232   3.960   0.532  0.7051 -0.2953  1.4343
 7316TIP3   OH221911   6.739   6.224   4.271  0.5045 -0.1885  0.0404
 7316TIP3    H121912   6.695   6.152   4.227 -0.3495  0.6400 -0.5055
 7316TIP3    H221913   6.680   6.250   4.341  0.5672  0.2951 -0.0794
 7317TIP3   OH221914   7.141   0.895   0.032 -0.1005  0.3482 -0.4722
 7317TIP3    H121915   7.128   0.985   0.063 -0.7277  0.4245 -0.9516
 7317TIP3    H221916   7.084   0.887  -0.044  0.0511 -0.4211 -0.5110
 7318TIP3   OH221917   6.732   5.713   2.895  0.1484  0.2513 -0.2066
 7318TIP3    H121918   6.647   5.757   2.904 -0.3205 -0.8334  1.0358
 7318TIP3    H221919   6.724   5.662   2.814 -0.3824  0.1638 -0.1012
 7319TIP3   OH221920   5.463   0.091   2.002 -0.3011 -0.2596 -0.2086
 7319TIP3    H121921   5.494   0.145   2.075 -1.8073 -0.5826  0.7114
 7319TIP3    H221922   5.435   0.154   1.936 -0.5086  0.0656  0.1878
 7320TIP3   OH221923   3.603   3.357   4.638 -0.3681  0.1761 -0.1859
 7320TIP3    H121924   3.548   3.415   4.585 -1.5969 -0.2029  0.6137
 7320TIP3    H221925   3.568   3.365   4.726 -1.2067 -2.4191 -0.1821
 7321TIP3   OH221926   6.775   4.150   0.391  0.0010 -0.1794 -0.4417
 7321TIP3    H121927   6.742   4.237   0.415 -1.7973 -0.4218 -1.7944
 7321TIP3    H221928   6.846   4.133   0.452 -1.0054  1.3449  1.2529
 7322TIP3   OH221929   4.507   0.193   3.475 -0.5829 -0.1048 -0.0795
 7322TIP3    H121930   4.550   0.199   3.560 -0.3758  0.3036 -0.2100
 7322TIP3    H221931   4.456   0.112   3.479 -0.4503 -0.1659  0.3745
 7323TIP3   OH221932   4.593   2.983   4.628 -0.4940  0.2281 -0.0392
 7323TIP3    H121933   4.545   2.909   4.665  0.3643 -0.0137  0.6196
 7323TIP3    H221934   4.634   2.949   4.549  1.1628 -0.4499  1.0776
 7324TIP3   OH221935   5.780   1.220   3.463  0.1364  0.2890  0.2061
 7324TIP3    H121936   5.744   1.139   3.500 -2.8189  1.7766  0.8728
 7324TIP3    H221937   5.759   1.215   3.370 -0.5402  0.5058  0.3422
 7325TIP3   OH221938   2.154   2.217   0.109 -0.2834 -0.3902  0.7812
 7325TIP3    H121939   2.099   2.277   0.160 -0.0424  1.5874 -1.1487
 7325TIP3    H221940   2.242   2.256   0.113  0.7211 -2.6350  2.4730
 7326TIP3   OH221941   5.719   3.680   4.190 -0.4838 -0.0980  0.2374
 7326TIP3    H121942   5.649   3.742   4.169 -0.9428 -0.9924 -0.9875
 7326TIP3    H221943   5.792   3.704   4.133 -0.9044 -1.0742 -0.7518
 7327TIP3   OH221944   1.976   4.921   3.509 -0.2066  0.1268  0.2854
 7327TIP3    H121945   2.022   4.945   3.428 -1.4341  0.9348 -0.1988
 7327TIP3    H221946   2.013   4.979   3.575 -0.3492  0.6012 -0.0466
 7328TIP3   OH221947   4.131   2.147   3.850  0.7843  0.0519  0.5280
 7328TIP3    H121948   4.173   2.166   3.934  1.8619 -0.1046  0.0434
 7328TIP3    H221949   4.187   2.081   3.810  0.8531  0.8326 -0.7321
 7329TIP3   OH221950   6.905   2.980   3.906 -0.0471 -0.2051  0.1802
 7329TIP3    H121951   6.893   3.069   3.874 -1.7279  0.2552  1.9409
 7329TIP3    H221952   6.843   2.928   3.855  0.3911 -0.2532 -0.3138
 7330TIP3   OH221953   4.768   5.193   0.646  0.2682 -0.4068  0.0650
 7330TIP3    H121954   4.712   5.153   0.713 -0.5856  1.0546  0.2660
 7330TIP3    H221955   4.790   5.279   0.682  2.3117 -0.7430 -0.2183
 7331TIP3   OH221956   3.615   2.858   5.355  0.1358 -0.0549 -0.6498
 7331TIP3    H121957   3.567   2.779   5.377 -1.6767  0.6186 -1.9116
 7331TIP3    H221958   3.706   2.830   5.347 -0.2604 -1.7102  0.2501
 7332TIP3   OH221959   0.134   4.472   0.679  0.7663  0.1088 -0.5113
 7332TIP3    H121960   0.206   4.530   0.651  2.1502 -0.9489  0.7033
 7332TIP3    H221961   0.163   4.384   0.654  1.6763 -0.8013  3.1928
 7333TIP3   OH221962   6.998   0.447   0.888 -0.6221 -0.4851 -0.8661
 7333TIP3    H121963   7.064   0.444   0.819  0.1316  0.0093 -0.1743
 7333TIP3    H221964   6.944   0.370   0.872  0.8756 -1.6034 -0.6883
 7334TIP3   OH221965   5.088   4.471   3.801 -0.2654 -0.3984  0.2750
 7334TIP3    H121966   5.107   4.559   3.833  0.1664 -0.2058 -0.4814
 7334TIP3    H221967   5.000   4.452   3.834 -0.1920  0.1400  0.8046
 7335TIP3   OH221968   4.902   4.932   5.006 -0.2210  0.3087 -0.4325
 7335TIP3    H121969   4.909   4.963   4.916  0.7225  1.7203  0.0766
 7335TIP3    H221970   4.946   5.000   5.058  0.3077 -1.0442  0.9737
 7336TIP3   OH221971   6.595   2.147   0.326  0.6264  0.1661  0.2540
 7336TIP3    H121972   6.685   2.180   0.328  1.0004 -0.8288  0.6166
 7336TIP3    H221973   6.552   2.193   0.398  1.1971 -0.2649  0.8943
 7337TIP3   OH221974   6.208   5.494   2.660 -0.3976  0.1995 -0.0823
 7337TIP3    H121975   6.146   5.422   2.648  1.0992 -1.2275  0.2744
 7337TIP3    H221976   6.243   5.511   2.572  0.8213 -1.0489  0.1245
 7338TIP3   OH221977   3.006   5.947   3.950  0.0712 -0.5203  0.2184
 7338TIP3    H121978   3.080   5.887   3.937  0.4964 -0.3303  1.5780
 7338TIP3    H221979   3.037   6.031   3.916  0.4464 -0.4742  0.6561
 7339TIP3   OH221980   0.544   1.251   5.635 -0.1501  0.1848 -0.0831
 7339TIP3    H121981   0.485   1.281   5.705  1.4253 -0.3266  1.5626
 7339TIP3    H221982   0.621   1.307   5.643  0.0242  0.1679 -1.4911
 7340TIP3   OH221983   3.269   1.765   1.086  0.3115  0.1669 -0.4705
 7340TIP3    H121984   3.248   1.714   1.007  1.3900 -1.2731  0.1208
 7340TIP3    H221985   3.336   1.827   1.058 -0.0328  0.3422 -0.9107
 7341TIP3   OH221986   5.513   5.822   5.709 -0.4334  0.3453  0.0807
 7341TIP3    H121987   5.426   5.856   5.731 -0.6949  0.6948 -1.4393
 7341TIP3    H221988   5.573   5.884   5.751 -0.9189  1.4911 -0.8516
 7342TIP3   OH221989   2.147   0.880   3.034 -0.3298  0.2061  0.7106
 7342TIP3    H121990   2.079   0.856   2.971  0.3026  0.8380 -0.2360
 7342TIP3    H221991   2.221   0.823   3.011  0.1548  0.9534  0.3852
 7343TIP3   OH221992   1.087   5.140   0.272 -0.3736 -0.0968  0.6219
 7343TIP3    H121993   1.102   5.235   0.279 -0.1679 -0.2199  2.0438
 7343TIP3    H221994   1.081   5.124   0.178 -1.2012  1.4483  0.3812
 7344TIP3   OH221995  -0.003   6.219   1.867  0.5121 -0.3769 -0.0960
 7344TIP3    H121996   0.081   6.266   1.862  0.7044 -0.5852  0.9147
 7344TIP3    H221997  -0.050   6.246   1.788  2.8010 -2.8252 -2.4899
 7345TIP3   OH221998   5.346   5.001   1.423 -0.0380  0.0297  0.2655
 7345TIP3    H121999   5.313   4.943   1.492  0.2238 -0.6552 -0.1654
 7345TIP3    H222000   5.268   5.034   1.380 -0.2400 -2.1600 -1.2282
 7346TIP3   OH222001   1.320   6.519   4.404  0.4295 -0.1078  0.2610
 7346TIP3    H122002   1.332   6.467   4.483 -0.6992 -1.1586 -0.2204
 7346TIP3    H222003   1.368   6.472   4.336  2.3020  1.3604  0.4841
 7347TIP3   OH222004   4.627   2.472   5.754  0.0928 -0.4307  0.0181
 7347TIP3    H122005   4.608   2.514   5.837 -1.4360 -0.7869 -0.1295
 7347TIP3    H222006   4.560   2.504   5.694  0.6552 -0.8368 -0.8479
 7348TIP3   OH222007   1.436   2.338   5.209  0.0123  0.2874 -0.0497
 7348TIP3    H122008   1.381   2.385   5.272  1.1968  0.9183  0.5599
 7348TIP3    H222009   1.487   2.407   5.166  0.2925 -0.2718 -0.6262
 7349TIP3   OH222010   4.081   1.051   4.370 -0.0642  0.3478 -0.4057
 7349TIP3    H122011   3.998   1.044   4.417 -0.0887  1.0077 -0.3468
 7349TIP3    H222012   4.075   0.984   4.302 -0.4167  0.0250 -0.0686
 7350TIP3   OH222013   3.072   5.509   2.978  0.3213 -0.2499 -0.1493
 7350TIP3    H122014   3.019   5.450   2.924  0.2174  0.8961 -1.3535
 7350TIP3    H222015   3.134   5.548   2.916  0.5354  0.7250  0.6601
 7351TIP3   OH222016   0.681   4.795   3.580  0.4272  0.2385 -0.3599
 7351TIP3    H122017   0.619   4.762   3.645 -0.0144  1.4855 -0.1111
 7351TIP3    H222018   0.764   4.802   3.626  0.0364  1.4561  0.2102
 7352TIP3   OH222019   0.572   4.688   4.920 -0.2447 -0.3650  0.1048
 7352TIP3    H122020   0.517   4.740   4.979  0.8425  0.7776  0.1482
 7352TIP3    H222021   0.612   4.622   4.976 -0.0121  0.0687  0.4538
 7353TIP3   OH222022   4.444   4.637   3.574  0.0894 -0.2172  0.7791
 7353TIP3    H122023   4.408   4.678   3.653 -0.3314  0.6559  0.1511
 7353TIP3    H222024   4.368   4.599   3.530  0.0812  0.6937 -0.0092
 7354TIP3   OH222025   2.871   0.191   4.955 -0.1660 -0.5123  0.1941
 7354TIP3    H122026   2.778   0.203   4.933  0.2133  1.5624 -0.5467
 7354TIP3    H222027   2.892   0.267   5.009  1.2441 -0.6742 -0.1089
 7355TIP3   OH222028   0.292   6.695   5.874 -0.1951  0.0487  0.3089
 7355TIP3    H122029   0.280   6.704   5.780 -0.6068 -2.1805  0.0916
 7355TIP3    H222030   0.386   6.712   5.888  0.3229 -1.6660 -0.8370
 7356TIP3   OH222031   3.423   4.208   0.205  0.1037 -0.2150 -0.1600
 7356TIP3    H122032   3.475   4.287   0.218 -1.1680  0.7085 -0.4386
 7356TIP3    H222033   3.335   4.232   0.237 -0.0398 -1.8785  0.7773
 7357TIP3   OH222034   4.026   3.477   5.818  0.2956  0.0305  0.1441
 7357TIP3    H122035   4.064   3.435   5.741  2.0352  0.6131  0.6549
 7357TIP3    H222036   3.935   3.496   5.793  0.1412 -1.8930 -0.9120
 7358TIP3   OH222037   4.407   6.588   2.716  0.2609 -0.1848  0.7159
 7358TIP3    H122038   4.493   6.627   2.731 -0.4618  1.4299  0.8417
 7358TIP3    H222039   4.376   6.628   2.635 -1.3421  1.0544  1.8840
 7359TIP3   OH222040   3.478   3.095   0.116  0.4864 -0.4672 -0.1426
 7359TIP3    H122041   3.439   3.177   0.148  0.4051  0.2770 -2.0277
 7359TIP3    H222042   3.428   3.073   0.038  1.1200 -1.8248 -0.1975
 7360TIP3   OH222043   5.564   3.132   1.957 -0.3643  0.3472  0.1896
 7360TIP3    H122044   5.523   3.115   1.872 -0.2835  0.2684  0.1667
 7360TIP3    H222045   5.658   3.132   1.939 -0.3535  0.5075  0.2458
 7361TIP3   OH222046   4.280   2.903   3.945 -0.0503  0.4194  0.1698
 7361TIP3    H122047   4.299   2.948   3.863 -1.4622  1.6365  0.4757
 7361TIP3    H222048   4.361   2.858   3.967  0.7400  1.0899 -1.2479
 7362TIP3   OH222049   5.353   5.299   4.476  0.1003 -0.5090  0.3555
 7362TIP3    H122050   5.401   5.229   4.520 -0.3125 -0.8644  0.2398
 7362TIP3    H222051   5.360   5.373   4.537 -0.4902 -1.0042  1.0454
 7363TIP3   OH222052   6.922   5.806   4.132  0.2509 -0.1261  0.4813
 7363TIP3    H122053   6.829   5.793   4.148  0.3663 -0.2447  1.1086
 7363TIP3    H222054   6.935   5.901   4.137 -0.1649  0.0806 -1.6014
 7364TIP3   OH222055   6.411   5.947   2.794 -0.3577  0.1127 -0.1989
 7364TIP3    H122056   6.423   6.030   2.749 -0.6322  0.5680  0.5642
 7364TIP3    H222057   6.433   5.881   2.728  0.2825  0.7925 -0.6814
 7365TIP3   OH222058   1.373   4.184   5.461 -0.4537  0.1297 -0.1508
 7365TIP3    H122059   1.356   4.209   5.371 -1.1611  0.3133  0.0262
 7365TIP3    H222060   1.336   4.255   5.514  1.0410  0.6364  0.2656
 7366TIP3   OH222061   2.145   4.723   1.900  0.4189  0.3629  0.2908
 7366TIP3    H122062   2.050   4.728   1.904  0.2176  0.2651 -2.5995
 7366TIP3    H222063   2.171   4.700   1.990 -2.2278  0.4752  1.1861
 7367TIP3   OH222064   1.572   1.710   4.993  0.1858  0.6770  0.2350
 7367TIP3    H122065   1.499   1.687   4.936 -0.5568 -1.7614  2.0017
 7367TIP3    H222066   1.533   1.764   5.062 -0.6864 -2.5665  2.5381
 7368TIP3   OH222067   1.025   3.066   2.092  0.2533  0.0445 -0.0913
 7368TIP3    H122068   1.095   3.009   2.060 -0.7912 -0.7880 -0.9866
 7368TIP3    H222069   1.069   3.149   2.112  1.5633 -0.5978 -0.1742
 7369TIP3   OH222070   1.389   3.103   1.345 -0.1328 -0.3077 -0.4980
 7369TIP3    H122071   1.378   3.094   1.439 -0.7190  0.0696 -0.5284
 7369TIP3    H222072   1.468   3.156   1.334  1.3619 -2.3585 -0.2636
 7370TIP3   OH222073   6.132   1.030   2.933  0.4159 -0.0607  0.0001
 7370TIP3    H122074   6.075   1.004   2.861 -0.5110  1.0995  0.2849
 7370TIP3    H222075   6.155   0.949   2.977 -0.5737 -0.5897 -0.4487
 7371TIP3   OH222076   6.642   0.377   5.073 -0.5316 -0.3156 -0.1406
 7371TIP3    H122077   6.617   0.285   5.061 -2.4158  0.0177  0.8796
 7371TIP3    H222078   6.568   0.416   5.119  1.1781  1.2038  1.4982
 7372TIP3   OH222079   0.104   0.620   4.111 -0.2291 -0.0173  0.3441
 7372TIP3    H122080   0.044   0.552   4.141 -0.0063  0.3817  1.7849
 7372TIP3    H222081   0.187   0.575   4.097 -0.6132 -0.4125 -0.8413
 7373TIP3   OH222082   5.035   4.671   0.405 -0.2967 -0.0622  0.0747
 7373TIP3    H122083   5.076   4.720   0.333 -0.3742  0.6177  0.4826
 7373TIP3    H222084   4.968   4.730   0.438  0.2352 -0.0666  1.1936
 7374TIP3   OH222085   0.612   2.958   1.369  0.0605  0.2053 -0.0203
 7374TIP3    H122086   0.544   2.894   1.350 -0.5612  0.6837  0.5792
 7374TIP3    H222087   0.568   3.028   1.416  0.9793  0.4845  0.4552
 7375TIP3   OH222088   4.420   1.374   3.282  0.2523 -0.5077 -0.2183
 7375TIP3    H122089   4.344   1.420   3.318  0.9996  0.2163  0.4724
 7375TIP3    H222090   4.386   1.326   3.206 -1.0376 -0.7754  0.4989
 7376TIP3   OH222091   0.678   4.296   0.175 -0.1798 -0.4694 -0.1837
 7376TIP3    H122092   0.636   4.381   0.162 -1.2612 -0.6900  1.4604
 7376TIP3    H222093   0.606   4.233   0.170  0.5560 -1.2685 -1.0178
 7377TIP3   OH222094   5.863   6.107   2.759 -0.2016 -0.2019 -0.5858
 7377TIP3    H122095   5.828   6.190   2.793 -0.2543  0.3697 -1.9721
 7377TIP3    H222096   5.927   6.133   2.693  2.4879 -1.2474  1.4399
 7378TIP3   OH222097   5.900   4.235   3.060  0.1743 -0.4367 -0.0967
 7378TIP3    H122098   5.983   4.220   3.015  1.7427  1.7106  1.8628
 7378TIP3    H222099   5.847   4.283   2.997  2.1618  2.1584  0.0470
 7379TIP3   OH222100   0.179   3.632   0.337  0.7675 -0.7277  0.0220
 7379TIP3    H122101   0.221   3.574   0.274 -1.0765 -1.8651 -0.2108
 7379TIP3    H222102   0.088   3.604   0.339  0.1526  1.1765  1.0565
 7380TIP3   OH222103   1.137   0.122   5.572 -0.7275 -0.1098  0.5093
 7380TIP3    H122104   1.104   0.132   5.483 -1.0013  0.7406  0.7000
 7380TIP3    H222105   1.109   0.202   5.617 -2.1110 -1.2754  1.8386
 7381TIP3   OH222106   3.074   3.430   0.688  0.6067  0.1844 -0.3114
 7381TIP3    H122107   3.046   3.346   0.724 -1.2361  0.4819 -0.9425
 7381TIP3    H222108   2.994   3.467   0.649  0.9421  3.0069  1.4249
 7382TIP3   OH222109   2.734   5.563   2.641  0.1482 -0.2443 -0.0053
 7382TIP3    H122110   2.678   5.640   2.650  0.0933 -0.3640  0.7270
 7382TIP3    H222111   2.673   5.490   2.631  0.1166  0.1016 -4.3389
 7383TIP3   OH222112   4.023   0.123   1.651 -0.2817  0.1283 -0.2596
 7383TIP3    H122113   3.933   0.100   1.674 -0.3849  0.0422 -0.7427
 7383TIP3    H222114   4.076   0.086   1.721 -0.5622 -0.3979 -0.3228
 7384TIP3   OH222115   1.144   2.347   5.572  0.3034 -0.2037 -0.5144
 7384TIP3    H122116   1.168   2.383   5.486 -0.5808 -2.6540 -1.8904
 7384TIP3    H222117   1.227   2.324   5.613  0.6934 -0.0912 -1.2254
 7385TIP3   OH222118   0.615   5.592   1.441  0.8798  0.3510  0.1481
 7385TIP3    H122119   0.646   5.604   1.531 -1.0418  2.4548  0.6210
 7385TIP3    H222120   0.689   5.619   1.387  1.3987  0.9950  1.1397
 7386TIP3   OH222121   5.757   5.220   1.284 -0.6199 -0.6061 -0.2201
 7386TIP3    H122122   5.759   5.311   1.254 -0.9715 -0.2922  0.6823
 7386TIP3    H222123   5.850   5.195   1.291 -0.4509  0.3775  1.5373
 7387TIP3   OH222124   6.438   6.115   2.590  0.5154  0.2896 -0.5932
 7387TIP3    H122125   6.429   6.081   2.501  0.8263 -1.5296  0.0438
 7387TIP3    H222126   6.484   6.198   2.579  0.0742  0.3634 -2.1679
 7388TIP3   OH222127   5.683   6.314   0.488 -0.6926 -0.7025 -0.2739
 7388TIP3    H122128   5.674   6.409   0.477 -1.0551 -0.7785 -0.6618
 7388TIP3    H222129   5.600   6.279   0.457 -0.4324 -1.1714 -0.4422
 7389TIP3   OH222130   5.175   3.693   0.608  0.2921 -0.3698  0.2536
 7389TIP3    H122131   5.231   3.750   0.660  0.0731  0.4970 -0.4393
 7389TIP3    H222132   5.106   3.664   0.668 -1.0276  2.0929  0.0379
 7390TIP3   OH222133   2.873   5.621   2.279  0.1909 -0.2252  0.4349
 7390TIP3    H122134   2.949   5.624   2.220 -0.8502 -0.0398 -0.9421
 7390TIP3    H222135   2.870   5.530   2.308 -0.2747 -0.7495 -1.1805
 7391TIP3   OH222136   3.829   1.482   2.911  0.0717  0.0212 -0.1102
 7391TIP3    H122137   3.856   1.515   2.997  2.1296  0.5353 -0.9020
 7391TIP3    H222138   3.757   1.540   2.885 -0.5796 -0.1321  1.2219
 7392TIP3   OH222139   4.175   0.800   2.863  0.1530 -0.4431 -0.0915
 7392TIP3    H122140   4.085   0.779   2.886  0.3243 -0.1462  0.9396
 7392TIP3    H222141   4.173   0.893   2.841  0.0827 -0.6053 -0.7745
 7393TIP3   OH222142   5.928   0.044   2.121  0.0607  0.1781 -0.0171
 7393TIP3    H122143   6.000   0.088   2.076 -0.5122  0.2853 -0.8648
 7393TIP3    H222144   5.873   0.011   2.050  0.4761 -1.9318  0.5871
 7394TIP3   OH222145   4.889   0.352   4.134 -0.1425  0.3525 -0.2225
 7394TIP3    H122146   4.935   0.433   4.157  0.7375  0.5218 -2.3294
 7394TIP3    H222147   4.797   0.378   4.128  0.2286  1.4702 -1.7587
 7395TIP3   OH222148   6.288   3.602   2.098 -0.1124 -0.1965  0.5496
 7395TIP3    H122149   6.367   3.640   2.058 -0.6927 -0.9523 -1.4794
 7395TIP3    H222150   6.225   3.674   2.099 -0.7214 -0.6118 -1.8608
 7396TIP3   OH222151   5.258   4.555   1.373  0.3445  0.1193 -0.0504
 7396TIP3    H122152   5.309   4.478   1.349  0.5544  0.3680 -0.4119
 7396TIP3    H222153   5.304   4.628   1.332  1.1591  0.6559  1.7391
 7397TIP3   OH222154   0.227   3.260   5.859 -0.0673 -0.4081  0.9674
 7397TIP3    H122155   0.306   3.218   5.825  0.4993  0.7557  0.7687
 7397TIP3    H222156   0.172   3.273   5.782  0.3969  0.5123  0.7727
 7398TIP3   OH222157   1.438   5.701   4.988 -0.1938  0.6094  0.0862
 7398TIP3    H122158   1.450   5.643   5.063 -0.8664  0.0944 -0.1953
 7398TIP3    H222159   1.413   5.785   5.027 -2.3800 -0.1320  0.4065
 7399TIP3   OH222160   6.317   6.158   5.201 -0.1413 -0.1945 -0.4024
 7399TIP3    H122161   6.363   6.082   5.237 -0.6383 -0.5215 -0.4584
 7399TIP3    H222162   6.234   6.160   5.248  0.1709  0.7579  0.1444
 7400TIP3   OH222163   5.440   0.859   3.182 -0.1432  0.2171 -0.2218
 7400TIP3    H122164   5.378   0.826   3.117  0.3468 -1.3362  0.0575
 7400TIP3    H222165   5.526   0.851   3.140  0.2221 -1.1891  0.7033
 7401TIP3   OH222166   5.325   2.749   1.638 -0.3814 -0.6883 -0.3597
 7401TIP3    H122167   5.335   2.654   1.624  0.9666 -0.5164 -0.7290
 7401TIP3    H222168   5.412   2.778   1.667 -0.6265  0.5329 -0.8010
 7402TIP3   OH222169   2.333   4.678   4.714 -0.0128  0.3182 -0.2174
 7402TIP3    H122170   2.326   4.695   4.620 -1.4019  0.1647 -0.1647
 7402TIP3    H222171   2.275   4.743   4.755  0.3645  0.2081  0.5158
 7403TIP3   OH222172   5.972   6.176   3.518 -0.5083  0.3709 -0.5787
 7403TIP3    H122173   6.045   6.137   3.566 -0.5602 -1.1207 -1.6542
 7403TIP3    H222174   6.013   6.232   3.452 -0.3559  0.0576 -0.7506
 7404TIP3   OH222175   4.200   5.221   3.173 -0.0254  0.2912  0.2527
 7404TIP3    H122176   4.117   5.180   3.198  0.2081 -0.8479 -0.7296
 7404TIP3    H222177   4.262   5.189   3.239  0.0955 -0.7641 -0.3459
 7405TIP3   OH222178   5.114   2.177   2.540  0.8091  0.0023 -0.3892
 7405TIP3    H122179   5.165   2.151   2.464 -0.0898 -0.9081 -0.7109
 7405TIP3    H222180   5.030   2.205   2.505 -0.7774 -3.2904  0.3304
 7406TIP3   OH222181   0.328   2.364   5.208 -0.3693 -0.4268 -0.4385
 7406TIP3    H122182   0.287   2.434   5.157 -0.4855  0.4181  0.7681
 7406TIP3    H222183   0.422   2.378   5.197 -0.3909  0.0023 -0.1114
 7407TIP3   OH222184   5.612   4.290   3.222 -0.2338  0.4405 -0.1393
 7407TIP3    H122185   5.541   4.252   3.274 -0.9761  0.9983 -0.7085
 7407TIP3    H222186   5.669   4.217   3.200  1.3194  0.4585  3.2271
 7408TIP3   OH222187   2.266   4.075   4.506 -0.2718 -0.0132  0.6008
 7408TIP3    H122188   2.274   4.170   4.499  0.3489 -0.1526 -1.6606
 7408TIP3    H222189   2.329   4.041   4.441 -0.3557 -1.9700  1.4607
 7409TIP3   OH222190   6.347   1.449   3.052  0.4553 -0.1983 -0.3293
 7409TIP3    H122191   6.399   1.381   3.008  3.3850  1.1328  0.8092
 7409TIP3    H222192   6.322   1.409   3.135  0.2133 -0.6389 -0.6102
 7410TIP3   OH222193   2.239   6.012   2.728 -0.0443 -0.5580  0.3531
 7410TIP3    H122194   2.153   5.982   2.700 -0.0107  0.2927 -0.7314
 7410TIP3    H222195   2.300   5.967   2.670 -0.0127  1.7326 -1.5320
 7411TIP3   OH222196   3.009   4.263   5.647  0.0005  0.7888 -0.2378
 7411TIP3    H122197   3.061   4.343   5.656  1.2608 -0.0961  0.6925
 7411TIP3    H222198   2.919   4.291   5.663  0.0739  2.4472 -2.3432
 7412TIP3   OH222199   4.285   5.466   4.008 -0.4269 -0.0798  0.0605
 7412TIP3    H122200   4.312   5.399   3.946 -1.7675 -1.0453  0.4716
 7412TIP3    H222201   4.252   5.537   3.954  1.9361  0.7253 -0.4154
 7413TIP3   OH222202   1.064   0.514   3.616  0.1093  0.0736 -0.1976
 7413TIP3    H122203   0.992   0.455   3.634 -0.6627  0.6358 -1.3057
 7413TIP3    H222204   1.098   0.485   3.531  1.4922 -0.4543  0.4936
 7414TIP3   OH222205   1.901   0.289   0.991  0.1026 -0.0938  0.3655
 7414TIP3    H122206   1.947   0.373   0.988 -1.2193  0.6245 -1.4880
 7414TIP3    H222207   1.813   0.308   0.959 -0.4170 -2.0831  0.4506
 7415TIP3   OH222208   2.945   3.863   5.736 -0.5112 -0.3661 -0.1742
 7415TIP3    H122209   2.935   3.884   5.643  0.4081  1.2542  0.0699
 7415TIP3    H222210   3.032   3.895   5.759 -1.3908  0.8878  1.6624
 7416TIP3   OH222211   3.978   1.191   0.976  0.1564 -0.4530 -0.1792
 7416TIP3    H122212   3.915   1.202   1.048  0.8348 -2.3999  0.7933
 7416TIP3    H222213   4.045   1.257   0.993  0.3078 -0.8797  1.0354
 7417TIP3   OH222214   2.803   6.551   3.361  0.3983 -0.6732  0.1896
 7417TIP3    H122215   2.772   6.468   3.396 -0.1122 -0.7000 -0.3297
 7417TIP3    H222216   2.883   6.569   3.412 -0.7316 -0.3173  1.9206
 7418TIP3   OH222217   1.270   0.135   4.543 -0.0833 -0.3797  0.2428
 7418TIP3    H122218   1.353   0.088   4.553 -0.1257 -0.3781  0.6347
 7418TIP3    H222219   1.260   0.147   4.449  0.5314 -0.0693  0.2148
 7419TIP3   OH222220   5.535   1.504   4.703 -0.5374  0.8150  0.3395
 7419TIP3    H122221   5.620   1.537   4.730  0.2869 -2.2575  1.9897
 7419TIP3    H222222   5.475   1.528   4.774 -0.5486  1.0779  0.2406
 7420TIP3   OH222223   4.289   0.355   2.280 -0.4042 -0.2088 -0.3906
 7420TIP3    H122224   4.308   0.364   2.373  2.3896 -1.0211 -0.7673
 7420TIP3    H222225   4.280   0.260   2.266  1.5656 -0.3476 -1.2151
 7421TIP3   OH222226   6.348   5.565   1.330  0.0798  0.3292  0.8825
 7421TIP3    H122227   6.420   5.513   1.365  1.9088  0.2780 -2.5643
 7421TIP3    H222228   6.365   5.653   1.363  0.7662  0.0016  1.4462
 7422TIP3   OH222229   6.268   3.250   4.649  0.0482  0.3236  0.2230
 7422TIP3    H122230   6.198   3.314   4.635  0.1305  0.2839 -0.4135
 7422TIP3    H222231   6.337   3.299   4.694 -0.2643  0.4427  0.5713
 7423TIP3   OH222232   5.367   6.402   0.961 -0.2713  0.2306  0.0602
 7423TIP3    H122233   5.327   6.421   1.046 -0.2192 -0.6245  0.2882
 7423TIP3    H222234   5.407   6.316   0.973 -1.7880 -0.7338 -1.3568
 7424TIP3   OH222235   3.119   2.738   2.267  0.2238  0.2674 -0.1721
 7424TIP3    H122236   3.062   2.814   2.261  2.7218  2.2785 -0.0737
 7424TIP3    H222237   3.081   2.675   2.206 -4.2548 -0.2150  2.6542
 7425TIP3   OH222238   6.408   4.289   0.017  0.0331 -0.0307  0.2123
 7425TIP3    H122239   6.361   4.218   0.059  1.0176  0.1812  1.7596
 7425TIP3    H222240   6.341   4.353  -0.006 -0.7948 -1.1820 -0.7085
 7426TIP3   OH222241   5.639   4.252   2.639  0.4390  0.0260  0.0864
 7426TIP3    H122242   5.582   4.314   2.593 -1.1903 -1.5449 -0.1392
 7426TIP3    H222243   5.663   4.187   2.572  0.5757 -0.6112  0.7368
 7427TIP3   OH222244   1.974   1.632   2.837  0.4433  0.0945 -0.1891
 7427TIP3    H122245   1.993   1.538   2.840  0.9041  0.2048  1.1908
 7427TIP3    H222246   1.879   1.637   2.850  0.7338 -0.1247  2.7575
 7428TIP3   OH222247   4.347   0.675   3.928  0.6420  0.1692  0.2640
 7428TIP3    H122248   4.421   0.652   3.985  3.8142  1.5186 -2.9189
 7428TIP3    H222249   4.336   0.769   3.940 -0.1315  0.0959  0.1959
 7429TIP3   OH222250   7.015   2.248   4.884  0.0602  0.1794 -0.0871
 7429TIP3    H122251   6.928   2.218   4.855 -1.1163  2.4477  0.8570
 7429TIP3    H222252   7.037   2.189   4.956 -1.5226  0.5917  0.7947
 7430TIP3   OH222253   0.190   3.672   1.478  0.3273  0.4606  0.2969
 7430TIP3    H122254   0.126   3.641   1.542  1.2757 -0.0594  1.0283
 7430TIP3    H222255   0.187   3.608   1.407 -0.6134  0.9487 -0.1172
 7431TIP3   OH222256   0.683   3.346   5.633  0.0648 -0.6693  0.0367
 7431TIP3    H122257   0.688   3.383   5.545 -0.2846 -1.5074 -0.3406
 7431TIP3    H222258   0.605   3.387   5.671  0.6930  0.3323  0.2642
 7432TIP3   OH222259   1.782   2.731   1.974 -0.6000 -0.1528 -0.5015
 7432TIP3    H122260   1.827   2.717   2.057 -0.4461 -1.1042 -0.7337
 7432TIP3    H222261   1.749   2.644   1.950 -1.5224  0.3048 -0.9273
 7433TIP3   OH222262   6.425   4.740   4.923  0.2214 -0.6394 -0.4589
 7433TIP3    H122263   6.506   4.703   4.889  0.1839 -1.6339  0.4902
 7433TIP3    H222264   6.365   4.739   4.848  1.1210  0.3217 -1.2327
 7434TIP3   OH222265   0.016   3.755   4.696 -0.2619 -0.5789  0.1638
 7434TIP3    H122266   0.004   3.710   4.780  1.2833 -0.3093  0.5641
 7434TIP3    H222267   0.093   3.810   4.710  0.3201 -0.9005 -1.5830
 7435TIP3   OH222268   2.125   5.184   3.061 -0.0166 -0.4226  0.4467
 7435TIP3    H122269   2.084   5.151   2.980  0.6179  0.6185 -0.3194
 7435TIP3    H222270   2.162   5.269   3.036  1.4949 -0.7524  1.4424
 7436TIP3   OH222271   0.530   4.020   1.109  0.2860  0.3169  0.5726
 7436TIP3    H122272   0.542   4.115   1.102 -0.7010  0.3627 -1.1065
 7436TIP3    H222273   0.533   4.002   1.203  1.8963  1.8045  0.8555
 7437TIP3   OH222274   5.228   5.752   3.461 -0.3609 -0.0934  0.1564
 7437TIP3    H122275   5.146   5.732   3.415 -0.0288  0.1101 -0.5327
 7437TIP3    H222276   5.200   5.776   3.549 -0.9305 -1.6341  0.4364
 7438TIP3   OH222277   3.468   1.105   3.199  0.0622 -0.5704 -0.4713
 7438TIP3    H122278   3.428   1.045   3.262  0.4221 -1.0845 -0.7186
 7438TIP3    H222279   3.553   1.065   3.179  0.8304  0.6271  0.2452
 7439TIP3   OH222280   0.545   1.313   1.639  0.9493 -0.2411 -0.4117
 7439TIP3    H122281   0.635   1.346   1.647  0.7971  0.9238 -2.6975
 7439TIP3    H222282   0.494   1.370   1.696  1.5054 -0.1975  0.0501
 7440TIP3   OH222283   4.721   4.637   1.534  0.2113  0.3973  0.2508
 7440TIP3    H122284   4.724   4.561   1.476 -0.3319 -0.5539  1.4507
 7440TIP3    H222285   4.806   4.637   1.578 -0.1028 -0.0064  0.8624
 7441TIP3   OH222286   4.757   5.691   5.431 -0.3990 -0.6342 -0.0526
 7441TIP3    H122287   4.748   5.645   5.514 -0.6948 -1.4293 -0.5115
 7441TIP3    H222288   4.732   5.627   5.365  0.0880 -0.1015 -0.7801
 7442TIP3   OH222289   1.362   0.855   3.582  0.1845 -0.3684 -0.1411
 7442TIP3    H122290   1.408   0.778   3.616  0.9307  0.8450  1.7486
 7442TIP3    H222291   1.277   0.821   3.553  0.8862 -2.0540 -0.3445
 7443TIP3   OH222292   7.056   6.703   4.191 -0.5798 -0.2616 -0.2131
 7443TIP3    H122293   7.118   6.664   4.253  0.4105  0.4281 -0.7529
 7443TIP3    H222294   7.049   6.640   4.120 -1.1794 -0.7359  0.2589
 7444TIP3   OH222295   3.775   4.120   2.550  0.2018  0.5199 -0.1158
 7444TIP3    H122296   3.747   4.138   2.460  0.0184 -1.4642 -0.5165
 7444TIP3    H222297   3.695   4.092   2.594  0.7608 -1.2767 -0.1603
 7445TIP3   OH222298   1.476   5.688   3.476  0.2438  0.1594  0.8220
 7445TIP3    H122299   1.527   5.765   3.502  0.1590  0.3518  0.4150
 7445TIP3    H222300   1.540   5.617   3.472  0.5993  0.5296 -0.2881
 7446TIP3   OH222301   6.991   2.887   3.257  0.1625  0.2076 -0.1424
 7446TIP3    H122302   7.043   2.912   3.334 -0.5175  0.3776  0.2746
 7446TIP3    H222303   7.055   2.879   3.186  0.7695  0.2862  0.3863
 7447TIP3   OH222304   6.501   6.810   5.634  0.1471 -0.3175 -0.4489
 7447TIP3    H122305   6.583   6.819   5.584 -0.6733 -0.6907 -1.9341
 7447TIP3    H222306   6.497   6.717   5.656  0.7126 -0.0803  0.7193
 7448TIP3   OH222307   0.336   3.121   0.101  0.1155 -0.0930  0.2477
 7448TIP3    H122308   0.293   3.040   0.129 -1.0692  0.2968 -0.3752
 7448TIP3    H222309   0.408   3.091   0.045  0.7482 -0.7593  1.3730
 7449TIP3   OH222310   2.409   4.684   1.039 -0.3471  1.0284 -0.6607
 7449TIP3    H122311   2.479   4.673   0.974  1.6336  2.2285  1.1416
 7449TIP3    H222312   2.380   4.595   1.057  1.3147  0.4041 -0.8637
 7450TIP3   OH222313   0.774   4.762   1.879  0.4824 -0.6146 -0.8327
 7450TIP3    H122314   0.789   4.780   1.971 -1.4237  0.5723 -0.6997
 7450TIP3    H222315   0.792   4.845   1.835 -2.9830  0.2343 -0.9098
 7451TIP3   OH222316   2.637   5.965   1.392 -0.6011  0.1089 -0.2331
 7451TIP3    H122317   2.556   5.920   1.415 -1.0625  0.3706 -1.2576
 7451TIP3    H222318   2.707   5.906   1.421 -1.0743  0.6914  2.3324
 7452TIP3   OH222319   2.219   6.192   0.566 -0.6278  0.4588 -0.2090
 7452TIP3    H122320   2.171   6.224   0.490 -1.4451  2.5109  1.1076
 7452TIP3    H222321   2.164   6.123   0.602 -0.9938  0.5623 -0.5651
 7453TIP3   OH222322   4.321   6.676   3.725 -0.2151 -0.0378  0.4090
 7453TIP3    H122323   4.275   6.758   3.709 -0.0485  0.1232  0.7364
 7453TIP3    H222324   4.253   6.613   3.744 -0.4469 -0.3024 -1.1623
 7454TIP3   OH222325   6.612   5.358   4.716  0.7779  0.3296  0.6744
 7454TIP3    H122326   6.561   5.414   4.775 -1.3678 -0.7295 -0.0874
 7454TIP3    H222327   6.624   5.276   4.765  0.1639 -0.0669  0.1694
 7455TIP3   OH222328   6.584   1.096   1.354  0.1241 -0.4332 -0.4594
 7455TIP3    H122329   6.625   1.116   1.438  0.9685 -0.7283 -0.7879
 7455TIP3    H222330   6.640   1.139   1.289 -0.8970  0.3642 -0.8416
 7456TIP3   OH222331   3.281   3.931   1.541  0.3192  0.4601 -0.1585
 7456TIP3    H122332   3.303   3.864   1.476 -1.3125  1.5773 -1.9859
 7456TIP3    H222333   3.194   3.906   1.572 -0.6770  2.0660 -1.4721
 7457TIP3   OH222334   5.871   4.575   3.649 -0.5512  0.3381  0.0054
 7457TIP3    H122335   5.901   4.485   3.645 -0.2702  0.4689 -1.4525
 7457TIP3    H222336   5.806   4.582   3.579 -0.0347  1.4348 -0.3899
 7458TIP3   OH222337   5.822   4.907   5.196 -0.1355 -0.4424 -0.3699
 7458TIP3    H122338   5.880   4.858   5.137  0.9476 -1.7746  1.6785
 7458TIP3    H222339   5.874   4.983   5.223  0.1742 -0.9470  0.4668
 7459TIP3   OH222340   7.054   5.032   5.795  0.0287  0.0819 -0.0943
 7459TIP3    H122341   7.121   5.010   5.730 -0.1993 -0.3594 -0.1874
 7459TIP3    H222342   7.081   4.986   5.874 -0.6761 -0.9141 -0.4087
 7460TIP3   OH222343   6.496   1.162   1.821 -0.6348  0.8197  0.1856
 7460TIP3    H122344   6.404   1.139   1.837 -0.7840 -0.8306 -2.4476
 7460TIP3    H222345   6.502   1.172   1.726  2.0122  0.5057  0.2528
 7461TIP3   OH222346   3.327   5.141   2.141  0.9121  0.2682  0.3221
 7461TIP3    H122347   3.338   5.230   2.174  2.5745  0.1060  0.3000
 7461TIP3    H222348   3.393   5.090   2.188  0.3203 -0.8558 -0.0319
 7462TIP3   OH222349   1.642   5.691   1.735 -0.7002 -0.2130  0.7966
 7462TIP3    H122350   1.563   5.719   1.781  0.4071  0.0847  2.6471
 7462TIP3    H222351   1.695   5.648   1.803  0.3693 -1.1497 -0.5724
 7463TIP3   OH222352   6.741   3.798   0.077 -0.0873  0.5669 -0.5834
 7463TIP3    H122353   6.821   3.811   0.128  0.0803  0.2618 -0.7700
 7463TIP3    H222354   6.770   3.799  -0.014 -0.3052  0.5160 -0.6541
 7464TIP3   OH222355   4.187   0.230   3.547  0.2063 -0.0169 -0.0997
 7464TIP3    H122356   4.231   0.168   3.489  1.0802  1.0940 -0.6688
 7464TIP3    H222357   4.214   0.203   3.635 -0.2291 -1.0384 -0.2708
 7465TIP3   OH222358   2.848   2.424   5.583  0.4237 -0.1631  0.2443
 7465TIP3    H122359   2.796   2.487   5.634  1.6452 -0.1175  1.4660
 7465TIP3    H222360   2.875   2.473   5.505  0.2110  0.3875  0.5119
 7466TIP3   OH222361   4.688   4.352   1.018 -0.3693  0.2709  0.3059
 7466TIP3    H122362   4.699   4.418   0.949  1.4874  0.6645  0.9237
 7466TIP3    H222363   4.760   4.368   1.079 -0.9537 -1.1694  1.4488
 7467TIP3   OH222364   0.918   1.040   1.826 -0.3568 -0.2851 -0.3471
 7467TIP3    H122365   0.831   1.025   1.864 -0.2923  0.7998  0.2574
 7467TIP3    H222366   0.968   0.962   1.849 -0.8310 -0.4002  0.3233
 7468TIP3   OH222367   3.611   0.082   1.309  0.0597 -0.0424 -0.0661
 7468TIP3    H122368   3.530   0.033   1.322 -0.0415 -0.4529 -2.0366
 7468TIP3    H222369   3.675   0.017   1.283  0.9832  0.3226  1.2128
 7469TIP3   OH222370   5.185   0.139   3.484  0.2029 -0.1247  0.1410
 7469TIP3    H122371   5.231   0.094   3.554 -1.7316 -0.9997  0.9272
 7469TIP3    H222372   5.116   0.188   3.529 -2.0311 -1.8726 -1.1595
 7470TIP3   OH222373   5.199   3.738   1.371 -0.3623 -0.0985 -0.1786
 7470TIP3    H122374   5.114   3.731   1.415 -1.1166  0.6644 -1.4684
 7470TIP3    H222375   5.241   3.813   1.413 -0.1599 -0.6799  0.6947
 7471TIP3   OH222376   0.948   5.336   3.927 -0.0505  0.2088  0.1561
 7471TIP3    H122377   0.998   5.411   3.896  0.6539  0.6913  2.3178
 7471TIP3    H222378   0.867   5.375   3.963 -1.8310 -0.5076 -2.7570
 7472TIP3   OH222379   4.117   4.346   5.892 -0.1929 -0.4715  0.1214
 7472TIP3    H122380   4.037   4.332   5.840  0.3527 -0.9653 -0.5984
 7472TIP3    H222381   4.147   4.258   5.914 -0.1105 -0.2724  0.8060
 7473TIP3   OH222382   1.421   4.433   0.066  0.1769 -0.0073  0.2016
 7473TIP3    H122383   1.327   4.417   0.059  0.2632  0.0925 -2.1692
 7473TIP3    H222384   1.429   4.528   0.074  0.0777  0.0014  0.1951
 7474TIP3   OH222385   2.736   0.948   5.684 -0.6461  0.1692  0.0443
 7474TIP3    H122386   2.734   0.882   5.753  0.2617 -1.6547 -1.5636
 7474TIP3    H222387   2.816   0.998   5.701 -0.1936 -0.5508  0.0875
 7475TIP3   OH222388   1.044   0.525   0.816  0.8259 -0.2346 -0.3579
 7475TIP3    H122389   0.954   0.519   0.784  1.1814 -0.8123 -1.2895
 7475TIP3    H222390   1.098   0.510   0.739  1.7222 -2.4001  0.6179
 7476TIP3   OH222391   3.793   1.911   1.360  0.2217 -0.1489 -0.3910
 7476TIP3    H122392   3.832   1.880   1.442 -0.3087 -1.3991 -0.5832
 7476TIP3    H222393   3.800   1.836   1.301  0.5820  0.7363 -1.4948
 7477TIP3   OH222394   0.899   4.402   0.347 -0.1171 -0.1225  0.2251
 7477TIP3    H122395   0.974   4.344   0.355  0.0617 -0.2326 -1.7827
 7477TIP3    H222396   0.830   4.348   0.309  0.2620  1.0727 -2.3481
 7478TIP3   OH222397   4.256   4.875   2.981  0.0654  0.6857 -0.0314
 7478TIP3    H122398   4.220   4.788   2.997 -1.8452  1.5678  0.8066
 7478TIP3    H222399   4.332   4.860   2.925 -0.7592 -1.4330 -0.6838
 7479TIP3   OH222400   6.951   5.133   1.583 -0.0001 -0.1478 -0.2639
 7479TIP3    H122401   6.975   5.040   1.586  1.0393  0.0687 -1.2016
 7479TIP3    H222402   6.952   5.161   1.674  1.5717 -0.6070 -0.1154
 7480TIP3   OH222403   4.496   0.951   2.144  0.2283 -0.6136  0.2731
 7480TIP3    H122404   4.418   0.908   2.180 -0.4573 -0.9864 -1.5129
 7480TIP3    H222405   4.534   0.885   2.086  0.2127  0.5360 -1.0890
 7481TIP3   OH222406   5.189   3.723   5.501 -0.0271 -0.0837  0.0272
 7481TIP3    H122407   5.097   3.717   5.529  0.3151 -1.7074  0.9119
 7481TIP3    H222408   5.227   3.789   5.560 -0.3385 -0.3088  0.4855
 7482TIP3   OH222409   6.471   3.495   4.655 -0.2075 -0.1705 -0.3039
 7482TIP3    H122410   6.551   3.514   4.606 -1.4024  3.6293 -1.1442
 7482TIP3    H222411   6.401   3.501   4.590 -1.5363  1.6319  1.1760
 7483TIP3   OH222412   1.619   3.874   3.565  0.1466  0.7343 -0.3308
 7483TIP3    H122413   1.624   3.784   3.598  2.6865  0.9511  0.0163
 7483TIP3    H222414   1.530   3.881   3.529  0.0343 -2.0381 -0.7777
 7484TIP3   OH222415   5.108   5.966   1.751 -0.3418 -0.2001  0.5179
 7484TIP3    H122416   5.037   5.951   1.814 -0.7668 -2.0648 -0.3221
 7484TIP3    H222417   5.188   5.940   1.798 -0.5570 -0.7410  0.5970
 7485TIP3   OH222418   4.575   4.368   3.415  0.6012  0.7479  0.1719
 7485TIP3    H122419   4.554   4.335   3.502  1.7536 -0.7230 -0.0775
 7485TIP3    H222420   4.586   4.290   3.361 -0.5648  1.6322 -1.4353
 7486TIP3   OH222421   7.000   1.470   1.838 -0.4017 -0.5103  0.4097
 7486TIP3    H122422   6.911   1.487   1.870 -0.4945  0.1956 -0.1718
 7486TIP3    H222423   7.038   1.410   1.902 -1.1903 -0.5725  0.8372
 7487TIP3   OH222424   3.884   2.113   3.341 -0.2833  0.1819 -0.0565
 7487TIP3    H122425   3.956   2.175   3.353  0.3953  0.1097 -2.9944
 7487TIP3    H222426   3.922   2.028   3.363  0.2306  0.2769 -0.5402
 7488TIP3   OH222427   5.519   2.935   2.453  0.1619  0.3515  0.1472
 7488TIP3    H122428   5.599   2.956   2.501 -0.5398  1.0926  1.0218
 7488TIP3    H222429   5.522   2.991   2.376  0.3166  0.6259  0.3507
 7489TIP3   OH222430   6.686   3.480   2.788 -0.1545  0.0186  0.8009
 7489TIP3    H122431   6.616   3.435   2.835  0.2712 -0.0029  1.4245
 7489TIP3    H222432   6.767   3.444   2.825  0.1889  0.7081  0.7350
 7490TIP3   OH222433   1.577   6.121   1.571  0.9340  0.5009  0.3834
 7490TIP3    H122434   1.638   6.084   1.507 -0.2679  0.8252 -0.9929
 7490TIP3    H222435   1.535   6.193   1.525 -0.3253  0.4291  1.3847
 7491TIP3   OH222436   5.158   3.789   3.662  0.3240  0.0788  0.2955
 7491TIP3    H122437   5.078   3.748   3.697  0.1689 -0.2992 -0.4768
 7491TIP3    H222438   5.224   3.773   3.729 -0.1214 -0.0649  0.7114
 7492TIP3   OH222439   6.751   5.416   5.462  0.5788 -0.3947  0.0810
 7492TIP3    H122440   6.670   5.468   5.465  1.9556  2.1696 -2.5174
 7492TIP3    H222441   6.756   5.386   5.372  2.1155 -1.2433  0.4285
 7493TIP3   OH222442   5.926   5.322   1.985 -0.1441  0.0811 -0.1224
 7493TIP3    H122443   5.852   5.268   2.012  0.7688 -0.7705  0.7425
 7493TIP3    H222444   5.969   5.347   2.067  1.5652 -0.9523 -0.6583
 7494TIP3   OH222445   4.468   6.518   0.040  0.0840 -0.6089 -0.2648
 7494TIP3    H122446   4.550   6.531  -0.007 -0.4649  0.8908 -0.8720
 7494TIP3    H222447   4.413   6.468  -0.021 -1.2935  2.8710 -2.2082
 7495TIP3   OH222448   5.641   4.059   2.449  0.9587  0.3585 -0.3145
 7495TIP3    H122449   5.697   3.993   2.490 -0.2231 -1.2349 -1.1766
 7495TIP3    H222450   5.555   4.018   2.444 -0.2190  2.5718  0.5359
 7496TIP3   OH222451   3.463   1.555   0.419 -0.1673 -0.3339  0.2793
 7496TIP3    H122452   3.408   1.618   0.372  1.7275  0.8874 -0.4542
 7496TIP3    H222453   3.536   1.538   0.359  0.9330 -0.8514  1.7033
 7497TIP3   OH222454   1.569   6.375   3.792 -0.4052 -0.0999 -0.7804
 7497TIP3    H122455   1.609   6.426   3.722  0.3441 -1.1800 -1.1682
 7497TIP3    H222456   1.616   6.292   3.791 -0.3224 -0.1264  1.0562
 7498TIP3   OH222457   3.177   4.392   0.575  0.5696  0.0774  0.2601
 7498TIP3    H122458   3.122   4.422   0.647 -0.2465 -0.1264 -0.2625
 7498TIP3    H222459   3.203   4.303   0.599  1.2695  0.4326  0.8401
 7499TIP3   OH222460   5.942   3.066   5.566 -0.1899 -0.1444 -0.0737
 7499TIP3    H122461   5.965   3.051   5.474 -2.3745 -1.3258 -0.4959
 7499TIP3    H222462   5.855   3.105   5.562  0.0861  0.7257  1.5085
 7500TIP3   OH222463   0.152   5.329   1.115  0.3229 -0.3385  0.3706
 7500TIP3    H122464   0.237   5.306   1.153  1.0459  0.6069 -0.6120
 7500TIP3    H222465   0.173   5.363   1.029 -1.0102  0.5115  0.3553
 7501TIP3   OH222466   1.807   1.238   3.245  0.3113 -0.0239 -0.3577
 7501TIP3    H122467   1.807   1.210   3.154 -0.4167  0.0817 -0.3974
 7501TIP3    H222468   1.858   1.171   3.291 -1.1117 -1.2823 -0.5053
 7502TIP3   OH222469   3.145   1.978   2.519 -0.2837 -0.2921 -0.2352
 7502TIP3    H122470   3.166   1.926   2.441 -0.6302 -1.3094  0.3278
 7502TIP3    H222471   3.218   1.962   2.578 -1.1787 -1.5191  0.5950
 7503TIP3   OH222472   1.433   6.743   4.085  0.1402 -0.3121 -0.4724
 7503TIP3    H122473   1.475   6.794   4.154  1.1690 -2.4782  0.6107
 7503TIP3    H222474   1.504   6.719   4.026 -0.2128 -0.9035 -0.6670
 7504TIP3   OH222475   0.909   4.589   4.490 -0.0456  0.3652 -0.4340
 7504TIP3    H122476   0.895   4.664   4.432 -0.2611  0.8924  0.2789
 7504TIP3    H222477   0.883   4.621   4.576 -1.2320 -0.8841 -0.2988
 7505TIP3   OH222478   1.714   5.096   5.404 -0.0440 -0.2405 -0.2909
 7505TIP3    H122479   1.711   5.191   5.416  2.1680 -0.1178 -0.2659
 7505TIP3    H222480   1.788   5.068   5.458  0.3139 -1.7446 -1.5037
 7506TIP3   OH222481   3.204   5.724   3.579  0.8303 -0.3058 -0.1425
 7506TIP3    H122482   3.143   5.675   3.524  0.0958  1.2648 -0.8004
 7506TIP3    H222483   3.267   5.763   3.518  1.4691 -0.5110  0.3694
 7507TIP3   OH222484   4.709   1.844   2.873 -0.0257 -0.1438  0.0255
 7507TIP3    H122485   4.697   1.872   2.964 -1.6073  2.1807 -0.8020
 7507TIP3    H222486   4.627   1.800   2.851 -0.9462  1.9485 -1.0658
 7508TIP3   OH222487   3.311   3.722   1.359 -0.2891 -0.5990 -0.3860
 7508TIP3    H122488   3.312   3.752   1.269  0.2451 -3.0508 -1.2654
 7508TIP3    H222489   3.403   3.700   1.378 -0.3016  0.3722  0.9621
 7509TIP3   OH222490   1.618   6.633   3.113 -0.3957  0.7758  0.5411
 7509TIP3    H122491   1.589   6.723   3.098  0.9101  0.7981 -2.7240
 7509TIP3    H222492   1.712   6.636   3.097 -0.2239 -1.0643  1.0359
 7510TIP3   OH222493   4.444   5.764   4.999  0.1952 -0.1325 -0.6329
 7510TIP3    H122494   4.501   5.716   5.058 -0.3484  1.9690  1.8147
 7510TIP3    H222495   4.359   5.765   5.043 -0.4349  0.9228 -1.7869
 7511TIP3   OH222496   7.058   4.539   3.948 -0.0236 -0.1343  0.2551
 7511TIP3    H122497   7.095   4.595   3.880  1.0862  0.1874  1.0905
 7511TIP3    H222498   7.041   4.599   4.021 -1.7707 -0.3617  0.0839
 7512TIP3   OH222499   1.046   1.091   1.278 -0.9361  0.2850 -0.0709
 7512TIP3    H122500   0.998   1.147   1.217 -3.8179 -1.2016  0.6723
 7512TIP3    H222501   1.018   1.002   1.257  1.2070 -0.6450  0.7359
 7513TIP3   OH222502   4.536   4.789   0.736  0.0883 -0.5535  0.4140
 7513TIP3    H122503   4.464   4.751   0.786 -1.6760  0.1233 -1.4815
 7513TIP3    H222504   4.495   4.858   0.684  2.1242 -0.1513 -0.7554
 7514TIP3   OH222505   0.985   1.471   5.129  1.1514  0.1949  0.2642
 7514TIP3    H122506   1.026   1.407   5.188  0.3599  0.3252  0.9637
 7514TIP3    H222507   0.985   1.553   5.178 -0.5997  0.0410  0.5759
 7515TIP3   OH222508   1.319   3.885   2.574  0.7019 -0.4009 -0.5362
 7515TIP3    H122509   1.324   3.836   2.655  0.3805  0.9241  0.3152
 7515TIP3    H222510   1.246   3.845   2.527 -1.0750  0.6820  1.1627
 7516TIP3   OH222511   3.861   5.802   3.468  0.1465 -0.6635  0.2965
 7516TIP3    H122512   3.804   5.879   3.469 -2.0855 -2.2400  0.3331
 7516TIP3    H222513   3.922   5.817   3.541  0.5276  1.5452 -0.3881
 7517TIP3   OH222514   4.637   0.616   3.205 -0.0338 -0.2967 -0.1634
 7517TIP3    H122515   4.623   0.545   3.267 -1.7486 -0.0835 -0.2698
 7517TIP3    H222516   4.550   0.648   3.185  0.6710  1.4619 -0.5799
 7518TIP3   OH222517   6.104   1.714   0.085  0.0479 -0.7833 -0.6056
 7518TIP3    H122518   6.198   1.716   0.068  0.4356 -0.7460  1.3800
 7518TIP3    H222519   6.075   1.803   0.067  0.4672 -0.6757 -0.7670
 7519TIP3   OH222520   4.016   5.400   0.480 -0.1970 -0.0662  0.6311
 7519TIP3    H122521   3.924   5.424   0.469  0.0083  0.3865 -0.1795
 7519TIP3    H222522   4.063   5.483   0.475  0.4535 -0.4909 -1.3300
 7520TIP3   OH222523   4.634   3.826   3.360 -0.1119 -0.0220  0.2332
 7520TIP3    H122524   4.662   3.785   3.442 -0.6869  0.0267  0.4584
 7520TIP3    H222525   4.657   3.762   3.292 -1.7501 -1.1214  0.6576
 7521TIP3   OH222526   0.523   3.571   0.620 -0.0330 -0.3002 -0.0139
 7521TIP3    H122527   0.495   3.572   0.711  0.0715  0.9189  0.0300
 7521TIP3    H222528   0.619   3.572   0.625  0.0151 -1.8937 -0.1572
 7522TIP3   OH222529   0.731   2.550   0.567  0.4033 -0.1774  0.2065
 7522TIP3    H122530   0.758   2.571   0.656  0.5296 -1.3669  0.4648
 7522TIP3    H222531   0.710   2.457   0.570 -1.9139  0.2597 -0.4260
 7523TIP3   OH222532   3.239   0.193   5.797  0.3505 -0.2855 -0.1146
 7523TIP3    H122533   3.246   0.105   5.759  0.0431 -0.9158  1.2291
 7523TIP3    H222534   3.325   0.209   5.836  0.9440  0.7073 -1.7233
 7524TIP3   OH222535   5.672   4.715   3.781  0.9128 -0.3663  0.2918
 7524TIP3    H122536   5.614   4.744   3.711  2.0304  0.5358 -0.3054
 7524TIP3    H222537   5.742   4.668   3.735  1.7203  0.3296  0.7917
 7525TIP3   OH222538   1.510   1.659   2.528  0.5553  0.1153  0.0484
 7525TIP3    H122539   1.501   1.633   2.436 -1.2883 -0.8399  0.4364
 7525TIP3    H222540   1.602   1.644   2.548  1.0651  0.6267 -1.7142
 7526TIP3   OH222541   2.781   0.271   4.397 -0.1049  0.3119 -0.0057
 7526TIP3    H122542   2.856   0.274   4.457  0.7099  1.1487 -1.0334
 7526TIP3    H222543   2.810   0.320   4.320 -0.8916 -1.2644 -1.3648
 7527TIP3   OH222544   2.375   4.026   1.229  0.2371 -0.0828  0.4930
 7527TIP3    H122545   2.374   4.005   1.135  2.2225 -0.0756  0.4280
 7527TIP3    H222546   2.343   4.116   1.234  1.7561  0.5627 -0.4271
 7528TIP3   OH222547   7.022   1.049   5.178 -0.5793  0.5130  0.1582
 7528TIP3    H122548   6.951   0.987   5.161  1.0032 -1.3186 -0.1467
 7528TIP3    H222549   6.979   1.134   5.184 -2.9602 -0.6932  1.4262
 7529TIP3   OH222550   2.958   1.624   2.961  0.1373  0.4764  0.3292
 7529TIP3    H122551   2.897   1.625   2.887 -2.0707 -2.5117  1.8837
 7529TIP3    H222552   2.984   1.715   2.972  0.4259  1.1184 -3.8946
 7530TIP3   OH222553   0.689   5.038   5.680 -0.0157  0.1804 -0.0590
 7530TIP3    H122554   0.680   5.076   5.593 -1.4576  2.4719  1.0030
 7530TIP3    H222555   0.599   5.017   5.707  0.6379 -3.4513 -0.2709
 7531TIP3   OH222556   5.443   0.324   1.815 -0.0010  0.0557  0.3189
 7531TIP3    H122557   5.485   0.408   1.830 -1.3587  0.7800  0.2234
 7531TIP3    H222558   5.470   0.299   1.727  0.6489  0.2227  0.4614
 7532TIP3   OH222559   5.245   4.508   0.094  0.1216  0.5346  0.2899
 7532TIP3    H122560   5.275   4.479   0.007  0.3019 -0.0429  0.5350
 7532TIP3    H222561   5.284   4.444   0.154 -2.0748 -0.6222  0.5861
 7533TIP3   OH222562   5.088   6.626   5.013  0.3338 -0.1754 -0.0152
 7533TIP3    H122563   5.151   6.556   4.998 -0.5625 -1.3718  1.5328
 7533TIP3    H222564   5.016   6.606   4.953  0.1866 -0.4276  0.2477
 7534TIP3   OH222565   5.033   1.324   0.563  0.1100  0.2527  0.3426
 7534TIP3    H122566   4.981   1.261   0.514  1.2936  1.2971 -2.4474
 7534TIP3    H222567   4.969   1.379   0.607 -1.0504 -0.3593 -0.5337
 7535TIP3   OH222568   5.765   3.316   2.278  0.1394 -1.0175 -0.7549
 7535TIP3    H122569   5.737   3.249   2.340  0.4734 -1.2145 -0.8167
 7535TIP3    H222570   5.825   3.271   2.219  0.1554 -0.7284 -0.9617
 7536TIP3   OH222571   4.471   0.217   0.772  0.7559 -0.3012 -0.0832
 7536TIP3    H122572   4.386   0.205   0.814  0.4309 -1.4189 -1.0112
 7536TIP3    H222573   4.513   0.286   0.823  0.2747 -1.3892  1.9039
 7537TIP3   OH222574   1.757   2.916   1.245  0.2684  0.3928 -0.4583
 7537TIP3    H122575   1.748   2.938   1.152  1.8743  0.3494 -0.6535
 7537TIP3    H222576   1.849   2.892   1.255 -0.6649 -3.4804  0.3536
 7538TIP3   OH222577   2.674   2.028   3.338  0.3371 -0.2710 -0.3298
 7538TIP3    H122578   2.687   1.936   3.317  1.1295  0.1352 -1.7221
 7538TIP3    H222579   2.739   2.047   3.406  1.1147 -0.4009 -1.0352
 7539TIP3   OH222580   2.992   4.826   2.763  0.5127  0.2137 -0.2824
 7539TIP3    H122581   3.034   4.900   2.806  2.0238  0.3070 -1.8246
 7539TIP3    H222582   3.040   4.814   2.681 -1.6710 -0.4902 -1.5724
 7540TIP3   OH222583   4.780   1.576   1.297  0.3382  0.3174 -0.2175
 7540TIP3    H122584   4.802   1.628   1.374  0.4351  1.3192 -0.9028
 7540TIP3    H222585   4.864   1.565   1.252  0.2444 -0.0758 -0.2998
 7541TIP3   OH222586   4.151   1.808   5.351 -0.0229  0.2812 -0.3376
 7541TIP3    H122587   4.142   1.772   5.263 -0.3581  0.2295 -0.2836
 7541TIP3    H222588   4.062   1.807   5.387 -0.2265  2.0811 -0.6904
 7542TIP3   OH222589   0.556   4.525   4.014 -0.2843  0.5311 -0.5581
 7542TIP3    H122590   0.498   4.592   3.977 -1.2308 -0.1726 -0.3650
 7542TIP3    H222591   0.515   4.442   3.991  0.8352 -0.0054 -0.7221
 7543TIP3   OH222592   3.265   6.239   1.052 -0.1972  0.2210 -0.2507
 7543TIP3    H122593   3.176   6.256   1.085  0.8455  1.1242  2.3946
 7543TIP3    H222594   3.286   6.317   1.001 -1.3299 -0.5495 -1.9684
 7544TIP3   OH222595   3.168   2.970   4.406  0.0816  0.5719  0.1014
 7544TIP3    H122596   3.142   2.903   4.469  0.0799  1.8833  1.5502
 7544TIP3    H222597   3.093   2.978   4.347  0.5599 -1.5331 -0.8911
 7545TIP3   OH222598   1.060   5.761   3.454 -0.1192  0.3410 -0.7915
 7545TIP3    H122599   1.083   5.683   3.504  0.7414  1.0766 -0.0107
 7545TIP3    H222600   1.004   5.728   3.383 -3.3626 -0.4592  1.9091
 7546TIP3   OH222601   0.602   3.575   1.409  0.1106 -0.2334 -0.3008
 7546TIP3    H122602   0.625   3.498   1.357 -1.7302 -0.3042 -1.1267
 7546TIP3    H222603   0.572   3.639   1.343 -0.2297  0.4677  0.5182
 7547TIP3   OH222604   6.496   6.313   4.061  0.4581  0.1584  0.0689
 7547TIP3    H122605   6.531   6.224   4.063  1.5931  0.5887  1.4869
 7547TIP3    H222606   6.430   6.314   4.130  0.3921  0.3978  0.0025
 7548TIP3   OH222607   4.057   1.205   0.623  0.6271 -0.0439  0.4038
 7548TIP3    H122608   4.021   1.172   0.705 -0.7528  0.7309  0.1396
 7548TIP3    H222609   4.134   1.256   0.649 -0.0905  0.6177  1.2766
 7549TIP3   OH222610   4.011   0.290   2.812  0.5255 -0.1047 -0.3914
 7549TIP3    H122611   4.099   0.325   2.802  1.1922 -0.8654  2.2268
 7549TIP3    H222612   4.021   0.195   2.808 -0.6677 -0.2328 -2.9657
 7550TIP3   OH222613   3.555   1.957   2.561  0.2885  0.1288 -0.2738
 7550TIP3    H122614   3.504   2.008   2.623 -0.2313  1.2478 -1.5573
 7550TIP3    H222615   3.500   1.952   2.483  1.4612 -0.0263 -1.1262
 7551TIP3   OH222616   2.983   2.578   4.858  0.0680  0.4407  0.1649
 7551TIP3    H122617   3.069   2.536   4.858  0.1396  0.5875  0.1114
 7551TIP3    H222618   2.998   2.663   4.899  0.6354  1.9016 -2.8065
 7552TIP3   OH222619   2.083   0.287   3.895 -0.3802 -0.1624 -0.3664
 7552TIP3    H122620   1.999   0.288   3.850 -1.1931  0.1853  1.1128
 7552TIP3    H222621   2.062   0.267   3.986  0.9807  1.3407  0.3264
 7553TIP3   OH222622   0.273   0.118   3.450  0.4148 -0.4207 -0.2500
 7553TIP3    H122623   0.284   0.054   3.520 -0.1412 -1.5268 -1.1494
 7553TIP3    H222624   0.181   0.112   3.425  0.2801  0.9235 -0.1941
 7554TIP3   OH222625   6.170   5.588   2.254 -0.2945 -0.0129 -0.5464
 7554TIP3    H122626   6.109   5.636   2.310  0.0995  1.8157 -1.6190
 7554TIP3    H222627   6.130   5.501   2.245 -0.3687 -0.4065  2.5158
 7555TIP3   OH222628   1.533   4.034   2.495  0.2210 -0.0597  0.1948
 7555TIP3    H122629   1.462   3.981   2.533  0.2891 -0.6782 -0.5184
 7555TIP3    H222630   1.559   4.092   2.566 -2.2982  1.5649 -0.0849
 7556TIP3   OH222631   4.706   3.650   1.797 -0.2865 -0.1636 -0.2737
 7556TIP3    H122632   4.673   3.738   1.780 -1.1015 -0.3731  0.1696
 7556TIP3    H222633   4.801   3.662   1.811 -0.4627  0.7160  0.2950
 7557TIP3   OH222634   6.630   1.296   0.519 -0.5432 -0.0668 -0.0336
 7557TIP3    H122635   6.657   1.385   0.496 -0.0766 -0.0685  0.4896
 7557TIP3    H222636   6.676   1.240   0.456  3.1332 -0.3125  2.5908
 7558TIP3   OH222637   4.502   1.975   3.366 -0.2415 -0.0728 -0.0115
 7558TIP3    H122638   4.502   2.066   3.396 -0.6166  0.4983 -1.6765
 7558TIP3    H222639   4.410   1.950   3.367 -0.4378  0.4185 -1.9282
 7559TIP3   OH222640   6.405   1.788   0.962  0.0280  0.6177  0.0209
 7559TIP3    H122641   6.364   1.830   1.037 -0.1833 -0.1113  0.3173
 7559TIP3    H222642   6.390   1.694   0.975 -1.2931  0.5456 -1.6598
 7560TIP3   OH222643   4.758   3.780   4.302  0.1801  0.0281  0.1650
 7560TIP3    H122644   4.699   3.837   4.253  0.2864 -1.3376 -1.6393
 7560TIP3    H222645   4.708   3.755   4.380 -0.6844  0.7995 -0.1163
 7561TIP3   OH222646   0.848   1.649   4.147  0.8381 -0.7849 -0.0761
 7561TIP3    H122647   0.753   1.637   4.145  1.0355 -2.7523 -2.1635
 7561TIP3    H222648   0.876   1.597   4.223  0.1929  1.0209  1.4744
 7562TIP3   OH222649   3.108   2.231   2.090 -0.4682  0.8676  0.1745
 7562TIP3    H122650   3.120   2.268   2.177  0.4476  0.3266  0.2975
 7562TIP3    H222651   3.112   2.307   2.031 -2.4190  1.4060  0.6607
 7563TIP3   OH222652   5.237   1.790   2.883 -0.0503  0.2567  0.0568
 7563TIP3    H122653   5.146   1.789   2.915 -0.1921 -1.8761 -0.2633
 7563TIP3    H222654   5.290   1.780   2.962 -0.3686 -3.9246 -0.0161
 7564TIP3   OH222655   1.990   0.820   1.135 -0.2027  0.2800  0.2415
 7564TIP3    H122656   2.048   0.808   1.060 -1.5305  1.7406 -1.0824
 7564TIP3    H222657   2.016   0.905   1.172  1.3870 -1.0356  2.3824
 7565TIP3   OH222658   4.860   4.949   4.724  0.4397 -0.1166 -0.0475
 7565TIP3    H122659   4.875   4.995   4.642  0.5158 -1.9547 -1.1091
 7565TIP3    H222660   4.770   4.918   4.719  0.9738 -1.7401 -0.2565
 7566TIP3   OH222661   1.363   5.487   5.734  0.2147 -0.5366  0.7405
 7566TIP3    H122662   1.439   5.483   5.792 -0.6272 -1.6645  1.8052
 7566TIP3    H222663   1.290   5.458   5.788 -0.5747 -1.7817 -0.9251
 7567TIP3   OH222664   2.104   4.144   2.257 -0.2773  0.3003  0.5918
 7567TIP3    H122665   2.105   4.188   2.172  1.1517  0.5387  0.6979
 7567TIP3    H222666   2.022   4.172   2.298 -0.3334  1.2868 -0.1527
 7568TIP3   OH222667   4.085   5.781   2.528 -0.0152  0.0316 -0.3114
 7568TIP3    H122668   4.147   5.800   2.457  1.8272 -2.6122  0.4419
 7568TIP3    H222669   4.044   5.698   2.504  0.4106 -0.7624  1.5047
 7569TIP3   OH222670   1.750   6.705   0.974 -0.1341 -0.1300  0.0551
 7569TIP3    H122671   1.661   6.690   1.007  0.1409 -1.2227  0.3360
 7569TIP3    H222672   1.737   6.733   0.883 -0.7900  0.2332  0.2575
 7570TIP3   OH222673   2.403   4.163   2.423 -0.0327 -0.0964 -0.5076
 7570TIP3    H122674   2.496   4.166   2.443 -0.1402  0.6954 -0.1168
 7570TIP3    H222675   2.388   4.237   2.365 -0.8624  1.3126  1.4065
 7571TIP3   OH222676   6.945   2.128   3.002 -0.0936 -0.1135 -0.0591
 7571TIP3    H122677   6.975   2.157   2.915  0.0900  1.0414  0.3735
 7571TIP3    H222678   6.863   2.082   2.985  0.0687 -0.1198 -0.8728
 7572TIP3   OH222679   5.627   1.774   0.091  0.3571 -0.0685  0.0925
 7572TIP3    H122680   5.675   1.842   0.139  0.7581 -0.2251 -0.0811
 7572TIP3    H222681   5.655   1.692   0.132  0.2986 -0.1661 -0.0628
 7573TIP3   OH222682   2.170   3.999   4.822  0.1492 -0.3246  0.0940
 7573TIP3    H122683   2.163   3.961   4.734 -0.1957 -1.7109  0.6957
 7573TIP3    H222684   2.110   4.073   4.821 -0.0690 -0.5036 -0.7510
 7574TIP3   OH222685   2.519   1.603   4.651  0.0197 -0.9114 -0.5260
 7574TIP3    H122686   2.540   1.558   4.733 -0.4396  0.0951  0.1691
 7574TIP3    H222687   2.602   1.641   4.622 -0.0813 -0.1437  0.1853
 7575TIP3   OH222688   0.356   2.131   2.174 -0.1349  0.0474  0.3136
 7575TIP3    H122689   0.452   2.135   2.171 -0.0945 -1.0829 -0.6184
 7575TIP3    H222690   0.335   2.107   2.264  0.4095  1.0539  0.7260
 7576TIP3   OH222691   1.324   6.680   5.653 -0.6221  0.1127 -0.5174
 7576TIP3    H122692   1.289   6.612   5.710  2.6312 -0.8221  0.5344
 7576TIP3    H222693   1.313   6.646   5.564 -2.5779  0.0487 -0.2977
 7577TIP3   OH222694   1.173   5.281   3.268 -0.0598 -0.0845  0.1128
 7577TIP3    H122695   1.241   5.312   3.208 -0.7916  0.4344 -0.4652
 7577TIP3    H222696   1.121   5.220   3.216  0.5551 -1.3009  0.8523
 7578TIP3   OH222697   3.037   3.603   4.094  0.2003  0.1621 -0.1001
 7578TIP3    H122698   3.011   3.677   4.150 -1.4954 -0.8072  0.4851
 7578TIP3    H222699   2.954   3.567   4.063  1.0191 -1.1312 -0.8640
 7579TIP3   OH222700   2.640   2.387   5.833  0.0399  0.0262  0.2360
 7579TIP3    H122701   2.561   2.348   5.869 -0.2036  0.9759  0.7449
 7579TIP3    H222702   2.701   2.313   5.824 -0.6138 -0.5677  0.6140
 7580TIP3   OH222703   1.660   1.824   1.097 -0.6242 -0.2771 -0.4446
 7580TIP3    H122704   1.726   1.886   1.065  0.5442 -0.9154  0.6371
 7580TIP3    H222705   1.691   1.739   1.068 -0.5144 -0.6747  0.7865
 7581TIP3   OH222706   0.256   6.432   0.452  0.0198  0.4941 -0.4545
 7581TIP3    H122707   0.197   6.476   0.391 -2.0777 -1.1348  0.2900
 7581TIP3    H222708   0.281   6.351   0.408  0.0976  0.2354  0.0542
 7582TIP3   OH222709   6.701   2.196   2.274  0.0774  0.5490 -0.2395
 7582TIP3    H122710   6.758   2.265   2.308 -0.0577  1.0472 -1.0010
 7582TIP3    H222711   6.687   2.220   2.182 -1.5930  0.6147 -0.0009
 7583TIP3   OH222712   4.067   3.148   5.041  0.3033  0.0277 -0.3339
 7583TIP3    H122713   4.162   3.156   5.040  0.5797 -2.0860 -2.7187
 7583TIP3    H222714   4.037   3.210   4.974  0.2423 -0.9046 -1.1898
 7584TIP3   OH222715   4.495   3.620   3.071 -0.2647  0.1901  0.0424
 7584TIP3    H122716   4.433   3.584   3.008 -2.0633 -1.8464  2.7021
 7584TIP3    H222717   4.479   3.715   3.069 -0.7501  0.1093 -1.9914
 7585TIP3   OH222718   6.384   4.773   4.421  0.0358  0.1006  0.3244
 7585TIP3    H122719   6.470   4.759   4.380 -0.8408  0.3699 -1.7070
 7585TIP3    H222720   6.395   4.856   4.469  0.7496  0.4726 -0.4424
 7586TIP3   OH222721   1.303   1.941   5.518 -0.7308 -0.1168  0.4620
 7586TIP3    H122722   1.350   2.006   5.466 -0.4482 -0.8569 -0.2313
 7586TIP3    H222723   1.273   1.876   5.454 -0.4994 -0.9776  1.2004
 7587TIP3   OH222724   1.124   4.739   5.610  0.0036 -0.3029  0.1792
 7587TIP3    H122725   1.086   4.665   5.656 -1.5125  0.9781  1.1129
 7587TIP3    H222726   1.215   4.713   5.592 -0.5481 -2.4374  0.2447
 7588TIP3   OH222727   1.774   5.538   1.921 -0.2726  1.3167  0.4899
 7588TIP3    H122728   1.779   5.615   1.977  0.6577 -0.3326  2.8131
 7588TIP3    H222729   1.705   5.484   1.960  1.3818 -0.5358  1.0298
 7589TIP3   OH222730   4.491   0.153   2.746  0.0397  0.6684  0.4195
 7589TIP3    H122731   4.528   0.240   2.758  1.9069 -0.1573  1.0509
 7589TIP3    H222732   4.536   0.099   2.811 -2.1700 -0.4812  1.0963
 7590TIP3   OH222733   0.390   0.872   5.807 -0.2386  0.1697  0.6156
 7590TIP3    H122734   0.427   0.856   5.894  0.2656  1.1343  0.5981
 7590TIP3    H222735   0.348   0.958   5.815 -3.0304 -1.1389  0.7992
 7591TIP3   OH222736   4.975   3.925   1.922  0.4708  0.3135 -0.4137
 7591TIP3    H122737   4.890   3.918   1.966  1.0579  0.7905  0.8309
 7591TIP3    H222738   4.976   4.014   1.887  0.3188  0.1817 -0.7672
 7592TIP3   OH222739   1.106   2.229   0.842  0.7890  0.3476  0.8558
 7592TIP3    H122740   1.154   2.150   0.864  1.1105  0.0481 -0.7765
 7592TIP3    H222741   1.173   2.291   0.813  0.2865 -0.1066 -1.5328
 7593TIP3   OH222742   0.470   1.697   3.205 -0.0313 -0.3641  0.4777
 7593TIP3    H122743   0.459   1.637   3.279  0.0809 -0.6494  0.2695
 7593TIP3    H222744   0.442   1.646   3.129 -0.3606  0.0020  0.3521
 7594TIP3   OH222745   5.282   4.254   4.759  1.0252  1.0392 -0.1255
 7594TIP3    H122746   5.340   4.321   4.722  0.1657  1.9458  0.1154
 7594TIP3    H222747   5.328   4.172   4.746  0.4436  1.1349 -4.0746
 7595TIP3   OH222748   4.818   5.320   5.134 -0.1169  0.0932 -0.0550
 7595TIP3    H122749   4.820   5.249   5.198 -0.5972 -0.4390 -0.6197
 7595TIP3    H222750   4.907   5.322   5.098  0.3020  0.7262  0.9595
 7596TIP3   OH222751   2.393   6.528   0.122 -0.3612 -0.6425  0.2040
 7596TIP3    H122752   2.431   6.615   0.112 -1.4024 -0.0775  0.8779
 7596TIP3    H222753   2.468   6.469   0.127  0.3460  0.0328 -1.5988
 7597TIP3   OH222754   1.948   3.058   0.034  0.1211  0.3999  0.4560
 7597TIP3    H122755   1.895   2.991   0.077  0.5403  0.6815  1.4261
 7597TIP3    H222756   1.885   3.124   0.005 -0.3728 -0.6654 -1.0542
 7598TIP3   OH222757   3.523   4.815   1.337  0.5390  0.1425  0.0641
 7598TIP3    H122758   3.483   4.902   1.330 -0.2040 -0.2419 -0.6562
 7598TIP3    H222759   3.461   4.764   1.388  0.1188 -0.4386 -0.9906
 7599TIP3   OH222760   0.299   4.279   5.259  0.0500 -0.6226 -0.1506
 7599TIP3    H122761   0.371   4.323   5.306 -1.1902  1.6833 -0.2322
 7599TIP3    H222762   0.222   4.334   5.278 -1.1770 -1.6098 -2.0524
 7600TIP3   OH222763   6.014   0.963   1.008 -0.3091  0.7922  0.2061
 7600TIP3    H122764   5.991   1.024   1.078 -0.3548  1.9160 -0.7563
 7600TIP3    H222765   5.935   0.957   0.955 -1.2553 -2.3019  1.7712
 7601TIP3   OH222766   4.297   6.648   4.086  0.3979  0.0765 -0.3137
 7601TIP3    H122767   4.202   6.657   4.076  0.4598  1.7464  0.3004
 7601TIP3    H222768   4.333   6.674   4.001  0.3383  0.4749 -0.2197
 7602TIP3   OH222769   1.029   0.130   1.501 -0.4334  0.3973  0.1782
 7602TIP3    H122770   1.124   0.129   1.505 -0.4664 -0.1971  1.0761
 7602TIP3    H222771   1.002   0.053   1.552 -1.3625 -0.0644 -0.9746
 7603TIP3   OH222772   6.437   5.351   2.112 -0.6589 -0.2519 -0.2827
 7603TIP3    H122773   6.503   5.404   2.065 -1.7137  0.6727 -0.7722
 7603TIP3    H222774   6.386   5.310   2.042 -0.0668 -1.6853  0.0955
 7604TIP3   OH222775   3.870   0.207   2.570 -0.2548  0.2740  0.1095
 7604TIP3    H122776   3.859   0.265   2.494 -0.5910  1.1670  0.8218
 7604TIP3    H222777   3.929   0.255   2.629  3.5474 -2.2000 -1.3439
 7605TIP3   OH222778   4.978   3.977   4.235 -0.3414  0.0877  0.2268
 7605TIP3    H122779   4.904   3.916   4.246  1.8394 -2.8586 -0.2114
 7605TIP3    H222780   5.006   3.998   4.324 -0.4514 -0.4548  0.3932
 7606TIP3   OH222781   2.737   3.633   4.414 -0.2045 -0.0126 -0.2356
 7606TIP3    H122782   2.663   3.579   4.444 -0.5722  0.6851  0.1425
 7606TIP3    H222783   2.709   3.667   4.329 -0.3874  0.3682 -0.0268
 7607TIP3   OH222784   3.740   6.003   0.016  0.0711  0.1012 -0.7115
 7607TIP3    H122785   3.662   6.030  -0.033 -3.4440  0.4773  4.2512
 7607TIP3    H222786   3.794   6.082   0.020 -2.7566  2.1807  1.1350
 7608TIP3   OH222787   1.601   5.893   5.374 -0.0016 -0.0191  0.0253
 7608TIP3    H122788   1.513   5.858   5.364 -0.2843 -0.7742  3.6908
 7608TIP3    H222789   1.588   5.988   5.385 -0.4506 -0.1772  0.9780
 7609TIP3   OH222790   3.388   6.376   4.401 -0.6799  0.1718  0.3298
 7609TIP3    H122791   3.409   6.389   4.494  0.0535 -0.9905  0.3537
 7609TIP3    H222792   3.465   6.332   4.365 -0.4664  1.6257 -1.1222
 7610TIP3   OH222793   4.354   4.328   0.559 -0.6833  0.2490 -0.3430
 7610TIP3    H122794   4.380   4.409   0.515 -1.0253 -0.6371 -2.2532
 7610TIP3    H222795   4.331   4.268   0.488  0.3391 -1.8226  0.9754
 7611TIP3   OH222796   6.156   3.221   0.777  0.0991 -0.4371 -0.4673
 7611TIP3    H122797   6.075   3.264   0.749  0.3411 -0.1890 -0.8006
 7611TIP3    H222798   6.176   3.261   0.861  0.5260  0.3968 -0.9487
 7612TIP3   OH222799   1.730   1.977   3.412 -0.3367 -0.2311  0.0877
 7612TIP3    H122800   1.665   1.953   3.478 -1.6555  0.1262 -1.0485
 7612TIP3    H222801   1.747   2.070   3.429  1.2398 -0.7207  1.4879
 7613TIP3   OH222802   3.766   6.034   2.319  0.2929 -0.0355 -0.0721
 7613TIP3    H122803   3.707   6.105   2.295 -1.2107 -1.2756 -0.2183
 7613TIP3    H222804   3.834   6.035   2.251 -1.0452 -0.2449 -1.4723
 7614TIP3   OH222805   4.976   0.932   0.855 -0.5991 -0.3283 -0.7690
 7614TIP3    H122806   5.031   0.998   0.897 -1.1288  0.0101 -0.6054
 7614TIP3    H222807   5.013   0.922   0.767  1.5794 -2.2357  0.2250
 7615TIP3   OH222808   3.116   2.593   5.215  0.3038 -0.2977 -0.6548
 7615TIP3    H122809   3.200   2.548   5.221  0.3765 -0.0070  1.0777
 7615TIP3    H222810   3.121   2.663   5.280 -0.2720  1.4907 -2.4512
 7616TIP3   OH222811   2.811   2.944   2.864  0.4451 -0.6078  0.0679
 7616TIP3    H122812   2.843   2.854   2.870  0.5077 -0.5399  0.7394
 7616TIP3    H222813   2.888   2.999   2.877  0.1337 -0.4462  1.3509
 7617TIP3   OH222814   5.895   5.466   4.427  0.4690 -0.1349  0.3121
 7617TIP3    H122815   5.953   5.515   4.485  1.3600 -1.3685  0.5058
 7617TIP3    H222816   5.934   5.379   4.421  0.5039 -0.0349 -2.2685
 7618TIP3   OH222817   1.203   1.184   2.127  0.2620  0.0980  0.0246
 7618TIP3    H122818   1.144   1.257   2.107 -0.0878 -0.3916 -0.7752
 7618TIP3    H222819   1.146   1.107   2.130  0.4323 -0.0029  2.0615
 7619TIP3   OH222820   6.366   6.763   2.605 -0.2548  0.0607 -0.5770
 7619TIP3    H122821   6.309   6.813   2.664  2.6897  1.2450  1.5005
 7619TIP3    H222822   6.348   6.671   2.628 -1.4274  0.3691 -0.1443
 7620TIP3   OH222823   3.216   1.554   2.259  0.3614  0.2763 -0.2419
 7620TIP3    H122824   3.155   1.487   2.290 -0.7100  1.6091  0.6541
 7620TIP3    H222825   3.272   1.572   2.335  1.6200 -0.6472 -0.9353
 7621TIP3   OH222826   1.983   5.722   5.020  0.9968 -0.5721 -0.0278
 7621TIP3    H122827   1.959   5.701   4.930 -1.3065  1.2862  0.0477
 7621TIP3    H222828   1.900   5.717   5.069  2.2990 -2.3184  2.2096
 7622TIP3   OH222829   3.044   3.646   4.616  0.1259 -0.1286  0.1796
 7622TIP3    H122830   3.138   3.659   4.603  0.5504 -2.9394 -0.3076
 7622TIP3    H222831   3.036   3.619   4.707  0.1134 -1.8319 -0.2940
 7623TIP3   OH222832   3.025   0.462   2.497 -0.1513 -0.5102  0.1557
 7623TIP3    H122833   3.038   0.538   2.440 -0.9872 -0.5476 -0.0857
 7623TIP3    H222834   3.099   0.405   2.477 -0.2020 -0.3316 -0.5752
 7624TIP3   OH222835   6.720   5.183   5.000  0.3370  0.3341 -0.1742
 7624TIP3    H122836   6.699   5.091   4.985  0.7744  0.1028  0.5988
 7624TIP3    H222837   6.788   5.203   4.936  1.2162 -0.2622  0.5623
 7625TIP3   OH222838   4.903   5.536   0.048  0.0340 -1.1983 -0.5485
 7625TIP3    H122839   4.865   5.476  -0.016  0.4574 -0.4379 -1.5250
 7625TIP3    H222840   4.864   5.508   0.131  1.0137 -3.5256 -0.7751
 7626TIP3   OH222841   2.418   2.171   1.664 -0.1492  0.4593 -0.1319
 7626TIP3    H122842   2.481   2.105   1.693  0.2027  0.8399 -0.0406
 7626TIP3    H222843   2.336   2.144   1.705 -0.6393 -1.4513 -2.1472
 7627TIP3   OH222844   4.166   1.018   3.249 -0.3952 -0.2072  0.1480
 7627TIP3    H122845   4.215   1.054   3.175 -1.5428 -1.8568 -1.5276
 7627TIP3    H222846   4.230   0.968   3.298 -0.0106 -0.9059 -1.0204
 7628TIP3   OH222847   4.782   5.496   2.101 -0.8029 -0.1327  0.4760
 7628TIP3    H122848   4.721   5.532   2.036 -2.1722  0.3445  1.9603
 7628TIP3    H222849   4.855   5.558   2.103 -1.5132  0.7120  0.5321
 7629TIP3   OH222850   4.631   1.816   3.547 -0.0198  0.4952 -0.0035
 7629TIP3    H122851   4.706   1.865   3.580  0.3640  0.0494 -0.2074
 7629TIP3    H222852   4.604   1.862   3.468 -0.7205  1.3604  0.7165
 7630TIP3   OH222853   0.049   1.907   1.672  0.2661 -0.0654  0.6011
 7630TIP3    H122854   0.022   1.815   1.680 -1.7273  0.4867  0.7885
 7630TIP3    H222855   0.115   1.906   1.603  0.1878 -1.6054  0.4962
 7631TIP3   OH222856   4.912   4.891   0.490  0.2065  0.1092  0.1469
 7631TIP3    H122857   4.985   4.951   0.508  0.8664 -0.0339 -1.7582
 7631TIP3    H222858   4.842   4.949   0.459  0.3192  0.0594 -0.2139
 7632TIP3   OH222859   3.574   1.341   5.769  0.4904  0.0128 -0.3079
 7632TIP3    H122860   3.641   1.290   5.723  0.2488 -0.4384 -0.1611
 7632TIP3    H222861   3.508   1.277   5.793  0.7101  0.2077  0.8677
 7633TIP3   OH222862   6.737   0.788   1.960 -0.1911  0.6366  0.6201
 7633TIP3    H122863   6.804   0.753   1.901 -2.2027 -1.0260 -0.8001
 7633TIP3    H222864   6.763   0.757   2.047 -0.2768 -1.9902 -0.2003
 7634TIP3   OH222865   5.446   0.817   0.439 -0.5977 -0.2081  0.3426
 7634TIP3    H122866   5.452   0.852   0.350 -3.1024  0.1388  0.2355
 7634TIP3    H222867   5.405   0.731   0.427 -3.0615  0.7507  1.2318
 7635TIP3   OH222868   0.419   0.672   0.762  0.5435  1.0211 -0.6032
 7635TIP3    H122869   0.463   0.603   0.714 -0.7236 -0.4222  0.2269
 7635TIP3    H222870   0.333   0.635   0.785 -0.5734  3.2180 -0.9809
 7636TIP3   OH222871   4.284   1.424   3.711  0.3301  0.1236 -0.5030
 7636TIP3    H122872   4.258   1.338   3.744 -1.4510  0.0698 -1.8882
 7636TIP3    H222873   4.253   1.485   3.778  0.4559 -0.2251 -0.1198
 7637TIP3   OH222874   5.444   2.699   3.589 -0.1697 -0.3995  0.0055
 7637TIP3    H122875   5.389   2.654   3.524 -0.8185 -0.1474  0.3700
 7637TIP3    H222876   5.472   2.629   3.648  0.5374 -0.6539 -0.6175
 7638TIP3   OH222877   4.950   3.305   2.751  0.7033 -0.4527 -0.1497
 7638TIP3    H122878   4.926   3.321   2.660  0.2246  0.7047  0.1651
 7638TIP3    H222879   4.978   3.390   2.784 -0.2919 -0.5926  1.1288
 7639TIP3   OH222880   0.455   4.761   1.371 -0.6437 -0.4424 -0.0974
 7639TIP3    H122881   0.467   4.855   1.360  1.4820 -0.4057  1.7850
 7639TIP3    H222882   0.366   4.751   1.404 -0.6148  1.0035  0.4780
 7640TIP3   OH222883   6.348   4.418   4.851  0.0343  0.1410 -0.3796
 7640TIP3    H122884   6.367   4.339   4.802 -0.8082  1.0113 -2.1977
 7640TIP3    H222885   6.355   4.489   4.787 -1.6415  1.2738  0.6119
 7641TIP3   OH222886   3.280   5.069   4.913  0.1062  0.2485  0.3432
 7641TIP3    H122887   3.364   5.033   4.941 -0.0573 -0.7209 -0.3650
 7641TIP3    H222888   3.285   5.069   4.817 -0.3796  0.9785  0.3092
 7642TIP3   OH222889   3.915   5.104   3.557 -0.0075 -0.0544 -0.3755
 7642TIP3    H122890   3.879   5.099   3.646  2.4374 -0.4007  0.6820
 7642TIP3    H222891   3.940   5.196   3.548  0.1242 -0.1078 -0.5412
 7643TIP3   OH222892   2.395   1.228   1.537 -0.2544  0.0024  0.3850
 7643TIP3    H122893   2.446   1.309   1.549  1.2187 -0.6488 -1.0792
 7643TIP3    H222894   2.458   1.165   1.504 -1.8324 -1.1449 -0.5637
 7644TIP3   OH222895   6.053   5.061   4.804 -0.4672 -0.0597 -0.5850
 7644TIP3    H122896   5.975   5.006   4.817  0.9634 -2.0026  0.4349
 7644TIP3    H222897   6.028   5.147   4.838 -1.6160 -1.1376  1.5292
 7645TIP3   OH222898   4.714   5.091   0.400 -0.4265  0.1122 -0.3854
 7645TIP3    H122899   4.623   5.115   0.382 -0.7158  0.2393  1.1386
 7645TIP3    H222900   4.737   5.140   0.479  1.3043  0.8575 -1.3037
 7646TIP3   OH222901   3.486   0.854   5.702  0.1845 -0.2897 -0.5760
 7646TIP3    H122902   3.503   0.948   5.691 -0.6500  0.1488  1.5086
 7646TIP3    H222903   3.543   0.828   5.775  0.9715 -1.6195 -1.6048
 7647TIP3   OH222904   4.672   6.754   5.800 -0.7231 -0.1197 -0.0247
 7647TIP3    H122905   4.639   6.664   5.800 -0.4783 -0.2314 -1.2582
 7647TIP3    H222906   4.767   6.744   5.786 -0.4824  0.2868  1.1985
 7648TIP3   OH222907   3.502   3.399   4.005 -0.0075 -0.6525 -0.3504
 7648TIP3    H122908   3.544   3.368   4.086 -0.3218 -0.6637 -0.1911
 7648TIP3    H222909   3.409   3.399   4.025 -0.0713 -0.4492 -0.6444
 7649TIP3   OH222910   3.922   5.125   3.267  0.4360  0.3423 -0.2517
 7649TIP3    H122911   3.972   5.045   3.284 -0.0917 -0.1195 -0.7972
 7649TIP3    H222912   3.881   5.146   3.351 -1.9920 -1.8045 -0.7558
 7650TIP3   OH222913   0.360   1.911   1.972  0.5505  0.3729 -0.2943
 7650TIP3    H122914   0.266   1.912   1.991  0.3836 -0.1689 -1.0564
 7650TIP3    H222915   0.401   1.937   2.055 -0.2369 -0.1358  0.2743
 7651TIP3   OH222916   6.508   3.233   5.578 -0.2747  0.4637 -0.4054
 7651TIP3    H122917   6.551   3.161   5.623  0.9396  0.0156 -2.1727
 7651TIP3    H222918   6.435   3.193   5.531 -0.0947  0.5196 -0.7348
 7652TIP3   OH222919   4.513   4.626   5.713 -0.8685  0.0882  0.0695
 7652TIP3    H122920   4.593   4.621   5.661 -0.6711 -2.2675  0.4609
 7652TIP3    H222921   4.449   4.574   5.664 -1.4089 -0.1011  0.9415
 7653TIP3   OH222922   5.082   1.194   3.447 -0.3802 -0.3301  0.2946
 7653TIP3    H122923   5.144   1.221   3.380 -0.9875  0.5497  0.0729
 7653TIP3    H222924   5.136   1.156   3.517  0.3229 -0.3954 -0.2747
 7654TIP3   OH222925   6.450   2.451   3.255 -0.2423  0.4732  0.2236
 7654TIP3    H122926   6.535   2.480   3.289  0.4820 -0.9104 -0.3236
 7654TIP3    H222927   6.390   2.459   3.329  0.6435  0.3107  0.9759
 7655TIP3   OH222928   2.745   4.394   3.631  0.0499 -0.8264 -0.3436
 7655TIP3    H122929   2.677   4.340   3.672  0.0687  0.5177  1.5844
 7655TIP3    H222930   2.793   4.432   3.705  1.6221 -0.1382 -1.6546
 7656TIP3   OH222931   2.211   1.678   4.194  0.1661  0.4607  0.0654
 7656TIP3    H122932   2.285   1.649   4.246 -0.4802 -0.5849  0.4457
 7656TIP3    H222933   2.215   1.625   4.114 -0.2707  0.2695  0.1685
 7657TIP3   OH222934   6.089   4.963   0.674 -0.2414 -0.3512 -0.1171
 7657TIP3    H122935   6.181   4.962   0.648 -0.1342  0.6077  0.1869
 7657TIP3    H222936   6.089   4.930   0.764 -0.0121  0.8872  0.3626
 7658TIP3   OH222937   1.005   4.945   4.495  0.0755 -0.0800 -0.0389
 7658TIP3    H122938   0.989   4.965   4.587  1.0780  0.8458 -0.0454
 7658TIP3    H222939   0.931   4.984   4.448 -1.0440 -1.5431  0.4429
 7659TIP3   OH222940   2.837   3.077   1.251 -0.1022  0.5316 -0.2086
 7659TIP3    H122941   2.903   3.064   1.184  1.6196  1.2156  1.2606
 7659TIP3    H222942   2.831   2.992   1.295 -0.3694  0.4085 -0.4807
 7660TIP3   OH222943   2.859   0.967   4.630 -0.2171 -0.1859  0.3473
 7660TIP3    H122944   2.859   0.964   4.726 -2.8673  0.0287  0.4329
 7660TIP3    H222945   2.930   1.027   4.608  1.1977 -1.1067  2.0864
 7661TIP3   OH222946   1.031   2.951   3.579  0.0179  0.8208  0.1578
 7661TIP3    H122947   0.988   2.929   3.662  1.1432  0.6638  0.7272
 7661TIP3    H222948   1.032   2.868   3.530 -0.5503  0.8870  0.0349
 7662TIP3   OH222949   5.030   1.475   4.823  0.6340 -0.5236  0.0524
 7662TIP3    H122950   5.105   1.477   4.882  0.4107 -0.1593  0.3277
 7662TIP3    H222951   5.069   1.480   4.735  0.9870 -1.5504  0.1438
 7663TIP3   OH222952   5.179   4.848   0.915 -0.7232 -0.2641  0.6255
 7663TIP3    H122953   5.226   4.931   0.929 -0.0259  0.1249 -2.9283
 7663TIP3    H222954   5.249   4.784   0.902 -1.0498 -0.2252 -1.9710
 7664TIP3   OH222955   2.305   3.589   3.169  0.0542  0.2326  0.1578
 7664TIP3    H122956   2.290   3.505   3.126 -1.7423  0.9625 -0.7303
 7664TIP3    H222957   2.232   3.598   3.230  0.4534  0.9753  0.5384
 7665TIP3   OH222958   3.859   5.535   0.259 -0.1314 -0.0259  0.2807
 7665TIP3    H122959   3.797   5.576   0.198  1.4357 -0.5397 -1.7415
 7665TIP3    H222960   3.804   5.483   0.317 -1.7073  0.7413 -0.4557
 7666TIP3   OH222961   1.599   3.996   5.397 -0.0658 -0.1005  0.3223
 7666TIP3    H122962   1.656   3.962   5.466 -0.0563  0.3451  0.5343
 7666TIP3    H222963   1.639   3.964   5.316  0.7718  0.6175  0.4361
 7667TIP3   OH222964   2.482   0.103   2.232 -0.4183 -0.1785  0.0577
 7667TIP3    H122965   2.422   0.055   2.175  0.2181  1.2751 -1.9479
 7667TIP3    H222966   2.432   0.180   2.259 -1.0511 -1.3112  2.3530
 7668TIP3   OH222967   2.517   3.295   0.510  0.7590 -0.2274 -0.4374
 7668TIP3    H122968   2.539   3.385   0.485  1.1896 -0.0888  0.4164
 7668TIP3    H222969   2.463   3.263   0.437 -1.8538  1.6626  0.4736
 7669TIP3   OH222970   6.183   4.505   0.334 -0.1612 -0.3904  0.7546
 7669TIP3    H122971   6.252   4.503   0.267  0.0763  1.4534  0.9003
 7669TIP3    H222972   6.207   4.436   0.396  0.3159 -1.2592 -0.3559
 7670TIP3   OH222973   3.063   0.068   0.154  0.6862 -0.2899  0.5000
 7670TIP3    H122974   3.055  -0.010   0.208  1.0012  0.3042  1.4243
 7670TIP3    H222975   3.155   0.094   0.163  0.9751 -0.6564 -1.0066
 7671TIP3   OH222976   6.698   2.375   0.911  0.3427  0.3309 -0.4307
 7671TIP3    H122977   6.790   2.369   0.885  0.3854 -0.6647 -0.1212
 7671TIP3    H222978   6.678   2.288   0.946 -0.2944  0.9816  0.9012
 7672TIP3   OH222979   2.470   1.667   1.276  0.0658  0.0234 -0.0923
 7672TIP3    H122980   2.419   1.726   1.330  1.1764  0.8169  0.1360
 7672TIP3    H222981   2.547   1.646   1.329  1.0795  0.6530 -1.2655
 7673TIP3   OH222982   4.544   0.567   0.174 -0.3564 -0.8953 -0.0579
 7673TIP3    H122983   4.529   0.649   0.127  0.6722 -1.1879 -0.9259
 7673TIP3    H222984   4.609   0.589   0.240 -0.9635 -0.7476  0.5000
 7674TIP3   OH222985   6.972   0.867   2.284 -0.1391  1.2419 -0.5339
 7674TIP3    H122986   6.920   0.797   2.247  0.7193  0.2331  0.1207
 7674TIP3    H222987   6.920   0.899   2.358 -0.1931  0.7889 -0.3761
 7675TIP3   OH222988   4.536   3.785   0.127 -0.0436 -0.0268 -0.0456
 7675TIP3    H122989   4.573   3.834   0.201  1.5255  0.0410 -0.8446
 7675TIP3    H222990   4.606   3.781   0.063 -1.8127  1.2347 -2.2137
 7676TIP3   OH222991   5.849   2.597   2.048 -0.3324 -0.0954 -0.1448
 7676TIP3    H122992   5.772   2.634   2.091 -0.7724  1.2304 -1.9126
 7676TIP3    H222993   5.814   2.532   1.988  0.2184 -1.5165  1.0240
 7677TIP3   OH222994   0.322   0.949   0.803 -0.2634  0.0134 -0.0012
 7677TIP3    H122995   0.339   0.887   0.732  0.1828 -1.5996  1.4319
 7677TIP3    H222996   0.374   0.916   0.877 -0.8318  1.5198  1.1410
 7678TIP3   OH222997   1.021   1.302   1.811  0.2476  0.2543  0.6147
 7678TIP3    H122998   0.987   1.213   1.822  1.9825 -0.1560  4.0532
 7678TIP3    H222999   1.009   1.343   1.898  1.3575  2.6950 -0.2906
 7679TIP3   OH223000   6.111   3.072   5.764 -0.4315  0.0384  0.2984
 7679TIP3    H123001   6.047   3.050   5.697 -0.9268 -1.0386  1.0865
 7679TIP3    H223002   6.188   3.020   5.742 -0.8606 -0.9057  0.9703
 7680TIP3   OH223003   2.456   1.672   3.791 -0.2795  0.0081 -0.0657
 7680TIP3    H123004   2.396   1.602   3.816 -2.1800 -0.2261 -4.3489
 7680TIP3    H223005   2.400   1.750   3.783  0.1950  0.1770 -2.5430
 7681TIP3   OH223006   4.491   0.393   4.987 -0.0844 -0.1179 -0.3562
 7681TIP3    H123007   4.550   0.336   4.937 -0.8845  0.2407 -1.7540
 7681TIP3    H223008   4.416   0.338   5.008  0.0144 -0.1189  0.0051
 7682TIP3   OH223009   6.547   3.603   4.913 -0.5035  0.2057  0.1355
 7682TIP3    H123010   6.641   3.597   4.894 -0.5522  2.0261 -0.9137
 7682TIP3    H223011   6.504   3.567   4.836 -0.6779 -0.5608  0.5859
 7683TIP3   OH223012   2.084   0.289   0.464 -0.0490 -0.2532 -0.1679
 7683TIP3    H123013   2.154   0.263   0.523 -0.4668 -0.0930  0.4081
 7683TIP3    H223014   2.004   0.257   0.506 -0.2801 -1.0519 -1.1549
 7684TIP3   OH223015   6.331   2.628   0.509 -0.1230  0.4615 -0.3751
 7684TIP3    H123016   6.402   2.683   0.543  0.7939 -0.7764 -0.2473
 7684TIP3    H223017   6.347   2.624   0.415 -0.7177  1.1297 -0.5154
 7685TIP3   OH223018   4.049   6.452   5.432  0.5155  0.2789 -0.0713
 7685TIP3    H123019   4.121   6.432   5.371 -0.1635  0.2546 -0.8794
 7685TIP3    H223020   4.078   6.414   5.515  0.2116 -2.3074 -1.0312
 7686TIP3   OH223021   1.826   0.216   3.067 -0.0777  0.4900 -0.3903
 7686TIP3    H123022   1.788   0.242   2.983 -0.7084 -1.4549 -0.7649
 7686TIP3    H223023   1.779   0.136   3.091 -0.4894  1.4195  2.2392
 7687TIP3   OH223024   2.345   2.358   3.788 -0.1797 -0.3844  0.4932
 7687TIP3    H123025   2.411   2.426   3.784  0.6695 -1.2066 -3.1700
 7687TIP3    H223026   2.262   2.405   3.798  0.6722  0.8183  2.3560
 7688TIP3   OH223027   4.953   1.055   1.446  0.0136  0.1259  0.3197
 7688TIP3    H123028   4.887   0.997   1.408  0.9333 -0.0063 -1.1510
 7688TIP3    H223029   5.026   0.997   1.469  1.1485  0.7155 -1.6368
 7689TIP3   OH223030   6.369   3.673   5.190  0.1279 -0.3708 -0.3547
 7689TIP3    H123031   6.439   3.725   5.151  0.7184 -0.6142  0.3469
 7689TIP3    H223032   6.359   3.597   5.132 -0.6858  0.4677 -1.3401
 7690TIP3   OH223033   2.413   6.239   3.903  0.0838 -0.0616  0.3890
 7690TIP3    H123034   2.492   6.283   3.935 -0.8216  0.5547  1.8712
 7690TIP3    H223035   2.445   6.158   3.864  1.4477  0.1626  0.9786
 7691TIP3   OH223036   0.506   4.494   4.566 -0.4216 -0.0138  0.2731
 7691TIP3    H123037   0.489   4.531   4.479 -1.1881 -1.3466 -0.1801
 7691TIP3    H223038   0.600   4.476   4.567  0.0404  2.1976  0.6375
 7692TIP3   OH223039   1.746   1.808   0.606 -0.5389 -0.2316 -0.7354
 7692TIP3    H123040   1.827   1.837   0.649 -0.3691 -1.3862 -0.2370
 7692TIP3    H223041   1.756   1.837   0.515 -0.3970  1.2485 -0.2754
 7693TIP3   OH223042   4.771   5.244   5.685 -0.3235  0.3084 -0.0204
 7693TIP3    H123043   4.790   5.151   5.674  2.1919  0.6009  1.2356
 7693TIP3    H223044   4.712   5.248   5.761 -1.0699 -0.2661 -0.5522
 7694TIP3   OH223045   2.040   0.972   2.223  0.0671  0.5169  0.1019
 7694TIP3    H123046   2.129   1.008   2.226  0.0989  1.0995 -3.8182
 7694TIP3    H223047   2.051   0.881   2.252  2.1114  0.3724 -0.9125
 7695TIP3   OH223048   5.052   1.383   2.144 -0.5309  0.2584  0.4291
 7695TIP3    H123049   5.091   1.371   2.230  0.1023  1.0137  0.2587
 7695TIP3    H223050   5.039   1.477   2.137  1.9160  0.5616 -1.3342
 7696TIP3   OH223051   6.845   2.600   0.469 -0.1699  0.2110 -0.0821
 7696TIP3    H123052   6.803   2.560   0.392 -0.8818  0.8744 -0.0478
 7696TIP3    H223053   6.780   2.592   0.538 -0.4285  1.6388 -0.1404
 7697TIP3   OH223054   2.474   4.631   5.158  0.3185  0.5814  0.4600
 7697TIP3    H123055   2.529   4.638   5.079  1.6447  0.3343  1.3275
 7697TIP3    H223056   2.476   4.538   5.180 -2.5585  0.0898 -0.8856
 7698TIP3   OH223057   7.054   6.373   4.668 -0.3086 -0.2634 -0.2830
 7698TIP3    H123058   7.058   6.317   4.746 -1.7126 -1.9647 -1.3629
 7698TIP3    H223059   6.960   6.386   4.654 -0.2411 -2.0841 -3.0806
 7699TIP3   OH223060   6.515   6.170   0.828  0.4134  0.4620  0.7426
 7699TIP3    H123061   6.494   6.080   0.807 -1.6442  0.5045  2.3699
 7699TIP3    H223062   6.606   6.167   0.858  0.0397 -1.2495  1.7921
 7700TIP3   OH223063   4.334   4.525   1.456  0.5714 -0.5126  0.2574
 7700TIP3    H123064   4.365   4.435   1.447 -0.3292 -0.8234  0.1629
 7700TIP3    H223065   4.239   4.517   1.460  0.3346  0.5871 -1.8527
 7701TIP3   OH223066   6.678   1.628   4.462 -0.3682 -0.1977 -0.5266
 7701TIP3    H123067   6.721   1.631   4.548 -0.2743  2.4875 -0.5640
 7701TIP3    H223068   6.739   1.580   4.406  1.3926  1.2133  0.0717
 7702TIP3   OH223069   0.256   3.946   2.683  0.0679 -0.6881 -0.5205
 7702TIP3    H123070   0.252   4.003   2.760  1.6815 -0.7705 -0.3412
 7702TIP3    H223071   0.324   3.882   2.704 -0.1611 -1.3144 -1.6235
 7703TIP3   OH223072   4.029   6.654   3.676  0.3970  0.5468  0.4485
 7703TIP3    H123073   3.936   6.667   3.696  0.6211  1.3066  1.0196
 7703TIP3    H223074   4.075   6.718   3.730  1.0458  2.5628 -2.2588
 7704TIP3   OH223075   4.743   2.124   0.337  0.2715 -0.0061 -0.5783
 7704TIP3    H123076   4.665   2.070   0.329 -1.2656  1.7347  1.4193
 7704TIP3    H223077   4.762   2.125   0.431  1.5153  1.1770 -0.8048
 7705TIP3   OH223078   7.057   3.431   3.784 -0.5086 -0.4430  0.0472
 7705TIP3    H123079   7.098   3.505   3.740  1.6001 -1.2672  0.5122
 7705TIP3    H223080   7.036   3.465   3.872 -1.4822  0.1605 -0.3908
 7706TIP3   OH223081   5.927   6.661   5.645  0.4876 -0.2644  0.0588
 7706TIP3    H123082   5.925   6.753   5.620  0.7031 -0.7747 -2.0164
 7706TIP3    H223083   5.835   6.633   5.641  0.3685 -0.0706  1.0921
 7707TIP3   OH223084   3.378   4.827   1.020 -0.9984 -0.2544 -0.0601
 7707TIP3    H123085   3.418   4.755   1.070 -1.2602 -1.5465 -1.6190
 7707TIP3    H223086   3.442   4.898   1.025  0.0996 -1.2246  0.0415
 7708TIP3   OH223087   3.100   4.743   1.155  0.2435 -0.4419  0.4334
 7708TIP3    H123088   3.178   4.690   1.137 -1.4865 -2.4993 -1.5016
 7708TIP3    H223089   3.108   4.818   1.096  0.0980 -1.4000 -0.8566
 7709TIP3   OH223090   2.722   2.177   2.438 -0.4317  0.0033 -0.4253
 7709TIP3    H123091   2.818   2.180   2.445 -0.3612  0.1199 -1.3563
 7709TIP3    H223092   2.695   2.117   2.507  0.3074  0.0717 -0.0686
 7710TIP3   OH223093   6.590   5.772   2.011  0.0177 -0.0679 -0.1609
 7710TIP3    H123094   6.577   5.803   1.921 -0.3958  0.6839  0.1431
 7710TIP3    H223095   6.512   5.720   2.030 -0.3923  0.6282  0.1029
 7711TIP3   OH223096   6.377   3.197   1.229 -0.1379 -0.4069  0.0572
 7711TIP3    H123097   6.384   3.111   1.272 -1.4926 -0.2942  0.5325
 7711TIP3    H223098   6.466   3.233   1.234  0.1620 -1.2250  1.0220
 7712TIP3   OH223099   7.062   0.432   1.813 -0.0644  0.0618  0.6135
 7712TIP3    H123100   7.055   0.365   1.881  1.3217  0.5135  1.2403
 7712TIP3    H223101   7.154   0.430   1.788 -0.6971 -0.6953 -1.9052
 7713TIP3   OH223102   2.883   5.365   3.312 -0.5891  0.0149 -0.7154
 7713TIP3    H123103   2.820   5.303   3.274 -0.5950 -2.0120  2.2966
 7713TIP3    H223104   2.830   5.417   3.373  0.3297 -0.8130  0.8530
 7714TIP3   OH223105   6.956   4.233   5.150  0.6175 -0.0251  0.4718
 7714TIP3    H123106   6.897   4.181   5.095  0.0020  0.3117  0.8011
 7714TIP3    H223107   6.992   4.299   5.091 -0.7972  0.9575  0.6574
 7715TIP3   OH223108   2.146   0.145   0.162 -0.1660  0.2716 -0.6127
 7715TIP3    H123109   2.180   0.090   0.092 -0.6326 -1.8417  0.7317
 7715TIP3    H223110   2.053   0.122   0.168  0.2821 -1.2887  2.0689
 7716TIP3   OH223111   5.622   0.320   1.298 -0.3678 -0.0304  0.3069
 7716TIP3    H123112   5.537   0.341   1.260  0.1097  0.3626 -0.5641
 7716TIP3    H223113   5.677   0.396   1.279  0.3186 -0.4881  0.4244
 7717TIP3   OH223114   6.439   3.901   4.180  0.1408  0.4692 -0.8927
 7717TIP3    H123115   6.404   3.987   4.157  0.1738  0.5222 -0.7445
 7717TIP3    H223116   6.526   3.920   4.215 -0.3544  0.4949  0.3672
 7718TIP3   OH223117   3.844   2.277   0.546  0.2807  0.4899 -0.0620
 7718TIP3    H123118   3.827   2.358   0.594  0.2072  1.3495 -1.4894
 7718TIP3    H223119   3.760   2.253   0.508  0.2121 -0.4943  0.6586
 7719TIP3   OH223120   2.009   4.109   1.266  0.9510  0.6258 -0.3827
 7719TIP3    H123121   1.979   4.106   1.175 -0.3885 -1.2051  0.0538
 7719TIP3    H223122   1.933   4.139   1.315  1.9472  2.5189  0.0735
 7720TIP3   OH223123   4.550   4.912   5.614  0.0536 -0.9596 -0.1662
 7720TIP3    H123124   4.510   4.835   5.654  2.2497 -2.3554 -0.4698
 7720TIP3    H223125   4.499   4.926   5.534 -0.7480 -1.7375  0.1791
 7721TIP3   OH223126   1.665   0.575   3.474  0.4746  0.2967 -0.6383
 7721TIP3    H123127   1.630   0.519   3.543 -2.2768  0.1741 -1.9506
 7721TIP3    H223128   1.702   0.651   3.520  1.2657 -1.0284  1.0195
 7722TIP3   OH223129   5.873   4.564   5.131 -0.4542 -0.4368  0.3013
 7722TIP3    H123130   5.890   4.473   5.107  0.5057 -0.4099  0.8438
 7722TIP3    H223131   5.926   4.578   5.209  1.8442  1.4698 -1.4598
 7723TIP3   OH223132   3.388   3.691   5.052 -0.0304 -0.1605 -0.4445
 7723TIP3    H123133   3.331   3.733   4.988  1.8634  1.2093 -1.3060
 7723TIP3    H223134   3.394   3.754   5.124 -1.8382 -1.5265  1.0162
 7724TIP3   OH223135   6.594   2.819   1.654 -0.1650  0.1768  0.8253
 7724TIP3    H123136   6.620   2.784   1.569 -0.6854 -0.8061  1.0611
 7724TIP3    H223137   6.528   2.885   1.634  0.5379  0.7693  0.4043
 7725TIP3   OH223138   5.435   6.153   4.553 -0.5250 -0.1892 -0.1330
 7725TIP3    H123139   5.504   6.091   4.528 -1.2077 -1.3346  0.6961
 7725TIP3    H223140   5.470   6.199   4.629 -0.7703 -1.0462  0.5325
 7726TIP3   OH223141   1.623   1.096   3.861 -0.3473 -0.4173  0.2385
 7726TIP3    H123142   1.606   1.126   3.772 -0.7967  2.0972  1.0972
 7726TIP3    H223143   1.550   1.037   3.881  1.0409 -3.0778 -1.8260
 7727TIP3   OH223144   0.378   1.363   0.259 -0.4804  0.0604  0.4424
 7727TIP3    H123145   0.365   1.338   0.167 -1.4051 -0.4184  0.6937
 7727TIP3    H223146   0.451   1.425   0.256  0.6116 -1.2019 -0.4204
 7728TIP3   OH223147   2.270   5.250   4.579  0.0462  0.5530  0.0763
 7728TIP3    H123148   2.257   5.196   4.502  0.8322 -0.2118  0.4651
 7728TIP3    H223149   2.291   5.188   4.649 -0.8532  1.2016  0.9688
 7729TIP3   OH223150   6.387   1.179   1.557  0.2936  1.1829 -0.0930
 7729TIP3    H123151   6.301   1.166   1.517  0.9122  0.2237 -1.1787
 7729TIP3    H223152   6.448   1.135   1.498  1.3747  0.6215  1.3722
 7730TIP3   OH223153   2.860   4.579   2.666 -0.0185 -0.1948 -0.2659
 7730TIP3    H123154   2.800   4.547   2.733  0.4000 -1.6107 -0.5275
 7730TIP3    H223155   2.889   4.664   2.698  0.2670 -0.8791  1.4085
 7731TIP3   OH223156   0.209   6.108   4.201  0.3987 -0.7624 -0.2941
 7731TIP3    H123157   0.273   6.060   4.147  0.4456 -0.7706 -0.2310
 7731TIP3    H223158   0.261   6.146   4.272  0.2492 -1.2051  0.0529
 7732TIP3   OH223159   4.711   5.216   2.762  0.1044  0.1938  0.1493
 7732TIP3    H123160   4.749   5.152   2.701 -0.6499  1.0690 -1.2869
 7732TIP3    H223161   4.634   5.249   2.717  1.1359  3.0284  0.2860
 7733TIP3   OH223162   6.321   3.598   2.374  0.2769 -0.4216 -0.0133
 7733TIP3    H123163   6.239   3.588   2.422 -1.0265 -0.9772 -2.2170
 7733TIP3    H223164   6.297   3.582   2.282  2.5622  0.8527 -0.9146
 7734TIP3   OH223165   0.820   5.186   3.214  0.9070 -0.1841  0.6684
 7734TIP3    H123166   0.893   5.124   3.207  0.9569 -0.3200  2.1067
 7734TIP3    H223167   0.743   5.134   3.193  1.2348  0.0658 -1.3025
 7735TIP3   OH223168   3.897   3.561   0.565  0.0419  0.0095 -0.4015
 7735TIP3    H123169   3.887   3.476   0.608 -0.9035  0.1546 -0.2961
 7735TIP3    H223170   3.973   3.551   0.508 -0.5208 -1.1824 -0.9915
 7736TIP3   OH223171   0.646   5.531   3.486 -0.1482 -0.1436 -0.4213
 7736TIP3    H123172   0.575   5.468   3.473 -0.6518 -0.1551  1.9894
 7736TIP3    H223173   0.724   5.478   3.501 -0.3935 -0.1912  0.7094
 7737TIP3   OH223174   7.030   1.672   5.364 -0.0543 -0.1969 -0.2246
 7737TIP3    H123175   7.040   1.765   5.381 -0.9958 -0.3565  1.4663
 7737TIP3    H223176   7.116   1.643   5.334  0.0597  1.3330 -1.4589
 7738TIP3   OH223177   0.194   2.232   5.396  0.0256 -0.2827  0.1459
 7738TIP3    H123178   0.260   2.179   5.441 -0.0976 -0.6930 -0.1485
 7738TIP3    H223179   0.243   2.281   5.330 -0.1330 -1.6953 -1.0848
 7739TIP3   OH223180   0.421   5.935   5.587  0.1923 -0.6932  0.2244
 7739TIP3    H123181   0.408   5.858   5.643  0.8949 -1.5915 -0.8082
 7739TIP3    H223182   0.345   5.935   5.529  2.1353 -3.1283 -2.5816
 7740TIP3   OH223183   6.612   5.052   1.996  0.2370  0.0920 -0.2422
 7740TIP3    H123184   6.575   5.085   1.914 -0.5555 -1.3703 -0.5067
 7740TIP3    H223185   6.658   4.972   1.971  1.2908  0.4359  0.5237
 7741TIP3   OH223186   4.671   4.658   1.095 -0.8228 -0.4163  0.0882
 7741TIP3    H123187   4.613   4.608   1.038 -1.1124  1.4561 -1.3546
 7741TIP3    H223188   4.617   4.679   1.172 -1.3014 -0.6576 -0.1769
 7742TIP3   OH223189   0.381   6.582   2.132 -0.6667 -0.5051  0.0533
 7742TIP3    H123190   0.472   6.577   2.105 -0.4006 -0.1316  0.8530
 7742TIP3    H223191   0.356   6.673   2.115 -1.3548 -0.9509 -1.5566
 7743TIP3   OH223192   0.355   6.196   0.347  0.1787  0.1537  0.2420
 7743TIP3    H123193   0.431   6.182   0.404  0.2414  0.9441  0.3699
 7743TIP3    H223194   0.343   6.112   0.302  2.0894  0.4435 -0.9438
 7744TIP3   OH223195   3.494   3.525   5.860  0.0863  0.1557 -0.1312
 7744TIP3    H123196   3.468   3.574   5.782  1.2264  0.0443 -0.5947
 7744TIP3    H223197   3.535   3.589   5.917 -0.6055  0.2058  0.3178
 7745TIP3   OH223198   7.170   6.536   0.917 -0.5726  0.4089  0.0242
 7745TIP3    H123199   7.133   6.535   0.829  0.6515 -1.5283 -0.5483
 7745TIP3    H223200   7.120   6.602   0.964 -2.2557  0.4448 -1.6992
 7746TIP3   OH223201   2.694   3.287   0.733  0.0512 -0.0104 -0.3481
 7746TIP3    H123202   2.633   3.250   0.669  0.2252  0.3932 -0.7628
 7746TIP3    H223203   2.648   3.284   0.816  0.9877 -3.5154  0.1880
 7747TIP3   OH223204   0.984   6.213   5.507  0.5211  0.2707 -0.6290
 7747TIP3    H123205   1.029   6.137   5.471  2.7275  2.0776 -1.9692
 7747TIP3    H223206   1.055   6.274   5.529 -1.0272  1.1983  2.3164
 7748TIP3   OH223207   3.792   6.377   5.397  0.0980  0.1907  0.1524
 7748TIP3    H123208   3.812   6.466   5.371  2.3432 -0.2373  0.2698
 7748TIP3    H223209   3.877   6.335   5.410 -0.8835 -1.9986  0.0115
 7749TIP3   OH223210   1.737   4.306   2.165  0.4528 -0.6184 -0.4610
 7749TIP3    H123211   1.684   4.381   2.137  1.1012 -0.2686 -0.8022
 7749TIP3    H223212   1.761   4.262   2.084  1.7338 -0.0235 -0.4399
 7750TIP3   OH223213   6.932   3.938   3.204  0.0755 -0.6008  0.2560
 7750TIP3    H123214   6.971   3.860   3.241  1.4749 -0.0393  0.0260
 7750TIP3    H223215   7.006   3.997   3.189 -0.9374  0.7731  0.4426
 7751TIP3   OH223216   4.768   2.360   1.023  0.0759  0.0187  0.4170
 7751TIP3    H123217   4.799   2.451   1.029  0.8113 -0.2634  1.0550
 7751TIP3    H223218   4.848   2.308   1.016 -0.3600 -0.5137 -1.2093
 7752TIP3   OH223219   1.827   0.482   5.109 -0.2991 -0.3471 -0.1394
 7752TIP3    H123220   1.791   0.397   5.136  0.9035  0.0278  3.1749
 7752TIP3    H223221   1.755   0.527   5.067 -1.1019 -2.7966 -1.6067
 7753TIP3   OH223222   5.823   6.086   0.656  0.2096  0.4945  0.2165
 7753TIP3    H123223   5.755   6.135   0.610  2.2582  3.3767 -0.0563
 7753TIP3    H223224   5.859   6.149   0.719  2.4314 -0.9334  0.4949
 7754TIP3   OH223225   6.233   2.750   1.269  0.0459  0.6204  0.0005
 7754TIP3    H123226   6.190   2.667   1.288 -1.1960  1.2332 -0.0128
 7754TIP3    H223227   6.171   2.816   1.300  0.4480  1.5564 -1.1537
 7755TIP3   OH223228   3.302   3.357   0.526 -0.0352 -0.8183 -0.2292
 7755TIP3    H123229   3.364   3.328   0.593  0.2651 -1.8409 -0.9213
 7755TIP3    H223230   3.231   3.399   0.574  0.4808 -0.9706  0.6760
 7756TIP3   OH223231   2.243   2.853   0.513  0.0807  0.2223 -0.1211
 7756TIP3    H123232   2.255   2.758   0.519 -0.6324  0.0776 -0.8272
 7756TIP3    H223233   2.149   2.866   0.525 -0.4296  0.4928 -3.4379
 7757TIP3   OH223234   3.466   6.296   5.664 -0.0116  0.0059  0.5958
 7757TIP3    H123235   3.500   6.246   5.739 -1.3533 -1.4363  0.3042
 7757TIP3    H223236   3.523   6.270   5.591 -0.2222 -0.5075  0.6094
 7758TIP3   OH223237   3.067   5.207   2.294 -0.1377 -0.2996  0.3640
 7758TIP3    H123238   3.158   5.234   2.287  0.8087 -3.3372 -0.7280
 7758TIP3    H223239   3.052   5.152   2.217 -3.3338  1.1128 -0.1974
 7759TIP3   OH223240   3.823   1.837   4.829  0.5925  0.7418 -0.0053
 7759TIP3    H123241   3.731   1.863   4.836  0.7865  1.0032  1.9953
 7759TIP3    H223242   3.847   1.860   4.739 -1.0058  1.6378 -0.2464
 7760TIP3   OH223243   0.290   6.504   3.692  0.2410  0.0731 -0.0715
 7760TIP3    H123244   0.239   6.504   3.611 -1.3061 -5.3028  0.5255
 7760TIP3    H223245   0.381   6.497   3.662  0.3885  4.1442 -1.1286
 7761TIP3   OH223246   0.672   2.958   2.368  0.3585  0.4046  0.2501
 7761TIP3    H123247   0.735   2.972   2.439  0.6265  0.7851 -0.0617
 7761TIP3    H223248   0.590   2.940   2.413  0.7999 -0.6893  0.6675
 7762TIP3   OH223249   2.576   0.969   2.887  0.5922 -0.0232  0.0503
 7762TIP3    H123250   2.507   0.979   2.822  1.1825 -0.4819 -0.6582
 7762TIP3    H223251   2.640   1.036   2.866  2.1957 -1.9518 -1.6965
 7763TIP3   OH223252   3.875   2.659   5.762  0.2567 -0.1020 -0.5520
 7763TIP3    H123253   3.891   2.711   5.841  2.0290  0.2465 -1.0993
 7763TIP3    H223254   3.784   2.677   5.740  0.2981  1.3439  0.3030
 7764TIP3   OH223255   1.262   3.375   2.980  0.4856  0.1258  0.0113
 7764TIP3    H123256   1.247   3.283   3.004  0.5873 -0.2935 -1.3990
 7764TIP3    H223257   1.176   3.408   2.957  0.6511 -0.1373 -1.0821
 7765TIP3   OH223258   1.100   4.661   1.015 -0.3048  0.0779 -0.4116
 7765TIP3    H123259   1.149   4.585   0.986  0.3773  0.5824 -0.6199
 7765TIP3    H223260   1.073   4.640   1.104 -2.2572 -1.4005 -1.2952
 7766TIP3   OH223261   5.819   5.735   1.210 -0.1938  0.1492 -0.2342
 7766TIP3    H123262   5.909   5.738   1.177 -0.3658 -1.8045 -1.0779
 7766TIP3    H223263   5.821   5.668   1.278 -0.8442  0.7240  0.3611
 7767TIP3   OH223264   4.355   0.990   1.282 -0.0013 -0.2863  0.3450
 7767TIP3    H123265   4.359   1.066   1.223 -0.1816 -1.0534 -0.6859
 7767TIP3    H223266   4.405   1.017   1.359 -0.4783  1.0628  0.2152
 7768TIP3   OH223267   5.658   6.387   4.561 -0.3122 -0.1988  0.7789
 7768TIP3    H123268   5.599   6.415   4.491 -1.6959  0.4073  2.1327
 7768TIP3    H223269   5.658   6.460   4.623  1.3920 -0.4539  1.1322
 7769TIP3   OH223270   4.257   0.523   3.740  0.3107  0.2649 -0.6367
 7769TIP3    H123271   4.286   0.525   3.649  1.9341 -0.6278 -0.1772
 7769TIP3    H223272   4.310   0.590   3.783  0.9517 -0.6443  0.0154
 7770TIP3   OH223273   4.195   3.575   3.316 -0.5163 -0.2336  0.1053
 7770TIP3    H123274   4.204   3.651   3.258 -1.0891  0.8776  1.4296
 7770TIP3    H223275   4.284   3.554   3.342 -0.2779 -0.5674 -0.9217
 7771TIP3   OH223276   5.558   1.194   4.104 -0.3830 -0.8561  0.2162
 7771TIP3    H123277   5.594   1.112   4.138  0.8931  0.2817  1.7327
 7771TIP3    H223278   5.603   1.206   4.020  1.8646 -0.1822  1.4259
 7772TIP3   OH223279   3.236   4.269   3.379 -0.0324 -0.4801  0.0814
 7772TIP3    H123280   3.142   4.254   3.379 -0.1374  0.1237  0.3852
 7772TIP3    H223281   3.245   4.365   3.382  0.5871 -0.4164 -1.9756
 7773TIP3   OH223282   5.394   0.083   0.455  0.5959 -0.2340  0.1300
 7773TIP3    H123283   5.387  -0.003   0.413  0.6671 -0.6793  1.0163
 7773TIP3    H223284   5.328   0.083   0.523  1.6701 -0.2128  1.2069
 7774TIP3   OH223285   0.686   3.572   5.439  0.0809  0.2802  0.6033
 7774TIP3    H123286   0.641   3.604   5.517 -3.3602 -1.2132 -0.5784
 7774TIP3    H223287   0.636   3.608   5.366  1.4126 -0.7136 -0.8743
 7775TIP3   OH223288   5.514   1.563   4.067  0.2870  0.2971  0.6816
 7775TIP3    H123289   5.567   1.624   4.118 -2.0204  0.7629  2.7085
 7775TIP3    H223290   5.497   1.490   4.127  0.1505 -0.7168 -0.5498
 7776TIP3   OH223291   4.227   4.081   2.017  0.2332 -0.2878  0.0014
 7776TIP3    H123292   4.195   4.071   2.107  2.1181 -0.6322  0.6876
 7776TIP3    H223293   4.151   4.112   1.968 -0.7261  0.4099  1.8094
 7777TIP3   OH223294   2.546   1.127   0.032  0.4106  0.1357 -0.3040
 7777TIP3    H123295   2.518   1.035   0.039  1.4386 -0.2539 -1.0899
 7777TIP3    H223296   2.640   1.122   0.014  0.5046  1.3540 -0.2041
 7778TIP3   OH223297   5.715   2.149   1.161 -0.4810  0.1492 -0.4466
 7778TIP3    H123298   5.724   2.108   1.074  3.3076  1.8087 -1.0145
 7778TIP3    H223299   5.684   2.238   1.142 -1.6823 -0.1173  0.1582
 7779TIP3   OH223300   5.568   1.056   1.184  0.0351  0.1181 -0.0232
 7779TIP3    H123301   5.575   1.013   1.269  0.0658 -0.1787 -0.1723
 7779TIP3    H223302   5.475   1.051   1.162  0.2247 -1.0867 -0.6495
 7780TIP3   OH223303   5.271   1.579   2.713 -0.1102  0.1767  0.0391
 7780TIP3    H123304   5.186   1.574   2.670  0.0465  0.4919 -0.3074
 7780TIP3    H223305   5.266   1.657   2.768 -0.9300 -1.1263  1.9604
 7781TIP3   OH223306   2.642   2.635   2.039  0.1377  0.2351 -0.0318
 7781TIP3    H123307   2.568   2.661   1.984 -0.5035 -2.7370 -0.7274
 7781TIP3    H223308   2.709   2.606   1.977 -0.1805 -2.1181  0.6454
 7782TIP3   OH223309   0.540   6.468   3.108  0.2541 -0.2816 -0.2709
 7782TIP3    H123310   0.501   6.496   3.191  0.7639  0.2591 -0.2121
 7782TIP3    H223311   0.514   6.376   3.100  0.1310 -0.3164  0.4452
 7783TIP3   OH223312   0.408   1.870   0.288  0.2292  0.1744 -0.4178
 7783TIP3    H123313   0.413   1.956   0.248  0.0279  0.2811 -0.2157
 7783TIP3    H223314   0.499   1.847   0.307  0.2704  0.4133 -0.3236
 7784TIP3   OH223315   5.775   2.493   2.779 -0.1585 -0.5383  0.3317
 7784TIP3    H123316   5.836   2.493   2.853  1.4397 -1.4738 -0.9293
 7784TIP3    H223317   5.831   2.483   2.702 -1.8766 -0.8683 -0.9206
 7785TIP3   OH223318   4.777   2.787   1.213  0.4057 -0.0134 -0.1789
 7785TIP3    H123319   4.729   2.719   1.261  0.9211  0.3506  0.8792
 7785TIP3    H223320   4.810   2.742   1.135 -0.4602 -0.6145 -0.2142
 7786TIP3   OH223321   6.685   2.158   3.401 -0.3803  0.2110  0.0051
 7786TIP3    H123322   6.747   2.087   3.416 -1.8455 -1.2481 -0.5215
 7786TIP3    H223323   6.617   2.144   3.467 -1.1265  0.6201 -0.6651
 7787TIP3   OH223324   6.156   5.958   2.250 -0.3471 -0.3517 -0.2594
 7787TIP3    H123325   6.067   5.992   2.242 -0.9459 -2.1282 -2.2309
 7787TIP3    H223326   6.193   5.968   2.162  1.7676  1.1677  0.7272
 7788TIP3   OH223327   5.006   3.168   0.296 -0.2685  0.0022 -0.0706
 7788TIP3    H123328   4.963   3.252   0.306 -1.0696 -0.2251 -1.3916
 7788TIP3    H223329   5.099   3.189   0.288 -0.4971  0.7908 -0.7133
 7789TIP3   OH223330   0.623   5.540   2.902 -0.0341  0.2704  0.6640
 7789TIP3    H123331   0.591   5.611   2.847 -0.9264 -1.0742 -0.6650
 7789TIP3    H223332   0.553   5.474   2.898  2.1171 -2.1188 -1.0134
 7790TIP3   OH223333   6.703   6.345   5.695  0.1478 -0.2817  0.0392
 7790TIP3    H123334   6.766   6.288   5.652  2.7878  1.3150  1.5074
 7790TIP3    H223335   6.696   6.311   5.784  0.4617  0.6620  0.4392
 7791TIP3   OH223336   0.301   3.494   3.836  0.5799 -0.4138  0.3149
 7791TIP3    H123337   0.296   3.589   3.832 -0.0217 -0.3933  1.2422
 7791TIP3    H223338   0.386   3.477   3.877  0.4129 -0.2539  0.7317
 7792TIP3   OH223339   7.133   2.203   5.459 -0.2411 -0.0912  0.0306
 7792TIP3    H123340   7.222   2.231   5.437 -0.6170  0.7417 -0.4798
 7792TIP3    H223341   7.128   2.211   5.554  0.2696 -0.2631  0.0736
 7793TIP3   OH223342   3.479   2.514   3.326  0.1335 -0.1085  0.2051
 7793TIP3    H123343   3.516   2.467   3.251  0.2413  0.0257  0.1748
 7793TIP3    H223344   3.536   2.491   3.400 -0.3467 -0.7599  0.3873
 7794TIP3   OH223345   6.386   0.318   3.295  0.4846 -0.1600 -0.5999
 7794TIP3    H123346   6.454   0.333   3.360 -2.2467  1.2529  2.2052
 7794TIP3    H223347   6.391   0.393   3.235  1.7479 -0.4173 -0.8303
 7795TIP3   OH223348   2.211   2.597   0.174 -0.2809  0.2121  0.3445
 7795TIP3    H123349   2.117   2.602   0.192 -0.3872 -1.3721  0.4456
 7795TIP3    H223350   2.237   2.511   0.208  1.2165  0.6444  0.3622
 7796TIP3   OH223351   5.409   4.331   1.316 -0.2639  0.2344 -0.6643
 7796TIP3    H123352   5.467   4.305   1.387 -0.7099 -0.0052 -0.3832
 7796TIP3    H223353   5.468   4.353   1.244  0.2511  1.6365  0.1441
 7797TIP3   OH223354   0.867   3.797   4.376  0.3066 -0.6497  0.1507
 7797TIP3    H123355   0.843   3.889   4.381  0.1946 -0.7286  1.2675
 7797TIP3    H223356   0.785   3.752   4.355 -0.2239 -0.7273  2.1337
 7798TIP3   OH223357   0.393   5.074   5.661 -0.2038 -0.5136  0.0066
 7798TIP3    H123358   0.338   5.089   5.737 -0.9612 -1.1200 -0.4013
 7798TIP3    H223359   0.343   5.013   5.606  2.2427 -3.9506  1.2013
 7799TIP3   OH223360   4.134   4.386   1.927 -0.2789  0.0795 -0.4912
 7799TIP3    H123361   4.135   4.301   1.884  2.1906  0.0387 -0.5068
 7799TIP3    H223362   4.171   4.446   1.863  1.1886  0.4639  0.6321
 7800TIP3   OH223363   3.958   4.050   4.293 -0.5648  0.0005 -0.3993
 7800TIP3    H123364   3.896   4.106   4.245 -0.4849  0.3293 -0.1268
 7800TIP3    H223365   3.968   4.093   4.378 -1.2020 -0.9253  0.1613
 7801TIP3   OH223366   7.006   2.562   4.408 -0.0515 -0.1278  0.7642
 7801TIP3    H123367   6.991   2.497   4.477  1.3450 -1.6961 -0.3375
 7801TIP3    H223368   7.088   2.605   4.434 -0.5848  0.7063  1.1028
 7802TIP3   OH223369   2.279   2.237   1.113 -0.1087  0.4209 -1.1684
 7802TIP3    H123370   2.232   2.320   1.105 -0.9845  0.1030  0.2944
 7802TIP3    H223371   2.340   2.252   1.186  1.0474  0.3483 -2.0914
 7803TIP3   OH223372   4.860   1.122   2.038 -0.6426 -0.2502 -0.5618
 7803TIP3    H123373   4.799   1.127   1.965 -0.2530 -1.8316 -1.0381
 7803TIP3    H223374   4.827   1.185   2.101 -0.7461  1.4581 -2.2557
 7804TIP3   OH223375   3.060   2.937   5.037 -0.1244  0.3173 -0.0701
 7804TIP3    H123376   3.063   3.004   5.104 -2.7567  0.7987 -0.3223
 7804TIP3    H223377   2.981   2.886   5.057  0.0396 -0.6705 -1.7269
 7805TIP3   OH223378   3.487   4.989   4.213  0.5509  0.2705 -0.3885
 7805TIP3    H123379   3.405   5.006   4.165 -0.4454 -1.3197  0.6530
 7805TIP3    H223380   3.548   4.958   4.146 -0.8312 -1.9659 -0.7354
 7806TIP3   OH223381   3.867   3.681   3.538 -0.1277  0.0010 -0.1943
 7806TIP3    H123382   3.926   3.605   3.535  1.0403  0.7111  2.2534
 7806TIP3    H223383   3.828   3.677   3.625 -1.5020  1.1916 -0.7277
 7807TIP3   OH223384  -0.014   6.154   5.337  0.1097  0.2434  0.0712
 7807TIP3    H123385  -0.003   6.159   5.242 -1.5632  0.3525 -0.1439
 7807TIP3    H223386   0.037   6.228   5.371  1.8902 -0.6235 -0.5916
 7808TIP3   OH223387   5.029   3.114   4.043  0.3040  0.5207  0.4541
 7808TIP3    H123388   4.991   3.170   4.110 -0.1046  2.4937 -1.3115
 7808TIP3    H223389   5.122   3.111   4.064  0.2592  1.5313  0.8613
 7809TIP3   OH223390   2.069   3.757   5.703  0.3649 -0.0714 -0.2409
 7809TIP3    H123391   2.143   3.696   5.710  2.0162  1.7183 -1.1226
 7809TIP3    H223392   2.068   3.803   5.787  0.2832 -0.0545 -0.2514
 7810TIP3   OH223393   0.144   1.545   5.193 -0.1856 -0.1469 -1.1859
 7810TIP3    H123394   0.217   1.493   5.160 -0.8865 -0.2860 -2.5768
 7810TIP3    H223395   0.171   1.636   5.182 -0.0411 -0.2015 -1.2749
 7811TIP3   OH223396   0.755   0.082   5.809  0.6773  0.1045  0.2086
 7811TIP3    H123397   0.804   0.135   5.872 -0.0439  1.9504 -0.7021
 7811TIP3    H223398   0.675   0.057   5.855 -0.1964  2.0650 -0.1123
 7812TIP3   OH223399   1.604   3.054   5.638 -0.4640  0.2373  0.4132
 7812TIP3    H123400   1.663   3.057   5.563 -1.7491  0.4346 -0.6129
 7812TIP3    H223401   1.606   3.143   5.673  1.9342 -0.3645  2.1225
 7813TIP3   OH223402   1.811   6.650   2.044  0.2899 -0.7262 -0.0070
 7813TIP3    H123403   1.900   6.662   2.077 -0.8561  0.4741  3.0562
 7813TIP3    H223404   1.776   6.577   2.095 -0.6608 -0.8419 -0.7933
 7814TIP3   OH223405   6.272   2.872   2.314 -0.3656  0.5180  0.5493
 7814TIP3    H123406   6.315   2.797   2.355 -0.6544  1.3910  2.5974
 7814TIP3    H223407   6.180   2.847   2.307 -0.6108  0.9259  1.9714
 7815TIP3   OH223408   5.267   1.443   0.199  0.5166  0.3344 -0.2224
 7815TIP3    H123409   5.182   1.428   0.158  0.3309 -1.1569  0.6032
 7815TIP3    H223410   5.329   1.395   0.144  0.5105 -0.2488  0.2604
 7816TIP3   OH223411   2.115   2.166   4.028 -1.0715 -0.2506 -0.1663
 7816TIP3    H123412   2.162   2.084   4.012 -1.7902 -0.6097 -0.5112
 7816TIP3    H223413   2.025   2.148   4.000 -1.4009  0.4417  0.4091
 7817TIP3   OH223414   4.685   3.470   4.908 -0.1905 -0.2391 -0.5977
 7817TIP3    H123415   4.758   3.444   4.964 -0.9554  0.3748  0.7384
 7817TIP3    H223416   4.659   3.390   4.862 -1.0527 -1.3630  1.7135
 7818TIP3   OH223417   0.133   6.267   2.621 -0.2438 -0.1518 -0.0812
 7818TIP3    H123418   0.203   6.213   2.657 -0.1728 -0.7905 -1.1354
 7818TIP3    H223419   0.056   6.210   2.622 -0.4153  0.0731 -0.2508
 7819TIP3   OH223420   3.114   1.810   0.404  0.1440  0.3814  0.1974
 7819TIP3    H123421   3.107   1.717   0.426  2.1795  0.2229  0.3793
 7819TIP3    H223422   3.175   1.812   0.330  0.8631  1.6256  0.8003
 7820TIP3   OH223423   4.023   0.844   5.170  0.3332  0.1918  0.2364
 7820TIP3    H123424   3.976   0.928   5.169 -0.0805 -0.0364  0.2602
 7820TIP3    H223425   3.973   0.789   5.110  0.2211 -0.2425  0.7250
 7821TIP3   OH223426   2.299   1.086   4.764  0.0068 -0.3997  0.4609
 7821TIP3    H123427   2.340   1.050   4.685 -0.4287 -2.4824  1.1314
 7821TIP3    H223428   2.318   1.180   4.760 -1.3463 -0.1216 -2.9378
 7822TIP3   OH223429   3.028   0.542   5.408 -0.7678 -0.4376  0.4126
 7822TIP3    H123430   3.019   0.535   5.313 -0.6956  0.3731  0.3345
 7822TIP3    H223431   3.014   0.453   5.441  0.3489 -0.9586 -0.4435
 7823TIP3   OH223432   4.030   6.622   1.890 -0.3068  0.0137 -0.3477
 7823TIP3    H123433   3.969   6.615   1.963 -0.4014 -0.6515 -0.4885
 7823TIP3    H223434   4.005   6.703   1.845 -1.2869 -0.4060 -0.5800
 7824TIP3   OH223435   6.796   1.528   5.856 -0.1026  0.0166  0.5280
 7824TIP3    H123436   6.860   1.579   5.806  0.4415  0.6752  1.8534
 7824TIP3    H223437   6.723   1.588   5.870  0.1109  0.1225  1.2305
 7825TIP3   OH223438   1.788   3.552   0.304  0.0103  0.0537  0.3297
 7825TIP3    H123439   1.756   3.633   0.264  2.0936  0.8266  0.1046
 7825TIP3    H223440   1.750   3.553   0.392  1.1549  2.0783  0.8684
 7826TIP3   OH223441   1.754   3.493   2.802  0.8287  0.2645  0.4893
 7826TIP3    H123442   1.847   3.512   2.815  1.1980 -0.9226 -0.2577
 7826TIP3    H223443   1.741   3.408   2.844 -0.0421  0.6333  0.9944
 7827TIP3   OH223444   4.156   3.783   4.552  0.3436  0.2531 -0.3761
 7827TIP3    H123445   4.250   3.775   4.565  0.5281  0.5484 -1.4437
 7827TIP3    H223446   4.144   3.784   4.457 -0.9965 -2.5814 -0.3418
 7828TIP3   OH223447   2.582   1.858   0.186 -0.4319 -0.2615 -0.4584
 7828TIP3    H123448   2.612   1.807   0.110 -2.7539 -2.6866  0.1196
 7828TIP3    H223449   2.521   1.922   0.149 -0.9143 -0.8771 -0.7360
 7829TIP3   OH223450   4.558   5.007   5.910  0.5664  0.6750 -0.0730
 7829TIP3    H123451   4.649   4.977   5.902  0.4509  0.5415 -0.9678
 7829TIP3    H223452   4.542   5.056   5.829 -0.2478  0.4659 -0.0443
 7830TIP3   OH223453   3.003   0.761   3.453 -0.3240  0.1450  0.1727
 7830TIP3    H123454   3.054   0.834   3.489  0.0324 -1.5902  3.5018
 7830TIP3    H223455   2.914   0.776   3.485 -1.1992  1.0785 -2.4054
 7831TIP3   OH223456   4.658   1.394   1.876  0.2489 -0.3186  0.2188
 7831TIP3    H123457   4.565   1.373   1.882  0.6433 -2.0573  0.8140
 7831TIP3    H223458   4.699   1.313   1.845  1.1860  1.3906 -3.6385
 7832TIP3   OH223459   0.435   2.302   2.639  0.1412 -0.1898  0.4932
 7832TIP3    H123460   0.525   2.324   2.618  0.4815 -0.9940  1.0786
 7832TIP3    H223461   0.430   2.307   2.734 -0.6982  0.8138  0.4189
 7833TIP3   OH223462   1.534   3.596   4.053  0.2130  0.0910 -0.3500
 7833TIP3    H123463   1.610   3.538   4.042 -0.1045 -0.4610  0.3224
 7833TIP3    H223464   1.464   3.554   4.004  0.0274 -0.0079 -0.0015
 7834TIP3   OH223465   3.862   6.301   1.997  0.1746 -0.1316 -0.1549
 7834TIP3    H123466   3.938   6.261   2.038  0.5498  0.6661 -0.0547
 7834TIP3    H223467   3.885   6.306   1.904  0.9211  1.5578  0.0942
 7835TIP3   OH223468   7.124   6.116   1.117  0.2246  0.0483  0.3814
 7835TIP3    H123469   7.117   6.126   1.022 -2.6440 -2.2006  0.2175
 7835TIP3    H223470   7.197   6.056   1.129 -0.1507 -0.6291 -0.5325
 7836TIP3   OH223471   1.446   3.260   3.166 -0.0512 -0.5677 -0.2028
 7836TIP3    H123472   1.440   3.236   3.258 -0.1593  0.7992  0.1767
 7836TIP3    H223473   1.371   3.217   3.125 -0.6775 -0.2462  0.5757
 7837TIP3   OH223474   0.811   2.809   5.671  1.0091  0.7312 -0.6221
 7837TIP3    H123475   0.865   2.734   5.693 -2.0052 -0.9161  1.8707
 7837TIP3    H223476   0.871   2.884   5.673  3.3512 -1.0729  0.8747
 7838TIP3   OH223477   4.054   1.748   5.792 -0.0222 -0.4541  0.2718
 7838TIP3    H123478   4.145   1.722   5.805 -0.5301 -1.3773  2.3567
 7838TIP3    H223479   4.011   1.729   5.875 -2.1377 -0.0560 -0.6575
 7839TIP3   OH223480   6.076   6.304   1.834  0.1828 -0.1462 -0.1109
 7839TIP3    H123481   6.009   6.236   1.829  0.2512 -0.2485  0.3858
 7839TIP3    H223482   6.126   6.294   1.752  0.9582 -1.4931  0.4971
 7840TIP3   OH223483   6.274   0.294   4.377  0.2351 -0.4305 -0.0682
 7840TIP3    H123484   6.238   0.338   4.454  0.4912 -0.2420 -0.0549
 7840TIP3    H223485   6.330   0.225   4.412  0.6321 -0.1172 -0.0824
 7841TIP3   OH223486   4.904   1.526   0.765  0.1145 -0.0916 -0.1770
 7841TIP3    H123487   4.898   1.443   0.812 -0.2566 -0.2694 -0.5325
 7841TIP3    H223488   4.813   1.550   0.749  0.1077  1.4086  1.7118
 7842TIP3   OH223489   4.548   2.238   4.623 -0.2200  0.0759 -0.2641
 7842TIP3    H123490   4.578   2.308   4.681  0.7064 -1.2860  0.9810
 7842TIP3    H223491   4.547   2.277   4.536  2.3090  1.0775  0.0848
 7843TIP3   OH223492   3.638   6.700   2.326 -0.2042  0.0956  0.3831
 7843TIP3    H123493   3.596   6.758   2.262 -0.3904 -0.7050 -0.2394
 7843TIP3    H223494   3.722   6.741   2.344 -1.2056  1.7126  1.6227
 7844TIP3   OH223495   2.087   5.441   2.158 -0.0997  0.4755  0.2160
 7844TIP3    H123496   1.996   5.467   2.174 -0.2232  0.3951 -0.3269
 7844TIP3    H223497   2.127   5.439   2.244 -0.7881 -0.1267  0.5309
 7845TIP3   OH223498   6.970   5.348   5.635  0.0186 -0.0592  0.0795
 7845TIP3    H123499   6.899   5.375   5.576 -0.6615 -0.1940  0.8234
 7845TIP3    H223500   6.930   5.345   5.721  0.3660 -2.2256  0.2289
 7846TIP3   OH223501   1.704   3.135   3.849  0.0445  0.1363  0.1731
 7846TIP3    H123502   1.772   3.140   3.917  0.2037  1.5254 -0.0603
 7846TIP3    H223503   1.651   3.059   3.874  0.8131 -0.0931  1.1805
 7847TIP3   OH223504   4.939   5.281   2.992 -0.8137  0.0376  0.3893
 7847TIP3    H123505   5.016   5.272   3.049 -0.4957 -2.6807 -0.3389
 7847TIP3    H223506   4.962   5.353   2.933  0.0307  1.0082  1.8348
 7848TIP3   OH223507   0.346   3.342   2.022 -0.3329  0.2037 -0.4678
 7848TIP3    H123508   0.427   3.291   2.013 -0.8664 -0.7121 -0.2461
 7848TIP3    H223509   0.375   3.432   2.033  0.6864 -0.1958  0.2558
 7849TIP3   OH223510   2.975   6.640   3.111  0.3257 -0.1397  0.6179
 7849TIP3    H123511   2.954   6.670   3.200  2.9767 -0.5789  1.4714
 7849TIP3    H223512   3.022   6.713   3.072 -0.2359 -0.2063 -0.1878
 7850TIP3   OH223513   1.381   2.099   2.361 -0.0811  0.2714 -0.0873
 7850TIP3    H123514   1.457   2.060   2.404 -0.2855  0.3218  0.3280
 7850TIP3    H223515   1.306   2.065   2.409 -0.4904 -1.6248 -1.9554
 7851TIP3   OH223516   3.374   3.457   4.471 -0.0490  0.0521  0.2899
 7851TIP3    H123517   3.340   3.545   4.454 -1.4345 -0.4538  0.3296
 7851TIP3    H223518   3.297   3.407   4.499  0.4872 -1.4535 -0.8214
 7852TIP3   OH223519   4.824   1.271   3.382  0.4913 -0.1533  0.3749
 7852TIP3    H123520   4.918   1.258   3.370  1.1918  3.0989  1.3682
 7852TIP3    H223521   4.800   1.209   3.451  1.1359 -3.1392 -1.8586
 7853TIP3   OH223522   5.821   1.934   2.768 -0.5139 -0.1976 -0.6206
 7853TIP3    H123523   5.733   1.951   2.802  0.5673  2.6588  1.1411
 7853TIP3    H223524   5.859   1.871   2.829 -0.8928 -0.4260 -0.6191
 7854TIP3   OH223525   5.476   0.707   3.888  0.4667 -0.2162  0.2345
 7854TIP3    H123526   5.527   0.767   3.834 -2.3859  3.5481  1.2659
 7854TIP3    H223527   5.473   0.748   3.974 -1.8081 -1.7537  0.9954
 7855TIP3   OH223528   1.278   5.879   3.344  0.1603 -0.1099 -0.6154
 7855TIP3    H123529   1.330   5.805   3.375  0.4516  1.1299  2.2483
 7855TIP3    H223530   1.187   5.856   3.366  0.2970  0.5005  0.6849
 7856TIP3   OH223531   3.914   2.596   4.169  0.4318  0.1262  0.2767
 7856TIP3    H123532   3.935   2.532   4.238  1.2054 -0.9404 -0.8967
 7856TIP3    H223533   3.999   2.616   4.129 -0.1640 -0.4632 -1.3577
 7857TIP3   OH223534   3.361   6.575   1.099 -0.1878 -0.3233  0.1952
 7857TIP3    H123535   3.280   6.558   1.147 -1.1392 -2.3694 -1.9490
 7857TIP3    H223536   3.430   6.537   1.153 -0.8167  0.1175  1.3425
 7858TIP3   OH223537   2.147   6.488   0.539  0.3457  0.6226  0.0523
 7858TIP3    H123538   2.152   6.522   0.629 -0.3249 -0.2006  0.4137
 7858TIP3    H223539   2.060   6.450   0.533  1.3691 -1.9103  0.0065
 7859TIP3   OH223540   4.583   0.705   2.392  0.0197 -0.8069  0.0462
 7859TIP3    H123541   4.510   0.761   2.420  0.7365 -0.5486  1.4767
 7859TIP3    H223542   4.576   0.703   2.296 -1.2234  0.0835  0.0949
 7860TIP3   OH223543   3.182   1.466   4.598  0.1982  0.3075  0.0304
 7860TIP3    H123544   3.277   1.465   4.609  0.1963  0.1938  0.0349
 7860TIP3    H223545   3.148   1.477   4.687  0.1732 -0.9958  0.1931
 7861TIP3   OH223546   1.140   6.590   5.197  0.1821 -0.3785  0.3629
 7861TIP3    H123547   1.049   6.619   5.195 -0.1828 -1.4725  0.8282
 7861TIP3    H223548   1.150   6.538   5.118 -0.1299 -1.7813  1.2167
 7862TIP3   OH223549   1.254   3.796   0.282  0.0595 -0.0264 -0.0242
 7862TIP3    H123550   1.182   3.748   0.239  0.4891  0.4265 -1.3048
 7862TIP3    H223551   1.298   3.730   0.336 -0.2437 -0.7333 -0.6212
 7863TIP3   OH223552   2.206   6.054   5.640 -0.4666  0.3374 -0.4409
 7863TIP3    H123553   2.264   6.093   5.575  0.1152 -1.2707 -0.9317
 7863TIP3    H223554   2.122   6.046   5.595 -0.3472  0.2051 -0.6423
 7864TIP3   OH223555   5.748   3.580   1.738 -0.7232  0.8043 -0.3688
 7864TIP3    H123556   5.744   3.559   1.832 -2.2315 -0.6090 -0.6967
 7864TIP3    H223557   5.725   3.673   1.734 -1.4414  0.6983  0.6290
 7865TIP3   OH223558   1.055   5.982   3.624 -0.7459 -0.2835  0.5130
 7865TIP3    H123559   1.142   6.020   3.636 -1.4132  1.5582 -0.1676
 7865TIP3    H223560   1.069   5.907   3.567  0.1971  1.0630 -1.1100
 7866TIP3   OH223561   4.943   4.709   5.688  0.3059 -0.1250 -0.0727
 7866TIP3    H123562   4.944   4.640   5.754 -0.1796  0.8038  0.9479
 7866TIP3    H223563   5.026   4.756   5.701  0.3796 -0.1722 -0.3753
 7867TIP3   OH223564   5.632   5.877   3.226  0.8020 -0.2114  0.4122
 7867TIP3    H123565   5.697   5.946   3.239 -1.3210  1.8205  0.9539
 7867TIP3    H223566   5.596   5.893   3.139 -0.7743  0.3720  1.1417
 7868TIP3   OH223567   0.738   4.324   2.417  0.0161  0.1993 -0.5258
 7868TIP3    H123568   0.680   4.366   2.480 -1.2237 -1.1372 -0.7203
 7868TIP3    H223569   0.681   4.299   2.344  0.9242 -0.6743 -0.9670
 7869TIP3   OH223570   0.441   0.329   2.935  0.2689  0.5029  0.5266
 7869TIP3    H123571   0.359   0.323   2.984  0.4988  2.0318  1.1515
 7869TIP3    H223572   0.414   0.342   2.844 -0.1807  0.7432  0.6931
 7870TIP3   OH223573   0.887   0.122   3.114 -0.2945 -0.0820  0.0639
 7870TIP3    H123574   0.819   0.186   3.095 -0.4901 -0.2020  0.3589
 7870TIP3    H223575   0.900   0.127   3.209  2.0452  1.8965 -0.2561
 7871TIP3   OH223576   0.033   4.189   5.514  0.3315 -0.1975 -0.5393
 7871TIP3    H123577   0.080   4.146   5.442  1.1572 -0.1471 -0.0467
 7871TIP3    H223578   0.088   4.173   5.591 -0.7825 -0.6521  0.1740
 7872TIP3   OH223579   3.535   1.582   5.592  0.4082 -0.4514 -0.7400
 7872TIP3    H123580   3.562   1.495   5.622 -0.7500 -0.2467  1.0693
 7872TIP3    H223581   3.592   1.643   5.639  1.0242 -0.1998 -1.7835
 7873TIP3   OH223582   4.338   3.238   3.348 -0.0261  0.6304 -0.4904
 7873TIP3    H123583   4.323   3.161   3.293 -2.7496  0.9616 -0.3374
 7873TIP3    H223584   4.354   3.309   3.286  2.8788 -0.0157 -0.6283
 7874TIP3   OH223585   5.337   3.449   0.502 -0.1082 -0.3954  0.2585
 7874TIP3    H123586   5.367   3.456   0.592  0.3885  1.7658 -0.0343
 7874TIP3    H223587   5.245   3.423   0.509  0.7061 -3.5033  1.2355
 7875TIP3   OH223588   4.768   0.221   0.458  0.2307 -0.1290  0.6349
 7875TIP3    H123589   4.683   0.264   0.463  0.1254 -0.2968  0.3626
 7875TIP3    H223590   4.749   0.137   0.416  0.2657 -0.9094  2.1504
 7876TIP3   OH223591   2.675   4.765   4.255 -0.5614  0.0189 -0.1706
 7876TIP3    H123592   2.584   4.790   4.238 -1.0669 -0.9875  0.9568
 7876TIP3    H223593   2.669   4.688   4.311  0.9942 -0.3193 -0.4277
 7877TIP3   OH223594   2.577   2.444   2.239 -0.3769 -0.0784 -0.3614
 7877TIP3    H123595   2.579   2.507   2.168 -0.1702 -1.4974 -1.6626
 7877TIP3    H223596   2.657   2.393   2.229 -1.5062 -1.8783 -0.6218
 7878TIP3   OH223597   4.934   5.632   3.034  0.2195 -0.0122 -0.0703
 7878TIP3    H123598   4.869   5.590   2.977  0.2734  0.8499 -0.7884
 7878TIP3    H223599   4.901   5.721   3.047  0.1021 -0.2379  1.4365
 7879TIP3   OH223600   1.963   4.614   3.333  0.4761  0.0945 -0.4815
 7879TIP3    H123601   2.055   4.586   3.331 -0.3063 -2.7330 -1.2404
 7879TIP3    H223602   1.957   4.678   3.262  2.3912  2.5438  1.3818
 7880TIP3   OH223603   1.732   5.724   5.158 -0.2307  0.3730 -0.0154
 7880TIP3    H123604   1.704   5.809   5.191 -1.4255 -0.0766  0.1629
 7880TIP3    H223605   1.674   5.661   5.201  2.7185 -0.9054  2.5188
 7881TIP3   OH223606   2.819   5.535   3.098 -0.1532 -0.2333  0.1611
 7881TIP3    H123607   2.908   5.543   3.064 -0.2753 -1.6788 -0.5592
 7881TIP3    H223608   2.829   5.484   3.179 -0.3912 -1.0011 -0.2859
 7882TIP3   OH223609   4.830   2.203   4.473 -0.0331 -0.7868  0.0982
 7882TIP3    H123610   4.917   2.228   4.503  0.0225 -0.7840 -0.0648
 7882TIP3    H223611   4.801   2.276   4.419 -1.0336  0.2273  1.8919
 7883TIP3   OH223612   5.108   4.474   2.495  0.6115  0.1643  0.2374
 7883TIP3    H123613   5.099   4.397   2.439 -1.1201 -0.3113  1.1042
 7883TIP3    H223614   5.162   4.444   2.568  0.2860 -0.1130  0.3667
 7884TIP3   OH223615   5.877   2.509   4.988  0.0517  0.1482  0.3322
 7884TIP3    H123616   5.877   2.413   4.985  0.6213 -0.0070  2.9188
 7884TIP3    H223617   5.785   2.533   4.977 -0.2429 -0.7668  0.6993
 7885TIP3   OH223618   0.728   4.540   1.000 -0.0526  0.3001  0.6907
 7885TIP3    H123619   0.759   4.601   1.067  1.4625  1.2954 -0.8384
 7885TIP3    H223620   0.644   4.576   0.972  0.5592  1.3947  0.2167
 7886TIP3   OH223621   2.866   0.565   1.353 -0.4843 -0.5036  0.2092
 7886TIP3    H123622   2.876   0.625   1.428  2.9715 -1.6621  0.8895
 7886TIP3    H223623   2.930   0.597   1.289 -1.2287 -1.3318 -0.9737
 7887TIP3   OH223624   0.187   4.422   4.085  0.2623  0.4982  0.1258
 7887TIP3    H123625   0.141   4.351   4.040  0.7583  0.7432 -0.7897
 7887TIP3    H223626   0.150   4.422   4.173  1.5796 -2.1729  0.8026
 7888TIP3   OH223627   2.530   4.076   1.729  0.4002  0.4566  0.1517
 7888TIP3    H123628   2.497   4.142   1.668  0.7439 -0.6373 -1.2824
 7888TIP3    H223629   2.453   4.029   1.759  0.3319  0.0215 -0.6597
 7889TIP3   OH223630   7.164   0.200   1.391 -0.1088  0.5986 -0.4514
 7889TIP3    H123631   7.136   0.230   1.305 -0.8433 -0.2432 -0.5207
 7889TIP3    H223632   7.177   0.280   1.442  2.9948  1.3021 -2.0922
 7890TIP3   OH223633   2.618   0.313   4.901 -0.3328  0.1097 -0.3346
 7890TIP3    H123634   2.637   0.395   4.856 -0.9120 -0.4772 -1.7183
 7890TIP3    H223635   2.529   0.324   4.934  0.2070  0.6625  1.0116
 7891TIP3   OH223636   1.646   0.167   5.858  0.2284  0.3420  0.6805
 7891TIP3    H123637   1.736   0.200   5.859  0.1746  0.7157 -1.9041
 7891TIP3    H223638   1.648   0.093   5.798 -1.2326  0.4756  0.4453
 7892TIP3   OH223639   5.262   3.175   1.195 -0.2185 -0.4200  0.4588
 7892TIP3    H123640   5.246   3.210   1.283  0.3445 -0.0876  0.4360
 7892TIP3    H223641   5.209   3.230   1.138 -0.9557 -0.9375  0.6322
 7893TIP3   OH223642   4.201   1.508   5.532  0.2619 -0.1036 -0.4159
 7893TIP3    H123643   4.296   1.519   5.540  0.5695 -2.9427  0.9615
 7893TIP3    H223644   4.188   1.477   5.442  0.5945  0.4612 -0.6671
 7894TIP3   OH223645   6.875   1.883   2.588  0.0108 -0.0861  0.1669
 7894TIP3    H123646   6.875   1.978   2.600 -0.2367 -0.1388  0.6046
 7894TIP3    H223647   6.796   1.853   2.633 -1.6725 -0.1640 -2.5912
 7895TIP3   OH223648   5.319   2.648   5.005  0.2396 -0.1907 -0.1027
 7895TIP3    H123649   5.387   2.708   5.036  0.4039 -0.7348  0.5974
 7895TIP3    H223650   5.345   2.562   5.036  0.1692 -0.7007 -1.3779
 7896TIP3   OH223651   5.719   0.269   2.013 -0.0237 -0.2199  0.0251
 7896TIP3    H123652   5.807   0.287   2.046  0.5576  0.6090 -1.8088
 7896TIP3    H223653   5.733   0.206   1.942 -1.1118 -1.2741  0.7048
 7897TIP3   OH223654   6.471   6.143   3.073 -0.0424  0.3267  0.7387
 7897TIP3    H123655   6.453   6.052   3.051  0.2067  0.2270  0.9363
 7897TIP3    H223656   6.505   6.140   3.163 -0.4479  0.6596  0.9056
 7898TIP3   OH223657   6.221   4.222   3.887 -0.0281 -0.4920 -0.5604
 7898TIP3    H123658   6.278   4.291   3.855  1.3109  0.3047  3.0172
 7898TIP3    H223659   6.143   4.269   3.919 -1.3830 -1.2511 -2.6055
 7899TIP3   OH223660   0.528   6.004   1.015  0.7793 -1.2429  0.0159
 7899TIP3    H123661   0.501   5.912   1.003 -1.0201 -0.7215 -0.3043
 7899TIP3    H223662   0.511   6.045   0.930 -1.4121  0.0280  0.9734
 7900TIP3   OH223663   0.418   3.895   0.897 -0.2226 -0.1236  0.3548
 7900TIP3    H123664   0.475   3.943   0.957  0.3028  1.9623 -1.6738
 7900TIP3    H223665   0.343   3.953   0.883  0.1066 -0.0897 -1.6502
 7901TIP3   OH223666   2.869   4.408   4.300  0.2685 -0.6077  0.4010
 7901TIP3    H123667   2.797   4.401   4.237  0.6832 -1.0149 -0.0270
 7901TIP3    H223668   2.847   4.344   4.368  0.6442 -1.3370 -0.1504
 7902TIP3   OH223669   1.662   6.604   5.511  0.1709 -0.8349 -0.0978
 7902TIP3    H123670   1.690   6.629   5.423  2.2334  0.9392  0.9726
 7902TIP3    H223671   1.608   6.677   5.542  0.4957 -0.8578  0.5498
 7903TIP3   OH223672   6.473   6.256   1.528 -0.0247  0.0020 -0.1859
 7903TIP3    H123673   6.496   6.287   1.440 -1.2773  0.6536 -0.3054
 7903TIP3    H223674   6.497   6.329   1.586 -0.5729  0.1618 -0.1604
 7904TIP3   OH223675   1.741   0.674   1.328 -0.2934 -0.0117 -0.3153
 7904TIP3    H123676   1.719   0.723   1.249 -3.8512 -0.0402  0.4793
 7904TIP3    H223677   1.770   0.741   1.390 -0.0722  0.3602 -0.8134
 7905TIP3   OH223678   6.425   1.551   2.500  0.6878 -0.2125 -0.0668
 7905TIP3    H123679   6.462   1.636   2.476 -2.0578  0.7762 -1.2841
 7905TIP3    H223680   6.359   1.571   2.566  1.4378 -1.7354  1.2290
 7906TIP3   OH223681   2.811   0.194   1.627 -0.1634 -0.1162 -0.4807
 7906TIP3    H123682   2.777   0.211   1.539 -0.2622 -0.5010 -0.5196
 7906TIP3    H223683   2.743   0.141   1.668 -1.0619  1.6897  0.5173
 7907TIP3   OH223684   3.348   4.512   0.878 -0.2426  0.0617 -0.0345
 7907TIP3    H123685   3.373   4.579   0.814 -1.9574  2.7450  1.8635
 7907TIP3    H223686   3.406   4.529   0.953  0.5014 -1.8178 -0.1478
 7908TIP3   OH223687   1.032   5.096   1.342  0.0717  0.0087  0.1070
 7908TIP3    H123688   1.050   5.186   1.314  2.3334 -0.8125 -1.3774
 7908TIP3    H223689   1.094   5.081   1.414 -0.6815 -0.2022  0.7234
 7909TIP3   OH223690   0.261   0.896   4.656  0.2768  0.0580 -0.2080
 7909TIP3    H123691   0.333   0.856   4.705 -1.0280 -0.4793  1.3545
 7909TIP3    H223692   0.205   0.822   4.632 -0.9092  0.6793  0.5758
 7910TIP3   OH223693   4.065   4.553   1.502  0.2960 -0.6030  0.8030
 7910TIP3    H123694   4.041   4.643   1.482  3.6224  0.8326  2.4733
 7910TIP3    H223695   3.983   4.504   1.498 -1.7305  2.5759  0.4040
 7911TIP3   OH223696   0.990   2.176   1.706 -0.3676  0.1784 -0.2081
 7911TIP3    H123697   0.985   2.164   1.800  0.9034 -1.6846 -0.3316
 7911TIP3    H223698   0.899   2.188   1.678 -0.8775 -0.5186  1.0935
 7912TIP3   OH223699   6.738   0.544   4.497 -0.0291 -0.0936  0.1797
 7912TIP3    H123700   6.807   0.606   4.471 -0.3791  0.0077 -0.5314
 7912TIP3    H223701   6.704   0.580   4.579 -1.0165  1.3237 -0.8114
 7913TIP3   OH223702   4.499   1.496   0.896  0.2347 -0.0610 -0.0695
 7913TIP3    H123703   4.574   1.555   0.891 -0.0984  0.3348 -0.5453
 7913TIP3    H223704   4.458   1.515   0.981 -0.9275  1.7283 -0.9600
 7914TIP3   OH223705   2.973   6.481   5.790 -0.7077 -0.0906 -0.0462
 7914TIP3    H123706   2.914   6.483   5.715 -1.3660 -0.9943  0.4320
 7914TIP3    H223707   3.044   6.422   5.762 -0.5449  0.1928 -0.2404
 7915TIP3   OH223708   3.087   2.552   2.653  0.6644 -0.4493  0.8447
 7915TIP3    H123709   3.019   2.532   2.589  0.1920 -0.4706  1.3412
 7915TIP3    H223710   3.094   2.474   2.708 -0.5693  0.3555  2.2411
 7916TIP3   OH223711   3.045   3.786   1.559 -0.5299  0.1026 -0.0455
 7916TIP3    H123712   3.060   3.711   1.502  0.9126  0.5348 -0.2806
 7916TIP3    H223713   2.965   3.827   1.526 -0.4297 -0.3967 -0.9327
 7917TIP3   OH223714   3.267   5.207   2.568  0.3670 -0.2863  0.0515
 7917TIP3    H123715   3.322   5.145   2.520  0.6826  0.4922 -0.6047
 7917TIP3    H223716   3.215   5.152   2.626  0.7048 -1.1655 -0.4593
 7918TIP3   OH223717   4.118   0.731   1.967 -0.0504 -0.4601  0.1838
 7918TIP3    H123718   4.157   0.648   1.940 -1.9708 -1.4415  0.1983
 7918TIP3    H223719   4.043   0.742   1.908  0.6120  1.6961 -0.3336
 7919TIP3   OH223720   2.569   5.460   5.187 -0.9589  0.7378 -0.0199
 7919TIP3    H123721   2.540   5.549   5.168 -2.4237  0.4466  0.7284
 7919TIP3    H223722   2.489   5.409   5.195 -0.2354 -0.2631  1.4602
 7920TIP3   OH223723   7.177   5.271   1.760 -0.7439  0.2979 -0.4085
 7920TIP3    H123724   7.215   5.318   1.834 -0.2305 -1.4322  0.4827
 7920TIP3    H223725   7.097   5.232   1.794 -0.4284 -0.6415 -0.7092
 7921TIP3   OH223726   5.189   6.527   3.279 -0.0579  0.3147  0.2167
 7921TIP3    H123727   5.238   6.481   3.347  0.8830  1.5806  0.4125
 7921TIP3    H223728   5.123   6.463   3.250 -0.1942 -0.4050  1.9892
 7922TIP3   OH223729   6.579   5.636   0.875 -0.4531  0.0531  0.0922
 7922TIP3    H123730   6.641   5.564   0.886 -0.2927  0.1626 -0.0779
 7922TIP3    H223731   6.543   5.624   0.787 -0.9465 -0.2199  0.3332
 7923TIP3   OH223732   0.143   1.074   2.645  0.3138 -0.3980  0.1281
 7923TIP3    H123733   0.209   1.073   2.576 -2.6276 -0.1047 -2.9941
 7923TIP3    H223734   0.095   0.992   2.632 -0.5703 -0.1439  1.5865
 7924TIP3   OH223735   1.926   5.683   2.691 -0.1625  0.1023  0.7440
 7924TIP3    H123736   1.831   5.674   2.694 -0.2115 -0.6782 -1.2902
 7924TIP3    H223737   1.942   5.768   2.650  0.0790  0.9338  2.4700
 7925TIP3   OH223738   7.190   2.397   1.991 -0.7980  0.5480 -0.1814
 7925TIP3    H123739   7.234   2.466   1.941  0.2654  0.1382  0.1545
 7925TIP3    H223740   7.137   2.351   1.926  0.1073  0.3960 -0.8275
 7926TIP3   OH223741   6.131   6.452   4.470  0.7027 -0.6062 -0.1075
 7926TIP3    H123742   6.054   6.396   4.478  0.5043 -0.1842  1.1013
 7926TIP3    H223743   6.162   6.462   4.560  1.5243  0.1320 -0.4667
 7927TIP3   OH223744   4.214   5.240   5.663 -0.3144 -0.0267 -1.0200
 7927TIP3    H123745   4.234   5.146   5.659 -1.8877 -0.3916 -0.9336
 7927TIP3    H223746   4.223   5.262   5.756 -0.0862 -0.1201 -1.0193
 7928TIP3   OH223747   0.410   6.793   3.505 -0.1213 -0.0638  0.2393
 7928TIP3    H123748   0.431   6.736   3.580  0.8680 -1.4923 -1.0580
 7928TIP3    H223749   0.319   6.773   3.485  0.1710 -1.1351 -0.1093
 7929TIP3   OH223750   4.317   6.344   1.131  0.1807  0.2449  0.2218
 7929TIP3    H123751   4.302   6.251   1.115 -2.7136  0.9360 -1.9314
 7929TIP3    H223752   4.398   6.364   1.084  1.4961 -1.3608  1.7133
 7930TIP3   OH223753   4.527   3.100   3.564  0.1928 -0.6765  0.0435
 7930TIP3    H123754   4.582   3.169   3.603  2.3587 -1.3170 -1.6595
 7930TIP3    H223755   4.484   3.143   3.491 -0.3427 -0.5765  0.4102
 7931TIP3   OH223756   4.415   3.417   5.667  0.2935  0.0015  0.3242
 7931TIP3    H123757   4.336   3.369   5.646  0.7526 -0.6225  0.0054
 7931TIP3    H223758   4.410   3.497   5.613 -0.2812  0.1362  0.5741
 7932TIP3   OH223759   2.819   1.580   4.157  0.3353  0.6886 -0.0006
 7932TIP3    H123760   2.863   1.497   4.140 -2.1447 -0.9910  1.2646
 7932TIP3    H223761   2.768   1.596   4.078 -1.4865 -0.6152  0.8478
 7933TIP3   OH223762   1.619   3.890   4.992 -0.4786 -0.0257  0.1555
 7933TIP3    H123763   1.625   3.913   4.899 -0.4424 -0.3123  0.0888
 7933TIP3    H223764   1.710   3.880   5.020 -0.3447  2.1287  0.7400
 7934TIP3   OH223765   1.100   4.325   1.338 -0.2620 -0.3920 -0.6465
 7934TIP3    H123766   1.061   4.285   1.260  0.9615 -0.7936 -1.0868
 7934TIP3    H223767   1.045   4.296   1.410 -1.1128 -0.4451 -1.3018
 7935TIP3   OH223768   1.404   2.676   4.998 -0.7693 -0.2125  0.2550
 7935TIP3    H123769   1.394   2.756   5.049  1.0005  1.9036 -2.4532
 7935TIP3    H223770   1.458   2.701   4.924 -0.0668 -3.9821 -0.7212
 7936TIP3   OH223771   4.966   0.199   4.360  0.2246 -0.0565 -0.4321
 7936TIP3    H123772   5.017   0.125   4.326 -0.9617 -0.7112 -0.8400
 7936TIP3    H223773   4.969   0.264   4.289  0.1661 -0.2495 -0.6123
 7937TIP3   OH223774   4.759   4.451   2.535 -0.9243  0.5540 -0.2283
 7937TIP3    H123775   4.756   4.440   2.630 -0.4625  1.7593 -0.0459
 7937TIP3    H223776   4.675   4.491   2.513 -1.3711 -0.4974 -0.4510
 7938TIP3   OH223777   4.136   0.570   5.885 -0.7095  0.1799 -0.5886
 7938TIP3    H123778   4.206   0.513   5.918 -0.1346  0.8713 -0.5760
 7938TIP3    H223779   4.181   0.631   5.826 -1.4285  0.1623 -1.1589
 7939TIP3   OH223780   3.562   5.289   4.863 -0.4895  0.6656 -0.6877
 7939TIP3    H123781   3.503   5.286   4.787 -0.2679 -1.3920 -0.8378
 7939TIP3    H223782   3.649   5.303   4.826 -0.4530  0.2168 -0.7781
 7940TIP3   OH223783   5.520   1.398   5.802  0.5755  0.0354 -0.1711
 7940TIP3    H123784   5.425   1.386   5.806  0.8686 -2.3843  1.1172
 7940TIP3    H223785   5.546   1.362   5.718  0.6408 -2.1501  0.7368
 7941TIP3   OH223786   4.778   5.368   4.222 -0.2351 -0.2951  0.1568
 7941TIP3    H123787   4.861   5.322   4.233  0.2264 -0.0129 -1.7611
 7941TIP3    H223788   4.729   5.314   4.160 -0.2995  0.9722 -0.9493
 7942TIP3   OH223789   5.402   3.884   1.690  0.4695  0.1059  0.9941
 7942TIP3    H123790   5.417   3.816   1.755  0.8873  2.0158  2.9963
 7942TIP3    H223791   5.453   3.959   1.721 -0.3626  1.5095 -0.8475
 7943TIP3   OH223792   0.480   0.444   5.748  0.2518  0.8845 -0.6183
 7943TIP3    H123793   0.459   0.532   5.716 -0.5609  1.2807  0.8993
 7943TIP3    H223794   0.510   0.458   5.838  0.5954 -0.3440 -0.5273
 7944TIP3   OH223795   0.293   3.678   1.176 -0.2099 -0.0813  0.8334
 7944TIP3    H123796   0.214   3.723   1.145  1.0042  1.4568 -0.1742
 7944TIP3    H223797   0.344   3.746   1.220 -0.2918 -1.4884  3.2434
 7945TIP3   OH223798   4.326   2.809   0.770  0.1444 -0.9412  0.3419
 7945TIP3    H123799   4.369   2.817   0.684  0.9122  1.4820  0.8544
 7945TIP3    H223800   4.399   2.801   0.832 -0.2355  0.2111  0.9664
 7946TIP3   OH223801   2.267   2.532   1.352  0.0944 -0.1919  0.4439
 7946TIP3    H123802   2.243   2.451   1.397  0.1470  0.0190  0.8648
 7946TIP3    H223803   2.242   2.518   1.261  0.5533 -0.8659  0.4124
 7947TIP3   OH223804   6.807   5.347   5.181  0.3972  0.2717  0.0141
 7947TIP3    H123805   6.896   5.312   5.184  0.3361  0.0904 -0.2598
 7947TIP3    H223806   6.762   5.292   5.117 -0.7014 -1.4857  2.1682
 7948TIP3   OH223807   3.755   4.791   0.709 -0.3285  0.1099  0.1877
 7948TIP3    H123808   3.777   4.858   0.644 -0.0206 -1.3689 -1.3021
 7948TIP3    H223809   3.743   4.711   0.658 -1.5747 -0.7956  1.8198
 7949TIP3   OH223810   0.348   6.206   3.929  0.6569  0.2013 -0.4583
 7949TIP3    H123811   0.275   6.268   3.929  1.8370  1.6879 -1.4203
 7949TIP3    H223812   0.307   6.121   3.914 -0.9921  0.7840  0.4886
 7950TIP3   OH223813   6.709   6.485   3.505  0.5678  0.4979 -0.0926
 7950TIP3    H123814   6.652   6.560   3.516 -0.6550 -0.4454  0.1693
 7950TIP3    H223815   6.673   6.438   3.430  0.1671 -0.8220  0.8947
 7951TIP3   OH223816   3.340   2.599   4.493  0.5552 -0.3998 -0.0554
 7951TIP3    H123817   3.432   2.604   4.467  0.3073  1.2551 -0.6883
 7951TIP3    H223818   3.293   2.581   4.412  0.2793 -1.0055  0.2315
 7952TIP3   OH223819   5.687   2.259   5.869 -0.2369 -0.1133  0.0364
 7952TIP3    H123820   5.668   2.167   5.853 -0.9798  0.3419 -2.0012
 7952TIP3    H223821   5.779   2.269   5.845 -0.2984 -0.2295 -0.2539
 7953TIP3   OH223822   1.419   6.678   1.619  0.2296 -0.0377  0.7546
 7953TIP3    H123823   1.362   6.604   1.600 -0.2445  0.2569  0.9968
 7953TIP3    H223824   1.503   6.639   1.641 -0.4599 -0.6243  2.5728
 7954TIP3   OH223825   6.967   4.486   2.566  0.2351 -0.7600 -0.0419
 7954TIP3    H123826   6.880   4.465   2.602  0.2491 -1.0665 -0.1863
 7954TIP3    H223827   6.948   4.539   2.488  0.2360  1.0588  1.1436
 7955TIP3   OH223828   6.774   5.531   0.333  0.3031 -0.0193 -0.1071
 7955TIP3    H123829   6.696   5.476   0.342  1.3296 -1.8528 -1.6079
 7955TIP3    H223830   6.846   5.473   0.359  1.3537  0.9209 -0.8676
 7956TIP3   OH223831   6.315   2.498   1.556  0.1575 -0.0034 -0.1089
 7956TIP3    H123832   6.330   2.419   1.608 -0.0113 -0.0095 -0.0673
 7956TIP3    H223833   6.402   2.526   1.528  0.1186 -0.8030 -1.0250
 7957TIP3   OH223834   6.493   0.693   2.957  0.1764 -0.4196  0.2999
 7957TIP3    H123835   6.422   0.701   2.893  0.6760 -2.2481 -0.5480
 7957TIP3    H223836   6.560   0.752   2.925 -0.2280 -0.0898  0.0492
 7958TIP3   OH223837   1.829   4.069   0.104  0.3007  0.2632 -0.4139
 7958TIP3    H123838   1.773   4.146   0.112 -0.6374 -0.2922 -1.2990
 7958TIP3    H223839   1.916   4.104   0.083  0.1417  1.1126  0.2903
 7959TIP3   OH223840   4.668   4.410   1.352  0.5522 -0.0116  0.2488
 7959TIP3    H123841   4.625   4.423   1.267 -0.3074 -1.3120  0.4666
 7959TIP3    H223842   4.618   4.341   1.394  1.9433 -0.5005  1.1583
 7960TIP3   OH223843   6.607   2.015   3.743  0.1310 -0.2191 -0.0204
 7960TIP3    H123844   6.696   2.045   3.722  0.6344 -1.2684  0.4981
 7960TIP3    H223845   6.559   2.095   3.764  0.8626  0.4027 -0.6392
 7961TIP3   OH223846   3.486   5.769   1.674 -0.2262  0.0642 -0.1949
 7961TIP3    H123847   3.417   5.828   1.643 -0.3328 -0.3494 -0.7635
 7961TIP3    H223848   3.438   5.696   1.712 -0.0943  0.3069  0.4398
 7962TIP3   OH223849   5.877   4.878   2.261  0.8849  0.3599 -0.0679
 7962TIP3    H123850   5.884   4.833   2.177  2.1532 -0.6972  0.5779
 7962TIP3    H223851   5.853   4.809   2.323 -0.2298  1.1593  0.4431
 7963TIP3   OH223852   2.748   3.474   2.614 -0.1603  0.5542 -0.5284
 7963TIP3    H123853   2.724   3.415   2.542 -0.4658  1.8524 -1.5390
 7963TIP3    H223854   2.696   3.444   2.688 -0.2233 -0.5036 -0.9813
 7964TIP3   OH223855   0.768   3.437   2.014  0.0187  0.0467 -0.7166
 7964TIP3    H123856   0.831   3.384   1.965  0.6371 -0.5847  0.7056
 7964TIP3    H223857   0.802   3.526   2.008  0.3494 -0.0968 -1.0267
 7965TIP3   OH223858   4.017   0.417   3.692  0.2620  0.1615  0.7294
 7965TIP3    H123859   4.094   0.450   3.739 -0.1716 -0.6174  2.0124
 7965TIP3    H223860   4.054   0.365   3.621  0.9391 -0.2523  1.3672
 7966TIP3   OH223861   0.405   4.430   0.113  0.1059  0.2075  0.1148
 7966TIP3    H123862   0.374   4.383   0.036  0.0772  1.0057 -0.3735
 7966TIP3    H223863   0.336   4.418   0.179  0.5901 -1.3160  0.3649
 7967TIP3   OH223864   7.188   1.168   2.268 -1.0637  0.3177 -0.2411
 7967TIP3    H123865   7.162   1.090   2.317 -0.7058  0.6501  0.4921
 7967TIP3    H223866   7.115   1.228   2.279 -0.2265  1.1091  1.5069
 7968TIP3   OH223867   5.493   4.436   3.025 -0.3790 -0.0402  0.0397
 7968TIP3    H123868   5.517   4.392   3.106  0.1304  0.7581  0.3306
 7968TIP3    H223869   5.407   4.472   3.042 -0.5660 -0.4534 -0.0142
 7969TIP3   OH223870   0.455   1.617   0.978 -0.0669 -0.5799 -0.0797
 7969TIP3    H123871   0.396   1.579   1.042  0.6988  0.3624  1.2362
 7969TIP3    H223872   0.533   1.641   1.028 -0.1100  1.7719 -0.9781
 7970TIP3   OH223873   3.915   5.156   5.338  0.2095  0.1096  0.7678
 7970TIP3    H123874   3.853   5.221   5.369 -0.6840 -0.3222 -0.0737
 7970TIP3    H223875   3.865   5.075   5.331  0.7614 -0.1720 -0.2291
 7971TIP3   OH223876   0.933   4.449   2.731 -0.5937  0.0827 -0.1042
 7971TIP3    H123877   0.910   4.404   2.650  0.3161  1.9161 -1.4687
 7971TIP3    H223878   1.014   4.407   2.759  0.4807  1.0352 -1.5949
 7972TIP3   OH223879   1.115   0.738   5.854 -0.2903 -0.0804 -0.2116
 7972TIP3    H123880   1.208   0.758   5.842  0.3559 -1.9041  1.3239
 7972TIP3    H223881   1.089   0.788   5.931 -1.0129  1.5170 -1.4267
 7973TIP3   OH223882   1.766   3.247   1.096 -0.0273 -0.0221 -0.0341
 7973TIP3    H123883   1.856   3.231   1.125  0.4246  0.3320 -1.1639
 7973TIP3    H223884   1.757   3.343   1.100 -0.2320 -0.0309 -0.2597
 7974TIP3   OH223885   3.053   5.862   2.734 -0.7728 -0.2988 -0.0471
 7974TIP3    H123886   3.038   5.788   2.676 -1.6503  1.0947 -1.6899
 7974TIP3    H223887   2.987   5.854   2.802  0.9000 -2.5153  1.4601
 7975TIP3   OH223888   5.287   0.421   2.427 -0.0295 -0.2055 -0.8065
 7975TIP3    H123889   5.349   0.436   2.498  0.0638 -1.3316 -0.6246
 7975TIP3    H223890   5.216   0.370   2.467 -0.1010 -0.6265 -1.4581
 7976TIP3   OH223891   1.823   2.160   5.762  0.2725  0.1399  0.2677
 7976TIP3    H123892   1.877   2.187   5.837  1.8119  3.5267 -1.8190
 7976TIP3    H223893   1.874   2.186   5.686 -2.6894  0.0066 -1.9212
 7977TIP3   OH223894   4.108   0.610   0.376 -0.0137 -0.0066  0.0338
 7977TIP3    H123895   4.076   0.676   0.314  1.7090  0.8894  0.0545
 7977TIP3    H223896   4.162   0.551   0.323 -1.1277 -1.1479  0.1136
 7978TIP3   OH223897   2.706   2.063   4.902 -0.2707 -0.0910 -0.5365
 7978TIP3    H123898   2.655   2.079   4.981  0.3416  0.8159 -0.3024
 7978TIP3    H223899   2.773   2.000   4.929  0.0539  0.3604 -0.2729
 7979TIP3   OH223900   5.452   5.875   1.590 -0.0192 -0.3866 -0.0020
 7979TIP3    H123901   5.385   5.886   1.522  1.2261  0.9428 -1.0864
 7979TIP3    H223902   5.403   5.876   1.672 -1.4832 -1.1932 -0.8231
 7980TIP3   OH223903   5.289   3.610   4.219 -1.0980 -0.1800 -0.4037
 7980TIP3    H123904   5.236   3.541   4.258 -2.2095  0.9223  0.1124
 7980TIP3    H223905   5.380   3.585   4.240 -1.5829 -0.3536  1.7395
 7981TIP3   OH223906   0.801   3.515   0.634  0.3212  0.3615 -0.1664
 7981TIP3    H123907   0.832   3.499   0.545 -0.9594 -0.2674 -0.5232
 7981TIP3    H223908   0.777   3.428   0.666 -0.2140  0.7202  0.4157
 7982TIP3   OH223909   6.458   6.681   2.349 -0.1005  0.5660  0.3951
 7982TIP3    H123910   6.458   6.675   2.444  1.3161 -0.9340  0.3481
 7982TIP3    H223911   6.395   6.750   2.329  2.1374  3.4675  2.5713
 7983TIP3   OH223912   6.536   0.825   5.171 -0.4280 -0.2792  0.1131
 7983TIP3    H123913   6.443   0.831   5.192 -0.1715 -0.5126  1.3504
 7983TIP3    H223914   6.578   0.795   5.251  0.8082  0.4204 -0.2398
 7984TIP3   OH223915   3.075   3.578   5.673 -0.2319 -0.1225 -0.0645
 7984TIP3    H123916   3.055   3.661   5.630 -2.4912 -0.9014 -0.6757
 7984TIP3    H223917   3.154   3.546   5.630  0.6810  1.7009  0.1990
 7985TIP3   OH223918   1.052   4.084   4.283 -0.3355 -0.9275 -0.4213
 7985TIP3    H123919   1.011   4.116   4.364 -0.8155  0.8544 -1.3137
 7985TIP3    H223920   0.979   4.060   4.227 -0.0372 -1.3231 -0.6414
 7986TIP3   OH223921   6.239   6.489   0.423  0.6706  0.2651 -0.5875
 7986TIP3    H123922   6.197   6.471   0.507  0.8585  1.5865 -0.1736
 7986TIP3    H223923   6.198   6.429   0.361  0.6707 -0.8757  0.4767
 7987TIP3   OH223924   4.543   3.216   4.790  0.4762  0.2294 -0.1550
 7987TIP3    H123925   4.502   3.282   4.734  1.9185  1.0064 -0.3681
 7987TIP3    H223926   4.566   3.144   4.731 -2.3112 -1.1429  0.2986
 7988TIP3   OH223927   3.253   2.391   5.890  0.0125  0.1714  0.1758
 7988TIP3    H123928   3.163   2.393   5.859  0.7928  1.1608 -2.2472
 7988TIP3    H223929   3.301   2.342   5.824  1.4333  0.4422  0.9590
 7989TIP3   OH223930   2.644   3.054   5.834 -0.3333 -0.6338  0.5411
 7989TIP3    H123931   2.675   3.126   5.889  0.5875  0.1014 -0.8585
 7989TIP3    H223932   2.665   2.975   5.883 -0.8936  0.0244  1.8867
 7990TIP3   OH223933   1.246   5.088   0.946  0.3819 -0.0567  0.4632
 7990TIP3    H123934   1.306   5.131   0.885 -0.9294 -0.8090 -1.4242
 7990TIP3    H223935   1.195   5.160   0.984  2.3462  0.5947  2.0847
 7991TIP3   OH223936   5.677   5.885   1.731  0.4227  1.0885 -0.1318
 7991TIP3    H123937   5.747   5.869   1.667 -0.4527 -0.0727 -0.8471
 7991TIP3    H223938   5.597   5.882   1.679 -0.2655  0.7827  0.9272
 7992TIP3   OH223939   4.549   6.246   0.574 -0.7332 -0.0108  0.2135
 7992TIP3    H123940   4.473   6.238   0.516 -0.6751  3.1144 -0.5063
 7992TIP3    H223941   4.625   6.239   0.515 -0.6770  4.5959 -0.6400
 7993TIP3   OH223942   4.019   2.283   2.985 -0.0954  1.0092  0.7041
 7993TIP3    H123943   3.958   2.229   3.035  1.0244  1.1658  2.3008
 7993TIP3    H223944   4.049   2.225   2.915 -0.8405  0.4076  0.8579
 7994TIP3   OH223945   5.023   3.229   5.791 -0.4335  0.4235  0.3958
 7994TIP3    H123946   5.047   3.275   5.871 -0.5578  0.3690  0.4661
 7994TIP3    H223947   5.070   3.146   5.796 -0.9856  0.1274  0.7530
 7995TIP3   OH223948   6.507   4.978   3.109 -0.0810  0.3893 -0.0941
 7995TIP3    H123949   6.457   5.047   3.152  1.0694  1.6790 -0.7643
 7995TIP3    H223950   6.524   5.011   3.021  1.6363 -0.1470  0.0055
 7996TIP3   OH223951   1.092   6.750   3.101 -0.4306  0.2841  0.1946
 7996TIP3    H123952   1.150   6.747   3.178  0.0627  0.0856 -0.1784
 7996TIP3    H223953   1.129   6.818   3.046  0.0021 -0.4628 -0.4691
 7997TIP3   OH223954   1.729   5.772   2.067 -0.2513  0.8868 -0.0495
 7997TIP3    H123955   1.638   5.798   2.081 -0.8797 -0.2773 -1.6659
 7997TIP3    H223956   1.768   5.846   2.020 -1.2035  0.2678 -1.9452
 7998TIP3   OH223957   5.344   2.582   0.254 -0.1099 -0.5556  0.1871
 7998TIP3    H123958   5.421   2.613   0.206 -1.1361  0.2387 -0.9909
 7998TIP3    H223959   5.374   2.500   0.296  1.0115 -0.9441 -1.2822
 7999TIP3   OH223960   3.621   3.264   5.842  0.4395 -0.1555  0.2902
 7999TIP3    H123961   3.702   3.245   5.795 -1.1345 -3.7211 -1.3049
 7999TIP3    H223962   3.607   3.358   5.827  3.2881  0.1948 -0.8826
 8000TIP3   OH223963   5.176   0.903   1.549  0.3526 -0.0559 -0.5189
 8000TIP3    H123964   5.152   0.812   1.564 -0.8224  0.3194 -0.0667
 8000TIP3    H223965   5.251   0.898   1.489  0.6843 -1.3276 -0.0274
 8001TIP3   OH223966   2.696   0.961   5.415 -0.5032 -0.7137  0.4203
 8001TIP3    H123967   2.684   0.868   5.395  2.9280 -1.0820 -0.4737
 8001TIP3    H223968   2.708   0.964   5.510  0.1757 -1.3197  0.3601
 8002TIP3   OH223969   4.586   0.306   5.539  0.6257  0.1771 -0.3103
 8002TIP3    H123970   4.654   0.256   5.583 -0.9166 -0.8293  1.0448
 8002TIP3    H223971   4.633   0.364   5.479  2.5739 -1.5844 -0.5862
 8003TIP3   OH223972   3.019   2.272   3.513 -0.1015  0.7074  0.3754
 8003TIP3    H123973   3.080   2.203   3.487 -1.2234  0.4372 -1.7593
 8003TIP3    H223974   3.073   2.350   3.523  0.5685  0.6998 -2.3365
 8004TIP3   OH223975   3.777   2.087   2.365 -0.3868  0.3326  0.0922
 8004TIP3    H123976   3.854   2.130   2.327 -0.2429  0.8455  0.9234
 8004TIP3    H223977   3.785   2.105   2.459 -1.2107 -0.1214  0.2505
 8005TIP3   OH223978   0.382   1.034   3.382 -0.1490 -0.3553 -0.2516
 8005TIP3    H123979   0.330   1.092   3.438 -0.2565 -0.8556  0.1805
 8005TIP3    H223980   0.317   0.974   3.344  0.1109 -1.0088  0.3206
 8006TIP3   OH223981   3.517   6.128   1.189  0.5497 -0.2818 -0.2772
 8006TIP3    H123982   3.440   6.181   1.168  1.5996  1.2260 -0.5149
 8006TIP3    H223983   3.579   6.145   1.118  1.5705 -0.4692  0.5385
 8007TIP3   OH223984   0.170   2.638   4.673  0.1985  0.0512  0.9891
 8007TIP3    H123985   0.160   2.604   4.584 -0.7055 -0.3332  1.2276
 8007TIP3    H223986   0.111   2.584   4.726 -0.0574  0.9489  1.6449
 8008TIP3   OH223987   4.257   6.057   0.154  0.0038 -0.2039 -0.0370
 8008TIP3    H123988   4.190   6.023   0.214  0.0060  0.5274  0.3920
 8008TIP3    H223989   4.320   5.985   0.146 -1.3740 -1.3504 -1.3464
 8009TIP3   OH223990   0.182   6.304   1.048  0.3955 -0.5697 -0.2320
 8009TIP3    H123991   0.137   6.322   1.130 -3.7447  0.1398 -2.3743
 8009TIP3    H223992   0.155   6.215   1.024  0.3158 -0.2403 -1.4678
 8010TIP3   OH223993   1.437   6.662   0.939 -0.3970  0.1706  0.4856
 8010TIP3    H123994   1.459   6.737   0.994 -1.1176  0.5723  0.2351
 8010TIP3    H223995   1.341   6.660   0.939 -0.3968 -0.0909 -0.3974
 8011TIP3   OH223996   2.088   5.967   1.229  0.0665 -0.7344 -0.1093
 8011TIP3    H123997   2.143   6.044   1.241 -0.6923  0.0135 -1.2180
 8011TIP3    H223998   2.045   5.953   1.313 -2.0408  1.8627 -0.6140
 8012TIP3   OH223999   4.024   4.022   1.162  0.7626 -0.2775  0.4640
 8012TIP3    H124000   4.068   3.953   1.112 -1.4149 -1.2620 -0.2198
 8012TIP3    H224001   3.982   3.977   1.234 -1.1130  0.2051 -0.2762
 8013TIP3   OH224002   3.772   1.537   0.383  0.2851 -0.1117 -0.1415
 8013TIP3    H124003   3.750   1.498   0.298  0.3378  0.5959 -0.4895
 8013TIP3    H224004   3.784   1.462   0.442  2.0783 -0.7086 -1.1829
 8014TIP3   OH224005   3.030   5.308   5.653 -0.3343  0.0206  0.1879
 8014TIP3    H124006   3.046   5.391   5.697  0.6920 -0.0558 -0.0076
 8014TIP3    H224007   2.945   5.319   5.611 -0.8147  0.4859  1.2616
 8015TIP3   OH224008   0.413   3.121   0.652 -0.6997  0.0391 -0.2463
 8015TIP3    H124009   0.440   3.122   0.744 -1.2922 -0.5130 -0.0571
 8015TIP3    H224010   0.423   3.029   0.625 -1.9446 -0.1073 -0.2888
 8016TIP3   OH224011   1.299   2.789   2.371 -0.0600 -0.6078 -0.2528
 8016TIP3    H124012   1.225   2.842   2.339  0.5103 -0.6250 -1.7068
 8016TIP3    H224013   1.375   2.827   2.327  0.6808 -1.1634  0.5235
 8017TIP3   OH224014   0.294   3.221   3.908 -0.3197 -0.6639  0.1084
 8017TIP3    H124015   0.328   3.240   3.821 -1.1090 -0.4314 -0.1594
 8017TIP3    H224016   0.200   3.205   3.894 -0.6646  0.4097  1.0524
 8018TIP3   OH224017   3.565   3.901   3.597  0.2683  0.0059  0.6590
 8018TIP3    H124018   3.636   3.919   3.536 -0.8162  1.5885 -0.2243
 8018TIP3    H224019   3.491   3.952   3.563 -0.5197  0.5755  3.0474
 8019TIP3   OH224020   0.248   1.608   4.727  0.4133  0.0289 -0.5377
 8019TIP3    H124021   0.221   1.546   4.794  0.8428 -0.3530 -0.7104
 8019TIP3    H224022   0.245   1.694   4.770  0.3960 -0.1799 -0.1198
 8020TIP3   OH224023   1.835   1.613   4.338 -1.0271 -0.7600 -0.2048
 8020TIP3    H124024   1.821   1.523   4.366  0.3294 -1.2483 -0.9950
 8020TIP3    H224025   1.912   1.642   4.387  0.3671 -1.0719 -2.0999
 8021TIP3   OH224026   5.045   5.225   0.389 -0.4223 -0.2469  0.2579
 8021TIP3    H124027   5.091   5.165   0.448 -0.7950  0.0935  0.9035
 8021TIP3    H224028   5.094   5.220   0.307 -0.4974 -1.5053  0.2668
 8022TIP3   OH224029   1.006   2.783   1.095 -0.1890 -0.1786 -0.1959
 8022TIP3    H124030   1.050   2.699   1.079 -1.8375 -0.8535 -1.4762
 8022TIP3    H224031   1.012   2.829   1.012 -2.2226 -0.4886 -0.5710
 8023TIP3   OH224032   5.418   1.035   4.477  0.6821  0.7097 -0.0213
 8023TIP3    H124033   5.504   0.993   4.473  0.1116 -0.5069  0.0045
 8023TIP3    H224034   5.436   1.126   4.500  1.8384  0.0452  1.8721
 8024TIP3   OH224035   5.289   3.648   0.231 -0.1906 -0.2038 -0.4337
 8024TIP3    H124036   5.231   3.724   0.226  0.1951  0.0150 -1.6779
 8024TIP3    H224037   5.236   3.581   0.275 -0.6393  0.6623  0.3834
 8025TIP3   OH224038   6.904   3.319   0.901 -0.2624  0.4776  0.5261
 8025TIP3    H124039   6.850   3.393   0.874 -0.7628 -0.6112 -1.6459
 8025TIP3    H224040   6.990   3.337   0.865 -0.6060 -0.3574 -0.7980
 8026TIP3   OH224041   4.137   3.108   1.775  0.9117 -0.0754  0.3529
 8026TIP3    H124042   4.175   3.188   1.736  0.9857  0.3706  1.3100
 8026TIP3    H224043   4.197   3.038   1.748  0.9683  0.2194 -0.3157
 8027TIP3   OH224044   4.566   1.932   0.263 -0.4709  0.0421  0.3888
 8027TIP3    H124045   4.616   1.895   0.190 -0.4268  0.2313  0.3220
 8027TIP3    H224046   4.483   1.960   0.224  0.4628  2.3674 -0.1170
 8028TIP3   OH224047   6.345   4.099   0.996 -0.9273  0.2454  0.0541
 8028TIP3    H124048   6.404   4.102   1.072  0.8102  2.0839 -1.2521
 8028TIP3    H224049   6.287   4.025   1.014  0.8270 -0.7570  2.1288
 8029TIP3   OH224050   0.645   6.706   1.787  0.2201  0.3398  0.4550
 8029TIP3    H124051   0.718   6.720   1.847  0.9514  1.9171 -0.7107
 8029TIP3    H224052   0.566   6.722   1.839  0.6453 -1.4958  1.7640
 8030TIP3   OH224053   4.129   5.599   5.526 -0.2607 -0.3912 -0.5558
 8030TIP3    H124054   4.092   5.548   5.598  1.0771 -1.2448 -0.4388
 8030TIP3    H224055   4.153   5.534   5.460  1.6911  0.0190 -0.3095
 8031TIP3   OH224056   3.387   4.107   0.629  0.5559 -0.0775 -0.3061
 8031TIP3    H124057   3.385   4.131   0.722 -0.3595  0.0504 -0.3497
 8031TIP3    H224058   3.426   4.182   0.586  0.7030 -0.0106 -0.0627
 8032TIP3   OH224059   2.410   0.679   5.858  0.9577 -0.1574 -0.4478
 8032TIP3    H124060   2.367   0.762   5.838  1.0343 -0.4084 -1.7062
 8032TIP3    H224061   2.491   0.680   5.808  0.7027 -1.2070 -0.9247
 8033TIP3   OH224062   6.316   2.177   4.553 -0.1349 -0.1168  0.0987
 8033TIP3    H124063   6.325   2.137   4.639 -1.4806 -0.2779  0.1809
 8033TIP3    H224064   6.316   2.103   4.492 -0.5126 -0.0992  0.0754
 8034TIP3   OH224065   4.326   3.936   4.842  0.2231 -0.2558 -0.4712
 8034TIP3    H124066   4.317   3.951   4.937  1.2315  0.6177 -0.4942
 8034TIP3    H224067   4.372   3.852   4.836  1.5646  0.4386 -0.1368
 8035TIP3   OH224068   2.271   0.484   5.486  0.4131 -0.0722  0.0507
 8035TIP3    H124069   2.295   0.485   5.393  1.9311  1.7956  0.3999
 8035TIP3    H224070   2.225   0.401   5.498  2.0891 -1.3758 -1.8800
 8036TIP3   OH224071   2.674   3.967   4.222 -0.5038  0.3500  0.0794
 8036TIP3    H124072   2.705   4.006   4.141  0.8305 -0.1896  0.3041
 8036TIP3    H224073   2.661   3.874   4.200 -0.0691  0.1879  0.4869
 8037TIP3   OH224074   3.540   4.391   3.464  0.0015 -0.1823  0.6751
 8037TIP3    H124075   3.522   4.374   3.557 -0.5186  0.1147  0.6326
 8037TIP3    H224076   3.465   4.441   3.434 -0.9097 -2.1546 -0.4774
 8038TIP3   OH224077   5.680   0.230   5.636  0.1268 -0.0132 -0.5025
 8038TIP3    H124078   5.746   0.241   5.705  0.6133  0.1143 -0.9866
 8038TIP3    H224079   5.608   0.288   5.662  1.1238  1.5560 -1.1151
 8039TIP3   OH224080   4.229   1.558   3.418 -1.0079 -0.4662 -0.1619
 8039TIP3    H124081   4.268   1.562   3.506 -1.1657 -1.6778 -0.0174
 8039TIP3    H224082   4.134   1.563   3.435 -1.0272 -0.4294 -0.2835
 8040TIP3   OH224083   5.569   5.125   2.349  0.1744 -0.2267 -0.7559
 8040TIP3    H124084   5.565   5.055   2.283  0.7575 -1.2720  0.2710
 8040TIP3    H224085   5.559   5.079   2.433 -0.9444  1.1142 -0.1157
 8041TIP3   OH224086   4.300   6.251   3.084 -0.5395 -0.3884 -0.2225
 8041TIP3    H124087   4.227   6.293   3.038  1.5798  3.2344 -0.7192
 8041TIP3    H224088   4.368   6.242   3.017  1.2563  1.3717  1.2448
 8042TIP3   OH224089   4.164   0.048   5.696 -0.8150 -0.1363  0.0794
 8042TIP3    H124090   4.113   0.105   5.753 -1.1188  0.1909 -0.5154
 8042TIP3    H224091   4.133   0.067   5.608 -1.2694 -1.5676 -0.0998
 8043TIP3   OH224092   5.168   0.041   1.421 -0.0725 -0.3960 -0.2117
 8043TIP3    H124093   5.217   0.020   1.342  3.1732  1.5848  1.0717
 8043TIP3    H224094   5.195  -0.026   1.484  0.5916  0.3587  0.3290
 8044TIP3   OH224095   2.240   6.557   3.790 -0.0297 -0.2043  0.0611
 8044TIP3    H124096   2.298   6.592   3.857 -0.6734 -0.4292  0.7476
 8044TIP3    H224097   2.260   6.609   3.712 -0.0787  0.8510  0.7204
 8045TIP3   OH224098   1.823   4.709   2.835 -0.2604  0.0644 -0.2916
 8045TIP3    H124099   1.878   4.644   2.791  0.1362  1.0134 -1.2356
 8045TIP3    H224100   1.885   4.774   2.869 -0.6091 -0.3002  1.1456
 8046TIP3   OH224101   4.082   4.127   4.550  0.3565 -0.1315 -0.3319
 8046TIP3    H124102   4.155   4.104   4.606 -0.4768 -0.0187  0.8320
 8046TIP3    H224103   4.053   4.212   4.581  1.4741  1.1943 -2.6161
 8047TIP3   OH224104   6.055   6.721   2.732 -0.1588 -0.4527  0.2909
 8047TIP3    H124105   6.074   6.651   2.670 -0.9473 -0.2536 -0.1930
 8047TIP3    H224106   6.141   6.748   2.765  0.2724 -0.6374 -0.6379
 8048TIP3   OH224107   5.578   1.542   0.886  0.2419 -0.3696 -0.3013
 8048TIP3    H124108   5.532   1.490   0.821 -0.0064 -1.5442  0.7728
 8048TIP3    H224109   5.543   1.513   0.970  0.1246  1.5178  0.3662
 8049TIP3   OH224110   5.194   1.571   3.948  0.1251 -0.4039 -0.5809
 8049TIP3    H124111   5.133   1.574   4.022 -0.1545  0.7966 -0.8419
 8049TIP3    H224112   5.179   1.485   3.909 -0.8557 -0.4303 -0.1795
 8050TIP3   OH224113   2.553   6.240   1.274 -0.1302 -0.1216  0.0316
 8050TIP3    H124114   2.604   6.160   1.288 -1.3152 -1.1834 -1.3433
 8050TIP3    H224115   2.586   6.274   1.190 -1.1768 -0.4429 -0.5222
 8051TIP3   OH224116   6.161   0.450   4.585  0.0357  0.2734 -0.4055
 8051TIP3    H124117   6.070   0.436   4.560  0.0141  1.4704 -1.0515
 8051TIP3    H224118   6.158   0.464   4.680 -0.7743  2.6142 -0.7217
 8052TIP3   OH224119   5.545   3.346   2.557 -0.8964  0.1272  0.6416
 8052TIP3    H124120   5.598   3.318   2.632 -0.0885 -1.2019 -0.3860
 8052TIP3    H224121   5.582   3.430   2.532  0.7755 -0.7531 -0.0285
 8053TIP3   OH224122   3.647   6.666   1.286  0.6601 -0.2722 -0.2220
 8053TIP3    H124123   3.611   6.582   1.315 -0.8769  0.2815 -0.4102
 8053TIP3    H224124   3.582   6.731   1.315  2.4992  1.0354  1.1997
 8054TIP3   OH224125   3.252   1.311   0.622  0.1030 -0.0506 -0.2206
 8054TIP3    H124126   3.246   1.232   0.676  0.6743  0.1412  0.1300
 8054TIP3    H224127   3.190   1.295   0.550 -0.5439 -0.3766  0.3959
 8055TIP3   OH224128   5.699   1.122   0.210 -0.2410  0.3788 -0.9326
 8055TIP3    H124129   5.784   1.131   0.167  0.7251  1.1065  1.0120
 8055TIP3    H224130   5.682   1.207   0.249 -0.5790 -0.4915  0.9470
 8056TIP3   OH224131   4.856   5.090   5.275 -0.4902  0.7557  0.0753
 8056TIP3    H124132   4.946   5.119   5.268 -0.8824  1.9840 -0.0621
 8056TIP3    H224133   4.856   5.030   5.350  0.7539 -0.6669 -0.9864
 8057TIP3   OH224134   4.302   1.674   5.846 -0.0680 -0.0670  0.5375
 8057TIP3    H124135   4.291   1.589   5.805  0.2970 -0.4132  1.1381
 8057TIP3    H224136   4.388   1.670   5.888 -0.4142  0.2714  1.3142
 8058TIP3   OH224137   2.502   6.049   2.071 -0.2868  0.0274 -0.4929
 8058TIP3    H124138   2.438   5.981   2.092 -1.1152  1.1083  0.6570
 8058TIP3    H224139   2.521   6.037   1.978 -0.1511 -1.9622 -0.2550
 8059TIP3   OH224140   0.415   6.633   1.631  0.3677 -0.3771 -0.2908
 8059TIP3    H124141   0.361   6.565   1.592  0.6240 -1.9820  1.9707
 8059TIP3    H224142   0.469   6.588   1.696  0.5966  1.9475  1.2859
 8060TIP3   OH224143   3.014   2.325   0.212 -0.5879 -0.2245 -0.8383
 8060TIP3    H124144   2.995   2.247   0.264  0.5528  0.6347  0.9734
 8060TIP3    H224145   2.930   2.371   0.207 -0.8833 -0.7010 -0.3837
 8061TIP3   OH224146   3.220   3.189   1.245  0.0598 -0.1185 -0.0626
 8061TIP3    H124147   3.194   3.176   1.153  1.2131  0.4654 -0.4778
 8061TIP3    H224148   3.197   3.106   1.287 -0.6438 -0.3335 -0.8358
 8062TIP3   OH224149   2.679   3.240   0.112 -0.5185 -0.0212 -0.3923
 8062TIP3    H124150   2.584   3.243   0.123 -0.5192  0.7209 -0.4901
 8062TIP3    H224151   2.702   3.147   0.115 -1.1873 -0.1737  0.1149
 8063TIP3   OH224152   2.135   6.201   4.982  0.6230 -1.0670 -0.4192
 8063TIP3    H124153   2.181   6.247   4.912  0.4491 -0.5777 -0.2184
 8063TIP3    H224154   2.083   6.134   4.937  1.3366 -1.4593 -0.6627
 8064TIP3   OH224155   3.429   1.651   4.370 -0.3877 -0.2852  0.3274
 8064TIP3    H124156   3.355   1.709   4.388 -0.3252  0.4133 -1.5372
 8064TIP3    H224157   3.423   1.631   4.277  0.4966 -2.0438  0.6017
 8065TIP3   OH224158   6.800   0.807   2.639 -0.3522  0.5662  0.2289
 8065TIP3    H124159   6.857   0.876   2.604  1.3690  0.4764  2.6680
 8065TIP3    H224160   6.848   0.726   2.623 -0.1099  0.4166  1.6508
 8066TIP3   OH224161   5.784   4.694   1.709 -0.1796  0.2669  0.3546
 8066TIP3    H124162   5.868   4.648   1.716 -0.7810 -0.5724  2.5954
 8066TIP3    H224163   5.726   4.631   1.667 -0.6332 -0.5857  2.1730
 8067TIP3   OH224164   0.306   6.170   4.482  0.0549  0.1323  0.0027
 8067TIP3    H124165   0.395   6.198   4.505 -0.2465  1.0098  0.1593
 8067TIP3    H224166   0.264   6.250   4.450 -0.5907 -0.3384 -0.3396
 8068TIP3   OH224167  -0.024   1.054   4.443 -0.2350 -0.3765 -0.3534
 8068TIP3    H124168   0.027   1.078   4.520 -0.7174 -0.8172  0.1215
 8068TIP3    H224169   0.012   1.107   4.372 -0.6452  1.0281  0.4426
 8069TIP3   OH224170   1.346   3.666   5.832  0.3839  0.0327 -0.2944
 8069TIP3    H124171   1.396   3.616   5.767  0.6149 -0.7752  0.4725
 8069TIP3    H224172   1.333   3.603   5.904 -1.2122  0.4185 -0.2292
 8070TIP3   OH224173   1.945   3.075   1.533  0.2224  0.2220 -0.8999
 8070TIP3    H124174   1.972   3.134   1.463 -0.4498  0.7848 -0.6944
 8070TIP3    H224175   1.893   3.129   1.591  2.2062  0.2075  1.0054
 8071TIP3   OH224176   2.930   2.788   4.373 -0.0601 -0.1173  0.3415
 8071TIP3    H124177   2.893   2.877   4.371  3.4980  1.5411  0.6327
 8071TIP3    H224178   2.950   2.769   4.281 -1.8615 -1.1962  0.1293
 8072TIP3   OH224179   3.793   1.403   5.467 -0.6554 -0.4408  0.1033
 8072TIP3    H124180   3.855   1.445   5.528 -0.0007 -1.1822 -0.0402
 8072TIP3    H224181   3.737   1.350   5.523  0.1487 -1.3738  0.0502
 8073TIP3   OH224182   4.875   4.977   2.300  0.2360  0.5981 -0.4510
 8073TIP3    H124183   4.869   4.898   2.353 -0.9522  1.2363  0.4164
 8073TIP3    H224184   4.967   4.980   2.272  0.5194 -0.5800  0.2669
 8074TIP3   OH224185   1.472   1.969   4.644 -0.5139  0.1638 -0.2529
 8074TIP3    H124186   1.474   1.886   4.596  1.4343 -0.0125  0.0512
 8074TIP3    H224187   1.467   2.036   4.577 -1.3026 -0.1683 -0.5358
 8075TIP3   OH224188   3.356   5.325   0.261 -0.2498 -0.2705  0.4224
 8075TIP3    H124189   3.388   5.355   0.347 -0.2917 -0.9991  0.7047
 8075TIP3    H224190   3.344   5.405   0.210 -1.4181  0.2776  1.5019
 8076TIP3   OH224191   6.651   0.490   1.731  0.1781  0.2975  0.4113
 8076TIP3    H124192   6.691   0.555   1.790  1.2295 -0.3680  0.4598
 8076TIP3    H224193   6.711   0.415   1.734 -0.7611 -0.4920 -0.0229
 8077TIP3   OH224194   1.577   2.247   1.282  0.1207  0.2526 -0.2425
 8077TIP3    H124195   1.509   2.216   1.221 -0.8904  1.7688  0.0570
 8077TIP3    H224196   1.615   2.167   1.318 -0.0739 -0.6700 -1.9613
 8078TIP3   OH224197   0.345   3.839   0.420  0.4873  0.3109 -0.3863
 8078TIP3    H124198   0.290   3.766   0.393 -0.2254  0.8461 -0.4121
 8078TIP3    H224199   0.430   3.822   0.379  0.9818 -1.5478  1.2407
 8079TIP3   OH224200   5.229   6.401   4.939  0.0211 -0.8618 -0.2834
 8079TIP3    H124201   5.176   6.321   4.932 -2.4108  0.6932 -0.9956
 8079TIP3    H224202   5.266   6.412   4.852 -0.6900 -0.5680 -0.5575
 8080TIP3   OH224203   1.238   1.803   3.134  0.2414 -0.0837  0.6719
 8080TIP3    H124204   1.160   1.749   3.145  0.2816 -0.2767  0.0140
 8080TIP3    H224205   1.206   1.893   3.137 -0.4509 -0.1241 -2.3998
 8081TIP3   OH224206   6.805   5.246   0.653  0.2820  0.0265 -0.2632
 8081TIP3    H124207   6.853   5.194   0.717 -0.9565  0.7585  1.3608
 8081TIP3    H224208   6.861   5.248   0.576  3.1205  1.2468  1.6487
 8082TIP3   OH224209   4.091   1.478   0.300  0.3069  0.3954 -0.2380
 8082TIP3    H124210   4.092   1.481   0.396  0.5801 -2.4695 -0.0605
 8082TIP3    H224211   4.002   1.501   0.276 -0.1271 -0.0785  0.8207
 8083TIP3   OH224212   5.502   1.475   3.395  0.0024  0.0784 -0.1440
 8083TIP3    H124213   5.474   1.412   3.461 -0.8933  2.6166  2.0993
 8083TIP3    H224214   5.596   1.461   3.385  0.0859 -0.6130  1.4196
 8084TIP3   OH224215   2.929   5.303   0.957 -0.6544  0.1630  0.2996
 8084TIP3    H124216   2.920   5.351   1.039  0.4257  1.4350 -0.2789
 8084TIP3    H224217   3.016   5.263   0.962 -0.2627  0.8629 -0.4891
 8085TIP3   OH224218   3.333   2.764   3.992 -0.0915 -0.1645  0.4480
 8085TIP3    H124219   3.248   2.740   4.030 -0.5214 -0.0551 -0.4203
 8085TIP3    H224220   3.356   2.690   3.936 -0.1864  0.3134 -0.2379
 8086TIP3   OH224221   3.541   5.654   5.837 -0.4509  0.3296 -0.1865
 8086TIP3    H124222   3.543   5.710   5.759 -0.5391  1.0019  0.2859
 8086TIP3    H224223   3.604   5.694   5.897 -0.0732 -0.4235 -0.0603
 8087TIP3   OH224224   0.653   0.175   0.079  0.2952  0.3462 -0.0171
 8087TIP3    H124225   0.714   0.111   0.117  0.9904  0.8584 -0.2587
 8087TIP3    H224226   0.661   0.162  -0.016 -0.0955  0.3099 -0.0475
 8088TIP3   OH224227   5.914   1.036   1.651 -0.3813  0.2385 -0.1242
 8088TIP3    H124228   5.920   0.940   1.647 -0.6540  0.1925  0.4294
 8088TIP3    H224229   5.945   1.058   1.739  0.0245  0.6940 -0.3741
 8089TIP3   OH224230   7.019   3.760   2.284  0.3549 -0.6176  0.2012
 8089TIP3    H124231   6.936   3.720   2.259  0.0899 -0.3950  0.6951
 8089TIP3    H224232   7.026   3.744   2.378  1.5091 -1.7746 -0.0571
 8090TIP3   OH224233   1.595   3.042   0.509  0.3487  0.0954 -0.9585
 8090TIP3    H124234   1.632   3.108   0.451  2.1292  1.5008  1.5977
 8090TIP3    H224235   1.518   3.084   0.547  0.8984  0.3288 -0.0908
 8091TIP3   OH224236   6.687   5.079   3.884  0.2029  0.3838  0.4992
 8091TIP3    H124237   6.648   5.163   3.910 -2.0384 -0.3840 -0.1759
 8091TIP3    H224238   6.643   5.015   3.939  0.2392 -0.5699 -0.5547
 8092TIP3   OH224239   0.423   1.252   2.123 -0.0399  0.5144 -0.1174
 8092TIP3    H124240   0.355   1.272   2.187  1.0554  1.0377  0.9414
 8092TIP3    H224241   0.505   1.260   2.173  0.7911 -0.0598 -1.3519
 8093TIP3   OH224242   0.191   5.635   2.397  0.0247 -0.1282 -0.3977
 8093TIP3    H124243   0.283   5.639   2.424 -0.1430 -1.4755  0.4896
 8093TIP3    H224244   0.170   5.541   2.397 -1.5103  0.1854 -0.0119
 8094TIP3   OH224245   1.778   5.509   4.195 -0.6008 -0.5515 -0.1464
 8094TIP3    H124246   1.821   5.424   4.191 -0.1102 -0.3188  0.0346
 8094TIP3    H224247   1.827   5.563   4.132  1.0322  0.4319  1.8362
 8095TIP3   OH224248   0.170   3.627   3.398 -0.7465  0.0641  0.4583
 8095TIP3    H124249   0.169   3.695   3.466 -1.4828  1.5216 -0.9480
 8095TIP3    H224250   0.104   3.564   3.426 -1.9326  1.2914  0.4962
 8096TIP3   OH224251   5.116   6.313   2.456 -0.2914 -0.2283  0.2189
 8096TIP3    H124252   5.086   6.259   2.383 -0.3946  0.6016 -0.3695
 8096TIP3    H224253   5.049   6.302   2.524 -0.6891 -0.2606 -0.1754
 8097TIP3   OH224254   3.933   2.339   1.810  0.0282  0.3210  0.2241
 8097TIP3    H124255   3.910   2.267   1.752 -0.2661  0.6752 -0.1046
 8097TIP3    H224256   3.886   2.321   1.892 -0.0617  0.1562  0.1357
 8098TIP3   OH224257   0.472   3.257   2.945 -0.1820  0.1336  0.1063
 8098TIP3    H124258   0.483   3.330   2.885 -0.0472  0.2513  0.2728
 8098TIP3    H224259   0.390   3.215   2.918 -0.2206  0.3007 -0.0355
 8099TIP3   OH224260   0.961   3.060   2.420 -1.1164  0.3526  0.1562
 8099TIP3    H124261   1.004   2.975   2.417 -1.3127  0.1797  1.5649
 8099TIP3    H224262   0.958   3.088   2.329 -2.4589 -1.8532 -0.5553
 8100TIP3   OH224263   1.680   0.588   4.636  0.0229 -0.3668 -0.2214
 8100TIP3    H124264   1.632   0.658   4.680 -3.1066 -1.9398 -0.8160
 8100TIP3    H224265   1.683   0.614   4.544 -0.4281 -0.6549 -0.3167
 8101TIP3   OH224266   5.578   6.146   4.842 -0.3157  0.3773 -0.0117
 8101TIP3    H124267   5.628   6.227   4.827 -1.3901  1.3901  1.4714
 8101TIP3    H224268   5.575   6.138   4.938 -2.0213 -0.2385 -0.0831
 8102TIP3   OH224269   1.944   2.490   0.913 -0.1876 -0.4735 -0.0950
 8102TIP3    H124270   1.886   2.558   0.946 -1.5680  0.1665 -3.4541
 8102TIP3    H224271   1.903   2.408   0.940 -1.9343  0.0008 -1.1163
 8103TIP3   OH224272   1.523   6.112   4.923  0.4332 -0.1809  0.5332
 8103TIP3    H124273   1.517   6.086   4.831  0.0068 -1.1845  0.8323
 8103TIP3    H224274   1.488   6.201   4.925  1.4140  0.2366 -0.4291
 8104TIP3   OH224275   6.634   3.065   3.391  0.0739  0.9056 -0.3432
 8104TIP3    H124276   6.596   2.979   3.372  0.4044  0.9607 -1.3024
 8104TIP3    H224277   6.604   3.121   3.320  0.5904  1.3644 -0.2062
 8105TIP3   OH224278   3.423   0.400   5.004 -0.4398  0.1893 -0.0046
 8105TIP3    H124279   3.381   0.486   5.000 -0.8749  0.1360  2.0550
 8105TIP3    H224280   3.488   0.408   5.075 -1.8203 -1.6527  1.5911
 8106TIP3   OH224281   5.359   1.039   0.591  0.1157 -0.2302 -0.0525
 8106TIP3    H124282   5.433   1.091   0.562  1.0586 -0.2039  2.2017
 8106TIP3    H224283   5.382   0.949   0.568  1.5779 -0.4084  1.9222
 8107TIP3   OH224284   6.623   0.925   2.303 -0.4331 -1.0917 -0.4041
 8107TIP3    H124285   6.636   0.989   2.233  0.4895  0.2401  0.9122
 8107TIP3    H224286   6.606   0.978   2.381 -0.4112 -2.4781  0.5843
 8108TIP3   OH224287   2.684   6.663   0.831  0.1635  0.3381 -0.0033
 8108TIP3    H124288   2.726   6.743   0.863  0.4837 -0.2634  1.1797
 8108TIP3    H224289   2.600   6.661   0.876 -1.1387  1.4793 -2.2820
 8109TIP3   OH224290   7.019   1.975   0.217 -0.7414 -0.2586  0.6206
 8109TIP3    H124291   7.109   1.984   0.184 -0.5256 -0.2442  1.2139
 8109TIP3    H224292   7.026   1.988   0.311 -1.2163 -1.3114  0.8088
 8110TIP3   OH224293   5.326   0.755   0.920  0.1182  0.5551  0.2476
 8110TIP3    H124294   5.296   0.684   0.977  1.5408  0.7688  1.3302
 8110TIP3    H224295   5.412   0.779   0.955  0.5131  1.5149 -1.2843
 8111TIP3   OH224296   0.360   0.317   1.221  0.0327 -0.5342 -0.3221
 8111TIP3    H124297   0.295   0.251   1.197  0.3935 -0.6444 -1.0333
 8111TIP3    H224298   0.426   0.268   1.270 -1.9485  0.1139  3.3687
 8112TIP3   OH224299   6.002   2.852   3.063 -0.1318  0.5940 -0.1216
 8112TIP3    H124300   6.011   2.942   3.095 -0.9255  0.6442 -0.0309
 8112TIP3    H224301   5.988   2.800   3.142  0.8964  0.3036 -0.1182
 8113TIP3   OH224302   5.004   4.354   3.446 -0.0623 -0.2337  0.2471
 8113TIP3    H124303   5.080   4.410   3.465 -0.4204  0.7088 -0.9400
 8113TIP3    H224304   5.006   4.287   3.514  1.6696 -0.0596  0.4197
 8114TIP3   OH224305   0.904   3.502   0.382  0.0761  0.3749  0.1417
 8114TIP3    H124306   0.946   3.552   0.311  1.0650  0.4921  0.8040
 8114TIP3    H224307   0.855   3.434   0.336  0.3064  0.7427 -0.6854
 8115TIP3   OH224308   3.532   0.979   1.949  0.1263 -0.2557  0.1353
 8115TIP3    H124309   3.460   0.917   1.961  0.1256  0.1089  2.7411
 8115TIP3    H224310   3.612   0.926   1.960  0.3598 -0.6597 -2.7421
 8116TIP3   OH224311   1.369   2.381   1.497  0.2401 -0.5026  0.0962
 8116TIP3    H124312   1.438   2.335   1.449  1.1134  0.6301  0.2260
 8116TIP3    H224313   1.416   2.446   1.550 -0.9240  0.1893  0.3104
 8117TIP3   OH224314   6.076   2.627   3.324  0.0309  0.0860 -0.1130
 8117TIP3    H124315   6.001   2.576   3.293  1.2625 -1.7105 -0.2442
 8117TIP3    H224316   6.037   2.703   3.368 -1.8656 -1.0207  0.2057
 8118TIP3   OH224317   1.583   2.814   4.827 -0.3418  0.5271  0.0644
 8118TIP3    H124318   1.646   2.837   4.758  1.4904 -0.4686  1.3313
 8118TIP3    H224319   1.552   2.899   4.859  1.5757  1.1451  0.4532
 8119TIP3   OH224320   6.725   5.633   3.875 -0.1158  0.3870 -0.0694
 8119TIP3    H124321   6.659   5.565   3.889 -1.2240  1.2243 -1.0344
 8119TIP3    H224322   6.792   5.615   3.941 -1.0288 -0.8261  0.5723
 8120TIP3   OH224323   3.893   0.485   4.105  0.4303  0.2588 -0.2721
 8120TIP3    H124324   3.827   0.445   4.047  0.8732 -1.2117  0.1909
 8120TIP3    H224325   3.884   0.437   4.187  0.5376  1.6098  0.5476
 8121TIP3   OH224326   2.017   2.170   1.562 -0.0420  0.7135 -0.3896
 8121TIP3    H124327   2.013   2.178   1.657 -0.6492  0.2850 -0.3680
 8121TIP3    H224328   1.991   2.080   1.545 -2.5672  1.4770 -1.0862
 8122TIP3   OH224329   6.167   5.834   1.291  0.1749  0.5394 -0.1146
 8122TIP3    H124330   6.237   5.867   1.347  1.9443  0.5719 -2.2031
 8122TIP3    H224331   6.125   5.912   1.255  0.4223  0.5247 -0.4388
 8123TIP3   OH224332   2.575   1.439   2.011  0.7884  0.3064  0.0409
 8123TIP3    H124333   2.499   1.453   2.068  0.4497  1.9491 -0.7468
 8123TIP3    H224334   2.581   1.344   2.002 -2.9274  0.0400 -2.0681
 8124TIP3   OH224335   6.361   6.650   1.004 -0.2770 -0.3274 -1.0977
 8124TIP3    H124336   6.414   6.599   0.943  0.3477 -1.5380  0.3914
 8124TIP3    H224337   6.425   6.691   1.063 -0.7439  2.3668 -2.2993
 8125TIP3   OH224338   0.702   3.174   1.134 -0.6027  0.0985 -0.2928
 8125TIP3    H124339   0.748   3.114   1.192 -2.8352 -1.3080  0.1434
 8125TIP3    H224340   0.739   3.157   1.047 -0.5777 -1.2782 -0.0311
 8126TIP3   OH224341   1.802   5.350   2.458  0.2745  0.2078 -0.1497
 8126TIP3    H124342   1.895   5.333   2.478  0.1462 -0.6862 -0.2735
 8126TIP3    H224343   1.804   5.397   2.375  0.6449  0.6857  0.1275
 8127TIP3   OH224344   3.211   6.159   4.226 -0.3588 -0.3827 -0.2166
 8127TIP3    H124345   3.303   6.177   4.245 -0.6437 -0.4104  1.3031
 8127TIP3    H224346   3.173   6.136   4.310 -1.9212  0.2615 -0.7050
 8128TIP3   OH224347   4.130   5.178   4.891  0.6867  0.3856 -0.5285
 8128TIP3    H124348   4.186   5.203   4.966 -0.2183  0.9736 -0.0242
 8128TIP3    H224349   4.095   5.261   4.860 -0.6929 -0.0530 -0.1964
 8129TIP3   OH224350   4.689   0.947   1.327  0.3477 -0.4804 -0.5262
 8129TIP3    H124351   4.650   0.962   1.241 -0.2357 -0.7562 -0.3127
 8129TIP3    H224352   4.739   0.866   1.317  1.0445 -0.0190 -0.8552
 8130TIP3   OH224353   5.573   3.630   5.710 -0.3072 -0.7363 -0.2171
 8130TIP3    H124354   5.641   3.598   5.769 -0.8371 -1.6755 -0.0856
 8130TIP3    H224355   5.491   3.603   5.751 -0.7353 -0.2323 -0.7175
 8131TIP3   OH224356   1.205   0.274   0.196  0.5958 -0.0389  0.1105
 8131TIP3    H124357   1.298   0.297   0.188  1.0428 -1.1635  1.6553
 8131TIP3    H224358   1.203   0.201   0.258 -1.3216 -0.1333  0.0086
 8132TIP3   OH224359   3.428   1.917   3.297 -0.4892  0.2882 -0.1486
 8132TIP3    H124360   3.434   1.830   3.257  2.1072  1.5196 -2.7764
 8132TIP3    H224361   3.477   1.908   3.379  1.2417 -0.3818 -1.2047
 8133TIP3   OH224362   1.296   4.716   3.689  0.3971 -0.1932 -0.2186
 8133TIP3    H124363   1.337   4.793   3.648 -1.5553  0.6241 -0.7666
 8133TIP3    H224364   1.273   4.746   3.777  1.0406 -0.6860  0.1263
 8134TIP3   OH224365   0.221   2.570   5.054  0.5000  0.3797  0.2618
 8134TIP3    H124366   0.162   2.615   4.993  1.8142  1.9196  0.0650
 8134TIP3    H224367   0.263   2.640   5.103  1.1463 -0.7459  1.3744
 8135TIP3   OH224368   3.382   1.897   5.680 -0.0464  0.2263  0.9138
 8135TIP3    H124369   3.451   1.845   5.721 -0.7049 -1.4125  0.0365
 8135TIP3    H224370   3.364   1.852   5.597 -0.9930  1.5984  0.3345
 8136TIP3   OH224371   1.388   0.996   3.826  0.0860  0.4065 -0.0482
 8136TIP3    H124372   1.338   0.933   3.879  0.7425  0.2681  0.4162
 8136TIP3    H224373   1.402   0.950   3.743  2.4242 -1.0102  1.0057
 8137TIP3   OH224374   1.170   4.755   1.632  0.1647  0.1996 -0.2506
 8137TIP3    H124375   1.183   4.664   1.605 -0.3570  0.1442 -0.3265
 8137TIP3    H224376   1.187   4.755   1.726 -0.7260 -0.1671 -0.0771
 8138TIP3   OH224377   2.151   5.360   0.064 -0.1885 -0.5521 -0.2885
 8138TIP3    H124378   2.144   5.451   0.092 -0.8593 -0.3302 -1.1164
 8138TIP3    H224379   2.239   5.333   0.088  0.3356  0.6098 -0.8726
 8139TIP3   OH224380   5.710   5.204   2.084  0.6779  0.3487  0.4170
 8139TIP3    H124381   5.713   5.113   2.114 -0.3784  0.1727  0.0368
 8139TIP3    H224382   5.664   5.251   2.153  1.1341  0.5806  0.5665
 8140TIP3   OH224383   2.369   1.298   3.152 -0.0881 -0.4292 -0.0419
 8140TIP3    H124384   2.297   1.253   3.107 -1.4268  2.3864 -0.9115
 8140TIP3    H224385   2.425   1.330   3.081  0.0973  0.4400  0.4886
 8141TIP3   OH224386   7.033   5.407   4.651  0.1752 -0.1256 -0.1508
 8141TIP3    H124387   7.058   5.338   4.713  1.7082 -0.9087 -1.5680
 8141TIP3    H224388   7.084   5.483   4.678 -2.3098  0.9146  2.0838
 8142TIP3   OH224389   4.283   2.541   5.021 -0.2923  0.1957  0.1796
 8142TIP3    H124390   4.265   2.516   4.930  0.2310  1.0446 -0.1707
 8142TIP3    H224391   4.366   2.498   5.042 -0.1790  0.3657  0.0903
 8143TIP3   OH224392   3.973   5.906   0.147 -0.0669 -0.8140  0.4715
 8143TIP3    H124393   4.010   5.857   0.074  1.0158  2.1811 -1.1811
 8143TIP3    H224394   3.886   5.933   0.117  0.5447  0.7841  0.0289
 8144TIP3   OH224395   0.504   3.596   4.829 -0.5176 -0.6036 -0.4347
 8144TIP3    H124396   0.562   3.531   4.788 -0.8945 -0.5432 -1.0799
 8144TIP3    H224397   0.525   3.678   4.784  0.5427 -0.0760  0.9385
 8145TIP3   OH224398   4.741   5.666   4.964 -0.3580  0.0775  0.2485
 8145TIP3    H124399   4.822   5.710   4.988 -1.2207  0.9969  1.6310
 8145TIP3    H224400   4.759   5.627   4.878  0.8061  2.2070 -0.5505
 8146TIP3   OH224401   3.345   3.698   4.115  0.1413 -0.1176  0.1829
 8146TIP3    H124402   3.274   3.756   4.143  1.1859  1.3121 -0.0370
 8146TIP3    H224403   3.302   3.615   4.096 -1.4218  0.6264  0.3484
 8147TIP3   OH224404   6.919   1.965   3.952  0.0337  0.6623  0.0205
 8147TIP3    H124405   6.834   1.976   3.996 -0.5353  1.5439 -1.2449
 8147TIP3    H224406   6.909   2.012   3.869  0.8518 -1.5008 -1.3588
 8148TIP3   OH224407   5.239   1.944   5.569 -0.1931  0.2981  0.0288
 8148TIP3    H124408   5.310   2.006   5.583 -0.2726  0.6269 -0.9564
 8148TIP3    H224409   5.282   1.861   5.551 -0.0501  0.4563 -0.3783
 8149TIP3   OH224410   1.461   3.549   1.780 -0.1304 -0.5003 -0.6780
 8149TIP3    H124411   1.521   3.479   1.755  2.0034 -0.0707  2.6652
 8149TIP3    H224412   1.376   3.506   1.789  1.0826 -2.7132  1.1242
 8150TIP3   OH224413   2.371   6.441   0.389  0.1620 -0.4657  0.1245
 8150TIP3    H124414   2.348   6.455   0.298 -1.8345 -1.3931  0.4370
 8150TIP3    H224415   2.288   6.446   0.436  1.0639 -0.5948  1.8195
 8151TIP3   OH224416   6.717   0.090   5.330  0.1321  0.4090  0.0209
 8151TIP3    H124417   6.681   0.010   5.369 -0.0992 -0.9333 -2.6789
 8151TIP3    H224418   6.644   0.126   5.279  1.2307  0.2434 -1.7533
 8152TIP3   OH224419   1.215   4.019   5.638  0.1081  0.0893 -0.4512
 8152TIP3    H124420   1.134   3.968   5.640 -0.8499  1.5440 -0.3095
 8152TIP3    H224421   1.210   4.076   5.716 -0.1240  2.2013 -1.9203
 8153TIP3   OH224422   6.677   4.165   5.047 -0.0033 -0.5996  0.7377
 8153TIP3    H124423   6.587   4.133   5.037  0.3869 -1.8687  1.1390
 8153TIP3    H224424   6.675   4.218   5.127 -0.1776 -1.4840  1.3355
 8154TIP3   OH224425   1.713   6.181   3.090 -0.2676 -0.2370 -0.2082
 8154TIP3    H124426   1.680   6.270   3.105  1.2710 -0.1546  3.9670
 8154TIP3    H224427   1.648   6.124   3.130  0.4175 -0.6690  0.3248
 8155TIP3   OH224428   7.220   3.884   4.117 -0.1489 -0.0501 -0.1100
 8155TIP3    H124429   7.129   3.897   4.143 -0.6077 -1.6145 -0.7794
 8155TIP3    H224430   7.227   3.789   4.103  1.6502  0.0077  0.1659
 8156TIP3   OH224431   3.706   5.264   2.773  0.3962  0.5405  0.5759
 8156TIP3    H124432   3.712   5.284   2.866  0.6398  0.1068  0.6553
 8156TIP3    H224433   3.631   5.316   2.742 -0.1959  0.0587  1.1835
 8157TIP3   OH224434   2.365   2.558   4.650  0.2321  0.0576 -0.0316
 8157TIP3    H124435   2.327   2.634   4.607  2.4346  0.8819 -0.6949
 8157TIP3    H224436   2.423   2.520   4.583 -0.1507 -1.6886  0.5730
 8158TIP3   OH224437   3.921   3.329   4.808 -0.5441  0.0686 -0.4568
 8158TIP3    H124438   3.870   3.329   4.727  0.2692  2.3228 -1.0446
 8158TIP3    H224439   4.012   3.324   4.779 -0.1201  2.9733  0.1175
 8159TIP3   OH224440   6.877   4.203   4.424 -0.2286  0.2153  0.0667
 8159TIP3    H124441   6.929   4.190   4.503  0.1637 -0.3714 -0.2824
 8159TIP3    H224442   6.940   4.196   4.352 -0.9411 -1.8408 -0.4499
 8160TIP3   OH224443   1.459   5.662   3.171 -0.2326  0.2883  0.0761
 8160TIP3    H124444   1.463   5.687   3.264 -0.4777  2.4844 -0.4549
 8160TIP3    H224445   1.366   5.658   3.151 -0.1785  0.0571 -0.1328
 8161TIP3   OH224446   7.122   4.871   3.180 -0.2264 -0.0170 -0.1935
 8161TIP3    H124447   7.108   4.965   3.173  2.6952  0.9516  3.6890
 8161TIP3    H224448   7.038   4.837   3.212 -0.8053  1.5599  0.0682
 8162TIP3   OH224449   0.439   3.581   3.564 -0.3381  0.1719 -0.5227
 8162TIP3    H124450   0.466   3.664   3.524  2.9538  0.2943  1.5473
 8162TIP3    H224451   0.405   3.606   3.650 -0.0699 -0.5731 -0.1908
 8163TIP3   OH224452   1.795   3.894   2.130 -0.8727 -0.1121  0.1546
 8163TIP3    H124453   1.709   3.865   2.162 -0.8121  0.2687  0.6686
 8163TIP3    H224454   1.774   3.955   2.059 -1.0086 -3.0037 -2.4919
 8164TIP3   OH224455   3.286   5.476   4.973 -0.1480  0.4666 -0.0896
 8164TIP3    H124456   3.269   5.534   4.898 -0.6115 -1.3059 -1.4392
 8164TIP3    H224457   3.221   5.406   4.964  1.3863 -1.1223  0.5183
 8165TIP3   OH224458   5.999   3.057   5.000 -0.2358 -0.6169  0.6563
 8165TIP3    H124459   6.091   3.059   4.974 -0.4590  0.5563 -0.1207
 8165TIP3    H224460   5.954   3.111   4.935 -1.8994 -3.2445 -0.5456
 8166TIP3   OH224461   0.130   6.152   0.032 -0.2367  0.0476  0.1751
 8166TIP3    H124462   0.089   6.107  -0.043  1.7231 -0.9007 -0.3878
 8166TIP3    H224463   0.138   6.085   0.099  0.3727  0.2214  0.2811
 8167TIP3   OH224464   3.798   3.748   1.797 -0.0631 -0.7916  0.3208
 8167TIP3    H124465   3.850   3.683   1.751 -0.0607 -0.4366 -0.1934
 8167TIP3    H224466   3.761   3.803   1.727  1.2728  0.7783  0.7735
 8168TIP3   OH224467   0.594   0.910   3.509 -0.5706 -0.5614 -0.2384
 8168TIP3    H124468   0.634   0.993   3.536 -0.7774 -0.4663 -0.2205
 8168TIP3    H224469   0.514   0.936   3.465  0.1491 -0.6706 -1.6664
 8169TIP3   OH224470   4.948   5.714   3.483  0.1770 -0.0641 -0.1263
 8169TIP3    H124471   4.915   5.804   3.486  1.9345  0.6588 -0.9785
 8169TIP3    H224472   4.887   5.668   3.426 -1.2998  0.3069  1.0865
 8170TIP3   OH224473   0.535   5.453   5.718  0.3139  0.1282 -0.0858
 8170TIP3    H124474   0.503   5.543   5.721  0.0818  0.0508  2.7456
 8170TIP3    H224475   0.466   5.404   5.673  0.3661  1.2842 -1.5068
 8171TIP3   OH224476   6.656   0.497   0.258 -0.1594 -0.9644 -0.1841
 8171TIP3    H124477   6.586   0.535   0.204 -0.6276  1.2500  1.8273
 8171TIP3    H224478   6.612   0.434   0.315 -0.2891 -0.6173  0.1021
 8172TIP3   OH224479   4.555   6.662   4.189 -0.4717 -0.7049 -0.7285
 8172TIP3    H124480   4.463   6.641   4.176 -0.3794 -0.7008 -1.4243
 8172TIP3    H224481   4.586   6.597   4.251 -0.9826 -0.6080 -0.3640
 8173TIP3   OH224482   1.112   6.258   3.840 -0.0945 -0.0976  0.4034
 8173TIP3    H124483   1.023   6.277   3.871 -0.5000  0.4199 -0.9987
 8173TIP3    H224484   1.166   6.328   3.877 -0.7736  1.1962 -0.9772
 8174TIP3   OH224485   2.362   4.957   2.062  0.6164  0.3369 -0.0322
 8174TIP3    H124486   2.393   4.885   2.117  0.0193 -0.1190 -0.2840
 8174TIP3    H224487   2.401   5.035   2.102 -0.2352  0.0786  1.3867
 8175TIP3   OH224488   0.206   2.076   3.538  0.2042  0.1636 -0.6305
 8175TIP3    H124489   0.194   2.138   3.466  0.0451  1.7547  0.7019
 8175TIP3    H224490   0.117   2.060   3.570  0.2946 -0.3564 -0.6414
 8176TIP3   OH224491   5.822   0.682   2.047 -0.0941 -0.1326  0.4810
 8176TIP3    H124492   5.791   0.770   2.029 -1.0229 -0.4382  0.5535
 8176TIP3    H224493   5.747   0.637   2.087 -0.3875 -1.5986 -1.5293
 8177TIP3   OH224494   6.636   3.717   3.130 -0.1728 -0.8139  0.3791
 8177TIP3    H124495   6.625   3.749   3.041 -0.3077  1.3880  1.1032
 8177TIP3    H224496   6.559   3.662   3.146 -0.5445 -0.5958 -0.6070
 8178TIP3   OH224497   3.522   2.879   4.153 -0.0562 -0.0601 -0.2391
 8178TIP3    H124498   3.612   2.855   4.133 -0.1158  0.7617 -1.6267
 8178TIP3    H224499   3.469   2.821   4.099 -0.3236  0.2314 -0.2915
 8179TIP3   OH224500   0.508   4.269   1.964 -0.0261 -0.0840  0.1580
 8179TIP3    H124501   0.542   4.273   2.054  0.2576 -2.0735  0.1874
 8179TIP3    H224502   0.455   4.189   1.962  0.6539 -0.5365 -1.6584
 8180TIP3   OH224503   0.591   6.496   5.053  0.5434  0.3017  0.3604
 8180TIP3    H124504   0.608   6.589   5.039 -2.0439  0.6096 -1.5167
 8180TIP3    H224505   0.557   6.491   5.143 -0.6913  1.4644 -0.0070
 8181TIP3   OH224506   6.346   1.088   5.256 -0.1738  0.0554 -0.7698
 8181TIP3    H124507   6.333   0.993   5.252 -0.0695  0.0198 -0.2362
 8181TIP3    H224508   6.371   1.112   5.167 -1.8081 -0.1767 -1.3319
 8182TIP3   OH224509   4.994   4.308   5.321  0.1362 -0.0537  0.4935
 8182TIP3    H124510   4.995   4.373   5.391 -2.2313  0.6829 -0.0652
 8182TIP3    H224511   5.023   4.227   5.363 -0.4715  0.5444  2.1492
 8183TIP3   OH224512   7.128   1.291   4.740 -0.3970  0.8549  0.3726
 8183TIP3    H124513   7.097   1.213   4.785  2.1321  0.6147  1.8514
 8183TIP3    H224514   7.207   1.317   4.787  0.1676  2.9386 -1.5350
 8184TIP3   OH224515   5.363   3.408   5.251  0.0307  0.1677  0.1241
 8184TIP3    H124516   5.380   3.446   5.337  0.0485 -0.7847  0.5629
 8184TIP3    H224517   5.349   3.315   5.269  1.0020 -0.2280 -1.0243
 8185TIP3   OH224518   3.737   5.559   5.643 -0.1398 -0.1729 -0.2614
 8185TIP3    H124519   3.759   5.479   5.691 -2.1339 -0.7022 -0.1289
 8185TIP3    H224520   3.642   5.565   5.650  0.0684  3.1326  1.1604
 8186TIP3   OH224521   3.620   6.726   1.758  0.0828 -0.6503 -0.5726
 8186TIP3    H124522   3.557   6.736   1.829  0.4281 -0.1360 -0.3328
 8186TIP3    H224523   3.573   6.675   1.691 -0.4583 -0.5863 -0.2450
 8187TIP3   OH224524   6.964   4.384   2.229 -0.9381  0.0115  0.2718
 8187TIP3    H124525   6.989   4.292   2.233 -0.1567  0.2526  1.4344
 8187TIP3    H224526   6.987   4.412   2.141  3.6400  0.3789  1.3331
 8188TIP3   OH224527   4.606   0.407   0.911  0.0564 -0.2798 -0.4307
 8188TIP3    H124528   4.698   0.381   0.915 -0.0354 -0.6239 -0.5475
 8188TIP3    H224529   4.573   0.395   1.000 -0.2389 -1.5128 -0.6895
 8189TIP3   OH224530   5.041   4.425   1.481 -0.6045 -0.3673 -0.1783
 8189TIP3    H124531   5.110   4.463   1.426 -2.2704  2.2513 -0.5922
 8189TIP3    H224532   5.033   4.335   1.449  1.3451 -0.2073 -1.3288
 8190TIP3   OH224533   2.197   1.008   3.288  0.6400  0.7398  0.0289
 8190TIP3    H124534   2.197   0.988   3.194 -1.2179  2.3341 -0.3873
 8190TIP3    H224535   2.104   1.014   3.311  1.0023  3.4791  1.1875
 8191TIP3   OH224536   0.572   3.753   3.154 -0.2107 -0.3934 -0.5171
 8191TIP3    H124537   0.563   3.657   3.151 -2.5014 -0.3076  1.2834
 8191TIP3    H224538   0.659   3.767   3.191  0.5596 -1.7187 -1.6794
 8192TIP3   OH224539   1.762   5.112   0.942 -0.1090 -0.1850 -0.1215
 8192TIP3    H124540   1.840   5.081   0.987  0.8773  2.4810  0.1946
 8192TIP3    H224541   1.793   5.141   0.856 -0.9061  0.0429 -0.3428
 8193TIP3   OH224542   0.492   4.900   5.333 -0.0554 -0.2371 -0.2448
 8193TIP3    H124543   0.491   4.812   5.370  0.5633 -0.2424 -0.2193
 8193TIP3    H224544   0.516   4.887   5.241  0.5876 -0.0570 -0.1059
 8194TIP3   OH224545   5.344   1.824   4.012 -0.3699  0.3322  0.0111
 8194TIP3    H124546   5.404   1.891   4.044 -0.3214  0.0405  0.5513
 8194TIP3    H224547   5.258   1.865   4.016 -0.5918 -0.1947  2.0850
 8195TIP3   OH224548   2.745   5.899   2.562 -0.2933  0.5970  1.1132
 8195TIP3    H124549   2.785   5.984   2.549  2.3370 -0.5939  0.8215
 8195TIP3    H224550   2.747   5.886   2.657 -0.6861  0.8341  1.1570
 8196TIP3   OH224551   3.504   4.768   2.945  0.2224 -0.3960  0.3101
 8196TIP3    H124552   3.425   4.779   2.997  0.6818  0.8766  0.7746
 8196TIP3    H224553   3.542   4.686   2.977  0.8643  0.6880  2.5526
 8197TIP3   OH224554   5.848   0.150   4.439 -0.2726 -0.5567  0.2023
 8197TIP3    H124555   5.935   0.110   4.436  0.0987  0.2107  0.2552
 8197TIP3    H224556   5.794   0.095   4.383  0.4595 -0.5653 -0.5164
 8198TIP3   OH224557   0.043   3.118   5.399 -0.0102  0.4422 -0.4035
 8198TIP3    H124558   0.086   3.101   5.315  0.2483 -2.3081  0.1840
 8198TIP3    H224559  -0.050   3.124   5.378  0.0199 -0.5290 -0.8984
 8199TIP3   OH224560   3.700   4.145   2.989  0.3250 -0.4441  0.0982
 8199TIP3    H124561   3.633   4.169   2.925  0.7821  0.0266 -0.2127
 8199TIP3    H224562   3.662   4.072   3.037 -0.4229 -0.1636 -0.0558
 8200TIP3   OH224563   0.655   2.709   4.100  0.4834  0.2268 -0.3710
 8200TIP3    H124564   0.648   2.633   4.157  0.1627  1.1740  0.9093
 8200TIP3    H224565   0.580   2.703   4.041 -0.9945  0.8222  1.3604
 8201TIP3   OH224566   4.700   3.082   4.090 -0.9312 -0.1070 -0.1078
 8201TIP3    H124567   4.659   3.006   4.133 -0.6973  0.1736  0.6246
 8201TIP3    H224568   4.632   3.115   4.031 -1.9811  0.6821  1.4843
 8202TIP3   OH224569   3.716   0.972   4.330  1.0867  0.7170  0.1227
 8202TIP3    H124570   3.635   0.936   4.364  0.2623  1.1870 -1.2555
 8202TIP3    H224571   3.756   0.900   4.282  2.2780  0.0366  2.0089
 8203TIP3   OH224572   2.693   5.016   5.227 -0.2356 -0.3379  0.0430
 8203TIP3    H124573   2.635   5.028   5.152  1.0370  0.1577 -0.8956
 8203TIP3    H224574   2.651   4.948   5.279 -2.0856  0.5953 -0.1584
 8204TIP3   OH224575   0.945   2.713   3.392 -0.5020 -0.3496  0.0340
 8204TIP3    H124576   0.928   2.786   3.332 -0.2030  0.1310  0.5176
 8204TIP3    H224577   0.879   2.722   3.460 -1.2814 -1.3118 -0.5788
 8205TIP3   OH224578   0.208   5.740   3.661  0.4375  0.0425  0.0804
 8205TIP3    H124579   0.136   5.681   3.685  1.5732 -0.6415  1.9908
 8205TIP3    H224580   0.212   5.735   3.566 -1.0948 -1.0353  0.0375
 8206TIP3   OH224581   0.133   3.532   2.476  0.4077  0.8966  0.1112
 8206TIP3    H124582   0.221   3.503   2.501 -0.0220 -1.1048 -0.5220
 8206TIP3    H224583   0.080   3.453   2.481 -0.5073  1.1283 -3.4001
 8207TIP3   OH224584   0.459   6.706   1.031 -0.3514 -0.3169  0.1155
 8207TIP3    H124585   0.515   6.644   0.984 -1.2428  1.5080 -3.7762
 8207TIP3    H224586   0.371   6.666   1.028 -0.0841 -1.3392  2.7232
 8208TIP3   OH224587   2.423   2.325   2.752  0.1142  0.3244  0.0475
 8208TIP3    H124588   2.448   2.317   2.660  0.4520  1.9794 -0.0391
 8208TIP3    H224589   2.506   2.325   2.799 -0.0919 -3.3178  0.7115
 8209TIP3   OH224590   1.769   6.021   1.069 -0.2137  0.5603  0.1118
 8209TIP3    H124591   1.800   6.065   0.990 -0.5104 -0.1533 -0.4163
 8209TIP3    H224592   1.835   5.954   1.086  0.6871  1.7109  1.4019
 8210TIP3   OH224593   4.600   6.432   2.381 -0.5624 -0.0467 -0.2297
 8210TIP3    H124594   4.547   6.361   2.415  1.3170 -1.9558 -1.0062
 8210TIP3    H224595   4.644   6.469   2.457 -1.4993  0.2491  0.1725
 8211TIP3   OH224596   0.409   5.387   2.737  0.6884 -0.1167  0.1529
 8211TIP3    H124597   0.411   5.343   2.652  0.0247  0.1627 -0.0168
 8211TIP3    H224598   0.374   5.474   2.718  0.7471  0.0256  0.6779
 8212TIP3   OH224599   4.070   5.616   1.180 -0.4907  0.1095  0.6410
 8212TIP3    H124600   3.983   5.637   1.145 -0.3942 -0.9484 -0.3130
 8212TIP3    H224601   4.063   5.633   1.274 -0.7009  3.2967  0.1529
 8213TIP3   OH224602   6.555   3.832   2.261  0.3181  0.1885 -0.1291
 8213TIP3    H124603   6.575   3.916   2.219 -1.8825  0.5387 -0.6385
 8213TIP3    H224604   6.475   3.850   2.311  1.0545 -1.0677  1.5987
 8214TIP3   OH224605   5.904   4.100   1.884 -0.7040 -0.2190 -0.8515
 8214TIP3    H124606   5.859   4.111   1.968 -1.7409 -0.6924 -1.3370
 8214TIP3    H224607   5.950   4.184   1.871  0.8916 -0.7380  0.9807
 8215TIP3   OH224608   1.859   0.372   4.737 -0.2581  0.0594  0.3281
 8215TIP3    H124609   1.797   0.441   4.714 -0.0520  0.0000 -0.4288
 8215TIP3    H224610   1.869   0.321   4.656  0.2040 -0.3781  0.6549
 8216TIP3   OH224611   1.004   6.008   0.133  0.0903  0.0893  0.1803
 8216TIP3    H124612   0.912   5.986   0.117 -0.1984  0.4660  1.2869
 8216TIP3    H224613   1.043   5.925   0.161 -0.8022  0.6638  3.4816
 8217TIP3   OH224614   6.735   4.985   4.292 -0.0679 -0.3261 -0.4669
 8217TIP3    H124615   6.685   5.007   4.213  0.5520  0.2937 -0.6905
 8217TIP3    H224616   6.720   4.891   4.304 -2.1831  0.0238  0.0997
 8218TIP3   OH224617   2.231   0.414   1.363  0.1240 -0.0436  0.3681
 8218TIP3    H124618   2.147   0.460   1.365 -1.4381 -2.5882 -0.6539
 8218TIP3    H224619   2.278   0.444   1.440 -1.1112  2.5081  0.2137
 8219TIP3   OH224620   1.840   0.732   0.203 -0.0212  0.3274  0.6982
 8219TIP3    H124621   1.916   0.722   0.260 -0.5506  1.6753  1.7075
 8219TIP3    H224622   1.780   0.664   0.231  0.5458 -0.3265  0.3418
 8220TIP3   OH224623   0.238   6.413   4.916  0.0042 -0.4173 -0.0613
 8220TIP3    H124624   0.309   6.365   4.873  1.0201  0.4628  0.5984
 8220TIP3    H224625   0.194   6.459   4.844  0.4721 -0.4898 -0.4008
 8221TIP3   OH224626   5.446   5.657   1.274  0.1625 -0.4593  0.0708
 8221TIP3    H124627   5.450   5.562   1.281  0.1396 -0.5270 -0.7171
 8221TIP3    H224628   5.496   5.677   1.195 -0.3527  0.1258 -0.1146
 8222TIP3   OH224629   2.463   6.098   4.945 -0.0885 -0.0819 -0.3162
 8222TIP3    H124630   2.502   6.185   4.959  0.2059 -0.4134  1.1155
 8222TIP3    H224631   2.403   6.087   5.018 -0.2557 -1.0093 -0.5857
 8223TIP3   OH224632   4.673   4.034   5.343  0.2584 -0.1232 -0.3772
 8223TIP3    H124633   4.661   4.119   5.300  0.5099  0.2300  0.2423
 8223TIP3    H224634   4.624   4.042   5.425  3.3013  0.8302  1.5286
 8224TIP3   OH224635   1.822   5.554   2.247  0.2600 -0.1561  0.8130
 8224TIP3    H124636   1.817   5.650   2.255  2.2988  0.1614 -0.9531
 8224TIP3    H224637   1.735   5.529   2.215  0.6567  1.5522 -1.9206
 8225TIP3   OH224638   0.413   0.235   5.563 -0.4482 -0.1051 -0.0349
 8225TIP3    H124639   0.331   0.207   5.523 -0.9733  0.4344  0.6226
 8225TIP3    H224640   0.387   0.303   5.625  0.5382  0.3100 -0.0538
 8226TIP3   OH224641   1.596   0.429   2.102 -0.5582 -0.0673 -0.2045
 8226TIP3    H124642   1.552   0.510   2.076  0.5846  0.5255 -0.3601
 8226TIP3    H224643   1.538   0.359   2.072 -1.0599  0.6777 -1.0055
 8227TIP3   OH224644   5.569   2.938   5.611  0.6079  0.1911 -0.4649
 8227TIP3    H124645   5.604   2.865   5.561 -1.0798 -0.5807 -0.6107
 8227TIP3    H224646   5.485   2.957   5.569  0.1183  0.9037  0.7860
 8228TIP3   OH224647   5.794   0.484   0.436 -0.1394  0.2633  0.0299
 8228TIP3    H124648   5.837   0.461   0.518  0.9312  2.1999  0.0636
 8228TIP3    H224649   5.743   0.563   0.457  0.3659  0.9451 -1.1988
 8229TIP3   OH224650   0.524   2.341   3.489  0.6106  0.2690 -0.4374
 8229TIP3    H124651   0.479   2.380   3.564  1.3546  0.7643 -0.2339
 8229TIP3    H224652   0.615   2.333   3.517  1.0992  1.3278 -1.5979
 8230TIP3   OH224653   1.924   2.170   3.583  0.3736 -0.2643 -0.5751
 8230TIP3    H124654   2.011   2.159   3.544  1.3802 -0.1788  1.4849
 8230TIP3    H224655   1.922   2.262   3.609 -1.0608  0.1866 -2.1261
 8231TIP3   OH224656   4.036   3.896   5.264 -0.2068 -0.2413 -0.1063
 8231TIP3    H124657   4.071   3.807   5.269 -0.6235 -0.4079 -0.0659
 8231TIP3    H224658   4.111   3.951   5.240  0.2569 -0.4693  0.7684
 8232TIP3   OH224659   1.865   5.098   2.256 -0.3776  0.1958  0.0155
 8232TIP3    H124660   1.836   5.163   2.191  1.8868 -0.4075 -1.7071
 8232TIP3    H224661   1.954   5.124   2.279  0.2522 -1.7592 -0.0240
 8233TIP3   OH224662   3.755   1.124   2.419  0.6181  0.2880 -0.0283
 8233TIP3    H124663   3.711   1.058   2.473  1.2935 -0.1675 -0.0287
 8233TIP3    H224664   3.743   1.095   2.329  1.6606 -0.3270  0.0087
 8234TIP3   OH224665   2.836   5.990   1.939  0.2168 -0.0358  0.1053
 8234TIP3    H124666   2.815   6.043   2.015  0.2338  0.8830 -0.5120
 8234TIP3    H224667   2.874   6.052   1.876 -2.1092 -0.2163 -1.6200
 8235TIP3   OH224668   4.166   3.495   2.531 -0.0594 -0.2273  0.0858
 8235TIP3    H124669   4.213   3.577   2.550 -0.3417  0.3017 -1.3960
 8235TIP3    H224670   4.231   3.426   2.545  0.2540  0.2609  1.1081
 8236TIP3   OH224671   4.424   1.724   2.171  0.4979  0.2198 -0.1675
 8236TIP3    H124672   4.468   1.699   2.252  0.4521  0.3549 -0.1017
 8236TIP3    H224673   4.393   1.641   2.134 -0.5869  0.2756  0.5727
 8237TIP3   OH224674   5.750   0.585   4.358 -0.5388  0.6860 -0.3144
 8237TIP3    H124675   5.807   0.594   4.434 -0.2246 -0.8362 -0.3426
 8237TIP3    H224676   5.787   0.512   4.308 -3.6884 -1.9008  0.7936
 8238TIP3   OH224677   4.148   3.837   2.788  0.1984  0.1927 -0.1741
 8238TIP3    H124678   4.127   3.901   2.856 -1.3476 -0.3905 -0.0555
 8238TIP3    H224679   4.063   3.811   2.753  0.7613 -1.7746 -0.2257
 8239TIP3   OH224680   1.681   4.521   1.315 -0.2724 -0.2136 -0.4425
 8239TIP3    H124681   1.765   4.516   1.362  1.2570  1.4874 -2.7257
 8239TIP3    H224682   1.650   4.610   1.332  0.4217  0.5138 -2.6690
 8240TIP3   OH224683   6.564   1.455   5.595  0.1323  0.0872 -0.1208
 8240TIP3    H124684   6.633   1.403   5.636  1.4664  1.6814 -0.2129
 8240TIP3    H224685   6.543   1.409   5.514  0.8654 -0.6010  0.0719
 8241TIP3   OH224686   0.499   0.549   4.106 -0.3134  0.4357  0.6781
 8241TIP3    H124687   0.450   0.627   4.080  1.9515  1.8585  0.3902
 8241TIP3    H224688   0.560   0.534   4.034 -0.2298 -1.2190  1.0489
 8242TIP3   OH224689   3.832   6.715   0.596 -0.7241  0.1208  0.2085
 8242TIP3    H124690   3.747   6.750   0.571 -0.2064  0.5235 -1.0617
 8242TIP3    H224691   3.831   6.715   0.692 -2.7005 -1.2411  0.2556
 8243TIP3   OH224692   0.249   4.099   0.959  0.2677  0.1881 -0.0330
 8243TIP3    H124693   0.319   4.160   0.984 -0.3648  1.0981 -0.4089
 8243TIP3    H224694   0.176   4.121   1.017 -0.2082  0.2924 -0.6612
 8244TIP3   OH224695   2.644   1.079   2.117 -0.4306 -0.0385  0.5375
 8244TIP3    H124696   2.568   1.122   2.077  0.0841 -0.2920 -0.7323
 8244TIP3    H224697   2.624   0.986   2.111  0.3788 -0.1463 -0.6302
 8245TIP3   OH224698   4.761   0.193   0.736  0.3093  0.7378 -0.1419
 8245TIP3    H124699   4.666   0.203   0.739  0.1958 -0.3513  0.4825
 8245TIP3    H224700   4.784   0.212   0.644 -0.6893 -0.3012 -0.6338
 8246TIP3   OH224701   5.180   1.179   0.752  0.0349  0.1091 -0.8538
 8246TIP3    H124702   5.133   1.247   0.704 -0.9020 -0.1487 -0.3225
 8246TIP3    H224703   5.248   1.149   0.691  1.7566  2.8329 -0.4387
 8247TIP3   OH224704   1.479   5.574   1.538  0.0285 -0.4983  0.0097
 8247TIP3    H124705   1.523   5.644   1.585  0.1866  0.2281 -1.1719
 8247TIP3    H224706   1.444   5.616   1.460 -2.2785 -1.1772  0.6080
 8248TIP3   OH224707   2.145   4.122   1.938 -0.0863 -0.4911  0.2743
 8248TIP3    H124708   2.172   4.093   1.851  0.3056 -0.7227  0.4707
 8248TIP3    H224709   2.204   4.194   1.959  0.1183 -0.7370  0.5399
 8249TIP3   OH224710   3.753   0.197   4.403  0.6152  0.4548 -0.2578
 8249TIP3    H124711   3.696   0.233   4.335 -0.0734 -1.1848 -0.6067
 8249TIP3    H224712   3.819   0.264   4.418  0.0923  1.3309 -1.7074
 8250TIP3   OH224713   4.631   4.280   5.260  0.5842 -0.6893  0.3280
 8250TIP3    H124714   4.558   4.341   5.273  0.6670 -0.3911 -0.5662
 8250TIP3    H224715   4.703   4.334   5.230  1.0391 -1.0557  0.7467
 8251TIP3   OH224716   3.430   1.285   4.125 -0.0316 -0.5324 -0.5256
 8251TIP3    H124717   3.352   1.342   4.133 -0.2214 -0.8645  0.0341
 8251TIP3    H224718   3.471   1.313   4.043  1.8194  2.8425  1.3534
 8252TIP3   OH224719   1.130   3.940   3.499  0.3250 -0.5189  0.3479
 8252TIP3    H124720   1.187   3.965   3.426 -1.3360 -1.5663 -1.3939
 8252TIP3    H224721   1.169   3.860   3.534  1.3004  0.1532  0.8378
 8253TIP3   OH224722   5.925   2.188   5.381 -0.2348  0.0593 -0.0187
 8253TIP3    H124723   5.912   2.283   5.378 -2.1375 -0.1729 -2.4000
 8253TIP3    H224724   6.010   2.174   5.340 -0.0633  0.7219  0.1057
 8254TIP3   OH224725   1.465   2.234   2.767  0.1367 -0.1593 -0.2812
 8254TIP3    H124726   1.423   2.150   2.755 -3.2420  1.3893 -0.3458
 8254TIP3    H224727   1.437   2.287   2.692  0.3610  1.6673  0.8437
 8255TIP3   OH224728   3.006   0.510   3.316  0.5739 -0.3539  0.7678
 8255TIP3    H124729   2.913   0.514   3.292  0.3071 -1.6597  1.4779
 8255TIP3    H224730   3.023   0.594   3.359  0.2548  0.7131 -1.0808
 8256TIP3   OH224731   1.271   6.000   1.917 -0.0408 -0.0309 -0.3417
 8256TIP3    H124732   1.281   6.074   1.857  0.3320  0.9352  0.8868
 8256TIP3    H224733   1.247   5.927   1.860  0.7587  0.7471 -1.7259
 8257TIP3   OH224734   3.317   2.342   5.151  0.3700  0.5870 -0.1838
 8257TIP3    H124735   3.411   2.343   5.167  0.4517  0.0150 -0.6142
 8257TIP3    H224736   3.306   2.388   5.067  0.6360 -2.3383 -1.9363
 8258TIP3   OH224737   1.043   6.472   4.695 -0.5848 -0.4007  0.6740
 8258TIP3    H124738   0.956   6.513   4.694 -0.0569  1.2486 -4.0157
 8258TIP3    H224739   1.031   6.389   4.648  0.2813 -0.4867  0.5889
 8259TIP3   OH224740   2.783   4.758   1.480  0.6983  0.0367 -0.3221
 8259TIP3    H124741   2.776   4.672   1.520  2.3774 -0.0411 -0.0914
 8259TIP3    H224742   2.818   4.741   1.392  2.5081  0.5230  0.2541
 8260TIP3   OH224743   6.261   0.285   4.873 -0.3843  0.4849  0.2003
 8260TIP3    H124744   6.357   0.285   4.873 -0.2501  3.0016 -2.0319
 8260TIP3    H224745   6.237   0.193   4.864  1.9850 -0.0189 -2.8103
 8261TIP3   OH224746   2.795   2.823   1.603 -0.3404  0.3992  0.5555
 8261TIP3    H124747   2.878   2.819   1.650 -1.6328  0.0269  2.9462
 8261TIP3    H224748   2.819   2.810   1.511  2.4057  1.9739  0.9311
 8262TIP3   OH224749   1.226   4.080   3.235 -0.3489 -0.1104  0.1738
 8262TIP3    H124750   1.192   4.157   3.189  0.4621 -0.6083 -1.3307
 8262TIP3    H224751   1.218   4.009   3.172 -0.8433 -1.2342  1.4534
 8263TIP3   OH224752   5.173   3.334   4.604 -0.4061  0.1505 -0.2110
 8263TIP3    H124753   5.122   3.260   4.572 -3.8288  1.3922  1.8456
 8263TIP3    H224754   5.202   3.309   4.692  3.2866 -0.7167 -1.4813
 8264TIP3   OH224755   2.645   0.784   2.693 -0.1366 -0.9735  0.0895
 8264TIP3    H124756   2.666   0.845   2.765 -0.6770 -0.3804 -0.2440
 8264TIP3    H224757   2.598   0.712   2.735 -1.1382 -0.2567  0.2367
 8265TIP3   OH224758   3.649   5.909   0.263  0.2254 -0.8368  0.1152
 8265TIP3    H124759   3.558   5.936   0.268  0.3173 -0.4940 -0.0722
 8265TIP3    H224760   3.678   5.936   0.176  1.3404  1.7028  1.1926
 8266TIP3   OH224761   3.203   5.286   1.003 -0.0469 -0.2963  0.0706
 8266TIP3    H124762   3.212   5.279   0.908  2.1568 -0.2347  0.2338
 8266TIP3    H224763   3.231   5.375   1.023  0.2852 -0.5793  0.8641
 8267TIP3   OH224764   0.244   1.673   0.806 -0.0165 -0.3190  0.0491
 8267TIP3    H124765   0.305   1.652   0.876 -0.7592  0.0874  0.8371
 8267TIP3    H224766   0.176   1.727   0.848 -0.8040 -0.5831 -0.8417
 8268TIP3   OH224767   1.551   3.653   2.339 -0.1768 -0.4545 -0.3490
 8268TIP3    H124768   1.507   3.632   2.257 -0.9818  0.7205 -0.2315
 8268TIP3    H224769   1.556   3.748   2.341 -0.1105 -0.4574  0.9381
 8269TIP3   OH224770   2.980   5.679   4.654 -0.2249  0.4530 -0.3228
 8269TIP3    H124771   3.058   5.704   4.704 -1.4619  1.7831  1.0226
 8269TIP3    H224772   2.931   5.621   4.712 -0.4504 -0.0464 -0.9978
 8270TIP3   OH224773   3.364   3.287   2.264  0.2206 -0.0740 -0.3950
 8270TIP3    H124774   3.293   3.223   2.253  0.8518 -0.4850 -2.3752
 8270TIP3    H224775   3.439   3.248   2.220  1.5557  0.6328  1.1466
 8271TIP3   OH224776   1.133   3.730   2.417 -0.0787  0.4252  0.4355
 8271TIP3    H124777   1.059   3.746   2.358  0.3530  0.6344 -0.0548
 8271TIP3    H224778   1.118   3.642   2.451  1.1908 -1.0020 -2.3002
 8272TIP3   OH224779   6.801   2.775   2.151  0.0704  0.3007  0.5308
 8272TIP3    H124780   6.799   2.706   2.086  2.3095  0.4443  0.2245
 8272TIP3    H224781   6.888   2.769   2.190  0.1035  2.5067  0.9525
 8273TIP3   OH224782   5.171   5.017   0.526  0.2058 -0.2626  0.6584
 8273TIP3    H124783   5.219   5.020   0.609  0.3017  1.6743  0.5751
 8273TIP3    H224784   5.236   4.989   0.461  0.5101 -0.2996  0.9776
 8274TIP3   OH224785   6.764   1.324   2.500  0.1646  0.1103 -0.2720
 8274TIP3    H124786   6.699   1.311   2.570 -0.7522 -0.4497 -1.1936
 8274TIP3    H224787   6.720   1.382   2.438  0.4021 -0.5676 -1.0910
 8275TIP3   OH224788   4.687   2.398   0.261  0.0726 -0.3619 -0.0649
 8275TIP3    H124789   4.676   2.312   0.300  1.3272 -0.7734 -0.5732
 8275TIP3    H224790   4.769   2.392   0.211  0.4742  1.2700  0.3304
 8276TIP3   OH224791   0.053   0.082   4.644 -0.2856  0.2338  0.0496
 8276TIP3    H124792   0.058   0.176   4.660  2.2126  0.6227 -2.2021
 8276TIP3    H224793   0.009   0.047   4.721  1.4060  2.9157  2.4666
 8277TIP3   OH224794   5.702   3.969   5.133 -0.1356 -0.3480 -0.4882
 8277TIP3    H124795   5.609   3.960   5.154 -0.3706  0.2792 -1.2283
 8277TIP3    H224796   5.735   4.029   5.199 -0.1140 -1.0437  0.1473
 8278TIP3   OH224797   0.942   3.299   3.827 -0.3836 -0.3296 -0.3020
 8278TIP3    H124798   0.916   3.231   3.889 -0.8580 -0.0394 -0.1764
 8278TIP3    H224799   0.903   3.379   3.861 -1.3704 -0.3003 -1.3908
 8279TIP3   OH224800   5.460   3.213   4.337 -0.2210 -0.0939  0.1124
 8279TIP3    H124801   5.478   3.303   4.308 -1.0820  0.6755  1.7976
 8279TIP3    H224802   5.461   3.218   4.433 -0.1472 -1.9313  0.2374
 8280TIP3   OH224803   5.508   2.662   2.473  0.0487  0.3709 -0.8424
 8280TIP3    H124804   5.427   2.646   2.522  0.6701 -0.6274 -0.0882
 8280TIP3    H224805   5.523   2.756   2.481 -1.2138  0.6264 -1.3007
 8281TIP3   OH224806   3.723   4.638   1.281  0.1191  0.4475 -0.6206
 8281TIP3    H124807   3.791   4.677   1.227 -0.4050  1.3469 -0.6382
 8281TIP3    H224808   3.662   4.709   1.300 -0.0432  0.0028  0.6338
 8282TIP3   OH224809   0.635   4.123   0.526 -0.0660 -0.4001  0.0584
 8282TIP3    H124810   0.728   4.129   0.551  0.1029  0.9408 -0.7875
 8282TIP3    H224811   0.600   4.053   0.581  1.3373 -0.6128  0.7311
 8283TIP3   OH224812   6.949   3.785   5.845  0.1519 -0.5153 -0.2534
 8283TIP3    H124813   6.881   3.812   5.784  0.9036 -3.6450 -2.7961
 8283TIP3    H224814   6.943   3.846   5.918 -3.2918  1.1915 -1.7662
 8284TIP3   OH224815   5.046   3.121   3.522 -0.0574 -0.2717  0.3611
 8284TIP3    H124816   5.124   3.065   3.521 -0.3974 -0.7560 -1.0724
 8284TIP3    H224817   4.995   3.092   3.446  0.0494  2.3570 -0.8227
 8285TIP3   OH224818   0.734   3.060   0.572  0.3527  0.0733 -0.0401
 8285TIP3    H124819   0.666   3.051   0.504 -0.0202 -1.3372  0.4942
 8285TIP3    H224820   0.816   3.052   0.524  0.1780  1.7637 -0.6927
 8286TIP3   OH224821   6.838   2.673   2.827 -0.3002  0.0120 -0.2259
 8286TIP3    H124822   6.779   2.672   2.902 -0.5622 -0.5195 -0.4359
 8286TIP3    H224823   6.869   2.583   2.820  1.4097  0.4989  0.5619
 8287TIP3   OH224824   1.842   0.348   1.978  0.1694 -0.2868 -0.0112
 8287TIP3    H124825   1.851   0.437   1.944  0.8260  0.0092  0.8945
 8287TIP3    H224826   1.771   0.354   2.043  1.5545  0.0645  1.5374
 8288TIP3   OH224827   4.322   2.518   4.710  0.1131 -0.0627  0.5527
 8288TIP3    H124828   4.321   2.437   4.658 -0.4009 -0.4723  1.1884
 8288TIP3    H224829   4.413   2.548   4.705  0.5518 -1.2192  1.1271
 8289TIP3   OH224830   1.700   0.232   5.171  0.3401 -0.0003  0.3118
 8289TIP3    H124831   1.652   0.201   5.094  1.1590 -1.2634  0.2858
 8289TIP3    H224832   1.634   0.235   5.240  0.2275 -1.9018  0.3335
 8290TIP3   OH224833   4.903   6.504   4.831 -0.0339 -0.2055 -0.1868
 8290TIP3    H124834   4.935   6.433   4.775 -0.2256 -1.4097  1.1945
 8290TIP3    H224835   4.847   6.462   4.895 -1.8646  1.4658 -0.5712
 8291TIP3   OH224836   0.989   1.358   3.317  0.4375 -0.1397 -0.4137
 8291TIP3    H124837   0.947   1.416   3.381  0.2613 -1.7209  0.9658
 8291TIP3    H224838   0.916   1.312   3.275  0.4023  2.2214 -3.2251
 8292TIP3   OH224839   6.374   5.491   1.772  0.3112  0.3560 -0.2517
 8292TIP3    H124840   6.296   5.514   1.721  0.0252 -0.1019 -0.0280
 8292TIP3    H224841   6.386   5.398   1.757 -0.7366 -0.1637  1.7668
 8293TIP3   OH224842   0.090   3.610   4.110  0.1023  0.0064  0.4754
 8293TIP3    H124843   0.102   3.640   4.201  0.4097  1.6468 -0.0734
 8293TIP3    H224844   0.151   3.536   4.102 -2.0080 -2.0973  2.4106
 8294TIP3   OH224845   1.304   3.211   1.971 -0.2532  0.0611  0.1451
 8294TIP3    H124846   1.309   3.259   2.053  0.5546 -0.4845  0.4207
 8294TIP3    H224847   1.263   3.272   1.910  0.5963  1.0294  0.5303
 8295TIP3   OH224848   1.828   1.659   5.058 -0.0444 -0.0145 -0.2708
 8295TIP3    H124849   1.889   1.630   4.990 -0.3080 -1.6287  0.1419
 8295TIP3    H224850   1.745   1.669   5.013 -0.2973 -1.4196 -0.1473
 8296TIP3   OH224851   2.008   6.567   4.530 -0.0768 -0.5487 -0.2590
 8296TIP3    H124852   2.015   6.480   4.570  0.4985 -0.6249 -0.5162
 8296TIP3    H224853   1.914   6.578   4.513 -0.0870 -1.4273 -0.8808
 8297TIP3   OH224854   5.535   3.500   4.292 -0.3009 -0.3438  0.4072
 8297TIP3    H124855   5.613   3.546   4.259 -0.8737 -0.1470 -0.7061
 8297TIP3    H224856   5.537   3.516   4.386 -0.1570  1.4973  0.1347
 8298TIP3   OH224857   4.438   5.583   5.541  0.0026 -0.3516 -0.0534
 8298TIP3    H124858   4.374   5.627   5.598  0.0733  0.8125 -0.8325
 8298TIP3    H224859   4.403   5.594   5.453  1.0985 -0.0001 -0.4569
 8299TIP3   OH224860   2.145   5.508   1.604  0.0185  0.9146 -0.3169
 8299TIP3    H124861   2.108   5.593   1.581  0.8175  2.0472  2.1818
 8299TIP3    H224862   2.109   5.489   1.691  1.1665 -0.4659 -0.1092
 8300TIP3   OH224863   6.703   5.995   5.195 -0.3160 -0.6867 -0.1473
 8300TIP3    H124864   6.613   5.961   5.194  0.0517 -1.7303 -1.9525
 8300TIP3    H224865   6.699   6.071   5.252 -1.6760 -2.4495  2.3102
 8301TIP3   OH224866   2.513   6.702   0.429  0.2668 -0.3012 -0.1629
 8301TIP3    H124867   2.537   6.756   0.353 -1.5865  3.0183  1.4067
 8301TIP3    H224868   2.461   6.630   0.391  0.3538  0.5956 -2.1213
 8302TIP3   OH224869   6.328   6.458   1.836  0.0838  0.6671  0.1760
 8302TIP3    H124870   6.294   6.393   1.898  0.5195  0.6203  0.3671
 8302TIP3    H224871   6.358   6.530   1.891 -0.8708  1.2675 -0.0615
 8303TIP3   OH224872   1.493   0.244   1.299  0.2582  0.0938 -0.2045
 8303TIP3    H124873   1.520   0.320   1.350 -0.8626  0.2450  0.1852
 8303TIP3    H224874   1.429   0.277   1.237 -0.9236 -0.6643  0.5728
 8304TIP3   OH224875   6.212   2.373   2.204  0.2440 -0.3383 -0.2464
 8304TIP3    H124876   6.225   2.289   2.159 -2.2881 -0.9625  0.0586
 8304TIP3    H224877   6.267   2.367   2.282  1.5761 -0.8942 -1.1901
 8305TIP3   OH224878   0.956   3.280   1.890  0.0950  0.8699  0.2007
 8305TIP3    H124879   0.959   3.253   1.798 -0.5516 -1.8141  0.9023
 8305TIP3    H224880   1.034   3.241   1.929 -0.2183  1.0443  1.0179
 8306TIP3   OH224881   0.168   4.777   4.941  0.1914  0.2209  0.4777
 8306TIP3    H124882   0.175   4.740   4.853  0.5774 -0.5916  0.8359
 8306TIP3    H224883   0.146   4.702   4.997  0.4612  0.6322  1.1478
 8307TIP3   OH224884   7.024   4.576   3.415 -0.4483  0.0475  0.0765
 8307TIP3    H124885   6.962   4.632   3.368 -1.5320 -0.8213  0.4284
 8307TIP3    H224886   7.099   4.568   3.356 -0.8878  0.7037 -0.5811
 8308TIP3   OH224887   3.897   1.800   3.375 -0.5629 -0.1539  0.1782
 8308TIP3    H124888   3.927   1.763   3.292  0.0371  0.8144 -0.0427
 8308TIP3    H224889   3.948   1.755   3.442  1.0761  1.1271 -0.1621
 8309TIP3   OH224890   2.115   5.769   1.555  0.0094 -0.5653  0.4411
 8309TIP3    H124891   2.073   5.852   1.535  1.9757  0.6906  1.2815
 8309TIP3    H224892   2.194   5.768   1.501 -0.1820 -2.1256  0.1149
 8310TIP3   OH224893   3.414   2.323   5.668 -0.1081 -0.1811  0.0945
 8310TIP3    H124894   3.389   2.375   5.591  1.2546  1.7818  0.8717
 8310TIP3    H224895   3.449   2.242   5.631 -1.8046 -0.3669 -1.2166
 8311TIP3   OH224896   6.896   5.811   5.106  0.1795  0.1579 -0.2003
 8311TIP3    H124897   6.830   5.825   5.038  0.4502 -1.0643 -0.7326
 8311TIP3    H224898   6.873   5.727   5.145  2.0781 -0.8743 -1.1967
 8312TIP3   OH224899   5.515   4.840   0.778 -0.5899  0.4347 -0.9036
 8312TIP3    H124900   5.535   4.920   0.729 -0.0099  0.0168 -1.3653
 8312TIP3    H224901   5.440   4.802   0.732  0.1938 -0.1588 -1.7373
 8313TIP3   OH224902   5.665   2.779   0.846 -0.1007  0.2557  0.4283
 8313TIP3    H124903   5.638   2.844   0.911  1.2735 -0.5784  1.9176
 8313TIP3    H224904   5.672   2.697   0.896  1.8522 -0.2398 -0.5360
 8314TIP3   OH224905   4.754   5.563   4.713 -0.7804 -0.4082 -0.0642
 8314TIP3    H124906   4.684   5.596   4.657 -1.3258 -1.8904 -0.2999
 8314TIP3    H224907   4.749   5.468   4.704 -0.1675 -0.6332  1.6479
 8315TIP3   OH224908   4.952   2.567   4.109 -0.6148 -0.1008 -0.4458
 8315TIP3    H124909   4.998   2.518   4.040  0.3043 -0.8148  0.6412
 8315TIP3    H224910   5.021   2.600   4.166 -1.2891  1.6050 -0.5638
 8316TIP3   OH224911   5.290   5.092   2.050  0.1025 -0.1417 -0.4107
 8316TIP3    H124912   5.362   5.076   1.989 -0.3446  0.4724 -1.1221
 8316TIP3    H224913   5.310   5.177   2.089  0.8068 -0.8909  0.9412
 8317TIP3   OH224914   0.495   1.884   2.914  0.0621  0.0795  0.0719
 8317TIP3    H124915   0.538   1.966   2.937 -0.4473 -0.0478  1.6301
 8317TIP3    H224916   0.496   1.832   2.995 -0.8584 -0.8835 -0.4928
 8318TIP3   OH224917   4.942   0.570   3.350  0.0558  0.2014 -0.5933
 8318TIP3    H124918   4.964   0.635   3.283 -0.8956  1.3823  0.2052
 8318TIP3    H224919   4.920   0.622   3.427  2.1899 -1.1332  1.0201
 8319TIP3   OH224920   5.774   2.154   4.072 -0.1948  0.5223  0.5164
 8319TIP3    H124921   5.822   2.228   4.109 -1.6330  1.9001 -0.2365
 8319TIP3    H224922   5.815   2.140   3.986 -0.2199  0.7517  0.4660
 8320TIP3   OH224923   1.989   6.748   5.300  0.3879 -0.5344  0.2981
 8320TIP3    H124924   1.934   6.669   5.301 -0.2461 -0.1050 -0.1756
 8320TIP3    H224925   2.077   6.715   5.283  0.0291 -1.0874 -0.5167
 8321TIP3   OH224926   2.839   4.656   1.123 -0.2421  0.0685  0.1201
 8321TIP3    H124927   2.762   4.705   1.152 -1.0683 -0.3417 -1.2648
 8321TIP3    H224928   2.913   4.702   1.162 -1.0600  1.7602 -0.2238
 8322TIP3   OH224929   5.527   2.409   2.689  0.4200  0.2421  0.6875
 8322TIP3    H124930   5.564   2.392   2.602  1.0238  1.0620  0.7633
 8322TIP3    H224931   5.603   2.436   2.741  0.1762 -0.8909  1.6555
 8323TIP3   OH224932   4.655   5.730   1.370  0.2614 -0.6768  0.4804
 8323TIP3    H124933   4.727   5.706   1.429  0.5440  0.3042  0.5538
 8323TIP3    H224934   4.682   5.697   1.284  0.9719 -0.0158  0.4378
 8324TIP3   OH224935   3.259   3.647   0.138  0.3390  0.1927 -0.5366
 8324TIP3    H124936   3.224   3.736   0.129  2.4353  1.3765  1.9788
 8324TIP3    H224937   3.225   3.616   0.222 -0.6367 -1.5906 -1.5283
 8325TIP3   OH224938   1.434   2.578   4.403  0.0725  0.7466  0.2754
 8325TIP3    H124939   1.448   2.600   4.495  0.2456 -0.6970  0.6224
 8325TIP3    H224940   1.354   2.526   4.403  1.1931 -1.0383 -0.0741
 8326TIP3   OH224941   2.307   4.244   0.855  0.7262  0.4911  0.1273
 8326TIP3    H124942   2.341   4.157   0.837 -0.6923  0.0015 -0.3048
 8326TIP3    H224943   2.347   4.300   0.788  0.3499 -0.1526 -0.6556
 8327TIP3   OH224944   3.039   5.339   0.519 -0.6369 -0.9095 -0.1354
 8327TIP3    H124945   3.103   5.397   0.477 -2.3543  0.1840 -1.3756
 8327TIP3    H224946   3.007   5.283   0.448  0.0232 -2.5315  0.7889
 8328TIP3   OH224947   1.855   1.989   5.111 -0.1241 -0.0427  0.0246
 8328TIP3    H124948   1.838   2.065   5.056 -0.3917  0.5009  0.8399
 8328TIP3    H224949   1.823   1.915   5.059  1.6298  0.1861 -1.4676
 8329TIP3   OH224950   6.869   5.195   1.160  0.6951 -0.2023 -0.5590
 8329TIP3    H124951   6.813   5.118   1.153  0.9325 -0.6872  1.8827
 8329TIP3    H224952   6.958   5.161   1.156  0.8108  0.1749 -1.2810
 8330TIP3   OH224953   3.375   4.233   3.132  0.4443 -0.4236 -0.3255
 8330TIP3    H124954   3.312   4.224   3.204  1.9393  1.2374  1.2951
 8330TIP3    H224955   3.412   4.145   3.121 -0.6989 -0.9728  0.0531
 8331TIP3   OH224956   6.628   0.953   4.143 -0.3950  0.3650 -0.1490
 8331TIP3    H124957   6.659   0.900   4.215  1.2174 -0.9847 -1.7508
 8331TIP3    H224958   6.705   0.968   4.088 -1.3441  2.2009 -1.0874
 8332TIP3   OH224959   3.718   2.247   1.397  0.8081 -0.2300 -0.1852
 8332TIP3    H124960   3.771   2.196   1.458 -1.9521 -1.5434  1.3303
 8332TIP3    H224961   3.688   2.183   1.332 -0.1460  0.1253 -0.1072
 8333TIP3   OH224962   3.894   6.044   0.855  0.0590 -0.1028  0.0433
 8333TIP3    H124963   3.819   5.992   0.825 -1.8681  2.4909 -0.0630
 8333TIP3    H224964   3.906   6.019   0.946 -1.9365  0.3952  0.4996
 8334TIP3   OH224965   3.149   4.586   2.087 -0.1429 -0.0190 -0.2734
 8334TIP3    H124966   3.140   4.681   2.083  0.1416  0.2332  2.6113
 8334TIP3    H224967   3.243   4.572   2.101 -0.4385 -0.5543  1.3576
 8335TIP3   OH224968   2.265   6.542   3.503 -0.7102 -0.0835 -0.2190
 8335TIP3    H124969   2.230   6.454   3.512 -1.7701  0.3358 -0.0953
 8335TIP3    H224970   2.359   6.532   3.518 -0.6075 -1.3901 -1.5444
 8336TIP3   OH224971   6.888   2.156   2.658  0.3678 -0.3985  0.0869
 8336TIP3    H124972   6.793   2.168   2.652  0.4400 -0.6363 -2.8565
 8336TIP3    H224973   6.923   2.244   2.673 -0.2018  0.1801 -1.7325
 8337TIP3   OH224974   2.423   5.623   0.057 -0.3048 -0.7143  0.5170
 8337TIP3    H124975   2.417   5.539   0.011 -2.3843 -0.3949  0.0997
 8337TIP3    H224976   2.372   5.683   0.003 -1.2869  0.1071  2.2781
 8338TIP3   OH224977   4.796   5.312   0.240  0.1807 -0.4654  0.1387
 8338TIP3    H124978   4.763   5.240   0.293  0.3114 -2.3550 -2.1665
 8338TIP3    H224979   4.890   5.300   0.237  0.2808  0.2273  0.2929
 8339TIP3   OH224980   6.751   0.747   1.133 -0.4376  0.4317 -0.1696
 8339TIP3    H124981   6.689   0.820   1.125  0.0335  0.6751 -2.3789
 8339TIP3    H224982   6.696   0.669   1.140 -0.9709  0.8033 -0.1506
 8340TIP3   OH224983   4.201   2.296   4.553 -0.1673  0.7891 -0.1584
 8340TIP3    H124984   4.149   2.257   4.623 -1.1153  0.8288 -0.8218
 8340TIP3    H224985   4.278   2.239   4.545 -0.7143  0.0237  0.0012
 8341TIP3   OH224986   2.697   4.949   0.747  0.0174 -0.0033 -0.4684
 8341TIP3    H124987   2.787   4.920   0.761 -0.1680 -0.6263 -0.4965
 8341TIP3    H224988   2.691   4.963   0.652  0.0498 -0.0927 -0.4838
 8342TIP3   OH224989   1.103   1.319   5.345 -0.1385  0.2018  0.3075
 8342TIP3    H124990   1.138   1.267   5.272  0.8007 -0.9233  1.5272
 8342TIP3    H224991   1.039   1.261   5.387 -0.3061  0.6639  0.6962
 8343TIP3   OH224992   5.195   4.875   5.661 -0.3416 -0.5698  0.1231
 8343TIP3    H124993   5.278   4.884   5.615  0.3292  0.5540  1.4693
 8343TIP3    H224994   5.219   4.862   5.753 -1.6464  0.0825  0.5878
 8344TIP3   OH224995   7.051   4.400   4.932  0.1041  0.6814  0.3262
 8344TIP3    H124996   7.058   4.495   4.917  0.3203  0.5994 -0.0969
 8344TIP3    H224997   7.091   4.361   4.855 -1.4449  0.2243 -0.2791
 8345TIP3   OH224998   5.700   3.027   2.923  0.7824 -0.1208 -0.3296
 8345TIP3    H124999   5.752   3.032   3.003  0.6169  0.2598 -0.2428
 8345TIP3    H225000   5.671   2.935   2.919  0.3086 -0.0089  0.3589
 8346TIP3   OH225001   6.336   0.212   1.536  0.0614  0.4613  0.2063
 8346TIP3    H125002   6.305   0.126   1.506 -0.7709  0.7482  0.2449
 8346TIP3    H225003   6.268   0.273   1.509  0.8695  1.1810 -0.2211
 8347TIP3   OH225004   1.868   1.028   0.890  0.0588 -0.2179  0.0437
 8347TIP3    H125005   1.935   0.990   0.833  0.2627  2.1287 -1.4362
 8347TIP3    H225006   1.918   1.071   0.959 -0.0204 -0.0717  0.0090
 8348TIP3   OH225007   0.820   5.264   5.047  0.5058  0.0187 -0.0194
 8348TIP3    H125008   0.796   5.197   5.110 -0.0457 -1.0784 -1.3501
 8348TIP3    H225009   0.821   5.345   5.098  1.0100 -0.9406  1.5880
 8349TIP3   OH225010   3.179   1.908   1.650  0.0514 -0.6991  0.3799
 8349TIP3    H125011   3.166   1.819   1.616  0.5416 -0.8165  0.4937
 8349TIP3    H225012   3.106   1.921   1.710  1.0472 -1.7810  1.8863
 8350TIP3   OH225013   2.140   2.724   5.495 -0.6952  0.0741 -0.0189
 8350TIP3    H125014   2.225   2.729   5.451  1.3684  0.5468  3.6560
 8350TIP3    H225015   2.122   2.630   5.501  0.1759 -0.0856  0.1962
 8351TIP3   OH225016   5.697   0.686   2.367  0.1618 -0.2537 -0.4794
 8351TIP3    H125017   5.647   0.745   2.423  0.8579 -0.0423 -0.0577
 8351TIP3    H225018   5.656   0.692   2.281 -0.8402 -0.4718 -0.0313
 8352TIP3   OH225019   1.470   6.541   2.565 -0.5527 -0.1710  0.1660
 8352TIP3    H125020   1.538   6.474   2.569  0.8089  1.2293  1.8889
 8352TIP3    H225021   1.423   6.532   2.647 -0.7042  0.6422  0.1744
 8353TIP3   OH225022   0.726   2.999   5.347  0.2974  0.5811  0.5855
 8353TIP3    H125023   0.761   3.020   5.434 -0.4587 -0.9041  1.2777
 8353TIP3    H225024   0.676   3.077   5.322  0.1482  0.8461  1.6688
 8354TIP3   OH225025   1.385   1.923   2.041 -0.2120 -0.2181  0.0497
 8354TIP3    H125026   1.473   1.922   2.005  0.4435 -1.2503  1.5772
 8354TIP3    H225027   1.327   1.909   1.966  1.0565 -1.9605 -0.6427
 8355TIP3   OH225028   6.172   6.249   1.571  0.3748  0.3114 -0.4568
 8355TIP3    H125029   6.130   6.297   1.500 -0.9376  0.6152  0.4944
 8355TIP3    H225030   6.259   6.228   1.537  0.0555  1.1110 -1.8549
 8356TIP3   OH225031   4.783   6.597   3.615 -0.7712 -0.2523 -0.0240
 8356TIP3    H125032   4.755   6.546   3.538  1.5341 -2.6483  0.5659
 8356TIP3    H225033   4.865   6.638   3.588  0.6771 -2.0521  1.4003
 8357TIP3   OH225034   5.182   3.944   4.465 -0.0905 -0.3247 -0.0340
 8357TIP3    H125035   5.133   4.005   4.520 -1.0947  0.5088 -1.7626
 8357TIP3    H225036   5.176   3.860   4.510  0.2936  0.5883  1.7926
 8358TIP3   OH225037   0.254   5.899   4.573 -0.0428  0.2564  0.3842
 8358TIP3    H125038   0.313   5.969   4.546 -1.2561  0.8761 -0.7827
 8358TIP3    H225039   0.176   5.912   4.519 -0.5255 -1.6461  0.5732
 8359TIP3   OH225040   3.277   2.551   4.233 -0.1183  0.1951  0.3595
 8359TIP3    H125041   3.247   2.467   4.198 -1.5712  0.7578  0.1687
 8359TIP3    H225042   3.371   2.553   4.214 -0.5012 -0.2942 -1.9251
 8360TIP3   OH225043   5.908   3.199   4.784 -0.4326  0.0502 -0.7317
 8360TIP3    H125044   5.939   3.289   4.794  0.5192 -0.4881  1.9667
 8360TIP3    H225045   5.920   3.180   4.691  3.2223  1.3778 -0.6972
 8361TIP3   OH225046   5.392   6.380   2.449  0.1608  0.2081 -0.0572
 8361TIP3    H125047   5.430   6.418   2.369 -0.4185 -0.5033 -0.6824
 8361TIP3    H225048   5.297   6.387   2.436  0.0364 -1.3635 -0.1559
 8362TIP3   OH225049   5.287   2.160   4.866  0.0349 -0.1390  0.3707
 8362TIP3    H125050   5.287   2.165   4.771  1.8968  0.0717  0.3464
 8362TIP3    H225051   5.196   2.142   4.889 -0.9653  2.3122 -1.2869
 8363TIP3   OH225052   5.609   3.933   3.789 -0.5910 -0.2807  0.1946
 8363TIP3    H125053   5.565   3.972   3.864 -1.0199  1.3356 -0.8502
 8363TIP3    H225054   5.696   3.912   3.821  0.0053  2.4294  0.6317
 8364TIP3   OH225055   5.789   1.726   2.264  0.3549  0.2778  0.6646
 8364TIP3    H125056   5.790   1.633   2.240 -0.7633  0.2745  0.6068
 8364TIP3    H225057   5.767   1.726   2.357 -1.9580  0.5543  0.1663
 8365TIP3   OH225058   0.111   2.865   1.065 -0.0886  0.6457 -0.1347
 8365TIP3    H125059   0.053   2.888   1.137  0.5157  1.3537  0.1434
 8365TIP3    H225060   0.098   2.933   1.000 -1.4088 -0.5518 -1.1925
 8366TIP3   OH225061   5.852   2.860   4.752 -0.3995  0.0199 -0.1844
 8366TIP3    H125062   5.788   2.927   4.777 -0.1012  0.0800  0.4588
 8366TIP3    H225063   5.896   2.838   4.835 -0.5382 -1.0147 -0.3762
 8367TIP3   OH225064   6.290   4.933   2.049 -0.4948  0.3796  0.2192
 8367TIP3    H125065   6.351   4.919   1.976  0.7261  0.9247  1.1048
 8367TIP3    H225066   6.225   4.994   2.014 -0.2242  0.2273 -0.5722
 8368TIP3   OH225067   5.821   2.008   0.812  0.4068 -0.5144  0.5306
 8368TIP3    H125068   5.878   2.015   0.889  0.9454 -2.0602  0.2999
 8368TIP3    H225069   5.737   1.978   0.847  0.8901 -2.0166  0.4452
 8369TIP3   OH225070   3.732   3.946   4.037 -0.7068  0.6506 -0.1178
 8369TIP3    H125071   3.786   4.015   4.076 -3.6464  2.1530  1.6918
 8369TIP3    H225072   3.733   3.876   4.102 -0.6755  0.5599 -0.2169
 8370TIP3   OH225073   0.266   4.884   5.490  0.1350  0.3963 -0.8020
 8370TIP3    H125074   0.318   4.881   5.410  0.2401  0.7882 -0.7483
 8370TIP3    H225075   0.258   4.792   5.517  2.0901  0.4232  0.0213
 8371TIP3   OH225076   4.549   4.581   3.952 -0.1710 -0.4401  1.0909
 8371TIP3    H125077   4.605   4.658   3.958 -0.0532 -0.3450 -0.7081
 8371TIP3    H225078   4.460   4.616   3.962 -0.3189  0.3831 -1.9422
 8372TIP3   OH225079   1.199   1.702   5.404 -0.9681 -0.4726  0.3526
 8372TIP3    H125080   1.282   1.655   5.418 -0.6559 -0.1938 -0.5333
 8372TIP3    H225081   1.136   1.656   5.460 -0.8425 -2.4333 -1.0070
 8373TIP3   OH225082   5.801   2.168   2.416 -0.1397 -0.4519 -0.5508
 8373TIP3    H125083   5.762   2.254   2.401  0.5426  0.6079  2.8573
 8373TIP3    H225084   5.861   2.155   2.343 -0.5901  1.7690 -1.3733
 8374TIP3   OH225085   6.035   6.526   0.207 -0.4003 -0.0223  0.2104
 8374TIP3    H125086   6.047   6.558   0.118  0.7509  1.6329  0.9182
 8374TIP3    H225087   5.956   6.571   0.238  1.0244  2.0096  1.0869
 8375TIP3   OH225088   3.868   2.777   5.276 -0.4339  0.5016 -0.2318
 8375TIP3    H125089   3.875   2.847   5.210 -0.8352 -0.0140 -0.8285
 8375TIP3    H225090   3.941   2.718   5.255 -2.2175 -1.2126 -2.0985
 8376TIP3   OH225091   0.470   1.569   3.852 -0.2539  0.1843 -0.7101
 8376TIP3    H125092   0.483   1.593   3.943  0.6846 -0.3621 -0.6885
 8376TIP3    H225093   0.379   1.593   3.833 -0.6993 -0.3992  0.5827
 8377TIP3   OH225094   1.720   5.158   3.834  0.0557  0.4681 -0.0247
 8377TIP3    H125095   1.666   5.080   3.847  0.6397 -0.4776 -2.6044
 8377TIP3    H225096   1.807   5.132   3.863 -0.0044  0.6197  0.3032
 8378TIP3   OH225097   6.460   1.199   4.561 -0.3215  0.2279 -0.1939
 8378TIP3    H125098   6.401   1.206   4.486  0.5123  1.2160 -0.7907
 8378TIP3    H225099   6.452   1.283   4.606  0.0409  0.0771  0.1545
 8379TIP3   OH225100   6.828   1.290   0.851 -0.0011  0.9388 -0.2644
 8379TIP3    H125101   6.854   1.310   0.941 -1.6621 -1.0166  0.7376
 8379TIP3    H225102   6.907   1.307   0.799  0.7691  2.8869  1.4105
 8380TIP3   OH225103   5.337   1.838   3.135 -0.4885  0.0475  0.1166
 8380TIP3    H125104   5.307   1.849   3.225 -1.2964 -0.4649 -0.0838
 8380TIP3    H225105   5.419   1.788   3.144 -0.5184  0.0737  0.5716
 8381TIP3   OH225106   2.946   1.304   4.078  0.7923  0.0710 -0.0306
 8381TIP3    H125107   2.951   1.210   4.060  1.0078  0.2780 -1.1553
 8381TIP3    H225108   3.005   1.344   4.014 -1.1540  1.1591 -1.2656
 8382TIP3   OH225109   0.798   2.265   2.348 -0.0688  0.2449  0.2626
 8382TIP3    H125110   0.890   2.240   2.337  0.1412  1.3705 -0.7943
 8382TIP3    H225111   0.752   2.215   2.279  0.0256  1.0103 -0.3703
 8383TIP3   OH225112   4.023   1.692   1.847 -0.0253 -0.1848 -0.8666
 8383TIP3    H125113   3.939   1.664   1.884 -0.4181  0.4856 -1.2449
 8383TIP3    H225114   4.088   1.642   1.897 -0.6454 -0.7967 -0.6450
 8384TIP3   OH225115   3.140   6.141   2.402  0.0467 -0.5521 -0.2234
 8384TIP3    H125116   3.200   6.138   2.477 -1.3855 -0.1525  0.9946
 8384TIP3    H225117   3.068   6.084   2.428  0.0287 -1.3022 -1.8072
 8385TIP3   OH225118   4.550   1.457   1.385  0.0356  0.3829  0.4175
 8385TIP3    H125119   4.582   1.388   1.444  0.4295  0.2524  0.0612
 8385TIP3    H225120   4.623   1.472   1.325  0.7232  2.4731  1.6615
 8386TIP3   OH225121   3.081   3.937   1.814  0.0276 -0.2473  0.1101
 8386TIP3    H125122   3.080   3.872   1.885 -2.6375  1.1442  1.5146
 8386TIP3    H225123   3.009   3.911   1.757  0.6530 -0.0006 -0.8111
 8387TIP3   OH225124   7.149   3.608   5.231  0.0364 -0.0710  0.1452
 8387TIP3    H125125   7.140   3.696   5.268 -0.0182 -0.4474  1.0648
 8387TIP3    H225126   7.063   3.567   5.246 -0.4808  0.2311 -1.7318
 8388TIP3   OH225127   5.830   1.000   3.809  0.4060  0.5141  0.2345
 8388TIP3    H125128   5.816   0.970   3.719  0.3881  1.5222 -0.1198
 8388TIP3    H225129   5.916   1.042   3.806 -0.2130  1.8440  0.3144
 8389TIP3   OH225130   7.035   3.833   0.831  0.3338 -0.3727  0.1142
 8389TIP3    H125131   7.121   3.850   0.792  0.7544  0.1680  1.2288
 8389TIP3    H225132   7.036   3.883   0.913 -0.9841 -0.4966  0.2207
 8390TIP3   OH225133   1.763   4.770   0.953 -0.2010  0.0343  0.2733
 8390TIP3    H125134   1.683   4.818   0.933 -0.5612 -0.5749  0.2359
 8390TIP3    H225135   1.826   4.800   0.888 -0.6322 -0.0611 -0.1932
 8391TIP3   OH225136   4.350   1.176   2.615 -0.0207 -0.4940 -0.4985
 8391TIP3    H125137   4.294   1.222   2.678 -1.0479  1.2126 -2.5199
 8391TIP3    H225138   4.439   1.198   2.642 -0.4474  0.5663  0.1326
 8392TIP3   OH225139   0.386   6.728   4.444 -0.2398  0.1314  0.0282
 8392TIP3    H125140   0.338   6.658   4.488 -1.3528 -0.2859 -1.7083
 8392TIP3    H225141   0.317   6.788   4.414  0.6070  1.2870  0.3465
 8393TIP3   OH225142   1.033   5.516   3.676  0.4307  0.4096  0.3091
 8393TIP3    H125143   1.123   5.544   3.691  0.2850 -0.3080  3.2227
 8393TIP3    H225144   1.040   5.425   3.649  0.5981  0.6058 -0.3170
 8394TIP3   OH225145   0.618   6.260   3.765  0.6056  0.3543  0.5229
 8394TIP3    H125146   0.649   6.173   3.740  0.4594  0.6630 -0.7824
 8394TIP3    H225147   0.526   6.247   3.788  0.7040  0.0897  0.7767
 8395TIP3   OH225148   1.108   5.219   3.572 -0.2647 -0.6193  0.0821
 8395TIP3    H125149   1.203   5.216   3.563 -0.3468  0.3513 -1.5311
 8395TIP3    H225150   1.078   5.136   3.534 -0.1619  0.2335 -2.0286
 8396TIP3   OH225151   0.183   6.133   2.280  0.2538  0.2358 -0.1846
 8396TIP3    H125152   0.250   6.072   2.249  0.4369  0.8313 -0.9916
 8396TIP3    H225153   0.231   6.192   2.339 -0.0588 -0.7859  1.1452
 8397TIP3   OH225154   0.881   2.644   1.978 -0.3533 -0.3065 -0.0805
 8397TIP3    H125155   0.928   2.700   1.917 -2.3313 -0.4394 -1.8427
 8397TIP3    H225156   0.896   2.683   2.064  3.0450 -0.4689 -0.4632
 8398TIP3   OH225157   5.497   6.404   5.023  0.8700  0.0414  0.3307
 8398TIP3    H125158   5.507   6.363   5.108  1.3366 -1.1198 -0.2611
 8398TIP3    H225159   5.403   6.415   5.012  0.8025  0.0515  0.9270
 8399TIP3   OH225160   4.467   5.520   1.475 -0.2006  0.0931 -0.7964
 8399TIP3    H125161   4.552   5.510   1.519 -0.0442 -0.1680 -1.1471
 8399TIP3    H225162   4.479   5.594   1.416 -1.1581  2.0281  1.3241
 8400TIP3   OH225163   7.126   4.229   0.714  0.2304 -0.1725 -0.2827
 8400TIP3    H125164   7.043   4.209   0.757  0.6004 -2.3113 -0.4493
 8400TIP3    H225165   7.190   4.173   0.758  0.8430 -1.5044 -2.6626
 8401TIP3   OH225166   1.701   6.209   0.125  0.0793  0.0362  0.0217
 8401TIP3    H125167   1.698   6.305   0.133  0.0804  0.1537 -1.2048
 8401TIP3    H225168   1.716   6.193   0.032 -2.3340 -1.1873 -0.2334
 8402TIP3   OH225169   3.558   5.707   0.470  0.0319 -0.2212  0.2752
 8402TIP3    H125170   3.611   5.767   0.522 -0.4139  0.0466  0.4306
 8402TIP3    H225171   3.478   5.756   0.450 -0.9720 -1.2144  1.6122
 8403TIP3   OH225172   3.721   2.177   0.317  0.0066 -0.2240  0.3524
 8403TIP3    H125173   3.640   2.166   0.266 -0.4499  0.4834  0.9035
 8403TIP3    H225174   3.779   2.108   0.285 -0.2247  0.2457 -1.1945
 8404TIP3   OH225175   4.422   6.394   4.316 -0.1124  0.3558 -0.2040
 8404TIP3    H125176   4.454   6.421   4.402 -0.9414 -1.2431  0.6539
 8404TIP3    H225177   4.500   6.363   4.270  0.4041  1.5944 -0.2215
 8405TIP3   OH225178   3.785   1.833   2.124 -0.2618  0.0788 -0.6078
 8405TIP3    H125179   3.738   1.754   2.100 -3.0796  1.8716 -1.4512
 8405TIP3    H225180   3.738   1.867   2.200  1.0718  0.8122 -0.0799
 8406TIP3   OH225181   1.429   5.224   0.797 -0.1228 -0.4723  0.2359
 8406TIP3    H125182   1.416   5.302   0.852 -1.7382  0.2531 -1.0707
 8406TIP3    H225183   1.513   5.238   0.754 -0.4037  0.5749  0.0041
 8407TIP3   OH225184   5.941   3.175   4.493  0.2223  0.3929  0.1284
 8407TIP3    H125185   5.941   3.236   4.419 -0.1282  0.2941  0.0479
 8407TIP3    H225186   5.981   3.096   4.458  0.2774  0.4267  0.1130
 8408TIP3   OH225187   6.119   1.402   4.149  0.0295 -0.0745 -0.2733
 8408TIP3    H125188   6.174   1.468   4.107  0.6396 -0.6653 -0.4246
 8408TIP3    H225189   6.099   1.340   4.079 -0.8139  0.1215 -0.2102
 8409TIP3   OH225190   3.225   1.443   0.170  0.1646  0.0305  0.1860
 8409TIP3    H125191   3.261   1.371   0.222 -1.1086  0.3182  1.5166
 8409TIP3    H225192   3.136   1.415   0.150  0.1479  0.6027 -0.5517
 8410TIP3   OH225193   6.210   4.689   1.655  0.2963  0.7047 -0.4831
 8410TIP3    H125194   6.194   4.775   1.616  1.5655  0.8707 -0.7007
 8410TIP3    H225195   6.258   4.642   1.587 -2.7349 -1.2016 -1.4979
 8411TIP3   OH225196   0.151   5.514   5.575  0.1174  0.2398 -0.1451
 8411TIP3    H125197   0.118   5.570   5.506 -1.0895  0.6636  0.7462
 8411TIP3    H225198   0.106   5.543   5.654  0.1614 -1.3694  0.5141
 8412TIP3   OH225199   2.214   3.391   2.139 -0.5013 -0.3849 -0.4752
 8412TIP3    H125200   2.268   3.445   2.082 -0.5391  0.0424 -0.1113
 8412TIP3    H225201   2.127   3.430   2.134 -0.4801 -0.2816 -0.0407
 8413TIP3   OH225202   1.226   0.905   1.483  0.1229 -0.0137 -0.6928
 8413TIP3    H125203   1.249   0.996   1.501  0.3096  0.0215 -1.0909
 8413TIP3    H225204   1.308   0.856   1.496 -0.3133 -0.3421  0.9682
 8414TIP3   OH225205   2.786   5.621   3.692 -0.1616 -0.4965  0.5772
 8414TIP3    H125206   2.846   5.694   3.680  0.7559 -1.3621 -0.2614
 8414TIP3    H225207   2.724   5.651   3.759  0.5129  0.8339  0.6247
 8415TIP3   OH225208   4.722   6.132   3.881  0.0872 -0.0040  0.1633
 8415TIP3    H125209   4.724   6.042   3.848  0.2415  0.1515 -0.2517
 8415TIP3    H225210   4.674   6.181   3.815 -1.0010  0.0035  0.9414
 8416TIP3   OH225211   3.098   4.977   1.424 -0.3125  0.3894 -0.0837
 8416TIP3    H125212   3.040   4.987   1.499 -2.6802 -1.2998 -1.5431
 8416TIP3    H225213   3.067   5.041   1.360 -1.3011 -1.1715 -1.2407
 8417TIP3   OH225214   2.668   2.622   0.398 -0.5603  0.1498 -0.8070
 8417TIP3    H125215   2.632   2.656   0.480 -2.2260 -0.4721 -1.2456
 8417TIP3    H225216   2.706   2.698   0.355  1.9999  0.2103  1.3076
 8418TIP3   OH225217   5.724   4.427   2.113  0.0965  0.3747  0.1153
 8418TIP3    H125218   5.804   4.375   2.107  0.8859  1.6408 -0.9426
 8418TIP3    H225219   5.669   4.395   2.042  0.2642  0.4666 -0.0571
 8419TIP3   OH225220   4.965   6.252   1.806 -0.1918  0.0661  0.2776
 8419TIP3    H125221   4.951   6.284   1.717  0.1866  1.3585  0.6595
 8419TIP3    H225222   5.022   6.318   1.847 -1.2139  0.0613  1.7963
 8420TIP3   OH225223   5.556   3.381   0.332 -0.2152  0.6725 -0.2658
 8420TIP3    H125224   5.542   3.436   0.255 -0.3968  0.9750 -0.0147
 8420TIP3    H225225   5.477   3.391   0.385  0.0338  0.6966  0.1054
 8421TIP3   OH225226   2.473   2.634   2.597 -0.1511  0.2641 -0.0546
 8421TIP3    H125227   2.444   2.631   2.688  0.7651  1.6226  0.3097
 8421TIP3    H225228   2.553   2.582   2.595 -1.7316 -2.3313 -0.7748
 8422TIP3   OH225229   2.373   0.140   3.865 -0.1630  0.0454  0.1656
 8422TIP3    H125230   2.279   0.124   3.866 -0.2822  0.7146  1.7930
 8422TIP3    H225231   2.412   0.053   3.855 -0.9314 -0.3961  0.9030
 8423TIP3   OH225232   3.414   1.537   0.701 -0.1949 -0.0045 -0.1213
 8423TIP3    H125233   3.347   1.471   0.687 -0.2244 -0.1780  0.7827
 8423TIP3    H225234   3.444   1.561   0.613 -1.2759 -0.0893 -0.5214
 8424TIP3   OH225235   6.810   5.753   0.192 -0.1300  0.2237  0.4125
 8424TIP3    H125236   6.763   5.688   0.245 -0.3826 -0.0194 -0.1104
 8424TIP3    H225237   6.763   5.755   0.109  0.0254  0.9009  0.3382
 8425TIP3   OH225238   4.512   4.983   2.863  0.9158 -0.0169 -1.1040
 8425TIP3    H125239   4.542   4.931   2.789  1.3165 -2.3611  0.5790
 8425TIP3    H225240   4.581   4.973   2.929  0.4321  1.7156 -0.2656
 8426TIP3   OH225241   1.487   2.315   3.050 -0.0187 -0.1880  0.3205
 8426TIP3    H125242   1.460   2.288   2.962 -0.0654  0.5790  0.0969
 8426TIP3    H225243   1.406   2.319   3.100 -0.2919  1.5434 -0.1978
 8427TIP3   OH225244   3.259   1.001   1.212  0.1572  0.1068  0.3036
 8427TIP3    H125245   3.338   1.017   1.161  0.3869  0.1101  0.6547
 8427TIP3    H225246   3.193   0.975   1.148  0.0002  1.6316 -0.1823
 8428TIP3   OH225247   2.860   2.579   3.192 -0.2584 -0.3979  0.1411
 8428TIP3    H125248   2.950   2.606   3.175 -0.3209 -0.6016 -0.5004
 8428TIP3    H225249   2.818   2.579   3.107 -0.6823 -0.9874  0.3442
 8429TIP3   OH225250   3.822   6.737   4.748  0.1425  0.2616  0.1697
 8429TIP3    H125251   3.735   6.774   4.734  0.3205  0.6667  0.1248
 8429TIP3    H225252   3.805   6.650   4.784 -0.2779  0.7950  1.3151
 8430TIP3   OH225253   0.490   1.004   2.991  0.1388  0.0935 -0.3112
 8430TIP3    H125254   0.487   1.075   3.056 -0.3136 -1.0615  0.9755
 8430TIP3    H225255   0.434   0.935   3.028  2.1389 -1.7488 -0.5369
 8431TIP3   OH225256   3.379   3.140   5.870  0.2863 -0.7588  0.1994
 8431TIP3    H125257   3.307   3.203   5.861  1.2650  0.5281  1.0372
 8431TIP3    H225258   3.458   3.191   5.854  1.0017 -2.5497 -2.6384
 8432TIP3   OH225259   2.407   5.774   5.436 -0.1401  0.1908 -0.1838
 8432TIP3    H125260   2.322   5.730   5.446  0.3009 -1.3106 -2.3403
 8432TIP3    H225261   2.450   5.763   5.521 -1.8349  0.4872  0.7651
 8433TIP3   OH225262   1.670   4.406   2.984  0.4971  0.4838  0.3717
 8433TIP3    H125263   1.653   4.495   3.012 -1.4015 -0.0869  1.2187
 8433TIP3    H225264   1.662   4.408   2.888  1.7813  1.4358  0.2642
 8434TIP3   OH225265   6.157   3.731   4.576 -0.3965 -0.2730 -0.0942
 8434TIP3    H125266   6.101   3.792   4.527  0.1121 -0.0586 -0.4217
 8434TIP3    H225267   6.224   3.787   4.616 -0.1026 -0.5773 -0.1519
 8435TIP3   OH225268   2.968   1.772   5.238 -0.2045  0.1543 -0.4863
 8435TIP3    H125269   2.919   1.847   5.271  1.7779  1.4515 -0.2892
 8435TIP3    H225270   2.973   1.712   5.312 -1.2087  0.1142 -0.4309
 8436TIP3   OH225271   3.766   0.023   2.760  0.1410 -0.0217  0.5291
 8436TIP3    H125272   3.780   0.084   2.687  0.7096 -0.2308  0.4545
 8436TIP3    H225273   3.842   0.037   2.817 -0.7043  0.7145  1.4943
 8437TIP3   OH225274   2.827   5.264   4.247 -0.5382 -0.0880  0.0795
 8437TIP3    H125275   2.774   5.271   4.168 -2.1817 -0.5059  1.0991
 8437TIP3    H225276   2.858   5.173   4.247  1.5189  0.5301 -1.2757
 8438TIP3   OH225277   6.923   6.153   3.590  0.3361  0.2151 -0.6887
 8438TIP3    H125278   6.879   6.129   3.508  0.9581 -2.1332 -0.4181
 8438TIP3    H225279   6.988   6.083   3.603 -0.0664  0.2696  2.0517
 8439TIP3   OH225280   2.284   0.777   3.912  0.1651  0.0369 -0.6619
 8439TIP3    H125281   2.245   0.857   3.876  0.5358 -0.6009 -2.6287
 8439TIP3    H225282   2.242   0.706   3.862 -1.1792 -1.1582  1.9654
 8440TIP3   OH225283   0.716   2.208  -0.026  0.7716  0.2739  0.4590
 8440TIP3    H125284   0.730   2.142   0.042 -0.3217  0.1773  0.6062
 8440TIP3    H225285   0.767   2.284   0.004  3.0333 -0.8744 -0.3315
 8441TIP3   OH225286   4.751   6.478   3.892  0.7040 -0.0449  0.2558
 8441TIP3    H125287   4.751   6.512   3.803  0.6655 -0.1521  0.2155
 8441TIP3    H225288   4.806   6.400   3.888 -0.5688 -0.9608 -0.0126
 8442TIP3   OH225289   2.559   4.077   2.760 -0.4613 -0.0262 -0.0519
 8442TIP3    H125290   2.611   4.143   2.714 -0.0664 -0.0428  0.3671
 8442TIP3    H225291   2.576   3.996   2.713 -0.9405  0.1650 -0.5637
 8443TIP3   OH225292   0.149   4.529   5.054  0.0379 -0.4515  0.1281
 8443TIP3    H125293   0.054   4.528   5.064  0.1603 -1.1401  1.4860
 8443TIP3    H225294   0.175   4.437   5.060  1.0409 -0.0808  3.1417
 8444TIP3   OH225295   5.071   0.083   3.241  0.8579 -0.4576 -0.3676
 8444TIP3    H125296   5.130   0.102   3.314 -0.1060  0.7365  0.1267
 8444TIP3    H225297   4.987   0.121   3.267  0.2422 -0.8487 -1.6968
 8445TIP3   OH225298   1.751   6.410   4.745 -0.1025 -0.2360 -0.0975
 8445TIP3    H125299   1.675   6.465   4.731 -0.5643 -0.7089  0.5024
 8445TIP3    H225300   1.775   6.424   4.837  2.8490  2.7812 -1.1054
 8446TIP3   OH225301   5.058   2.730   1.659  0.2135 -0.3252  0.1005
 8446TIP3    H125302   5.051   2.644   1.700 -0.5132 -1.1350 -1.6365
 8446TIP3    H225303   5.152   2.743   1.646  0.3186 -0.8927  0.2808
 8447TIP3   OH225304   0.061   2.085   1.303 -0.4289  0.4051 -0.1149
 8447TIP3    H125305   0.138   2.036   1.272 -1.5179 -0.3830 -1.7189
 8447TIP3    H225306   0.015   2.109   1.224 -1.2863  1.8315  0.7854
 8448TIP3   OH225307   3.031   0.794   5.097  0.3599 -0.8601  0.1720
 8448TIP3    H125308   3.116   0.809   5.056 -0.2240  0.6811 -0.5445
 8448TIP3    H225309   2.984   0.738   5.035  0.6086 -1.1857  0.2717
 8449TIP3   OH225310   6.603   6.577   1.171  0.8582 -0.0333  0.1013
 8449TIP3    H125311   6.605   6.669   1.146  1.8750 -0.3442 -1.0113
 8449TIP3    H225312   6.635   6.530   1.095  1.3054 -1.2444  1.0050
 8450TIP3   OH225313   4.865   2.629   4.726 -0.7591  0.1121  0.0145
 8450TIP3    H125314   4.908   2.560   4.777 -2.9586 -0.8167  0.7465
 8450TIP3    H225315   4.813   2.677   4.791  0.1257  2.0067 -0.6179
 8451TIP3   OH225316   2.945   1.687   3.873 -0.1122  0.1714 -0.1341
 8451TIP3    H125317   2.866   1.636   3.888 -0.8272  0.5674 -2.2469
 8451TIP3    H225318   2.917   1.778   3.885 -0.4662  0.4309 -2.5523
 8452TIP3   OH225319   4.205   3.678   5.435 -0.1802 -0.3933 -0.2759
 8452TIP3    H125320   4.182   3.676   5.528  1.3057  2.6763  0.2823
 8452TIP3    H225321   4.297   3.651   5.433  0.3428  1.3093 -0.5554
 8453TIP3   OH225322   2.939   0.753   2.632 -0.3896  0.1846  0.4181
 8453TIP3    H125323   2.932   0.775   2.725 -1.1986 -0.6444  0.5686
 8453TIP3    H225324   2.874   0.684   2.619 -0.1123  0.1207 -0.7131
 8454TIP3   OH225325   1.910   0.448   3.231  0.2351  0.2750  0.0327
 8454TIP3    H125326   1.865   0.388   3.171 -0.9512  1.9138 -0.7852
 8454TIP3    H225327   1.855   0.526   3.233  0.1465  0.2552  3.4357
 8455TIP3   OH225328   4.210   0.053   4.432 -0.3062  0.0700  0.2359
 8455TIP3    H125329   4.228   0.042   4.526  0.1786  0.7938  0.2343
 8455TIP3    H225330   4.194  -0.036   4.401  0.8126 -0.3406  0.7557
 8456TIP3   OH225331   1.095   0.934   2.098  0.6268 -0.3009  0.2025
 8456TIP3    H125332   1.058   0.859   2.052 -2.2180  0.2532  1.3975
 8456TIP3    H225333   1.179   0.901   2.132  0.9715 -1.8864 -1.9527
 8457TIP3   OH225334   3.431   2.965   2.063 -0.1034  0.3023 -0.4005
 8457TIP3    H125335   3.512   2.914   2.058  1.1191  1.6755  2.7265
 8457TIP3    H225336   3.401   2.971   1.972  2.6125 -1.3046 -1.5337
 8458TIP3   OH225337   4.688   3.145   1.407 -0.2672 -0.0999 -0.1676
 8458TIP3    H125338   4.693   3.104   1.493 -0.7220 -0.3050 -0.2373
 8458TIP3    H225339   4.629   3.090   1.357  0.9385 -0.6717 -1.0114
 8459TIP3   OH225340   4.055   4.424   2.796  0.2583 -0.5386  0.0641
 8459TIP3    H125341   4.083   4.431   2.705 -0.3523  1.8780 -0.0218
 8459TIP3    H225342   4.136   4.409   2.845  1.0994  1.3216 -0.6327
 8460TIP3   OH225343   4.855   2.778   3.391  1.3135  0.1715 -0.1941
 8460TIP3    H125344   4.763   2.779   3.364  1.6845 -0.1966 -1.5402
 8460TIP3    H225345   4.904   2.801   3.312  2.3787  0.6297  0.5615
 8461TIP3   OH225346   1.063   5.384   4.278  0.1273  0.2208 -0.2572
 8461TIP3    H125347   1.078   5.421   4.365 -0.1184 -0.9044  0.2784
 8461TIP3    H225348   1.087   5.454   4.218  1.2635  0.6743  0.6975
 8462TIP3   OH225349   7.016   0.033   0.081 -0.0289 -0.2256 -0.0322
 8462TIP3    H125350   7.082  -0.017   0.128  1.6291  2.6785  0.9593
 8462TIP3    H225351   6.934   0.016   0.129  0.3995 -2.0917  0.1020
 8463TIP3   OH225352   4.025   3.458   3.511  0.3978 -0.2108 -0.0540
 8463TIP3    H125353   4.082   3.499   3.446  0.8413 -0.2964  0.2786
 8463TIP3    H225354   3.992   3.379   3.467  0.7947 -0.3352 -0.1299
 8464TIP3   OH225355   6.103   1.203   5.206 -0.4402 -0.1702  0.3025
 8464TIP3    H125356   6.058   1.121   5.225  0.3509 -0.5733  0.4873
 8464TIP3    H225357   6.195   1.184   5.223 -0.4123  1.2536  2.1713
 8465TIP3   OH225358   4.288   6.743   4.920  0.0130 -0.1662 -0.4304
 8465TIP3    H125359   4.338   6.773   4.996  0.0400  0.7881 -0.8092
 8465TIP3    H225360   4.348   6.753   4.846 -0.3103 -0.2244 -0.7034
 8466TIP3   OH225361   3.732   4.853   4.627  0.3531  0.1100 -0.8370
 8466TIP3    H125362   3.772   4.880   4.709  1.2957  1.2422 -1.6411
 8466TIP3    H225363   3.647   4.817   4.653  0.8837 -0.1370  0.6756
 8467TIP3   OH225364   2.053   1.424   0.651 -0.2016  0.0541  0.1958
 8467TIP3    H125365   2.094   1.459   0.572  0.8031  1.5546  1.3134
 8467TIP3    H225366   2.019   1.338   0.625  0.0987  0.4984 -1.8381
 8468TIP3   OH225367   0.399   5.753   2.949  0.3299 -0.1689 -0.2545
 8468TIP3    H125368   0.385   5.681   3.010  0.0095  0.3551  0.3057
 8468TIP3    H225369   0.428   5.711   2.868  0.5833 -0.8887  0.1997
 8469TIP3   OH225370   4.645   5.651   3.331  0.1323  0.3103  0.2691
 8469TIP3    H125371   4.594   5.727   3.359  0.7006 -0.1758  2.8298
 8469TIP3    H225372   4.704   5.686   3.264 -1.6918  1.4123 -0.8797
 8470TIP3   OH225373   0.920   2.898   3.199 -0.0035 -0.8653 -0.0364
 8470TIP3    H125374   0.955   2.959   3.134 -1.3574  0.2755  0.2418
 8470TIP3    H225375   0.850   2.852   3.152  0.0243 -1.1277  0.1809
 8471TIP3   OH225376   3.117   2.922   3.319  0.0441  0.5501  0.5297
 8471TIP3    H125377   3.067   2.995   3.282  0.3553 -0.5622 -2.3483
 8471TIP3    H225378   3.125   2.859   3.247  1.5002 -1.4494  2.3016
 8472TIP3   OH225379   0.814   5.620   5.316  0.3741  0.1668 -0.3089
 8472TIP3    H125380   0.848   5.536   5.346  1.6684  1.0235  0.7896
 8472TIP3    H225381   0.720   5.606   5.303  0.0754 -0.8167  2.3410
 8473TIP3   OH225382   2.920   4.935   1.643  0.3770 -0.1565 -0.4025
 8473TIP3    H125383   2.880   4.924   1.730  0.7320  1.8870  0.0767
 8473TIP3    H225384   2.860   4.890   1.584 -1.1423  0.3930  0.6364
 8474TIP3   OH225385   5.875   6.099   1.862  0.5551 -0.2195  0.1392
 8474TIP3    H125386   5.821   6.054   1.797  1.1089 -0.1211 -0.4068
 8474TIP3    H225387   5.886   6.035   1.933  0.6683 -0.6578 -0.2653
 8475TIP3   OH225388   1.090   1.544   4.696  0.4454  0.4922  0.3878
 8475TIP3    H125389   1.106   1.624   4.645  0.2481  0.4712  0.2928
 8475TIP3    H225390   1.092   1.474   4.631  0.8147  0.3941  0.4978
 8476TIP3   OH225391   0.788   0.518   1.610  0.6401 -0.9231  0.5306
 8476TIP3    H125392   0.741   0.547   1.532 -0.2275 -0.5128  1.1903
 8476TIP3    H225393   0.875   0.494   1.578 -0.5783 -3.6573 -1.0956
 8477TIP3   OH225394   3.931   6.037   2.561 -0.3017  1.0873  0.4201
 8477TIP3    H125395   3.895   6.030   2.473 -2.0711  0.8258  1.1249
 8477TIP3    H225396   3.978   5.954   2.574  1.9666  2.0335 -1.0481
 8478TIP3   OH225397   6.127   6.490   3.606  0.0113 -0.3275  0.4647
 8478TIP3    H125398   6.177   6.425   3.656  3.2265  2.4520  1.2267
 8478TIP3    H225399   6.186   6.518   3.536 -1.1278  1.8735  0.2897
 8479TIP3   OH225400   4.021   4.915   1.869  0.5051  0.2580  0.2947
 8479TIP3    H125401   4.116   4.904   1.876  0.8510  0.0498 -2.9857
 8479TIP3    H225402   4.008   5.010   1.879  0.9333  0.2188  1.4038
 8480TIP3   OH225403   1.657   1.434   4.975  0.4536 -0.2949 -0.3656
 8480TIP3    H125404   1.701   1.421   4.891  0.7513  0.1158 -0.2775
 8480TIP3    H225405   1.603   1.512   4.963  1.2918  0.3809  0.1296
 8481TIP3   OH225406   0.360   1.309   3.569 -0.4395  0.0781 -0.3973
 8481TIP3    H125407   0.305   1.345   3.500 -0.8438  1.3450  0.5331
 8481TIP3    H225408   0.299   1.266   3.629 -0.4338  1.3136  0.5358
 8482TIP3   OH225409   1.376   3.328   4.277  0.2330  0.1529  0.2685
 8482TIP3    H125410   1.282   3.333   4.292 -0.1915  0.2766 -1.9943
 8482TIP3    H225411   1.406   3.257   4.334 -1.4663 -0.7737  0.0757
 8483TIP3   OH225412   5.267   0.502   2.994 -0.1589 -0.4756  0.2178
 8483TIP3    H125413   5.191   0.523   3.048 -1.1497 -0.2571 -1.2115
 8483TIP3    H225414   5.232   0.449   2.922  1.0195 -0.2788 -0.5329
 8484TIP3   OH225415   5.794   1.550   4.701 -0.1778 -0.1611  0.4736
 8484TIP3    H125416   5.848   1.626   4.725  1.7005 -1.6971  1.4118
 8484TIP3    H225417   5.823   1.527   4.613 -1.4362  0.7403 -0.2040
 8485TIP3   OH225418   3.007   1.269   0.332  0.1367 -0.2452  0.2474
 8485TIP3    H125419   3.083   1.214   0.312 -0.2328 -0.6519 -0.0649
 8485TIP3    H225420   2.938   1.207   0.355 -0.0836  0.1232  0.5834
 8486TIP3   OH225421   6.215   1.087   2.085  0.2195  0.2190  0.0707
 8486TIP3    H125422   6.129   1.045   2.082 -0.5620  1.6889  0.7998
 8486TIP3    H225423   6.251   1.073   1.998 -1.6695  1.3870 -0.9772
 8487TIP3   OH225424   2.531   0.056   3.457  0.5294 -0.1997 -0.2807
 8487TIP3    H125425   2.457   0.034   3.514 -0.8332 -0.0909 -1.9450
 8487TIP3    H225426   2.495   0.055   3.369  2.2466  1.0333 -1.0587
 8488TIP3   OH225427   1.372   0.454   5.566 -0.8173  0.5291  0.7905
 8488TIP3    H125428   1.330   0.512   5.503  1.6979 -1.1769 -2.7407
 8488TIP3    H225429   1.453   0.499   5.589  0.4052 -0.7850 -0.7710
 8489TIP3   OH225430   6.131   1.558   3.419 -0.1988  0.5161 -0.0460
 8489TIP3    H125431   6.124   1.627   3.485  0.3861 -0.8221  1.5059
 8489TIP3    H225432   6.082   1.484   3.456 -0.3092 -0.1046 -1.3680
 8490TIP3   OH225433   3.282   0.827   4.968 -0.8406 -0.1078  0.2310
 8490TIP3    H125434   3.309   0.849   4.879  1.8605 -1.9482  0.4749
 8490TIP3    H225435   3.330   0.889   5.023 -0.9593 -0.2419  0.4866
 8491TIP3   OH225436   6.988   1.170   0.107  0.1253  0.3043  0.1914
 8491TIP3    H125437   6.913   1.173   0.166 -0.6923 -0.5756 -0.7766
 8491TIP3    H225438   6.981   1.251   0.055 -1.3738 -0.7293 -1.3110
 8492TIP3   OH225439   4.455   0.198   4.414  0.5342 -0.2615 -0.1096
 8492TIP3    H125440   4.447   0.228   4.505  1.7491  0.6106 -0.2723
 8492TIP3    H225441   4.367   0.170   4.390  0.5565 -2.5452  2.0320
 8493TIP3   OH225442   3.325   6.592   3.488  0.0710 -0.7229 -0.1939
 8493TIP3    H125443   3.299   6.499   3.496 -0.7383 -0.3638  2.2861
 8493TIP3    H225444   3.420   6.591   3.497 -0.0151 -1.2583  0.8587
 8494TIP3   OH225445   5.177   0.971   4.642 -0.5590  0.3481  0.5440
 8494TIP3    H125446   5.260   0.986   4.596 -0.6031 -0.3694  0.2132
 8494TIP3    H225447   5.183   1.025   4.721 -0.9987  2.5772 -0.8834
 8495TIP3   OH225448   3.542   5.477   3.019  0.5717  0.3597 -0.5258
 8495TIP3    H125449   3.564   5.570   3.018  2.2867  0.0924  1.8062
 8495TIP3    H225450   3.600   5.440   3.086 -1.4407 -2.0416  0.0278
 8496TIP3   OH225451   1.839   2.563   5.621  0.1378 -0.2352 -0.1455
 8496TIP3    H125452   1.921   2.521   5.645  1.4380  1.8496 -0.7329
 8496TIP3    H225453   1.832   2.552   5.527 -0.3033 -0.4607 -0.0899
 8497TIP3   OH225454   4.122   4.606   4.054 -0.1696 -0.1415  0.2271
 8497TIP3    H125455   4.190   4.643   4.110  0.7209  0.6631 -1.3085
 8497TIP3    H225456   4.166   4.539   4.002 -0.1408  1.3369 -1.7823
 8498TIP3   OH225457   3.203   5.075   3.281 -0.5123  0.2437  0.6554
 8498TIP3    H125458   3.274   5.071   3.344 -0.2010 -1.2106  0.2400
 8498TIP3    H225459   3.236   5.133   3.212  0.4161 -0.6342  0.3286
 8499TIP3   OH225460   2.945   6.351   4.564 -0.0373 -0.4577  0.2972
 8499TIP3    H125461   2.855   6.336   4.591 -0.5759  0.5165 -0.8947
 8499TIP3    H225462   2.947   6.328   4.471  0.3374  1.8061 -0.3006
 8500TIP3   OH225463   2.839   5.599   0.496 -0.1504  0.4945 -0.6673
 8500TIP3    H125464   2.806   5.684   0.525 -1.4412  0.1028 -0.9095
 8500TIP3    H225465   2.867   5.615   0.405 -1.4520  0.4314 -1.1063
 8501TIP3   OH225466   3.240   4.415   2.899  0.3536 -0.5241  0.1919
 8501TIP3    H125467   3.313   4.395   2.958 -1.0815 -0.8306  1.9389
 8501TIP3    H225468   3.197   4.331   2.884  1.0063 -0.5673 -1.8370
 8502TIP3   OH225469   4.134   3.164   1.019  0.4654  0.8652  0.4349
 8502TIP3    H125470   4.228   3.181   1.015  0.7464 -0.6345  0.0392
 8502TIP3    H225471   4.113   3.128   0.933 -0.3315  0.5210  0.7643
 8503TIP3   OH225472   4.936   0.321   1.641 -0.2723 -0.8526  0.0727
 8503TIP3    H125473   5.024   0.310   1.604 -0.4268  2.1528 -1.5160
 8503TIP3    H225474   4.937   0.409   1.679 -2.9915 -0.0603 -1.4143
 8504TIP3   OH225475   7.076   4.692   3.681 -0.1200 -0.4716 -0.0454
 8504TIP3    H125476   7.072   4.643   3.599  1.8592 -1.2993  0.2985
 8504TIP3    H225477   7.113   4.777   3.657 -2.3802  0.4740 -0.4381
 8505TIP3   OH225478   4.348   0.898   4.229  0.0288 -0.0099  0.2380
 8505TIP3    H125479   4.410   0.838   4.186  0.2054  0.7963 -0.6663
 8505TIP3    H225480   4.328   0.856   4.312  2.5323  0.1484  1.0030
 8506TIP3   OH225481   5.056   5.199   5.470 -0.3867  0.8354  0.3517
 8506TIP3    H125482   5.011   5.259   5.410 -1.2497  1.1956  1.3233
 8506TIP3    H225483   5.081   5.254   5.544  0.8391  0.4372  0.2464
 8507TIP3   OH225484   4.622   3.227   0.033 -0.3763 -0.7531  0.4935
 8507TIP3    H125485   4.696   3.195   0.085  1.2651  1.7701 -0.0897
 8507TIP3    H225486   4.646   3.209  -0.058 -1.5322 -1.8437  0.3747
 8508TIP3   OH225487   4.483   1.843   1.037  0.1234 -0.2012 -0.8624
 8508TIP3    H125488   4.555   1.785   1.064 -1.3046 -1.6696 -0.0229
 8508TIP3    H225489   4.490   1.918   1.096  0.9608 -0.3073 -0.8067
 8509TIP3   OH225490   2.233   5.615   1.195  0.1596  0.0494  0.0130
 8509TIP3    H125491   2.243   5.528   1.157 -0.2978  0.3935 -0.9223
 8509TIP3    H225492   2.182   5.664   1.130 -0.9735  0.5450  1.2219
 8510TIP3   OH225493   2.558   1.433   5.769 -0.2533 -0.4302 -0.5971
 8510TIP3    H125494   2.581   1.505   5.710 -1.4104 -0.8898 -1.6657
 8510TIP3    H225495   2.599   1.356   5.731 -0.0056 -0.5336 -0.1222
 8511TIP3   OH225496   2.532   3.285   0.995 -0.3963 -0.3490 -0.0821
 8511TIP3    H125497   2.485   3.204   0.975 -1.6169  0.4061 -0.3610
 8511TIP3    H225498   2.549   3.280   1.089  1.0654 -1.6906 -0.3710
 8512TIP3   OH225499   2.510   2.154   3.736 -0.4138 -0.0089  0.1498
 8512TIP3    H125500   2.528   2.113   3.820  0.5122  0.4642  0.1968
 8512TIP3    H225501   2.455   2.229   3.757 -0.6252 -0.1954  0.2673
 8513TIP3   OH225502   1.270   3.248   4.026  0.0582  0.1070  0.1060
 8513TIP3    H125503   1.309   3.298   4.097  0.9630  0.5902 -0.7026
 8513TIP3    H225504   1.178   3.237   4.051 -0.2719  2.4659  0.1805
 8514TIP3   OH225505   6.420   3.039   2.902  0.5297  0.7878 -0.3859
 8514TIP3    H125506   6.392   3.129   2.883 -1.7148  0.5562  1.2686
 8514TIP3    H225507   6.338   2.989   2.900  1.5598 -0.9616 -0.0245
 8515TIP3   OH225508   7.136   0.733   4.843 -0.5560 -0.0207 -0.5534
 8515TIP3    H125509   7.207   0.677   4.811 -0.5697 -0.7822  0.6694
 8515TIP3    H225510   7.057   0.682   4.825 -0.6008 -0.2178  0.1954
 8516TIP3   OH225511   1.786   1.033   2.594  0.6637  0.3295 -0.0339
 8516TIP3    H125512   1.757   1.118   2.628  0.0947  0.0257  0.2629
 8516TIP3    H225513   1.858   1.008   2.651  0.6230  0.4654  0.0795
 8517TIP3   OH225514   2.786   1.657   4.596  0.2984  0.1850  0.0898
 8517TIP3    H125515   2.816   1.591   4.535  0.9552  1.0455 -0.5499
 8517TIP3    H225516   2.866   1.693   4.634  0.0219  1.2658 -0.2976
 8518TIP3   OH225517   6.443   5.240   1.783  0.5750 -0.0474 -0.2047
 8518TIP3    H125518   6.363   5.197   1.752 -0.8200  2.3531 -0.1388
 8518TIP3    H225519   6.514   5.189   1.745 -0.9671 -2.0738 -0.5272
 8519TIP3   OH225520   6.785   1.296   5.661 -0.7876 -0.2354 -0.2140
 8519TIP3    H125521   6.789   1.340   5.746  0.1462  0.7571 -0.7547
 8519TIP3    H225522   6.875   1.296   5.629 -1.2618  0.2815 -1.6443
 8520TIP3   OH225523   3.828   6.623   2.645 -0.1078  0.1436 -0.1862
 8520TIP3    H125524   3.783   6.707   2.653  0.2226  0.3538 -0.5185
 8520TIP3    H225525   3.759   6.558   2.660 -0.8330  0.4397 -1.9918
 8521TIP3   OH225526   1.704   6.173   5.294  0.4419  0.0847  0.3447
 8521TIP3    H125527   1.751   6.122   5.228 -1.3731  0.6904 -1.5423
 8521TIP3    H225528   1.612   6.157   5.274 -0.1760  2.4702  0.9793
 8522TIP3   OH225529   3.063   6.744   5.869  0.6164  0.1442  0.0171
 8522TIP3    H125530   3.032   6.656   5.848  0.8646 -0.4796  2.0307
 8522TIP3    H225531   2.985   6.799   5.863 -0.6878 -1.0982  3.2837
 8523TIP3   OH225532   1.419   3.861   4.192 -0.3148  0.7794  0.4974
 8523TIP3    H125533   1.495   3.897   4.236  0.1421  0.2576  0.1499
 8523TIP3    H225534   1.435   3.766   4.190 -0.8521  0.6878  0.1976
 8524TIP3   OH225535   3.760   6.340   2.878  0.6026  0.3269  0.4184
 8524TIP3    H125536   3.727   6.346   2.968 -0.2473 -0.2843  0.1706
 8524TIP3    H225537   3.702   6.397   2.828  0.1125 -0.4787  0.0333
 8525TIP3   OH225538   2.997   4.423   1.095 -0.0669 -0.1817 -0.0436
 8525TIP3    H125539   2.926   4.487   1.098 -1.0401 -1.1569 -1.0698
 8525TIP3    H225540   3.034   4.423   1.183 -1.4574  0.2296  0.5633
 8526TIP3   OH225541   2.185   1.078   0.607  0.3200 -0.1352  0.5069
 8526TIP3    H125542   2.244   1.026   0.552  1.0772 -0.6123  1.7379
 8526TIP3    H225543   2.110   1.021   0.622 -0.5086  0.4763 -1.0705
 8527TIP3   OH225544   4.671   3.534   2.491 -0.3782 -0.2945  0.0809
 8527TIP3    H125545   4.758   3.575   2.488 -0.3823 -0.1495  1.5336
 8527TIP3    H225546   4.626   3.570   2.414  0.3053  0.8678  0.1938
 8528TIP3   OH225547   7.204   4.384   2.026  0.2156  0.0017 -0.0483
 8528TIP3    H125548   7.267   4.396   1.955 -0.6344  0.9004 -0.6655
 8528TIP3    H225549   7.120   4.373   1.982  0.0683 -2.5905  0.6964
 8529TIP3   OH225550   3.305   1.339   3.574  0.2634  0.5935 -0.1605
 8529TIP3    H125551   3.266   1.382   3.650  0.9058 -0.5901  0.8640
 8529TIP3    H225552   3.291   1.401   3.502 -1.3300  1.2577  0.6726
 8530TIP3   OH225553   3.958   0.380   1.656 -0.3281 -0.6703  0.2310
 8530TIP3    H125554   4.022   0.412   1.720 -0.1024 -0.3295 -0.1628
 8530TIP3    H225555   3.983   0.289   1.641 -0.7278 -0.9296  1.0527
 8531TIP3   OH225556   3.844   2.079   2.629  0.7300 -0.4359 -0.3951
 8531TIP3    H125557   3.828   1.989   2.657 -0.9173 -0.7523 -2.1167
 8531TIP3    H225558   3.821   2.133   2.705 -0.5422 -1.3689 -0.0799
 8532TIP3   OH225559   0.768   6.497   4.773  0.5229  0.0216  0.0235
 8532TIP3    H125560   0.783   6.464   4.861  0.0457  2.1586  0.9685
 8532TIP3    H225561   0.673   6.496   4.763  0.5518  0.2061 -0.2976
 8533TIP3   OH225562   1.226   4.268   4.192  0.0375 -0.0317 -0.2600
 8533TIP3    H125563   1.177   4.339   4.233  1.5926  0.6829  0.4435
 8533TIP3    H225564   1.178   4.188   4.217 -1.3224  0.6835 -0.4628
 8534TIP3   OH225565   3.735   1.184   0.130 -0.2862  0.4133 -0.2256
 8534TIP3    H125566   3.675   1.135   0.074  1.1714  0.0932 -1.5702
 8534TIP3    H225567   3.821   1.148   0.111  0.4007  1.0645  1.4330
 8535TIP3   OH225568   3.962   2.067   4.927 -0.0020  0.1698 -0.2902
 8535TIP3    H125569   3.877   2.022   4.934  0.1509 -0.4985 -2.1121
 8535TIP3    H225570   4.025   2.002   4.958 -0.0245  0.0952 -0.3979
 8536TIP3   OH225571   4.772   1.616   0.494 -0.6045 -0.4736  0.2614
 8536TIP3    H125572   4.761   1.699   0.540  0.0285  0.2514 -0.8454
 8536TIP3    H225573   4.865   1.595   0.502 -0.7326 -1.0144  0.4114
 8537TIP3   OH225574   6.220   0.735   0.312  0.2350  0.0038  0.6091
 8537TIP3    H125575   6.164   0.707   0.239  1.8280  3.0361 -2.0339
 8537TIP3    H225576   6.184   0.819   0.339  0.1371 -0.7219  2.9189
 8538TIP3   OH225577   5.961   4.730   1.324 -0.1232  0.6293  0.1877
 8538TIP3    H125578   6.036   4.746   1.267 -0.3056 -0.9319 -0.5373
 8538TIP3    H225579   5.977   4.643   1.360 -2.5251 -0.6217 -1.5424
 8539TIP3   OH225580   5.829   4.089   4.924  0.4755 -0.0838 -0.2272
 8539TIP3    H125581   5.753   4.086   4.865  0.5690  0.7749 -0.4088
 8539TIP3    H225582   5.803   4.037   5.000 -1.9649  3.4070  1.6221
 8540TIP3   OH225583   0.776   5.101   2.222  0.3387 -0.2018 -0.4856
 8540TIP3    H125584   0.845   5.109   2.287 -0.0873  1.4547 -0.1750
 8540TIP3    H225585   0.765   5.190   2.188 -1.0297 -0.5945 -1.1671
 8541TIP3   OH225586   2.559   1.027   1.474  0.2829  0.6155 -0.4765
 8541TIP3    H125587   2.654   1.036   1.481  0.4427 -0.8147 -0.4017
 8541TIP3    H225588   2.547   0.942   1.430 -0.9659  0.3368  0.3671
 8542TIP3   OH225589   4.666   2.878   0.475 -0.2404 -0.1600 -0.3658
 8542TIP3    H125590   4.648   2.944   0.541  2.0071  1.2000 -1.0074
 8542TIP3    H225591   4.644   2.795   0.517 -1.0793  0.8158  1.2172
 8543TIP3   OH225592   0.900   4.229   3.497 -0.2056  0.2160 -0.1186
 8543TIP3    H125593   0.904   4.205   3.404 -1.9860 -1.3771  0.1474
 8543TIP3    H225594   0.903   4.325   3.497 -0.8490  0.2779 -1.8862
 8544TIP3   OH225595   5.208   1.147   3.947  0.8793 -0.2049 -0.4240
 8544TIP3    H125596   5.256   1.064   3.944 -0.9940 -1.3390 -1.0821
 8544TIP3    H225597   5.203   1.168   4.041  1.0424 -1.0452 -0.2155
 8545TIP3   OH225598   2.085   0.190   3.155 -0.2269 -0.0612  0.3039
 8545TIP3    H125599   1.996   0.218   3.135  0.2054  1.1434  0.0243
 8545TIP3    H225600   2.093   0.104   3.112 -1.0112  0.1498 -0.2744
 8546TIP3   OH225601   5.156   4.164   2.003  0.0142 -0.6170 -0.3725
 8546TIP3    H125602   5.205   4.147   1.923  0.2255 -0.7704 -0.2107
 8546TIP3    H225603   5.204   4.234   2.046 -0.2258 -0.3802 -0.4884
 8547TIP3   OH225604   3.266   6.366   2.032  0.4207  1.0115  0.6050
 8547TIP3    H125605   3.271   6.321   2.116 -1.2790 -1.0166 -0.2808
 8547TIP3    H225606   3.199   6.434   2.046  0.7559  1.2433  1.1092
 8548TIP3   OH225607   2.845   1.172   5.394  0.3370 -0.1603  0.2952
 8548TIP3    H125608   2.935   1.139   5.383  0.2257 -0.1242 -0.9524
 8548TIP3    H225609   2.792   1.093   5.408  0.4575 -0.2527  0.2327
 8549TIP3   OH225610   0.998   2.805   2.492 -0.1105 -0.2581  0.5018
 8549TIP3    H125611   1.049   2.725   2.504 -1.3349 -1.3003 -1.0103
 8549TIP3    H225612   0.925   2.797   2.554  0.2200  0.1158  0.9535
 8550TIP3   OH225613   2.641   5.707   4.160  0.8301 -0.3537  0.6902
 8550TIP3    H125614   2.630   5.631   4.103 -2.3397 -0.8805  1.7969
 8550TIP3    H225615   2.676   5.672   4.242 -0.5833 -0.6833  1.1830
 8551TIP3   OH225616   3.553   4.256   5.631 -0.1982  0.1802 -0.0713
 8551TIP3    H125617   3.542   4.161   5.619  0.3583  0.2492 -1.2511
 8551TIP3    H225618   3.546   4.292   5.543 -0.3739  1.2466  0.3688
 8552TIP3   OH225619   2.057   5.491   1.887 -0.1788 -0.2107 -0.0311
 8552TIP3    H125620   2.069   5.462   1.978 -0.7535 -1.0842 -0.2211
 8552TIP3    H225621   1.963   5.507   1.879 -0.5437 -2.5621 -1.1421
 8553TIP3   OH225622   3.236   3.232   4.555 -0.3271 -0.0938 -0.0992
 8553TIP3    H125623   3.162   3.193   4.601 -2.0741  2.6791 -0.3714
 8553TIP3    H225624   3.312   3.182   4.586 -2.2842 -3.6369 -0.4309
 8554TIP3   OH225625   4.291   0.798   1.589  0.4324  0.0446  0.4526
 8554TIP3    H125626   4.280   0.853   1.666  3.7123 -0.7568  1.6621
 8554TIP3    H225627   4.223   0.732   1.596  0.7701 -0.1188  2.8119
 8555TIP3   OH225628   1.822   2.449   0.408  0.4418 -0.6463  0.0827
 8555TIP3    H125629   1.803   2.538   0.378  0.7858 -1.0662 -1.4869
 8555TIP3    H225630   1.811   2.453   0.503 -1.3425  0.6070 -0.1257
 8556TIP3   OH225631   6.749   2.079   0.888 -0.3445  0.1189  0.2835
 8556TIP3    H125632   6.730   2.098   0.796 -1.6314  0.4893  0.5994
 8556TIP3    H225633   6.844   2.071   0.892 -0.3475 -1.1584 -1.3051
 8557TIP3   OH225634   0.805   4.533   1.390  0.3115  0.0241 -0.1814
 8557TIP3    H125635   0.854   4.520   1.472  1.9514 -1.3436 -1.2992
 8557TIP3    H225636   0.714   4.517   1.414  0.8384 -1.0699  1.2588
 8558TIP3   OH225637   4.781   3.793   2.496 -0.0973  0.1926  0.1662
 8558TIP3    H125638   4.808   3.770   2.585 -0.2460 -0.9775 -0.0762
 8558TIP3    H225639   4.700   3.843   2.508 -0.3238 -0.2860  0.6757
 8559TIP3   OH225640   4.363   1.881   0.483 -0.4143  0.5706  0.0141
 8559TIP3    H125641   4.390   1.844   0.567 -1.2413 -0.4241 -0.1325
 8559TIP3    H225642   4.439   1.870   0.426 -0.3021  0.0099  0.2648
 8560TIP3   OH225643   6.041   3.682   2.176 -0.1800  0.3842 -0.1737
 8560TIP3    H125644   6.046   3.711   2.267 -0.0268 -0.1695 -0.0018
 8560TIP3    H225645   6.004   3.757   2.129  0.0661  0.8018  0.2833
 8561TIP3   OH225646   2.010   4.886   4.790  0.3232  0.2599 -0.0280
 8561TIP3    H125647   2.083   4.911   4.733  0.1316  3.7987  0.9902
 8561TIP3    H225648   2.044   4.899   4.878 -0.3751 -1.9958  0.6237
 8562TIP3   OH225649   4.791   1.290   0.201 -0.0883  0.4160  0.0986
 8562TIP3    H125650   4.699   1.264   0.199  0.2514 -0.8277 -1.1709
 8562TIP3    H225651   4.831   1.229   0.264 -0.1179  0.9572  0.6513
 8563TIP3   OH225652   5.763   0.465   2.951 -0.6890 -0.6401  0.6958
 8563TIP3    H125653   5.681   0.479   2.903 -0.3026  0.2570  0.2661
 8563TIP3    H225654   5.735   0.448   3.041 -1.3503 -0.0941  0.6038
 8564TIP3   OH225655   2.572   3.145   1.951 -0.2906 -0.3216  0.6693
 8564TIP3    H125656   2.505   3.091   1.993 -0.4649 -1.3616 -0.8516
 8564TIP3    H225657   2.525   3.190   1.881  0.5207 -0.8873 -0.2728
 8565TIP3   OH225658   0.161   2.057   0.777  0.2830 -0.0667  0.7616
 8565TIP3    H125659   0.121   2.137   0.742  1.2229  0.6478  1.2916
 8565TIP3    H225660   0.254   2.066   0.757  0.3792 -1.1303  0.6591
 8566TIP3   OH225661   0.406   2.688   4.783 -0.0574 -0.1299 -0.5715
 8566TIP3    H125662   0.323   2.650   4.754 -0.7620  0.8684  0.0873
 8566TIP3    H225663   0.443   2.623   4.843 -1.1840  0.1273  0.4388
 8567TIP3   OH225664   6.003   3.657   0.276  0.7028  0.8319 -0.7141
 8567TIP3    H125665   5.986   3.751   0.265  0.6466  1.1489  1.6440
 8567TIP3    H225666   5.923   3.624   0.317  1.6998  0.2718  0.8354
 8568TIP3   OH225667   4.220   6.804   3.319 -0.6366  0.1412  0.0197
 8568TIP3    H125668   4.312   6.830   3.306 -0.4191 -0.7045 -0.1409
 8568TIP3    H225669   4.215   6.714   3.287 -1.6519  0.3527 -0.4817
 8569TIP3   OH225670   5.115   6.027   0.273  0.1050  0.4583 -0.3896
 8569TIP3    H125671   5.205   5.995   0.260  0.6336  1.8206 -0.2900
 8569TIP3    H225672   5.060   5.951   0.257  1.1798  0.0049 -2.2023
 8570TIP3   OH225673   5.286   1.637   3.507  0.1468 -0.0070  0.6218
 8570TIP3    H125674   5.205   1.601   3.544 -0.7283 -0.5865 -1.7051
 8570TIP3    H225675   5.352   1.570   3.523 -0.7489 -1.3012 -0.8400
 8571TIP3   OH225676   3.268   3.713   4.437  0.2102  0.2317 -0.0228
 8571TIP3    H125677   3.332   3.778   4.409  1.5154 -0.7886  0.4701
 8571TIP3    H225678   3.188   3.735   4.389  1.1277  1.1351 -1.1785
 8572TIP3   OH225679   3.329   3.130   1.562 -0.0359 -0.0864  0.2877
 8572TIP3    H125680   3.325   3.213   1.514 -0.4696 -0.7863 -0.9356
 8572TIP3    H225681   3.346   3.065   1.494 -0.0599 -1.0443  1.1893
 8573TIP3   OH225682   1.274   3.411   3.366 -0.2129  0.3027 -0.2057
 8573TIP3    H125683   1.317   3.429   3.450  0.3287  0.8683 -0.6019
 8573TIP3    H225684   1.228   3.329   3.381 -2.2153  1.6365  1.4438
 8574TIP3   OH225685   2.188   0.115   1.041  0.0840  0.3673 -0.3555
 8574TIP3    H125686   2.139   0.084   0.964  0.5344  0.1070 -0.5363
 8574TIP3    H225687   2.137   0.085   1.116  1.1721 -1.9752 -0.4725
 8575TIP3   OH225688   4.747   2.386   2.677 -0.0776  0.5021  0.0265
 8575TIP3    H125689   4.722   2.386   2.584 -0.3713 -1.3669  0.0594
 8575TIP3    H225690   4.664   2.393   2.724 -0.0041  0.5425  0.1509
 8576TIP3   OH225691   2.863   0.245   5.255  0.5720  0.4329  0.2038
 8576TIP3    H125692   2.861   0.324   5.201 -1.5792  1.8757  2.2094
 8576TIP3    H225693   2.811   0.268   5.332  1.4371 -2.3531  1.7261
 8577TIP3   OH225694   6.837   6.331   3.906 -0.2227  0.0905  0.9158
 8577TIP3    H125695   6.832   6.382   3.987 -1.3339  3.0497 -0.8619
 8577TIP3    H225696   6.906   6.375   3.855 -0.9023 -0.4571 -0.5133
 8578TIP3   OH225697   0.208   1.369   0.998  0.0701 -0.5841 -0.4585
 8578TIP3    H125698   0.264   1.327   0.932 -0.8475 -0.4952 -1.3181
 8578TIP3    H225699   0.138   1.307   1.014 -0.5784  0.0548 -0.7521
 8579TIP3   OH225700   2.585   0.387   3.490 -0.1210  0.1007  0.0766
 8579TIP3    H125701   2.566   0.312   3.546 -0.4863  0.7768  0.8780
 8579TIP3    H225702   2.515   0.387   3.425  0.4070 -0.7939 -0.5177
 8580TIP3   OH225703   3.536   4.411   5.018  0.7253  0.3812 -0.2122
 8580TIP3    H125704   3.604   4.408   5.085  1.4152  0.2282 -0.9098
 8580TIP3    H225705   3.583   4.399   4.935 -0.1621  0.1583 -0.6937
 8581TIP3   OH225706   1.569   5.374   2.631 -0.8793 -0.1250  0.2584
 8581TIP3    H125707   1.493   5.363   2.574  0.5394 -2.6328 -1.3242
 8581TIP3    H225708   1.643   5.378   2.572  0.4215  0.0649  1.8434
 8582TIP3   OH225709   0.869   0.299   4.042 -0.1987  0.0767  0.0927
 8582TIP3    H125710   0.829   0.273   4.125  0.6495 -0.5055  0.3300
 8582TIP3    H225711   0.796   0.299   3.979 -0.4587 -1.7672  0.3353
 8583TIP3   OH225712   4.177   0.887   4.722  0.0263  0.0812 -0.1357
 8583TIP3    H125713   4.202   0.912   4.633  0.6924 -1.6748 -0.4779
 8583TIP3    H225714   4.247   0.924   4.777  0.9831 -0.9446 -0.6241
 8584TIP3   OH225715   2.526   2.319   3.514  0.7021 -0.0978  0.5100
 8584TIP3    H125716   2.550   2.266   3.590  1.1171  1.7822  1.7754
 8584TIP3    H225717   2.458   2.269   3.470  0.4471 -1.2594  2.1317
 8585TIP3   OH225718   4.058   6.007   0.611 -0.0712  0.5724 -0.4454
 8585TIP3    H125719   4.030   6.013   0.702  1.0219 -1.1565  0.0463
 8585TIP3    H225720   3.977   5.999   0.561 -0.6560  0.9883  0.4150
 8586TIP3   OH225721   0.863   1.479   4.357  0.1703  0.4093 -0.3771
 8586TIP3    H125722   0.817   1.402   4.389 -0.4389  1.3704  1.1453
 8586TIP3    H225723   0.953   1.467   4.386  0.0502  0.3081 -0.0384
 8587TIP3   OH225724   3.566   1.318   2.808  0.5901 -0.3388  0.3672
 8587TIP3    H125725   3.527   1.328   2.895  0.0848  0.9443  0.0104
 8587TIP3    H225726   3.650   1.363   2.814 -0.2842  1.4927 -0.3246
 8588TIP3   OH225727   0.620   1.186   0.858 -0.5243 -0.2061 -0.7259
 8588TIP3    H125728   0.714   1.177   0.839 -0.0030  0.0626  1.4783
 8588TIP3    H225729   0.596   1.104   0.900 -0.4145  0.9318  1.7497
 8589TIP3   OH225730   0.869   6.563   1.568  0.5677 -0.1320  0.3879
 8589TIP3    H125731   0.846   6.526   1.483  1.6749 -0.1211  0.0743
 8589TIP3    H225732   0.872   6.658   1.553 -1.9167  0.1288  1.1059
 8590TIP3   OH225733   6.598   0.477   2.096  0.1627  0.1887 -0.7228
 8590TIP3    H125734   6.508   0.452   2.072 -0.6242  0.9655  1.1881
 8590TIP3    H225735   6.644   0.394   2.104 -0.8652 -0.3361 -0.0447
 8591TIP3   OH225736   0.990   3.703   4.709  0.1620 -0.1194  0.7133
 8591TIP3    H125737   0.900   3.730   4.689 -0.0739 -0.1205  1.7263
 8591TIP3    H225738   1.022   3.664   4.628 -1.4146 -1.8757  0.8925
 8592TIP3   OH225739   0.101   1.701   1.968 -0.3890 -0.1379  0.1512
 8592TIP3    H125740   0.075   1.722   1.879 -0.6643 -1.8561 -0.2007
 8592TIP3    H225741   0.018   1.694   2.016 -0.2174  1.7116  0.8091
 8593TIP3   OH225742   2.519   0.770   4.062 -0.6949  0.0197 -0.0223
 8593TIP3    H125743   2.523   0.689   4.111 -0.1533  1.0748  1.7553
 8593TIP3    H225744   2.447   0.757   4.000 -0.1121 -2.0696 -0.3476
 8594TIP3   OH225745   3.526   1.934   2.935  0.0589 -0.6290 -0.2867
 8594TIP3    H125746   3.578   1.892   2.867 -0.7753 -1.0784 -0.6620
 8594TIP3    H225747   3.553   1.890   3.016  2.0230  0.8138 -0.0868
 8595TIP3   OH225748   0.450   6.649   0.291 -0.7531 -0.1859 -0.3815
 8595TIP3    H125749   0.426   6.558   0.274 -1.9777 -0.3475  1.8694
 8595TIP3    H225750   0.537   6.643   0.331 -1.3389 -0.5107  0.8922
 8596TIP3   OH225751   6.271   2.477   3.461 -0.3264 -0.2047  0.6419
 8596TIP3    H125752   6.211   2.448   3.530  0.5930  1.8552  2.4352
 8596TIP3    H225753   6.214   2.504   3.390 -1.4664  0.1887  1.6656
 8597TIP3   OH225754   2.961   2.041   2.745 -0.0848  0.2346  0.4695
 8597TIP3    H125755   2.990   2.030   2.654  0.4712  1.1123  0.5345
 8597TIP3    H225756   2.866   2.039   2.740 -0.0583  0.2843 -0.1343
 8598TIP3   OH225757   3.118   4.094   3.585  0.0299  0.3251  0.5405
 8598TIP3    H125758   3.147   4.114   3.674 -0.0958 -2.8925  1.4383
 8598TIP3    H225759   3.198   4.078   3.536  0.0677 -1.8193  1.2071
 8599TIP3   OH225760   4.164   5.224   3.712 -0.0696 -0.6606 -0.1024
 8599TIP3    H125761   4.125   5.273   3.640 -0.7420  1.0096  1.3086
 8599TIP3    H225762   4.245   5.271   3.731  0.0867 -1.0674  0.2366
 8600TIP3   OH225763   6.975   2.371   0.907  0.3731 -0.3874 -0.5177
 8600TIP3    H125764   6.979   2.467   0.902  3.3130 -0.4340 -1.1302
 8600TIP3    H225765   6.974   2.351   1.000  0.6002  0.2606 -0.3727
 8601TIP3   OH225766   4.387   0.593   2.169  0.4101  0.1531  0.2413
 8601TIP3    H125767   4.339   0.511   2.165  0.8867 -0.1966  1.2946
 8601TIP3    H225768   4.320   0.660   2.184 -0.1464  0.1748 -2.0952
 8602TIP3   OH225769   0.849   0.686   5.369  0.5313  0.0787 -0.0878
 8602TIP3    H125770   0.894   0.680   5.285 -0.4398  0.8152 -0.6898
 8602TIP3    H225771   0.912   0.654   5.433  1.5268  0.1268 -1.0200
 8603TIP3   OH225772   6.168   2.487   0.158 -0.4331  0.1038 -0.1873
 8603TIP3    H125773   6.150   2.423   0.227 -1.2440 -0.5636 -1.0097
 8603TIP3    H225774   6.104   2.557   0.174 -1.2498 -0.4866 -0.8104
 8604TIP3   OH225775   1.423   1.773   1.219 -0.1444 -0.5152 -0.2757
 8604TIP3    H125776   1.512   1.785   1.185 -0.1681  1.3196  0.1849
 8604TIP3    H225777   1.368   1.827   1.162 -0.5258  0.6531  1.1428
 8605TIP3   OH225778   0.532   6.019   2.836 -0.4948  0.3153  0.5759
 8605TIP3    H125779   0.512   5.944   2.893  2.1040  1.3101  3.0563
 8605TIP3    H225780   0.483   6.092   2.876 -0.3565  0.5989  0.2269
 8606TIP3   OH225781   4.906   4.256   5.051  0.1921  0.3028  0.1137
 8606TIP3    H125782   4.938   4.281   5.138 -1.0751  0.3725  0.5697
 8606TIP3    H225783   4.880   4.339   5.010 -0.5994  0.1163  0.2331
 8607TIP3   OH225784   5.814   0.467   1.689 -0.4380  0.7617 -0.0466
 8607TIP3    H125785   5.776   0.381   1.676  0.6447  0.5599 -2.3168
 8607TIP3    H225786   5.872   0.457   1.764 -0.9073 -0.2525  0.1965
 8608TIP3   OH225787   4.571   4.884   3.568  0.0914  0.0565  0.2567
 8608TIP3    H125788   4.557   4.790   3.578 -1.1954  0.2283  0.2296
 8608TIP3    H225789   4.562   4.900   3.474  2.4798 -0.0958 -0.0510
 8609TIP3   OH225790   2.880   5.849   1.086 -0.8446  0.1224 -0.2379
 8609TIP3    H125791   2.820   5.924   1.080 -0.4487  0.4343 -0.3222
 8609TIP3    H225792   2.842   5.794   1.154 -0.8195  0.7013  0.2586
 8610TIP3   OH225793   3.545   5.740   4.096 -0.2332 -0.3585  0.4100
 8610TIP3    H125794   3.575   5.733   4.006  1.5904  1.1818  0.8537
 8610TIP3    H225795   3.623   5.726   4.149 -1.5960 -3.1649  1.8796
 8611TIP3   OH225796   3.826   4.868   2.075  0.5382  0.5634  0.0231
 8611TIP3    H125797   3.752   4.911   2.033  1.2258  0.5631 -1.2210
 8611TIP3    H225798   3.903   4.896   2.025  1.5135  1.2854  1.8381
 8612TIP3   OH225799   3.992   4.847   4.037  0.5027 -0.2924  0.6360
 8612TIP3    H125800   4.062   4.785   4.021  0.2754 -0.5224  0.5277
 8612TIP3    H225801   4.035   4.921   4.081  0.7473 -0.5895  0.8994
 8613TIP3   OH225802   0.443   3.214   3.663 -0.6316  0.1591 -0.7236
 8613TIP3    H125803   0.539   3.218   3.669 -0.5591 -0.1692 -1.4817
 8613TIP3    H225804   0.427   3.141   3.603 -1.3431  0.5126 -0.9680
 8614TIP3   OH225805   6.108   4.804   2.509 -0.3876  0.5549  0.3360
 8614TIP3    H125806   6.027   4.843   2.542 -0.5967 -0.2846  0.8485
 8614TIP3    H225807   6.079   4.725   2.463  0.0948  0.5232  0.0810
 8615TIP3   OH225808   1.992   4.693   5.759 -0.1683 -0.0838  0.0870
 8615TIP3    H125809   2.014   4.730   5.673 -0.3962  1.0493  0.5012
 8615TIP3    H225810   1.941   4.614   5.739 -0.3714  0.2649 -0.8162
 8616TIP3   OH225811   0.748   5.340   1.248 -0.0700  0.2362 -0.1450
 8616TIP3    H125812   0.839   5.360   1.269  0.5388 -1.4318 -1.0396
 8616TIP3    H225813   0.709   5.315   1.332  0.8805 -1.1033 -0.0814
 8617TIP3   OH225814   0.339   0.359   0.402 -0.0030 -0.2715 -0.5225
 8617TIP3    H125815   0.254   0.388   0.367 -0.4711 -0.4855  0.4199
 8617TIP3    H225816   0.403   0.415   0.358 -0.6816  0.3433 -0.7497
 8618TIP3   OH225817   6.325   1.323   0.704 -0.2279  0.2542  0.0795
 8618TIP3    H125818   6.314   1.258   0.635 -1.7357 -1.3361  1.7169
 8618TIP3    H225819   6.412   1.359   0.689 -0.6403  0.2818 -2.8406
 8619TIP3   OH225820   5.905   5.319   1.040 -0.0909 -0.9872  0.2084
 8619TIP3    H125821   5.855   5.340   0.961  1.2747 -1.1832 -0.7328
 8619TIP3    H225822   5.985   5.371   1.033 -0.5403  0.1140  2.2020
 8620TIP3   OH225823   0.774   4.175   5.341 -0.2935 -0.2987  0.1945
 8620TIP3    H125824   0.867   4.161   5.358 -0.3022 -2.6999 -1.2925
 8620TIP3    H225825   0.755   4.120   5.265 -2.8379  0.4882  0.1788
 8621TIP3   OH225826   5.788   2.314   4.407  0.2242  0.0302  0.0667
 8621TIP3    H125827   5.709   2.319   4.462  0.6962  1.1694  0.6830
 8621TIP3    H225828   5.838   2.242   4.444 -2.2203 -3.4384 -2.7393
 8622TIP3   OH225829   3.611   0.912   1.225 -0.2860 -0.1849 -1.0075
 8622TIP3    H125830   3.599   0.979   1.292 -3.8334  0.4332 -2.0630
 8622TIP3    H225831   3.652   0.839   1.271 -1.1462  0.7676  1.4452
 8623TIP3   OH225832   1.345   6.439   3.930  0.1709 -0.5753 -0.1997
 8623TIP3    H125833   1.322   6.489   3.851  0.4091 -0.4994 -0.2205
 8623TIP3    H225834   1.422   6.389   3.905  0.3611 -0.4053  0.0439
 8624TIP3   OH225835   5.397   0.389   3.552 -0.0347 -0.2838  0.5571
 8624TIP3    H125836   5.329   0.411   3.489 -0.2786  0.7279  1.1593
 8624TIP3    H225837   5.469   0.448   3.532 -0.0642 -0.0447  1.1275
 8625TIP3   OH225838   2.563   1.390   1.261  0.4912 -0.3748 -0.2200
 8625TIP3    H125839   2.560   1.409   1.355  0.3480  0.7240 -0.4379
 8625TIP3    H225840   2.503   1.452   1.221  0.7894 -0.6182 -1.0821
 8626TIP3   OH225841   3.578   2.500   4.225 -0.4432  0.9213  0.1180
 8626TIP3    H125842   3.622   2.450   4.157 -0.6040  1.5289 -0.4394
 8626TIP3    H225843   3.648   2.519   4.289 -0.2412  0.5534  0.0071
 8627TIP3   OH225844   6.917   4.331   5.642 -0.1415 -0.2483 -0.2409
 8627TIP3    H125845   6.830   4.316   5.680  0.6675  0.6236  2.1496
 8627TIP3    H225846   6.944   4.246   5.608 -0.8222 -1.2198  1.5035
 8628TIP3   OH225847   7.181   5.638   4.713 -0.0886  0.2679  0.2976
 8628TIP3    H125848   7.151   5.713   4.763  1.3441  2.4382 -1.8886
 8628TIP3    H225849   7.273   5.657   4.693 -0.6733 -0.0693 -3.5837
 8629TIP3   OH225850   6.989   1.671   5.664  0.6004  0.1622 -0.0159
 8629TIP3    H125851   7.078   1.636   5.675 -0.5320 -2.9907  0.0781
 8629TIP3    H225852   6.976   1.676   5.570  0.5689 -0.2858 -0.0374
 8630TIP3   OH225853   5.013   6.162   4.900 -0.4156 -0.1489  0.1415
 8630TIP3    H125854   4.920   6.145   4.881 -0.5348  2.1482 -1.7253
 8630TIP3    H225855   5.058   6.141   4.819  0.4078  0.7124  0.3590
 8631TIP3   OH225856   4.197   1.463   3.084 -0.1786  0.0061  0.0684
 8631TIP3    H125857   4.107   1.455   3.114 -0.8108  0.4406 -1.6299
 8631TIP3    H225858   4.203   1.550   3.045  0.6786 -0.3746 -0.7106
 8632TIP3   OH225859   5.491   5.554   3.637  0.3504  0.1431 -0.2475
 8632TIP3    H125860   5.520   5.615   3.569 -1.2169  1.0426 -0.1543
 8632TIP3    H225861   5.561   5.555   3.702  0.8062  1.0837 -0.7360
 8633TIP3   OH225862   4.890   6.141   0.901 -0.0043 -0.5587 -0.3118
 8633TIP3    H125863   4.947   6.209   0.938 -0.9099  0.0251  0.0225
 8633TIP3    H225864   4.951   6.073   0.871  0.8122 -1.0962  2.3003
 8634TIP3   OH225865   4.021   0.710   0.650  1.0421 -0.1733 -0.1946
 8634TIP3    H125866   4.065   0.791   0.627  0.6361  1.2495  3.4403
 8634TIP3    H225867   4.014   0.662   0.567  2.2727  2.9637 -2.2885
 8635TIP3   OH225868   1.577   6.097   3.702  0.2336 -0.1914 -0.0202
 8635TIP3    H125869   1.644   6.086   3.634 -0.2353 -1.0099 -0.3715
 8635TIP3    H225870   1.580   6.015   3.751 -0.8432 -0.4466 -0.3557
 8636TIP3   OH225871   7.000   3.995   4.650 -0.0774 -0.5253  0.4167
 8636TIP3    H125872   6.946   3.929   4.693  0.6494 -1.9689 -0.8182
 8636TIP3    H225873   7.067   3.946   4.604  1.9121  1.1743  1.2966
 8637TIP3   OH225874   3.874   1.045   0.789  0.0814 -0.0114  0.5039
 8637TIP3    H125875   3.891   1.127   0.835 -0.5447  1.2690 -1.4054
 8637TIP3    H225876   3.812   0.999   0.845  1.1639  0.3674  2.0645
 8638TIP3   OH225877   3.466   6.418   3.659  0.0623 -0.2503 -0.6127
 8638TIP3    H125878   3.400   6.365   3.614  0.5444 -1.1361 -0.3135
 8638TIP3    H225879   3.416   6.488   3.700 -0.8565 -1.4442  0.4072
 8639TIP3   OH225880   7.145   1.807   3.982 -0.4258  0.1426 -0.0410
 8639TIP3    H125881   7.124   1.757   4.062 -0.0342 -1.6026 -0.9702
 8639TIP3    H225882   7.061   1.840   3.952 -0.6975  0.0988  0.6437
 8640TIP3   OH225883   3.351   2.528   2.804  0.6521  0.2643  0.1255
 8640TIP3    H125884   3.323   2.596   2.742  0.1590 -0.6949 -0.7351
 8640TIP3    H225885   3.312   2.447   2.770 -1.2889 -0.0299  2.7589
 8641TIP3   OH225886   0.531   3.527   4.007  0.2460  0.3799 -0.5953
 8641TIP3    H125887   0.623   3.536   3.981  0.1072  0.5281 -1.0496
 8641TIP3    H225888   0.505   3.615   4.035  0.9511 -0.1755  1.9774
 8642TIP3   OH225889   2.024   0.037   1.225  0.2667 -0.2384 -0.7271
 8642TIP3    H125890   1.935   0.070   1.216  0.5471  0.5940 -0.5388
 8642TIP3    H225891   2.017  -0.039   1.283 -0.2238  0.2642 -0.1216
 8643TIP3   OH225892   1.270   1.112   5.828 -0.0606 -0.3702 -0.4674
 8643TIP3    H125893   1.229   1.102   5.742 -0.1451  0.9879 -0.6072
 8643TIP3    H225894   1.215   1.061   5.887 -0.5099 -0.5827 -1.0599
 8644TIP3   OH225895   5.605   4.561   1.566 -0.0916 -0.6696  0.6698
 8644TIP3    H125896   5.515   4.592   1.574  0.4348  0.9749  0.5177
 8644TIP3    H225897   5.614   4.534   1.475 -0.9941 -2.8209  1.1545
 8645TIP3   OH225898   1.809   2.247   4.326  0.1295 -0.2019 -0.1186
 8645TIP3    H125899   1.727   2.295   4.313 -0.7416 -1.0750  1.7818
 8645TIP3    H225900   1.794   2.162   4.284 -0.4287 -0.7983  1.2253
 8646TIP3   OH225901   1.438   5.742   2.614  0.0989  0.1667  0.0431
 8646TIP3    H125902   1.349   5.773   2.601  0.4563  0.7960 -1.0461
 8646TIP3    H225903   1.467   5.715   2.527  0.1241 -2.4286  0.7873
 8647TIP3   OH225904   3.019   6.382   1.044  0.4316 -0.0772 -0.8183
 8647TIP3    H125905   3.064   6.432   0.976 -1.1291  0.4467 -1.5171
 8647TIP3    H225906   2.975   6.448   1.098  1.7884 -0.4650  0.8654
 8648TIP3   OH225907   2.919   1.878   4.987  0.1790 -0.1568 -0.0088
 8648TIP3    H125908   2.935   1.828   5.067  1.0374  0.8042  0.4376
 8648TIP3    H225909   2.984   1.947   4.988 -1.2497  1.2598 -0.3769
 8649TIP3   OH225910   0.484   5.011   3.666  0.1219 -0.7303  0.0294
 8649TIP3    H125911   0.526   4.925   3.656  1.3689 -0.1992  0.4471
 8649TIP3    H225912   0.551   5.073   3.636 -1.1788  0.0540 -1.3929
 8650TIP3   OH225913   2.771   1.334   3.247  0.5350  0.1155  0.3684
 8650TIP3    H125914   2.730   1.387   3.178 -0.4612 -0.8912  0.1587
 8650TIP3    H225915   2.738   1.246   3.232  2.6516 -0.7190  0.3265
 8651TIP3   OH225916   5.599   2.394   5.345 -0.3033 -0.3172 -0.1858
 8651TIP3    H125917   5.580   2.307   5.381  2.7789  0.1570  3.1020
 8651TIP3    H225918   5.552   2.454   5.403  0.4553  0.3223 -0.2314
 8652TIP3   OH225919   3.993   6.393   5.083  0.0376 -0.5902 -0.4456
 8652TIP3    H125920   4.070   6.351   5.123 -0.8816 -1.3437  0.6125
 8652TIP3    H225921   4.022   6.417   4.995  1.7272 -0.1203  0.1885
 8653TIP3   OH225922   1.987   3.114   2.634 -0.0191 -0.2883 -0.7491
 8653TIP3    H125923   1.905   3.104   2.683  0.1002  2.7572  0.2426
 8653TIP3    H225924   1.960   3.149   2.549  0.2374  1.0572 -0.2948
 8654TIP3   OH225925   4.483   6.189   2.429 -0.0586  0.8843 -0.5338
 8654TIP3    H125926   4.419   6.222   2.366 -1.6583  0.1994  0.6643
 8654TIP3    H225927   4.493   6.097   2.407 -0.5061  0.6791  0.0942
 8655TIP3   OH225928   5.609   1.298   3.177 -0.0118  0.4071  0.6125
 8655TIP3    H125929   5.539   1.256   3.227  0.5743 -0.5335  0.6639
 8655TIP3    H225930   5.579   1.389   3.165 -1.7711 -0.2556 -0.3499
 8656TIP3   OH225931   3.223   0.279   2.017  0.0745 -0.0154 -0.2381
 8656TIP3    H125932   3.150   0.264   2.076  1.0690  0.5028  1.1781
 8656TIP3    H225933   3.278   0.201   2.025 -0.1354 -0.2617 -1.0462
 8657TIP3   OH225934   6.565   0.527   0.928 -0.5882  0.5606  0.2786
 8657TIP3    H125935   6.644   0.481   0.958 -1.4179  0.0497  1.7418
 8657TIP3    H225936   6.598   0.592   0.865  0.8881 -0.2458  0.1730
 8658TIP3   OH225937   5.498   1.991   4.848 -0.1807  0.1496 -0.3354
 8658TIP3    H125938   5.453   2.058   4.899  0.3093 -0.1681  0.5355
 8658TIP3    H225939   5.445   1.912   4.861 -1.0071  0.4474 -1.7187
 8659TIP3   OH225940   5.172   3.235   3.168 -0.1951  0.1555 -0.2876
 8659TIP3    H125941   5.241   3.265   3.227  0.1398 -0.6103 -0.2896
 8659TIP3    H225942   5.097   3.292   3.188 -1.0007 -1.7410  2.7870
 8660TIP3   OH225943   1.550   1.257   0.760  0.3967 -0.0880 -0.0859
 8660TIP3    H125944   1.530   1.185   0.819 -0.4037 -1.0078 -1.4355
 8660TIP3    H225945   1.495   1.242   0.683 -1.7641  3.3002  0.5297
 8661TIP3   OH225946   6.121   3.096   3.619  0.0503  0.0148  0.9118
 8661TIP3    H125947   6.182   3.049   3.675  0.1471  0.4461  1.1766
 8661TIP3    H225948   6.138   3.189   3.638 -0.4300  0.1468  0.7196
 8662TIP3   OH225949   6.792   0.056   1.269 -0.1950 -0.7495 -0.3671
 8662TIP3    H125950   6.698   0.075   1.259 -0.2321 -1.6580 -2.1210
 8662TIP3    H225951   6.796  -0.009   1.340 -0.8669 -0.5354 -0.1263
 8663TIP3   OH225952   6.347   5.625   2.037  0.1987 -0.0546  0.2373
 8663TIP3    H125953   6.305   5.589   1.959 -0.7908  0.9913  0.2593
 8663TIP3    H225954   6.287   5.604   2.109  0.4355  0.1682  0.5037
 8664TIP3   OH225955   0.545   0.439   0.262  0.1422 -0.6420 -0.0853
 8664TIP3    H125956   0.639   0.431   0.247  0.2164 -0.6169  0.3437
 8664TIP3    H225957   0.505   0.386   0.194  0.4481 -0.2346 -0.5928
 8665TIP3   OH225958   5.289   1.414   0.477  0.0864 -0.4011  0.5015
 8665TIP3    H125959   5.206   1.366   0.478 -0.3128  0.2254 -0.5935
 8665TIP3    H225960   5.311   1.421   0.384  1.1768 -0.2198  0.7623
 8666TIP3   OH225961   4.726   3.286   3.653 -0.1958  0.6368  0.5419
 8666TIP3    H125962   4.771   3.340   3.588  0.3548  1.2994  1.4617
 8666TIP3    H225963   4.779   3.295   3.732 -0.5575 -0.5998  0.9365
 8667TIP3   OH225964   5.603   5.340   4.863 -0.2259 -0.3866 -0.0128
 8667TIP3    H125965   5.673   5.405   4.858  0.9669 -1.7145 -1.7693
 8667TIP3    H225966   5.615   5.299   4.949  0.0126  0.5836  0.4394
 8668TIP3   OH225967   4.860   0.898   1.801 -0.3762  0.2426  0.1225
 8668TIP3    H125968   4.860   0.864   1.891  0.5731  0.9830  0.4189
 8668TIP3    H225969   4.950   0.929   1.787 -0.8168  1.2398 -0.6529
 8669TIP3   OH225970   4.536   6.519   1.845  0.0091  0.1520 -0.1076
 8669TIP3    H125971   4.493   6.443   1.806  0.1571  0.6075 -1.1963
 8669TIP3    H225972   4.552   6.578   1.771  2.5404 -0.0141  0.2091
 8670TIP3   OH225973   6.251   5.620   5.370 -0.1639  0.3083 -0.4103
 8670TIP3    H125974   6.225   5.696   5.319 -0.3376  0.3480 -0.2623
 8670TIP3    H225975   6.255   5.548   5.306  1.7265  0.7929 -0.9068
 8671TIP3   OH225976   0.981   1.539   1.104 -0.4057  0.0159 -0.3500
 8671TIP3    H125977   1.054   1.478   1.095  0.1512  0.7641 -0.9756
 8671TIP3    H225978   1.007   1.617   1.055 -1.8002  0.1452 -0.9449
 8672TIP3   OH225979   4.005   5.661   1.821 -0.1934 -0.1825 -0.6176
 8672TIP3    H125980   4.059   5.701   1.753 -0.0490 -2.1639 -1.7608
 8672TIP3    H225981   3.915   5.679   1.793 -0.1350 -0.9613 -1.3687
 8673TIP3   OH225982   1.415   6.305   1.152 -0.2998 -0.4812 -0.2940
 8673TIP3    H125983   1.449   6.216   1.163  0.7747 -0.1500 -0.7881
 8673TIP3    H225984   1.327   6.302   1.190 -0.1103 -1.6385  0.0954
 8674TIP3   OH225985   5.982   6.661   3.052 -0.3967 -0.1346  0.1964
 8674TIP3    H125986   5.899   6.613   3.043 -0.9603  0.5686  1.3430
 8674TIP3    H225987   6.044   6.612   3.000 -1.2683 -1.3550  0.2629
 8675TIP3   OH225988   1.966   3.531   2.133  0.2231  0.1350  0.1485
 8675TIP3    H125989   1.944   3.565   2.047 -1.4773  0.6896  0.7603
 8675TIP3    H225990   1.959   3.607   2.191  2.4863  0.0437  0.6495
 8676TIP3   OH225991   2.614   0.743   0.507 -0.2807  0.1327  0.2429
 8676TIP3    H125992   2.613   0.737   0.602 -0.0458  3.2349  0.5482
 8676TIP3    H225993   2.577   0.829   0.488 -1.2963 -0.8050 -2.5621
 8677TIP3   OH225994   4.946   3.562   2.559 -0.4458 -0.0368 -0.4764
 8677TIP3    H125995   5.002   3.547   2.636 -1.4124  0.7387  0.4101
 8677TIP3    H225996   4.995   3.625   2.506  0.8334 -1.5616 -1.1881
 8678TIP3   OH225997   2.684   4.670   0.244 -0.0962  0.0071  0.4442
 8678TIP3    H125998   2.747   4.604   0.271 -0.9130 -0.5567  1.0271
 8678TIP3    H225999   2.602   4.622   0.235 -0.9808  1.1265  2.0202
 8679TIP3   OH226000   4.639   6.521   3.370  0.0074 -0.9869 -0.1523
 8679TIP3    H126001   4.631   6.431   3.338  0.2071 -0.5455 -1.4919
 8679TIP3    H226002   4.597   6.574   3.303  1.2893  0.0524 -0.1653
 8680TIP3   OH226003   6.423   2.642   0.226  0.3518  0.5371 -0.0745
 8680TIP3    H126004   6.511   2.612   0.250  0.0561 -1.3400 -1.1287
 8680TIP3    H226005   6.383   2.566   0.184 -0.9184  2.0959 -1.8215
 8681TIP3   OH226006   1.717   2.869   4.578 -0.2884  0.9235 -0.1310
 8681TIP3    H126007   1.646   2.864   4.514 -1.8932  2.8486  1.3458
 8681TIP3    H226008   1.769   2.791   4.563 -3.8594 -1.7289 -0.0119
 8682TIP3   OH226009   5.304   4.767   4.513  0.4523 -0.0537  0.3914
 8682TIP3    H126010   5.257   4.841   4.474 -2.3713 -0.8250  2.0821
 8682TIP3    H226011   5.391   4.802   4.533  0.6762  1.4945 -2.7240
 8683TIP3   OH226012   4.300   0.368   1.235 -0.5229  0.5607 -0.3325
 8683TIP3    H126013   4.284   0.281   1.271  0.2551  0.4208 -0.3173
 8683TIP3    H226014   4.330   0.352   1.146  0.6486  0.7592  0.0142
 8684TIP3   OH226015   4.745   0.453   5.358 -0.1814  0.3086 -0.4704
 8684TIP3    H126016   4.776   0.404   5.282  3.7266  1.6540  0.0523
 8684TIP3    H226017   4.722   0.539   5.323  0.1758  0.4521 -0.3564
 8685TIP3   OH226018   6.674   6.460   4.871  0.0182 -0.3703  0.4784
 8685TIP3    H126019   6.690   6.422   4.957 -2.0357 -0.7082  0.7571
 8685TIP3    H226020   6.580   6.476   4.869 -0.4711 -2.6591 -2.6033
 8686TIP3   OH226021   4.163   2.712   3.132  0.0692 -0.4104 -0.0530
 8686TIP3    H126022   4.163   2.771   3.057  1.7313 -0.9653 -0.5145
 8686TIP3    H226023   4.240   2.656   3.120 -0.5884 -1.6587  1.1729
 8687TIP3   OH226024   3.346   5.510   2.839  0.0867 -0.1852 -0.4709
 8687TIP3    H126025   3.381   5.517   2.928  1.3089 -1.9566 -0.7784
 8687TIP3    H226026   3.415   5.467   2.788  0.1090  2.2330 -2.7134
 8688TIP3   OH226027   1.143   5.551   3.258 -0.0432  0.2260 -0.5923
 8688TIP3    H126028   1.160   5.458   3.272 -1.0248  0.2593  1.0553
 8688TIP3    H226029   1.049   5.560   3.273  0.3745  1.8256  1.4255
 8689TIP3   OH226030   2.921   3.987   5.491 -0.0125  0.1545 -0.3144
 8689TIP3    H126031   2.930   3.982   5.396 -3.7046 -0.6859 -0.7535
 8689TIP3    H226032   2.906   4.080   5.509  1.6996  0.4735 -0.3554
 8690TIP3   OH226033   1.658   5.422   1.125  0.4122  0.0435 -0.4054
 8690TIP3    H126034   1.635   5.410   1.217  0.4408  1.9767 -0.1111
 8690TIP3    H226035   1.593   5.370   1.077 -0.0100 -0.4451  0.6755
 8691TIP3   OH226036   3.983   6.077   2.143  0.1631  0.1537 -0.0999
 8691TIP3    H126037   4.077   6.070   2.126  0.0518  1.6050 -1.5594
 8691TIP3    H226038   3.942   6.031   2.070 -0.2545  0.7120 -0.2273
 8692TIP3   OH226039   3.351   4.033   3.469  0.2832 -0.1787  0.3620
 8692TIP3    H126040   3.343   4.127   3.452 -0.6565 -0.3159  0.0203
 8692TIP3    H226041   3.317   3.991   3.391 -1.2062 -0.8109  1.3013
 8693TIP3   OH226042   4.946   2.860   0.420  0.0488  0.0894  0.2287
 8693TIP3    H126043   4.854   2.834   0.426 -0.0955  0.2486 -1.0474
 8693TIP3    H226044   4.949   2.945   0.463  0.5683 -1.8775  4.6758
 8694TIP3   OH226045   3.418   4.159   5.080 -0.2839 -0.1311 -0.1531
 8694TIP3    H126046   3.480   4.096   5.043 -0.3094 -0.1055 -0.2389
 8694TIP3    H226047   3.445   4.244   5.044  2.1296  0.5520  2.8605
 8695TIP3   OH226048   2.823   4.257   3.371 -0.2150 -0.3495  0.3218
 8695TIP3    H126049   2.789   4.287   3.456 -1.6081  1.1823 -0.7073
 8695TIP3    H226050   2.840   4.163   3.383 -2.3270 -0.6128  1.7227
 8696TIP3   OH226051   0.194   3.291   1.353  0.2395 -0.2573 -0.3599
 8696TIP3    H126052   0.234   3.208   1.326  0.7022 -0.7073  1.5128
 8696TIP3    H226053   0.264   3.336   1.401  0.0528  1.3410 -1.5047
 8697TIP3   OH226054   0.521   5.399   2.178 -0.2378 -0.0698  0.5188
 8697TIP3    H126055   0.601   5.392   2.126 -0.6184 -0.2241 -0.0562
 8697TIP3    H226056   0.550   5.435   2.263  0.2606  1.0674 -0.1110
 8698TIP3   OH226057   4.969   5.478   3.260  0.6273  0.8327  0.9866
 8698TIP3    H126058   4.916   5.536   3.207  0.7782  1.0978  1.1215
 8698TIP3    H226059   5.032   5.440   3.199 -0.0980  0.0426  0.7061
 8699TIP3   OH226060   6.682   1.531   2.867  0.0414  0.5469  0.3546
 8699TIP3    H126061   6.691   1.581   2.948  1.4422  0.5541  0.2180
 8699TIP3    H226062   6.709   1.442   2.891  0.9546  0.6610 -0.1947
 8700TIP3   OH226063   1.795   5.938   4.034  0.2230 -0.8037 -0.6341
 8700TIP3    H126064   1.844   6.018   4.013  0.1943 -0.8455 -0.8689
 8700TIP3    H226065   1.825   5.914   4.121 -2.2060  1.3171  0.9221
 8701TIP3   OH226066   4.034   6.342   4.032  0.3587 -0.5728 -0.0157
 8701TIP3    H126067   4.118   6.320   4.072  0.4113 -1.4363 -0.5658
 8701TIP3    H226068   3.976   6.359   4.106  1.7547  3.2471  0.3984
 8702TIP3   OH226069   0.254   2.846   3.653  0.4624 -0.0345  0.9215
 8702TIP3    H126070   0.321   2.891   3.601  3.0458 -1.9154  2.3515
 8702TIP3    H226071   0.261   2.885   3.740  1.6938 -1.9928  1.7775
 8703TIP3   OH226072   3.342   5.068   2.877 -0.2756 -0.0591 -0.8905
 8703TIP3    H126073   3.421   5.024   2.909  0.7055  2.4372  0.3375
 8703TIP3    H226074   3.270   5.023   2.921  0.6625 -0.5834  0.1529
 8704TIP3   OH226075   2.710   4.469   2.873 -0.4318 -0.0008 -0.0822
 8704TIP3    H126076   2.644   4.535   2.896 -0.6690 -0.3472  0.2435
 8704TIP3    H226077   2.734   4.429   2.957  2.2664  1.9959  0.2276
 8705TIP3   OH226078   2.560   5.422   2.870  0.3873  0.0476 -0.2451
 8705TIP3    H126079   2.592   5.510   2.850 -1.5094  0.5424 -1.3086
 8705TIP3    H226080   2.465   5.430   2.872  0.0683 -2.2878 -1.9154
 8706TIP3   OH226081   2.518   6.497   3.504 -0.2270  0.2487  0.2327
 8706TIP3    H126082   2.564   6.433   3.448  1.6878 -0.6970  2.6821
 8706TIP3    H226083   2.564   6.579   3.488  3.4131 -0.8560  3.3445
 8707TIP3   OH226084   3.491   1.324   3.059 -0.6451 -0.5436 -0.1800
 8707TIP3    H126085   3.398   1.345   3.054 -0.4517  0.1308 -1.2028
 8707TIP3    H226086   3.497   1.257   3.127 -1.6055  0.9878  1.5241
 8708TIP3   OH226087   5.266   4.714   4.231  0.9705 -0.1138 -0.4219
 8708TIP3    H126088   5.351   4.674   4.213  0.2522 -1.2037 -1.5563
 8708TIP3    H226089   5.265   4.726   4.326  2.6251  0.5040 -0.4574
 8709TIP3   OH226090   6.805   0.866   4.863  0.2656 -0.1177  0.4252
 8709TIP3    H126091   6.712   0.866   4.842 -0.4553 -0.9110  3.2161
 8709TIP3    H226092   6.837   0.782   4.832 -0.7170 -1.1779  2.1309
 8710TIP3   OH226093   2.370   0.751   3.588  0.0604  0.5443  0.0364
 8710TIP3    H126094   2.402   0.718   3.505  1.9509 -1.3059  1.3911
 8710TIP3    H226095   2.414   0.835   3.599  0.3450  0.4684 -0.5160
 8711TIP3   OH226096   1.961   5.604   1.315 -0.1061 -0.4969 -0.6068
 8711TIP3    H126097   1.936   5.516   1.342 -0.4308  0.5288  2.8518
 8711TIP3    H226098   2.054   5.597   1.293  0.5085 -1.3216  1.9733
 8712TIP3   OH226099   4.525   5.729   4.275 -0.0434  0.1377  0.1385
 8712TIP3    H126100   4.579   5.779   4.214 -0.2895  0.4340  0.1569
 8712TIP3    H226101   4.523   5.641   4.239  0.5737  0.0888  0.2191
 8713TIP3   OH226102   5.061   4.146   1.381  0.4462  0.0937 -0.2162
 8713TIP3    H126103   5.079   4.106   1.296  0.1836 -0.9543  0.2081
 8713TIP3    H226104   5.109   4.092   1.444 -2.8946 -2.0178  0.7939
 8714TIP3   OH226105   4.450   2.848   4.952  0.3931  0.0578  0.6120
 8714TIP3    H126106   4.466   2.939   4.977  0.9162 -0.3081  1.7209
 8714TIP3    H226107   4.357   2.834   4.967  0.1535  0.6238 -0.3241
 8715TIP3   OH226108   1.109   4.083   0.033  0.3140 -0.0585 -0.0465
 8715TIP3    H126109   1.027   4.130   0.021 -0.5992 -2.0028 -2.1400
 8715TIP3    H226110   1.083   3.992   0.045  2.1326 -0.6374 -0.2330
 8716TIP3   OH226111   4.393   4.678   4.855  0.1606 -0.1405 -0.5698
 8716TIP3    H126112   4.438   4.763   4.865  0.0685 -0.1663  0.1162
 8716TIP3    H226113   4.311   4.689   4.904 -0.1837 -0.3826 -1.0942
 8717TIP3   OH226114   7.029   4.740   4.129 -0.4107  0.3949 -0.2297
 8717TIP3    H126115   7.109   4.701   4.164 -0.3702  0.6184 -0.0685
 8717TIP3    H226116   7.027   4.828   4.167 -1.4074 -0.0512  0.8109
 8718TIP3   OH226117   0.517   1.466   1.420 -0.0098  0.3243 -0.6339
 8718TIP3    H126118   0.464   1.537   1.457  1.5049  1.0666  0.2002
 8718TIP3    H226119   0.528   1.404   1.492 -0.2114 -0.1135 -0.9738
 8719TIP3   OH226120   4.697   4.753   4.976 -0.1696 -0.0068  0.0166
 8719TIP3    H126121   4.760   4.825   4.975  0.2879 -0.3061  2.2355
 8719TIP3    H226122   4.616   4.792   5.009 -0.0784 -0.3869  0.6957
 8720TIP3   OH226123   5.512   3.960   3.089 -0.1646  0.3532 -0.3032
 8720TIP3    H126124   5.597   3.992   3.119  0.5887 -1.4088 -0.4170
 8720TIP3    H226125   5.489   3.890   3.151 -1.0738  0.1658 -0.8311
 8721TIP3   OH226126   4.264   2.364   3.058 -0.5757  0.0462  0.1245
 8721TIP3    H126127   4.326   2.395   2.992  0.2785 -1.9507 -0.0861
 8721TIP3    H226128   4.184   2.344   3.009 -0.2125 -0.6685 -0.1857
 8722TIP3   OH226129   3.028   4.522   1.575  0.2405  0.0473 -0.2772
 8722TIP3    H126130   2.947   4.470   1.580  0.1398  0.1255 -0.9356
 8722TIP3    H226131   3.038   4.559   1.662 -1.8351  2.0988 -0.8054
 8723TIP3   OH226132   5.004   3.320   5.250 -0.4667  0.4188 -0.3816
 8723TIP3    H126133   4.933   3.256   5.242 -0.4352  0.2402  0.7415
 8723TIP3    H226134   5.079   3.277   5.210  0.0386 -1.0287  1.9422
 8724TIP3   OH226135   1.629   0.843   4.758 -0.5038 -0.3095  0.3749
 8724TIP3    H126136   1.595   0.924   4.797  0.5427 -0.0029  0.6694
 8724TIP3    H226137   1.688   0.873   4.689  0.1411 -0.8138  0.6984
 8725TIP3   OH226138   4.178   0.512   0.766 -0.1315 -0.7711  0.6869
 8725TIP3    H126139   4.271   0.530   0.753 -0.2567  0.0669  0.9014
 8725TIP3    H226140   4.135   0.596   0.752 -0.5917 -0.5084  3.1970
 8726TIP3   OH226141   4.796   1.789   1.516  0.1901 -0.0869  0.4204
 8726TIP3    H126142   4.834   1.852   1.455  0.9375 -0.4083  0.5500
 8726TIP3    H226143   4.821   1.820   1.602 -0.0237 -0.1879  0.5214
 8727TIP3   OH226144   3.515   1.650   1.825  0.3671 -0.1312  0.6812
 8727TIP3    H126145   3.513   1.701   1.744 -0.7554 -1.1975  0.0032
 8727TIP3    H226146   3.434   1.675   1.871 -0.3281 -1.4750  0.2146
 8728TIP3   OH226147   7.103   0.130   3.076  0.1855 -0.1478 -0.0357
 8728TIP3    H126148   7.008   0.126   3.074  0.1665  0.2659 -0.0464
 8728TIP3    H226149   7.124   0.223   3.069  0.5233  0.0002  2.2182
 8729TIP3   OH226150   7.209   5.266   5.521 -0.0224 -0.2070 -0.0591
 8729TIP3    H126151   7.133   5.281   5.577 -1.0480  0.2940 -1.5295
 8729TIP3    H226152   7.274   5.329   5.552 -0.1438 -0.6983  1.2659
 8730TIP3   OH226153   1.247   2.958   4.810  0.1402 -0.6498 -0.3394
 8730TIP3    H126154   1.231   2.910   4.728 -0.9337 -1.5517  0.3713
 8730TIP3    H226155   1.194   3.037   4.802 -2.2820 -2.0590  0.6020
 8731TIP3   OH226156   1.773   5.865   3.585  0.1394 -0.4743 -0.3823
 8731TIP3    H126157   1.754   5.864   3.491 -1.4364  1.4188 -0.1370
 8731TIP3    H226158   1.777   5.772   3.609  0.2466 -0.9989 -2.2312
 8732TIP3   OH226159   2.432   6.689   4.358 -0.3822  0.3567  0.4050
 8732TIP3    H126160   2.345   6.714   4.328  0.1342  0.7898 -0.7897
 8732TIP3    H226161   2.440   6.730   4.444 -1.8500 -0.8184  1.1416
 8733TIP3   OH226162   3.280   2.733   3.475 -0.1077  0.1168 -0.0388
 8733TIP3    H126163   3.261   2.792   3.402 -1.0021  0.8921  0.7969
 8733TIP3    H226164   3.334   2.786   3.534 -0.9402  0.1297  0.7326
 8734TIP3   OH226165   6.408   0.144   1.181 -0.1371  0.3495  0.4844
 8734TIP3    H126166   6.455   0.129   1.099 -1.4808 -0.8527 -0.1072
 8734TIP3    H226167   6.316   0.137   1.158 -0.5528 -0.0950  2.1035
 8735TIP3   OH226168   0.201   3.505   2.925  0.2528 -0.0913 -0.2628
 8735TIP3    H126169   0.274   3.470   2.874 -0.0031  1.8548 -2.1039
 8735TIP3    H226170   0.238   3.581   2.969 -0.5452  0.6640 -0.8814
 8736TIP3   OH226171   1.799   6.324   4.081  0.1534  0.2121  0.3469
 8736TIP3    H126172   1.778   6.310   4.174  1.7672 -0.0554  0.7100
 8736TIP3    H226173   1.740   6.266   4.034  0.3644 -0.8291  1.3162
 8737TIP3   OH226174   2.966   5.186   3.123 -0.1481 -0.7908  0.5805
 8737TIP3    H126175   2.979   5.261   3.181 -1.4917  1.1984 -1.5159
 8737TIP3    H226176   2.891   5.210   3.069 -0.0200 -3.2549 -0.8671
 8738TIP3   OH226177   4.538   2.658   0.571  0.1459  0.0547  0.7312
 8738TIP3    H126178   4.475   2.595   0.535  1.6954 -0.9430 -0.3928
 8738TIP3    H226179   4.603   2.603   0.615  0.6071  1.0097  1.2519
 8739TIP3   OH226180   3.133   0.823   3.091 -0.2301 -0.3696  0.1197
 8739TIP3    H126181   3.088   0.891   3.141  1.3734 -0.4375  1.7179
 8739TIP3    H226182   3.064   0.762   3.066 -1.3048  0.5291  0.8073
 8740TIP3   OH226183   6.524   1.308   4.867 -0.6001 -0.7091 -0.2815
 8740TIP3    H126184   6.468   1.307   4.945  0.9034  0.2156  0.8597
 8740TIP3    H226185   6.474   1.358   4.802 -1.1799 -0.0611  0.6505
 8741TIP3   OH226186   4.928   1.289   0.885 -0.4376  0.0192 -0.5340
 8741TIP3    H126187   5.019   1.260   0.883 -0.9028 -1.4532 -1.5282
 8741TIP3    H226188   4.895   1.260   0.970 -0.3572 -0.6902 -0.7401
 8742TIP3   OH226189   0.889   2.785   4.282 -0.6231 -0.5988  0.2614
 8742TIP3    H126190   0.822   2.757   4.220 -1.3541 -0.6494  1.0532
 8742TIP3    H226191   0.857   2.868   4.316  1.4557  1.2449 -1.9576
 8743TIP3   OH226192   5.926   4.422   1.447  0.9515  0.1548 -0.4604
 8743TIP3    H126193   5.905   4.418   1.540 -0.6030  1.8455 -0.6915
 8743TIP3    H226194   5.916   4.331   1.417  0.3001 -0.2072  0.7764
 8744TIP3   OH226195   5.109   2.228   5.479 -0.3479 -0.6889 -0.5911
 8744TIP3    H126196   5.123   2.135   5.460 -2.6905 -1.2389  0.0082
 8744TIP3    H226197   5.057   2.228   5.560 -0.2704  1.1629 -0.4990
 8745TIP3   OH226198   0.520   0.636   3.470  0.3285 -1.0633 -0.3495
 8745TIP3    H126199   0.548   0.727   3.470 -1.1566 -0.5579 -1.8958
 8745TIP3    H226200   0.562   0.598   3.393  2.5523 -2.3053  1.3410
 8746TIP3   OH226201   5.450   0.616   1.550  0.4468 -0.4833 -0.3451
 8746TIP3    H126202   5.464   0.612   1.455 -0.2384 -0.1749 -0.4592
 8746TIP3    H226203   5.358   0.639   1.560  1.3258  3.2967  0.3663
 8747TIP3   OH226204   5.921   4.146   1.448  0.3779 -0.0704 -0.5032
 8747TIP3    H126205   5.896   4.093   1.523 -0.5921  1.3242  0.2155
 8747TIP3    H226206   6.012   4.122   1.430  0.0320 -1.7924 -0.0959
 8748TIP3   OH226207   2.418   5.282   0.215 -0.3433  0.1840  0.5398
 8748TIP3    H126208   2.373   5.228   0.280 -0.8559  1.1611  1.0270
 8748TIP3    H226209   2.507   5.292   0.248 -0.1042 -0.7437  0.1997
 8749TIP3   OH226210   7.132   5.162   1.119 -0.3040  0.0469  0.1910
 8749TIP3    H126211   7.138   5.105   1.195 -0.1926 -2.7007 -1.7032
 8749TIP3    H226212   7.209   5.218   1.124  1.5754 -2.3997  0.4374
 8750TIP3   OH226213   7.004   0.439   4.668  0.7348  0.4222 -0.5539
 8750TIP3    H126214   7.093   0.404   4.668  1.6856  2.6706  0.5018
 8750TIP3    H226215   6.998   0.490   4.588  0.7616  1.0966 -0.1332
 8751TIP3   OH226216   5.355   1.542   5.414  0.4190 -0.5987 -0.6954
 8751TIP3    H126217   5.384   1.578   5.330 -0.4954  0.3622 -0.6145
 8751TIP3    H226218   5.380   1.450   5.410  1.2296 -0.3543 -1.6350
 8752TIP3   OH226219   2.108   1.775   5.122  0.0263 -0.0533  0.0203
 8752TIP3    H126220   2.114   1.805   5.213  0.9723  1.6533 -0.5547
 8752TIP3    H226221   2.036   1.711   5.122 -0.3800  0.3563  1.8399
 8753TIP3   OH226222   1.898   4.069   1.009 -0.1889  0.1020 -0.3431
 8753TIP3    H126223   1.902   4.067   0.913  1.6522  0.1077 -0.2985
 8753TIP3    H226224   1.809   4.040   1.029  0.3462 -3.2261 -1.9897
 8754TIP3   OH226225   6.593   3.791   1.784 -0.4093  0.3074 -0.2139
 8754TIP3    H126226   6.572   3.751   1.700  1.5183 -0.2380 -0.4908
 8754TIP3    H226227   6.667   3.849   1.766 -0.8354  1.2361  0.8678
 8755TIP3   OH226228   4.657   3.085   5.010  0.7672  0.4548  0.2427
 8755TIP3    H126229   4.715   3.016   4.976 -1.3380 -1.2477 -0.1611
 8755TIP3    H226230   4.626   3.130   4.932 -1.5246 -1.3314 -0.0049
 8756TIP3   OH226231   3.263   6.564   3.806  0.2507 -0.3408 -0.3891
 8756TIP3    H126232   3.255   6.617   3.885 -1.9915  0.4423 -1.0592
 8756TIP3    H226233   3.177   6.571   3.763  0.7543 -2.3294 -1.8997
 8757TIP3   OH226234   5.704   4.300   2.898  0.1358 -0.2322 -0.3004
 8757TIP3    H126235   5.665   4.273   2.815  0.2631 -0.4069 -0.3028
 8757TIP3    H226236   5.639   4.358   2.937 -0.1871 -0.6354 -0.2370
 8758TIP3   OH226237   4.223   3.396   0.153  0.0393  0.4943  0.4188
 8758TIP3    H126238   4.253   3.406   0.062 -0.0366  0.0147  0.3396
 8758TIP3    H226239   4.132   3.369   0.145  0.2437 -0.2687  0.6233
 8759TIP3   OH226240   3.211   5.975   0.930  0.2132  0.6774 -0.0620
 8759TIP3    H126241   3.251   6.061   0.940  0.9707  0.4194 -0.7714
 8759TIP3    H226242   3.282   5.919   0.898 -0.7503  0.2456 -1.5231
 8760TIP3   OH226243   5.202   2.869   4.309  0.4842 -0.0456  0.0922
 8760TIP3    H126244   5.115   2.893   4.342  0.3611  2.5729 -1.8234
 8760TIP3    H226245   5.190   2.782   4.272 -0.5519 -0.9680  2.3822
 8761TIP3   OH226246   0.047   4.444   1.425 -0.2787  0.3154  0.0295
 8761TIP3    H126247  -0.006   4.384   1.478 -0.5950 -0.5091 -1.1763
 8761TIP3    H226248   0.015   4.431   1.336 -0.6295  2.5856 -0.2310
 8762TIP3   OH226249   2.342   6.292   1.564  0.0906 -0.9246  0.1943
 8762TIP3    H126250   2.437   6.288   1.570  0.1191 -1.1236 -0.3362
 8762TIP3    H226251   2.319   6.379   1.597  0.3811 -1.2001  1.1689
 8763TIP3   OH226252   7.022   1.794   4.813  0.3058 -0.2826  0.0499
 8763TIP3    H126253   7.087   1.849   4.858 -0.6475  0.1805  0.8794
 8763TIP3    H226254   7.052   1.705   4.828  1.3891 -0.0426 -0.5689
 8764TIP3   OH226255   0.643   3.668   2.322 -0.0528 -0.3002  0.5640
 8764TIP3    H126256   0.626   3.574   2.312 -1.6568  0.1583 -2.0224
 8764TIP3    H226257   0.562   3.703   2.359 -0.3341  0.3395 -0.6245
 8765TIP3   OH226258   5.517   3.757   0.960  0.2970 -0.1093 -0.5382
 8765TIP3    H126259   5.594   3.798   0.921  0.0929  1.3031  0.4813
 8765TIP3    H226260   5.519   3.784   1.052  0.2572 -2.5791  0.2852
 8766TIP3   OH226261   3.742   4.848   2.865  0.2645 -0.1002  0.3895
 8766TIP3    H126262   3.744   4.895   2.782 -0.4882 -0.0797  0.3809
 8766TIP3    H226263   3.654   4.812   2.871  0.5536 -0.7628  0.8170
 8767TIP3   OH226264   6.352   2.859   0.703 -0.1860  0.0445 -0.2677
 8767TIP3    H126265   6.399   2.793   0.753  0.6356  1.2668  0.6230
 8767TIP3    H226266   6.317   2.919   0.769 -1.2006  0.3361 -1.0354
 8768TIP3   OH226267   3.060   1.141   4.546  0.8224 -0.0709 -0.1178
 8768TIP3    H126268   3.023   1.199   4.612 -2.1992 -1.0612 -0.7908
 8768TIP3    H226269   3.056   1.190   4.464 -0.5105 -0.7069 -0.4580
 8769TIP3   OH226270   5.152   0.295   4.552  0.7173  0.1295  0.2498
 8769TIP3    H126271   5.116   0.382   4.571  1.0865  0.0762  1.2233
 8769TIP3    H226272   5.092   0.259   4.487 -0.2099  0.5845  0.8269
 8770TIP3   OH226273   5.944   0.713   3.858  0.3093 -0.4759 -0.2961
 8770TIP3    H126274   6.021   0.664   3.886 -0.2416 -0.0833  2.1196
 8770TIP3    H226275   5.962   0.803   3.885  0.0614  0.1311 -2.0348
 8771TIP3   OH226276   6.659   3.593   5.209 -0.1055  0.0934 -0.2579
 8771TIP3    H126277   6.628   3.529   5.145 -0.6782  0.1205 -0.0180
 8771TIP3    H226278   6.618   3.567   5.291 -1.4786  1.5377 -0.4262
 8772TIP3   OH226279   0.154   2.973   1.966 -0.0639  0.1356  0.0198
 8772TIP3    H126280   0.076   3.023   1.990 -0.1389 -0.4769  1.1368
 8772TIP3    H226281   0.226   3.019   2.010 -0.1135 -0.6250  0.9201
 8773TIP3   OH226282   0.499   2.198   0.983 -0.1340  0.6936 -0.3403
 8773TIP3    H126283   0.587   2.211   0.948  0.0840  0.1068 -0.0299
 8773TIP3    H226284   0.486   2.270   1.044  0.3661  0.4452  0.0618
 8774TIP3   OH226285   2.312   4.522   5.352 -0.2715 -0.4511  0.2729
 8774TIP3    H126286   2.310   4.597   5.293  1.3815 -0.4858  0.1239
 8774TIP3    H226287   2.235   4.470   5.328  0.1140 -0.2411 -1.5539
 8775TIP3   OH226288   5.237   2.768   3.392  0.2786 -0.1198 -0.2648
 8775TIP3    H126289   5.271   2.794   3.306  0.1043  0.8033 -0.0649
 8775TIP3    H226290   5.262   2.840   3.450  0.1296 -0.5966  0.3986
 8776TIP3   OH226291   4.621   0.607   1.190 -0.2463 -0.1511 -0.6698
 8776TIP3    H126292   4.530   0.615   1.216  0.1468 -0.2409  0.8372
 8776TIP3    H226293   4.641   0.514   1.202  1.0664  0.4115  2.9476
 8777TIP3   OH226294   6.867   2.384   2.348  0.4391  0.4026  0.1289
 8777TIP3    H126295   6.933   2.381   2.278  2.4604 -0.7353  1.9484
 8777TIP3    H226296   6.912   2.429   2.420 -1.2861  0.7917  1.0013
 8778TIP3   OH226297   5.861   6.330   2.390 -0.1722 -0.8880  0.2933
 8778TIP3    H126298   5.848   6.358   2.480 -1.9921  0.4744 -0.3321
 8778TIP3    H226299   5.773   6.330   2.352  0.5958 -1.0074 -1.6095
 8779TIP3   OH226300   1.474   2.665   1.572 -0.4118 -0.6493 -0.5202
 8779TIP3    H126301   1.499   2.703   1.488 -0.6774 -0.0650 -0.3400
 8779TIP3    H226302   1.378   2.670   1.573 -0.4184 -0.8067 -0.2509
 8780TIP3   OH226303   5.178   6.585   0.166  0.0201  0.6474  0.1649
 8780TIP3    H126304   5.164   6.679   0.181 -0.9643  0.3292  1.3874
 8780TIP3    H226305   5.106   6.542   0.213  1.0950 -0.7775  0.5766
 8781TIP3   OH226306   3.587   0.265   4.184 -0.0064 -0.7225 -0.3887
 8781TIP3    H126307   3.588   0.360   4.175 -0.5368 -0.2133  3.4683
 8781TIP3    H226308   3.505   0.237   4.142 -1.1666  0.8689  0.7305
 8782TIP3   OH226309   6.277   0.839   5.225 -0.0646 -0.7541 -0.5388
 8782TIP3    H126310   6.272   0.744   5.239 -1.0070 -0.3041  3.0231
 8782TIP3    H226311   6.187   0.869   5.227  0.1821  0.2658 -2.1376
 8783TIP3   OH226312   3.787   5.018   0.552 -0.3909  0.4214  0.2472
 8783TIP3    H126313   3.851   5.078   0.590  0.4218 -0.2397 -0.0418
 8783TIP3    H226314   3.782   5.044   0.460 -1.5055  1.2825  0.5194
 8784TIP3   OH226315   0.867   0.471   3.355  0.3947  0.1697  0.0574
 8784TIP3    H126316   0.851   0.563   3.374  0.1241  0.0636  0.3406
 8784TIP3    H226317   0.900   0.471   3.265 -0.1302  0.4946 -0.1401
 8785TIP3   OH226318   3.885   4.020   3.760  0.0537 -0.5690  0.0423
 8785TIP3    H126319   3.792   4.010   3.783 -0.0138  0.1581  0.0948
 8785TIP3    H226320   3.932   3.982   3.834 -0.1978 -2.8485 -0.8845
 8786TIP3   OH226321   6.521   2.940   5.383 -0.6505 -0.3051  0.1954
 8786TIP3    H126322   6.552   3.026   5.352  0.1397  0.3360  2.5315
 8786TIP3    H226323   6.429   2.954   5.403 -0.2783  0.3533  1.5713
 8787TIP3   OH226324   5.709   3.171   5.554 -0.3409 -0.6864  0.9138
 8787TIP3    H126325   5.639   3.106   5.560 -1.5340  0.5124  0.3669
 8787TIP3    H226326   5.693   3.229   5.628  1.2867 -1.5025  1.9718
 8788TIP3   OH226327   6.418   4.051   0.734  0.3384 -0.1958  0.1493
 8788TIP3    H126328   6.344   4.009   0.692  0.5878 -0.2552 -0.2316
 8788TIP3    H226329   6.387   4.073   0.822  0.0278 -0.6557  0.1527
 8789TIP3   OH226330   1.132   5.618   5.670 -0.0285 -0.5184 -0.1080
 8789TIP3    H126331   1.228   5.618   5.675  0.1081 -1.2126 -1.9142
 8789TIP3    H226332   1.104   5.573   5.750  1.1612 -0.5949  0.2868
 8790TIP3   OH226333   1.636   0.622   0.374 -0.1017  0.1775 -0.2821
 8790TIP3    H126334   1.615   0.715   0.362  0.0434  0.3699  0.8662
 8790TIP3    H226335   1.552   0.577   0.367 -0.1882  0.4007 -0.7256
 8791TIP3   OH226336   4.813   3.109   5.236 -0.4232 -0.4090 -0.1281
 8791TIP3    H126337   4.765   3.084   5.315 -0.0509  1.8570  0.8833
 8791TIP3    H226338   4.747   3.107   5.166 -1.1949 -0.5936  0.5880
 8792TIP3   OH226339   3.940   4.506   3.531  0.4140 -0.0606 -0.0239
 8792TIP3    H126340   3.864   4.527   3.585  0.4008  0.1059 -0.1082
 8792TIP3    H226341   3.950   4.411   3.540  1.1028  0.0931  1.1892
 8793TIP3   OH226342   1.176   4.092   0.984 -0.4944 -0.2415 -0.2422
 8793TIP3    H126343   1.239   4.021   0.999  0.2254  0.7702  1.9069
 8793TIP3    H226344   1.106   4.051   0.933  0.5963 -2.1116 -0.3373
 8794TIP3   OH226345   0.460   2.049   4.175 -0.1287 -0.1078  0.0775
 8794TIP3    H126346   0.495   2.010   4.254 -0.0158  0.1910  0.1786
 8794TIP3    H226347   0.392   1.988   4.145 -0.8165  0.2244  0.9160
 8795TIP3   OH226348   4.992   6.361   3.889  0.0816  0.3038  0.5752
 8795TIP3    H126349   5.036   6.277   3.885  0.1911  0.3926 -0.3532
 8795TIP3    H226350   5.027   6.411   3.815 -2.8202 -0.2676 -1.3782
 8796TIP3   OH226351   5.628   5.387   1.508  0.0928 -0.1086  0.5712
 8796TIP3    H126352   5.660   5.341   1.586  0.5904 -3.3629 -1.3580
 8796TIP3    H226353   5.701   5.382   1.446 -1.5749 -1.1804 -1.4376
 8797TIP3   OH226354   2.390   4.583   2.702  0.2950 -0.6253 -0.0844
 8797TIP3    H126355   2.309   4.631   2.686  1.8973  1.8207 -1.5230
 8797TIP3    H226356   2.430   4.627   2.777  0.1764 -2.0192  0.8251
 8798TIP3   OH226357   5.802   3.839   1.840 -0.2550 -0.1369 -0.1886
 8798TIP3    H126358   5.824   3.931   1.851  0.3967 -0.3571  0.3883
 8798TIP3    H226359   5.789   3.806   1.929 -0.5712 -0.5812 -0.3956
 8799TIP3   OH226360   7.111   2.883   0.169  0.2736  0.8673  0.2522
 8799TIP3    H126361   7.149   2.873   0.082  0.8432  0.2964  0.5543
 8799TIP3    H226362   7.019   2.856   0.159  0.9848 -1.9748  0.3593
 8800TIP3   OH226363   7.161   2.061   2.782  0.0920  0.1270  0.4914
 8800TIP3    H126364   7.073   2.075   2.747  0.2111  2.0419  0.8830
 8800TIP3    H226365   7.219   2.112   2.724  0.7684  0.0583  1.0930
 8801TIP3   OH226366   4.553   0.160   0.150 -0.2363  0.1090  0.2822
 8801TIP3    H126367   4.585   0.087   0.096  1.6963  0.6745  0.5802
 8801TIP3    H226368   4.566   0.237   0.096  2.2987  0.7622  1.6382
 8802TIP3   OH226369   3.901   5.997   0.393  0.3730  0.4247 -0.0604
 8802TIP3    H126370   3.808   5.974   0.389  0.5754 -0.2712 -1.0961
 8802TIP3    H226371   3.938   5.965   0.311  2.0746 -1.8043  1.4306
 8803TIP3   OH226372   6.692   2.783   5.755  0.2307 -0.0342 -0.3181
 8803TIP3    H126373   6.740   2.708   5.790 -0.3295  0.4203  1.5361
 8803TIP3    H226374   6.604   2.749   5.736 -0.3108  0.3138  1.4071
 8804TIP3   OH226375   4.128   3.256   4.013  0.5148 -0.1840  1.3168
 8804TIP3    H126376   4.050   3.255   3.957  1.4278  1.5537 -0.0982
 8804TIP3    H226377   4.199   3.230   3.956  1.0942 -1.1342  2.4303
 8805TIP3   OH226378   0.511   1.551   5.531  0.0070  0.1436 -0.2465
 8805TIP3    H126379   0.599   1.513   5.522 -0.7172 -1.2300 -2.4261
 8805TIP3    H226380   0.452   1.475   5.530 -1.2666  1.1075 -0.0357
 8806TIP3   OH226381   2.387   0.330   2.038 -0.2366  0.5417 -0.0348
 8806TIP3    H126382   2.416   0.264   1.975  1.6487  1.4004 -0.1308
 8806TIP3    H226383   2.295   0.309   2.055 -0.3012 -0.7309 -1.7603
 8807TIP3   OH226384   2.102   6.166   5.859 -0.5244  0.0078  0.3518
 8807TIP3    H126385   2.052   6.243   5.832 -0.7160 -0.0249  0.6118
 8807TIP3    H226386   2.144   6.135   5.778  1.1899  1.5518  0.5927
 8808TIP3   OH226387   6.428   1.572   4.379 -0.1335 -0.5441 -0.0510
 8808TIP3    H126388   6.443   1.489   4.334 -0.1726  0.2261 -1.5153
 8808TIP3    H226389   6.514   1.594   4.416  0.2399 -0.5178 -0.9144
 8809TIP3   OH226390   2.394   5.397   1.573  0.0099  0.5201 -0.4229
 8809TIP3    H126391   2.406   5.307   1.544 -1.2302  0.1571  0.1009
 8809TIP3    H226392   2.299   5.409   1.575  0.0728  1.1174  1.5952
 8810TIP3   OH226393   5.263   4.204   3.526 -0.0692 -0.2193  0.0832
 8810TIP3    H126394   5.324   4.182   3.596  1.0701 -1.5253 -1.2402
 8810TIP3    H226395   5.215   4.123   3.510  0.4342 -0.2515 -1.3475
 8811TIP3   OH226396   2.104   4.185   2.918 -0.0141 -0.2467  0.1295
 8811TIP3    H126397   2.158   4.241   2.862  0.3683  0.4365  1.1552
 8811TIP3    H226398   2.157   4.169   2.995 -1.1325  0.1894  1.0299
 8812TIP3   OH226399   5.970   2.103   2.225 -0.2680 -0.5865 -0.1508
 8812TIP3    H126400   6.016   2.157   2.161  0.3937  0.2531  1.0084
 8812TIP3    H226401   5.953   2.021   2.179  1.5468 -0.5680 -0.9253
 8813TIP3   OH226402   4.115   5.680   0.772 -0.0582 -0.5748  0.0695
 8813TIP3    H126403   4.129   5.771   0.798 -0.9306 -0.7108  1.0735
 8813TIP3    H226404   4.140   5.677   0.680  1.4164  0.3350  0.4103
 8814TIP3   OH226405   2.707   4.326   4.530 -0.4834 -0.2410  0.0738
 8814TIP3    H126406   2.724   4.405   4.582  1.5164 -0.6561  0.1095
 8814TIP3    H226407   2.751   4.256   4.577 -1.5406 -1.2576 -0.4021
 8815TIP3   OH226408   0.949   3.466   1.179 -0.8745  0.0179 -0.1207
 8815TIP3    H126409   0.980   3.523   1.249 -0.8963  0.6881 -0.6556
 8815TIP3    H226410   1.028   3.422   1.147 -0.9723 -0.8970  0.8538
 8816TIP3   OH226411   4.269   0.301   4.662  0.1493 -0.3328 -0.3589
 8816TIP3    H126412   4.177   0.310   4.684 -0.1094  0.2604 -1.5754
 8816TIP3    H226413   4.296   0.217   4.699  0.3332  1.3812  3.9873
 8817TIP3   OH226414   5.143   3.999   0.468 -0.0621  0.2370 -0.5517
 8817TIP3    H126415   5.143   3.908   0.498 -1.7779 -0.0242 -1.2505
 8817TIP3    H226416   5.117   4.049   0.545  0.5852  0.1198 -0.2488
 8818TIP3   OH226417   4.305   5.676   3.581 -0.0712  0.0028  0.4983
 8818TIP3    H126418   4.394   5.660   3.552 -0.5009 -2.0682  0.2020
 8818TIP3    H226419   4.254   5.683   3.500 -0.3171  0.3972  0.6813
 8819TIP3   OH226420   2.181   1.420   0.406  0.2533 -0.1595  0.2628
 8819TIP3    H126421   2.160   1.504   0.365  0.0718 -0.3298  0.0031
 8819TIP3    H226422   2.191   1.359   0.333 -0.4901 -0.5613  0.4797
 8820TIP3   OH226423   2.739   2.799   3.341 -0.4984  0.2886 -0.1019
 8820TIP3    H126424   2.686   2.816   3.263  0.9786  0.7573 -1.0479
 8820TIP3    H226425   2.801   2.732   3.313  1.3748  1.8820 -0.0175
 8821TIP3   OH226426   4.801   3.744   0.962  0.0831 -0.6494  0.1224
 8821TIP3    H126427   4.711   3.770   0.982  0.3620  1.2432 -0.8352
 8821TIP3    H226428   4.855   3.800   1.018  0.7547  1.9814 -2.8846
 8822TIP3   OH226429   2.771   6.111   4.222  0.4523 -0.1026  0.1023
 8822TIP3    H126430   2.844   6.168   4.244  0.3007  0.2502 -0.2854
 8822TIP3    H226431   2.773   6.105   4.126  0.1724 -0.3554  0.1088
 8823TIP3   OH226432   0.391   5.946   4.076 -0.4221  0.4074  0.3463
 8823TIP3    H126433   0.393   5.851   4.090 -1.0576 -0.2624 -3.1397
 8823TIP3    H226434   0.474   5.965   4.031 -1.0454  1.1637 -0.5147
 8824TIP3   OH226435   5.986   0.634   0.641 -0.2342 -0.1449 -0.0143
 8824TIP3    H126436   5.980   0.539   0.626  0.5332 -0.3009  0.6553
 8824TIP3    H226437   5.957   0.646   0.731  0.8926  0.1086  0.3231
 8825TIP3   OH226438   5.149   6.145   3.875 -0.3396 -0.7798 -0.0344
 8825TIP3    H126439   5.237   6.179   3.888 -1.0777  1.0244  0.5722
 8825TIP3    H226440   5.154   6.094   3.794  1.2401 -0.7161  0.0076
 8826TIP3   OH226441   3.833   1.288   0.466  0.5859 -0.0875  0.0969
 8826TIP3    H126442   3.781   1.209   0.451 -0.2023  0.4974 -0.3616
 8826TIP3    H226443   3.898   1.263   0.531  0.6828 -1.2579 -0.4319
 8827TIP3   OH226444   3.324   0.614   3.908  0.4246  0.4299 -0.3083
 8827TIP3    H126445   3.352   0.523   3.907 -2.9075 -0.7584  0.3535
 8827TIP3    H226446   3.314   0.636   4.001  3.4930  2.3981 -0.3054
 8828TIP3   OH226447   6.869   5.811   5.749 -0.1318  0.1606 -0.0392
 8828TIP3    H126448   6.875   5.719   5.775 -0.6371 -0.5492 -2.2143
 8828TIP3    H226449   6.940   5.854   5.795 -0.9519 -0.9406  2.4202
 8829TIP3   OH226450   2.761   3.936   1.690  0.3753 -0.6700  0.3538
 8829TIP3    H126451   2.691   3.999   1.704 -0.4192 -1.4486 -0.0245
 8829TIP3    H226452   2.797   3.919   1.777 -1.0345 -1.5246  0.7991
 8830TIP3   OH226453   0.562   4.219   2.223 -0.1925 -0.3611  0.0467
 8830TIP3    H126454   0.604   4.136   2.244  0.9798  0.3488  0.5871
 8830TIP3    H226455   0.468   4.199   2.224  0.0532 -1.5742  0.5854
 8831TIP3   OH226456   2.805   2.823   5.077  0.3948  0.5456  0.5345
 8831TIP3    H126457   2.754   2.894   5.039  1.4482  0.6798 -0.6871
 8831TIP3    H226458   2.783   2.746   5.024 -0.4681  0.0138  1.6212
 8832TIP3   OH226459   7.038   4.124   4.214 -0.5909 -0.5669  0.2838
 8832TIP3    H126460   6.993   4.041   4.196 -0.8193 -0.3803 -0.0348
 8832TIP3    H226461   7.052   4.162   4.127  1.5862 -1.3307  0.2434
 8833TIP3   OH226462   5.704   2.293   0.561 -0.5925 -0.0594  0.4133
 8833TIP3    H126463   5.755   2.228   0.514 -0.2979  0.4221  0.0534
 8833TIP3    H226464   5.701   2.369   0.502 -2.1543 -0.2458  0.1952
 8834TIP3   OH226465   6.320   1.947   1.231  0.4121  0.0292 -0.0369
 8834TIP3    H126466   6.310   2.037   1.262  1.0713 -0.3215  1.2916
 8834TIP3    H226467   6.351   1.899   1.308 -2.3615 -1.8654  0.0655
 8835TIP3   OH226468   6.752   1.858   4.877 -0.2811  0.6020 -0.3340
 8835TIP3    H126469   6.844   1.841   4.855 -0.3239  0.6357 -0.5442
 8835TIP3    H226470   6.721   1.776   4.916 -0.6379 -0.0059 -1.8364
 8836TIP3   OH226471   5.814   5.509   3.482  0.3295 -0.5080 -0.5801
 8836TIP3    H126472   5.760   5.587   3.496 -0.7264 -1.2118 -0.6316
 8836TIP3    H226473   5.904   5.542   3.484 -0.0042  0.4295  1.2023
 8837TIP3   OH226474   0.661   5.673   3.704  0.1880  0.6946  0.2965
 8837TIP3    H126475   0.653   5.633   3.617 -2.1226  2.1030 -0.2064
 8837TIP3    H226476   0.700   5.604   3.758  0.4324 -0.6792 -1.5128
 8838TIP3   OH226477   2.058   3.497   5.203  0.3248  0.2894 -0.4222
 8838TIP3    H126478   2.113   3.420   5.187 -1.1976 -1.5794  2.3763
 8838TIP3    H226479   2.112   3.554   5.257  0.3107 -0.5492  0.5151
 8839TIP3   OH226480   1.702   1.749   5.277  0.3699  0.0338 -0.8385
 8839TIP3    H126481   1.754   1.719   5.203 -1.8733 -0.9497 -2.1290
 8839TIP3    H226482   1.614   1.762   5.241 -0.0056  3.1978  0.8493
 8840TIP3   OH226483   5.558   0.044   5.439 -0.1177 -0.0154 -0.4292
 8840TIP3    H126484   5.473   0.050   5.482  0.2474 -0.7831  0.4406
 8840TIP3    H226485   5.539  -0.001   5.356 -0.7365  0.9624 -0.8386
 8841TIP3   OH226486   3.383   6.064   0.199 -0.4820 -0.7542 -0.2786
 8841TIP3    H126487   3.326   5.999   0.240 -1.1571  0.2058  0.3360
 8841TIP3    H226488   3.403   6.126   0.269 -1.8537  1.0507 -1.3963
 8842TIP3   OH226489   5.664   1.872   3.977 -0.0795  0.1216 -0.1485
 8842TIP3    H126490   5.752   1.903   3.959  0.9104 -2.0367  0.6603
 8842TIP3    H226491   5.653   1.885   4.071  0.2340 -1.5384  0.1499
 8843TIP3   OH226492   1.745   5.012   4.624 -0.1871 -0.3181 -0.4389
 8843TIP3    H126493   1.746   4.941   4.688  0.7626 -0.6159 -0.7753
 8843TIP3    H226494   1.755   5.091   4.677 -4.0281 -0.1076  0.2591
 8844TIP3   OH226495   2.416   4.786   1.375  0.2723 -0.2499 -0.8138
 8844TIP3    H126496   2.417   4.865   1.430  0.0361 -0.4845 -0.4619
 8844TIP3    H226497   2.327   4.781   1.341 -0.0422 -0.9566  0.0592
 8845TIP3   OH226498   3.991   6.350   0.224 -0.0481 -0.5821 -0.4264
 8845TIP3    H126499   4.059   6.415   0.241  0.4896 -1.3985  0.6882
 8845TIP3    H226500   4.003   6.285   0.293  0.6304 -2.8378 -2.5015
 8846TIP3   OH226501   0.218   0.266   5.807  1.0981 -0.0879  0.8725
 8846TIP3    H126502   0.302   0.302   5.835  0.2662  1.2768  1.7137
 8846TIP3    H226503   0.234   0.171   5.801  3.1565  0.2873 -0.7404
 8847TIP3   OH226504   0.040   1.606   5.571 -0.0907 -0.0057 -0.1870
 8847TIP3    H126505   0.099   1.682   5.570  0.3215 -0.3094  0.4178
 8847TIP3    H226506   0.080   1.544   5.510 -0.0654 -0.0054 -0.1704
 8848TIP3   OH226507   7.206   2.573   1.071  0.2548  0.4591  0.6756
 8848TIP3    H126508   7.228   2.664   1.052  0.7278 -0.1522 -2.0736
 8848TIP3    H226509   7.175   2.538   0.987 -0.2890 -1.8199  1.7586
 8849TIP3   OH226510   1.625   6.312   2.649 -0.3544  0.3256 -0.3673
 8849TIP3    H126511   1.572   6.233   2.641 -0.6822  0.5331 -0.2683
 8849TIP3    H226512   1.593   6.355   2.728 -0.3986  0.7212 -0.5958
 8850TIP3   OH226513   5.258   1.848   3.701  0.0243  0.0780 -0.0561
 8850TIP3    H126514   5.170   1.839   3.737 -0.2374 -1.1056 -0.9231
 8850TIP3    H226515   5.284   1.759   3.679  0.7148  0.6032 -1.5057
 8851TIP3   OH226516   4.923   0.399   2.889 -0.4847  0.6293  0.2362
 8851TIP3    H126517   4.944   0.395   2.982  1.0261 -0.8555 -0.1073
 8851TIP3    H226518   4.888   0.312   2.868 -0.8480  0.9560 -0.5638
 8852TIP3   OH226519   2.029   3.416   0.239 -0.3143  0.8272 -0.1337
 8852TIP3    H126520   1.957   3.477   0.225  0.0125  1.0889 -0.7059
 8852TIP3    H226521   2.026   3.395   0.332 -0.9720  1.0310 -0.1082
 8853TIP3   OH226522   3.946   0.790   1.778  0.1629 -0.1230  0.6416
 8853TIP3    H126523   3.947   0.885   1.772  2.7615 -0.0346  1.1240
 8853TIP3    H226524   3.978   0.760   1.693 -0.6428 -0.5996  0.4925
 8854TIP3   OH226525   0.362   2.450   5.479  0.5186 -0.2375  0.0297
 8854TIP3    H126526   0.400   2.411   5.400  0.3817  0.1760 -0.2459
 8854TIP3    H226527   0.271   2.420   5.479  0.7013 -0.8081  0.4123
 8855TIP3   OH226528   2.453   3.998   0.943 -0.5193  0.0773 -0.1160
 8855TIP3    H126529   2.481   4.004   0.851  0.5574  1.8896  0.2955
 8855TIP3    H226530   2.477   3.909   0.969  0.2541 -0.0732 -1.2488
 8856TIP3   OH226531   0.223   5.394   3.853 -0.3312 -0.4214  0.1439
 8856TIP3    H126532   0.223   5.305   3.816  0.4637 -0.0061 -0.8943
 8856TIP3    H226533   0.315   5.412   3.873  0.4691  1.9234 -4.2127
 8857TIP3   OH226534   6.140   2.283   0.329  0.1469  0.6378 -0.1541
 8857TIP3    H126535   6.173   2.285   0.419 -1.6248 -1.4002  0.6619
 8857TIP3    H226536   6.155   2.192   0.301 -1.5633  0.5600 -0.9482
 8858TIP3   OH226537   7.116   1.917   5.423  0.4026 -0.1891 -0.7159
 8858TIP3    H126538   7.088   2.008   5.430  1.1342 -0.0190  0.1945
 8858TIP3    H226539   7.189   1.909   5.486  0.5714 -1.3070 -1.0286
 8859TIP3   OH226540   3.529   2.132   2.012  0.0935 -0.2547 -0.0497
 8859TIP3    H126541   3.491   2.205   1.965 -2.1583 -0.3330  1.4693
 8859TIP3    H226542   3.564   2.075   1.944 -0.1356  1.1410 -1.3884
 8860TIP3   OH226543   4.102   5.352   4.575 -0.2288  0.4314 -0.0927
 8860TIP3    H126544   4.150   5.381   4.497 -0.7467 -1.1865 -1.0709
 8860TIP3    H226545   4.012   5.339   4.544 -0.3932 -0.4636  0.7056
 8861TIP3   OH226546   1.646   3.211   1.348  0.1599 -0.1211 -0.1290
 8861TIP3    H126547   1.673   3.209   1.256  1.3845 -0.6145  0.2166
 8861TIP3    H226548   1.707   3.151   1.391 -3.2706 -3.6551  0.2846
 8862TIP3   OH226549   2.823   3.727   2.516 -0.4891  0.3095 -0.0019
 8862TIP3    H126550   2.786   3.651   2.560  0.6049  0.4837  1.2879
 8862TIP3    H226551   2.884   3.690   2.452 -0.7135  0.0880 -0.0903
 8863TIP3   OH226552   6.737   5.105   4.540 -0.3711  0.5406  0.1697
 8863TIP3    H126553   6.652   5.062   4.550  0.7138 -1.4557  1.2916
 8863TIP3    H226554   6.764   5.086   4.450  0.5175 -2.0834  0.9182
 8864TIP3   OH226555   5.144   2.767   0.594 -0.3240  0.2366 -0.5112
 8864TIP3    H126556   5.087   2.799   0.525 -1.6751  2.5273  1.4912
 8864TIP3    H226557   5.110   2.680   0.616 -1.6849  0.6737 -0.8158
 8865TIP3   OH226558   2.937   1.244   4.780 -0.0630 -0.2467 -0.5066
 8865TIP3    H126559   2.844   1.221   4.780 -0.2335  0.3917  0.4902
 8865TIP3    H226560   2.938   1.339   4.781  0.5833 -0.2527  0.4036
 8866TIP3   OH226561   2.333   4.329   0.143 -0.2879 -0.3908  0.1188
 8866TIP3    H126562   2.372   4.413   0.169  0.6618 -0.4425 -1.0433
 8866TIP3    H226563   2.321   4.337   0.048 -0.3324 -1.5168  0.0166
 8867TIP3   OH226564   3.022   5.135   5.388 -0.0813 -0.2517  0.3447
 8867TIP3    H126565   3.063   5.144   5.302 -0.8013  1.3149  0.1282
 8867TIP3    H226566   3.091   5.159   5.450  0.1881 -0.5402  0.1585
 8868TIP3   OH226567  -0.019   3.675   4.958  0.4311 -0.4442 -0.5411
 8868TIP3    H126568  -0.056   3.637   5.037  0.6948 -0.4976 -0.4454
 8868TIP3    H226569   0.075   3.658   4.963  0.3421 -1.2672 -1.3089
 8869TIP3   OH226570   5.972   5.207   5.594 -0.6359 -0.5302  0.0052
 8869TIP3    H126571   5.901   5.194   5.657  0.0097 -1.4842  0.5582
 8869TIP3    H226572   5.986   5.121   5.555  0.3023 -0.3806 -0.0033
 8870TIP3   OH226573   2.776   4.648   2.410 -0.0902 -0.8329  0.3084
 8870TIP3    H126574   2.808   4.615   2.494 -1.1639 -1.1208  0.6139
 8870TIP3    H226575   2.809   4.738   2.406  0.2214 -0.9147  0.9005
 8871TIP3   OH226576   0.509   4.670   3.748 -0.0488  0.1192  0.2298
 8871TIP3    H126577   0.537   4.581   3.768 -1.6405  0.2028  3.4017
 8871TIP3    H226578   0.414   4.664   3.741 -0.0762  1.3780 -0.9131
 8872TIP3   OH226579   1.759   1.492   3.673  0.0372 -0.2467 -0.1285
 8872TIP3    H126580   1.798   1.413   3.636 -1.3240 -0.2718 -1.6034
 8872TIP3    H226581   1.703   1.460   3.744  0.5138 -0.4581  0.1621
 8873TIP3   OH226582   1.600   5.856   3.844 -0.4154  0.1401  0.3126
 8873TIP3    H126583   1.628   5.764   3.838 -0.2263  0.0577  1.9274
 8873TIP3    H226584   1.669   5.899   3.894 -2.1261  0.3337  2.7331
 8874TIP3   OH226585   6.699   5.469   2.041  0.5319 -0.2878 -0.5260
 8874TIP3    H126586   6.783   5.427   2.024  0.6999 -0.0884 -0.1800
 8874TIP3    H226587   6.665   5.490   1.954  0.4866 -1.0572 -0.7057
 8875TIP3   OH226588   1.640   1.807   5.582  0.4082  0.5612 -0.8469
 8875TIP3    H126589   1.681   1.815   5.669 -0.0311 -0.2786 -0.5527
 8875TIP3    H226590   1.548   1.828   5.597  0.0955 -0.7347 -0.8732
 8876TIP3   OH226591   4.134   6.470   4.347 -0.3065  0.4271 -0.1856
 8876TIP3    H126592   4.099   6.382   4.356  0.6372  0.1901  1.4090
 8876TIP3    H226593   4.228   6.459   4.337 -0.1867  1.2464 -0.0969
 8877TIP3   OH226594   6.182   2.774   0.244 -0.2168 -0.1598 -0.1070
 8877TIP3    H126595   6.197   2.823   0.325 -1.2451 -0.0308  0.0168
 8877TIP3    H226596   6.270   2.756   0.210  0.2165  1.9668 -0.2765
 8878TIP3   OH226597   2.081   4.296   1.012 -0.0519 -0.3415 -0.0433
 8878TIP3    H126598   2.162   4.276   0.965  1.2333 -1.8905  2.5994
 8878TIP3    H226599   2.029   4.216   1.004  0.7160 -1.1159  2.0507
 8879TIP3   OH226600   2.401   6.281   0.736  0.4695  0.2694 -0.1873
 8879TIP3    H126601   2.345   6.270   0.659 -0.2434  1.9211  0.0295
 8879TIP3    H226602   2.470   6.342   0.707  0.4609  0.5392  0.3401
 8880TIP3   OH226603   4.562   6.090   5.307  0.4616 -0.1613  0.0085
 8880TIP3    H126604   4.511   6.017   5.342 -1.8924  0.9831 -0.8369
 8880TIP3    H226605   4.542   6.091   5.214  0.4125  1.5728  0.0113
 8881TIP3   OH226606   5.845   2.488   3.225 -0.0925  0.1454 -0.1614
 8881TIP3    H126607   5.833   2.454   3.136  0.8387 -0.7527  0.0428
 8881TIP3    H226608   5.765   2.537   3.242 -1.1324 -1.2530 -0.7786
 8882TIP3   OH226609   0.862   2.592   0.804  0.5501 -0.3098 -0.2518
 8882TIP3    H126610   0.768   2.591   0.822  0.2425  0.4618 -1.7158
 8882TIP3    H226611   0.899   2.529   0.866 -0.8133 -0.0258  0.9090
 8883TIP3   OH226612   5.148   0.944   3.283  0.4487 -0.1115 -0.0966
 8883TIP3    H126613   5.127   1.038   3.277 -1.6010 -0.3792  1.6430
 8883TIP3    H226614   5.153   0.915   3.192 -0.1929  1.4377 -0.6722
 8884TIP3   OH226615   2.149   5.971   1.996 -0.0423  0.0210  0.3688
 8884TIP3    H126616   2.065   6.007   1.967 -0.1337 -0.3086  0.2219
 8884TIP3    H226617   2.167   5.900   1.935 -0.2301 -0.6693  1.1008
 8885TIP3   OH226618   0.260   4.267   1.481  0.4951 -0.0861  0.3897
 8885TIP3    H126619   0.298   4.279   1.394  0.2100 -0.9644  0.1337
 8885TIP3    H226620   0.174   4.309   1.477  0.1087 -0.9060 -0.0378
 8886TIP3   OH226621   5.471   5.310   4.201  1.0127  0.0926 -0.3989
 8886TIP3    H126622   5.419   5.329   4.279 -1.0331  1.7486 -2.0368
 8886TIP3    H226623   5.441   5.225   4.172 -0.0091  0.5465 -0.7036
 8887TIP3   OH226624   4.441   3.850   5.328 -0.5178  0.3010 -0.6716
 8887TIP3    H126625   4.489   3.926   5.360 -1.6865  0.4146  1.0181
 8887TIP3    H226626   4.503   3.802   5.273  0.7931  1.5440 -0.3225
 8888TIP3   OH226627   3.108   3.508   0.346 -0.4516 -0.1409  0.1500
 8888TIP3    H126628   3.015   3.490   0.334 -0.4750  0.7833 -1.2775
 8888TIP3    H226629   3.146   3.424   0.371 -2.0333 -0.0434  3.3192
 8889TIP3   OH226630   3.898   4.706   1.049 -0.3547  0.2257  0.4043
 8889TIP3    H126631   3.916   4.794   1.016 -1.2462  0.1929 -0.2223
 8889TIP3    H226632   3.843   4.666   0.982  1.0679 -1.2741  0.0727
 8890TIP3   OH226633   5.959   2.817   1.915  0.4644 -0.1027  0.3262
 8890TIP3    H126634   6.008   2.786   1.839 -1.1263 -0.8995 -0.4060
 8890TIP3    H226635   5.929   2.738   1.959 -0.7708  0.3471  0.3456
 8891TIP3   OH226636   5.381   0.755   3.444  0.2120  0.2106 -0.2576
 8891TIP3    H126637   5.288   0.773   3.459 -0.2979 -1.2055 -1.5122
 8891TIP3    H226638   5.401   0.799   3.361  0.2646 -0.6740 -0.7295
 8892TIP3   OH226639   3.416   2.896   0.695 -0.1327 -0.4713  0.2480
 8892TIP3    H126640   3.443   2.954   0.624  1.1538 -0.6445  0.5781
 8892TIP3    H226641   3.351   2.946   0.744  0.0945  0.2253 -0.1593
 8893TIP3   OH226642   4.333   2.178   4.061  0.4298 -0.0504  0.4195
 8893TIP3    H126643   4.346   2.207   4.152  2.1228 -0.6349  0.3899
 8893TIP3    H226644   4.399   2.225   4.011 -1.5945  1.6327 -0.8768
 8894TIP3   OH226645   1.177   1.933   1.780  0.3077  0.7516  0.1305
 8894TIP3    H126646   1.211   2.019   1.757  1.0448 -0.1647 -2.6689
 8894TIP3    H226647   1.091   1.929   1.740 -0.2890  0.6142  1.3787
 8895TIP3   OH226648   4.125   5.339   1.209 -0.2690 -0.1127  0.3230
 8895TIP3    H126649   4.104   5.431   1.194 -0.3152  0.0612  1.4290
 8895TIP3    H226650   4.049   5.305   1.257 -0.4178 -0.8261 -0.3931
 8896TIP3   OH226651   2.679   1.774   3.255  0.0463 -0.5116 -0.9927
 8896TIP3    H126652   2.730   1.707   3.299  0.4954 -0.2792 -1.1595
 8896TIP3    H226653   2.606   1.726   3.214 -0.5278 -0.6971  0.2105
 8897TIP3   OH226654   2.749   0.749   0.762 -0.2227  0.5038  0.3921
 8897TIP3    H126655   2.770   0.661   0.793 -1.4228  0.0976  0.1112
 8897TIP3    H226656   2.698   0.788   0.832 -2.6828 -0.3074 -0.8256
 8898TIP3   OH226657   0.520   5.022   2.229  0.0270  0.0542  0.1334
 8898TIP3    H126658   0.609   5.056   2.235  0.4655  0.1107 -3.7521
 8898TIP3    H226659   0.464   5.100   2.234  0.4292  0.3744 -0.2378
 8899TIP3   OH226660   6.722   0.301   4.398 -0.2806  0.0939  0.0057
 8899TIP3    H126661   6.627   0.290   4.407 -0.1410 -0.7298  0.5264
 8899TIP3    H226662   6.741   0.384   4.442 -0.9611  1.0985 -1.4933
 8900TIP3   OH226663   6.244   1.656   1.493  0.1729 -0.0995 -0.3973
 8900TIP3    H126664   6.216   1.592   1.558 -1.6843  0.2798 -0.7880
 8900TIP3    H226665   6.225   1.741   1.533  1.5812  0.2177 -0.3432
 8901TIP3   OH226666   5.609   1.814   0.923 -0.0260 -0.1716 -0.4702
 8901TIP3    H126667   5.595   1.719   0.916 -1.7367 -0.1543  1.4453
 8901TIP3    H226668   5.540   1.853   0.869 -0.7882 -0.0625  0.5440
 8902TIP3   OH226669   5.115   3.378   1.061  0.1482  0.3130 -0.3345
 8902TIP3    H126670   5.056   3.388   1.136 -0.1972 -1.0854 -0.3881
 8902TIP3    H226671   5.173   3.453   1.066 -0.8609  1.0704  0.4402
 8903TIP3   OH226672   5.037   3.735   2.255  0.5987  0.2491  0.0049
 8903TIP3    H126673   5.104   3.802   2.256 -0.1493  1.0240  1.4943
 8903TIP3    H226674   4.954   3.783   2.256 -0.0458 -0.6655 -2.3882
 8904TIP3   OH226675   4.328   1.135   0.375 -0.6229 -0.2687  0.2439
 8904TIP3    H126676   4.384   1.189   0.432 -0.6531  0.5457 -0.4781
 8904TIP3    H226677   4.387   1.068   0.342 -0.0211  0.6525 -0.5987
 8905TIP3   OH226678   0.110   2.940   5.753 -0.2512  0.2779  0.1111
 8905TIP3    H126679   0.124   2.902   5.840 -3.2375 -0.5469  0.3273
 8905TIP3    H226680   0.158   2.881   5.694 -1.5343 -1.6062  0.8396
 8906TIP3   OH226681   5.609   1.639   2.789  0.0824  0.2129  0.3050
 8906TIP3    H126682   5.672   1.708   2.805  0.3170  0.1162 -0.1667
 8906TIP3    H226683   5.528   1.670   2.829  0.3374  0.4949  0.6042
 8907TIP3   OH226684   0.043   0.678   0.495  0.0608 -0.1656 -0.2317
 8907TIP3    H126685   0.057   0.768   0.524 -0.8952  0.2619 -1.0358
 8907TIP3    H226686   0.103   0.667   0.421 -1.5324  0.6646 -1.7280
 8908TIP3   OH226687   2.935   0.540   0.733  0.0783  0.2893  0.1533
 8908TIP3    H126688   2.999   0.488   0.782 -0.4239 -0.3419  0.1513
 8908TIP3    H226689   2.948   0.515   0.642 -0.6781 -0.4015  0.2336
 8909TIP3   OH226690   5.214   2.594   4.245 -0.3451  0.5336 -0.1038
 8909TIP3    H126691   5.266   2.588   4.325 -0.8352  1.9806  0.3565
 8909TIP3    H226692   5.231   2.512   4.199  0.2786 -0.1411  1.2728
 8910TIP3   OH226693   4.649   6.067   3.091 -0.3519  0.1098  0.6196
 8910TIP3    H126694   4.711   6.072   3.018  1.8605 -0.1707  2.3659
 8910TIP3    H226695   4.595   6.146   3.083  0.4028  0.5172 -0.8031
 8911TIP3   OH226696   5.394   4.000   4.709  0.2610  0.0967 -0.4633
 8911TIP3    H126697   5.423   4.000   4.617 -1.1234 -2.0489 -0.9749
 8911TIP3    H226698   5.401   3.908   4.736  0.8444  0.7075  1.6952
 8912TIP3   OH226699   6.589   5.494   3.357 -0.4799  0.3973 -0.0999
 8912TIP3    H126700   6.533   5.418   3.340 -1.2667  0.9848 -0.2181
 8912TIP3    H226701   6.595   5.538   3.272 -1.8630  1.6546  0.4160
 8913TIP3   OH226702   0.121   3.813   5.572  0.0829 -0.5968 -0.3847
 8913TIP3    H126703   0.059   3.805   5.644  1.3423  1.0505  0.9768
 8913TIP3    H226704   0.070   3.796   5.493 -1.5634 -1.4775  0.8282
 8914TIP3   OH226705   1.606   0.979   2.928  0.2186 -0.1301  0.1371
 8914TIP3    H126706   1.515   1.004   2.914  0.5420  1.2070  0.2961
 8914TIP3    H226707   1.616   0.976   3.024  0.8291  1.7971  0.1898
 8915TIP3   OH226708   5.842   5.822   2.759 -0.7441 -0.1837 -0.4614
 8915TIP3    H126709   5.750   5.834   2.782 -0.3528  1.0959  0.5157
 8915TIP3    H226710   5.877   5.910   2.755  0.6358 -0.6913 -0.0183
 8916TIP3   OH226711   3.717   0.520   4.897 -0.1933  0.0213  0.0753
 8916TIP3    H126712   3.633   0.559   4.876  0.7232  0.3537 -3.7371
 8916TIP3    H226713   3.710   0.430   4.866  0.0612 -0.8376  2.2783
 8917TIP3   OH226714   5.858   0.408   5.171 -0.1194  0.0009 -0.5716
 8917TIP3    H126715   5.884   0.468   5.241 -1.0065  1.0582 -1.0955
 8917TIP3    H226716   5.940   0.374   5.136  0.6215  2.6000 -1.6585
 8918TIP3   OH226717   4.237   3.124   2.266 -0.2284  0.3126 -0.4414
 8918TIP3    H126718   4.291   3.047   2.284 -0.6870  0.0381 -0.2176
 8918TIP3    H226719   4.287   3.173   2.201 -0.0633 -0.3148 -0.8007
 8919TIP3   OH226720   3.528   0.292   2.961  0.6822 -0.0747 -0.6819
 8919TIP3    H126721   3.438   0.261   2.952  0.4450  0.4217 -0.0793
 8919TIP3    H226722   3.548   0.333   2.876  0.0545  0.5213 -0.5525
 8920TIP3   OH226723   4.329   4.340   2.384 -0.2485 -0.8611  0.3785
 8920TIP3    H126724   4.310   4.370   2.295 -0.3626  1.1622  1.0289
 8920TIP3    H226725   4.260   4.379   2.438  0.5258 -1.0106  1.5235
 8921TIP3   OH226726   1.200   5.411   0.289 -0.1091  0.0096  0.3948
 8921TIP3    H126727   1.271   5.398   0.352  0.1098 -0.7178  0.0052
 8921TIP3    H226728   1.235   5.380   0.206 -0.5293  0.6124 -0.0219
 8922TIP3   OH226729   6.394   3.414   0.642  0.1183 -0.3476  0.5768
 8922TIP3    H126730   6.336   3.450   0.575  0.9456  0.4501  0.2626
 8922TIP3    H226731   6.355   3.444   0.725  0.1478  0.2960  0.3660
 8923TIP3   OH226732   4.828   1.228   1.153 -0.5881 -0.6757  0.1532
 8923TIP3    H126733   4.771   1.151   1.157  0.3144 -1.3157  3.3113
 8923TIP3    H226734   4.814   1.273   1.237 -0.2740  2.0724 -1.1381
 8924TIP3   OH226735   5.095   1.047   1.770 -0.3250 -0.1310 -0.2773
 8924TIP3    H126736   5.167   1.029   1.832 -0.6382  1.4944  0.6016
 8924TIP3    H226737   5.134   1.031   1.684  0.1657 -2.3132  0.2883
 8925TIP3   OH226738   5.013   2.091   0.754  0.1299  0.1076  0.3723
 8925TIP3    H126739   5.033   2.143   0.831  0.6134 -0.7262  0.8197
 8925TIP3    H226740   4.918   2.103   0.741  0.0234  0.1543  1.1660
 8926TIP3   OH226741   6.037   4.597   3.328  0.0401 -0.7653  0.3934
 8926TIP3    H126742   6.119   4.641   3.351  0.1747 -1.1318  0.6106
 8926TIP3    H226743   5.969   4.659   3.354  0.2749  0.7179 -2.1394
 8927TIP3   OH226744   6.541   4.690   0.718  0.3834  0.3757  0.9464
 8927TIP3    H126745   6.504   4.608   0.687 -0.4661  1.3115 -0.6497
 8927TIP3    H226746   6.630   4.691   0.684  0.5340 -0.0408  1.3120
 8928TIP3   OH226747   6.849   3.073   5.614  0.4957 -0.5030 -0.0172
 8928TIP3    H126748   6.873   2.981   5.614 -0.1163 -0.6776  1.1160
 8928TIP3    H226749   6.932   3.120   5.626  0.8189 -0.8864 -0.6915
 8929TIP3   OH226750   5.898   4.386   0.426  0.0428  0.3252 -0.1887
 8929TIP3    H126751   5.906   4.319   0.358 -1.6663 -0.3275  0.2246
 8929TIP3    H226752   5.968   4.366   0.488 -0.7635 -1.4177  0.2088
 8930TIP3   OH226753   1.947   1.140   4.391 -0.0684 -0.1858 -0.4866
 8930TIP3    H126754   1.869   1.123   4.338  0.3995 -0.8611 -0.9876
 8930TIP3    H226755   2.017   1.152   4.326  0.1248  1.0660 -0.0620
 8931TIP3   OH226756   4.570   0.906   0.316 -0.2682  0.4543 -0.3932
 8931TIP3    H126757   4.649   0.883   0.366 -0.1488  2.4199  0.4310
 8931TIP3    H226758   4.500   0.855   0.357  0.6686 -2.0777 -1.7687
 8932TIP3   OH226759   4.938   5.043   0.845 -0.2742 -0.1532 -0.1677
 8932TIP3    H126760   4.878   5.062   0.773 -1.0558 -0.6016  0.3547
 8932TIP3    H226761   4.945   5.126   0.892  0.0740  0.0851 -0.6223
 8933TIP3   OH226762   4.842   5.636   4.156 -0.0722  0.2675  0.1088
 8933TIP3    H126763   4.938   5.629   4.157 -0.1672 -1.4451 -0.3051
 8933TIP3    H226764   4.812   5.557   4.201 -1.3036  0.6805  0.0361
 8934TIP3   OH226765   1.005   6.588   0.346 -0.1259 -0.5560  0.7929
 8934TIP3    H126766   0.960   6.504   0.337  0.6384 -1.0919  1.7414
 8934TIP3    H226767   1.082   6.581   0.289 -0.4846 -0.1911  0.2616
 8935TIP3   OH226768   0.831   4.501   3.498  0.4302  0.3292  0.4693
 8935TIP3    H126769   0.761   4.492   3.563  0.2858  1.0852  0.4248
 8935TIP3    H226770   0.862   4.591   3.508  0.9435  0.2073  0.0297
 8936TIP3   OH226771   4.844   0.761   3.546  0.2092 -0.3123  0.7916
 8936TIP3    H126772   4.750   0.743   3.547  0.2474 -0.5193  0.6712
 8936TIP3    H226773   4.863   0.789   3.635  0.3545 -1.9737  1.3221
 8937TIP3   OH226774   6.099   1.269   0.429 -0.1231 -0.5078  0.2122
 8937TIP3    H126775   6.107   1.363   0.419 -0.4122 -0.4094  0.8363
 8937TIP3    H226776   6.185   1.239   0.457 -0.5285 -0.1419  1.9912
 8938TIP3   OH226777   1.339   1.506   2.111 -0.0538  0.5889  0.6244
 8938TIP3    H126778   1.427   1.542   2.099  0.7513 -1.7548 -1.5424
 8938TIP3    H226779   1.296   1.521   2.026 -0.7053 -0.8231  0.6801
 8939TIP3   OH226780   2.428   3.611   2.521  0.4733 -0.5539  0.1152
 8939TIP3    H126781   2.383   3.527   2.506  1.0140 -0.9105  0.4495
 8939TIP3    H226782   2.481   3.623   2.442 -0.1151 -0.1841 -0.2334
 8940TIP3   OH226783   0.716   0.782   2.471  0.2893 -0.1039 -0.6961
 8940TIP3    H126784   0.757   0.761   2.555 -0.6771  2.0092  0.3850
 8940TIP3    H226785   0.786   0.825   2.422  0.2649  0.6773 -0.0738
 8941TIP3   OH226786   5.058   2.710   4.539  0.1124  0.5052  0.0421
 8941TIP3    H126787   4.965   2.709   4.562 -0.0671  0.0672 -0.6675
 8941TIP3    H226788   5.097   2.774   4.599 -0.8439  1.5564 -0.4212
 8942TIP3   OH226789   0.616   0.150   1.170  0.2017 -0.3756 -0.0300
 8942TIP3    H126790   0.669   0.114   1.241 -0.8585  0.4969  1.2517
 8942TIP3    H226791   0.554   0.080   1.148 -0.3982 -0.1622  0.9150
 8943TIP3   OH226792   0.518   5.736   2.707  0.2569  0.3380 -0.3624
 8943TIP3    H126793   0.586   5.795   2.676  0.5934 -0.3314 -0.9124
 8943TIP3    H226794   0.487   5.690   2.629 -0.8915  0.6875 -0.1406
 8944TIP3   OH226795   4.701   3.743   4.975 -0.0526 -0.0276  0.3076
 8944TIP3    H126796   4.774   3.747   5.037 -0.5320 -0.4474  0.8993
 8944TIP3    H226797   4.695   3.651   4.950 -0.1776  0.0592  0.0131
 8945TIP3   OH226798   0.492   1.228   4.646  0.0357 -0.2884 -0.1233
 8945TIP3    H126799   0.531   1.187   4.570  1.4087  0.2104  0.2741
 8945TIP3    H226800   0.416   1.275   4.612  0.3873 -0.4132 -1.1128
 8946TIP3   OH226801   5.766   1.959   0.293 -0.3723 -0.3298  0.1554
 8946TIP3    H126802   5.819   1.962   0.373 -1.3725  1.0900  0.7999
 8946TIP3    H226803   5.738   2.049   0.279 -2.1230 -0.9270 -0.4905
 8947TIP3   OH226804   4.621   5.568   0.509 -0.1978  0.3708 -0.6995
 8947TIP3    H126805   4.688   5.531   0.566  0.2827  0.8382 -0.9566
 8947TIP3    H226806   4.654   5.655   0.486 -1.7590  1.3972  0.7053
 8948TIP3   OH226807   1.032   2.963   5.821 -0.3297  0.6036  0.2524
 8948TIP3    H126808   0.996   3.049   5.803 -1.7857  0.3533  1.7903
 8948TIP3    H226809   1.045   2.961   5.916 -1.5682 -1.2893  0.4481
 8949TIP3   OH226810   4.888   1.800   5.209 -0.7229  0.0305 -0.3709
 8949TIP3    H126811   4.923   1.797   5.119 -1.1962  0.3816 -0.5699
 8949TIP3    H226812   4.964   1.784   5.264 -0.2570  0.6977 -0.8025
 8950TIP3   OH226813   6.186   5.795   5.193 -0.5177 -0.1185  0.1689
 8950TIP3    H126814   6.096   5.818   5.215  0.0817  1.5457  1.0249
 8950TIP3    H226815   6.198   5.827   5.103 -0.9017 -0.7691 -0.1231
 8951TIP3   OH226816   1.736   3.415   4.021  0.0464 -0.0541 -0.9284
 8951TIP3    H126817   1.803   3.468   3.977  0.8113 -0.3392 -0.1423
 8951TIP3    H226818   1.783   3.336   4.048  0.1096  0.8620  1.9942
 8952TIP3   OH226819   3.638   6.285   0.989  0.2569  0.4873 -0.0298
 8952TIP3    H126820   3.697   6.271   1.063  0.4548  1.4300  0.0028
 8952TIP3    H226821   3.667   6.221   0.924  0.3310 -0.0868  0.5535
 8953TIP3   OH226822   3.503   0.348   1.205 -0.0640 -0.3306 -0.0446
 8953TIP3    H126823   3.576   0.287   1.195  0.4419 -0.2894  2.5337
 8953TIP3    H226824   3.483   0.344   1.299 -3.4895 -0.4379 -0.6709
 8954TIP3   OH226825   6.060   2.161   0.748  0.0119  0.2972  0.6578
 8954TIP3    H126826   6.066   2.244   0.699  1.2836  0.6130  1.2938
 8954TIP3    H226827   5.996   2.179   0.817  0.4275  0.8388  0.9161
 8955TIP3   OH226828   1.299   6.044  -0.008  0.1245 -0.2218 -0.1278
 8955TIP3    H126829   1.239   6.021   0.064  0.0687 -0.3332 -0.2092
 8955TIP3    H226830   1.349   6.118   0.025 -2.8670  2.6739 -1.5029
 8956TIP3   OH226831   2.165   3.126   5.547  0.3275 -0.5631 -0.1642
 8956TIP3    H126832   2.249   3.117   5.590  1.0412  0.2538 -1.3268
 8956TIP3    H226833   2.152   3.221   5.537  0.0912 -0.7062 -1.4861
 8957TIP3   OH226834   3.947   6.744   2.231  0.0182 -0.0884 -0.0290
 8957TIP3    H126835   4.019   6.681   2.224 -0.1037 -0.1867 -0.3945
 8957TIP3    H226836   3.871   6.698   2.194 -0.4851 -0.3803  1.2921
 8958TIP3   OH226837   6.972   2.171   4.415 -0.2364  0.4629 -0.1928
 8958TIP3    H126838   6.952   2.086   4.453  1.8965  0.0860  0.1991
 8958TIP3    H226839   6.922   2.233   4.468  0.3904 -0.3130  1.3593
 8959TIP3   OH226840   4.211   0.340   0.479  0.0390  0.4452 -0.1599
 8959TIP3    H126841   4.194   0.423   0.525 -0.8964  0.7892 -1.0733
 8959TIP3    H226842   4.215   0.365   0.386  1.5535 -0.2782 -0.3166
 8960TIP3   OH226843   2.914   5.510   5.451 -0.1837 -0.2307 -0.3814
 8960TIP3    H126844   2.902   5.503   5.357  0.3258 -1.0296 -0.3906
 8960TIP3    H226845   3.004   5.541   5.462 -0.2009 -0.2595 -0.1514
 8961TIP3   OH226846   3.171   4.666   0.219  0.2250  0.4520  0.2700
 8961TIP3    H126847   3.143   4.597   0.159  1.2766 -0.1276  0.4145
 8961TIP3    H226848   3.188   4.620   0.302 -2.3636  1.3996  1.4342
 8962TIP3   OH226849   3.851   5.946   1.396 -0.0874 -0.1221 -0.2855
 8962TIP3    H126850   3.782   5.989   1.446 -0.6045 -0.7784 -0.4271
 8962TIP3    H226851   3.855   5.857   1.431  2.8199  0.7013  1.9182
 8963TIP3   OH226852   0.085   0.969   5.215 -0.6823 -0.3347 -0.1965
 8963TIP3    H126853   0.123   0.964   5.127 -2.1535 -2.8792 -0.7871
 8963TIP3    H226854  -0.009   0.976   5.199 -0.9369 -0.3468  1.2081
 8964TIP3   OH226855   5.062   3.478   0.413  0.1828  0.0976 -0.1837
 8964TIP3    H126856   5.082   3.563   0.452 -0.3528  1.0021 -1.7768
 8964TIP3    H226857   4.986   3.495   0.357 -1.6283 -2.0141  1.4662
 8965TIP3   OH226858   6.887   5.538   4.075  0.2414 -0.1798 -0.2525
 8965TIP3    H126859   6.931   5.455   4.095  1.5307 -0.2015 -2.7520
 8965TIP3    H226860   6.929   5.601   4.132 -0.0142 -1.0460  0.9310
 8966TIP3   OH226861   3.751   5.043   1.603  0.0355 -0.6792 -0.4885
 8966TIP3    H126862   3.746   4.947   1.612 -0.4525 -0.6245 -0.1421
 8966TIP3    H226863   3.815   5.069   1.670 -0.0788 -0.7299 -0.3594
 8967TIP3   OH226864   6.877   4.812   0.795 -0.2451  0.1654  0.1164
 8967TIP3    H126865   6.895   4.785   0.705  2.4149 -1.0217  0.9327
 8967TIP3    H226866   6.843   4.733   0.837 -3.6138  1.2436 -0.2501
 8968TIP3   OH226867   0.990   5.181   4.828  0.5552 -0.3338  0.2351
 8968TIP3    H126868   1.034   5.131   4.897  1.5304 -1.3944 -1.1034
 8968TIP3    H226869   0.935   5.244   4.875  0.6448 -1.4901  1.9721
 8969TIP3   OH226870   7.142   6.638   1.407 -0.3458  0.3030 -0.5024
 8969TIP3    H126871   7.063   6.614   1.358 -0.4766  0.4240 -0.3523
 8969TIP3    H226872   7.189   6.697   1.349  1.3629 -2.3905 -2.0618
 8970TIP3   OH226873   0.360   2.070   4.867 -0.4764  0.4233 -0.2582
 8970TIP3    H126874   0.432   2.133   4.855 -0.4105 -0.0216 -2.5627
 8970TIP3    H226875   0.404   1.988   4.887 -0.4784  0.6254  0.6385
 8971TIP3   OH226876   6.490   2.328   3.552 -0.3586 -0.1140  0.6261
 8971TIP3    H126877   6.419   2.390   3.537  0.2024 -0.1056 -2.5150
 8971TIP3    H226878   6.455   2.244   3.522  1.0587 -0.0074 -1.5314
 8972TIP3   OH226879   2.955   6.652   0.312 -0.6575  0.1518  0.3868
 8972TIP3    H126880   3.019   6.628   0.244 -1.9792  1.4823 -1.4377
 8972TIP3    H226881   2.932   6.569   0.354  1.0176 -0.5635 -0.0382
 8973TIP3   OH226882   2.852   4.071   3.641  0.2381 -0.2335 -0.2815
 8973TIP3    H126883   2.855   4.097   3.733  2.2682  2.1386 -0.9249
 8973TIP3    H226884   2.943   4.071   3.613 -0.3866 -0.2092 -2.5019
 8974TIP3   OH226885   1.238   5.484   4.612 -0.5405  0.0683 -0.2984
 8974TIP3    H126886   1.302   5.470   4.682 -0.3376 -0.8380 -0.6519
 8974TIP3    H226887   1.154   5.491   4.657 -0.5364 -1.4207 -0.0044
 8975TIP3   OH226888   2.364   0.236   0.381  0.0429 -0.1003  0.4786
 8975TIP3    H126889   2.311   0.179   0.437 -0.4937  0.4640  0.5484
 8975TIP3    H226890   2.426   0.278   0.440 -0.6170  0.6036  0.6740
 8976TIP3   OH226891   4.524   1.596   1.637  0.2559  0.4960 -0.5337
 8976TIP3    H126892   4.550   1.549   1.557 -0.3155  0.2631 -0.5898
 8976TIP3    H226893   4.601   1.645   1.662  0.5818  0.2254 -0.9887
 8977TIP3   OH226894   5.845   2.838   5.017  0.3025 -0.2816  0.2193
 8977TIP3    H126895   5.893   2.795   5.088 -0.9836 -0.4102  1.0461
 8977TIP3    H226896   5.879   2.927   5.016  1.6155 -0.7591 -0.2276
 8978TIP3   OH226897   3.592   5.669   3.283  0.1274  0.5002  0.0115
 8978TIP3    H126898   3.601   5.735   3.214  1.7205 -0.5181 -0.8371
 8978TIP3    H226899   3.659   5.604   3.262 -0.2330 -0.5156  1.7987
 8979TIP3   OH226900   3.608   1.123   0.397 -0.1410  0.1473  0.5176
 8979TIP3    H126901   3.632   1.123   0.304  0.7579  2.7435  0.6752
 8979TIP3    H226902   3.561   1.040   0.410 -1.1360  0.1506 -2.4436
 8980TIP3   OH226903   2.598   0.353   3.008  0.2362 -0.2252  0.1888
 8980TIP3    H126904   2.659   0.333   3.079  2.5032  1.4746 -1.1189
 8980TIP3    H226905   2.550   0.272   2.994  2.4773 -1.8314  1.0693
 8981TIP3   OH226906   3.522   6.739   4.714 -0.2975 -0.0489 -0.6104
 8981TIP3    H126907   3.543   6.809   4.653  0.0206  0.8375  0.4948
 8981TIP3    H226908   3.503   6.783   4.797  0.8524 -1.3162  0.3743
 8982TIP3   OH226909   6.736   2.612   3.076  0.3922 -0.0680  0.2953
 8982TIP3    H126910   6.648   2.650   3.067  0.7669  0.6335 -0.5810
 8982TIP3    H226911   6.775   2.658   3.150  0.7561  1.1289 -0.6108
 8983TIP3   OH226912   6.132   2.003   2.946  0.1393 -0.6023  0.3926
 8983TIP3    H126913   6.120   1.913   2.974  0.0194 -0.1497  1.8747
 8983TIP3    H226914   6.179   1.996   2.863  0.5959 -2.0061  0.7404
 8984TIP3   OH226915   5.797   5.391   0.795  0.0408 -0.2238 -0.4660
 8984TIP3    H126916   5.861   5.375   0.726 -1.3913  2.5397 -2.6447
 8984TIP3    H226917   5.810   5.482   0.820 -0.7243 -0.6193  1.6588
 8985TIP3   OH226918   5.717   0.572   1.192  0.1685  0.3341 -0.6369
 8985TIP3    H126919   5.698   0.527   1.110 -0.6041  1.0484 -0.8570
 8985TIP3    H226920   5.797   0.621   1.175 -0.0392  0.5498 -0.9889
 8986TIP3   OH226921   0.183   6.736   0.746  0.0120 -0.7361  0.2429
 8986TIP3    H126922   0.134   6.714   0.667  0.3021 -0.3006 -0.0620
 8986TIP3    H226923   0.159   6.668   0.809 -1.9410  0.1366  0.5135
 8987TIP3   OH226924   6.244   5.598   0.739  0.4872 -1.0661 -0.1935
 8987TIP3    H126925   6.188   5.582   0.814  0.7890  0.5845  0.4272
 8987TIP3    H226926   6.202   5.672   0.693  2.2192  0.3749  0.4227
 8988TIP3   OH226927   6.668   2.539   0.244  0.4011 -0.5377  0.3826
 8988TIP3    H126928   6.708   2.570   0.162 -0.9180 -0.4105 -0.2328
 8988TIP3    H226929   6.650   2.446   0.229 -0.5339 -0.3399  0.2368
 8989TIP3   OH226930   2.668   0.474   5.862 -0.0825  0.6512  0.1336
 8989TIP3    H126931   2.606   0.492   5.933 -0.5151 -0.0628 -0.0463
 8989TIP3    H226932   2.614   0.471   5.783  0.5145  2.2543 -0.3603
 8990TIP3   OH226933   5.333   2.218   1.147 -0.1273 -0.1303 -0.2953
 8990TIP3    H126934   5.419   2.260   1.149 -0.7856  1.2899 -0.2976
 8990TIP3    H226935   5.352   2.125   1.138  1.4089  0.1325 -0.1013
 8991TIP3   OH226936   0.057   5.580   0.883 -0.5930 -0.3463  0.0028
 8991TIP3    H126937   0.103   5.500   0.858 -0.8144 -0.3713 -0.3211
 8991TIP3    H226938   0.055   5.633   0.804 -1.6662 -0.6081 -0.1550
 8992TIP3   OH226939   2.797   6.626   1.633  0.0643 -0.7047 -0.2324
 8992TIP3    H126940   2.812   6.620   1.727  0.5597  0.8314 -0.1909
 8992TIP3    H226941   2.702   6.621   1.623 -0.2974  2.1899  0.6834
 8993TIP3   OH226942   6.682   2.731   1.389  0.2194  0.7213  0.4838
 8993TIP3    H126943   6.709   2.777   1.310 -2.3103  0.7439 -0.4697
 8993TIP3    H226944   6.677   2.639   1.363  0.4912  0.5723  0.9483
 8994TIP3   OH226945   0.007   4.992   5.573 -0.2911  0.1008 -0.1738
 8994TIP3    H126946   0.006   5.068   5.515 -2.6240  0.9862  0.8968
 8994TIP3    H226947   0.090   4.949   5.555  1.0179  2.7732 -0.9825
 8995TIP3   OH226948   3.684   5.539   5.291 -0.2251  0.0666  0.1567
 8995TIP3    H126949   3.605   5.558   5.341 -0.1120 -3.3098  1.9036
 8995TIP3    H226950   3.655   5.481   5.221  0.6209 -1.2217  0.8255
 8996TIP3   OH226951   0.784   0.358   5.227 -0.6509  0.0091  0.6405
 8996TIP3    H126952   0.841   0.409   5.284 -0.8017 -0.1211  0.9105
 8996TIP3    H226953   0.696   0.370   5.264 -1.0983  1.6991 -0.8224
 8997TIP3   OH226954   1.515   0.697   1.596 -0.3290  0.1304  0.1067
 8997TIP3    H126955   1.444   0.641   1.628  0.0472  0.0789  0.8833
 8997TIP3    H226956   1.530   0.760   1.667  0.5928 -0.0348  0.0745
 8998TIP3   OH226957   5.609   6.413   1.778 -0.1530  0.5747  0.4508
 8998TIP3    H126958   5.601   6.503   1.748 -1.8640  1.0436  2.1319
 8998TIP3    H226959   5.543   6.364   1.729  0.0946  0.4335  0.2557
 8999TIP3   OH226960   6.052   3.623   1.550 -0.1089 -0.2745 -0.0852
 8999TIP3    H126961   5.962   3.598   1.572  0.4694 -3.1972 -0.6818
 8999TIP3    H226962   6.055   3.619   1.454  0.8171 -0.9756 -0.0458
 9000TIP3   OH226963   1.972   4.417   1.237  0.3615 -0.2863  0.0500
 9000TIP3    H126964   2.006   4.363   1.165 -1.5309  0.3758 -1.4331
 9000TIP3    H226965   1.938   4.495   1.194 -1.2447 -0.0727  1.6111
 9001TIP3   OH226966   5.090   2.911   4.732 -0.4663  0.0727 -0.2365
 9001TIP3    H126967   5.052   2.891   4.818 -0.0308 -0.2033 -0.1044
 9001TIP3    H226968   5.176   2.949   4.752  0.0155 -0.8160 -0.5663
 9002TIP3   OH226969   2.573   5.185   0.525 -0.2209 -0.0299 -0.2153
 9002TIP3    H126970   2.493   5.159   0.479 -0.7790 -1.5743  1.5111
 9002TIP3    H226971   2.642   5.131   0.485 -0.3784 -0.0725 -0.4338
 9003TIP3   OH226972   0.856   2.035   0.213  0.2292  0.2593  0.5622
 9003TIP3    H126973   0.942   2.061   0.245  0.3421  1.1235 -0.3880
 9003TIP3    H226974   0.796   2.101   0.246  0.0508  0.0793  0.6010
 9004TIP3   OH226975   6.369   4.527   3.143 -0.3118  0.4246  0.6841
 9004TIP3    H126976   6.333   4.605   3.101 -0.1828 -0.6544 -1.6012
 9004TIP3    H226977   6.296   4.491   3.194 -2.1067 -0.7107 -2.3857
 9005TIP3   OH226978   2.041   6.304   1.239  0.4644  0.3820 -0.1363
 9005TIP3    H126979   2.124   6.259   1.256  0.5472  0.2921 -0.7570
 9005TIP3    H226980   2.040   6.317   1.144 -0.9521 -1.0065 -0.3432
 9006TIP3   OH226981   2.840   4.507   5.435  0.2305 -0.0960  0.5932
 9006TIP3    H126982   2.749   4.528   5.413  0.7086  0.4245 -1.0092
 9006TIP3    H226983   2.846   4.522   5.530 -0.6499  2.6067  0.2980
 9007TIP3   OH226984   2.265   2.880   4.111 -0.0878  0.3002 -0.0686
 9007TIP3    H126985   2.322   2.809   4.140  0.9560  0.8241 -0.7579
 9007TIP3    H226986   2.274   2.947   4.179  0.8110  0.7280 -0.5915
 9008TIP3   OH226987   2.612   3.647   1.431  0.0199 -0.0129 -0.3351
 9008TIP3    H126988   2.532   3.595   1.420  0.2355 -0.3697 -0.2372
 9008TIP3    H226989   2.681   3.593   1.393  0.3093  0.0276  0.1188
 9009TIP3   OH226990   1.698   2.034   1.377  0.3473 -0.1834  0.2313
 9009TIP3    H126991   1.753   1.997   1.309  1.4185  1.5097  0.1025
 9009TIP3    H226992   1.759   2.083   1.433 -0.8886  1.0272  0.5825
 9010TIP3   OH226993   6.851   6.713   0.572 -0.3467 -0.5722 -0.2200
 9010TIP3    H126994   6.759   6.738   0.577  0.1035  1.5515 -1.2438
 9010TIP3    H226995   6.865   6.690   0.480  0.5166  0.9525 -0.5101
 9011TIP3   OH226996   2.682   1.155   4.224  0.4004  0.7756 -0.0669
 9011TIP3    H126997   2.756   1.114   4.180  0.9846  1.7518 -0.0423
 9011TIP3    H226998   2.675   1.109   4.308  0.4648  0.1445 -0.4052
 9012TIP3   OH226999   1.036   4.793   2.176 -0.1601 -0.2019  0.2023
 9012TIP3    H127000   1.041   4.699   2.162  0.1951 -0.3868  1.4152
 9012TIP3    H227001   1.126   4.820   2.192 -0.5054 -0.1452  2.4531
 9013TIP3   OH227002   2.266   3.249   1.794 -0.3488  0.6952 -0.4542
 9013TIP3    H127003   2.257   3.196   1.874 -2.0449  0.6065 -0.6517
 9013TIP3    H227004   2.353   3.288   1.800 -0.5737  1.0004  1.6358
 9014TIP3   OH227005   5.993   4.439   4.557  0.1051 -0.3869  0.1688
 9014TIP3    H127006   6.041   4.459   4.638  1.6396 -3.6357  0.2267
 9014TIP3    H227007   6.061   4.436   4.490 -0.7871 -0.2999 -0.7508
 9015TIP3   OH227008   2.634   2.603   5.164  0.3747  0.1668  0.2967
 9015TIP3    H127009   2.564   2.553   5.124  1.6310 -1.1534 -0.3477
 9015TIP3    H227010   2.696   2.620   5.093  0.1262  2.4865  0.5401
 9016TIP3   OH227011   1.717   5.738   1.373  0.2621 -0.0651 -0.3754
 9016TIP3    H127012   1.651   5.717   1.307 -0.0440  0.1315 -0.1332
 9016TIP3    H227013   1.795   5.692   1.343 -0.0657 -0.5561 -0.4967
 9017TIP3   OH227014   2.935   1.021   4.198 -0.4445  0.0605  0.3457
 9017TIP3    H127015   2.963   1.018   4.107  1.1538 -0.7098  0.8330
 9017TIP3    H227016   2.868   0.952   4.205 -0.5290  0.0806 -0.2108
 9018TIP3   OH227017   6.589   4.385   1.597  1.0093 -0.0418  0.1462
 9018TIP3    H127018   6.527   4.424   1.658  1.9896  2.6836 -0.4699
 9018TIP3    H227019   6.601   4.296   1.629 -0.9539  0.2731  1.9855
 9019TIP3   OH227020   0.765   6.201   0.969  0.0150  0.3493 -0.1496
 9019TIP3    H127021   0.734   6.112   0.981 -1.2810  0.6536 -1.0675
 9019TIP3    H227022   0.723   6.252   1.039  2.1487 -0.0093  1.5159
 9020TIP3   OH227023   3.697   4.565   3.966  0.0823 -0.1640 -0.1085
 9020TIP3    H127024   3.660   4.480   3.941 -1.8493  0.9382 -1.3193
 9020TIP3    H227025   3.775   4.574   3.912 -1.0037 -0.2187 -1.7832
 9021TIP3   OH227026   5.218   4.043   3.895 -0.6690  0.4928  0.4588
 9021TIP3    H127027   5.302   4.089   3.901 -0.1098 -0.3071 -0.8549
 9021TIP3    H227028   5.226   3.971   3.958  0.2361 -0.4652 -0.7167
 9022TIP3   OH227029   2.532   5.064   5.787  0.2091  0.3526 -0.1178
 9022TIP3    H127030   2.551   4.985   5.738  1.5390  0.7267 -0.2341
 9022TIP3    H227031   2.518   5.131   5.720 -1.0950  0.2078 -0.0256
 9023TIP3   OH227032   6.807   0.920   0.030  0.2614 -0.1834  0.2954
 9023TIP3    H127033   6.721   0.924   0.072  0.0052  0.9515 -0.2956
 9023TIP3    H227034   6.869   0.928   0.102 -0.1656  2.4240  0.4710
 9024TIP3   OH227035   0.958   5.491   4.923  0.4677 -0.4125  0.0334
 9024TIP3    H127036   1.048   5.460   4.929  0.9403  0.5308 -1.3947
 9024TIP3    H227037   0.960   5.579   4.961  0.3686 -0.0317 -0.8178
 9025TIP3   OH227038   4.800   3.875   5.741 -0.0790 -0.6117 -0.2205
 9025TIP3    H127039   4.879   3.896   5.789 -0.7894  0.1566  0.6445
 9025TIP3    H227040   4.772   3.958   5.703  0.4216 -1.1826 -1.9253
 9026TIP3   OH227041   7.082   0.953   2.033 -0.5138  0.3568 -0.4818
 9026TIP3    H127042   7.034   0.940   2.115 -2.2848  0.1564 -1.4888
 9026TIP3    H227043   7.174   0.951   2.058 -0.9468 -1.7163  1.2108
 9027TIP3   OH227044   5.759   4.441   5.445  0.3949 -0.1235  0.2731
 9027TIP3    H127045   5.803   4.423   5.363  0.3867  0.7766  0.0622
 9027TIP3    H227046   5.818   4.501   5.491 -0.8577  1.6262 -0.2900
 9028TIP3   OH227047   2.481   3.018   3.451 -0.1446 -0.4526  0.3576
 9028TIP3    H127048   2.543   3.071   3.401 -0.6560 -0.2947 -0.1215
 9028TIP3    H227049   2.512   3.024   3.542  0.9290 -0.9412  0.0306
 9029TIP3   OH227050   4.121   1.490   5.002 -0.0875 -0.6403 -0.5426
 9029TIP3    H127051   4.033   1.486   4.963 -0.4556 -0.0693  0.2005
 9029TIP3    H227052   4.175   1.532   4.935 -0.4138 -0.8560 -0.9444
 9030TIP3   OH227053   6.244   2.828   2.902 -0.0759 -0.3194 -0.5322
 9030TIP3    H127054   6.225   2.777   2.824 -1.6690  1.1548 -1.1785
 9030TIP3    H227055   6.163   2.824   2.954 -0.0999  1.1684 -0.4096
 9031TIP3   OH227056   3.183   2.451   1.588 -0.1734  0.5704  0.3889
 9031TIP3    H127057   3.136   2.377   1.625  0.3295 -1.1538 -2.1449
 9031TIP3    H227058   3.275   2.423   1.588  0.1891  1.7016  0.4515
 9032TIP3   OH227059   5.544   2.148   5.483  0.0183 -0.5531 -0.0024
 9032TIP3    H127060   5.612   2.114   5.541 -0.4420 -1.9941 -0.2604
 9032TIP3    H227061   5.470   2.166   5.541 -0.5989 -2.4172 -0.1388
 9033TIP3   OH227062   4.579   4.080   1.049 -0.5187  0.7534  0.6417
 9033TIP3    H127063   4.639   4.138   1.002 -1.3341  0.6554 -0.5643
 9033TIP3    H227064   4.553   4.131   1.126  0.9320  0.8688  1.0877
 9034TIP3   OH227065   6.792   4.485   4.355  0.0165  0.0006 -0.5818
 9034TIP3    H127066   6.775   4.396   4.323 -0.4177 -0.0920 -0.1229
 9034TIP3    H227067   6.848   4.472   4.432  1.9004  0.2810 -1.8438
 9035TIP3   OH227068   6.326   0.853   2.232 -0.2956  0.0477 -0.4175
 9035TIP3    H127069   6.381   0.844   2.154 -0.1762 -0.4810 -0.2801
 9035TIP3    H227070   6.271   0.929   2.214 -0.9257 -0.6028 -1.4262
 9036TIP3   OH227071   1.713   2.243   2.077 -0.0360  0.7226  0.6720
 9036TIP3    H127072   1.770   2.184   2.127  1.1767  0.7031 -0.6787
 9036TIP3    H227073   1.626   2.230   2.116  0.5895 -0.3891  1.7818
 9037TIP3   OH227074   6.857   1.626   3.307  0.4737  0.3487 -0.2577
 9037TIP3    H127075   6.828   1.596   3.393 -1.6712  1.1864 -0.6343
 9037TIP3    H227076   6.935   1.678   3.325  0.4942 -0.0974  1.0806
 9038TIP3   OH227077   1.453   1.678   4.554 -0.0995 -0.0226 -0.1822
 9038TIP3    H127078   1.477   1.642   4.468 -1.5047 -2.6366  0.3985
 9038TIP3    H227079   1.358   1.691   4.548 -0.3564 -1.0126  1.1708
 9039TIP3   OH227080   4.990   6.246   0.149 -0.2612  0.1282  0.1006
 9039TIP3    H127081   5.016   6.183   0.216  0.2546  0.3130  0.0738
 9039TIP3    H227082   4.945   6.194   0.083  1.5687 -0.4925 -0.7184
 9040TIP3   OH227083   1.121   2.301   2.588  0.6607  0.1440 -0.4915
 9040TIP3    H127084   1.130   2.281   2.494 -0.1111 -1.9280 -0.1838
 9040TIP3    H227085   1.196   2.356   2.608  1.5666 -0.4340 -2.0768
 9041TIP3   OH227086   0.609   5.440   4.909  0.0015  0.0295 -0.2695
 9041TIP3    H127087   0.539   5.382   4.939  0.2266 -0.4045 -0.5627
 9041TIP3    H227088   0.689   5.390   4.926  0.2264  0.4590 -0.0744
 9042TIP3   OH227089   0.925   3.452   2.282 -0.7166  0.4672  0.4469
 9042TIP3    H127090   0.832   3.461   2.260 -1.1454 -2.3024  0.6626
 9042TIP3    H227091   0.971   3.485   2.205 -1.9003  1.2129  0.0291
 9043TIP3   OH227092   5.750   4.671   4.677  0.3300 -0.0791  0.1121
 9043TIP3    H127093   5.723   4.647   4.765 -0.6161 -1.7968 -0.5836
 9043TIP3    H227094   5.807   4.600   4.649  1.5631  1.0199 -0.2642
 9044TIP3   OH227095   2.239   6.483   1.720 -0.1099  0.1189 -0.7602
 9044TIP3    H127096   2.296   6.543   1.768 -0.0656  1.5098 -2.4545
 9044TIP3    H227097   2.160   6.534   1.703 -1.1997 -1.2128  0.0410
 9045TIP3   OH227098   4.424   1.233   1.946  0.1932 -0.0488 -0.6280
 9045TIP3    H127099   4.330   1.237   1.963  0.1710 -0.2540 -0.6944
 9045TIP3    H227100   4.441   1.140   1.929  0.3534  0.0346 -0.9295
 9046TIP3   OH227101   7.085   0.264   5.721  0.0880 -0.2340  0.0941
 9046TIP3    H127102   7.128   0.196   5.771 -1.5938 -1.6878 -0.3451
 9046TIP3    H227103   6.994   0.262   5.750 -0.0352  1.8209  0.0329
 9047TIP3   OH227104   1.861   3.330   4.782  0.2901 -0.2482 -0.0023
 9047TIP3    H127105   1.865   3.425   4.788  0.9853 -0.2998  0.4116
 9047TIP3    H227106   1.856   3.312   4.689  0.6606  0.1790 -0.1081
 9048TIP3   OH227107   1.416   1.353   4.398  0.2466 -0.2216  0.7316
 9048TIP3    H127108   1.446   1.331   4.487 -1.9765  0.9034  1.8512
 9048TIP3    H227109   1.477   1.421   4.369  1.1729 -0.7980  1.2765
 9049TIP3   OH227110   1.828   3.700   1.428  0.0680  0.1736  0.3745
 9049TIP3    H127111   1.818   3.641   1.502 -0.0912 -0.1578  0.0889
 9049TIP3    H227112   1.741   3.707   1.390  0.4533 -1.0353 -0.8223
 9050TIP3   OH227113   4.622   5.416   5.478  0.0952 -0.1414  0.2932
 9050TIP3    H127114   4.541   5.462   5.498  0.6366  0.8657  0.2688
 9050TIP3    H227115   4.640   5.363   5.556 -0.4830 -0.2222  0.3702
 9051TIP3   OH227116   6.931   0.914   3.717 -0.1714 -0.5791  0.4907
 9051TIP3    H127117   7.014   0.950   3.747 -0.9658  2.9620 -1.1079
 9051TIP3    H227118   6.871   0.928   3.790 -0.4792  1.6373 -0.1140
 9052TIP3   OH227119   6.485   3.394   2.299 -0.7327  0.4919 -1.3105
 9052TIP3    H127120   6.576   3.419   2.317 -0.2964 -1.9328  0.2927
 9052TIP3    H227121   6.433   3.454   2.353  0.0063  0.8522 -0.9775
 9053TIP3   OH227122   6.285   3.353   5.765 -0.5958  0.2299 -0.1900
 9053TIP3    H127123   6.311   3.314   5.682  0.7053 -0.2876  0.4393
 9053TIP3    H227124   6.326   3.439   5.766 -0.1456  0.0187  0.1378
 9054TIP3   OH227125   4.674   1.280   4.566  0.4196  0.0518 -0.3083
 9054TIP3    H127126   4.692   1.299   4.474 -2.0298 -0.8812 -1.0737
 9054TIP3    H227127   4.722   1.199   4.584  0.3295 -0.1584 -0.9980
 9055TIP3   OH227128   0.631   3.934   4.197 -0.5243 -0.5410 -0.1880
 9055TIP3    H127129   0.694   3.990   4.243 -0.8142 -0.4600  0.1174
 9055TIP3    H227130   0.562   3.994   4.169 -1.1107 -0.8189  0.6213
 9056TIP3   OH227131   0.380   3.602   4.479 -0.0296 -0.2097 -0.9885
 9056TIP3    H127132   0.418   3.515   4.489 -0.0110 -0.2310 -1.2480
 9056TIP3    H227133   0.286   3.587   4.472 -0.1407 -0.1268  0.0857
 9057TIP3   OH227134   6.093   3.883   4.137 -0.1481 -0.1301 -0.4617
 9057TIP3    H127135   6.015   3.881   4.081  0.1781 -0.9296 -0.9025
 9057TIP3    H227136   6.063   3.846   4.220 -0.2914 -0.2561 -0.5681
 9058TIP3   OH227137   4.474   1.519   4.250  0.0644  0.9995  0.6046
 9058TIP3    H127138   4.422   1.493   4.174  0.3641  2.9156 -0.2982
 9058TIP3    H227139   4.412   1.518   4.323 -0.1554 -1.1689  0.4479
 9059TIP3   OH227140   1.898   4.130   5.357 -0.2352 -0.3828  0.5078
 9059TIP3    H127141   1.826   4.189   5.378  1.2850  1.3702  1.0508
 9059TIP3    H227142   1.893   4.062   5.423 -0.6962  0.3524  1.2552
 9060TIP3   OH227143   0.843   3.448   5.105  0.3573 -0.2172  0.3137
 9060TIP3    H127144   0.853   3.433   5.199  0.6666  0.6193  0.4237
 9060TIP3    H227145   0.750   3.436   5.089  0.1514  0.5114  0.8998
 9061TIP3   OH227146   3.872   0.411   5.585  0.3951 -0.3470  0.1370
 9061TIP3    H127147   3.786   0.420   5.626 -0.5181 -2.8291 -0.9991
 9061TIP3    H227148   3.856   0.423   5.491  1.4649  0.0143 -0.0176
 9062TIP3   OH227149   0.819   3.573   3.867 -0.4649 -0.1139  0.6505
 9062TIP3    H127150   0.858   3.560   3.780 -1.5453 -0.0462  0.1409
 9062TIP3    H227151   0.891   3.605   3.921  0.2112 -0.1079 -0.2368
 9063TIP3   OH227152   4.185   0.904   5.493 -0.5645 -0.1080  0.2011
 9063TIP3    H127153   4.198   0.850   5.415  1.4280 -0.0271  0.4231
 9063TIP3    H227154   4.189   0.994   5.461  1.5059 -0.0444  0.4934
 9064TIP3   OH227155   0.979   6.175   1.722  0.1831 -0.3998  0.3502
 9064TIP3    H127156   0.979   6.152   1.815  2.3948 -0.5545  0.3635
 9064TIP3    H227157   0.890   6.206   1.705 -0.3092 -0.4943  2.4824
 9065TIP3   OH227158   4.899   6.217   1.381 -0.4080 -0.3499  0.1393
 9065TIP3    H127159   4.814   6.222   1.338 -0.7550 -1.2460  0.6991
 9065TIP3    H227160   4.881   6.177   1.466  0.3746  0.7418  0.8303
 9066TIP3   OH227161   3.901   5.898   1.968 -0.2041 -0.4378  0.0903
 9066TIP3    H127162   3.960   5.869   1.899 -1.2155 -1.4273 -0.3924
 9066TIP3    H227163   3.896   5.825   2.029 -1.3178 -0.5890 -0.1538
 9067TIP3   OH227164   5.708   3.593   2.545  0.1038 -0.1154 -0.2584
 9067TIP3    H127165   5.723   3.599   2.450 -0.1466 -0.6835 -0.3337
 9067TIP3    H227166   5.785   3.548   2.579  0.1710  0.0447 -0.1972
 9068TIP3   OH227167   0.980   6.022   4.642  0.0503 -0.4809 -0.3449
 9068TIP3    H127168   0.961   6.056   4.729  0.8029  0.6974 -0.6214
 9068TIP3    H227169   0.986   6.099   4.586 -1.7381 -1.2794 -1.7479
 9069TIP3   OH227170   0.561   5.056   4.016 -0.0359 -0.2347 -0.2194
 9069TIP3    H127171   0.591   5.138   4.055 -1.3734  0.4385 -0.5327
 9069TIP3    H227172   0.585   5.062   3.924 -0.6002  0.0498 -0.3516
 9070TIP3   OH227173   0.477   1.576   3.458  0.3588  0.5576 -0.8106
 9070TIP3    H127174   0.458   1.523   3.536 -0.4565  0.1406 -1.2736
 9070TIP3    H227175   0.567   1.606   3.471  1.2094 -1.6954 -0.9358
 9071TIP3   OH227176   0.103   2.820   0.603 -0.4258 -0.5950 -0.2318
 9071TIP3    H127177   0.051   2.888   0.646  0.7323  1.8465 -2.3598
 9071TIP3    H227178   0.052   2.795   0.526 -1.2899 -2.9949  1.0199
 9072TIP3   OH227179   7.021   4.637   2.027 -0.1883  0.2211  0.1453
 9072TIP3    H127180   7.029   4.567   1.962 -1.2244  0.5978 -0.4104
 9072TIP3    H227181   7.103   4.686   2.019 -0.2085  0.1310 -0.7254
 9073TIP3   OH227182   4.313   4.337   2.715  0.1523 -0.2141  0.4507
 9073TIP3    H127183   4.257   4.273   2.671 -1.2881  1.2209  0.1167
 9073TIP3    H227184   4.402   4.308   2.695 -0.4596 -0.8062 -1.6609
 9074TIP3   OH227185   4.716   0.493   4.570 -0.2414  0.1702 -0.1942
 9074TIP3    H127186   4.688   0.403   4.551 -2.1928  0.9175 -1.1447
 9074TIP3    H227187   4.689   0.507   4.660 -0.7509  0.0763 -0.3258
 9075TIP3   OH227188   3.900   3.669   0.211 -0.4433 -0.1099 -0.0536
 9075TIP3    H127189   3.877   3.753   0.251 -2.1592 -0.0018 -1.1469
 9075TIP3    H227190   3.913   3.610   0.284 -0.2375  0.8587  0.7147
 9076TIP3   OH227191   3.519   3.686   3.291  0.0660  0.3906  0.2435
 9076TIP3    H127192   3.583   3.623   3.325 -1.6841 -1.5762  0.1191
 9076TIP3    H227193   3.437   3.661   3.333 -1.5280 -0.0867 -2.8982
 9077TIP3   OH227194   0.472   5.596   2.429 -0.5525  0.1125  0.8601
 9077TIP3    H127195   0.531   5.521   2.414  0.4221  0.6821  1.7354
 9077TIP3    H227196   0.528   5.673   2.423 -1.8046  0.9422 -1.5432
 9078TIP3   OH227197   1.910   6.795   0.225  0.8155  0.4169 -0.0139
 9078TIP3    H127198   1.948   6.718   0.182 -0.4258  0.4633 -1.2688
 9078TIP3    H227199   1.976   6.863   0.215  2.7254 -0.8824  2.6905
 9079TIP3   OH227200   3.122   5.712   0.641 -0.0601  0.1769  0.0909
 9079TIP3    H127201   3.037   5.677   0.667 -0.5965 -1.2437 -3.0854
 9079TIP3    H227202   3.102   5.785   0.583  0.9036  0.3046 -0.1038
 9080TIP3   OH227203   0.420   2.909   2.504  0.3255  0.3304  0.3297
 9080TIP3    H127204   0.330   2.939   2.514 -0.4768 -1.1113 -1.8893
 9080TIP3    H227205   0.439   2.863   2.586 -0.1113  2.5296  1.7398
 9081TIP3   OH227206   2.121   0.898   4.548  0.2716  0.3760  0.3514
 9081TIP3    H127207   2.133   0.992   4.562 -0.6049  0.7827 -1.4306
 9081TIP3    H227208   2.164   0.880   4.464 -0.8862 -0.5136 -0.0698
 9082TIP3   OH227209   4.882   0.557   1.793  0.3874  0.3759  0.3425
 9082TIP3    H127210   4.826   0.634   1.787 -1.5886 -1.0634 -0.6400
 9082TIP3    H227211   4.859   0.515   1.875 -2.0412 -1.6312 -1.2282
 9083TIP3   OH227212   2.432   6.549   0.896 -0.7435  0.0286 -0.0051
 9083TIP3    H127213   2.348   6.527   0.937 -0.9204 -2.3943 -1.4754
 9083TIP3    H227214   2.409   6.609   0.825 -1.0010  0.6219  0.5655
 9084TIP3   OH227215   0.726   6.219   5.402  0.7070 -0.1980  0.5439
 9084TIP3    H127216   0.813   6.236   5.437  0.5561  2.5094 -0.1431
 9084TIP3    H227217   0.672   6.199   5.478  1.5700 -0.1830  1.1682
 9085TIP3   OH227218   5.172   2.282   5.228  0.9685  0.1034  0.5723
 9085TIP3    H127219   5.169   2.190   5.202  1.6953  0.5301 -1.2160
 9085TIP3    H227220   5.152   2.282   5.321 -1.0574 -1.6681  0.2196
 9086TIP3   OH227221   4.218   5.895   2.740 -0.3345  0.0256 -0.3791
 9086TIP3    H127222   4.178   5.861   2.659 -2.2153  1.6389 -0.1923
 9086TIP3    H227223   4.264   5.974   2.712 -1.2053  0.7307  0.1371
 9087TIP3   OH227224   2.548   2.504   1.315  0.0894  0.4178  0.8791
 9087TIP3    H127225   2.537   2.498   1.220  1.5823 -2.3973  0.7618
 9087TIP3    H227226   2.461   2.482   1.350  0.2371 -1.6913  0.0849
 9088TIP3   OH227227   0.445   4.146   0.136  0.0949  0.5476  0.0474
 9088TIP3    H127228   0.448   4.179   0.046 -1.1283 -0.7334 -0.5204
 9088TIP3    H227229   0.354   4.160   0.163 -0.1951 -1.3210  0.1495
 9089TIP3   OH227230   6.157   1.995   0.328 -0.8214 -0.2871  0.3821
 9089TIP3    H127231   6.134   1.951   0.410  0.2569 -3.8684 -1.0189
 9089TIP3    H227232   6.252   1.983   0.320 -0.7239  0.9969 -0.8924
 9090TIP3   OH227233   0.260   4.475   3.605  0.3491 -0.5764 -0.4577
 9090TIP3    H127234   0.313   4.419   3.548  0.4131 -1.1184  0.1234
 9090TIP3    H227235   0.189   4.419   3.635  1.3472 -0.9074  1.4956
 9091TIP3   OH227236   6.555   5.758   1.384  0.3342  0.3846 -0.4564
 9091TIP3    H127237   6.646   5.730   1.373  1.3173  2.2433  1.9754
 9091TIP3    H227238   6.554   5.849   1.353 -0.6481  0.4270 -0.3280
 9092TIP3   OH227239   2.666   1.078   3.183 -0.0552  0.0539  0.3077
 9092TIP3    H127240   2.614   1.048   3.109  2.2804  0.9010 -1.8013
 9092TIP3    H227241   2.703   0.998   3.220 -0.6371 -0.3138  0.1078
 9093TIP3   OH227242   5.975   2.484   2.955 -0.1003  0.4824  0.7903
 9093TIP3    H127243   6.057   2.523   2.985  0.6917 -0.6266  0.1497
 9093TIP3    H227244   5.970   2.400   3.000 -1.1011  0.7013  1.1225
 9094TIP3   OH227245   5.392   4.459   5.280  0.6171  0.0846 -0.3159
 9094TIP3    H127246   5.476   4.457   5.233  0.1281 -1.4402 -1.2010
 9094TIP3    H227247   5.361   4.369   5.279 -1.6177  0.7750 -1.1028
 9095TIP3   OH227248   6.377   4.639   5.343  0.2296  0.0397 -0.6861
 9095TIP3    H127249   6.464   4.671   5.365 -0.4493  1.9167 -0.5316
 9095TIP3    H227250   6.341   4.707   5.286 -0.4779 -1.5746 -2.2506
 9096TIP3   OH227251   5.474   2.065   0.649  0.0456 -0.1393  0.2803
 9096TIP3    H127252   5.557   2.055   0.603  0.6947  0.6483  1.2289
 9096TIP3    H227253   5.409   2.076   0.580  0.7407 -0.6314 -0.4702
 9097TIP3   OH227254   1.027   3.526   2.953  0.3262  0.0334 -0.3079
 9097TIP3    H127255   1.067   3.613   2.949 -0.0524  0.2256  0.0402
 9097TIP3    H227256   0.933   3.544   2.959  0.0386 -0.4144 -2.4695
 9098TIP3   OH227257   1.825   1.890   0.030 -1.3915  0.0998  0.2807
 9098TIP3    H127258   1.880   1.957   0.071 -1.2915  1.0692 -1.3516
 9098TIP3    H227259   1.808   1.827   0.100  0.4119  0.6345  1.2577
 9099TIP3   OH227260   5.444   3.932   4.375 -0.8927 -0.5071 -0.0508
 9099TIP3    H127261   5.470   3.922   4.283 -1.7995  0.0085 -0.3788
 9099TIP3    H227262   5.349   3.928   4.374 -0.8900 -1.2318  0.9734
 9100TIP3   OH227263   4.314   1.789   1.631 -0.3238  0.4532  0.1174
 9100TIP3    H127264   4.381   1.721   1.631  0.7048  1.2629  3.2792
 9100TIP3    H227265   4.307   1.817   1.540  2.3150 -0.9390 -0.6098
 9101TIP3   OH227266   6.688   4.390   2.244  0.0306 -0.2360 -0.2636
 9101TIP3    H127267   6.777   4.416   2.268 -0.5356  0.8067  0.8360
 9101TIP3    H227268   6.670   4.438   2.163  0.3949 -0.2930 -0.3805
 9102TIP3   OH227269   1.047   4.834   4.221  0.1798  0.1578 -0.0291
 9102TIP3    H127270   1.035   4.876   4.135 -1.1245  0.1651  0.1416
 9102TIP3    H227271   0.965   4.787   4.236  0.4526  0.0467  1.1648
 9103TIP3   OH227272   3.528   2.469   1.010  0.7085  0.0758  0.1253
 9103TIP3    H127273   3.623   2.480   1.012  0.6314  0.8984 -0.1536
 9103TIP3    H227274   3.494   2.555   1.036  0.0483 -0.8170  2.4331
 9104TIP3   OH227275   3.025   2.128   0.404  0.3596  0.1670  0.3344
 9104TIP3    H127276   3.026   2.112   0.498 -0.3959  0.0832  0.3323
 9104TIP3    H227277   3.007   2.042   0.365 -0.2279  0.3628  0.1591
 9105TIP3   OH227278   5.131   2.414   3.940 -0.1558 -0.0692  0.4534
 9105TIP3    H127279   5.158   2.326   3.969  1.1516 -0.0288 -0.5831
 9105TIP3    H227280   5.086   2.399   3.857  0.6249  0.2922 -0.0400
 9106TIP3   OH227281   6.387   5.758   4.065 -0.5821  0.4210 -0.6957
 9106TIP3    H127282   6.357   5.837   4.110 -3.1744 -1.0188  0.3897
 9106TIP3    H227283   6.431   5.789   3.986  2.6228  3.0479  1.8245
 9107TIP3   OH227284   0.559   5.961   4.528  0.4271 -0.6020  0.0546
 9107TIP3    H127285   0.642   5.947   4.484  0.5562  1.3901 -0.4300
 9107TIP3    H227286   0.581   5.970   4.621  0.6758 -0.6496 -0.0004
 9108TIP3   OH227287   1.090   4.100   4.806  0.2033 -0.0409 -0.0358
 9108TIP3    H127288   1.155   4.050   4.855  1.0253  0.4809 -0.5549
 9108TIP3    H227289   1.104   4.191   4.833 -0.1807  0.1040 -0.3058
 9109TIP3   OH227290   1.496   4.506   3.444  0.5108  0.1306 -0.4180
 9109TIP3    H127291   1.420   4.551   3.407  0.1036 -0.3546 -0.1888
 9109TIP3    H227292   1.572   4.554   3.411  0.1182  0.3048 -1.0686
 9110TIP3   OH227293   3.650   5.619   3.542  0.4712  0.0242  0.5092
 9110TIP3    H127294   3.614   5.650   3.458  0.1018  1.0586  1.0287
 9110TIP3    H227295   3.732   5.668   3.553  1.2468 -1.1478  0.0963
 9111TIP3   OH227296   0.390   0.675   5.619 -0.1250  0.3460 -0.0823
 9111TIP3    H127297   0.437   0.693   5.538  0.1905  0.9099  0.2231
 9111TIP3    H227298   0.405   0.752   5.674  0.5870 -0.4945  0.9363
 9112TIP3   OH227299   2.313   1.914   3.739  0.0016  0.3832  0.0104
 9112TIP3    H127300   2.400   1.921   3.699 -1.0785 -0.8148 -2.7529
 9112TIP3    H227301   2.264   1.987   3.703 -0.7733 -0.2394 -0.2185
 9113TIP3   OH227302   6.577   1.870   0.115 -0.2687 -0.3832  0.1503
 9113TIP3    H127303   6.647   1.818   0.154 -0.7497 -0.1443  1.3743
 9113TIP3    H227304   6.586   1.856   0.021  0.9281 -0.9789  0.3379
 9114TIP3   OH227305   2.759   4.722  -0.035 -0.1643  0.5829 -0.3401
 9114TIP3    H127306   2.817   4.795  -0.011 -2.9317  2.7084  0.4108
 9114TIP3    H227307   2.733   4.683   0.048 -1.0248  0.7118 -0.5370
 9115TIP3   OH227308   6.508   5.511   4.018  0.2419 -0.1000  0.0985
 9115TIP3    H127309   6.472   5.599   4.022  0.6372  0.0120  1.8163
 9115TIP3    H227310   6.511   5.481   4.109 -2.2542 -2.8996 -0.6034
 9116TIP3   OH227311   4.761   1.328   2.422  0.4275  0.0036 -0.8057
 9116TIP3    H127312   4.857   1.326   2.430  0.5349  1.3429 -1.5516
 9116TIP3    H227313   4.740   1.251   2.369  0.9188 -1.1834  0.6396
 9117TIP3   OH227314   2.486   5.047   4.733 -0.4081 -0.1852  0.2353
 9117TIP3    H127315   2.476   5.069   4.826  1.1905 -1.4533  0.7657
 9117TIP3    H227316   2.565   5.093   4.706  0.4585 -1.6419  0.1766
 9118TIP3   OH227317   2.405   0.128   2.951 -0.0538 -0.1031  0.1273
 9118TIP3    H127318   2.328   0.181   2.930 -0.2138 -0.6963 -0.8354
 9118TIP3    H227319   2.423   0.079   2.870  0.3887 -1.1404  0.8356
 9119TIP3   OH227320   6.907   0.682   1.791 -0.6370  0.4537  0.1157
 9119TIP3    H127321   6.978   0.635   1.834  1.1816  2.0594 -1.0108
 9119TIP3    H227322   6.908   0.651   1.701 -1.5155  0.3448  0.1341
 9120TIP3   OH227323   5.970   4.478   2.536 -0.5761  0.0420 -0.1148
 9120TIP3    H127324   5.975   4.426   2.617  0.7038  1.3638  0.7111
 9120TIP3    H227325   6.022   4.428   2.473 -1.2117 -0.7790 -0.0090
 9121TIP3   OH227326   5.074   2.825   0.167 -0.1646  0.7630  0.3261
 9121TIP3    H127327   5.166   2.851   0.176 -0.2606  1.0527  0.4760
 9121TIP3    H227328   5.036   2.839   0.254 -0.3954  0.8188  0.2174
 9122TIP3   OH227329   3.527   3.307   4.303 -0.0110  0.6705  0.1812
 9122TIP3    H127330   3.478   3.225   4.310 -0.7310  0.6575 -3.2787
 9122TIP3    H227331   3.470   3.371   4.346 -1.7680  0.1228 -1.1804
 9123TIP3   OH227332   2.609   1.852   5.765  0.1022  0.0971  0.4023
 9123TIP3    H127333   2.698   1.819   5.773  0.4689  0.8938 -0.1862
 9123TIP3    H227334   2.592   1.853   5.671 -0.0075  1.2181  0.4135
 9124TIP3   OH227335   4.352   6.224   3.401 -0.2627  0.1010 -0.7904
 9124TIP3    H127336   4.376   6.289   3.466  0.3321 -1.2412  0.3767
 9124TIP3    H227337   4.320   6.275   3.327 -0.1982  1.6927  0.2352
 9125TIP3   OH227338   2.207   2.484   0.811  0.8978 -0.2467 -0.1846
 9125TIP3    H127339   2.221   2.391   0.795  1.7613 -0.0567 -0.5325
 9125TIP3    H227340   2.112   2.491   0.826  0.7969 -1.1464 -0.3429
 9126TIP3   OH227341   6.294   5.320   5.243 -0.2075 -0.0623  0.5380
 9126TIP3    H127342   6.316   5.231   5.215  0.6248  0.1015  0.6572
 9126TIP3    H227343   6.375   5.370   5.232 -0.7678  0.7765  0.1078
 9127TIP3   OH227344   0.800   2.407   3.935  0.1270 -0.2422 -0.9858
 9127TIP3    H127345   0.808   2.401   4.030 -0.4023  0.4113 -0.8926
 9127TIP3    H227346   0.813   2.317   3.904  0.1699 -0.4824 -0.2874
 9128TIP3   OH227347   1.622   0.275   2.856  0.0635  0.2001 -0.8261
 9128TIP3    H127348   1.535   0.271   2.819 -0.0801 -0.2962 -0.4425
 9128TIP3    H227349   1.637   0.369   2.873 -0.6761  0.2180 -0.2376
 9129TIP3   OH227350   2.052   5.138   1.498  0.3878  0.3595  0.2116
 9129TIP3    H127351   2.098   5.176   1.573 -1.0461 -0.2917  1.4752
 9129TIP3    H227352   2.013   5.213   1.453 -1.8791  0.5601  2.3091
 9130TIP3   OH227353   1.459   5.428   5.492 -0.1907 -0.0448 -0.3086
 9130TIP3    H127354   1.381   5.409   5.441  0.6654  0.3141 -1.8270
 9130TIP3    H227355   1.426   5.465   5.574 -1.6386 -1.5484 -0.1757
 9131TIP3   OH227356   4.463   5.154   4.235 -0.7813 -0.1999  0.0884
 9131TIP3    H127357   4.534   5.181   4.177 -1.0712 -0.0070 -0.1809
 9131TIP3    H227358   4.451   5.229   4.294 -0.0107 -0.6666  0.8729
 9132TIP3   OH227359   5.029   6.020   2.586 -0.3442  0.1939 -0.5303
 9132TIP3    H127360   4.943   5.981   2.571 -0.5725  0.8262 -0.8961
 9132TIP3    H227361   5.074   6.013   2.502  0.1371 -0.5438 -0.2205
 9133TIP3   OH227362   4.261   4.116   0.848 -0.1888  0.4734 -0.2460
 9133TIP3    H127363   4.276   4.204   0.883  1.6525  0.2031 -0.2390
 9133TIP3    H227364   4.349   4.084   0.826 -0.9665 -0.6972 -1.8868
 9134TIP3   OH227365   7.125   0.870   2.691 -0.5077 -0.0534  0.1044
 9134TIP3    H127366   7.126   0.834   2.602  0.5343  1.6222 -0.6121
 9134TIP3    H227367   7.160   0.799   2.746 -1.0134 -1.0536 -0.8246
 9135TIP3   OH227368   3.103   1.749   5.698 -0.2732 -0.0290 -0.9884
 9135TIP3    H127369   3.110   1.792   5.613 -1.3990  1.0136 -0.5768
 9135TIP3    H227370   3.192   1.749   5.732 -0.2375  2.0804 -0.9740
 9136TIP3   OH227371   1.334   5.240   3.984 -0.4092 -0.3354  0.1704
 9136TIP3    H127372   1.340   5.321   3.933  1.0543 -0.7831 -0.4010
 9136TIP3    H227373   1.394   5.253   4.057 -0.7241 -0.6285  0.4876
 9137TIP3   OH227374   4.174   6.445   3.799  0.0181  0.3710 -0.0956
 9137TIP3    H127375   4.131   6.437   3.884  0.4347 -0.7560  0.0229
 9137TIP3    H227376   4.104   6.470   3.739 -0.6357 -0.5361  0.2621
 9138TIP3   OH227377   1.684   4.934   1.839  0.0563 -0.0774  0.4551
 9138TIP3    H127378   1.654   4.852   1.800  0.7516 -0.2074  0.1782
 9138TIP3    H227379   1.778   4.922   1.851  0.0171  0.3325  1.2759
 9139TIP3   OH227380   1.834   5.638   0.399  0.3194 -0.2616  0.2843
 9139TIP3    H127381   1.821   5.716   0.453 -1.6769 -1.2324  1.3243
 9139TIP3    H227382   1.870   5.573   0.459 -2.5145 -1.5515  0.7585
 9140TIP3   OH227383   3.864   4.953   0.917  0.1535  0.6600 -0.2899
 9140TIP3    H127384   3.808   4.910   0.852  1.1575 -0.1166 -0.6750
 9140TIP3    H227385   3.813   5.029   0.946 -0.7235  0.4730 -1.2664
 9141TIP3   OH227386   6.461   2.300   5.257 -0.0719  0.4070  0.0494
 9141TIP3    H127387   6.512   2.303   5.175 -0.6042  0.1878 -0.2960
 9141TIP3    H227388   6.415   2.384   5.259 -0.5966  0.1290 -0.2309
 9142TIP3   OH227389   4.315   4.782   4.495 -0.5916 -0.0060  0.3980
 9142TIP3    H127390   4.298   4.870   4.528 -0.0002  0.2815 -0.0694
 9142TIP3    H227391   4.402   4.760   4.529 -0.0709  0.2013 -0.7642
 9143TIP3   OH227392   0.668   0.573   4.796 -0.1955 -0.1773  0.4097
 9143TIP3    H127393   0.682   0.498   4.739  0.3933 -0.9743  1.5631
 9143TIP3    H227394   0.575   0.570   4.818 -0.5685  0.5004 -0.9628
 9144TIP3   OH227395   2.561   0.876   5.040  0.1954 -0.2712 -0.0075
 9144TIP3    H127396   2.530   0.868   4.950 -0.1760 -1.2527  0.1941
 9144TIP3    H227397   2.482   0.890   5.092  0.5692  2.5436 -0.0288
 9145TIP3   OH227398   5.573   5.575   4.104  0.2673 -0.1176 -0.5440
 9145TIP3    H127399   5.587   5.481   4.114  1.2174  0.0607 -0.0269
 9145TIP3    H227400   5.509   5.583   4.033 -1.5979 -1.2402  0.8885
 9146TIP3   OH227401   3.422   2.638   0.616  0.6237 -0.7977 -0.2268
 9146TIP3    H127402   3.387   2.719   0.654  3.3811  0.3194  0.2117
 9146TIP3    H227403   3.346   2.594   0.577 -1.1972  1.3130  0.7378
 9147TIP3   OH227404   6.907   6.282   1.061 -0.0649 -0.8997  0.3392
 9147TIP3    H127405   6.917   6.195   1.101 -2.1436 -0.9701  0.8177
 9147TIP3    H227406   6.995   6.305   1.032  1.1893 -1.7721  3.0831
 9148TIP3   OH227407   4.453   3.593   5.443 -0.1445 -0.3573  0.1251
 9148TIP3    H127408   4.466   3.530   5.373 -0.9603  0.6685 -0.9867
 9148TIP3    H227409   4.541   3.611   5.475  0.2414 -0.8578 -0.6109
 9149TIP3   OH227410   4.895   4.392   2.801 -0.3865 -0.0520 -0.0379
 9149TIP3    H127411   4.872   4.433   2.884 -1.0526  0.0607 -0.2757
 9149TIP3    H227412   4.964   4.449   2.765  2.1407 -1.7300  1.8150
 9150TIP3   OH227413   2.392   0.341   2.606 -0.0511 -0.3556  0.1873
 9150TIP3    H127414   2.377   0.320   2.514  2.0492  0.7001 -0.4366
 9150TIP3    H227415   2.304   0.351   2.643 -0.9197 -0.3937 -1.7810
 9151TIP3   OH227416   6.201   3.210   3.073 -0.1685  0.3414 -0.0770
 9151TIP3    H127417   6.154   3.280   3.119  0.6004  0.5377  0.4339
 9151TIP3    H227418   6.200   3.236   2.981  1.3565  1.7997  0.2577
 9152TIP3   OH227419   0.626   2.523   3.777 -0.5039 -0.3294  0.2513
 9152TIP3    H127420   0.582   2.440   3.762 -0.2758 -0.4951  0.4966
 9152TIP3    H227421   0.678   2.509   3.856 -2.5482  0.8820  1.9190
 9153TIP3   OH227422   6.387   4.627   2.669 -0.2887  0.0645 -0.3674
 9153TIP3    H127423   6.407   4.563   2.737 -1.6105 -0.8477 -0.7922
 9153TIP3    H227424   6.338   4.577   2.603 -0.0379  1.1829 -1.4389
 9154TIP3   OH227425   0.315   4.911   4.065  0.3826 -0.5708  0.1247
 9154TIP3    H127426   0.322   4.826   4.021 -0.8385 -0.1824 -0.8509
 9154TIP3    H227427   0.397   4.955   4.045  0.0425 -0.5808 -1.4120
 9155TIP3   OH227428   5.494   2.096   1.655  0.1402 -0.5864  0.4452
 9155TIP3    H127429   5.565   2.097   1.591 -0.9308 -1.5371 -0.8213
 9155TIP3    H227430   5.454   2.009   1.646 -0.9777 -0.2024  1.3451
 9156TIP3   OH227431   3.866   3.154   4.213  0.5940  0.3027 -0.0186
 9156TIP3    H127432   3.785   3.165   4.162  0.7167  0.7682 -0.1193
 9156TIP3    H227433   3.910   3.079   4.173  0.4926  0.4116 -0.3318
 9157TIP3   OH227434   6.602   6.748   3.218 -0.0333  0.3247  0.3305
 9157TIP3    H127435   6.684   6.749   3.267 -0.5235  0.8086  1.1711
 9157TIP3    H227436   6.535   6.736   3.285 -0.5973 -0.9617 -0.4351
 9158TIP3   OH227437   4.688   6.745   5.405 -0.2173  0.0786  0.2502
 9158TIP3    H127438   4.720   6.831   5.378  0.1130 -0.2414 -0.4063
 9158TIP3    H227439   4.759   6.708   5.457 -0.6311  0.4675  1.1195
 9159TIP3   OH227440   4.611   4.979   2.357 -0.3921 -0.7728 -0.3899
 9159TIP3    H127441   4.602   4.894   2.314  0.1260 -1.6084  1.0755
 9159TIP3    H227442   4.700   5.008   2.335 -0.5460 -0.6304 -0.8361
 9160TIP3   OH227443   5.967   6.771   2.198 -0.0531 -0.3759  0.1486
 9160TIP3    H127444   6.032   6.701   2.202 -0.8788 -1.1934 -0.2169
 9160TIP3    H227445   5.943   6.776   2.106 -0.1187  0.2818  0.2025
 9161TIP3   OH227446   1.592   2.363   2.385  0.2361  0.0142 -0.6082
 9161TIP3    H127447   1.559   2.280   2.419  1.1862 -0.0984  0.0825
 9161TIP3    H227448   1.544   2.377   2.304  0.1653 -1.2830 -0.8007
 9162TIP3   OH227449   2.280   0.048   5.130  0.0254 -0.6712 -0.0854
 9162TIP3    H127450   2.246   0.129   5.168 -2.2308 -0.9122 -1.4292
 9162TIP3    H227451   2.375   0.063   5.123 -0.2195  1.4885  0.5052
 9163TIP3   OH227452   7.043   5.666   4.423 -0.4264  0.4203 -0.5599
 9163TIP3    H127453   7.113   5.678   4.488 -0.6506 -1.7301  0.1562
 9163TIP3    H227454   7.084   5.616   4.353 -1.1181 -0.4911 -0.3298
 9164TIP3   OH227455   2.067   5.105   2.808 -0.2904 -0.0675 -0.4298
 9164TIP3    H127456   2.082   5.019   2.768 -0.3905  0.2030 -1.0650
 9164TIP3    H227457   1.976   5.126   2.788 -0.6568 -0.3675  0.8217
 9165TIP3   OH227458   0.129   4.863   0.464  0.2685 -0.2799  0.0891
 9165TIP3    H127459   0.055   4.822   0.509  0.1883  0.7529  0.9214
 9165TIP3    H227460   0.101   4.953   0.448  1.0388 -0.1024 -0.3158
 9166TIP3   OH227461   1.851   5.252   4.175 -0.5222 -0.2086  0.7918
 9166TIP3    H127462   1.935   5.206   4.179 -0.1684  0.3562  0.0897
 9166TIP3    H227463   1.793   5.191   4.129  0.6919  1.0561 -2.7054
 9167TIP3   OH227464   2.035   0.178   2.237 -0.1690  0.3897  0.9688
 9167TIP3    H127465   2.104   0.190   2.171 -0.6552  0.0876  0.3951
 9167TIP3    H227466   1.953   0.197   2.190 -0.6415 -1.2043  1.0917
 9168TIP3   OH227467   7.028   4.128   1.760 -0.3568  0.7400 -0.0199
 9168TIP3    H127468   7.022   4.175   1.843 -0.0649 -0.5482  0.7382
 9168TIP3    H227469   7.029   4.036   1.784 -3.1730  0.1715 -1.5582
 9169TIP3   OH227470   5.070   2.960   5.783  0.6675  0.1977 -0.2064
 9169TIP3    H127471   5.038   2.882   5.829  1.3346 -0.5848 -1.0117
 9169TIP3    H227472   5.062   2.937   5.690 -1.4630  2.0672 -0.5734
 9170TIP3   OH227473   6.276   6.257   4.929 -0.9644 -0.3990  0.2311
 9170TIP3    H127474   6.270   6.232   5.021 -2.3734 -1.1907 -0.0483
 9170TIP3    H227475   6.317   6.344   4.930  1.2673 -1.3852  1.4270
 9171TIP3   OH227476   7.009   4.061   0.518  0.7950 -0.2982 -0.0739
 9171TIP3    H127477   7.020   3.968   0.537  2.6691  0.0208  0.5870
 9171TIP3    H227478   7.090   4.102   0.546 -0.2602  1.6744  0.3266
 9172TIP3   OH227479   4.838   4.006   1.452 -0.2488 -0.2180 -0.4577
 9172TIP3    H127480   4.866   4.083   1.403 -0.4324  0.3086  0.2434
 9172TIP3    H227481   4.756   3.980   1.410 -0.8297  0.7117  0.0401
 9173TIP3   OH227482   2.334   0.745   2.580  0.1519  0.5787 -1.0752
 9173TIP3    H127483   2.302   0.702   2.659  1.0979 -1.6993 -1.8379
 9173TIP3    H227484   2.393   0.813   2.612  0.4917 -0.2692  0.1798
 9174TIP3   OH227485   4.843   3.306   2.516  0.1612  0.5683  0.1145
 9174TIP3    H127486   4.831   3.401   2.517  0.7897  0.6690 -0.5827
 9174TIP3    H227487   4.893   3.289   2.436 -3.2901 -0.7706 -2.0142
 9175TIP3   OH227488   3.623   0.829   0.878  0.5391  0.7479  0.5469
 9175TIP3    H127489   3.580   0.761   0.929  0.3258  0.7316  0.3449
 9175TIP3    H227490   3.682   0.781   0.819  0.2090  0.7254  0.2352
 9176TIP3   OH227491   2.941   5.744   4.114 -0.7357  0.5627  0.2121
 9176TIP3    H127492   2.953   5.754   4.208  1.8440 -0.0596  0.0381
 9176TIP3    H227493   2.940   5.834   4.081 -0.3633  0.7638  0.7306
 9177TIP3   OH227494   4.090   6.547   1.484 -0.1754 -0.5250 -0.0398
 9177TIP3    H127495   4.145   6.473   1.456 -0.5699 -2.0804  2.8887
 9177TIP3    H227496   4.142   6.625   1.464  1.0756 -1.6656 -1.4970
 9178TIP3   OH227497   2.725   3.050   0.996 -0.5040 -0.4021 -0.5468
 9178TIP3    H127498   2.633   3.050   0.970 -0.6859  0.7281  0.0503
 9178TIP3    H227499   2.727   3.100   1.077  0.8278  0.7316 -1.2410
 9179TIP3   OH227500   6.367   1.706   4.134 -0.1487  0.3540  0.1589
 9179TIP3    H127501   6.412   1.790   4.123 -0.9761  0.8343  0.3802
 9179TIP3    H227502   6.384   1.682   4.226  0.1182  0.2477  0.0857
 9180TIP3   OH227503   4.412   6.535   0.334  0.4815  0.0595 -0.2919
 9180TIP3    H127504   4.426   6.630   0.334  0.0892  0.1502 -2.3246
 9180TIP3    H227505   4.455   6.504   0.255  1.1950 -1.5920  0.6948
 9181TIP3   OH227506   0.994   5.689   5.126  0.2993 -0.9288  0.5229
 9181TIP3    H127507   0.919   5.670   5.181 -1.0433 -1.3188 -1.3292
 9181TIP3    H227508   0.978   5.777   5.092  0.4122 -1.1980 -0.2566
 9182TIP3   OH227509   0.534   1.591   2.135  0.1124 -0.1505 -0.1720
 9182TIP3    H127510   0.573   1.578   2.222  2.1085  2.0802 -0.6315
 9182TIP3    H227511   0.574   1.524   2.080 -0.1043 -0.6946  0.3271
 9183TIP3   OH227512   1.163   1.539   3.700  0.5377  0.0804  0.1880
 9183TIP3    H127513   1.149   1.632   3.722  1.9796  0.3781 -0.0572
 9183TIP3    H227514   1.139   1.492   3.780  1.5036  0.8124  0.9231
 9184TIP3   OH227515   1.206   0.241   0.667 -1.1307 -0.2634 -0.4285
 9184TIP3    H127516   1.157   0.233   0.749  0.6492 -0.4776  0.6873
 9184TIP3    H227517   1.298   0.249   0.695 -0.3313 -1.5392 -2.4250
 9185TIP3   OH227518   0.386   0.058   4.928 -0.8509 -0.5433  0.1271
 9185TIP3    H127519   0.447   0.090   4.995  0.1899 -2.4959  0.1844
 9185TIP3    H227520   0.342  -0.017   4.969 -1.2937 -0.8361 -0.8509
 9186TIP3   OH227521   2.975   1.398   1.475  0.2743 -0.4711  0.5701
 9186TIP3    H127522   3.062   1.401   1.515  0.7113  0.3243 -0.3928
 9186TIP3    H227523   2.915   1.392   1.549  1.0093  1.8388  1.4188
 9187TIP3   OH227524   4.973   1.673   2.147  0.5042  0.3019 -0.1105
 9187TIP3    H127525   4.884   1.640   2.138 -0.3421  2.3812  0.0223
 9187TIP3    H227526   4.984   1.689   2.240  0.5956  1.0320 -0.2331
 9188TIP3   OH227527   5.175   2.337   3.417  0.6227  0.4555 -0.4486
 9188TIP3    H127528   5.201   2.379   3.335  0.5126 -0.6763 -1.0844
 9188TIP3    H227529   5.256   2.302   3.453  0.6809  1.0053 -0.0257
 9189TIP3   OH227530   5.183   0.398   1.764  0.4713 -0.6232 -0.0322
 9189TIP3    H127531   5.260   0.347   1.789 -0.4532 -3.1955 -2.0515
 9189TIP3    H227532   5.118   0.378   1.831  0.6146 -0.7986  0.0562
 9190TIP3   OH227533   4.384   1.815   5.529  0.2224  0.5130  0.0175
 9190TIP3    H127534   4.406   1.724   5.510  0.6948  0.4484  0.7983
 9190TIP3    H227535   4.305   1.833   5.478 -2.3067 -1.6024  2.8163
 9191TIP3   OH227536   0.248   6.784   1.478  0.0728 -0.6105  0.0726
 9191TIP3    H127537   0.302   6.811   1.404 -1.0293  1.6785  0.0205
 9191TIP3    H227538   0.302   6.721   1.525  1.1519 -1.4754 -2.1667
 9192TIP3   OH227539   6.461   0.821   1.974 -0.2136 -0.1516  0.3239
 9192TIP3    H127540   6.438   0.836   1.882 -0.0274 -3.2782 -0.3570
 9192TIP3    H227541   6.556   0.808   1.972 -0.1020  0.4782  1.1112
 9193TIP3   OH227542   5.474   4.119   4.022 -0.5703 -0.2779  0.3185
 9193TIP3    H127543   5.483   4.194   3.963 -1.2479 -0.2923  0.1825
 9193TIP3    H227544   5.536   4.136   4.093 -0.4894  0.2505  0.1238
 9194TIP3   OH227545   0.282   5.887   2.146 -0.4288 -0.3316  0.0184
 9194TIP3    H127546   0.197   5.860   2.112 -0.5089 -0.6040  0.4290
 9194TIP3    H227547   0.329   5.806   2.162  0.2909 -0.1609 -1.1403
 9195TIP3   OH227548   2.165   3.143   3.061  0.2328 -0.4563 -0.0083
 9195TIP3    H127549   2.167   3.136   3.156  1.7942 -0.1243  0.0100
 9195TIP3    H227550   2.080   3.107   3.036  0.7076 -2.7298  1.3339
 9196TIP3   OH227551   0.538   3.965   4.863  0.2524  0.1467 -0.0541
 9196TIP3    H127552   0.490   3.926   4.790  0.3758  0.5138 -0.3309
 9196TIP3    H227553   0.546   4.058   4.840  2.4060 -0.1569 -0.7351
 9197TIP3   OH227554   2.476   4.872   4.544  0.0823 -0.1292 -0.1298
 9197TIP3    H127555   2.470   4.942   4.609 -1.7094 -0.3261 -0.0381
 9197TIP3    H227556   2.515   4.913   4.467 -0.2267  0.7626  0.1820
 9198TIP3   OH227557   1.005   2.581   1.492 -0.4760  0.0544  0.2950
 9198TIP3    H127558   0.959   2.645   1.547 -0.7445 -1.7606  2.3126
 9198TIP3    H227559   0.938   2.551   1.430 -0.1814  2.0941 -1.1135
 9199TIP3   OH227560   6.045   2.932   1.350 -0.2211  0.2684 -0.0643
 9199TIP3    H127561   6.032   2.922   1.444  3.6672  0.6439  0.6782
 9199TIP3    H227562   6.038   3.027   1.335 -3.0865  0.0492 -0.7029
 9200TIP3   OH227563   1.008   4.090   3.688 -0.0040  0.1171  0.1885
 9200TIP3    H127564   1.041   4.012   3.643 -1.7755 -0.9397  0.6437
 9200TIP3    H227565   0.973   4.146   3.619  1.2405  0.5283 -0.1361
 9201TIP3   OH227566   5.787   2.822   5.448  0.3517 -0.2628 -0.5152
 9201TIP3    H127567   5.850   2.888   5.419  2.4127 -1.9483 -0.1102
 9201TIP3    H227568   5.826   2.783   5.526 -0.3278 -2.5173 -1.2029
 9202TIP3   OH227569   1.582   4.510   0.437 -0.5001 -0.2123  0.0712
 9202TIP3    H127570   1.675   4.505   0.455 -0.6262  0.4778  1.0244
 9202TIP3    H227571   1.575   4.571   0.364 -0.1936 -0.4267 -0.1385
 9203TIP3   OH227572   4.153   2.630   2.858 -0.4734 -0.3574 -0.3151
 9203TIP3    H127573   4.208   2.695   2.814 -0.7766  0.8459  0.9811
 9203TIP3    H227574   4.110   2.583   2.787  1.5485 -0.7598 -1.3440
 9204TIP3   OH227575   4.513   3.607   0.708  0.3153 -0.0058 -0.2687
 9204TIP3    H127576   4.552   3.530   0.750 -1.8882 -0.8033  0.4711
 9204TIP3    H227577   4.556   3.612   0.622  1.2867 -1.3922  0.1040
 9205TIP3   OH227578   3.474   3.223   5.192 -0.0946  0.9377 -0.1406
 9205TIP3    H127579   3.426   3.149   5.231 -0.3078  1.3134  0.3144
 9205TIP3    H227580   3.563   3.190   5.182 -0.2264  0.5579 -0.1030
 9206TIP3   OH227581   3.791   1.812   0.108 -0.2742  0.0484 -0.6668
 9206TIP3    H127582   3.781   1.796   0.202 -0.2207  1.9312 -0.3024
 9206TIP3    H227583   3.710   1.778   0.069 -1.0522  0.7307  0.2913
 9207TIP3   OH227584   5.828   5.220   2.911 -0.5410 -0.1100 -0.8375
 9207TIP3    H127585   5.798   5.175   2.833  0.4424 -2.9291  0.2758
 9207TIP3    H227586   5.920   5.242   2.893 -1.3911  3.2156 -1.9951
 9208TIP3   OH227587   1.855   3.853   4.560 -0.2972  0.2036  0.0506
 9208TIP3    H127588   1.934   3.832   4.610  0.0184  2.3211  0.5140
 9208TIP3    H227589   1.807   3.770   4.555  2.3248 -1.3834 -1.0105
 9209TIP3   OH227590   0.438   1.400   0.585 -0.6964  0.4645 -0.0986
 9209TIP3    H127591   0.427   1.387   0.679 -5.1754 -0.1248 -0.4627
 9209TIP3    H227592   0.466   1.490   0.576  2.6935 -0.2567  1.7621
 9210TIP3   OH227593   6.778   1.366   1.325 -0.1042 -0.2237 -0.6039
 9210TIP3    H127594   6.789   1.380   1.420 -0.5222 -0.3745 -0.5308
 9210TIP3    H227595   6.698   1.414   1.304  0.4044  0.4523 -1.0276
 9211TIP3   OH227596   2.502   0.513   3.779 -0.0694  0.1057 -0.1788
 9211TIP3    H127597   2.532   0.456   3.709  2.3799  2.4547 -1.2285
 9211TIP3    H227598   2.458   0.585   3.734 -1.0264  0.2387  0.9234
 9212TIP3   OH227599   0.637   2.985   4.024  0.0194  0.4255 -0.3456
 9212TIP3    H127600   0.671   2.900   4.050 -1.8038  0.0898  1.1918
 9212TIP3    H227601   0.686   3.008   3.945  1.8980 -1.1302  0.3104
 9213TIP3   OH227602   2.706   4.712   3.855 -0.4883  0.2179 -0.0002
 9213TIP3    H127603   2.791   4.690   3.817  0.4442 -1.1001  2.5662
 9213TIP3    H227604   2.654   4.632   3.846 -0.3966  0.0240  1.0320
 9214TIP3   OH227605   3.684   6.585   3.581 -0.4381 -0.2301  0.0346
 9214TIP3    H127606   3.702   6.557   3.671  0.7763 -1.0087 -0.4355
 9214TIP3    H227607   3.703   6.508   3.527  1.4057  0.9742 -1.1460
 9215TIP3   OH227608   0.462   1.598   4.120 -0.2936  0.8734  0.5749
 9215TIP3    H127609   0.501   1.623   4.204 -0.8460  1.5470  0.6419
 9215TIP3    H227610   0.374   1.567   4.142 -0.7066  1.7189  0.1911
 9216TIP3   OH227611   1.966   2.402   0.180  0.1107 -0.3262  0.0933
 9216TIP3    H127612   1.910   2.384   0.105  0.0969  2.6302 -0.7269
 9216TIP3    H227613   1.907   2.404   0.255 -0.2259 -1.0979 -0.1418
 9217TIP3   OH227614   0.162   2.159   2.613  0.1112 -0.3220  0.1769
 9217TIP3    H127615   0.120   2.162   2.528 -0.0708  0.4412  0.2933
 9217TIP3    H227616   0.230   2.226   2.609 -0.3237  0.1651  0.8551
 9218TIP3   OH227617   5.651   3.318   5.758  0.1083  0.8176  0.3345
 9218TIP3    H127618   5.663   3.372   5.835 -0.6257 -0.3941  1.3348
 9218TIP3    H227619   5.565   3.277   5.770  0.7587 -0.7755 -0.2360
 9219TIP3   OH227620   1.567   1.085   4.888  0.1921  0.0413  0.2931
 9219TIP3    H127621   1.650   1.102   4.932 -0.7015 -0.5405  2.3207
 9219TIP3    H227622   1.575   1.129   4.803  1.2840  2.8906  1.7578
 9220TIP3   OH227623   2.950   0.986   3.218  0.0479  0.3006 -0.1505
 9220TIP3    H127624   2.883   0.964   3.154 -0.1438 -0.2263  0.2263
 9220TIP3    H227625   2.925   0.938   3.296  1.8854 -1.4684 -0.5623
 9221TIP3   OH227626   6.302   4.161   5.381 -0.2895 -0.3338 -0.4731
 9221TIP3    H127627   6.384   4.198   5.414 -1.1709  0.4029  0.9960
 9221TIP3    H227628   6.294   4.077   5.425 -0.5241 -0.2049 -0.2618
 9222TIP3   OH227629   3.253   0.050   4.780 -0.8867 -0.0963 -0.1376
 9222TIP3    H127630   3.305   0.007   4.712  0.2889 -0.4645  0.9631
 9222TIP3    H227631   3.275   0.143   4.771  0.4572 -0.3055  0.6894
 9223TIP3   OH227632   6.579   3.935   5.456 -1.0295 -0.0374 -0.2197
 9223TIP3    H127633   6.498   3.884   5.460 -1.1902  0.2837  1.4656
 9223TIP3    H227634   6.554   4.022   5.486  0.1264 -0.2571  1.5909
 9224TIP3   OH227635   2.928   0.166   3.838 -0.3077 -0.8577 -0.3994
 9224TIP3    H127636   2.834   0.178   3.830  0.0829  2.0620 -2.0604
 9224TIP3    H227637   2.955   0.229   3.906  0.6724  0.2958 -1.7791
 9225TIP3   OH227638   4.527   5.930   0.896  0.2937 -0.3020  0.8308
 9225TIP3    H127639   4.517   5.867   0.967  0.2630 -0.9494  0.2639
 9225TIP3    H227640   4.583   5.999   0.932  0.4992 -0.7577  1.3941
 9226TIP3   OH227641   1.349   1.327   3.985 -0.4488 -0.3534  0.1717
 9226TIP3    H127642   1.431   1.342   3.938 -1.5608 -0.1662 -1.8488
 9226TIP3    H227643   1.314   1.415   4.000 -0.9803 -0.4743 -0.3246
 9227TIP3   OH227644   5.353   3.514   0.971 -0.5421  0.0131 -0.0068
 9227TIP3    H127645   5.360   3.463   0.890  4.0438  0.8337 -0.3648
 9227TIP3    H227646   5.379   3.602   0.945 -0.9986  0.7873  2.0227
 9228TIP3   OH227647   0.530   2.627   0.185  0.8799  0.1584 -1.0193
 9228TIP3    H127648   0.547   2.720   0.169 -0.2975  0.3830 -1.0417
 9228TIP3    H227649   0.455   2.627   0.245 -0.0959 -0.7914 -2.2034
 9229TIP3   OH227650   0.115   0.238   2.476 -0.0462  0.1647  0.2243
 9229TIP3    H127651   0.038   0.232   2.420  0.5071  1.3183 -0.6852
 9229TIP3    H227652   0.084   0.284   2.554 -0.1834  1.0310 -0.3327
 9230TIP3   OH227653   1.651   0.200   1.819  0.2807 -0.1789  0.0902
 9230TIP3    H127654   1.722   0.252   1.857  0.1975  0.0539 -0.0727
 9230TIP3    H227655   1.680   0.182   1.729 -1.2688  2.6834 -1.1145
 9231TIP3   OH227656   1.321   6.034   5.646 -0.4214  0.5812  0.1335
 9231TIP3    H127657   1.382   6.099   5.680 -1.2221  0.9239  0.9708
 9231TIP3    H227658   1.258   6.085   5.594 -0.8906  0.4503  0.5637
 9232TIP3   OH227659   5.867   2.270   0.311 -0.0189  0.4197 -0.5339
 9232TIP3    H127660   5.834   2.359   0.297 -2.3823 -0.1539  0.7845
 9232TIP3    H227661   5.960   2.281   0.329 -0.4240  2.7373  0.4510
 9233TIP3   OH227662   3.009   4.714   5.674 -0.2642  0.6500 -0.2081
 9233TIP3    H127663   2.934   4.773   5.678 -0.5316  0.4088 -1.3190
 9233TIP3    H227664   3.000   4.659   5.752 -1.6644  0.1507 -0.6907
 9234TIP3   OH227665   4.452   2.569   2.167  0.1963 -0.3373  0.1536
 9234TIP3    H127666   4.501   2.519   2.101  0.5265 -0.1266  0.2353
 9234TIP3    H227667   4.471   2.660   2.146  0.9721 -0.2892  1.0451
 9235TIP3   OH227668   4.173   5.028   5.361  0.0687 -0.2607 -0.0902
 9235TIP3    H127669   4.083   5.061   5.358  0.2344  0.2682  0.4919
 9235TIP3    H227670   4.168   4.952   5.418  0.1207  0.2385  0.5985
 9236TIP3   OH227671   3.439   6.590   1.968 -0.0593  0.0240  0.0184
 9236TIP3    H127672   3.511   6.537   1.934  0.9855  0.5722  1.2575
 9236TIP3    H227673   3.385   6.528   2.017  0.5162 -0.1309  0.4831
 9237TIP3   OH227674   1.215   5.378   4.975  0.0594  0.3268 -0.2385
 9237TIP3    H127675   1.289   5.382   4.914 -1.2860  0.0689 -1.9614
 9237TIP3    H227676   1.204   5.285   4.993  0.1080  0.3598 -0.0365
 9238TIP3   OH227677   5.825   1.548   1.603 -0.2265  0.5737  0.6301
 9238TIP3    H127678   5.893   1.482   1.589 -0.4704  0.2857  0.7822
 9238TIP3    H227679   5.791   1.528   1.691 -2.0933 -0.7531 -0.3159
 9239TIP3   OH227680   3.547   3.382   2.465  0.5058 -0.4968 -0.0767
 9239TIP3    H127681   3.513   3.470   2.446 -0.1644 -0.5617  0.7347
 9239TIP3    H227682   3.515   3.328   2.393  0.0599 -0.2716 -0.0558
 9240TIP3   OH227683   4.726   0.939   4.113 -0.2262 -0.4959  0.2457
 9240TIP3    H127684   4.773   0.886   4.050 -0.7051  1.2091 -1.6441
 9240TIP3    H227685   4.795   0.976   4.169  0.1988 -2.0139  0.7721
 9241TIP3   OH227686   5.809   3.854   2.128  0.1496 -0.0151  0.0287
 9241TIP3    H127687   5.717   3.827   2.136 -0.3525  1.0943 -1.5765
 9241TIP3    H227688   5.808   3.948   2.147  0.9866 -0.0137  0.1077
 9242TIP3   OH227689   1.285   4.984   1.509 -0.0517  0.0211 -0.4640
 9242TIP3    H127690   1.245   4.900   1.529  1.7370 -0.5269  1.2054
 9242TIP3    H227691   1.324   5.012   1.592  1.0934  1.5298 -1.4489
 9243TIP3   OH227692   0.060   3.787   1.049  0.7799  0.2074  0.2254
 9243TIP3    H127693   0.094   3.816   0.964  0.1013 -1.9641 -0.8793
 9243TIP3    H227694  -0.005   3.853   1.073  0.6568  0.6415 -1.1893
 9244TIP3   OH227695   0.391   3.411   2.478  0.2749 -0.3417 -0.3298
 9244TIP3    H127696   0.475   3.428   2.436  0.6186  0.2399  0.5730
 9244TIP3    H227697   0.358   3.332   2.434  0.9823 -0.2062 -1.1291
 9245TIP3   OH227698   2.902   2.029   2.166  0.4701  0.2401 -0.1954
 9245TIP3    H127699   2.978   2.084   2.150 -0.2806  1.2045 -0.4884
 9245TIP3    H227700   2.938   1.948   2.203  1.4729  1.4462  1.5603
 9246TIP3   OH227701   2.462   2.264   4.052 -0.6842  0.3020  0.5096
 9246TIP3    H127702   2.376   2.289   4.021 -0.4881  0.4865  0.1050
 9246TIP3    H227703   2.448   2.183   4.101 -0.9758 -0.0973 -0.2178
 9247TIP3   OH227704   4.640   6.472   0.718 -0.3535  0.3086 -0.0272
 9247TIP3    H127705   4.615   6.392   0.671 -0.1893  0.2049  0.0601
 9247TIP3    H227706   4.572   6.536   0.695 -0.3673  0.2077 -0.2673
 9248TIP3   OH227707   3.210   4.678   2.890 -0.1532  0.2287  0.2764
 9248TIP3    H127708   3.163   4.709   2.812 -0.2451  1.3492  0.7661
 9248TIP3    H227709   3.228   4.586   2.871 -1.0570  0.2175 -0.6449
 9249TIP3   OH227710   5.353   2.315   4.198  0.0480 -0.0113  0.1962
 9249TIP3    H127711   5.375   2.281   4.111 -0.9714 -0.9985  0.2947
 9249TIP3    H227712   5.435   2.313   4.246  0.6610  0.6832 -0.7738
 9250TIP3   OH227713   6.183   5.350   5.678  0.4952 -0.1241  0.0332
 9250TIP3    H127714   6.112   5.289   5.657  0.9429 -0.3311 -0.9461
 9250TIP3    H227715   6.141   5.420   5.728 -0.6611  0.3765 -1.5421
 9251TIP3   OH227716   4.853   0.676   2.829 -0.3925  0.4432  0.0217
 9251TIP3    H127717   4.761   0.680   2.855 -0.3761 -0.6123  0.2932
 9251TIP3    H227718   4.867   0.584   2.807  0.2006  0.8793 -1.5389
 9252TIP3   OH227719   5.654   4.445   4.015  0.0758 -0.0722  0.0727
 9252TIP3    H127720   5.604   4.511   4.063  0.3728  0.0136  0.2615
 9252TIP3    H227721   5.688   4.386   4.082  0.1509 -0.1866 -0.0641
 9253TIP3   OH227722   3.831   5.314   4.751  0.7921  0.2066  0.4958
 9253TIP3    H127723   3.848   5.279   4.664  1.1065 -0.3686  0.7824
 9253TIP3    H227724   3.908   5.367   4.771  0.6773  0.4141  0.3838
 9254TIP3   OH227725   3.251   1.633   5.194 -0.2152  0.0623  0.0323
 9254TIP3    H127726   3.197   1.570   5.241 -0.3594  0.2280  0.0860
 9254TIP3    H227727   3.189   1.693   5.153 -0.2821 -1.7911 -2.8901
 9255TIP3   OH227728   2.032   6.658   1.628 -0.2041  0.2774  0.0444
 9255TIP3    H127729   2.046   6.622   1.541  2.3552 -0.8506  0.8239
 9255TIP3    H227730   2.056   6.751   1.621  0.2793  0.1199 -0.3891
 9256TIP3   OH227731   1.514   3.250   3.476 -0.2978 -0.1518 -0.1583
 9256TIP3    H127732   1.584   3.314   3.464 -0.7411  0.2355 -0.7919
 9256TIP3    H227733   1.473   3.274   3.559  0.6312 -0.7003  0.4782
 9257TIP3   OH227734   4.913   2.449   1.674 -0.2953  0.1828 -0.1269
 9257TIP3    H127735   4.944   2.362   1.702 -2.7521 -0.9726 -0.7217
 9257TIP3    H227736   4.881   2.436   1.585  0.8799  2.1528 -0.8864
 9258TIP3   OH227737   6.796   3.825   4.770  0.3411  0.1114  0.0122
 9258TIP3    H127738   6.821   3.796   4.858  0.7852  0.8370  0.1303
 9258TIP3    H227739   6.783   3.743   4.722  1.4178 -0.3063  0.3795
 9259TIP3   OH227740   5.282   6.808   2.896  0.1108 -0.6459  0.4294
 9259TIP3    H127741   5.266   6.729   2.844  0.7292 -2.1070  2.3305
 9259TIP3    H227742   5.198   6.827   2.937 -0.1523 -0.0173 -0.3744
 9260TIP3   OH227743   4.759   2.691   4.967 -0.0803  0.1760  0.3361
 9260TIP3    H127744   4.743   2.730   5.053  0.2570  3.5728 -1.0082
 9260TIP3    H227745   4.829   2.627   4.983  0.4437  1.1832  2.4747
 9261TIP3   OH227746   2.530   0.528   2.810  0.6936 -0.8383 -0.0970
 9261TIP3    H127747   2.541   0.466   2.882  0.6400  0.3759  0.9947
 9261TIP3    H227748   2.498   0.475   2.736  0.5100 -2.0642  0.8403
 9262TIP3   OH227749   4.695   1.683   5.659 -0.1316 -0.0884 -0.2249
 9262TIP3    H127750   4.732   1.680   5.747  1.7976  0.2930 -0.9671
 9262TIP3    H227751   4.688   1.776   5.638  0.3638 -0.1697 -0.8110
 9263TIP3   OH227752   6.338   5.582   3.517  0.6508 -0.1848 -0.0547
 9263TIP3    H127753   6.373   5.547   3.434  0.3046 -1.6212  0.3808
 9263TIP3    H227754   6.399   5.549   3.584  0.7751  0.7464  0.3081
 9264TIP3   OH227755   1.304   5.002   3.857 -0.4021 -0.3355 -0.0201
 9264TIP3    H127756   1.366   4.992   3.784  0.4586 -0.2074  0.6778
 9264TIP3    H227757   1.330   5.084   3.899 -1.1741 -0.1898  0.1779
 9265TIP3   OH227758   1.403   4.152   2.171  0.1752  0.2822  0.3832
 9265TIP3    H127759   1.437   4.203   2.244 -0.3996 -0.2704  1.0498
 9265TIP3    H227760   1.309   4.145   2.187 -0.1750  1.1883 -1.0626
 9266TIP3   OH227761   1.823   4.430   5.249 -0.3310  0.0748  0.4230
 9266TIP3    H127762   1.762   4.501   5.230 -0.0961  0.5848  1.5275
 9266TIP3    H227763   1.780   4.379   5.317 -0.2208 -0.4877  0.0772
 9267TIP3   OH227764   6.837   6.740   5.003 -0.0324  0.4692 -0.8999
 9267TIP3    H127765   6.860   6.793   4.927  2.1937  0.7555 -0.1113
 9267TIP3    H227766   6.918   6.734   5.053 -1.2284 -0.3664  1.0621
 9268TIP3   OH227767   5.426   2.198   3.315  0.4717  0.0527  0.1120
 9268TIP3    H127768   5.411   2.114   3.357  2.1376 -0.2148  0.2378
 9268TIP3    H227769   5.412   2.181   3.222 -0.2071 -0.1018  0.2390
 9269TIP3   OH227770   0.307   0.592   4.628 -0.3490 -0.1051 -0.0064
 9269TIP3    H127771   0.349   0.506   4.635 -1.1110 -0.8020 -2.7358
 9269TIP3    H227772   0.379   0.653   4.614 -0.0019 -0.8424 -1.5780
 9270TIP3   OH227773  -0.031   5.599   1.918 -0.1817 -0.1325 -0.4850
 9270TIP3    H127774  -0.005   5.656   1.991  0.0675  2.1991 -2.2516
 9270TIP3    H227775   0.037   5.613   1.852 -0.6431 -1.8090 -1.3753
 9271TIP3   OH227776   2.527   1.882   3.565  0.3165 -0.5441  0.4267
 9271TIP3    H127777   2.592   1.835   3.618 -1.0837 -0.5189  2.2702
 9271TIP3    H227778   2.571   1.963   3.539  1.5204 -1.2178  0.3132
 9272TIP3   OH227779   5.983   2.780   4.506  0.2981  0.0764  0.0684
 9272TIP3    H127780   5.957   2.809   4.594 -0.2897 -1.2509  0.3543
 9272TIP3    H227781   5.919   2.821   4.448 -1.0470 -1.2508  0.5470
 9273TIP3   OH227782   6.824   5.005   3.082  0.2212 -0.0562 -0.4909
 9273TIP3    H127783   6.777   4.929   3.048 -0.7042 -0.7052  1.9839
 9273TIP3    H227784   6.761   5.077   3.074 -0.4018 -0.4381  0.7462
 9274TIP3   OH227785   3.610   2.071   4.841  0.3201  0.0127  0.2659
 9274TIP3    H127786   3.595   2.163   4.820 -1.4815 -0.1113  0.8399
 9274TIP3    H227787   3.636   2.071   4.933  3.2766  0.1389 -0.4706
 9275TIP3   OH227788   1.230   0.880   5.297  0.0444  0.0371  0.2573
 9275TIP3    H127789   1.290   0.894   5.224 -0.2470 -2.0857 -0.4685
 9275TIP3    H227790   1.144   0.905   5.262  0.2689  1.7210  0.8359
 9276TIP3   OH227791   5.317   2.897   2.888 -0.2084 -0.7333 -0.0280
 9276TIP3    H127792   5.325   2.955   2.812  1.5505  1.3037  1.5849
 9276TIP3    H227793   5.377   2.825   2.870  0.3289 -0.1771 -0.5053
 9277TIP3   OH227794   0.102   1.200   3.562  0.0955  0.1417 -0.3238
 9277TIP3    H127795   0.115   1.153   3.645 -1.1078 -1.2476 -0.8809
 9277TIP3    H227796   0.019   1.167   3.528 -0.2904  1.9575 -1.2736
 9278TIP3   OH227797  -0.019   2.860   3.071  0.1884 -0.0376  0.1726
 9278TIP3    H127798  -0.042   2.813   2.991  1.0424 -0.2252  0.0285
 9278TIP3    H227799   0.076   2.860   3.072  0.1952 -0.4927  1.4541
 9279TIP3   OH227800   0.422   2.870   0.537 -0.2404 -0.2180  0.9497
 9279TIP3    H127801   0.413   2.852   0.631  1.2906  0.2486  1.2224
 9279TIP3    H227802   0.511   2.842   0.517 -0.9875 -1.5518 -0.6821
 9280TIP3   OH227803   1.665   0.193   3.427  0.2698  0.5967  0.3290
 9280TIP3    H127804   1.647   0.231   3.514 -0.3375 -0.5775  0.7421
 9280TIP3    H227805   1.741   0.241   3.395  0.1804  1.4133  1.2894
 9281TIP3   OH227806   7.120   5.943   2.683  0.0907 -0.4705  0.2347
 9281TIP3    H127807   7.046   5.991   2.644  0.2836  0.9849  1.5357
 9281TIP3    H227808   7.153   5.888   2.612 -2.3245 -1.2869 -0.3358
 9282TIP3   OH227809   6.727   5.774   4.910 -0.1518  0.2762 -0.1208
 9282TIP3    H127810   6.760   5.746   4.824 -2.1291  0.4729 -0.9901
 9282TIP3    H227811   6.652   5.829   4.890 -0.6434  0.3380  1.7482
 9283TIP3   OH227812   4.109   0.968   2.490 -0.3157 -0.1130 -0.6702
 9283TIP3    H127813   4.103   1.027   2.415  0.5320  1.7354  0.6356
 9283TIP3    H227814   4.020   0.960   2.522 -0.5043  0.0609 -1.1450
 9284TIP3   OH227815   5.180   2.800   3.109 -0.9020 -0.0603  0.0833
 9284TIP3    H127816   5.211   2.837   3.026  0.6017 -1.2227  0.0672
 9284TIP3    H227817   5.209   2.709   3.106  1.1909  0.3929  2.7857
 9285TIP3   OH227818   0.601   0.504   2.470 -0.2109  0.2176 -0.0973
 9285TIP3    H127819   0.666   0.573   2.460  0.0552  0.0218  0.2440
 9285TIP3    H227820   0.587   0.471   2.381  1.4477 -0.8961 -0.0111
 9286TIP3   OH227821   5.008   1.630   3.303  0.3712 -0.0203  0.3746
 9286TIP3    H127822   5.086   1.575   3.299  1.8109  1.7752  1.7509
 9286TIP3    H227823   5.007   1.664   3.393 -0.4763  2.0702 -0.3586
 9287TIP3   OH227824   7.125   6.113   2.887  0.1750 -0.1487 -0.1868
 9287TIP3    H127825   7.074   6.174   2.833  2.3150  0.4804 -1.6224
 9287TIP3    H227826   7.139   6.037   2.832  0.4000 -0.5022  0.3481
 9288TIP3   OH227827   3.376   2.702   1.931  0.1966  0.0669  0.0465
 9288TIP3    H127828   3.321   2.762   1.981 -0.6013 -0.4797 -0.1473
 9288TIP3    H227829   3.465   2.728   1.951 -0.1199  0.3490  1.1613
 9289TIP3   OH227830   2.747   2.954   2.087  0.0769 -0.3013 -0.7106
 9289TIP3    H127831   2.751   2.969   1.993 -0.5897 -0.6074 -0.7951
 9289TIP3    H227832   2.673   3.006   2.117 -0.6126 -1.3157 -0.5914
 9290TIP3   OH227833   3.895   5.119   5.628 -0.1874  0.2938 -0.1776
 9290TIP3    H127834   3.848   5.192   5.587  1.9438  1.3155 -0.9895
 9290TIP3    H227835   3.983   5.155   5.646  0.5835 -1.7605  0.3761
 9291TIP3   OH227836   5.609   6.270   2.033  0.7890 -0.3230 -0.5435
 9291TIP3    H127837   5.558   6.218   1.972  0.8028  0.2895 -1.0936
 9291TIP3    H227838   5.677   6.311   1.979  1.6267 -0.8105  0.1008
 9292TIP3   OH227839   5.924   4.250   2.673 -0.2234  0.1135  0.3790
 9292TIP3    H127840   5.961   4.165   2.651 -0.6627  0.2077 -0.8125
 9292TIP3    H227841   5.830   4.234   2.683 -0.1995  0.3133  0.9695
 9293TIP3   OH227842   5.227   6.786   0.855 -0.1125 -0.1908 -0.0010
 9293TIP3    H127843   5.284   6.735   0.797  0.6934  0.4806  0.1797
 9293TIP3    H227844   5.139   6.773   0.819  0.0880 -1.6182 -0.0035
 9294TIP3   OH227845   0.236   3.632   0.657  0.3729  0.0185 -0.2442
 9294TIP3    H127846   0.323   3.594   0.659  1.1488  1.6897 -0.3722
 9294TIP3    H227847   0.193   3.589   0.583  0.2477 -2.4200  1.1303
 9295TIP3   OH227848   0.085   4.465   3.339  0.2719 -0.2065  0.2492
 9295TIP3    H127849   0.105   4.408   3.414  0.9684  1.3758  1.3329
 9295TIP3    H227850   0.116   4.416   3.263  3.0022 -0.3567  1.3470
 9296TIP3   OH227851   3.214   0.988   1.663 -0.1805 -0.1813  0.2519
 9296TIP3    H127852   3.308   1.002   1.671 -0.3761  1.2035  0.4097
 9296TIP3    H227853   3.182   0.988   1.753 -0.4067 -0.0897  0.1722
 9297TIP3   OH227854   2.313   4.641   4.438 -0.0067 -0.2245  0.1817
 9297TIP3    H127855   2.283   4.728   4.412  0.3347 -0.1303  0.1030
 9297TIP3    H227856   2.408   4.649   4.447  0.1301 -0.8005 -0.6417
 9298TIP3   OH227857   3.858   5.112   3.858 -0.7288 -0.0268  0.1350
 9298TIP3    H127858   3.925   5.157   3.909  0.8900 -1.2495 -0.7969
 9298TIP3    H227859   3.777   5.122   3.909  0.1443  1.4949  1.2926
 9299TIP3   OH227860   0.640   6.490   5.666  0.1270 -0.6397 -0.0218
 9299TIP3    H127861   0.607   6.488   5.756 -0.0129  0.4341 -0.0339
 9299TIP3    H227862   0.736   6.494   5.676  0.0825  1.0756  0.1577
 9300TIP3   OH227863   6.052   2.985   1.670  0.0207  0.1310  0.0557
 9300TIP3    H127864   6.101   3.022   1.744  1.8878  0.2270 -1.1705
 9300TIP3    H227865   5.984   3.051   1.651  0.8928  1.1288  0.3142
 9301TIP3   OH227866   1.361   1.039   3.363 -0.3456 -0.3637  0.1575
 9301TIP3    H127867   1.346   1.002   3.450 -2.2363 -2.1024 -0.8046
 9301TIP3    H227868   1.340   1.132   3.372 -2.2217 -0.8451  1.2272
 9302TIP3   OH227869   6.824   1.461   3.793 -0.3249  0.9925  0.1508
 9302TIP3    H127870   6.837   1.535   3.851  0.1650  0.8886  0.1728
 9302TIP3    H227871   6.817   1.500   3.706 -1.9832  1.2414  0.3469
 9303TIP3   OH227872   7.088   4.515   5.778 -0.1397 -0.3107 -0.5746
 9303TIP3    H127873   7.029   4.558   5.839  0.6252  0.3996 -0.3075
 9303TIP3    H227874   7.034   4.451   5.733 -0.7105 -0.8733  0.8672
 9304TIP3   OH227875   6.969   3.718   1.704 -0.0942  0.1166 -0.0542
 9304TIP3    H127876   6.895   3.764   1.742  0.5481 -0.4667  2.0589
 9304TIP3    H227877   6.931   3.666   1.632 -1.3804  1.2333 -0.2190
 9305TIP3   OH227878   2.165   2.788   2.495  0.1902 -0.4751 -0.0082
 9305TIP3    H127879   2.230   2.829   2.553 -0.4593  1.9416 -0.9028
 9305TIP3    H227880   2.216   2.724   2.445  1.4150 -0.2086  0.8355
 9306TIP3   OH227881   2.800   2.289   4.244  0.4008  0.0430  0.4810
 9306TIP3    H127882   2.724   2.276   4.301 -2.4296  3.5478 -2.0650
 9306TIP3    H227883   2.836   2.374   4.269  0.4141  0.6640 -1.4433
 9307TIP3   OH227884   6.179   1.960   3.787 -0.1921  0.4765 -0.3425
 9307TIP3    H127885   6.205   2.049   3.764  1.3978  0.0203 -0.4092
 9307TIP3    H227886   6.256   1.923   3.829 -1.1159 -0.6073  0.4461
 9308TIP3   OH227887   3.880   3.192   1.600 -0.2190  0.1740  0.0292
 9308TIP3    H127888   3.942   3.137   1.553  0.0021  0.3549  0.1040
 9308TIP3    H227889   3.931   3.270   1.624 -1.0682  1.4228 -1.9630
 9309TIP3   OH227890   4.337   3.642   0.308  0.5405  0.4881  0.0360
 9309TIP3    H127891   4.359   3.656   0.216 -2.0631  1.0326 -0.5902
 9309TIP3    H227892   4.384   3.711   0.355  0.5407  1.3066 -1.1187
 9310TIP3   OH227893   1.912   1.721   5.544 -0.3702 -0.0218 -0.4275
 9310TIP3    H127894   1.896   1.658   5.614  0.1590 -1.2740 -1.3829
 9310TIP3    H227895   2.004   1.707   5.521 -0.3612  0.8280 -0.9211
 9311TIP3   OH227896   6.362   1.131   3.715 -0.3196 -0.2243 -0.2227
 9311TIP3    H127897   6.359   1.184   3.795  0.4550 -2.0424  1.0875
 9311TIP3    H227898   6.444   1.157   3.672  1.8608 -2.5569  2.1463
 9312TIP3   OH227899   0.681   3.863   1.487 -0.2601  0.4717 -0.6360
 9312TIP3    H127900   0.669   3.955   1.464 -2.4692  0.8383  1.5552
 9312TIP3    H227901   0.715   3.865   1.577  0.5430 -0.8819 -0.8758
 9313TIP3   OH227902   3.439   4.693   0.215 -0.1685  0.6121 -0.0837
 9313TIP3    H127903   3.349   4.705   0.246 -0.9750 -2.2006 -1.0257
 9313TIP3    H227904   3.449   4.759   0.147 -2.3830 -0.3679 -1.4871
 9314TIP3   OH227905   4.176   6.584   2.251 -0.0810  0.1441 -0.4624
 9314TIP3    H127906   4.118   6.508   2.252 -0.8398  0.7040 -0.6329
 9314TIP3    H227907   4.258   6.552   2.212 -0.6346 -0.4212 -1.1905
 9315TIP3   OH227908   0.154   3.320   5.560  0.3722 -0.0829  0.0285
 9315TIP3    H127909   0.124   3.234   5.530  2.8420 -0.7070 -0.8864
 9315TIP3    H227910   0.076   3.375   5.556 -0.4535 -1.2440 -3.4300
 9316TIP3   OH227911   5.034   2.300   5.741 -0.4736 -0.2036 -0.2010
 9316TIP3    H127912   5.011   2.227   5.799  2.1986 -0.5313  0.5752
 9316TIP3    H227913   4.992   2.376   5.781  1.5416 -0.3483  2.5038
 9317TIP3   OH227914   5.664   4.623   4.906  0.0620 -0.4417  0.2829
 9317TIP3    H127915   5.658   4.533   4.936  1.9905 -0.9722 -0.7400
 9317TIP3    H227916   5.665   4.675   4.987  1.0115 -1.5011  0.9796
 9318TIP3   OH227917   3.318   0.678   5.239 -0.0936 -0.4920  0.0212
 9318TIP3    H127918   3.342   0.679   5.332 -1.4441  0.6336  0.3956
 9318TIP3    H227919   3.225   0.653   5.239  0.2513 -1.9009 -1.1439
 9319TIP3   OH227920   0.900   4.817   3.708 -0.5654 -0.6764 -0.1804
 9319TIP3    H127921   0.854   4.816   3.792  0.1078  0.5418  0.2191
 9319TIP3    H227922   0.993   4.810   3.731 -0.0586  3.0095 -0.5190
 9320TIP3   OH227923   3.602   1.582   3.453 -0.0495  0.1065 -0.1067
 9320TIP3    H127924   3.630   1.532   3.530  1.2603  2.9469  1.4196
 9320TIP3    H227925   3.527   1.632   3.484  0.8802  1.7630 -0.4441
 9321TIP3   OH227926   3.558   5.097   5.797  0.2739 -0.4700 -0.2050
 9321TIP3    H127927   3.577   5.134   5.711 -2.6506  0.7176 -0.4543
 9321TIP3    H227928   3.473   5.133   5.821 -0.3198 -2.9801  1.9551
 9322TIP3   OH227929   5.016   3.962   1.127 -0.0514 -0.2219  0.4163
 9322TIP3    H127930   5.112   3.958   1.132 -0.0929 -3.2169  0.5564
 9322TIP3    H227931   4.998   4.049   1.090  2.7322  0.1524 -0.3275
 9323TIP3   OH227932   5.674   2.403   4.152 -0.2866 -0.1340  0.7860
 9323TIP3    H127933   5.684   2.403   4.247 -2.5005  0.8777  1.0834
 9323TIP3    H227934   5.663   2.495   4.129 -0.4428 -0.4264 -0.3739
 9324TIP3   OH227935   4.629   3.410   5.830 -0.1296  0.4526 -0.0687
 9324TIP3    H127936   4.546   3.403   5.781  0.0191 -1.1873 -0.1330
 9324TIP3    H227937   4.687   3.457   5.771 -0.0550 -1.2146 -1.4049
 9325TIP3   OH227938   6.163   2.376   5.783  0.3557  0.2357 -0.1012
 9325TIP3    H127939   6.171   2.451   5.842  2.0714  1.4777 -1.8007
 9325TIP3    H227940   6.221   2.396   5.710 -1.6160 -1.2623 -2.2202
 9326TIP3   OH227941   3.473   6.232   0.394  0.0405 -0.3887 -0.6222
 9326TIP3    H127942   3.541   6.187   0.443  0.5111  0.5118 -0.4247
 9326TIP3    H227943   3.400   6.238   0.456  0.7562  1.0592  0.1368
 9327TIP3   OH227944   5.556   6.686   0.065  0.6433  0.1261  0.0705
 9327TIP3    H127945   5.625   6.731   0.114 -1.6834  2.8722  1.1151
 9327TIP3    H227946   5.494   6.656   0.132 -1.4707  1.9503 -0.9161
 9328TIP3   OH227947   1.977   6.145   3.310  0.0521  0.2009 -0.0774
 9328TIP3    H127948   1.938   6.072   3.261  1.8459 -1.0159  0.2282
 9328TIP3    H227949   2.063   6.158   3.270  0.2091  1.4300  0.6095
 9329TIP3   OH227950   1.981   6.701   3.811  0.5637 -0.0322 -0.3142
 9329TIP3    H127951   1.945   6.695   3.899 -0.7122 -2.3378 -0.9073
 9329TIP3    H227952   2.076   6.697   3.823  0.4680  0.9951  0.9856
 9330TIP3   OH227953   1.230   3.851   3.981  0.0280  0.3233 -0.4340
 9330TIP3    H127954   1.157   3.791   3.995 -0.7346  1.2587 -0.2677
 9330TIP3    H227955   1.282   3.844   4.061  0.1120 -0.3213 -0.5390
 9331TIP3   OH227956   5.940   6.317   4.155  0.3551  0.1170 -0.1127
 9331TIP3    H127957   5.935   6.260   4.232 -3.5202 -2.0962 -1.7269
 9331TIP3    H227958   5.898   6.399   4.183  1.0601  0.2154  0.7112
 9332TIP3   OH227959   4.618   3.202   1.745 -0.4731 -0.0867  0.5055
 9332TIP3    H127960   4.558   3.129   1.733  0.0330 -0.3078 -0.8895
 9332TIP3    H227961   4.562   3.273   1.778 -1.4320 -0.4093 -0.3484
 9333TIP3   OH227962   2.350   5.936   1.056  0.6241 -0.3445  0.1571
 9333TIP3    H127963   2.350   5.924   0.961  0.5437 -0.8058  0.2118
 9333TIP3    H227964   2.441   5.926   1.082  0.6870  0.0580  0.0980
 9334TIP3   OH227965   6.896   6.731   3.009  0.4864  0.7613 -0.0042
 9334TIP3    H127966   6.822   6.675   2.985  3.3692 -1.5826 -4.6999
 9334TIP3    H227967   6.957   6.674   3.055  1.6004  1.2066 -0.8856
 9335TIP3   OH227968   0.979   2.550   5.481  0.2145  0.1415  0.4412
 9335TIP3    H127969   0.980   2.464   5.524  2.5939 -0.3371 -0.3944
 9335TIP3    H227970   1.042   2.602   5.530  0.9823  0.4228 -0.7862
 9336TIP3   OH227971   1.540   5.172   1.897 -0.5184 -0.2247 -0.6252
 9336TIP3    H127972   1.576   5.089   1.865  1.6077  0.9194 -1.4404
 9336TIP3    H227973   1.478   5.198   1.830 -1.3476 -1.2080 -0.2729
 9337TIP3   OH227974   1.918   6.328   1.942  0.1581  0.0793  0.1336
 9337TIP3    H127975   2.010   6.344   1.961 -0.1759  1.4749  0.6713
 9337TIP3    H227976   1.873   6.342   2.026 -0.3308 -2.8071  0.4616
 9338TIP3   OH227977   3.468   5.849   0.923 -0.0249  0.5167 -0.2067
 9338TIP3    H127978   3.491   5.762   0.893  0.9914  1.0911 -1.1670
 9338TIP3    H227979   3.499   5.853   1.013  2.7743  0.8631 -1.0856
 9339TIP3   OH227980   1.347   3.179   0.132 -0.4254  0.4084 -0.0455
 9339TIP3    H127981   1.259   3.155   0.161  0.3924  1.3031  3.6561
 9339TIP3    H227982   1.334   3.255   0.076 -2.0397  0.2418  0.0672
 9340TIP3   OH227983   1.414   5.347   3.110  0.2056 -0.3447 -0.3618
 9340TIP3    H127984   1.470   5.310   3.178 -0.4693 -0.8700 -0.0967
 9340TIP3    H227985   1.476   5.385   3.047  0.8345  0.4077  0.6727
 9341TIP3   OH227986   5.922   4.308   3.653 -0.7097 -0.0849 -0.3609
 9341TIP3    H127987   6.004   4.265   3.630 -0.1846  1.7166 -2.2605
 9341TIP3    H227988   5.855   4.261   3.602 -0.7950 -1.1679  0.7194
 9342TIP3   OH227989   4.670   6.481   1.181 -0.6183  0.5294  0.3938
 9342TIP3    H127990   4.754   6.486   1.227 -0.5019  1.1198  0.1231
 9342TIP3    H227991   4.607   6.454   1.249  0.1028 -1.8359  0.1849
 9343TIP3   OH227992   7.206   5.780   2.139  0.2523  0.0746  0.2638
 9343TIP3    H127993   7.244   5.814   2.220 -0.7717  0.4153  0.6144
 9343TIP3    H227994   7.114   5.766   2.160  0.2682 -1.2056 -0.4172
 9344TIP3   OH227995   4.330   3.653  -0.004  0.1305 -0.4542 -0.4489
 9344TIP3    H127996   4.399   3.694   0.047 -0.4933  0.0345  0.0253
 9344TIP3    H227997   4.359   3.562  -0.016  1.2607 -0.0231 -1.0410
 9345TIP3   OH227998   0.919   5.285   1.874 -0.1281  0.1702 -0.1400
 9345TIP3    H127999   0.869   5.363   1.849  1.9907  0.9893 -2.1510
 9345TIP3    H228000   0.946   5.247   1.791  3.5138  0.4607  0.7667
 9346TIP3   OH228001   3.575   3.702   0.409 -0.4929 -0.0762 -0.5701
 9346TIP3    H128002   3.667   3.729   0.415 -0.2539 -1.0483  0.5020
 9346TIP3    H228003   3.531   3.775   0.365  0.6141  0.8348 -0.2171
 9347TIP3   OH228004   0.452   6.246   1.124  0.5918 -0.3716 -0.0831
 9347TIP3    H128005   0.471   6.152   1.125 -0.4397 -0.5984 -0.6745
 9347TIP3    H228006   0.372   6.254   1.073  1.2189  0.9442 -0.9273
 9348TIP3   OH228007   2.023   2.226   5.591 -0.7697 -0.0367  0.1888
 9348TIP3    H128008   2.055   2.291   5.653 -2.5072  0.0138  1.0675
 9348TIP3    H228009   2.084   2.153   5.600 -0.4692  0.3327  1.2928
 9349TIP3   OH228010   4.387   4.343   5.702 -0.7719  0.0378 -0.3578
 9349TIP3    H128011   4.322   4.272   5.695 -1.0042  0.1244  0.7976
 9349TIP3    H228012   4.409   4.347   5.795 -0.0951  0.9038 -0.5398
 9350TIP3   OH228013   2.630   2.287   1.963 -0.3032 -0.3059 -0.4294
 9350TIP3    H128014   2.537   2.282   1.983  0.0790 -4.9949  1.2780
 9350TIP3    H228015   2.674   2.267   2.045  2.2945  1.0821 -1.3532
 9351TIP3   OH228016   1.506   6.041   1.113  0.5761  0.4441 -0.2552
 9351TIP3    H128017   1.600   6.025   1.121  0.1811 -1.3394  1.3859
 9351TIP3    H228018   1.491   6.045   1.018  2.3403  1.1811 -0.5465
 9352TIP3   OH228019   6.231   0.165   2.449 -0.3721  0.4861 -0.0689
 9352TIP3    H128020   6.254   0.191   2.539  0.7716 -2.2760  0.5266
 9352TIP3    H228021   6.309   0.183   2.398  0.1893 -0.9911  0.2165
 9353TIP3   OH228022   4.181   2.187   2.768  0.3469  0.4690 -0.3383
 9353TIP3    H128023   4.180   2.241   2.689 -0.3930  0.1256 -0.5737
 9353TIP3    H228024   4.249   2.122   2.752  0.0950  0.3058 -0.7623
 9354TIP3   OH228025   4.471   4.290   1.526  0.0745  0.1955 -0.8339
 9354TIP3    H128026   4.550   4.294   1.581 -0.0066  0.2509 -0.7212
 9354TIP3    H228027   4.455   4.197   1.513 -0.1358  0.1752 -0.4335
 9355TIP3   OH228028   5.760   2.365   3.531 -0.6921  0.2167  0.5624
 9355TIP3    H128029   5.695   2.393   3.467  1.0471  1.7272 -0.5979
 9355TIP3    H228030   5.780   2.443   3.582  1.4204  0.2086 -0.1863
 9356TIP3   OH228031   3.193   0.118   0.730  0.1580  0.2580 -0.4297
 9356TIP3    H128032   3.268   0.117   0.670 -0.2887  0.4104 -1.0019
 9356TIP3    H228033   3.155   0.031   0.723 -0.5246  0.5998 -1.1937
 9357TIP3   OH228034   5.959   1.245   2.774  0.0624  0.1748  0.4045
 9357TIP3    H128035   5.995   1.285   2.853 -1.2603  1.5320  0.3577
 9357TIP3    H228036   5.879   1.294   2.756  1.0157  0.8551 -2.5770
 9358TIP3   OH228037   0.672   6.740   4.983  0.1987  0.7277 -0.0128
 9358TIP3    H128038   0.641   6.830   4.974  0.6233  0.9183  0.3972
 9358TIP3    H228039   0.757   6.738   4.939  0.4087  0.6498  0.3880
 9359TIP3   OH228040   1.664   5.399   1.435 -0.4842  0.3511 -0.2242
 9359TIP3    H128041   1.691   5.376   1.524 -0.5647  0.5019 -0.1595
 9359TIP3    H228042   1.597   5.466   1.447  1.3527  2.3613 -0.4201
 9360TIP3   OH228043   4.940   2.500   3.265 -0.2738 -0.1747 -0.5211
 9360TIP3    H128044   4.942   2.404   3.257 -1.2136 -0.3889  1.2651
 9360TIP3    H228045   4.961   2.516   3.357 -1.5421  1.2535 -0.4562
 9361TIP3   OH228046   2.572   4.585   4.433 -0.0620 -0.5528 -0.2077
 9361TIP3    H128047   2.577   4.489   4.436 -2.2075 -0.7029  1.1171
 9361TIP3    H228048   2.616   4.613   4.513 -1.0924 -0.5747  0.3813
 9362TIP3   OH228049   0.851   1.968   1.871 -0.2196 -0.1625  0.8355
 9362TIP3    H128050   0.761   1.991   1.849 -0.0513  0.8415  1.1390
 9362TIP3    H228051   0.870   1.891   1.818 -0.5701  0.8372 -0.8082
 9363TIP3   OH228052   3.611   0.386   5.211  0.2962  0.5635 -0.3859
 9363TIP3    H128053   3.609   0.480   5.228  0.8489  0.4979  0.0431
 9363TIP3    H228054   3.695   0.356   5.245  1.2074  0.3173 -2.6251
 9364TIP3   OH228055   0.212   1.928   4.482 -0.1061  0.3405 -0.0820
 9364TIP3    H128056   0.301   1.937   4.448  1.0743  0.6273  2.8125
 9364TIP3    H228057   0.180   2.017   4.491  0.5474  0.4158  1.7702
 9365TIP3   OH228058   2.889   1.191   3.556 -0.3330 -0.2003 -0.2074
 9365TIP3    H128059   2.844   1.199   3.472  0.4923  2.3452 -0.4626
 9365TIP3    H228060   2.974   1.152   3.534 -0.9531 -1.6277 -0.2022
 9366TIP3   OH228061   3.683   0.546   5.760  0.1901 -0.5186 -0.6303
 9366TIP3    H128062   3.659   0.625   5.808  1.3009 -2.1440  2.9193
 9366TIP3    H228063   3.698   0.480   5.827 -0.9144 -3.9025 -3.3992
 9367TIP3   OH228064   5.577   1.068   1.800  0.0854 -0.3866  0.3020
 9367TIP3    H128065   5.609   1.080   1.710  1.7425  1.4176  1.0829
 9367TIP3    H228066   5.503   1.128   1.807  0.0295 -0.4419  0.1968
 9368TIP3   OH228067   5.587   2.380   1.071  0.2349 -0.0587  0.4935
 9368TIP3    H128068   5.564   2.340   0.987 -2.6567  2.6205 -0.1854
 9368TIP3    H228069   5.637   2.458   1.047 -1.1342  1.0600  1.1390
 9369TIP3   OH228070   6.224   6.056   3.606  0.2542 -0.1176  0.0483
 9369TIP3    H128071   6.186   6.019   3.686 -3.2440  3.1647  0.1949
 9369TIP3    H228072   6.311   6.085   3.633 -0.0706 -0.9031  2.1256
 9370TIP3   OH228073   5.076   6.520   1.639 -0.0691  0.2894 -0.0335
 9370TIP3    H128074   5.144   6.587   1.646  0.2475 -0.0444  0.1369
 9370TIP3    H228075   5.001   6.557   1.685 -0.9120  1.7796 -2.4374
 9371TIP3   OH228076   3.273   5.631   4.146  0.0211  0.3129 -0.0436
 9371TIP3    H128077   3.255   5.654   4.237  0.9023 -1.5633  0.6489
 9371TIP3    H228078   3.332   5.701   4.115 -1.3944  1.7396  0.3293
 9372TIP3   OH228079   4.396   2.882   2.117  0.6561 -0.4177 -0.3113
 9372TIP3    H128080   4.317   2.889   2.063  0.4141  3.2164  0.2121
 9372TIP3    H228081   4.462   2.931   2.068  2.0041 -1.6176  0.2565
 9373TIP3   OH228082   6.302   4.210   2.108  0.0859  0.0775  0.5563
 9373TIP3    H128083   6.240   4.213   2.036  1.4847  1.5460 -0.6638
 9373TIP3    H228084   6.321   4.302   2.128  1.3771 -0.3195  1.3237
 9374TIP3   OH228085   1.208   4.388   2.798 -0.3742  0.2351 -0.0295
 9374TIP3    H128086   1.220   4.352   2.710  2.5713 -0.5150  0.5966
 9374TIP3    H228087   1.290   4.433   2.818 -1.7146  2.1836  1.6001
 9375TIP3   OH228088   5.791   0.903   4.766 -0.2093  0.3587  0.1603
 9375TIP3    H128089   5.787   0.922   4.859  0.0644 -0.8817  0.4452
 9375TIP3    H228090   5.883   0.918   4.742 -0.3833  1.1649 -0.0341
 9376TIP3   OH228091   0.185   0.130   1.102  0.0157  0.1876  0.0145
 9376TIP3    H128092   0.124   0.203   1.089 -1.7874 -0.6865  2.7212
 9376TIP3    H228093   0.152   0.062   1.044  1.6727  1.3473 -2.4831
 9377TIP3   OH228094   6.323   3.879   2.432 -0.5902  0.0146  0.7245
 9377TIP3    H128095   6.276   3.846   2.508  2.8020 -2.4242  1.9557
 9377TIP3    H228096   6.291   3.826   2.359  0.5638 -2.0559  1.6537
 9378TIP3   OH228097   2.033   1.414   1.299  0.2730 -0.2877  0.8176
 9378TIP3    H128098   1.964   1.353   1.326 -0.0815  0.0274  0.6311
 9378TIP3    H228099   1.986   1.486   1.257  0.5407  0.8801  2.4075
 9379TIP3   OH228100   3.390   5.853   5.183 -0.8392 -0.5948  0.0929
 9379TIP3    H128101   3.394   5.890   5.271  0.5432 -1.7365  0.5553
 9379TIP3    H228102   3.315   5.896   5.142 -1.4595  0.0235  1.7919
 9380TIP3   OH228103   5.417   4.076   0.177  0.4849  0.1164  0.0984
 9380TIP3    H128104   5.350   4.077   0.109 -0.4363  2.8084  0.9270
 9380TIP3    H228105   5.500   4.073   0.129 -0.1699 -0.4653 -1.0391
 9381TIP3   OH228106   3.533   0.393   3.898  0.0411  0.2503  0.2408
 9381TIP3    H128107   3.501   0.336   3.828  0.9205 -1.5469  1.2430
 9381TIP3    H228108   3.627   0.402   3.881  0.2107  0.0299  1.0261
 9382TIP3   OH228109   5.843   6.368   1.417 -0.1922  0.3003 -0.7833
 9382TIP3    H128110   5.870   6.409   1.499 -0.2141 -0.5550 -0.3379
 9382TIP3    H228111   5.867   6.276   1.427  0.9714  0.4113 -2.2457
 9383TIP3   OH228112   1.404   1.351   4.884 -0.2418 -0.3144  0.1477
 9383TIP3    H128113   1.455   1.314   4.813  1.3778  2.7353 -0.4612
 9383TIP3    H228114   1.465   1.358   4.957 -1.0405 -0.5872  0.8655
 9384TIP3   OH228115   2.013   2.885   1.334 -0.0591  0.2128 -0.2393
 9384TIP3    H128116   2.099   2.856   1.364  0.6010  1.5526 -0.7409
 9384TIP3    H228117   1.983   2.946   1.402 -0.3943  0.1136 -0.2956
 9385TIP3   OH228118   3.224   1.670   1.475 -0.0963  0.5829 -0.2163
 9385TIP3    H128119   3.269   1.587   1.494 -0.2098  0.5499 -0.0882
 9385TIP3    H228120   3.273   1.707   1.402  1.0573  1.2635  0.8733
 9386TIP3   OH228121   4.524   2.641   3.843 -0.0239 -0.1782  0.1161
 9386TIP3    H128122   4.552   2.684   3.923  1.2548  1.5308 -1.1704
 9386TIP3    H228123   4.462   2.702   3.803  0.2695 -0.4427 -0.7682
 9387TIP3   OH228124   0.343   0.794   3.103  0.1831 -0.3682  0.5270
 9387TIP3    H128125   0.259   0.804   3.147 -1.3338 -1.2749 -1.9811
 9387TIP3    H228126   0.326   0.735   3.030  2.8695 -0.0746 -0.4741
 9388TIP3   OH228127   5.409   6.177   1.851 -0.5277  0.5319  0.5432
 9388TIP3    H128128   5.444   6.205   1.767 -2.1830 -1.1899 -0.8088
 9388TIP3    H228129   5.328   6.227   1.861 -1.3268 -0.6271  0.1347
 9389TIP3   OH228130   7.002   2.293   5.222  0.2352  0.1138  0.5247
 9389TIP3    H128131   7.006   2.250   5.307  0.2552 -0.7381  0.1031
 9389TIP3    H228132   7.052   2.236   5.163 -0.1534  0.4544 -0.1563
 9390TIP3   OH228133   3.133   0.933   3.639  0.0399  0.0631 -0.0990
 9390TIP3    H128134   3.131   0.869   3.711 -2.0193 -0.7123 -0.7724
 9390TIP3    H228135   3.163   1.013   3.681 -0.1091 -0.6207  1.4243
 9391TIP3   OH228136   6.510   5.442   1.092  0.0051 -0.0574  0.0217
 9391TIP3    H128137   6.430   5.395   1.113 -0.4340  0.0944 -1.2363
 9391TIP3    H228138   6.495   5.478   1.005  1.7061 -0.6133 -0.5486
 9392TIP3   OH228139   5.999   4.683   0.441  0.1012 -0.5256  0.3790
 9392TIP3    H128140   6.036   4.672   0.529 -0.5761 -0.3018  0.7000
 9392TIP3    H228141   6.053   4.627   0.385  0.9655 -0.1453  0.8149
 9393TIP3   OH228142   6.697   0.064   1.718  0.0965  0.6898 -0.5995
 9393TIP3    H128143   6.658   0.045   1.803 -1.0331  0.1286 -1.2201
 9393TIP3    H228144   6.732   0.153   1.727 -1.3474  1.2342  0.0035
 9394TIP3   OH228145   3.294   6.300   3.488  0.2241  0.4054  0.3026
 9394TIP3    H128146   3.273   6.218   3.533  1.4134  0.3910  0.8720
 9394TIP3    H228147   3.298   6.276   3.396 -0.9100  0.1543  0.2924
 9395TIP3   OH228148   5.187   2.124   1.543 -0.8009  0.5740  0.2474
 9395TIP3    H128149   5.254   2.060   1.519 -0.2011  0.7629  1.3305
 9395TIP3    H228150   5.228   2.177   1.612 -2.8708 -0.9661  2.8890
 9396TIP3   OH228151   0.876   0.810   4.060 -0.2832 -0.0034  0.0911
 9396TIP3    H128152   0.935   0.796   3.987  0.6488 -0.2042  0.8713
 9396TIP3    H228153   0.845   0.723   4.083  1.6822 -0.3388  1.7648
 9397TIP3   OH228154   4.812   3.279   5.580  0.2130  0.4122  0.1120
 9397TIP3    H128155   4.839   3.281   5.672 -1.5368 -0.8220  0.7037
 9397TIP3    H228156   4.742   3.213   5.577  0.0636  0.6061 -2.0642
 9398TIP3   OH228157   7.178   3.666   3.682  0.4959  0.2470 -0.9615
 9398TIP3    H128158   7.239   3.661   3.755 -3.3669 -0.1133  2.5578
 9398TIP3    H228159   7.171   3.760   3.662 -0.0267  0.5853  0.7104
 9399TIP3   OH228160   2.138   0.220   4.417  0.1346 -0.5497  0.1592
 9399TIP3    H128161   2.196   0.206   4.343  0.9597 -0.7826  0.8292
 9399TIP3    H228162   2.139   0.314   4.431  2.8222 -0.7556  2.0407
 9400TIP3   OH228163   1.377   3.158   0.679  0.2717  0.2167 -0.6996
 9400TIP3    H128164   1.421   3.223   0.735 -2.6352  0.9137  0.9500
 9400TIP3    H228165   1.330   3.211   0.615  0.8690 -0.4663 -1.7227
 9401TIP3   OH228166   3.254   5.049   4.086  0.0668  0.0266  0.2210
 9401TIP3    H128167   3.246   5.144   4.094  0.1103  0.1451 -0.9144
 9401TIP3    H228168   3.170   5.015   4.116  0.0076  0.4275  0.5239
 9402TIP3   OH228169   2.976   1.372   0.059  0.1704 -0.3853  0.0935
 9402TIP3    H128170   2.902   1.348   0.114 -0.0584  0.0957  0.0040
 9402TIP3    H228171   3.016   1.289   0.035 -1.3301 -0.7726 -1.2295
 9403TIP3   OH228172   2.259   2.143   3.604  0.5289 -0.0488 -0.7228
 9403TIP3    H128173   2.341   2.138   3.556  0.5656  1.0456 -0.8034
 9403TIP3    H228174   2.273   2.213   3.669  0.9955 -2.3990  1.9182
 9404TIP3   OH228175   4.534   6.088   4.637 -0.3601 -0.1608 -0.0656
 9404TIP3    H128176   4.586   6.140   4.576  0.1228  0.4382  0.8259
 9404TIP3    H228177   4.580   6.004   4.642 -1.4334 -0.9070 -1.9097
 9405TIP3   OH228178   4.251   0.201   3.252  0.1100 -1.1041  0.2508
 9405TIP3    H128179   4.267   0.265   3.322  0.3698 -0.7206 -0.1572
 9405TIP3    H228180   4.165   0.224   3.217  1.0205  0.2873 -1.2143
 9406TIP3   OH228181   5.577   0.607   2.121  0.1953  0.4381 -0.1737
 9406TIP3    H128182   5.584   0.559   2.038  1.6203  0.7127 -0.2504
 9406TIP3    H228183   5.487   0.638   2.124 -0.1066 -0.2915 -1.2234
 9407TIP3   OH228184   6.040   4.830   0.994  0.0809 -0.0514 -0.0614
 9407TIP3    H128185   6.030   4.920   1.025  1.1821  0.1263 -0.1619
 9407TIP3    H228186   5.960   4.786   1.021 -1.8290  1.6394 -2.4546
 9408TIP3   OH228187   4.646   4.284   0.506  0.2111 -0.1650  0.0036
 9408TIP3    H128188   4.661   4.377   0.524  1.9757 -0.4642  0.3012
 9408TIP3    H228189   4.551   4.275   0.501  0.0200  1.7426 -0.5145
 9409TIP3   OH228190   7.114   5.909   3.096  0.2927  0.1780  0.5652
 9409TIP3    H128191   7.019   5.897   3.093  0.3888 -0.4538 -0.3796
 9409TIP3    H228192   7.133   5.976   3.030  0.6673 -1.0404 -0.6171
 9410TIP3   OH228193   3.413   5.899   3.556 -0.0027  0.9070  0.3369
 9410TIP3    H128194   3.489   5.873   3.607  0.8333  2.5932  0.0299
 9410TIP3    H228195   3.362   5.955   3.615 -2.0481 -1.6053  1.1769
 9411TIP3   OH228196   4.484   4.257   4.293 -0.9022 -0.3761 -0.1166
 9411TIP3    H128197   4.445   4.307   4.365  0.7255  0.5811  0.1530
 9411TIP3    H228198   4.562   4.307   4.269  0.1301 -2.1620 -0.6547
 9412TIP3   OH228199   5.879   4.675   3.067 -0.1366  0.0981 -0.1453
 9412TIP3    H128200   5.891   4.620   2.990 -0.5129 -0.2134  0.0135
 9412TIP3    H228201   5.956   4.659   3.121 -1.2128 -1.9156  0.8907
 9413TIP3   OH228202   1.195   4.211   5.823  0.2854 -0.0146  0.3620
 9413TIP3    H128203   1.156   4.268   5.756 -0.2105 -1.6783 -0.8320
 9413TIP3    H228204   1.123   4.189   5.881  0.6418  1.1456  1.2810
 9414TIP3   OH228205   4.183   2.552   3.522 -0.3145 -0.5933 -0.0794
 9414TIP3    H128206   4.144   2.478   3.570 -1.7921 -0.4095 -0.9236
 9414TIP3    H228207   4.108   2.606   3.498  0.3595 -0.6810 -2.6129
 9415TIP3   OH228208   4.760   2.803   5.217 -0.1868 -0.2016  0.3228
 9415TIP3    H128209   4.803   2.775   5.297  1.5935  2.4176  0.4252
 9415TIP3    H228210   4.671   2.826   5.245  0.0647 -0.3808  1.3199
 9416TIP3   OH228211   3.907   0.748   1.308 -0.5140 -0.4103  0.1997
 9416TIP3    H128212   3.858   0.727   1.229 -0.0252  1.1980 -0.5821
 9416TIP3    H228213   3.998   0.731   1.286 -0.1782  1.5958 -0.2282
 9417TIP3   OH228214   3.809   2.551   4.695  0.3426 -0.2631  0.2105
 9417TIP3    H128215   3.897   2.578   4.668  0.0590 -0.3803 -0.8832
 9417TIP3    H228216   3.811   2.455   4.687 -0.0221 -0.2323 -0.2810
 9418TIP3   OH228217   1.500   0.950   5.481 -0.4313  0.2919  0.3836
 9418TIP3    H128218   1.455   0.948   5.396 -0.9213  2.4622  0.5514
 9418TIP3    H228219   1.477   1.035   5.519  0.9660 -0.0275  2.0630
 9419TIP3   OH228220   2.481   4.775   2.214  0.3901 -0.3410  0.0983
 9419TIP3    H128221   2.548   4.801   2.278  1.6306 -3.2724  0.1371
 9419TIP3    H228222   2.432   4.706   2.258 -0.7436 -0.2978 -1.0440
 9420TIP3   OH228223   1.335   1.982   5.776 -0.1033 -0.0353 -0.5299
 9420TIP3    H128224   1.310   1.969   5.684 -2.2026  1.5642 -0.2401
 9420TIP3    H228225   1.257   1.960   5.826  0.5929  0.4255  0.8114
 9421TIP3   OH228226   4.548   3.814   1.017  0.1719  0.6585 -0.2004
 9421TIP3    H128227   4.466   3.780   0.982 -0.3152  2.4916 -0.9940
 9421TIP3    H228228   4.538   3.909   1.013  1.9173  0.9261  0.7135
 9422TIP3   OH228229   2.175   0.495   2.277  0.4101  0.5021 -0.6586
 9422TIP3    H128230   2.178   0.582   2.237 -3.1533  0.9243 -0.4065
 9422TIP3    H228231   2.102   0.500   2.339  0.2499 -2.5619 -0.4254
 9423TIP3   OH228232   7.094   6.342   5.714 -0.3976  0.0090 -0.1633
 9423TIP3    H128233   7.160   6.298   5.660  0.2944  0.3291  0.4049
 9423TIP3    H228234   7.136   6.353   5.799 -0.3518  2.1848 -0.4075
 9424TIP3   OH228235   1.520   1.812   4.114 -0.6260 -0.2412 -0.2125
 9424TIP3    H128236   1.584   1.808   4.043 -0.2169  1.1059  0.0434
 9424TIP3    H228237   1.446   1.860   4.077 -0.7393 -0.2209  0.0359
 9425TIP3   OH228238   3.320   1.418   1.555  0.8935 -0.0861 -0.5823
 9425TIP3    H128239   3.299   1.336   1.509 -0.6713 -0.8467  1.3440
 9425TIP3    H228240   3.413   1.432   1.538  1.0373 -1.8792 -1.5496
 9426TIP3   OH228241   5.646   5.377   5.163 -0.5055  0.5353 -0.0481
 9426TIP3    H128242   5.680   5.390   5.252  0.5390  0.6271 -0.4413
 9426TIP3    H228243   5.573   5.439   5.155 -1.4692 -0.4025  1.1749
 9427TIP3   OH228244   0.483   2.676   5.645  0.2215 -0.9174 -0.1171
 9427TIP3    H128245   0.487   2.606   5.580  0.0957  0.2177 -1.4002
 9427TIP3    H228246   0.566   2.724   5.633  0.1800 -0.6677  0.5392
 9428TIP3   OH228247   1.976   2.731   0.267  0.0450 -0.3069  0.4731
 9428TIP3    H128248   1.903   2.756   0.209 -1.0168 -1.3276  1.3152
 9428TIP3    H228249   1.967   2.789   0.342 -0.5525 -1.1226  1.0446
 9429TIP3   OH228250   5.128   3.318   1.739 -0.3688 -0.3423 -0.5545
 9429TIP3    H128251   5.048   3.274   1.712 -0.5428 -1.1758  1.1702
 9429TIP3    H228252   5.142   3.288   1.829  1.5667  0.2406 -0.6277
 9430TIP3   OH228253   0.487   6.445   0.940  0.5244 -0.2594  0.2858
 9430TIP3    H128254   0.501   6.387   0.865  0.5063 -2.9401  2.2143
 9430TIP3    H228255   0.491   6.387   1.017 -0.3463  2.1841  2.3287
 9431TIP3   OH228256   5.079   0.322   3.695 -0.0563 -0.7156  0.2914
 9431TIP3    H128257   5.056   0.398   3.748 -2.2570  0.0926 -1.6528
 9431TIP3    H228258   5.163   0.292   3.731 -0.2784  1.1773  2.6210
 9432TIP3   OH228259   0.502   5.392   3.991 -0.6055  0.3446  0.2217
 9432TIP3    H128260   0.590   5.397   4.029 -0.9694  0.7699  1.0437
 9432TIP3    H228261   0.445   5.427   4.060 -1.5081 -0.6555 -0.0011
 9433TIP3   OH228262   4.070   3.993   1.534 -0.4109 -0.0536  0.1519
 9433TIP3    H128263   4.008   4.056   1.571  0.4408 -0.3655  2.2663
 9433TIP3    H228264   4.129   3.972   1.607  0.1089 -2.3271 -0.8521
 9434TIP3   OH228265   5.004   0.358   0.512 -0.0390  0.3305 -0.0271
 9434TIP3    H128266   5.051   0.380   0.432 -1.2430  3.5617  0.0329
 9434TIP3    H228267   4.930   0.305   0.482 -0.5565  1.6218 -1.1138
 9435TIP3   OH228268   5.459   2.032   5.254 -0.4461 -0.0502  0.0763
 9435TIP3    H128269   5.397   1.961   5.270 -1.0116  0.3267 -0.4036
 9435TIP3    H228270   5.467   2.077   5.338 -0.0980 -0.6566  0.3809
 9436TIP3   OH228271   4.362   3.388   1.403 -0.4800  0.4637 -0.5593
 9436TIP3    H128272   4.442   3.371   1.453 -1.3549  0.0054  0.7565
 9436TIP3    H228273   4.372   3.338   1.322  0.4351  0.1915 -0.2857
 9437TIP3   OH228274   3.919   5.297   1.397  0.4663 -0.3711 -0.5330
 9437TIP3    H128275   3.931   5.287   1.491 -2.5514 -2.2472 -0.2149
 9437TIP3    H228276   3.908   5.208   1.364  0.2023  0.3050 -2.4441
 9438TIP3   OH228277   4.302   1.464   4.462 -0.3130 -0.0951  0.2002
 9438TIP3    H128278   4.340   1.484   4.547  1.2652  0.9265 -0.6877
 9438TIP3    H228279   4.305   1.368   4.456  1.4375 -0.0795  0.4971
 9439TIP3   OH228280   3.223   4.007   4.001 -0.0975  0.2569  0.1372
 9439TIP3    H128281   3.178   3.947   4.061 -1.8895  1.8957  0.5184
 9439TIP3    H228282   3.269   4.068   4.058  3.1834 -1.6427 -0.2403
 9440TIP3   OH228283   2.741   1.618   0.844  0.2775  0.4404 -0.3868
 9440TIP3    H128284   2.813   1.613   0.907  0.3942 -1.7199 -0.6069
 9440TIP3    H228285   2.674   1.670   0.889  1.4308  1.3067  0.3816
 9441TIP3   OH228286   2.069   2.951   3.293  0.2347 -0.1087  0.1327
 9441TIP3    H128287   1.974   2.952   3.284  0.1833  0.7454  0.6616
 9441TIP3    H228288   2.097   2.873   3.245 -0.7737 -0.6991  0.4836
 9442TIP3   OH228289   6.545   3.221   0.754 -0.4686  0.6515 -0.8782
 9442TIP3    H128290   6.509   3.307   0.733 -0.0460  1.0409 -0.0526
 9442TIP3    H228291   6.570   3.184   0.669 -2.1270  0.6597 -1.3934
 9443TIP3   OH228292   7.175   0.116   1.794  0.2889  0.2045 -0.1132
 9443TIP3    H128293   7.141   0.104   1.883 -1.6037 -0.7089 -0.8976
 9443TIP3    H228294   7.224   0.198   1.798 -2.2126  1.7770  1.1443
 9444TIP3   OH228295   1.547   2.821   4.330  0.0848 -0.0341  0.1169
 9444TIP3    H128296   1.517   2.732   4.349  0.0708 -0.0440  0.0488
 9444TIP3    H228297   1.618   2.809   4.266 -0.5090  0.0581 -0.5811
 9445TIP3   OH228298   6.531   3.694   1.537 -0.5010 -0.1401  0.0118
 9445TIP3    H128299   6.452   3.641   1.551 -1.3314  1.2281  0.7743
 9445TIP3    H228300   6.551   3.682   1.444 -0.1449 -2.4181  0.3327
 9446TIP3   OH228301   6.529   4.091   2.200  0.3941  0.2628  0.4557
 9446TIP3    H128302   6.543   4.142   2.280 -0.6521  0.0306  0.7944
 9446TIP3    H228303   6.459   4.137   2.154 -0.5453 -0.8455  0.7506
 9447TIP3   OH228304   2.164   1.611   1.921 -0.2548 -0.0342  0.1089
 9447TIP3    H128305   2.193   1.526   1.889 -1.9587 -0.6978  0.2032
 9447TIP3    H228306   2.171   1.605   2.016 -1.5307 -0.5714  0.1992
 9448TIP3   OH228307   3.855   5.619   2.978  0.1439 -0.2550  0.5801
 9448TIP3    H128308   3.793   5.685   3.009 -1.9313 -1.7709 -0.1253
 9448TIP3    H228309   3.923   5.617   3.045 -0.6856  1.2763  1.5339
 9449TIP3   OH228310   2.979   6.408   5.155  0.5518 -0.1935 -0.2470
 9449TIP3    H128311   3.070   6.432   5.139  0.6873 -1.1452 -0.9642
 9449TIP3    H228312   2.951   6.366   5.074 -0.6398  0.4073 -0.1702
 9450TIP3   OH228313   3.187   4.785   3.979 -0.0846  0.3935 -0.3587
 9450TIP3    H128314   3.270   4.763   4.020 -0.1907  0.7060  0.0265
 9450TIP3    H228315   3.138   4.831   4.047 -0.4048  0.5862 -0.7166
 9451TIP3   OH228316   2.792   6.600   1.144 -0.2040 -0.0291 -0.4646
 9451TIP3    H128317   2.818   6.654   1.069  0.5354  0.2031 -0.0482
 9451TIP3    H228318   2.740   6.530   1.106  0.9100 -0.4189 -1.3125
 9452TIP3   OH228319   2.420   4.597   0.134 -0.1244 -0.1836 -0.1708
 9452TIP3    H128320   2.376   4.662   0.079 -0.1025 -0.8621 -1.0083
 9452TIP3    H228321   2.399   4.624   0.223  1.3526  2.0252 -0.3977
 9453TIP3   OH228322   1.922   0.024   1.537 -0.0058  0.7487 -0.4800
 9453TIP3    H128323   2.005   0.067   1.513  0.5654 -0.3538 -0.5576
 9453TIP3    H228324   1.939  -0.016   1.622 -1.0231  1.9567  0.3166
 9454TIP3   OH228325   0.303   2.682   0.349 -0.4483 -0.1638 -0.0045
 9454TIP3    H128326   0.305   2.732   0.430 -0.0241 -0.0055 -0.1104
 9454TIP3    H228327   0.250   2.605   0.369 -0.1676 -0.2316  0.4833
 9455TIP3   OH228328   5.067   3.013   2.698 -0.5160  0.0905  0.1411
 9455TIP3    H128329   5.163   3.019   2.698 -0.5126  0.2214  0.9765
 9455TIP3    H228330   5.037   3.094   2.657 -0.2839  0.6720  1.0850
 9456TIP3   OH228331   2.755   1.170   2.820 -0.0044 -0.2636  0.6409
 9456TIP3    H128332   2.716   1.230   2.756 -1.1965 -0.9486  0.6918
 9456TIP3    H228333   2.803   1.228   2.880 -0.6602  0.5944  0.3722
 9457TIP3   OH228334   4.376   4.851   3.805  0.3582  0.0028 -0.1681
 9457TIP3    H128335   4.395   4.887   3.891  2.3563  0.8475 -0.9120
 9457TIP3    H228336   4.284   4.871   3.790  0.5222  1.7168  0.9017
 9458TIP3   OH228337   6.290   2.507   5.341  0.3037  0.2559  0.1576
 9458TIP3    H128338   6.227   2.559   5.391  1.1975  1.7705 -0.2344
 9458TIP3    H228339   6.267   2.523   5.250  1.3057  0.9389  0.0044
 9459TIP3   OH228340   2.392   3.102   1.330 -0.3207 -0.2146  0.3731
 9459TIP3    H128341   2.317   3.141   1.375 -0.8709 -0.5207 -0.2568
 9459TIP3    H228342   2.438   3.054   1.399 -0.9724 -0.4150  0.6817
 9460TIP3   OH228343   6.163   1.534   4.668 -0.4464 -0.2008  0.2614
 9460TIP3    H128344   6.179   1.628   4.671  0.4490 -0.3153 -0.5014
 9460TIP3    H228345   6.153   1.509   4.760 -1.9953  0.8270  0.4191
 9461TIP3   OH228346   4.876   1.188   2.901  0.8608 -0.3338 -0.2999
 9461TIP3    H128347   4.913   1.105   2.871  1.3102 -0.6803  1.1326
 9461TIP3    H228348   4.841   1.169   2.987  1.8251  1.1750  0.4754
 9462TIP3   OH228349   4.148   5.850   1.664  0.5979 -0.2058 -0.0610
 9462TIP3    H128350   4.204   5.854   1.586  0.8100  0.9600  0.1419
 9462TIP3    H228351   4.173   5.927   1.715  0.9202 -1.2835  1.4743
 9463TIP3   OH228352   6.898   5.632   3.249 -0.2355 -0.1519 -0.2525
 9463TIP3    H128353   6.922   5.722   3.230 -1.5998 -0.0276 -1.6601
 9463TIP3    H228354   6.978   5.591   3.282  0.6336  1.3377 -0.4465
 9464TIP3   OH228355   3.833   5.264   4.461  0.4550  0.1602 -0.5720
 9464TIP3    H128356   3.835   5.291   4.369 -1.2326 -0.2636 -0.7645
 9464TIP3    H228357   3.740   5.260   4.483  0.7749 -1.3540  0.6817
 9465TIP3   OH228358   4.756   2.393   0.579  0.1356 -0.5505 -0.2205
 9465TIP3    H128359   4.728   2.342   0.655 -0.0352 -1.8898 -1.1435
 9465TIP3    H228360   4.713   2.351   0.504 -0.1969  1.1025 -1.0210
 9466TIP3   OH228361   3.697   6.418   2.329  0.2430 -0.1565 -0.3819
 9466TIP3    H128362   3.654   6.503   2.334  0.4950  0.1831 -2.6761
 9466TIP3    H228363   3.673   6.373   2.410 -2.0435  1.0991 -0.2953
 9467TIP3   OH228364   1.702   2.154   4.952  0.1205  0.2006  0.2861
 9467TIP3    H128365   1.703   2.142   4.857  2.4057 -1.7433  0.4584
 9467TIP3    H228366   1.635   2.093   4.983  0.1813 -0.0152 -0.0013
 9468TIP3   OH228367   4.299   4.761   4.235 -0.2599 -0.2438  0.2165
 9468TIP3    H128368   4.390   4.732   4.227 -0.2492 -0.1342 -0.0843
 9468TIP3    H228369   4.288   4.782   4.327  0.5707  1.5053 -0.0464
 9469TIP3   OH228370   6.080   5.969   3.858  0.2658 -0.1679 -0.0825
 9469TIP3    H128371   6.040   6.054   3.877  0.9497  0.2648 -0.5090
 9469TIP3    H228372   6.119   5.942   3.941  0.5478  0.2177 -0.0873
 9470TIP3   OH228373   4.298   5.594   5.260 -0.1140  0.0565 -0.4034
 9470TIP3    H128374   4.299   5.498   5.263 -1.0247  0.0359  1.7484
 9470TIP3    H228375   4.242   5.615   5.185 -0.1081 -1.1053 -0.7551
 9471TIP3   OH228376   2.097   1.483   2.455  0.0437  0.1169  0.5144
 9471TIP3    H128377   2.121   1.568   2.418  1.2424  0.0258  1.0285
 9471TIP3    H228378   2.011   1.464   2.418  0.8358  0.3992 -1.6222
 9472TIP3   OH228379   0.433   6.248   3.558  0.0222  0.2928 -0.1989
 9472TIP3    H128380   0.477   6.187   3.500 -1.4844  0.1666 -1.2684
 9472TIP3    H228381   0.353   6.203   3.585  0.6417  0.3694  1.9779
 9473TIP3   OH228382   1.398   2.449   4.862  0.3838  0.0001  0.4165
 9473TIP3    H128383   1.406   2.500   4.782 -1.0421  0.1328  0.3261
 9473TIP3    H228384   1.389   2.515   4.931 -0.1987 -0.1062  0.4511
 9474TIP3   OH228385   3.060   2.197   3.790 -0.0726  0.4273  0.3560
 9474TIP3    H128386   3.054   2.289   3.816 -0.6534  0.9650 -1.5157
 9474TIP3    H228387   3.047   2.198   3.695 -0.1481 -1.5992  0.2999
 9475TIP3   OH228388   4.804   0.357   3.605  0.6883 -0.1595 -0.5042
 9475TIP3    H128389   4.776   0.421   3.540 -0.9823 -0.3205  0.0093
 9475TIP3    H228390   4.897   0.343   3.587  1.7398  4.0217  0.7467
 9476TIP3   OH228391   1.790   6.048   2.747 -0.3330 -0.2001 -0.0835
 9476TIP3    H128392   1.722   5.989   2.781 -3.4289  1.8472 -2.2369
 9476TIP3    H228393   1.842   6.071   2.824 -2.0581 -1.8448  1.6953
 9477TIP3   OH228394   0.182   6.552   2.653 -0.0024  0.5568 -0.2219
 9477TIP3    H128395   0.139   6.468   2.633  0.1495  0.1053  1.1906
 9477TIP3    H228396   0.233   6.572   2.575  0.6497 -1.1317 -0.2807
 9478TIP3   OH228397   1.744   4.993   3.070 -0.4727  0.8564  0.0666
 9478TIP3    H128398   1.688   5.041   3.010 -0.2385  0.7520 -0.2359
 9478TIP3    H228399   1.794   5.062   3.115  0.3240  0.8783 -0.8201
 9479TIP3   OH228400   2.992   3.965   0.402  0.0939 -0.3559 -0.4825
 9479TIP3    H128401   3.085   3.944   0.409 -0.1304 -1.5775 -0.8187
 9479TIP3    H228402   2.953   3.921   0.478 -0.2498 -0.1669 -0.5527
 9480TIP3   OH228403   4.259   2.959   3.257  0.6718 -0.6105 -0.0945
 9480TIP3    H128404   4.190   2.993   3.200  0.8432  1.1540  0.6836
 9480TIP3    H228405   4.299   2.888   3.207 -1.6551 -1.6857 -0.5910
 9481TIP3   OH228406   1.566   0.721   2.262 -0.6033 -0.1692  0.0938
 9481TIP3    H128407   1.639   0.760   2.310 -1.3910  3.6173 -1.4516
 9481TIP3    H228408   1.608   0.667   2.195  0.8152  1.5840 -0.4987
 9482TIP3   OH228409   2.842   5.351   2.378 -0.1879  0.4891  1.0499
 9482TIP3    H128410   2.784   5.286   2.417 -1.1386  0.3642 -0.4978
 9482TIP3    H228411   2.923   5.304   2.361 -0.3899  0.0854  1.1920
 9483TIP3   OH228412   5.930   6.282   4.603  0.1205  0.1573  0.0392
 9483TIP3    H128413   5.870   6.354   4.586 -0.5041 -0.3647  0.0160
 9483TIP3    H228414   5.932   6.273   4.698 -1.3967 -1.1117 -0.0187
 9484TIP3   OH228415   5.590   3.808   4.579  0.2439  0.8734 -0.7191
 9484TIP3    H128416   5.516   3.758   4.612  1.6426 -1.7666 -1.3354
 9484TIP3    H228417   5.553   3.858   4.506 -1.1464  0.4941 -0.3186
 9485TIP3   OH228418   2.743   6.188   2.144 -0.4095  0.0287  0.3923
 9485TIP3    H128419   2.740   6.248   2.069  1.2057  0.1164  0.3730
 9485TIP3    H228420   2.660   6.140   2.140 -0.8639  0.8738 -0.7393
 9486TIP3   OH228421   6.919   6.627   0.824  0.0694  0.2070  0.3792
 9486TIP3    H128422   6.860   6.702   0.834  0.4529  0.7478 -1.0964
 9486TIP3    H228423   6.947   6.631   0.733  1.5152 -0.6925  0.7522
 9487TIP3   OH228424   1.586   6.126   1.840 -0.2413  0.1821  0.3301
 9487TIP3    H128425   1.579   6.035   1.870  0.3634 -0.0609 -0.2406
 9487TIP3    H228426   1.587   6.119   1.745  0.3548  0.7486  0.2945
 9488TIP3   OH228427   0.581   5.679   5.057 -0.4147  0.2451  0.1142
 9488TIP3    H128428   0.564   5.637   5.141  2.6456  1.1577  1.3558
 9488TIP3    H228429   0.612   5.608   5.000  1.5358  0.1695  1.1659
 9489TIP3   OH228430   1.362   0.813   5.804 -0.4832  0.1158  0.1961
 9489TIP3    H128431   1.416   0.752   5.754 -1.5523 -0.5811 -0.1574
 9489TIP3    H228432   1.422   0.881   5.833  0.6812 -0.9190  0.2878
 9490TIP3   OH228433   3.979   4.308   3.875  0.1842  0.1839  0.1551
 9490TIP3    H128434   3.953   4.262   3.795  1.9472  0.7330 -0.7805
 9490TIP3    H228435   3.925   4.268   3.944 -0.0756 -1.5864 -1.0010
 9491TIP3   OH228436   6.029   0.518   4.832 -0.4993  0.5414  0.3058
 9491TIP3    H128437   5.999   0.428   4.846 -1.3636  0.7132 -0.3705
 9491TIP3    H228438   5.951   0.572   4.845  0.3261  1.3660  2.2502
 9492TIP3   OH228439   3.503   3.041   0.483  0.3725 -0.0977 -0.1971
 9492TIP3    H128440   3.454   3.032   0.402  1.7827  0.9768 -1.2291
 9492TIP3    H228441   3.565   3.111   0.466  0.0692  0.8513  2.1586
 9493TIP3   OH228442   1.772   3.103   2.795  0.7156 -0.1713  0.1185
 9493TIP3    H128443   1.719   3.110   2.715  1.2265 -0.2113 -0.2303
 9493TIP3    H228444   1.728   3.160   2.858  0.5751  0.2408 -0.3424
 9494TIP3   OH228445   3.187   6.079   4.790 -0.9137  0.2159 -0.5174
 9494TIP3    H128446   3.191   6.011   4.857 -1.8622  0.6870  0.0420
 9494TIP3    H228447   3.102   6.067   4.748 -1.9486  2.1656  0.8510
 9495TIP3   OH228448   1.092   3.881   5.179 -0.2446 -0.1767 -0.2293
 9495TIP3    H128449   1.033   3.834   5.120 -2.2246  0.8444  0.8120
 9495TIP3    H228450   1.054   3.868   5.266  1.0910  0.5402  0.4968
 9496TIP3   OH228451   4.986   1.325   1.480  0.5245 -0.4321 -0.2918
 9496TIP3    H128452   4.962   1.232   1.472 -1.4920  0.0840 -0.8516
 9496TIP3    H228453   4.939   1.356   1.557  1.9699 -0.0599  0.4807
 9497TIP3   OH228454   5.302   5.114   0.872  0.4670  0.0244 -0.2166
 9497TIP3    H128455   5.354   5.194   0.876 -1.7978  1.5602  0.1212
 9497TIP3    H228456   5.226   5.137   0.818 -0.4787 -1.7687  0.2728
 9498TIP3   OH228457   4.606   0.791   1.968  0.3503 -0.2162  0.4443
 9498TIP3    H128458   4.584   0.712   1.918  1.3006 -0.1989 -0.0156
 9498TIP3    H228459   4.696   0.777   1.996  0.2647  0.3697  1.0202
 9499TIP3   OH228460   4.627   0.416   2.982 -0.1126 -0.1759 -0.0265
 9499TIP3    H128461   4.714   0.424   3.020  0.1146  0.0560 -0.5863
 9499TIP3    H228462   4.602   0.507   2.961 -1.1564 -0.0440  1.5967
 9500TIP3   OH228463   1.335   5.942   4.504 -0.5475 -0.1477 -0.2890
 9500TIP3    H128464   1.299   5.874   4.447 -0.5152 -0.6422  0.2640
 9500TIP3    H228465   1.322   5.907   4.592 -2.4726  1.4790  0.1561
 9501TIP3   OH228466   4.231   5.327   5.412  0.1837  0.0207 -0.8223
 9501TIP3    H128467   4.213   5.300   5.502  1.2819  2.2838  0.1528
 9501TIP3    H228468   4.219   5.247   5.360 -1.9908 -0.9911  1.0849
 9502TIP3   OH228469   5.333   4.585   1.651  0.9179  0.5644 -0.0598
 9502TIP3    H128470   5.304   4.675   1.664  0.5648  0.4860 -0.2897
 9502TIP3    H228471   5.286   4.555   1.573 -0.6483 -0.5194  1.2361
 9503TIP3   OH228472   2.470   4.373   0.692 -0.0616  0.2915 -0.0101
 9503TIP3    H128473   2.423   4.454   0.676 -0.8436 -0.1825 -0.1526
 9503TIP3    H228474   2.563   4.397   0.687 -0.2763  0.8302 -1.8741
 9504TIP3   OH228475   6.146   2.667   0.986 -0.1210 -0.3506 -0.1885
 9504TIP3    H128476   6.167   2.708   1.070 -1.0261 -2.1781  1.0116
 9504TIP3    H228477   6.071   2.717   0.952 -1.2634 -0.9975  1.2767
 9505TIP3   OH228478   2.671   4.430   1.776 -0.2491  0.5836  0.1468
 9505TIP3    H128479   2.694   4.338   1.789  1.7726  1.0029 -0.1082
 9505TIP3    H228480   2.575   4.431   1.778 -0.3155 -1.4071  0.8824
 9506TIP3   OH228481   3.833   2.302   4.813  0.2324  0.4907  0.2248
 9506TIP3    H128482   3.866   2.221   4.852  0.4210  0.0933 -0.7414
 9506TIP3    H228483   3.739   2.289   4.808  0.3736 -0.1870 -1.0435
 9507TIP3   OH228484   0.144   6.584   5.206 -0.2976 -0.0425  0.0445
 9507TIP3    H128485   0.233   6.620   5.214 -0.8600  1.4018  0.1896
 9507TIP3    H228486   0.142   6.543   5.120  0.2472  0.7012 -0.3339
 9508TIP3   OH228487   4.768   4.564   0.355  0.7869  0.5557  0.1195
 9508TIP3    H128488   4.775   4.578   0.261  2.5948  0.9399  0.2788
 9508TIP3    H228489   4.858   4.555   0.385  0.2156 -3.3386  1.2959
 9509TIP3   OH228490   0.901   3.766   2.263  0.6309 -0.7224  0.5914
 9509TIP3    H128491   0.920   3.775   2.169  1.3750  0.2806  0.8262
 9509TIP3    H228492   0.812   3.731   2.266 -0.9140  2.7088 -0.4992
 9510TIP3   OH228493   0.511   0.478   1.930  0.1042 -0.0093 -0.8618
 9510TIP3    H128494   0.532   0.457   1.838  1.2156  0.8762 -0.8271
 9510TIP3    H228495   0.589   0.452   1.978 -0.7334 -1.0934 -0.0562
 9511TIP3   OH228496   4.204   4.268   1.376 -0.0600 -0.4066  0.1304
 9511TIP3    H128497   4.125   4.322   1.369 -0.4335 -1.0269 -0.5504
 9511TIP3    H228498   4.190   4.216   1.455 -0.8933 -1.3714 -0.6232
 9512TIP3   OH228499   4.105   1.632   4.298  0.4695  0.2679 -0.0001
 9512TIP3    H128500   4.181   1.578   4.321 -0.0887 -0.0852  1.0478
 9512TIP3    H228501   4.034   1.599   4.352 -0.4064  0.7150 -0.8350
 9513TIP3   OH228502   0.576   3.147   4.553 -0.0362  0.2184  0.3495
 9513TIP3    H128503   0.648   3.088   4.575 -0.8642 -1.4129 -1.0839
 9513TIP3    H228504   0.499   3.109   4.597 -1.0765 -1.3220 -2.5534
 9514TIP3   OH228505   5.182   4.505   5.781  0.0532  0.0576 -0.0501
 9514TIP3    H128506   5.213   4.537   5.696 -0.7971  0.7639 -0.1132
 9514TIP3    H228507   5.253   4.451   5.813  0.6565  0.2954 -0.9286
 9515TIP3   OH228508   1.396   6.114   2.597  0.1266 -0.5247  0.1310
 9515TIP3    H128509   1.392   6.072   2.511  0.2369  0.7300 -0.5107
 9515TIP3    H228510   1.305   6.127   2.622  0.0421  1.5320 -1.0536
 9516TIP3   OH228511   1.840   6.003   1.941  0.2133  0.2463 -0.3965
 9516TIP3    H128512   1.845   6.097   1.929 -1.7197  0.3898 -0.3800
 9516TIP3    H228513   1.859   5.966   1.855  0.5692  0.6566 -0.4966
 9517TIP3   OH228514   5.427   4.937   4.792 -0.6069 -0.4238  0.5121
 9517TIP3    H128515   5.437   4.857   4.740  1.8007  0.1520 -0.0488
 9517TIP3    H228516   5.441   4.909   4.882  0.8796 -0.5881  0.2583
 9518TIP3   OH228517   0.712   5.458   2.402  0.2252 -0.6974  0.0042
 9518TIP3    H128518   0.749   5.430   2.486  0.7003  0.6259  0.2691
 9518TIP3    H228519   0.780   5.513   2.363 -0.4418 -0.3493 -0.7035
 9519TIP3   OH228520   3.049   0.639   1.153  0.6106 -0.3464 -0.3159
 9519TIP3    H128521   3.061   0.652   1.059 -0.1372 -0.5436 -0.4480
 9519TIP3    H228522   3.133   0.607   1.184  0.6046 -1.1603 -1.0902
 9520TIP3   OH228523   2.686   4.892   3.092  0.1951  0.0710 -0.3399
 9520TIP3    H128524   2.708   4.810   3.136  0.0716 -0.4906 -1.2865
 9520TIP3    H228525   2.603   4.919   3.131  0.3230 -0.1602  0.0993
 9521TIP3   OH228526   3.673   6.234   3.151 -0.0850 -0.2394 -0.1469
 9521TIP3    H128527   3.746   6.274   3.197 -1.4458  1.2654  0.7977
 9521TIP3    H228528   3.609   6.215   3.219 -0.6080 -1.5459 -0.9527
 9522TIP3   OH228529   0.281   4.125   2.170  0.2491  0.3311 -0.2733
 9522TIP3    H128530   0.247   4.124   2.259 -0.2128  0.8163 -0.4325
 9522TIP3    H228531   0.205   4.103   2.115  0.4619  0.3024 -0.5579
 9523TIP3   OH228532   0.636   2.121   3.969  0.5094 -0.3904  0.9521
 9523TIP3    H128533   0.569   2.116   4.037  0.1656 -0.2435  0.6242
 9523TIP3    H228534   0.714   2.083   4.010  0.1748 -0.7501  1.2665
 9524TIP3   OH228535   3.619   4.895   3.554 -0.0821 -0.0113  0.1371
 9524TIP3    H128536   3.684   4.838   3.513  0.3089  0.1212  0.5693
 9524TIP3    H228537   3.646   4.901   3.646  0.6068  1.8529 -0.1448
 9525TIP3   OH228538   5.895   5.836   5.134 -0.0436  0.0818 -0.3824
 9525TIP3    H128539   5.926   5.890   5.061  2.3563 -1.3962 -0.5793
 9525TIP3    H228540   5.803   5.820   5.114 -0.1578  1.9740 -1.6166
 9526TIP3   OH228541   4.243   4.110   4.191 -0.2435  0.0902  0.2344
 9526TIP3    H128542   4.304   4.184   4.191 -0.1748  0.0387 -0.7887
 9526TIP3    H228543   4.195   4.119   4.274  0.0504  1.0456  0.3106
 9527TIP3   OH228544   3.852   3.540   2.872  0.2747 -0.2458 -0.5152
 9527TIP3    H128545   3.839   3.496   2.788  0.5705 -1.5013  0.0685
 9527TIP3    H228546   3.773   3.593   2.884 -0.4308 -1.1735 -0.9201
 9528TIP3   OH228547   1.107   4.050   2.587 -0.2816  0.4190  0.3566
 9528TIP3    H128548   1.139   4.136   2.558 -0.2063 -0.5464 -2.7630
 9528TIP3    H228549   1.186   3.997   2.595 -0.4256  0.3160  1.2019
 9529TIP3   OH228550   0.096   6.440   3.507  0.1279 -0.2210  0.1094
 9529TIP3    H128551   0.139   6.419   3.424 -0.2535 -0.7492  0.0406
 9529TIP3    H228552   0.005   6.412   3.495 -0.3150  1.0778  0.1699
 9530TIP3   OH228553   3.937   2.752   1.489 -0.0713  0.0584 -0.3591
 9530TIP3    H128554   3.851   2.727   1.457 -0.6360  0.5487  0.7244
 9530TIP3    H228555   3.979   2.669   1.512 -1.4733 -0.0863  2.0680
 9531TIP3   OH228556   3.680   2.485   0.701 -0.3849 -0.1190 -0.1174
 9531TIP3    H128557   3.607   2.546   0.689  0.3044  0.6880 -0.3454
 9531TIP3    H228558   3.716   2.508   0.786  0.0561 -0.0102 -0.3306
 9532TIP3   OH228559   6.146   0.386   1.404  0.3530 -0.3147  0.1231
 9532TIP3    H128560   6.069   0.443   1.395 -0.0172 -0.9870 -1.2518
 9532TIP3    H228561   6.143   0.329   1.328  0.7523 -2.1641  1.4262
 9533TIP3   OH228562   6.677   1.744   3.143 -0.2014 -0.7721 -0.0577
 9533TIP3    H128563   6.739   1.689   3.191  0.2200  0.7958  1.2570
 9533TIP3    H228564   6.668   1.823   3.196 -1.4254  0.0963 -1.4776
 9534TIP3   OH228565   5.350   2.217   2.992 -0.2709 -0.0051  0.3146
 9534TIP3    H128566   5.337   2.213   2.898 -0.0738  0.9534  0.2371
 9534TIP3    H228567   5.280   2.163   3.028 -1.4717  1.0843 -0.3110
 9535TIP3   OH228568   2.861   3.332   4.648 -0.7014  0.6565  0.4874
 9535TIP3    H128569   2.866   3.371   4.561 -1.0811 -0.8022 -0.2170
 9535TIP3    H228570   2.935   3.271   4.652 -0.4546  0.9919  1.3496
 9536TIP3   OH228571   3.793   1.204   5.652 -0.2257  0.1510 -0.0720
 9536TIP3    H128572   3.771   1.125   5.602  0.5299  0.4958 -0.9746
 9536TIP3    H228573   3.885   1.219   5.634 -0.1249  0.7222  0.8412
 9537TIP3   OH228574   0.711   4.485   5.049  0.2967  0.0334 -0.2712
 9537TIP3    H128575   0.705   4.411   4.988  2.5952 -0.4237 -0.0270
 9537TIP3    H228576   0.789   4.467   5.101  0.4650  2.2510  0.3532
 9538TIP3   OH228577   1.542   2.375   0.778  0.5273 -0.0869  0.1786
 9538TIP3    H128578   1.470   2.328   0.736 -0.1010  1.9497 -1.1847
 9538TIP3    H228579   1.510   2.393   0.867  0.1245 -0.7655  0.1806
 9539TIP3   OH228580   1.513   2.606   3.060  0.2432  0.3848  0.1442
 9539TIP3    H128581   1.511   2.518   3.096  0.7200  1.1091  2.0219
 9539TIP3    H228582   1.421   2.635   3.063 -0.2375 -0.6138 -2.1407
 9540TIP3   OH228583   6.716   1.562   4.803  0.0732 -0.0536 -0.5904
 9540TIP3    H128584   6.777   1.595   4.738  0.9686  0.7947  0.6424
 9540TIP3    H228585   6.756   1.481   4.835 -0.1367 -0.2236 -0.7505
 9541TIP3   OH228586   4.489   2.554   5.384 -0.2581  0.0609 -0.5266
 9541TIP3    H128587   4.469   2.461   5.383 -0.3244  0.0760 -0.5909
 9541TIP3    H228588   4.433   2.590   5.453 -0.7452  0.1687 -0.9722
 9542TIP3   OH228589   2.383   0.706   3.304  0.2010  0.3067 -0.2562
 9542TIP3    H128590   2.422   0.682   3.220  1.3491  0.5999  0.1806
 9542TIP3    H228591   2.290   0.684   3.294  0.7225 -1.8477 -0.7824
 9543TIP3   OH228592   3.023   3.764   3.776 -0.1341  0.1372 -0.4057
 9543TIP3    H128593   3.118   3.761   3.771 -0.0279  1.9567 -0.2295
 9543TIP3    H228594   3.004   3.801   3.862 -1.0364 -0.9645 -0.1078
 9544TIP3   OH228595   6.382   4.128   1.292  0.0258 -0.1033  0.1640
 9544TIP3    H128596   6.428   4.212   1.291 -1.5653  0.8008  0.0475
 9544TIP3    H228597   6.432   4.074   1.353  0.8164  1.0727  0.5963
 9545TIP3   OH228598   3.762   1.227   4.363  0.6954  0.2596 -0.1140
 9545TIP3    H128599   3.737   1.252   4.274  1.1827 -0.3677 -0.4429
 9545TIP3    H228600   3.742   1.133   4.368 -0.5195  0.5534  0.8773
 9546TIP3   OH228601   0.437   6.626   0.623 -0.3228 -0.2444 -0.5070
 9546TIP3    H128602   0.367   6.628   0.688 -0.3355  1.3686 -0.5261
 9546TIP3    H228603   0.409   6.560   0.559 -2.7345  1.5207 -1.4368
 9547TIP3   OH228604   7.142   3.305   1.354 -0.0187 -0.2202  0.7537
 9547TIP3    H128605   7.150   3.317   1.449 -0.3649  1.7329  0.5861
 9547TIP3    H228606   7.232   3.305   1.322  0.0902 -0.5734  1.0595
 9548TIP3   OH228607   5.725   4.359   4.999 -0.1489  0.0662 -0.5823
 9548TIP3    H128608   5.653   4.297   5.004  0.0925 -0.1183  1.0110
 9548TIP3    H228609   5.769   4.339   4.916 -0.8372 -1.0279 -0.6956
 9549TIP3   OH228610   5.043   1.580   1.071 -0.0044  0.1101 -0.2662
 9549TIP3    H128611   4.987   1.521   1.021  0.5565 -0.5816 -0.0980
 9549TIP3    H228612   5.122   1.529   1.088  0.3521  0.7967  0.1770
 9550TIP3   OH228613   7.049   6.731   2.418 -0.4459  0.4050 -0.1928
 9550TIP3    H128614   7.141   6.752   2.401 -0.1060 -0.8544 -0.0731
 9550TIP3    H228615   7.031   6.655   2.362 -0.7375 -0.7660  1.4196
 9551TIP3   OH228616   1.729   4.996   4.170 -0.1238 -0.1386  0.2296
 9551TIP3    H128617   1.658   4.995   4.234 -0.1802 -0.1582  0.1676
 9551TIP3    H228618   1.685   4.987   4.085 -0.1275  0.7339  0.1231
 9552TIP3   OH228619   6.672   2.185   1.288  0.1083  0.2386 -0.4408
 9552TIP3    H128620   6.689   2.091   1.283 -1.1556 -0.2348  2.2275
 9552TIP3    H228621   6.616   2.203   1.212 -0.4266 -1.3736 -0.4839
 9553TIP3   OH228622   6.553   1.555   0.197  0.0374  0.0463  0.8742
 9553TIP3    H128623   6.630   1.602   0.228  0.6248 -0.8783  0.8510
 9553TIP3    H228624   6.581   1.464   0.192  0.0567  0.1092 -2.5468
 9554TIP3   OH228625   5.321   0.468   0.625  0.0303 -0.3065 -0.3365
 9554TIP3    H128626   5.390   0.403   0.637 -0.6606 -0.6451  2.5746
 9554TIP3    H228627   5.242   0.425   0.656 -0.5717  1.6168  0.9975
 9555TIP3   OH228628   6.811   3.450   4.916  0.6735  0.3501 -0.0249
 9555TIP3    H128629   6.766   3.387   4.972 -0.0998  0.5314 -0.4271
 9555TIP3    H228630   6.874   3.398   4.865 -0.5609 -0.2449 -0.9873
 9556TIP3   OH228631   1.358   5.402   0.534  0.0883 -0.0573 -0.2518
 9556TIP3    H128632   1.438   5.445   0.566 -0.0718 -0.2067  0.3624
 9556TIP3    H228633   1.354   5.319   0.582 -0.7227  0.1916  0.1264
 9557TIP3   OH228634   1.451   4.769   2.038  0.1968  0.2708 -0.6017
 9557TIP3    H128635   1.540   4.799   2.054 -0.0422 -0.0850  1.7709
 9557TIP3    H228636   1.399   4.807   2.109 -1.0551 -1.5062 -0.4864
 9558TIP3   OH228637   6.182   6.039   5.823  0.2570 -0.3474 -0.2591
 9558TIP3    H128638   6.144   6.125   5.839  0.2373 -0.7474  2.2673
 9558TIP3    H228639   6.108   5.986   5.792  0.0660  0.2827 -0.9109
 9559TIP3   OH228640   4.876   2.447   1.389 -0.4491 -0.0367 -0.2688
 9559TIP3    H128641   4.968   2.466   1.367  0.6212 -2.1896  1.8593
 9559TIP3    H228642   4.859   2.362   1.349 -1.2792  0.0149 -0.0437
 9560TIP3   OH228643   2.817   3.905   5.230  0.4995  0.1729 -0.2923
 9560TIP3    H128644   2.781   3.963   5.163  0.5191  1.2833  0.6396
 9560TIP3    H228645   2.741   3.858   5.263  0.1181  1.3300  0.5272
 9561TIP3   OH228646   1.836   4.629   1.551  0.1118 -0.0389 -0.5021
 9561TIP3    H128647   1.842   4.725   1.545 -1.0497  0.1602  1.0877
 9561TIP3    H228648   1.763   4.613   1.611  0.2411 -1.9330 -0.8053
 9562TIP3   OH228649   3.180   4.755   2.602 -0.0384 -0.4973 -0.2791
 9562TIP3    H128650   3.267   4.772   2.637  0.6419 -1.4776 -1.4583
 9562TIP3    H228651   3.194   4.737   2.509 -1.6392  0.5828 -0.7742
 9563TIP3   OH228652   0.421   3.204   4.824  0.5662  0.9232  0.1562
 9563TIP3    H128653   0.429   3.187   4.918 -2.5505  0.8510  0.4925
 9563TIP3    H228654   0.426   3.118   4.783 -0.9226  0.6211  0.5605
 9564TIP3   OH228655   5.122   6.381   1.408  0.3864 -0.3697 -0.0310
 9564TIP3    H128656   5.097   6.429   1.487 -0.8204  2.7095 -2.0660
 9564TIP3    H228657   5.047   6.326   1.388  0.9826 -1.7118  1.2796
 9565TIP3   OH228658   1.862   6.522   3.185  0.2656 -0.4429  0.0844
 9565TIP3    H128659   1.867   6.490   3.275 -0.7912 -2.0952 -0.4023
 9565TIP3    H228660   1.892   6.449   3.131  0.3618  0.3231 -0.9498
 9566TIP3   OH228661   3.174   2.023   5.359 -0.3738 -0.1379 -0.0413
 9566TIP3    H128662   3.250   2.046   5.306 -0.7077 -0.1848 -0.5445
 9566TIP3    H228663   3.202   1.947   5.410 -0.1275 -0.2411 -0.3272
 9567TIP3   OH228664   6.776   3.820   0.719  0.7190 -0.2413 -0.3791
 9567TIP3    H128665   6.863   3.844   0.751 -0.9883  1.6859  3.4867
 9567TIP3    H228666   6.727   3.902   0.718 -1.4393 -1.4714 -1.1618
 9568TIP3   OH228667   4.438   3.335   0.359 -0.5224  0.3697 -0.5526
 9568TIP3    H128668   4.493   3.373   0.291  0.0318 -0.2124 -0.4316
 9568TIP3    H228669   4.353   3.379   0.348  0.4791  2.7199  0.4963
 9569TIP3   OH228670   7.083   1.015   5.483  0.2740  0.2527  0.3531
 9569TIP3    H128671   7.064   1.108   5.494  0.4632  0.2663  0.5808
 9569TIP3    H228672   7.115   1.008   5.393 -0.8241  0.2199 -0.0437
 9570TIP3   OH228673   2.207   5.344   3.699 -0.3759 -0.6848  0.6075
 9570TIP3    H128674   2.217   5.321   3.791  1.3821  2.4568  1.3448
 9570TIP3    H228675   2.134   5.406   3.698 -0.1909 -0.4709 -0.0149
 9571TIP3   OH228676   3.256   1.139   3.750 -0.2507  0.1777 -0.0263
 9571TIP3    H128677   3.294   1.201   3.687  1.6867  1.4867  2.2473
 9571TIP3    H228678   3.325   1.127   3.816 -2.4084 -0.5036  2.2543
 9572TIP3   OH228679   7.035   6.655   1.868 -0.8034  0.0457  0.3435
 9572TIP3    H128680   7.083   6.611   1.938 -0.5383 -0.2306 -0.0099
 9572TIP3    H228681   6.974   6.588   1.836 -1.7816  0.5396  1.1215
 9573TIP3   OH228682   1.738   0.043   1.104 -0.1794  0.4570  0.2423
 9573TIP3    H128683   1.752   0.123   1.054 -0.8567 -0.0318 -0.7664
 9573TIP3    H228684   1.696   0.073   1.185 -0.0765  1.1577  0.0449
 9574TIP3   OH228685   2.373   2.765   1.024  0.0099  0.3133  0.0876
 9574TIP3    H128686   2.466   2.747   1.008 -0.2722  0.5137 -2.2178
 9574TIP3    H228687   2.370   2.859   1.041  0.0231  0.9710 -2.8864
 9575TIP3   OH228688   3.527   0.948   2.294  0.4803  0.4080  0.2912
 9575TIP3    H128689   3.521   0.904   2.378  1.8530 -1.7586 -0.6394
 9575TIP3    H228690   3.495   0.883   2.231  1.1342  1.3086 -1.0208
 9576TIP3   OH228691   3.968   6.726   0.199  0.5903 -0.3720  0.0654
 9576TIP3    H128692   3.927   6.668   0.135  3.5987 -2.1625 -0.4326
 9576TIP3    H228693   3.968   6.675   0.280  1.2577 -0.1381  0.2120
 9577TIP3   OH228694   5.759   6.412   5.262  0.2467  0.1314  0.1468
 9577TIP3    H128695   5.769   6.348   5.332 -0.2228 -1.2155 -0.9567
 9577TIP3    H228696   5.790   6.366   5.183  1.5332  1.8653 -0.4268
 9578TIP3   OH228697   6.138   0.584   5.095 -0.7741 -0.1377 -0.3042
 9578TIP3    H128698   6.057   0.605   5.141 -1.5922  0.9709 -2.1177
 9578TIP3    H228699   6.111   0.575   5.003  0.8657 -1.6542 -0.6936
 9579TIP3   OH228700   1.871   3.004   5.769 -0.0920 -0.3257 -0.6347
 9579TIP3    H128701   1.816   2.940   5.813 -0.5054  1.1320  1.0524
 9579TIP3    H228702   1.816   3.082   5.759  1.1587  0.6351 -0.3477
 9580TIP3   OH228703   6.326   0.730   2.741 -0.2058  0.5601  0.0023
 9580TIP3    H128704   6.346   0.798   2.677  1.2215  1.0130  0.8819
 9580TIP3    H228705   6.236   0.705   2.722 -0.8307  2.8244 -0.2471
 9581TIP3   OH228706   4.621   4.294   3.963  0.1811 -0.0250 -0.4957
 9581TIP3    H128707   4.712   4.305   3.990  0.5526 -0.4974 -1.5051
 9581TIP3    H228708   4.590   4.383   3.945  0.2584  0.1915  0.3977
 9582TIP3   OH228709   1.339   2.705   2.655  0.0898  0.3187  0.4357
 9582TIP3    H128710   1.355   2.729   2.564 -0.5878  0.0128  0.2358
 9582TIP3    H228711   1.307   2.786   2.695  1.7557  0.8595  0.7694
 9583TIP3   OH228712   5.775   3.273   0.789 -0.4583  0.0830  0.3415
 9583TIP3    H128713   5.771   3.258   0.694 -0.5574 -0.2645  0.3999
 9583TIP3    H228714   5.684   3.270   0.817 -0.3061 -2.1443  0.7979
 9584TIP3   OH228715   6.913   0.644   5.133 -0.5148  0.9994 -0.3173
 9584TIP3    H128716   6.854   0.716   5.153 -0.3570  1.1492 -0.3951
 9584TIP3    H228717   6.890   0.617   5.044  0.1748  1.6817 -0.7105
 9585TIP3   OH228718   2.896   2.921   5.777 -0.5231  0.4521 -0.2472
 9585TIP3    H128719   2.837   2.852   5.748  0.2381 -1.3171  2.0791
 9585TIP3    H228720   2.919   2.898   5.867  0.1304  3.5465  0.5304
 9586TIP3   OH228721   0.771   4.795   3.315 -0.0837  0.2711  0.3944
 9586TIP3    H128722   0.732   4.788   3.402 -1.6851 -1.2893 -0.3817
 9586TIP3    H228723   0.768   4.706   3.280  1.9143  0.5672 -0.7255
 9587TIP3   OH228724   1.362   4.331   0.377  0.7086 -0.3451  0.0656
 9587TIP3    H128725   1.340   4.242   0.347 -1.2135 -0.8483  2.6558
 9587TIP3    H228726   1.315   4.388   0.316  0.6654 -1.1304 -0.6646
 9588TIP3   OH228727   5.729   6.104   4.141  0.0284 -0.7011  0.6012
 9588TIP3    H128728   5.792   6.174   4.122 -0.9873  0.3499  1.0193
 9588TIP3    H228729   5.671   6.141   4.208 -0.5528 -1.9395  0.8161
 9589TIP3   OH228730   5.229   6.747   5.504 -0.2209  0.1037  0.1631
 9589TIP3    H128731   5.302   6.798   5.537  0.1954 -0.7890  0.6713
 9589TIP3    H228732   5.153   6.805   5.510  0.7468  1.7684 -2.2878
 9590TIP3   OH228733   2.954   2.131   0.780 -0.3243 -0.2978 -0.6640
 9590TIP3    H128734   2.950   2.036   0.785 -1.4708 -0.2853 -1.0260
 9590TIP3    H228735   2.897   2.161   0.850  1.5480  0.1769  0.7287
 9591TIP3   OH228736   3.291   5.677   2.105 -0.1262  0.2561 -0.0374
 9591TIP3    H128737   3.372   5.705   2.063 -0.5769 -0.6870 -1.6263
 9591TIP3    H228738   3.312   5.673   2.198  1.0018  2.1107 -0.1844
 9592TIP3   OH228739   2.865   0.828   0.201  0.6430  0.0013  0.2327
 9592TIP3    H128740   2.851   0.923   0.204 -0.6147 -0.1185 -0.8459
 9592TIP3    H228741   2.958   0.817   0.220  0.4280  1.3015  2.3379
 9593TIP3   OH228742   5.567   1.427   5.135 -0.4127  0.7288  0.3674
 9593TIP3    H128743   5.542   1.513   5.103 -0.2350  0.8498  0.5489
 9593TIP3    H228744   5.580   1.375   5.056 -0.2319  0.9513  0.2476
 9594TIP3   OH228745   5.657   0.144   4.222 -0.1340  0.5523 -0.5990
 9594TIP3    H128746   5.683   0.236   4.226 -0.8826  0.7611 -0.4170
 9594TIP3    H228747   5.569   0.146   4.184 -0.1762 -0.0868 -0.5427
 9595TIP3   OH228748   6.501   1.438   1.527  0.2454 -0.3995  0.1502
 9595TIP3    H128749   6.465   1.351   1.508  2.6476 -1.0210 -2.1038
 9595TIP3    H228750   6.481   1.451   1.620 -2.7537 -2.0264 -0.1335
 9596TIP3   OH228751   6.810   4.730   3.734 -0.1537  0.1339  0.2317
 9596TIP3    H128752   6.837   4.814   3.696  1.8845 -1.3627 -1.8440
 9596TIP3    H228753   6.891   4.684   3.753 -1.2054 -0.9252  2.5796
 9597TIP3   OH228754   5.312   5.280   5.723  0.1151 -0.4091  0.0741
 9597TIP3    H128755   5.243   5.245   5.780  0.4113  0.2229  0.8296
 9597TIP3    H228756   5.377   5.211   5.718 -0.5744 -1.0346 -0.6855
 9598TIP3   OH228757   4.440   5.432   2.116  0.1392  0.7733 -0.2489
 9598TIP3    H128758   4.513   5.450   2.175  0.4731 -2.7743  0.6342
 9598TIP3    H228759   4.362   5.462   2.163  0.5263 -0.8490  1.5298
 9599TIP3   OH228760   5.352   5.404   5.492 -0.5420  0.2533  0.2416
 9599TIP3    H128761   5.370   5.491   5.526  2.2170  0.1270 -0.6593
 9599TIP3    H228762   5.337   5.350   5.569 -0.0139  1.0826  0.9411
 9600TIP3   OH228763   2.126   0.279   5.614  0.1234  0.7060 -0.1047
 9600TIP3    H128764   2.051   0.282   5.555  0.2979 -0.1988 -0.3893
 9600TIP3    H228765   2.165   0.193   5.598  1.3711  1.2683 -0.1471
 9601TIP3   OH228766   4.054   2.289   5.143 -0.1569 -0.3201  0.1756
 9601TIP3    H128767   4.010   2.227   5.085  1.0875 -0.3203 -0.7980
 9601TIP3    H228768   4.010   2.372   5.127 -0.7104 -0.5958  0.2320
 9602TIP3   OH228769   4.966   3.515   2.128 -0.1971 -0.3309  0.1578
 9602TIP3    H128770   4.973   3.548   2.038  0.3309  0.1381  0.3677
 9602TIP3    H228771   4.991   3.589   2.183 -1.9444 -0.1655  0.7725
 9603TIP3   OH228772   5.795   2.481   3.906  0.3708 -0.0515 -0.1183
 9603TIP3    H128773   5.766   2.414   3.967 -1.1896 -0.9081 -1.7238
 9603TIP3    H228774   5.882   2.506   3.937  0.5837 -2.1130  1.0655
 9604TIP3   OH228775   2.328   5.802   1.348  0.2102  0.0940  0.4273
 9604TIP3    H128776   2.296   5.722   1.306 -0.9105 -0.4315  2.1769
 9604TIP3    H228777   2.304   5.872   1.287 -3.1033 -0.4394  0.9437
 9605TIP3   OH228778   0.406   4.244   2.545 -0.8739 -0.1817 -0.3116
 9605TIP3    H128779   0.367   4.306   2.483 -1.3785  0.3986  0.5690
 9605TIP3    H228780   0.392   4.284   2.631  1.7403  0.1039  0.0591
 9606TIP3   OH228781   4.764   6.553   2.566 -0.6026 -0.0207  0.6486
 9606TIP3    H128782   4.803   6.570   2.652  0.0855  0.5646  0.2433
 9606TIP3    H228783   4.837   6.520   2.513 -1.2100 -1.1940  0.5133
 9607TIP3   OH228784   1.540   4.987   4.373  0.6242  0.0993 -0.4133
 9607TIP3    H128785   1.607   5.022   4.432 -0.1975  0.2009  0.4865
 9607TIP3    H228786   1.563   4.894   4.364  0.5599  0.0036  0.3521
 9608TIP3   OH228787   5.337   1.702   5.812 -0.5279  0.2468 -0.5279
 9608TIP3    H128788   5.402   1.705   5.741 -0.9223  1.7967 -0.8508
 9608TIP3    H228789   5.256   1.674   5.770 -0.1028 -1.8037 -0.1038
 9609TIP3   OH228790   1.735   2.734   4.154 -0.4199  0.1805  0.0934
 9609TIP3    H128791   1.817   2.771   4.120  0.2488 -1.0335  0.3294
 9609TIP3    H228792   1.726   2.651   4.109 -1.8543  0.5630 -0.3623
 9610TIP3   OH228793   3.450   3.873   2.988  0.6718  0.0985  0.2863
 9610TIP3    H128794   3.522   3.894   3.046  1.1887 -0.0637 -0.2886
 9610TIP3    H228795   3.491   3.841   2.908 -0.0045  0.9206 -0.4206
 9611TIP3   OH228796   5.405   5.554   3.327 -0.2855  0.6725  0.2379
 9611TIP3    H128797   5.359   5.566   3.410  0.0353  0.3451  0.4697
 9611TIP3    H228798   5.390   5.635   3.279  0.6781  1.4433  1.1870
 9612TIP3   OH228799   3.643   1.628   4.534 -0.0966  0.0929  0.5246
 9612TIP3    H128800   3.567   1.646   4.479 -0.2028 -1.1357  0.2305
 9612TIP3    H228801   3.653   1.706   4.588 -1.4740  0.3369  0.4615
 9613TIP3   OH228802   5.337   2.997   5.526  0.1529  0.6659  0.4033
 9613TIP3    H128803   5.280   2.922   5.546  0.6949  0.7763  2.6335
 9613TIP3    H228804   5.277   3.070   5.511 -0.3369  0.1621 -0.1637
 9614TIP3   OH228805   1.595   2.893   2.824 -0.6761 -0.1194  0.3495
 9614TIP3    H128806   1.676   2.945   2.819 -0.5725 -0.3928 -1.5171
 9614TIP3    H228807   1.618   2.820   2.881  0.3884 -0.1679 -0.1140
 9615TIP3   OH228808   0.578   2.524   4.926  0.0060 -0.2649 -0.7102
 9615TIP3    H128809   0.590   2.474   5.007  1.2675  0.9855 -0.0697
 9615TIP3    H228810   0.641   2.595   4.933 -1.7350  1.4563 -1.5466
 9616TIP3   OH228811   4.231   1.376   0.773 -0.1310 -0.0298  0.6218
 9616TIP3    H128812   4.279   1.449   0.733 -0.1967  0.0178  0.6299
 9616TIP3    H228813   4.286   1.349   0.846  0.0559 -0.2054  0.4197
 9617TIP3   OH228814   0.772   4.795   4.364  0.3622 -0.2272  0.6851
 9617TIP3    H128815   0.770   4.891   4.365  0.5457 -0.2187  1.6545
 9617TIP3    H228816   0.681   4.769   4.348  0.6723  0.0833 -2.0275
 9618TIP3   OH228817   1.477   5.672   0.567 -0.0995 -0.9978 -0.1080
 9618TIP3    H128818   1.565   5.684   0.602  0.9502  2.1272 -3.2375
 9618TIP3    H228819   1.491   5.639   0.478 -1.7175  2.0936 -1.6992
 9619TIP3   OH228820   5.588   3.246   0.008 -0.0216  0.3319 -0.1131
 9619TIP3    H128821   5.647   3.206  -0.057 -1.5881 -2.1530 -0.1482
 9619TIP3    H228822   5.579   3.179   0.076 -2.1286  0.9734  0.3009
 9620TIP3   OH228823   0.944   2.495   2.401 -0.1431  0.1143  0.0353
 9620TIP3    H128824   0.903   2.424   2.451 -0.1241  0.0581 -0.0291
 9620TIP3    H228825   1.019   2.454   2.359 -1.0533 -0.2131 -1.3081
 9621TIP3   OH228826   1.774   1.199   0.145 -0.8489 -0.1931  0.3636
 9621TIP3    H128827   1.733   1.147   0.076 -0.2761 -0.8256  0.4881
 9621TIP3    H228828   1.817   1.271   0.099 -1.0102 -0.2533  0.1159
 9622TIP3   OH228829   0.920   1.979   3.445 -0.1156  0.3294 -0.3215
 9622TIP3    H128830   0.970   1.906   3.480  0.2729  1.4022  1.4975
 9622TIP3    H228831   0.977   2.017   3.378  0.9783  0.7244  0.7911
 9623TIP3   OH228832   0.882   2.379   2.056  0.3927 -0.0505 -0.0325
 9623TIP3    H128833   0.816   2.353   2.120 -2.6090  1.0205 -2.4482
 9623TIP3    H228834   0.871   2.473   2.047  1.1876 -0.0770 -1.6369
 9624TIP3   OH228835   2.817   4.065   5.887  0.1933  0.0469 -0.0680
 9624TIP3    H128836   2.732   4.085   5.847  0.5502  1.2955 -0.2439
 9624TIP3    H228837   2.851   3.993   5.835 -0.7919 -0.5372  0.0615
 9625TIP3   OH228838   4.017   4.384   4.657  0.3466  0.0381 -0.0106
 9625TIP3    H128839   3.979   4.467   4.627  0.8466  0.1755 -0.2699
 9625TIP3    H228840   4.069   4.408   4.734  0.7403  0.0183 -0.2672
 9626TIP3   OH228841   1.749   4.014   3.300  0.4552 -0.1032  0.3500
 9626TIP3    H128842   1.812   3.964   3.352  1.5595  1.0645  0.2083
 9626TIP3    H228843   1.800   4.044   3.224 -0.7719 -0.6275 -0.7117
 9627TIP3   OH228844   2.710   0.235   2.731 -0.1415 -0.1986 -0.2072
 9627TIP3    H128845   2.659   0.253   2.809 -0.9991  0.6784 -0.9452
 9627TIP3    H228846   2.654   0.176   2.679  0.4961 -0.9234 -0.0926
 9628TIP3   OH228847   5.051   1.943   0.510  0.1391 -0.1621  0.2325
 9628TIP3    H128848   5.053   1.952   0.606 -1.3152 -0.3846  0.3104
 9628TIP3    H228849   5.053   1.849   0.494  0.3821 -0.1250  0.0408
 9629TIP3   OH228850   3.084   1.296   4.320  0.1266  0.2810 -0.5375
 9629TIP3    H128851   3.139   1.371   4.298 -0.5007  0.7914 -0.3907
 9629TIP3    H228852   3.040   1.274   4.238  0.2300  0.1420 -0.5552
 9630TIP3   OH228853   7.112   6.570   2.904 -0.1684  0.1294  0.4393
 9630TIP3    H128854   7.036   6.514   2.887  1.5411 -2.0379 -0.5175
 9630TIP3    H228855   7.110   6.636   2.835 -1.1090  0.0446  0.3745
 9631TIP3   OH228856   2.376   1.335   4.659  0.0360 -0.0145 -0.1127
 9631TIP3    H128857   2.390   1.429   4.670  1.7479 -0.5009  3.0264
 9631TIP3    H228858   2.434   1.311   4.586  0.1500  1.2388 -0.4609
 9632TIP3   OH228859   4.625   1.284   1.567  0.4308 -0.0430  0.4627
 9632TIP3    H128860   4.666   1.263   1.650 -0.6690 -0.3168  0.9519
 9632TIP3    H228861   4.568   1.210   1.548  0.3249  0.2244 -0.3063
 9633TIP3   OH228862   1.279   2.026   0.924 -0.5546 -0.2086 -0.1096
 9633TIP3    H128863   1.341   2.030   0.851  0.3048  0.9664  0.6395
 9633TIP3    H228864   1.249   1.935   0.926  2.1200 -1.1672  0.2663
 9634TIP3   OH228865   3.298   1.853   4.538 -0.8151 -0.2139 -0.0250
 9634TIP3    H128866   3.328   1.820   4.622  0.4924 -0.1698 -0.4539
 9634TIP3    H228867   3.226   1.912   4.560  0.2784  0.7260  1.1719
 9635TIP3   OH228868   4.908   4.385   1.209  0.0630 -0.3980 -0.0920
 9635TIP3    H128869   4.941   4.473   1.193 -2.2520  0.7345  0.8020
 9635TIP3    H228870   4.843   4.396   1.279 -1.2205 -2.5958 -0.8296
 9636TIP3   OH228871   1.296   1.573   4.080  0.3959 -0.7510  0.2840
 9636TIP3    H128872   1.318   1.666   4.075 -0.9039 -0.4764 -1.2489
 9636TIP3    H228873   1.308   1.550   4.172  3.6555  0.1372  0.2207
 9637TIP3   OH228874   6.151   4.548   1.226 -0.1395  0.6051 -0.3561
 9637TIP3    H128875   6.065   4.506   1.224 -1.1310  2.4734  0.5756
 9637TIP3    H228876   6.208   4.484   1.268 -0.6471 -1.2948 -2.3310
 9638TIP3   OH228877   1.029   1.509   0.355  0.0287  0.4864  0.1950
 9638TIP3    H128878   1.001   1.575   0.292  0.4254  0.5438  0.0752
 9638TIP3    H228879   1.103   1.465   0.314 -2.3472 -2.4936 -1.2928
 9639TIP3   OH228880   2.203   5.593   5.689 -0.1522 -0.6106  0.3430
 9639TIP3    H128881   2.151   5.540   5.750  0.9879 -0.0401  1.8742
 9639TIP3    H228882   2.294   5.567   5.707  0.5788  2.6117  2.0401
 9640TIP3   OH228883   6.423   5.906   5.330 -0.2637 -0.3420  0.5464
 9640TIP3    H128884   6.425   5.943   5.419 -0.8043 -2.6616  1.5875
 9640TIP3    H228885   6.349   5.846   5.330 -0.6426  0.0235 -1.7090
 9641TIP3   OH228886   6.810   1.848   5.203  0.1934  0.4095  0.2081
 9641TIP3    H128887   6.835   1.779   5.141  1.6379 -0.2615  1.4562
 9641TIP3    H228888   6.723   1.823   5.233  0.2372 -0.2597 -0.2097
 9642TIP3   OH228889   4.517   4.678   1.318  0.0557  0.2685  0.0654
 9642TIP3    H128890   4.583   4.663   1.386  1.1870 -0.1698 -1.1078
 9642TIP3    H228891   4.440   4.630   1.349  1.1042 -1.3948  0.2169
 9643TIP3   OH228892   3.697   2.477   0.226  0.9354  0.3386  0.1184
 9643TIP3    H128893   3.654   2.395   0.249 -0.5706  0.3588 -2.2671
 9643TIP3    H228894   3.778   2.449   0.183  0.8902  0.1178  0.1725
 9644TIP3   OH228895   2.518   1.470   4.919 -0.2261  0.0740 -0.1147
 9644TIP3    H128896   2.497   1.385   4.958  1.2537 -0.2002  0.1488
 9644TIP3    H228897   2.605   1.491   4.952  0.1403  0.9017 -1.5046
 9645TIP3   OH228898   5.232   6.334   4.092  0.9271  0.4665  0.4391
 9645TIP3    H128899   5.195   6.341   4.180  0.3436  2.6275  0.0870
 9645TIP3    H228900   5.161   6.300   4.038  0.8132  0.5121  0.5592
 9646TIP3   OH228901   3.082   0.672   2.289 -0.1922 -0.0804 -0.2479
 9646TIP3    H128902   3.086   0.761   2.324 -0.6051 -0.7995  1.7079
 9646TIP3    H228903   2.994   0.666   2.251 -1.1298 -0.4149  1.8631
 9647TIP3   OH228904   2.027   0.769   2.793  0.4729  0.5057 -0.2379
 9647TIP3    H128905   1.937   0.739   2.799  0.3963  0.4481 -1.4198
 9647TIP3    H228906   2.079   0.689   2.784  0.6984  0.5132  0.8605
 9648TIP3   OH228907   6.636   6.003   2.204 -0.2257  0.0967  0.3603
 9648TIP3    H128908   6.686   5.964   2.132  0.6983 -0.5091  1.2867
 9648TIP3    H228909   6.611   6.089   2.172 -1.6267 -0.9189 -1.4562
 9649TIP3   OH228910   1.297   4.934   2.758 -0.1036 -0.5312  0.0240
 9649TIP3    H128911   1.225   4.872   2.745 -0.3010 -0.0671 -1.2612
 9649TIP3    H228912   1.291   4.958   2.851 -2.0080 -0.0517 -0.1657
 9650TIP3   OH228913   0.101   3.654   4.368 -0.2007 -0.7805  0.1149
 9650TIP3    H128914   0.006   3.660   4.379 -0.1600 -0.6860  0.4509
 9650TIP3    H228915   0.134   3.741   4.393 -0.0817 -0.5889 -0.6851
 9651TIP3   OH228916   6.030   4.682   3.844  0.2619 -0.0454 -0.0817
 9651TIP3    H128917   5.972   4.645   3.778 -1.3056  0.0905  1.1700
 9651TIP3    H228918   6.041   4.773   3.820 -1.0073  0.2203  0.2958
 9652TIP3   OH228919   4.849   4.066   3.932 -0.3176 -0.3449 -0.5858
 9652TIP3    H128920   4.882   4.022   4.010 -0.2713  2.8436  1.4030
 9652TIP3    H228921   4.757   4.040   3.927 -0.2768 -0.7340  0.4442
 9653TIP3   OH228922   6.138   0.866   5.633 -0.0444 -0.3051 -0.8971
 9653TIP3    H128923   6.203   0.839   5.698 -1.2606 -0.5064  0.3099
 9653TIP3    H228924   6.141   0.797   5.566  0.1759 -0.9270 -0.2643
 9654TIP3   OH228925   5.129   0.259   5.045  0.1611  0.2401  0.3801
 9654TIP3    H128926   5.079   0.281   5.124  1.3670 -0.5422  1.4000
 9654TIP3    H228927   5.063   0.253   4.976 -0.9805  0.5486  1.4035
 9655TIP3   OH228928   1.434   6.635   0.673  0.1399  0.2659 -0.4408
 9655TIP3    H128929   1.423   6.613   0.766 -0.8191 -0.4353 -0.7117
 9655TIP3    H228930   1.370   6.581   0.627  1.2051 -0.0540 -1.6110
 9656TIP3   OH228931   4.173   1.316   1.421  0.2260 -0.5141 -0.2437
 9656TIP3    H128932   4.176   1.223   1.442 -0.2871 -0.7301 -1.1001
 9656TIP3    H228933   4.197   1.360   1.503 -0.7129 -1.3634  0.5106
 9657TIP3   OH228934   5.527   2.214   0.197  0.2720 -0.2216 -0.0820
 9657TIP3    H128935   5.516   2.287   0.136  0.0980  0.7799  1.1155
 9657TIP3    H228936   5.449   2.160   0.185 -0.0989  0.3457 -0.2462
 9658TIP3   OH228937   1.224   2.620   3.366  0.1059 -0.5311 -0.3106
 9658TIP3    H128938   1.257   2.698   3.323 -0.1802 -0.4355 -0.3582
 9658TIP3    H228939   1.130   2.633   3.372  0.0229 -0.9808 -0.5413
 9659TIP3   OH228940   5.882   6.217   3.153  0.2249  0.3635  0.0937
 9659TIP3    H128941   5.841   6.247   3.233 -0.5272  1.9734 -0.8400
 9659TIP3    H228942   5.893   6.123   3.165  0.6873  0.6482  2.2901
 9660TIP3   OH228943   6.136   2.892   2.575 -0.0134 -0.7010 -0.3822
 9660TIP3    H128944   6.106   2.879   2.485 -1.1662 -1.3340  0.0821
 9660TIP3    H228945   6.072   2.846   2.629 -0.5102  1.3455  0.9101
 9661TIP3   OH228946   4.615   5.576   5.180  0.2692  0.3283  0.2858
 9661TIP3    H128947   4.659   5.604   5.100  0.2691 -0.8728 -0.1599
 9661TIP3    H228948   4.628   5.481   5.182 -1.5794  0.0523  0.5789
 9662TIP3   OH228949   6.616   4.421   0.169 -0.1427 -0.6612 -0.3622
 9662TIP3    H128950   6.580   4.357   0.107  0.1770  0.2884 -1.5729
 9662TIP3    H228951   6.685   4.465   0.119 -0.5558  0.8349  0.3516
 9663TIP3   OH228952   3.558   2.593   5.412 -0.2856 -0.8509 -0.9343
 9663TIP3    H128953   3.546   2.590   5.317 -0.1984 -1.5770 -0.9300
 9663TIP3    H228954   3.479   2.552   5.447  0.0404 -1.3211 -0.7295
 9664TIP3   OH228955   6.889   6.443   4.157  0.3761  0.1306  0.6375
 9664TIP3    H128956   6.816   6.407   4.207 -1.3492  0.7403 -1.2884
 9664TIP3    H228957   6.963   6.386   4.179 -1.2551 -2.0778  0.8372
 9665TIP3   OH228958   4.749   2.606   3.668 -0.2690 -0.7636  0.3500
 9665TIP3    H128959   4.771   2.698   3.654  0.6968 -0.8716  1.0730
 9665TIP3    H228960   4.663   2.608   3.710 -0.6231 -0.2292 -0.3931
 9666TIP3   OH228961   0.875   5.402   0.869 -0.1575 -0.4162  0.0577
 9666TIP3    H128962   0.952   5.449   0.837 -0.0808 -0.1343  0.6433
 9666TIP3    H228963   0.836   5.363   0.791  0.7457 -0.8119 -0.2144
 9667TIP3   OH228964   2.114   0.652   1.868  0.5425  0.8712  0.8180
 9667TIP3    H128965   2.135   0.717   1.801  0.1509  0.2163  0.0461
 9667TIP3    H228966   2.020   0.665   1.885 -0.2641 -1.3141 -1.4125
 9668TIP3   OH228967   4.176   4.657   2.216 -0.3234  0.2040  0.1298
 9668TIP3    H128968   4.090   4.622   2.240 -0.4297  0.0932 -0.4112
 9668TIP3    H228969   4.226   4.581   2.187 -0.0533  0.2752  0.4001
 9669TIP3   OH228970   4.321   2.321   5.648 -0.8310  0.6237 -0.0688
 9669TIP3    H128971   4.296   2.381   5.718 -0.6530  1.4653 -0.7097
 9669TIP3    H228972   4.268   2.348   5.573 -0.1777  0.4964 -0.5842
 9670TIP3   OH228973   2.325   6.713   5.556  0.7602  0.5830 -0.4870
 9670TIP3    H128974   2.256   6.713   5.623  1.7427 -1.7102  0.6475
 9670TIP3    H228975   2.326   6.624   5.522  2.6991  0.7266 -0.9660
 9671TIP3   OH228976   3.121   3.538   2.058  0.0230  0.3757 -0.3779
 9671TIP3    H128977   3.213   3.562   2.066  0.5623 -1.1572 -1.4616
 9671TIP3    H228978   3.122   3.447   2.030 -1.8417  0.2883 -0.3238
 9672TIP3   OH228979   0.488   1.679   1.793 -0.0458  0.3341  0.0140
 9672TIP3    H128980   0.557   1.632   1.839 -0.4753 -0.3272 -0.0137
 9672TIP3    H228981   0.442   1.727   1.862  0.8048  1.2652 -0.0420
 9673TIP3   OH228982   1.024   3.652   3.693 -0.3067 -0.3133 -0.0967
 9673TIP3    H128983   1.018   3.619   3.603  2.8467 -2.4182  0.3007
 9673TIP3    H228984   1.111   3.690   3.699 -0.0779 -1.0437  2.3012
 9674TIP3   OH228985   6.128   5.236   2.852 -0.1038  0.4608 -0.4219
 9674TIP3    H128986   6.144   5.238   2.758  2.2595  0.5355 -0.0891
 9674TIP3    H228987   6.133   5.328   2.879 -0.3207  0.3988 -0.1710
 9675TIP3   OH228988   6.488   2.178   1.072 -0.4032  0.2290 -0.2308
 9675TIP3    H128989   6.499   2.083   1.071  0.5602  0.3218 -1.5307
 9675TIP3    H228990   6.463   2.200   0.982  1.1405  1.3760 -0.4122
 9676TIP3   OH228991   6.142   1.895   0.611 -0.1041  0.2220 -1.0941
 9676TIP3    H128992   6.153   1.978   0.657 -0.9103  0.8092 -1.9254
 9676TIP3    H228993   6.135   1.829   0.680  3.0849  0.4348 -0.3867
 9677TIP3   OH228994   4.071   1.837   2.794 -0.1877 -0.1841  0.0455
 9677TIP3    H128995   4.001   1.884   2.838  0.7165  0.4164  0.8895
 9677TIP3    H228996   4.106   1.900   2.731 -0.5037 -0.5337 -0.4831
 9678TIP3   OH228997   4.474   0.138   1.628 -0.1007 -0.0954  0.1144
 9678TIP3    H128998   4.478   0.215   1.572 -0.1355 -0.1425  0.0472
 9678TIP3    H228999   4.537   0.156   1.698  1.0063 -0.6575 -0.7157
 9679TIP3   OH229000   1.226   6.487   1.518  0.4003 -0.1313 -0.4072
 9679TIP3    H129001   1.138   6.451   1.505 -1.4466  3.8072 -0.0951
 9679TIP3    H229002   1.281   6.437   1.458 -1.9988 -2.7423 -0.6317
 9680TIP3   OH229003   3.271   1.984   4.083  0.9116  0.1080  0.2716
 9680TIP3    H129004   3.190   2.003   4.129  1.7017  1.9359  1.0025
 9680TIP3    H229005   3.281   2.056   4.021  2.0644  0.0084  0.3198
 9681TIP3   OH229006   2.653   2.102   1.179 -0.0830 -0.0814 -0.3631
 9681TIP3    H129007   2.560   2.090   1.200  0.1913  0.5615  1.3235
 9681TIP3    H229008   2.699   2.039   1.235  0.6855  1.8162  1.2416
 9682TIP3   OH229009   1.092   3.495   2.048 -0.6778 -0.1016 -0.0146
 9682TIP3    H129010   1.036   3.492   1.971 -0.7908 -1.6735  0.1112
 9682TIP3    H229011   1.168   3.545   2.020 -0.8332 -0.4260 -1.0638
 9683TIP3   OH229012   4.475   2.190   0.027  0.2524 -0.2602  0.4884
 9683TIP3    H129013   4.436   2.111  -0.011  0.4219 -0.0565 -0.1023
 9683TIP3    H229014   4.437   2.194   0.115 -1.6829  0.3751 -0.3420
 9684TIP3   OH229015   4.721   4.805   4.195 -0.1350 -0.0825  0.1779
 9684TIP3    H129016   4.814   4.780   4.188 -0.3909 -1.0591  0.1278
 9684TIP3    H229017   4.701   4.845   4.110  0.5565  1.2758  0.6296
 9685TIP3   OH229018   0.243   4.425   5.747  0.6877 -0.0219 -0.0273
 9685TIP3    H129019   0.186   4.379   5.809 -0.0252  0.4358 -0.3282
 9685TIP3    H229020   0.315   4.364   5.732  0.5056 -0.4381  0.6955
 9686TIP3   OH229021   3.465   2.812   4.686  0.3220 -0.2384 -0.0239
 9686TIP3    H129022   3.428   2.764   4.612 -2.9241  1.6902  0.1760
 9686TIP3    H229023   3.415   2.894   4.690  2.5144  1.1578  2.4102
 9687TIP3   OH229024   4.977   1.325   5.465  0.4278  0.9072 -0.0564
 9687TIP3    H129025   5.054   1.292   5.513 -1.1202 -1.3944  1.0457
 9687TIP3    H229026   4.986   1.286   5.378 -0.1086 -0.5389  0.4898
 9688TIP3   OH229027   0.561   5.315   3.722  0.3006 -0.2813  0.3557
 9688TIP3    H129028   0.633   5.253   3.730 -0.7591 -1.3234  2.5089
 9688TIP3    H229029   0.544   5.344   3.811 -1.2662  0.7386 -0.2363
 9689TIP3   OH229030   5.820   4.675   0.231 -0.3783  0.3205  0.3857
 9689TIP3    H129031   5.773   4.757   0.223  1.1939  1.1944 -0.3010
 9689TIP3    H229032   5.851   4.673   0.322 -1.3119 -0.0547  0.7138
 9690TIP3   OH229033   3.558   6.305   2.551 -0.7890 -0.0379 -0.0048
 9690TIP3    H129034   3.556   6.365   2.625  2.8555  1.3193 -0.7644
 9690TIP3    H229035   3.468   6.275   2.541 -2.2219  2.9778  2.3177
 9691TIP3   OH229036   3.223   3.124   0.850 -0.1127  0.0755  0.7573
 9691TIP3    H129037   3.272   3.182   0.792 -0.1389 -0.2380  0.4155
 9691TIP3    H229038   3.278   3.115   0.928 -0.3327  0.9482  1.0260
 9692TIP3   OH229039   4.003   0.407   1.014  0.0086 -0.0271 -0.0313
 9692TIP3    H129040   3.996   0.415   0.919 -0.3007  1.2425  0.0833
 9692TIP3    H229041   3.936   0.466   1.049  2.5316  2.5034  0.9964
 9693TIP3   OH229042   3.710   0.186   4.865  0.0455  0.3114  0.0137
 9693TIP3    H129043   3.775   0.181   4.935  0.8755  2.0199 -0.5712
 9693TIP3    H229044   3.684   0.095   4.850  1.3558 -0.2874  1.1345
 9694TIP3   OH229045   3.224   3.763   3.043  0.2369  0.3516  0.4714
 9694TIP3    H129046   3.307   3.809   3.042  0.4802 -0.0771 -1.0492
 9694TIP3    H229047   3.187   3.777   2.956  0.9915 -3.4255 -0.6188
 9695TIP3   OH229048   3.444   3.871   5.253 -0.4724  0.0341  0.3460
 9695TIP3    H129049   3.499   3.912   5.186  0.1457 -0.6466  0.4329
 9695TIP3    H229050   3.401   3.945   5.296 -1.1285  0.4731 -0.9985
 9696TIP3   OH229051   1.247   6.218   1.766  0.1063  0.0667 -0.2642
 9696TIP3    H129052   1.314   6.230   1.698 -0.3846 -0.8994 -0.9419
 9696TIP3    H229053   1.167   6.196   1.717 -0.5443  0.5306  0.5727
 9697TIP3   OH229054   1.942   6.786   3.546 -0.8592  0.4598  0.3008
 9697TIP3    H129055   1.870   6.740   3.504 -2.3382  1.7383  1.3123
 9697TIP3    H229056   1.938   6.758   3.638 -0.4911  1.0286  0.5001
 9698TIP3   OH229057   6.825   2.880   5.258 -0.2141 -0.0665  0.2330
 9698TIP3    H129058   6.732   2.887   5.280 -0.1428 -0.0068  0.5238
 9698TIP3    H229059   6.869   2.877   5.343 -0.0931 -2.3068  0.1368
 9699TIP3   OH229060   4.367   0.898   2.494 -0.0502  0.3012  0.3026
 9699TIP3    H129061   4.378   0.991   2.512 -0.0887  0.6121 -1.1578
 9699TIP3    H229062   4.273   0.887   2.480  0.0390  0.1892 -0.2307
 9700TIP3   OH229063   3.653   1.627   2.261 -0.1228  0.3920  0.2927
 9700TIP3    H129064   3.558   1.620   2.261 -0.1854  0.6582 -1.2912
 9700TIP3    H229065   3.684   1.544   2.296 -0.9498 -0.8687 -1.7306
 9701TIP3   OH229066   2.325   5.097   3.688  0.4660 -0.2434  0.2015
 9701TIP3    H129067   2.384   5.109   3.614 -1.3390 -0.9022 -1.4359
 9701TIP3    H229068   2.272   5.177   3.689  0.2481 -0.3889  0.5540
 9702TIP3   OH229069   5.773   3.604   4.519  0.0871  0.2778 -0.3637
 9702TIP3    H129070   5.837   3.614   4.590  0.4606  0.6699 -0.7470
 9702TIP3    H229071   5.704   3.667   4.539 -0.5791 -0.6970  0.4717
 9703TIP3   OH229072   5.772   1.910   3.517  0.6298 -0.2978  0.2550
 9703TIP3    H129073   5.700   1.855   3.546 -0.6132  0.9788 -0.3076
 9703TIP3    H229074   5.770   1.904   3.421  1.6955 -0.7614  0.2473
 9704TIP3   OH229075   7.123  -0.022   1.569 -0.2662  0.5131  0.0827
 9704TIP3    H129076   7.140   0.014   1.657  2.4739 -1.4403  0.4953
 9704TIP3    H229077   7.136   0.052   1.510 -0.8230  1.5536  1.2218
 9705TIP3   OH229078   4.447   2.949   1.748 -0.0079 -0.3859  0.4562
 9705TIP3    H129079   4.475   2.896   1.673  0.2096 -1.3805  1.2096
 9705TIP3    H229080   4.400   2.888   1.804 -1.3831  0.6685  0.4838
 9706TIP3   OH229081   3.797   5.422   2.133 -0.4871  0.1798 -0.1195
 9706TIP3    H129082   3.854   5.345   2.143 -0.6081  0.0094 -0.7106
 9706TIP3    H229083   3.730   5.394   2.071 -0.7633  0.6375 -0.0281
 9707TIP3   OH229084   2.045   2.991   2.347 -0.2808 -0.1296  0.2453
 9707TIP3    H129085   2.058   2.914   2.402  0.9281 -0.4338 -0.4384
 9707TIP3    H229086   2.101   3.058   2.386  0.8102 -0.4344 -0.7707
 9708TIP3   OH229087   6.663   4.806   5.730 -0.1403  0.1222 -0.0812
 9708TIP3    H129088   6.693   4.860   5.804 -0.0326 -0.7548  0.5289
 9708TIP3    H229089   6.576   4.776   5.756 -0.2268  0.0486 -0.4517
 9709TIP3   OH229090   0.204   0.732   5.341 -0.4022 -0.4813  0.2555
 9709TIP3    H129091   0.212   0.826   5.325  2.0406 -0.7620 -0.5359
 9709TIP3    H229092   0.125   0.723   5.395 -0.6609  2.0078  0.3799
 9710TIP3   OH229093   5.127   2.844   3.899  0.0060  0.1442  0.1191
 9710TIP3    H129094   5.199   2.904   3.879  0.5614 -0.7718 -0.7432
 9710TIP3    H229095   5.167   2.757   3.898 -0.9705 -0.3233  0.3767
 9711TIP3   OH229096   2.110   2.858   3.709  0.1271  0.4014 -0.0976
 9711TIP3    H129097   2.197   2.818   3.703  0.0693  0.2844 -0.1725
 9711TIP3    H229098   2.077   2.856   3.619  0.2341  0.8697 -0.1529
 9712TIP3   OH229099   6.825   5.357   2.568  0.5706 -0.5795  0.9435
 9712TIP3    H129100   6.774   5.438   2.567 -1.9973 -2.0445  2.2143
 9712TIP3    H229101   6.810   5.319   2.481  0.8461 -0.2338  0.7427
 9713TIP3   OH229102   4.432   2.878   3.694 -0.2083 -0.3323  0.0711
 9713TIP3    H129103   4.490   2.819   3.647  0.8307  0.4312  0.3520
 9713TIP3    H229104   4.459   2.966   3.666  0.1114  0.1203  1.6862
 9714TIP3   OH229105   1.833   2.379   3.771 -0.4227 -0.0274  0.2109
 9714TIP3    H129106   1.775   2.307   3.796 -1.3086  1.2302  1.9617
 9714TIP3    H229107   1.779   2.436   3.716 -0.2879  0.2040  0.3144
 9715TIP3   OH229108   5.977   2.796   0.037  0.0436  0.0257  0.0861
 9715TIP3    H129109   6.050   2.780   0.098 -0.3637  0.0870  0.5978
 9715TIP3    H229110   5.966   2.713  -0.010  1.7830  0.6074 -1.4876
 9716TIP3   OH229111   6.390   6.670   2.004 -0.0885  0.0960  0.0480
 9716TIP3    H129112   6.366   6.656   2.095 -0.9085 -0.2275 -0.2094
 9716TIP3    H229113   6.477   6.709   2.008 -0.0986  0.0462  0.9643
 9717TIP3   OH229114   0.150   1.642   2.737  0.1283  0.4533 -0.0823
 9717TIP3    H129115   0.055   1.655   2.727  0.4495  1.9321 -1.8765
 9717TIP3    H229116   0.164   1.551   2.713 -0.9707 -0.2207  1.6437
 9718TIP3   OH229117   3.422   5.892   2.860 -0.4294  0.5328 -0.2597
 9718TIP3    H129118   3.399   5.982   2.840 -1.1641  0.3735 -0.1774
 9718TIP3    H229119   3.388   5.842   2.785  1.3623  0.4808 -1.0760
 9719TIP3   OH229120   5.189   3.248   1.472  0.4830 -0.1453 -0.2426
 9719TIP3    H129121   5.149   3.281   1.553 -0.7451  0.6238 -1.1252
 9719TIP3    H229122   5.207   3.327   1.421 -1.4424 -0.6921 -1.9128
 9720TIP3   OH229123   3.156   4.061   5.737  0.4032  0.2292  0.0008
 9720TIP3    H129124   3.236   4.108   5.762 -0.9524  1.4773  2.2163
 9720TIP3    H229125   3.099   4.128   5.700 -0.2446 -0.3345 -0.0372
 9721TIP3   OH229126   0.709   3.838   3.928 -0.0323  0.3400 -0.3990
 9721TIP3    H129127   0.715   3.746   3.901 -2.7219  0.1662 -0.6729
 9721TIP3    H229128   0.712   3.834   4.024 -0.3736 -0.0931 -0.3985
 9722TIP3   OH229129   3.972   1.674   5.542 -0.4136 -0.7374 -0.4875
 9722TIP3    H129130   4.042   1.609   5.538  0.9876  0.6279  0.8477
 9722TIP3    H229131   3.988   1.722   5.624 -0.5276  2.2301 -2.0759
 9723TIP3   OH229132   4.547   2.138   2.156 -0.1406 -0.4963  0.4800
 9723TIP3    H129133   4.600   2.087   2.094 -0.5216 -0.7999  0.4007
 9723TIP3    H229134   4.487   2.074   2.194 -1.4992  0.1222 -0.5573
 9724TIP3   OH229135   5.462   1.314   0.050 -0.5596 -0.1251  0.2325
 9724TIP3    H129136   5.425   1.261  -0.020 -1.7908 -0.0964  0.8395
 9724TIP3    H229137   5.556   1.315   0.032 -0.6607 -1.4463 -0.5180
 9725TIP3   OH229138   2.540   1.551   2.560  0.0275 -0.6720  0.0992
 9725TIP3    H129139   2.455   1.595   2.572  0.1439 -0.7017  1.1089
 9725TIP3    H229140   2.600   1.621   2.536  0.3385 -0.1343  2.2579
 9726TIP3   OH229141   5.499   4.681   4.027  0.0660  0.3366 -0.7206
 9726TIP3    H129142   5.594   4.688   4.027  0.0525  0.5324 -0.5909
 9726TIP3    H229143   5.478   4.640   3.943  0.5138 -3.2677  0.7862
 9727TIP3   OH229144   2.560   4.352   5.193 -0.8472 -0.2331 -0.3157
 9727TIP3    H129145   2.599   4.351   5.280 -1.0404  0.0178 -0.2225
 9727TIP3    H229146   2.468   4.327   5.208 -0.7600 -0.6746 -0.5105
 9728TIP3   OH229147   1.654   3.322   5.703  0.0988 -0.4225  0.4053
 9728TIP3    H129148   1.697   3.309   5.787  2.1034  1.6639 -0.1868
 9728TIP3    H229149   1.717   3.290   5.639  0.0775  1.0602 -0.4076
 9729TIP3   OH229150   0.756   2.989   2.120  0.0314  0.1374  0.4658
 9729TIP3    H129151   0.849   3.003   2.105  0.1045 -0.8119 -0.0263
 9729TIP3    H229152   0.751   2.959   2.211 -0.1142  2.9467  1.4945
 9730TIP3   OH229153   1.767   2.906   3.323 -0.3258 -0.2937 -0.0737
 9730TIP3    H129154   1.801   2.857   3.399 -0.0674  0.6411  0.4253
 9730TIP3    H229155   1.682   2.939   3.353  1.2386  3.0595  1.1660
 9731TIP3   OH229156   6.867   2.487   1.705  0.0384  0.3262 -0.4497
 9731TIP3    H129157   6.922   2.412   1.728 -1.9203 -0.7971  1.0026
 9731TIP3    H229158   6.892   2.511   1.616  1.7743 -1.0765 -0.3714
 9732TIP3   OH229159   6.266   4.719   0.920  0.1218 -0.3350  0.1045
 9732TIP3    H129160   6.185   4.762   0.947  1.2152  0.5474  2.1581
 9732TIP3    H229161   6.254   4.627   0.945 -0.0383 -0.0979  0.9286
 9733TIP3   OH229162   3.948   4.335   2.421 -0.1892 -0.1794  0.4754
 9733TIP3    H129163   3.974   4.350   2.331 -2.7264  3.4427  0.1239
 9733TIP3    H229164   3.860   4.297   2.415  0.2172 -1.3783  1.4951
 9734TIP3   OH229165   1.720   1.779   3.939  0.0167  0.1125 -0.1411
 9734TIP3    H129166   1.796   1.751   3.990  0.0962  1.0036  0.2479
 9734TIP3    H229167   1.747   1.863   3.900 -0.3703 -0.1113 -0.9115
 9735TIP3   OH229168   5.077   5.108   3.250  0.3049  0.5617  0.3750
 9735TIP3    H129169   5.061   5.125   3.343  0.4852  2.8282  0.0475
 9735TIP3    H229170   5.168   5.135   3.236 -0.0064  1.1171 -0.6478
 9736TIP3   OH229171   7.116   2.397   1.556  0.1875  0.2557 -0.2747
 9736TIP3    H129172   7.047   2.354   1.506 -1.3893 -1.2383  2.9028
 9736TIP3    H229173   7.195   2.346   1.538 -0.2944 -0.1201 -1.3560
 9737TIP3   OH229174   7.107   4.677   4.913 -0.4074  0.0778 -0.1251
 9737TIP3    H129175   7.036   4.704   4.854  0.1126  1.6104 -0.0875
 9737TIP3    H229176   7.156   4.757   4.930 -0.0675 -0.4790  1.7762
 9738TIP3   OH229177   3.470   2.290   2.430  0.6028 -0.3670 -0.5587
 9738TIP3    H129178   3.543   2.227   2.428  1.2871  0.3679  0.4630
 9738TIP3    H229179   3.439   2.288   2.520 -1.7304 -1.8292 -1.3049
 9739TIP3   OH229180   0.172   2.964   2.611  0.0219 -0.0620 -0.1293
 9739TIP3    H129181   0.123   2.903   2.667  0.5582  1.5935  2.2555
 9739TIP3    H229182   0.106   2.998   2.551 -0.7819 -1.1883  0.0714
 9740TIP3   OH229183   5.237   4.162   0.945 -0.5294  0.6565 -0.3125
 9740TIP3    H129184   5.155   4.209   0.959 -1.1858 -0.6077  0.2926
 9740TIP3    H229185   5.299   4.229   0.915 -0.5608  2.5607  3.3455
 9741TIP3   OH229186   2.895   0.926   2.402 -0.0523 -0.2072 -0.4517
 9741TIP3    H129187   2.942   0.895   2.479 -0.5066 -0.3841 -0.2450
 9741TIP3    H229188   2.822   0.865   2.392  0.2250 -0.4157 -1.2521
 9742TIP3   OH229189   3.576   5.105   0.907 -0.0033 -0.2377  0.1548
 9742TIP3    H129190   3.613   5.044   0.970  0.0215 -0.6716 -0.2766
 9742TIP3    H229191   3.587   5.191   0.948  0.5586 -0.4556  0.4712
 9743TIP3   OH229192   0.590   0.917   0.933  0.3372  0.1188  0.5485
 9743TIP3    H129193   0.561   0.826   0.941  0.9555 -0.1443 -0.0845
 9743TIP3    H229194   0.595   0.948   1.023  1.9727 -1.0826  0.9362
 9744TIP3   OH229195   0.703   5.789   0.701  0.5609 -0.0288  0.3662
 9744TIP3    H129196   0.694   5.856   0.633 -0.2638  1.2210  1.6622
 9744TIP3    H229197   0.793   5.757   0.690  0.0367 -0.9224 -2.1952
 9745TIP3   OH229198   2.122   4.061   5.726 -0.1104  0.3151  0.1334
 9745TIP3    H129199   2.199   4.050   5.671  1.1843  1.8586  1.5040
 9745TIP3    H229200   2.137   4.001   5.800 -0.7730 -0.1824 -0.1320
 9746TIP3   OH229201   6.007   4.808   4.985  0.2096  0.3034 -0.3767
 9746TIP3    H129202   5.995   4.713   4.982  3.8392 -0.2876  0.1945
 9746TIP3    H229203   5.966   4.839   4.904 -0.4331 -1.8235 -0.9440
 9747TIP3   OH229204   0.114   2.641   3.551  0.4964 -0.4200  0.3669
 9747TIP3    H129205   0.146   2.647   3.461 -0.7188 -0.6444 -0.0969
 9747TIP3    H229206   0.171   2.699   3.600  0.5447  0.5012 -0.7363
 9748TIP3   OH229207   5.421   4.969   5.526  0.5854  0.1359  0.5173
 9748TIP3    H129208   5.457   4.994   5.610 -0.7249  0.2029  1.0919
 9748TIP3    H229209   5.491   4.921   5.482  1.0330 -0.5921  1.9736
 9749TIP3   OH229210   3.750   4.591   1.558  0.5845  0.4299  0.2554
 9749TIP3    H129211   3.731   4.589   1.464  0.1740  0.5352  0.3321
 9749TIP3    H229212   3.736   4.682   1.583  1.0304  0.4712  0.3516
   7.20536   6.79329   5.88314   0.00000   0.00000  -2.40179   0.00000  -2.40179  -3.39664
